Protein in INSANE! Membrane UpperLeaflet>POPC=1.0 LowerLeaflet>POPC=1.0
239342
    1AU     AUC    1  44.056  12.280   7.500
    1AU     AUC    2  44.318  12.277   7.339
    1AU     AUC    3  44.311  12.268   7.646
    1AU     AUC    4  43.809  12.282   7.339
    1AU     AUC    5  43.792  12.303   7.646
    1AU     AUC    6  43.912  12.542   7.501
    1AU     AUC    7  44.219  12.533   7.477
    1AU     AUC    8  43.897  12.026   7.512
    1AU     AUC    9  44.191  12.021   7.526
    1AU     AUC   10  44.044  12.133   7.764
    1AU     AUC   11  44.082  12.447   7.749
    1AU     AUC   12  44.057  12.113   7.244
    1AU     AUC   13  44.045  12.416   7.235
    1AU     AUC   14  44.566  12.266   7.172
    1AU     AUC   15  44.577  12.275   7.482
    1AU     AUC   16  44.569  12.269   7.795
    1AU     AUC   17  43.549  12.273   7.182
    1AU     AUC   18  43.536  12.305   7.484
    1AU     AUC   19  43.546  12.326   7.808
    1AU     AUC   20  43.774  12.813   7.500
    1AU     AUC   21  44.079  12.808   7.490
    1AU     AUC   22  44.372  12.798   7.486
    1AU     AUC   23  43.709  11.776   7.525
    1AU     AUC   24  44.029  11.755   7.511
    1AU     AUC   25  44.342  11.753   7.534
    1AU     AUC   26  44.022  11.981   8.014
    1AU     AUC   27  44.060  12.292   8.029
    1AU     AUC   28  44.086  12.604   8.016
    1AU     AUC   29  44.056  11.934   7.010
    1AU     AUC   30  44.066  12.253   6.975
    1AU     AUC   31  44.046  12.567   6.969
    1AU     AUC   32  44.324  12.129   7.924
    1AU     AUC   33  44.330  12.424   7.917
    1AU     AUC   34  44.326  12.103   7.081
    1AU     AUC   35  44.324  12.415   7.066
    1AU     AUC   36  43.785  12.159   7.929
    1AU     AUC   37  43.806  12.466   7.927
    1AU     AUC   38  43.806  12.108   7.071
    1AU     AUC   39  43.797  12.423   7.072
    1AU     AUC   40  44.475  12.541   7.315
    1AU     AUC   41  44.487  12.517   7.637
    1AU     AUC   42  43.644  12.546   7.343
    1AU     AUC   43  43.653  12.571   7.663
    1AU     AUC   44  44.465  12.010   7.351
    1AU     AUC   45  44.469  12.011   7.669
    1AU     AUC   46  43.627  12.027   7.344
    1AU     AUC   47  43.629  12.051   7.681
    1AU     AUC   48  43.917  12.707   7.767
    1AU     AUC   49  44.239  12.705   7.737
    1AU     AUC   50  43.870  11.866   7.766
    1AU     AUC   51  44.193  11.865   7.787
    1AU     AUC   52  43.901  12.696   7.232
    1AU     AUC   53  44.219  12.681   7.217
    1AU     AUC   54  43.877  11.866   7.250
    1AU     AUC   55  44.207  11.846   7.267
    1AU    AUSL   56  44.396  12.227   8.099
    1AU    AUSL   57  44.362  11.795   8.140
    1AU     AUL   58  44.596  11.883   8.397
    1AU       S   59  44.620  11.516   8.063
    1AU     LIG   60  44.534  11.340   8.449
    1AU     LIG   61  44.564  10.918   8.608
    1AU     LIG   62  44.800  10.576   8.814
    1AU     LIG   63   0.051  10.270   9.070
    1AU     LIG   64   0.175  10.008   9.448
    1AU     LIG   65   0.188   9.911   9.918
    1AU       S   66  44.469  12.244   8.657
    1AU     LIG   67  44.743  11.979   8.934
    1AU     LIG   68  44.935  11.849   9.359
    1AU     LIG   69   0.165  11.705   9.749
    1AU     LIG   70   0.574  11.674   9.995
    1AU     LIG   71   0.952  11.827  10.240
    1AU     LIG   72   1.164  12.191  10.468
    1AU    AUSL   73  44.119  12.061   8.370
    1AU    AUSL   74  44.009  12.468   8.292
    1AU     AUL   75  44.062  12.431   8.707
    1AU       S   76  44.195  12.057   8.509
    1AU     LIG   77  44.322  11.711   8.792
    1AU     LIG   78  44.534  11.558   9.215
    1AU     LIG   79  44.702  11.435   9.677
    1AU     LIG   80  44.711  11.244  10.148
    1AU     LIG   81  44.716  11.256  10.646
    1AU     LIG   82  44.817  11.497  11.052
    1AU       S   83  43.692  12.183   8.649
    1AU     LIG   84  43.549  12.079   9.109
    1AU     LIG   85  43.381  11.966   9.539
    1AU     LIG   86  43.269  11.929   9.998
    1AU     LIG   87  43.311  12.208  10.397
    1AU     LIG   88  43.241  12.582  10.706
    1AU     LIG   89  43.107  12.884  11.054
    1AU    AUSL   90  44.398  12.603   8.280
    1AU    AUSL   91  44.729  12.456   7.974
    1AU     AUL   92  44.695  12.325   8.277
    1AU       S   93  44.416  12.626   8.485
    1AU     LIG   94  44.491  12.794   8.905
    1AU     LIG   95  44.673  12.954   9.323
    1AU     LIG   96  44.617  13.044   9.802
    1AU     LIG   97  44.582  13.132  10.274
    1AU     LIG   98  44.716  13.173  10.724
    1AU     LIG   99   0.026  13.042  11.057
    1AU       S  100   0.030  12.518   8.022
    1AU     LIG  101   0.255  12.524   8.428
    1AU     LIG  102   0.482  12.812   8.733
    1AU     LIG  103   0.785  13.017   9.052
    1AU     LIG  104   1.157  13.074   9.378
    1AU     LIG  105   1.513  13.155   9.714
    1AU     LIG  106   1.751  13.474   9.991
    1AU    AUSL  107  44.593  12.308   6.865
    1AU    AUSL  108  44.355  12.704   6.814
    1AU     AUL  109  44.716  12.652   6.450
    1AU       S  110  44.620  12.332   6.712
    1AU     LIG  111  44.919  12.228   6.327
    1AU     LIG  112  44.978  12.029   5.917
    1AU     LIG  113   0.126  11.880   5.484
    1AU     LIG  114   0.467  11.800   5.136
    1AU     LIG  115   0.887  11.744   4.876
    1AU     LIG  116   1.195  11.824   4.513
    1AU       S  117  44.346  12.753   6.653
    1AU     LIG  118  44.635  13.119   6.567
    1AU     LIG  119   0.004  13.176   6.277
    1AU     LIG  120   0.306  13.341   5.919
    1AU     LIG  121   0.450  13.565   5.504
    1AU     LIG  122   0.663  13.854   5.181
    1AU     LIG  123   0.854  14.169   4.869
    1AU    AUSL  124  44.334  11.984   6.703
    1AU    AUSL  125  44.671  11.919   6.997
    1AU     AUL  126  44.767  11.927   6.684
    1AU       S  127  44.646  11.503   6.820
    1AU     LIG  128  44.863  11.284   6.460
    1AU     LIG  129   0.083  10.889   6.307
    1AU     LIG  130   0.333  10.632   6.001
    1AU     LIG  131   0.626  10.597   5.634
    1AU     LIG  132   1.040  10.635   5.407
    1AU     LIG  133   1.450  10.620   5.173
    1AU       S  134  44.436  12.193   6.443
    1AU     LIG  135  44.571  11.808   6.233
    1AU     LIG  136  44.663  11.648   5.786
    1AU     LIG  137  44.717  11.604   5.306
    1AU     LIG  138  44.700  11.316   4.903
    1AU     LIG  139  44.722  11.134   4.449
    1AU     LIG  140  44.664  11.124   3.978
    1AU    AUSL  141  44.173  12.341   6.878
    1AU    AUSL  142  43.922  12.082   6.657
    1AU     AUL  143  44.128  11.867   6.563
    1AU       S  144  43.880  12.182   6.322
    1AU     LIG  145  43.828  11.878   6.001
    1AU     LIG  146  43.549  11.638   5.705
    1AU     LIG  147  43.352  11.540   5.284
    1AU     LIG  148  43.111  11.445   4.884
    1AU     LIG  149  43.102  11.174   4.480
    1AU     LIG  150  43.129  11.209   3.997
    1AU       S  151  44.320  12.311   6.496
    1AU     LIG  152  44.476  12.252   5.970
    1AU     LIG  153  44.642  12.101   5.530
    1AU     LIG  154  44.837  12.086   5.086
    1AU     LIG  155  44.914  12.271   4.635
    1AU     LIG  156  44.949  12.515   4.211
    1AU     LIG  157   0.001  12.759   3.797
    1AU    AUSL  158  43.615  12.352   8.219
    1AU    AUSL  159  43.760  12.764   8.133
    1AU     AUL  160  43.790  12.660   8.421
    1AU       S  161  43.532  12.357   8.672
    1AU     LIG  162  43.201  12.029   8.728
    1AU     LIG  163  43.051  11.839   9.155
    1AU     LIG  164  42.907  11.750   9.633
    1AU     LIG  165  42.637  11.699  10.043
    1AU     LIG  166  42.319  11.885  10.384
    1AU     LIG  167  41.875  11.993  10.582
    1AU       S  168  43.340  12.731   8.358
    1AU     LIG  169  43.351  12.844   8.795
    1AU     LIG  170  43.265  13.188   9.114
    1AU     LIG  171  43.089  13.556   9.371
    1AU     LIG  172  42.966  13.773   9.794
    1AU     LIG  173  42.848  13.961  10.239
    1AU     LIG  174  42.726  14.293  10.574
    1AU    AUSL  175  43.919  12.150   8.020
    1AU    AUSL  176  43.370  12.090   8.006
    1AU     AUL  177  43.424  12.213   8.249
    1AU       S  178  43.215  11.793   8.239
    1AU     LIG  179  42.790  11.686   8.082
    1AU     LIG  180  42.489  11.354   8.218
    1AU     LIG  181  42.300  11.059   8.536
    1AU     LIG  182  42.073  10.712   8.750
    1AU     LIG  183  41.872  10.504   9.114
    1AU     LIG  184  41.565  10.559   9.467
    1AU       S  185  43.715  12.071   8.601
    1AU     LIG  186  43.563  11.675   8.800
    1AU     LIG  187  43.461  11.543   9.243
    1AU     LIG  188  43.332  11.468   9.698
    1AU     LIG  189  43.125  11.426  10.119
    1AU     LIG  190  42.879  11.277  10.490
    1AU     LIG  191  42.937  11.189  10.951
    1AU    AUSL  192  43.662  12.229   6.951
    1AU    AUSL  193  43.805  11.804   6.939
    1AU     AUL  194  43.629  11.915   6.639
    1AU       S  195  43.636  12.263   6.315
    1AU     LIG  196  43.344  12.055   6.006
    1AU     LIG  197  43.113  11.892   5.609
    1AU     LIG  198  42.848  11.643   5.293
    1AU     LIG  199  42.576  11.564   4.913
    1AU     LIG  200  42.208  11.693   4.626
    1AU     LIG  201  41.904  11.861   4.297
    1AU       S  202  43.342  11.519   6.792
    1AU     LIG  203  43.045  11.160   6.767
    1AU     LIG  204  42.720  10.897   6.514
    1AU     LIG  205  42.458  10.586   6.227
    1AU     LIG  206  42.395  10.315   5.795
    1AU     LIG  207  42.391  10.255   5.284
    1AU     LIG  208  42.355  10.081   4.816
    1AU    AUSL  209  43.856  12.515   6.666
    1AU    AUSL  210  43.426  12.573   6.942
    1AU     AUL  211  43.449  12.353   6.716
    1AU       S  212  43.381  12.815   6.723
    1AU     LIG  213  43.104  12.931   6.328
    1AU     LIG  214  42.920  13.160   5.925
    1AU     LIG  215  42.727  13.265   5.481
    1AU     LIG  216  42.362  13.342   5.166
    1AU     LIG  217  41.913  13.445   5.034
    1AU     LIG  218  41.480  13.607   4.898
    1AU       S  219  43.858  12.441   6.456
    1AU     LIG  220  43.833  12.420   5.899
    1AU     LIG  221  43.600  12.138   5.567
    1AU     LIG  222  43.338  12.062   5.165
    1AU     LIG  223  43.245  12.278   4.734
    1AU     LIG  224  43.235  12.506   4.299
    1AU     LIG  225  43.196  12.686   3.850
    1AU    AUSL  226  44.688  12.889   7.432
    1AU    AUSL  227  44.705  12.659   7.065
    1AU     AUL  228  44.819  13.102   7.233
    1AU       S  229  44.836  12.758   6.880
    1AU     LIG  230   0.189  12.749   6.564
    1AU     LIG  231   0.479  12.961   6.238
    1AU     LIG  232   0.763  13.055   5.851
    1AU     LIG  233   1.200  13.035   5.634
    1AU     LIG  234   1.576  13.212   5.391
    1AU     LIG  235   1.840  13.503   5.118
    1AU       S  236   0.142  12.774   7.334
    1AU     LIG  237   0.627  12.806   7.493
    1AU     LIG  238   1.117  12.905   7.524
    1AU     LIG  239   1.578  13.084   7.507
    1AU     LIG  240   1.871  13.475   7.386
    1AU     LIG  241   2.094  13.908   7.318
    1AU     LIG  242   2.384  14.205   7.536
    1AU    AUSL  243  44.891  12.328   7.224
    1AU    AUSL  244  44.912  12.159   7.643
    1AU     AUL  245   0.121  12.106   7.297
    1AU       S  246   0.094  12.566   7.314
    1AU     LIG  247   0.526  12.416   7.183
    1AU     LIG  248   1.009  12.475   7.255
    1AU     LIG  249   1.487  12.634   7.257
    1AU     LIG  250   1.939  12.846   7.204
    1AU     LIG  251   2.412  12.846   7.042
    1AU     LIG  252   2.730  13.182   6.877
    1AU       S  253   0.268  11.832   7.638
    1AU     LIG  254   0.453  11.552   7.924
    1AU     LIG  255   0.836  11.281   7.876
    1AU     LIG  256   1.264  11.084   7.761
    1AU     LIG  257   1.718  10.901   7.727
    1AU     LIG  258   2.140  10.805   7.956
    1AU     LIG  259   2.608  10.808   7.877
    1AU    AUSL  260  44.676  12.489   7.562
    1AU    AUSL  261  44.589  12.831   7.839
    1AU     AUL  262  44.846  12.808   7.698
    1AU       S  263  44.895  12.745   8.140
    1AU     LIG  264   0.258  13.028   8.292
    1AU     LIG  265   0.443  13.319   8.631
    1AU     LIG  266   0.663  13.707   8.791
    1AU     LIG  267   0.942  14.098   8.793
    1AU     LIG  268   1.285  14.429   8.891
    1AU     LIG  269   1.570  14.819   8.904
    1AU       S  270   0.177  12.535   7.547
    1AU     LIG  271   0.549  12.332   7.700
    1AU     LIG  272   1.016  12.455   7.770
    1AU     LIG  273   1.471  12.634   7.805
    1AU     LIG  274   1.926  12.664   8.020
    1AU     LIG  275   2.396  12.787   8.074
    1AU     LIG  276   2.866  12.889   8.141
    1AU    AUSL  277  43.402  12.853   7.571
    1AU    AUSL  278  43.447  12.583   7.917
    1AU     AUL  279  43.414  13.033   7.838
    1AU       S  280  43.247  12.658   8.099
    1AU     LIG  281  42.873  12.843   8.391
    1AU     LIG  282  42.851  13.035   8.832
    1AU     LIG  283  42.693  13.251   9.231
    1AU     LIG  284  42.337  13.304   9.574
    1AU     LIG  285  41.924  13.416   9.812
    1AU     LIG  286  41.543  13.702   9.904
    1AU       S  287  43.031  12.886   7.637
    1AU     LIG  288  42.754  13.277   7.568
    1AU     LIG  289  42.456  13.667   7.515
    1AU     LIG  290  42.078  13.988   7.505
    1AU     LIG  291  41.717  14.269   7.663
    1AU     LIG  292  41.347  14.570   7.645
    1AU     LIG  293  40.893  14.658   7.795
    1AU    AUSL  294  43.480  12.509   7.345
    1AU    AUSL  295  43.569  12.919   7.187
    1AU     AUL  296  43.299  12.847   7.211
    1AU       S  297  42.914  12.795   7.476
    1AU     LIG  298  42.480  12.689   7.316
    1AU     LIG  299  42.103  12.761   6.998
    1AU     LIG  300  41.736  13.006   6.787
    1AU     LIG  301  41.379  13.341   6.735
    1AU     LIG  302  40.907  13.543   6.688
    1AU     LIG  303  40.456  13.371   6.759
    1AU       S  304  43.407  13.087   6.811
    1AU     LIG  305  43.352  13.362   6.425
    1AU     LIG  306  43.117  13.627   6.082
    1AU     LIG  307  42.914  14.047   5.916
    1AU     LIG  308  42.703  14.492   5.864
    1AU     LIG  309  42.353  14.820   5.897
    1AU     LIG  310  41.909  14.891   6.035
    1AU    AUSL  311  43.185  12.437   7.642
    1AU    AUSL  312  43.233  12.183   7.290
    1AU     AUL  313  43.085  12.442   7.247
    1AU       S  314  42.884  12.003   7.417
    1AU     LIG  315  42.522  12.019   7.758
    1AU     LIG  316  42.046  12.110   7.724
    1AU     LIG  317  41.581  12.102   7.563
    1AU     LIG  318  41.233  11.901   7.231
    1AU     LIG  319  40.979  11.507   7.282
    1AU     LIG  320  40.564  11.275   7.279
    1AU       S  321  42.999  12.490   7.719
    1AU     LIG  322  42.649  12.697   7.928
    1AU     LIG  323  42.207  12.827   8.046
    1AU     LIG  324  41.776  13.011   8.135
    1AU     LIG  325  41.374  13.055   8.389
    1AU     LIG  326  40.970  13.332   8.446
    1AU     LIG  327  40.518  13.311   8.265
    1AU    AUSL  328  44.754  11.755   7.578
    1AU    AUSL  329  44.695  11.984   7.949
    1AU     AUL  330  44.977  12.012   7.937
    1AU       S  331  44.977  11.607   7.618
    1AU     LIG  332   0.123  11.204   7.748
    1AU     LIG  333   0.525  10.959   7.622
    1AU     LIG  334   0.954  10.758   7.511
    1AU     LIG  335   1.400  10.583   7.468
    1AU     LIG  336   1.797  10.332   7.386
    1AU     LIG  337   2.221  10.165   7.479
    1AU       S  338  44.706  11.640   8.027
    1AU     LIG  339   0.034  11.326   8.252
    1AU     LIG  340   0.082  10.935   8.525
    1AU     LIG  341   0.327  10.646   8.832
    1AU     LIG  342   0.667  10.578   9.189
    1AU     LIG  343   1.044  10.603   9.519
    1AU     LIG  344   1.435  10.542   9.812
    1AU    AUSL  345  44.596  12.083   7.367
    1AU    AUSL  346  44.510  11.621   7.264
    1AU     AUL  347  44.817  11.760   7.194
    1AU       S  348   0.056  11.716   7.576
    1AU     LIG  349   0.456  11.433   7.418
    1AU     LIG  350   0.905  11.251   7.364
    1AU     LIG  351   1.331  11.047   7.255
    1AU     LIG  352   1.776  10.871   7.200
    1AU     LIG  353   2.215  10.975   7.014
    1AU     LIG  354   2.660  11.033   6.829
    1AU       S  355  44.703  11.355   6.973
    1AU     LIG  356  44.673  10.918   6.772
    1AU     LIG  357  44.832  10.510   6.547
    1AU     LIG  358   0.140  10.240   6.286
    1AU     LIG  359   0.320   9.848   6.065
    1AU     LIG  360   0.730   9.562   5.994
    1AU     LIG  361   1.180   9.611   5.825
    1AU    AUSL  362  43.323  11.801   7.478
    1AU    AUSL  363  43.417  11.907   7.049
    1AU     AUL  364  43.154  12.009   7.026
    1AU       S  365  43.315  11.578   7.038
    1AU     LIG  366  42.848  11.599   6.973
    1AU     LIG  367  42.530  11.323   6.761
    1AU     LIG  368  42.204  11.042   6.544
    1AU     LIG  369  41.788  10.938   6.314
    1AU     LIG  370  41.575  10.815   5.912
    1AU     LIG  371  41.427  10.691   5.480
    1AU       S  372  43.024  11.782   7.411
    1AU     LIG  373  42.630  11.570   7.523
    1AU     LIG  374  42.154  11.600   7.612
    1AU     LIG  375  41.752  11.342   7.728
    1AU     LIG  376  41.341  11.224   7.523
    1AU     LIG  377  40.917  11.079   7.589
    1AU     LIG  378  40.637  10.771   7.793
    1AU    AUSL  379  43.499  12.169   7.629
    1AU    AUSL  380  43.581  11.777   7.812
    1AU     AUL  381  43.203  11.950   7.798
    1AU       S  382  43.297  11.591   8.072
    1AU     LIG  383  43.039  11.353   7.790
    1AU     LIG  384  42.741  11.004   7.938
    1AU     LIG  385  42.477  10.694   8.213
    1AU     LIG  386  42.279  10.323   8.476
    1AU     LIG  387  41.984  10.069   8.750
    1AU     LIG  388  41.652   9.707   8.796
    1AU       S  389  42.928  12.068   7.461
    1AU     LIG  390  42.438  12.160   7.283
    1AU     LIG  391  41.998  11.975   7.234
    1AU     LIG  392  41.664  11.663   7.362
    1AU     LIG  393  41.280  11.690   7.685
    1AU     LIG  394  40.816  11.571   7.769
    1AU     LIG  395  40.457  11.271   7.796
    1AU    AUSL  396  44.113  12.967   8.034
    1AU    AUSL  397  43.777  12.751   7.718
    1AU     AUL  398  43.813  13.045   8.113
    1AU       S  399  43.409  12.884   8.266
    1AU     LIG  400  43.205  13.237   8.497
    1AU     LIG  401  43.018  13.529   8.826
    1AU     LIG  402  42.873  13.914   9.044
    1AU     LIG  403  42.663  14.339   9.011
    1AU     LIG  404  42.296  14.638   8.994
    1AU     LIG  405  41.986  14.994   9.008
    1AU       S  406  44.169  13.355   8.005
    1AU     LIG  407  44.379  13.517   8.372
    1AU     LIG  408  44.521  13.925   8.561
    1AU     LIG  409  44.553  14.364   8.740
    1AU     LIG  410  44.531  14.639   9.134
    1AU     LIG  411  44.380  14.892   9.523
    1AU     LIG  412  44.409  15.263   9.830
    1AU    AUSL  413  43.858  13.150   7.672
    1AU    AUSL  414  44.308  13.123   7.253
    1AU     AUL  415  43.993  13.380   7.423
    1AU       S  416  44.014  13.429   7.881
    1AU     LIG  417  44.167  13.871   8.062
    1AU     LIG  418  44.271  14.285   8.287
    1AU     LIG  419  44.282  14.733   8.456
    1AU     LIG  420  44.083  15.179   8.460
    1AU     LIG  421  43.911  15.635   8.505
    1AU     LIG  422  43.851  16.118   8.544
    1AU       S  423  44.338  13.463   7.100
    1AU     LIG  424  44.708  13.659   6.916
    1AU     LIG  425  44.799  14.121   6.831
    1AU     LIG  426  44.841  14.578   6.697
    1AU     LIG  427   0.113  14.996   6.636
    1AU     LIG  428   0.274  15.481   6.601
    1AU     LIG  429   0.272  15.970   6.518
    1AU    AUSL  430  44.259  12.981   7.641
    1AU    AUSL  431  44.245  12.601   7.903
    1AU     AUL  432  44.444  12.990   8.035
    1AU       S  433  44.820  12.772   8.232
    1AU     LIG  434  44.944  12.865   8.668
    1AU     LIG  435   0.156  13.106   9.013
    1AU     LIG  436   0.475  13.406   9.195
    1AU     LIG  437   0.636  13.634   9.587
    1AU     LIG  438   0.643  14.019   9.886
    1AU     LIG  439   0.665  14.379  10.209
    1AU       S  440  44.348  13.302   7.713
    1AU     LIG  441  44.606  13.642   7.922
    1AU     LIG  442  44.717  14.077   8.112
    1AU     LIG  443  44.731  14.535   8.271
    1AU     LIG  444  44.945  14.961   8.373
    1AU     LIG  445   0.071  15.459   8.329
    1AU     LIG  446   0.123  15.959   8.333
    1AU    AUSL  447  44.009  11.711   7.936
    1AU    AUSL  448  44.372  11.832   7.722
    1AU     AUL  449  44.193  11.596   8.192
    1AU       S  450  44.081  11.171   8.067
    1AU     LIG  451  44.194  10.775   8.256
    1AU     LIG  452  43.935  10.406   8.271
    1AU     LIG  453  43.697  10.034   8.382
    1AU     LIG  454  43.811   9.669   8.640
    1AU     LIG  455  43.787   9.476   9.075
    1AU     LIG  456  43.880   9.321   9.518
    1AU       S  457  44.661  11.450   7.928
    1AU     LIG  458  44.642  10.995   8.079
    1AU     LIG  459  44.793  10.578   8.282
    1AU     LIG  460   0.067  10.246   8.531
    1AU     LIG  461   0.208   9.853   8.807
    1AU     LIG  462   0.614   9.593   8.978
    1AU     LIG  463   1.030   9.280   8.952
    1AU    AUSL  464  43.816  11.472   7.657
    1AU    AUSL  465  43.721  11.846   8.209
    1AU     AUL  466  43.742  11.499   8.015
    1AU       S  467  43.911  11.077   7.936
    1AU     LIG  468  43.738  10.668   7.843
    1AU     LIG  469  43.537  10.234   7.924
    1AU     LIG  470  43.162   9.906   7.979
    1AU     LIG  471  42.948   9.465   7.972
    1AU     LIG  472  42.807   9.091   8.231
    1AU     LIG  473  42.973   8.700   8.459
    1AU       S  474  43.467  11.730   8.306
    1AU     LIG  475  43.147  11.393   8.519
    1AU     LIG  476  42.820  11.028   8.481
    1AU     LIG  477  42.599  10.660   8.711
    1AU     LIG  478  42.369  10.379   9.011
    1AU     LIG  479  42.281  10.457   9.469
    1AU     LIG  480  42.357  10.388   9.937
    1AU    AUSL  481  44.263  11.432   7.712
    1AU    AUSL  482  43.775  11.463   7.239
    1AU     AUL  483  43.956  11.228   7.507
    1AU       S  484  43.708  11.130   7.108
    1AU     LIG  485  43.364  10.872   7.077
    1AU     LIG  486  43.254  10.428   7.170
    1AU     LIG  487  43.176   9.981   7.064
    1AU     LIG  488  43.188   9.597   6.824
    1AU     LIG  489  42.891   9.256   6.726
    1AU     LIG  490  42.705   8.832   6.661
    1AU       S  491  44.217  11.242   7.879
    1AU     LIG  492  44.260  10.759   7.749
    1AU     LIG  493  44.089  10.307   7.800
    1AU     LIG  494  44.109   9.935   8.093
    1AU     LIG  495  44.319   9.613   8.392
    1AU     LIG  496  44.444   9.139   8.422
    1AU     LIG  497  44.502   8.655   8.516
    1AU    AUSL  498  44.043  12.950   6.938
    1AU    AUSL  499  44.352  12.711   7.262
    1AU     AUL  500  44.417  13.026   6.994
    1AU       S  501  44.092  13.258   6.757
    1AU     LIG  502  44.374  13.555   6.537
    1AU     LIG  503  44.510  13.989   6.402
    1AU     LIG  504  44.452  14.348   6.072
    1AU     LIG  505  44.383  14.699   5.725
    1AU     LIG  506  44.348  15.116   5.462
    1AU     LIG  507  44.344  15.569   5.272
    1AU       S  508  44.782  12.736   6.957
    1AU     LIG  509   0.078  13.177   6.816
    1AU     LIG  510   0.389  13.411   6.520
    1AU     LIG  511   0.617  13.787   6.316
    1AU     LIG  512   1.013  14.013   6.182
    1AU     LIG  513   1.240  14.411   6.022
    1AU     LIG  514   1.469  14.846   6.059
    1AU    AUSL  515  43.951  12.914   7.346
    1AU    AUSL  516  43.837  12.618   7.061
    1AU     AUL  517  43.783  13.108   7.091
    1AU       S  518  44.136  13.410   6.990
    1AU     LIG  519  44.252  13.909   6.881
    1AU     LIG  520  44.332  14.363   6.717
    1AU     LIG  521  44.118  14.784   6.578
    1AU     LIG  522  43.776  15.145   6.504
    1AU     LIG  523  43.491  15.554   6.505
    1AU     LIG  524  43.406  16.022   6.457
    1AU       S  525  43.637  12.917   6.688
    1AU     LIG  526  43.611  12.920   6.247
    1AU     LIG  527  43.428  13.223   5.922
    1AU     LIG  528  43.200  13.475   5.571
    1AU     LIG  529  43.109  13.727   5.156
    1AU     LIG  530  42.974  14.148   4.953
    1AU     LIG  531  42.794  14.350   4.556
    1AU    AUSL  532  44.131  11.552   6.979
    1AU    AUSL  533  43.712  11.852   7.350
    1AU     AUL  534  43.772  11.555   6.936
    1AU       S  535  43.325  11.453   7.168
    1AU     LIG  536  42.964  11.207   7.279
    1AU     LIG  537  42.667  10.913   7.044
    1AU     LIG  538  42.385  10.612   6.780
    1AU     LIG  539  42.197  10.240   6.534
    1AU     LIG  540  41.876   9.982   6.288
    1AU     LIG  541  41.939   9.526   6.120
    1AU       S  542  44.031  11.182   6.893
    1AU     LIG  543  43.808  10.827   6.695
    1AU     LIG  544  43.658  10.423   6.845
    1AU     LIG  545  43.628   9.964   6.747
    1AU     LIG  546  43.667   9.685   6.356
    1AU     LIG  547  43.751   9.565   5.887
    1AU     LIG  548  43.917   9.367   5.484
    1AU    AUSL  549  44.118  11.650   7.394
    1AU    AUSL  550  44.249  11.927   7.096
    1AU     AUL  551  44.303  11.410   7.200
    1AU       S  552  43.943  11.131   7.070
    1AU     LIG  553  44.028  10.676   7.154
    1AU     LIG  554  44.064  10.191   7.091
    1AU     LIG  555  44.091   9.739   6.935
    1AU     LIG  556  44.319   9.314   6.984
    1AU     LIG  557  44.490   8.856   6.969
    1AU     LIG  558  44.658   8.427   6.793
    1AU       S  559  44.502  11.542   6.737
    1AU     LIG  560  44.352  11.208   6.486
    1AU     LIG  561  44.568  10.859   6.255
    1AU     LIG  562  44.815  10.526   6.011
    1AU     LIG  563   0.090  10.255   5.722
    1AU     LIG  564   0.221  10.187   5.257
    1AU     LIG  565   0.403   9.941   4.884
    2AU     AUC  566  23.173  36.350   7.502
    2AU     AUC  567  23.429  36.348   7.335
    2AU     AUC  568  23.428  36.335   7.647
    2AU     AUC  569  22.926  36.353   7.342
    2AU     AUC  570  22.909  36.374   7.649
    2AU     AUC  571  23.029  36.612   7.505
    2AU     AUC  572  23.331  36.603   7.478
    2AU     AUC  573  23.015  36.097   7.514
    2AU     AUC  574  23.313  36.092   7.525
    2AU     AUC  575  23.163  36.201   7.765
    2AU     AUC  576  23.199  36.517   7.753
    2AU     AUC  577  23.172  36.184   7.246
    2AU     AUC  578  23.164  36.490   7.238
    2AU     AUC  579  23.681  36.342   7.175
    2AU     AUC  580  23.693  36.340   7.480
    2AU     AUC  581  23.686  36.331   7.799
    2AU     AUC  582  22.666  36.345   7.186
    2AU     AUC  583  22.654  36.376   7.488
    2AU     AUC  584  22.664  36.395   7.812
    2AU     AUC  585  22.892  36.883   7.506
    2AU     AUC  586  23.199  36.878   7.495
    2AU     AUC  587  23.503  36.863   7.484
    2AU     AUC  588  22.825  35.847   7.528
    2AU     AUC  589  23.145  35.825   7.512
    2AU     AUC  590  23.461  35.824   7.532
    2AU     AUC  591  23.145  36.047   8.015
    2AU     AUC  592  23.178  36.360   8.031
    2AU     AUC  593  23.205  36.671   8.021
    2AU     AUC  594  23.169  36.003   7.011
    2AU     AUC  595  23.178  36.323   6.976
    2AU     AUC  596  23.161  36.640   6.974
    2AU     AUC  597  23.445  36.199   7.924
    2AU     AUC  598  23.443  36.494   7.925
    2AU     AUC  599  23.439  36.173   7.080
    2AU     AUC  600  23.435  36.487   7.063
    2AU     AUC  601  22.903  36.226   7.932
    2AU     AUC  602  22.926  36.534   7.931
    2AU     AUC  603  22.920  36.179   7.074
    2AU     AUC  604  22.912  36.495   7.075
    2AU     AUC  605  23.590  36.611   7.315
    2AU     AUC  606  23.596  36.587   7.642
    2AU     AUC  607  22.761  36.618   7.348
    2AU     AUC  608  22.771  36.642   7.668
    2AU     AUC  609  23.583  36.081   7.351
    2AU     AUC  610  23.585  36.076   7.666
    2AU     AUC  611  22.744  36.099   7.347
    2AU     AUC  612  22.747  36.121   7.683
    2AU     AUC  613  23.035  36.775   7.772
    2AU     AUC  614  23.358  36.775   7.740
    2AU     AUC  615  22.990  35.935   7.768
    2AU     AUC  616  23.312  35.933   7.786
    2AU     AUC  617  23.020  36.768   7.237
    2AU     AUC  618  23.339  36.752   7.219
    2AU     AUC  619  22.993  35.937   7.252
    2AU     AUC  620  23.323  35.916   7.267
    2AU    AUSL  621  23.516  36.299   8.103
    2AU    AUSL  622  23.491  35.866   8.135
    2AU     AUL  623  23.724  35.956   8.388
    2AU       S  624  23.747  35.591   8.046
    2AU     LIG  625  23.700  35.432   8.455
    2AU     LIG  626  23.751  35.011   8.645
    2AU     LIG  627  23.938  34.638   8.877
    2AU     LIG  628  24.260  34.416   9.149
    2AU     LIG  629  24.520  34.366   9.548
    2AU     LIG  630  24.628  34.111   9.941
    2AU       S  631  23.591  36.310   8.654
    2AU     LIG  632  23.889  36.035   8.885
    2AU     LIG  633  24.107  35.874   9.279
    2AU     LIG  634  24.372  35.786   9.659
    2AU     LIG  635  24.771  35.830   9.930
    2AU     LIG  636  25.036  35.977  10.297
    2AU     LIG  637  25.064  36.262  10.674
    2AU    AUSL  638  23.240  36.122   8.368
    2AU    AUSL  639  23.124  36.528   8.296
    2AU     AUL  640  23.181  36.488   8.711
    2AU       S  641  23.318  36.117   8.508
    2AU     LIG  642  23.450  35.779   8.785
    2AU     LIG  643  23.652  35.643   9.210
    2AU     LIG  644  23.821  35.545   9.671
    2AU     LIG  645  23.848  35.430  10.160
    2AU     LIG  646  23.826  35.488  10.647
    2AU     LIG  647  23.913  35.328  11.092
    2AU       S  648  22.805  36.250   8.649
    2AU     LIG  649  22.668  36.170   9.108
    2AU     LIG  650  22.487  36.110   9.529
    2AU     LIG  651  22.396  36.103   9.993
    2AU     LIG  652  22.441  36.387  10.392
    2AU     LIG  653  22.490  36.621  10.814
    2AU     LIG  654  22.349  36.900  11.181
    2AU    AUSL  655  23.508  36.674   8.292
    2AU    AUSL  656  23.851  36.545   8.009
    2AU     AUL  657  23.821  36.398   8.277
    2AU       S  658  23.533  36.688   8.490
    2AU     LIG  659  23.564  36.825   8.931
    2AU     LIG  660  23.736  37.069   9.317
    2AU     LIG  661  23.714  37.255   9.771
    2AU     LIG  662  23.744  37.283  10.247
    2AU     LIG  663  23.906  37.240  10.689
    2AU     LIG  664  23.919  37.135  11.156
    2AU       S  665  24.164  36.692   8.153
    2AU     LIG  666  24.347  36.633   8.546
    2AU     LIG  667  24.626  36.891   8.809
    2AU     LIG  668  24.955  37.148   9.030
    2AU     LIG  669  25.244  37.330   9.370
    2AU     LIG  670  25.568  37.394   9.739
    2AU     LIG  671  25.805  37.610  10.108
    2AU    AUSL  672  23.706  36.368   6.874
    2AU    AUSL  673  23.444  36.776   6.804
    2AU     AUL  674  23.796  36.708   6.437
    2AU       S  675  23.738  36.395   6.718
    2AU     LIG  676  24.037  36.303   6.338
    2AU     LIG  677  24.097  36.154   5.910
    2AU     LIG  678  24.237  36.033   5.465
    2AU     LIG  679  24.585  35.941   5.125
    2AU     LIG  680  24.979  35.860   4.829
    2AU     LIG  681  25.238  35.896   4.415
    2AU       S  682  23.440  36.843   6.645
    2AU     LIG  683  23.733  37.196   6.527
    2AU     LIG  684  24.113  37.221   6.231
    2AU     LIG  685  24.358  37.370   5.838
    2AU     LIG  686  24.345  37.641   5.417
    2AU     LIG  687  24.491  38.018   5.131
    2AU     LIG  688  24.563  38.237   4.702
    2AU    AUSL  689  23.442  36.052   6.700
    2AU    AUSL  690  23.782  35.974   6.987
    2AU     AUL  691  23.868  35.986   6.670
    2AU       S  692  23.740  35.567   6.817
    2AU     LIG  693  23.953  35.301   6.484
    2AU     LIG  694  24.145  34.907   6.351
    2AU     LIG  695  24.423  34.637   6.074
    2AU     LIG  696  24.780  34.562   5.749
    2AU     LIG  697  25.184  34.596   5.471
    2AU     LIG  698  25.553  34.727   5.189
    2AU       S  699  23.541  36.266   6.447
    2AU     LIG  700  23.678  35.926   6.188
    2AU     LIG  701  23.781  35.793   5.730
    2AU     LIG  702  23.841  35.771   5.248
    2AU     LIG  703  23.858  35.545   4.809
    2AU     LIG  704  23.982  35.392   4.361
    2AU     LIG  705  24.026  35.423   3.878
    2AU    AUSL  706  23.287  36.407   6.877
    2AU    AUSL  707  23.030  36.153   6.659
    2AU     AUL  708  23.236  35.936   6.563
    2AU       S  709  22.989  36.255   6.328
    2AU     LIG  710  22.976  35.966   5.996
    2AU     LIG  711  22.698  35.724   5.698
    2AU     LIG  712  22.484  35.602   5.289
    2AU     LIG  713  22.231  35.450   4.900
    2AU     LIG  714  22.139  35.476   4.428
    2AU     LIG  715  22.080  35.556   3.962
    2AU       S  716  23.427  36.384   6.509
    2AU     LIG  717  23.606  36.412   5.994
    2AU     LIG  718  23.761  36.280   5.540
    2AU     LIG  719  23.941  36.286   5.087
    2AU     LIG  720  23.979  36.475   4.627
    2AU     LIG  721  24.093  36.656   4.173
    2AU     LIG  722  24.294  36.931   3.825
    2AU    AUSL  723  22.732  36.414   8.218
    2AU    AUSL  724  22.876  36.828   8.145
    2AU     AUL  725  22.914  36.725   8.427
    2AU       S  726  22.648  36.426   8.671
    2AU     LIG  727  22.320  36.101   8.720
    2AU     LIG  728  22.176  35.930   9.140
    2AU     LIG  729  22.006  35.922   9.599
    2AU     LIG  730  21.654  35.941   9.931
    2AU     LIG  731  21.417  36.049  10.329
    2AU     LIG  732  21.126  36.293  10.605
    2AU       S  733  22.461  36.792   8.368
    2AU     LIG  734  22.464  36.944   8.795
    2AU     LIG  735  22.425  37.348   9.050
    2AU     LIG  736  22.267  37.573   9.440
    2AU     LIG  737  22.091  37.747   9.853
    2AU     LIG  738  21.828  38.020  10.151
    2AU     LIG  739  21.516  38.341  10.316
    2AU    AUSL  740  23.040  36.214   8.019
    2AU    AUSL  741  22.483  36.155   8.007
    2AU     AUL  742  22.541  36.277   8.249
    2AU       S  743  22.322  35.859   8.244
    2AU     LIG  744  21.908  35.676   8.055
    2AU     LIG  745  21.577  35.363   8.189
    2AU     LIG  746  21.410  35.056   8.514
    2AU     LIG  747  21.216  34.732   8.792
    2AU     LIG  748  20.861  34.755   9.102
    2AU     LIG  749  20.572  34.635   9.458
    2AU       S  750  22.839  36.142   8.601
    2AU     LIG  751  22.685  35.755   8.815
    2AU     LIG  752  22.592  35.660   9.270
    2AU     LIG  753  22.426  35.631   9.717
    2AU     LIG  754  22.351  35.471  10.157
    2AU     LIG  755  22.394  35.491  10.624
    2AU     LIG  756  22.287  35.512  11.083
    2AU    AUSL  757  22.776  36.300   6.957
    2AU    AUSL  758  22.919  35.875   6.942
    2AU     AUL  759  22.739  35.986   6.642
    2AU       S  760  22.747  36.340   6.320
    2AU     LIG  761  22.481  36.110   6.017
    2AU     LIG  762  22.257  35.974   5.617
    2AU     LIG  763  22.001  35.781   5.264
    2AU     LIG  764  21.631  35.730   4.977
    2AU     LIG  765  21.355  35.830   4.608
    2AU     LIG  766  21.052  35.989   4.283
    2AU       S  767  22.447  35.587   6.802
    2AU     LIG  768  22.158  35.200   6.778
    2AU     LIG  769  21.824  34.894   6.575
    2AU     LIG  770  21.518  34.587   6.338
    2AU     LIG  771  21.489  34.335   5.923
    2AU     LIG  772  21.462  34.264   5.456
    2AU     LIG  773  21.523  34.124   4.997
    2AU    AUSL  774  22.967  36.586   6.671
    2AU    AUSL  775  22.548  36.650   6.944
    2AU     AUL  776  22.555  36.419   6.723
    2AU       S  777  22.542  36.884   6.733
    2AU     LIG  778  22.216  37.017   6.407
    2AU     LIG  779  22.039  37.166   5.974
    2AU     LIG  780  21.780  37.256   5.566
    2AU     LIG  781  21.382  37.444   5.345
    2AU     LIG  782  21.066  37.685   5.081
    2AU     LIG  783  20.663  37.925   5.033
    2AU       S  784  22.967  36.515   6.469
    2AU     LIG  785  22.977  36.511   5.918
    2AU     LIG  786  22.741  36.232   5.585
    2AU     LIG  787  22.493  36.123   5.180
    2AU     LIG  788  22.389  36.282   4.732
    2AU     LIG  789  22.300  36.509   4.306
    2AU     LIG  790  22.106  36.677   3.892
    2AU    AUSL  791  23.852  36.872   7.430
    2AU    AUSL  792  23.809  36.743   7.019
    2AU     AUL  793  23.917  37.134   7.258
    2AU       S  794  23.913  36.870   6.851
    2AU     LIG  795  24.271  36.700   6.612
    2AU     LIG  796  24.537  36.917   6.276
    2AU     LIG  797  24.841  37.194   6.011
    2AU     LIG  798  25.234  37.245   5.712
    2AU     LIG  799  25.612  37.375   5.421
    2AU     LIG  800  25.920  37.668   5.183
    2AU       S  801  24.291  36.850   7.347
    2AU     LIG  802  24.789  36.883   7.462
    2AU     LIG  803  25.297  36.915   7.520
    2AU     LIG  804  25.778  37.027   7.519
    2AU     LIG  805  26.178  37.293   7.568
    2AU     LIG  806  26.381  37.728   7.469
    2AU     LIG  807  26.618  38.125   7.544
    2AU    AUSL  808  23.980  36.459   7.261
    2AU    AUSL  809  24.041  36.229   7.629
    2AU     AUL  810  24.188  36.193   7.226
    2AU       S  811  24.242  36.653   7.237
    2AU     LIG  812  24.692  36.510   7.126
    2AU     LIG  813  25.182  36.504   7.237
    2AU     LIG  814  25.689  36.588   7.254
    2AU     LIG  815  26.152  36.800   7.206
    2AU     LIG  816  26.605  36.944   7.039
    2AU     LIG  817  26.979  37.258   7.057
    2AU       S  818  24.392  35.984   7.589
    2AU     LIG  819  24.566  35.719   7.919
    2AU     LIG  820  24.934  35.417   7.881
    2AU     LIG  821  25.367  35.205   7.803
    2AU     LIG  822  25.814  35.005   7.755
    2AU     LIG  823  26.302  34.919   7.736
    2AU     LIG  824  26.747  34.789   7.904
    2AU    AUSL  825  23.740  36.509   7.617
    2AU    AUSL  826  23.722  36.910   7.825
    2AU     AUL  827  24.013  36.745   7.715
    2AU       S  828  24.006  36.975   8.114
    2AU     LIG  829  24.376  37.123   8.377
    2AU     LIG  830  24.619  37.392   8.681
    2AU     LIG  831  24.946  37.651   8.905
    2AU     LIG  832  25.229  38.007   9.016
    2AU     LIG  833  25.543  38.371   9.060
    2AU     LIG  834  25.795  38.749   8.920
    2AU       S  835  24.368  36.552   7.515
    2AU     LIG  836  24.812  36.391   7.624
    2AU     LIG  837  25.291  36.447   7.744
    2AU     LIG  838  25.755  36.574   7.763
    2AU     LIG  839  26.181  36.802   7.790
    2AU     LIG  840  26.598  36.996   7.941
    2AU     LIG  841  26.960  37.228   8.162
    2AU    AUSL  842  22.522  36.923   7.576
    2AU    AUSL  843  22.562  36.655   7.924
    2AU     AUL  844  22.530  37.102   7.850
    2AU       S  845  22.360  36.727   8.112
    2AU     LIG  846  22.014  36.955   8.441
    2AU     LIG  847  21.979  37.174   8.869
    2AU     LIG  848  21.834  37.296   9.330
    2AU     LIG  849  21.547  37.392   9.728
    2AU     LIG  850  21.146  37.569   9.948
    2AU     LIG  851  20.815  37.893  10.090
    2AU       S  852  22.160  36.959   7.627
    2AU     LIG  853  21.991  37.382   7.527
    2AU     LIG  854  21.667  37.741   7.520
    2AU     LIG  855  21.285  38.038   7.579
    2AU     LIG  856  20.922  38.295   7.777
    2AU     LIG  857  20.641  38.680   7.900
    2AU     LIG  858  20.182  38.780   7.809
    2AU    AUSL  859  22.597  36.580   7.348
    2AU    AUSL  860  22.693  36.991   7.194
    2AU     AUL  861  22.419  36.919   7.210
    2AU       S  862  22.037  36.869   7.484
    2AU     LIG  863  21.825  36.806   7.099
    2AU     LIG  864  21.416  36.879   6.891
    2AU     LIG  865  21.020  37.124   6.874
    2AU     LIG  866  20.613  37.258   6.706
    2AU     LIG  867  20.188  37.109   6.712
    2AU     LIG  868  19.724  37.207   6.724
    2AU       S  869  22.527  37.162   6.813
    2AU     LIG  870  22.470  37.475   6.464
    2AU     LIG  871  22.492  37.883   6.211
    2AU     LIG  872  22.403  38.361   6.128
    2AU     LIG  873  22.062  38.588   5.855
    2AU     LIG  874  21.708  38.900   5.766
    2AU     LIG  875  21.580  39.352   5.684
    2AU    AUSL  876  22.303  36.508   7.647
    2AU    AUSL  877  22.350  36.253   7.296
    2AU     AUL  878  22.205  36.514   7.252
    2AU       S  879  21.999  36.065   7.421
    2AU     LIG  880  21.612  36.005   7.717
    2AU     LIG  881  21.135  36.008   7.801
    2AU     LIG  882  20.702  36.078   7.594
    2AU     LIG  883  20.440  35.737   7.305
    2AU     LIG  884  20.134  35.353   7.234
    2AU     LIG  885  19.659  35.370   7.114
    2AU       S  886  22.110  36.574   7.725
    2AU     LIG  887  21.806  36.853   7.978
    2AU     LIG  888  21.414  37.096   8.188
    2AU     LIG  889  20.992  37.322   8.348
    2AU     LIG  890  20.491  37.385   8.301
    2AU     LIG  891  20.003  37.390   8.213
    2AU     LIG  892  19.662  37.084   8.358
    2AU    AUSL  893  23.875  35.826   7.576
    2AU    AUSL  894  23.814  36.068   7.937
    2AU     AUL  895  24.100  36.077   7.931
    2AU       S  896  24.118  35.704   7.623
    2AU     LIG  897  24.290  35.309   7.770
    2AU     LIG  898  24.683  35.044   7.635
    2AU     LIG  899  25.119  34.826   7.551
    2AU     LIG  900  25.561  34.614   7.518
    2AU     LIG  901  25.941  34.340   7.647
    2AU     LIG  902  26.338  34.389   7.909
    2AU       S  903  23.820  35.713   8.019
    2AU     LIG  904  24.191  35.511   8.248
    2AU     LIG  905  24.248  35.131   8.527
    2AU     LIG  906  24.433  34.762   8.783
    2AU     LIG  907  24.736  34.624   9.138
    2AU     LIG  908  25.084  34.703   9.469
    2AU     LIG  909  25.412  34.876   9.787
    2AU    AUSL  910  23.723  36.148   7.354
    2AU    AUSL  911  23.624  35.687   7.268
    2AU     AUL  912  23.920  35.805   7.198
    2AU       S  913  24.222  35.813   7.533
    2AU     LIG  914  24.626  35.538   7.442
    2AU     LIG  915  25.066  35.316   7.382
    2AU     LIG  916  25.514  35.094   7.318
    2AU     LIG  917  25.982  34.917   7.277
    2AU     LIG  918  26.435  34.933   7.086
    2AU     LIG  919  26.892  34.928   6.905
    2AU       S  920  23.804  35.414   6.961
    2AU     LIG  921  23.702  34.978   6.822
    2AU     LIG  922  23.876  34.567   6.636
    2AU     LIG  923  24.010  34.184   6.384
    2AU     LIG  924  24.267  33.768   6.350
    2AU     LIG  925  24.676  33.559   6.173
    2AU     LIG  926  25.120  33.438   6.064
    2AU    AUSL  927  22.440  35.872   7.485
    2AU    AUSL  928  22.531  35.977   7.054
    2AU     AUL  929  22.270  36.080   7.031
    2AU       S  930  22.421  35.644   7.047
    2AU     LIG  931  21.951  35.621   6.997
    2AU     LIG  932  21.629  35.342   6.755
    2AU     LIG  933  21.307  35.029   6.537
    2AU     LIG  934  20.959  34.844   6.239
    2AU     LIG  935  20.653  34.673   5.894
    2AU     LIG  936  20.497  34.421   5.530
    2AU       S  937  22.134  35.856   7.413
    2AU     LIG  938  21.799  35.576   7.524
    2AU     LIG  939  21.368  35.514   7.712
    2AU     LIG  940  20.950  35.251   7.677
    2AU     LIG  941  20.489  35.168   7.564
    2AU     LIG  942  20.065  34.954   7.613
    2AU     LIG  943  19.646  34.734   7.785
    2AU    AUSL  944  22.618  36.242   7.634
    2AU    AUSL  945  22.704  35.848   7.814
    2AU     AUL  946  22.326  36.008   7.801
    2AU       S  947  22.419  35.664   8.096
    2AU     LIG  948  22.258  35.461   7.745
    2AU     LIG  949  21.892  35.161   7.833
    2AU     LIG  950  21.660  34.828   8.131
    2AU     LIG  951  21.392  34.473   8.359
    2AU     LIG  952  21.088  34.143   8.546
    2AU     LIG  953  20.747  33.792   8.608
    2AU       S  954  22.048  36.144   7.473
    2AU     LIG  955  21.613  36.353   7.332
    2AU     LIG  956  21.192  36.104   7.304
    2AU     LIG  957  20.953  35.689   7.422
    2AU     LIG  958  20.592  35.622   7.766
    2AU     LIG  959  20.119  35.747   7.733
    2AU     LIG  960  19.640  35.725   7.767
    2AU    AUSL  961  23.223  37.033   8.035
    2AU    AUSL  962  22.895  36.822   7.730
    2AU     AUL  963  22.930  37.112   8.118
    2AU       S  964  22.530  36.950   8.277
    2AU     LIG  965  22.367  37.338   8.483
    2AU     LIG  966  22.303  37.743   8.715
    2AU     LIG  967  22.170  38.175   8.887
    2AU     LIG  968  21.865  38.554   8.991
    2AU     LIG  969  21.530  38.919   9.047
    2AU     LIG  970  21.103  39.165   9.112
    2AU       S  971  23.276  37.430   8.008
    2AU     LIG  972  23.440  37.678   8.338
    2AU     LIG  973  23.388  38.062   8.579
    2AU     LIG  974  23.512  38.328   8.925
    2AU     LIG  975  23.530  38.692   9.199
    2AU     LIG  976  23.516  39.034   9.511
    2AU     LIG  977  23.372  39.453   9.657
    2AU    AUSL  978  22.975  37.220   7.673
    2AU    AUSL  979  23.426  37.195   7.260
    2AU     AUL  980  23.121  37.446   7.426
    2AU       S  981  23.107  37.497   7.883
    2AU     LIG  982  23.102  37.942   8.062
    2AU     LIG  983  23.255  38.358   8.179
    2AU     LIG  984  23.233  38.806   8.337
    2AU     LIG  985  22.934  39.202   8.320
    2AU     LIG  986  22.661  39.640   8.326
    2AU     LIG  987  22.632  40.148   8.353
    2AU       S  988  23.427  37.557   7.067
    2AU     LIG  989  23.548  38.009   6.930
    2AU     LIG  990  23.698  38.398   6.694
    2AU     LIG  991  23.854  38.834   6.576
    2AU     LIG  992  24.149  39.235   6.573
    2AU     LIG  993  24.301  39.695   6.478
    2AU     LIG  994  24.134  40.109   6.315
    2AU    AUSL  995  23.380  37.053   7.647
    2AU    AUSL  996  23.381  36.676   7.904
    2AU     AUL  997  23.547  37.061   8.044
    2AU       S  998  23.932  36.841   8.229
    2AU     LIG  999  23.976  36.968   8.659
    2AU     LIG 1000  24.237  37.186   8.984
    2AU     LIG 1001  24.572  37.450   9.204
    2AU     LIG 1002  24.824  37.762   9.472
    2AU     LIG 1003  24.838  38.109   9.828
    2AU     LIG 1004  24.855  38.405  10.214
    2AU       S 1005  23.463  37.380   7.727
    2AU     LIG 1006  23.559  37.825   7.850
    2AU     LIG 1007  23.710  38.122   8.180
    2AU     LIG 1008  23.682  38.537   8.422
    2AU     LIG 1009  23.796  39.016   8.427
    2AU     LIG 1010  23.963  39.478   8.497
    2AU     LIG 1011  23.957  39.945   8.620
    2AU    AUSL 1012  23.133  35.777   7.941
    2AU    AUSL 1013  23.491  35.899   7.718
    2AU     AUL 1014  23.323  35.659   8.188
    2AU       S 1015  23.191  35.237   8.058
    2AU     LIG 1016  23.247  34.803   8.214
    2AU     LIG 1017  22.959  34.451   8.262
    2AU     LIG 1018  22.749  34.057   8.361
    2AU     LIG 1019  22.895  33.708   8.618
    2AU     LIG 1020  22.953  33.446   9.002
    2AU     LIG 1021  22.866  33.145   9.364
    2AU       S 1022  23.788  35.512   7.913
    2AU     LIG 1023  23.893  35.093   8.119
    2AU     LIG 1024  24.043  34.690   8.358
    2AU     LIG 1025  24.221  34.315   8.593
    2AU     LIG 1026  24.503  34.051   8.862
    2AU     LIG 1027  24.896  33.776   8.871
    2AU     LIG 1028  25.326  33.558   8.846
    2AU    AUSL 1029  22.935  35.541   7.660
    2AU    AUSL 1030  22.841  35.913   8.211
    2AU     AUL 1031  22.861  35.572   8.020
    2AU       S 1032  23.005  35.144   7.926
    2AU     LIG 1033  22.834  34.719   7.834
    2AU     LIG 1034  22.616  34.277   7.908
    2AU     LIG 1035  22.294  33.909   8.055
    2AU     LIG 1036  21.999  33.511   8.191
    2AU     LIG 1037  21.940  33.021   8.273
    2AU     LIG 1038  22.187  32.648   8.482
    2AU       S 1039  22.589  35.800   8.315
    2AU     LIG 1040  22.277  35.468   8.544
    2AU     LIG 1041  21.942  35.107   8.485
    2AU     LIG 1042  21.742  34.692   8.667
    2AU     LIG 1043  21.567  34.425   9.033
    2AU     LIG 1044  21.630  34.169   9.431
    2AU     LIG 1045  21.601  34.038   9.884
    2AU    AUSL 1046  23.382  35.500   7.708
    2AU    AUSL 1047  22.888  35.534   7.242
    2AU     AUL 1048  23.075  35.295   7.500
    2AU       S 1049  22.816  35.197   7.106
    2AU     LIG 1050  22.501  34.870   7.043
    2AU     LIG 1051  22.440  34.386   6.984
    2AU     LIG 1052  22.198  33.950   6.952
    2AU     LIG 1053  22.009  33.492   7.023
    2AU     LIG 1054  22.163  33.013   6.938
    2AU     LIG 1055  22.408  32.656   6.660
    2AU       S 1056  23.334  35.308   7.874
    2AU     LIG 1057  23.347  34.842   7.715
    2AU     LIG 1058  23.226  34.383   7.818
    2AU     LIG 1059  23.197  34.003   8.107
    2AU     LIG 1060  23.317  33.588   8.337
    2AU     LIG 1061  23.588  33.219   8.493
    2AU     LIG 1062  23.661  32.745   8.584
    2AU    AUSL 1063  23.151  37.032   6.950
    2AU    AUSL 1064  23.479  36.785   7.259
    2AU     AUL 1065  23.517  37.110   6.995
    2AU       S 1066  23.183  37.328   6.753
    2AU     LIG 1067  23.464  37.640   6.556
    2AU     LIG 1068  23.438  38.065   6.393
    2AU     LIG 1069  23.498  38.494   6.204
    2AU     LIG 1070  23.553  38.706   5.773
    2AU     LIG 1071  23.522  38.981   5.383
    2AU     LIG 1072  23.678  39.356   5.144
    2AU       S 1073  23.883  36.815   6.925
    2AU     LIG 1074  24.246  37.195   6.733
    2AU     LIG 1075  24.573  37.416   6.415
    2AU     LIG 1076  24.958  37.693   6.238
    2AU     LIG 1077  25.286  38.096   6.201
    2AU     LIG 1078  25.544  38.548   6.192
    2AU     LIG 1079  25.521  39.048   6.102
    2AU    AUSL 1080  23.073  36.976   7.357
    2AU    AUSL 1081  22.959  36.688   7.065
    2AU     AUL 1082  22.893  37.179   7.104
    2AU       S 1083  23.225  37.488   6.985
    2AU     LIG 1084  23.078  37.901   6.788
    2AU     LIG 1085  23.185  38.366   6.711
    2AU     LIG 1086  23.160  38.788   6.559
    2AU     LIG 1087  22.844  39.169   6.613
    2AU     LIG 1088  22.666  39.631   6.586
    2AU     LIG 1089  22.458  39.978   6.339
    2AU       S 1090  22.762  36.997   6.687
    2AU     LIG 1091  22.697  37.072   6.237
    2AU     LIG 1092  22.499  37.391   5.921
    2AU     LIG 1093  22.295  37.513   5.480
    2AU     LIG 1094  22.259  37.822   5.090
    2AU     LIG 1095  22.064  38.165   4.792
    2AU     LIG 1096  21.874  38.595   4.670
    2AU    AUSL 1097  23.243  35.622   6.980
    2AU    AUSL 1098  22.828  35.924   7.354
    2AU     AUL 1099  22.878  35.628   6.941
    2AU       S 1100  22.438  35.523   7.179
    2AU     LIG 1101  22.120  35.230   7.293
    2AU     LIG 1102  21.777  34.976   7.091
    2AU     LIG 1103  21.464  34.665   6.879
    2AU     LIG 1104  21.083  34.533   6.634
    2AU     LIG 1105  20.766  34.358   6.327
    2AU     LIG 1106  20.717  33.917   6.152
    2AU       S 1107  23.145  35.263   6.887
    2AU     LIG 1108  23.202  34.843   6.713
    2AU     LIG 1109  22.906  34.498   6.743
    2AU     LIG 1110  22.785  34.102   6.549
    2AU     LIG 1111  22.979  33.812   6.230
    2AU     LIG 1112  23.021  33.552   5.824
    2AU     LIG 1113  23.132  33.365   5.398
    2AU    AUSL 1114  23.232  35.721   7.394
    2AU    AUSL 1115  23.366  35.995   7.095
    2AU     AUL 1116  23.415  35.480   7.199
    2AU       S 1117  23.047  35.206   7.061
    2AU     LIG 1118  23.324  34.903   7.207
    2AU     LIG 1119  23.272  34.462   7.112
    2AU     LIG 1120  23.127  34.053   6.935
    2AU     LIG 1121  23.377  33.700   6.743
    2AU     LIG 1122  23.485  33.233   6.688
    2AU     LIG 1123  23.314  32.769   6.599
    2AU       S 1124  23.603  35.602   6.720
    2AU     LIG 1125  23.443  35.260   6.478
    2AU     LIG 1126  23.600  34.849   6.316
    2AU     LIG 1127  23.892  34.574   6.057
    2AU     LIG 1128  24.156  34.475   5.655
    2AU     LIG 1129  24.305  34.327   5.224
    2AU     LIG 1130  24.467  34.017   4.895
    3AU     AUC 1131  24.981  18.759   7.502
    3AU     AUC 1132  25.245  18.755   7.343
    3AU     AUC 1133  25.236  18.746   7.650
    3AU     AUC 1134  24.736  18.763   7.340
    3AU     AUC 1135  24.717  18.782   7.647
    3AU     AUC 1136  24.839  19.021   7.503
    3AU     AUC 1137  25.148  19.012   7.481
    3AU     AUC 1138  24.821  18.506   7.513
    3AU     AUC 1139  25.114  18.499   7.529
    3AU     AUC 1140  24.967  18.613   7.766
    3AU     AUC 1141  25.008  18.925   7.752
    3AU     AUC 1142  24.982  18.593   7.246
    3AU     AUC 1143  24.974  18.895   7.238
    3AU     AUC 1144  25.492  18.742   7.177
    3AU     AUC 1145  25.503  18.750   7.488
    3AU     AUC 1146  25.495  18.744   7.798
    3AU     AUC 1147  24.477  18.756   7.182
    3AU     AUC 1148  24.462  18.787   7.484
    3AU     AUC 1149  24.470  18.807   7.809
    3AU     AUC 1150  24.702  19.293   7.502
    3AU     AUC 1151  25.008  19.287   7.495
    3AU     AUC 1152  25.300  19.276   7.492
    3AU     AUC 1153  24.631  18.258   7.525
    3AU     AUC 1154  24.951  18.234   7.512
    3AU     AUC 1155  25.266  18.232   7.536
    3AU     AUC 1156  24.943  18.460   8.018
    3AU     AUC 1157  24.984  18.772   8.031
    3AU     AUC 1158  25.012  19.083   8.019
    3AU     AUC 1159  24.981  18.414   7.012
    3AU     AUC 1160  24.993  18.734   6.977
    3AU     AUC 1161  24.977  19.046   6.972
    3AU     AUC 1162  25.247  18.605   7.928
    3AU     AUC 1163  25.257  18.900   7.919
    3AU     AUC 1164  25.250  18.580   7.084
    3AU     AUC 1165  25.254  18.891   7.070
    3AU     AUC 1166  24.708  18.639   7.931
    3AU     AUC 1167  24.731  18.946   7.928
    3AU     AUC 1168  24.732  18.590   7.073
    3AU     AUC 1169  24.726  18.905   7.074
    3AU     AUC 1170  25.403  19.018   7.320
    3AU     AUC 1171  25.416  18.994   7.639
    3AU     AUC 1172  24.572  19.028   7.344
    3AU     AUC 1173  24.579  19.051   7.664
    3AU     AUC 1174  25.388  18.485   7.355
    3AU     AUC 1175  25.392  18.487   7.671
    3AU     AUC 1176  24.552  18.509   7.344
    3AU     AUC 1177  24.553  18.533   7.682
    3AU     AUC 1178  24.842  19.187   7.770
    3AU     AUC 1179  25.166  19.183   7.741
    3AU     AUC 1180  24.793  18.346   7.767
    3AU     AUC 1181  25.114  18.343   7.790
    3AU     AUC 1182  24.831  19.177   7.235
    3AU     AUC 1183  25.149  19.159   7.222
    3AU     AUC 1184  24.801  18.346   7.250
    3AU     AUC 1185  25.130  18.324   7.270
    3AU    AUSL 1186  25.322  18.700   8.093
    3AU    AUSL 1187  25.276  18.273   8.147
    3AU     AUL 1188  25.507  18.353   8.409
    3AU       S 1189  25.547  17.972   8.105
    3AU     LIG 1190  25.386  17.691   8.400
    3AU     LIG 1191  25.592  17.373   8.678
    3AU     LIG 1192  25.818  17.001   8.893
    3AU     LIG 1193  25.959  16.674   9.229
    3AU     LIG 1194  25.998  16.535   9.698
    3AU     LIG 1195  26.183  16.292  10.076
    3AU       S 1196  25.392  18.725   8.664
    3AU     LIG 1197  25.642  18.412   8.910
    3AU     LIG 1198  25.858  18.219   9.293
    3AU     LIG 1199  26.049  18.107   9.711
    3AU     LIG 1200  26.379  18.176  10.045
    3AU     LIG 1201  26.616  18.468  10.338
    3AU     LIG 1202  26.808  18.811  10.610
    3AU    AUSL 1203  25.044  18.552   8.373
    3AU    AUSL 1204  24.932  18.957   8.288
    3AU     AUL 1205  24.990  18.929   8.709
    3AU       S 1206  25.118  18.557   8.505
    3AU     LIG 1207  25.181  18.200   8.777
    3AU     LIG 1208  25.388  18.029   9.189
    3AU     LIG 1209  25.562  17.898   9.633
    3AU     LIG 1210  25.613  17.705  10.085
    3AU     LIG 1211  25.598  17.594  10.564
    3AU     LIG 1212  25.641  17.680  11.035
    3AU       S 1213  24.629  18.667   8.649
    3AU     LIG 1214  24.477  18.570   9.110
    3AU     LIG 1215  24.286  18.498   9.533
    3AU     LIG 1216  24.154  18.483   9.990
    3AU     LIG 1217  24.178  18.736  10.410
    3AU     LIG 1218  24.095  19.007  10.810
    3AU     LIG 1219  23.998  19.231  11.228
    3AU    AUSL 1220  25.328  19.070   8.285
    3AU    AUSL 1221  25.654  18.930   7.973
    3AU     AUL 1222  25.617  18.790   8.282
    3AU       S 1223  25.346  19.108   8.479
    3AU     LIG 1224  25.507  19.305   8.877
    3AU     LIG 1225  25.513  19.539   9.321
    3AU     LIG 1226  25.480  19.725   9.786
    3AU     LIG 1227  25.668  19.758  10.239
    3AU     LIG 1228  25.868  19.690  10.664
    3AU     LIG 1229  25.738  19.559  11.097
    3AU       S 1230  25.936  18.990   8.015
    3AU     LIG 1231  26.170  18.949   8.401
    3AU     LIG 1232  26.442  19.199   8.701
    3AU     LIG 1233  26.706  19.466   9.004
    3AU     LIG 1234  26.949  19.642   9.392
    3AU     LIG 1235  27.369  19.669   9.642
    3AU     LIG 1236  27.647  19.822   9.999
    3AU    AUSL 1237  25.521  18.779   6.867
    3AU    AUSL 1238  25.293  19.179   6.820
    3AU     AUL 1239  25.655  19.121   6.462
    3AU       S 1240  25.566  18.797   6.724
    3AU     LIG 1241  25.833  18.680   6.333
    3AU     LIG 1242  25.833  18.500   5.902
    3AU     LIG 1243  25.948  18.323   5.471
    3AU     LIG 1244  26.274  18.288   5.109
    3AU     LIG 1245  26.660  18.304   4.806
    3AU     LIG 1246  26.926  18.355   4.398
    3AU       S 1247  25.284  19.228   6.659
    3AU     LIG 1248  25.582  19.594   6.577
    3AU     LIG 1249  25.948  19.635   6.281
    3AU     LIG 1250  26.254  19.822   5.955
    3AU     LIG 1251  26.405  20.018   5.527
    3AU     LIG 1252  26.456  20.252   5.093
    3AU     LIG 1253  26.578  20.646   4.835
    3AU    AUSL 1254  25.254  18.459   6.706
    3AU    AUSL 1255  25.596  18.391   7.000
    3AU     AUL 1256  25.617  18.373   6.654
    3AU       S 1257  25.730  17.972   6.871
    3AU     LIG 1258  26.051  17.711   6.684
    3AU     LIG 1259  26.212  17.369   6.392
    3AU     LIG 1260  26.452  17.192   6.059
    3AU     LIG 1261  26.824  17.334   5.849
    3AU     LIG 1262  27.157  17.211   5.571
    3AU     LIG 1263  27.340  17.055   5.168
    3AU       S 1264  25.345  18.701   6.439
    3AU     LIG 1265  25.424  18.307   6.190
    3AU     LIG 1266  25.543  18.092   5.768
    3AU     LIG 1267  25.541  18.018   5.287
    3AU     LIG 1268  25.546  17.793   4.847
    3AU     LIG 1269  25.691  17.701   4.401
    3AU     LIG 1270  25.910  17.846   4.007
    3AU    AUSL 1271  25.101  18.820   6.879
    3AU    AUSL 1272  24.845  18.565   6.658
    3AU     AUL 1273  25.056  18.350   6.564
    3AU       S 1274  24.804  18.665   6.328
    3AU     LIG 1275  24.853  18.359   6.010
    3AU     LIG 1276  24.570  18.111   5.702
    3AU     LIG 1277  24.350  18.042   5.276
    3AU     LIG 1278  24.233  17.805   4.859
    3AU     LIG 1279  24.180  17.661   4.391
    3AU     LIG 1280  23.951  17.568   3.975
    3AU       S 1281  25.244  18.790   6.503
    3AU     LIG 1282  25.332  18.755   5.963
    3AU     LIG 1283  25.468  18.549   5.533
    3AU     LIG 1284  25.638  18.489   5.077
    3AU     LIG 1285  25.729  18.584   4.609
    3AU     LIG 1286  25.872  18.765   4.178
    3AU     LIG 1287  26.091  18.921   3.768
    3AU    AUSL 1288  24.539  18.833   8.223
    3AU    AUSL 1289  24.676  19.248   8.133
    3AU     AUL 1290  24.706  19.136   8.420
    3AU       S 1291  24.457  18.834   8.676
    3AU     LIG 1292  24.132  18.512   8.718
    3AU     LIG 1293  23.980  18.336   9.134
    3AU     LIG 1294  23.798  18.326   9.590
    3AU     LIG 1295  23.491  18.393   9.953
    3AU     LIG 1296  23.182  18.497  10.302
    3AU     LIG 1297  22.960  18.277  10.672
    3AU       S 1298  24.256  19.206   8.355
    3AU     LIG 1299  24.292  19.332   8.790
    3AU     LIG 1300  24.208  19.729   9.047
    3AU     LIG 1301  24.215  20.024   9.442
    3AU     LIG 1302  24.110  20.215   9.884
    3AU     LIG 1303  23.822  20.432  10.212
    3AU     LIG 1304  23.508  20.787  10.290
    3AU    AUSL 1305  24.843  18.630   8.023
    3AU    AUSL 1306  24.295  18.572   8.007
    3AU     AUL 1307  24.350  18.691   8.252
    3AU       S 1308  24.130  18.273   8.240
    3AU     LIG 1309  23.712  18.070   8.087
    3AU     LIG 1310  23.349  17.800   8.229
    3AU     LIG 1311  23.169  17.516   8.570
    3AU     LIG 1312  22.956  17.231   8.888
    3AU     LIG 1313  22.644  16.996   9.153
    3AU     LIG 1314  22.255  17.027   9.425
    3AU       S 1315  24.641  18.549   8.604
    3AU     LIG 1316  24.490  18.158   8.814
    3AU     LIG 1317  24.384  18.053   9.272
    3AU     LIG 1318  24.197  18.017   9.721
    3AU     LIG 1319  24.017  17.867  10.147
    3AU     LIG 1320  23.995  17.695  10.604
    3AU     LIG 1321  24.193  17.718  11.038
    3AU    AUSL 1322  24.590  18.712   6.955
    3AU    AUSL 1323  24.731  18.287   6.940
    3AU     AUL 1324  24.554  18.399   6.638
    3AU       S 1325  24.569  18.755   6.314
    3AU     LIG 1326  24.351  18.473   6.026
    3AU     LIG 1327  24.118  18.371   5.624
    3AU     LIG 1328  23.852  18.227   5.249
    3AU     LIG 1329  23.434  18.219   4.995
    3AU     LIG 1330  23.142  18.305   4.617
    3AU     LIG 1331  23.016  18.453   4.185
    3AU       S 1332  24.270  18.002   6.794
    3AU     LIG 1333  24.004  17.633   6.788
    3AU     LIG 1334  23.704  17.376   6.541
    3AU     LIG 1335  23.442  17.118   6.249
    3AU     LIG 1336  23.243  16.953   5.862
    3AU     LIG 1337  23.180  16.796   5.428
    3AU     LIG 1338  23.036  16.617   5.013
    3AU    AUSL 1339  24.785  18.999   6.670
    3AU    AUSL 1340  24.360  19.060   6.939
    3AU     AUL 1341  24.376  18.835   6.716
    3AU       S 1342  24.343  19.302   6.721
    3AU     LIG 1343  24.083  19.521   6.369
    3AU     LIG 1344  23.842  19.670   5.975
    3AU     LIG 1345  23.614  19.711   5.549
    3AU     LIG 1346  23.272  19.858   5.260
    3AU     LIG 1347  22.834  19.886   5.072
    3AU     LIG 1348  22.402  20.099   5.067
    3AU       S 1349  24.787  18.928   6.460
    3AU     LIG 1350  24.821  18.889   5.906
    3AU     LIG 1351  24.590  18.612   5.574
    3AU     LIG 1352  24.302  18.567   5.176
    3AU     LIG 1353  24.183  18.761   4.733
    3AU     LIG 1354  24.140  18.968   4.284
    3AU     LIG 1355  24.039  19.284   3.931
    3AU    AUSL 1356  25.614  19.373   7.435
    3AU    AUSL 1357  25.637  19.121   7.081
    3AU     AUL 1358  25.766  19.571   7.232
    3AU       S 1359  25.766  19.219   6.897
    3AU     LIG 1360  26.123  19.091   6.647
    3AU     LIG 1361  26.364  19.314   6.288
    3AU     LIG 1362  26.690  19.548   6.008
    3AU     LIG 1363  27.007  19.599   5.639
    3AU     LIG 1364  27.412  19.752   5.431
    3AU     LIG 1365  27.651  20.010   5.112
    3AU       S 1366  26.073  19.230   7.341
    3AU     LIG 1367  26.574  19.164   7.445
    3AU     LIG 1368  27.064  19.208   7.501
    3AU     LIG 1369  27.526  19.383   7.527
    3AU     LIG 1370  27.874  19.761   7.465
    3AU     LIG 1371  28.134  20.213   7.481
    3AU     LIG 1372  28.325  20.585   7.750
    3AU    AUSL 1373  25.832  18.789   7.231
    3AU    AUSL 1374  25.826  18.631   7.652
    3AU     AUL 1375  26.103  18.562   7.415
    3AU       S 1376  26.035  19.005   7.297
    3AU     LIG 1377  26.406  18.841   7.088
    3AU     LIG 1378  26.900  18.845   7.149
    3AU     LIG 1379  27.400  18.918   7.243
    3AU     LIG 1380  27.879  19.124   7.260
    3AU     LIG 1381  28.285  19.373   7.138
    3AU     LIG 1382  28.556  19.636   6.804
    3AU       S 1383  26.128  18.160   7.660
    3AU     LIG 1384  26.458  17.995   7.920
    3AU     LIG 1385  26.881  17.813   7.875
    3AU     LIG 1386  27.336  17.731   7.961
    3AU     LIG 1387  27.784  17.569   7.975
    3AU     LIG 1388  28.253  17.564   7.899
    3AU     LIG 1389  28.646  17.608   8.161
    3AU    AUSL 1390  25.612  18.971   7.559
    3AU    AUSL 1391  25.519  19.308   7.840
    3AU     AUL 1392  25.771  19.295   7.695
    3AU       S 1393  25.804  19.199   8.130
    3AU     LIG 1394  26.231  19.396   8.157
    3AU     LIG 1395  26.421  19.665   8.487
    3AU     LIG 1396  26.596  19.942   8.819
    3AU     LIG 1397  26.821  20.326   8.973
    3AU     LIG 1398  26.987  20.776   8.968
    3AU     LIG 1399  27.255  21.156   9.051
    3AU       S 1400  26.101  19.017   7.558
    3AU     LIG 1401  26.436  18.936   7.889
    3AU     LIG 1402  26.926  18.868   7.855
    3AU     LIG 1403  27.404  18.849   7.780
    3AU     LIG 1404  27.857  19.047   7.814
    3AU     LIG 1405  28.310  19.060   8.004
    3AU     LIG 1406  28.738  19.173   8.177
    3AU    AUSL 1407  24.330  19.333   7.571
    3AU    AUSL 1408  24.371  19.058   7.916
    3AU     AUL 1409  24.335  19.503   7.840
    3AU       S 1410  24.161  19.129   8.103
    3AU     LIG 1411  23.792  19.287   8.445
    3AU     LIG 1412  23.717  19.428   8.888
    3AU     LIG 1413  23.506  19.481   9.320
    3AU     LIG 1414  23.082  19.553   9.538
    3AU     LIG 1415  22.778  19.820   9.810
    3AU     LIG 1416  22.489  20.158   9.995
    3AU       S 1417  23.961  19.383   7.604
    3AU     LIG 1418  23.663  19.773   7.541
    3AU     LIG 1419  23.470  20.252   7.521
    3AU     LIG 1420  23.188  20.611   7.690
    3AU     LIG 1421  22.763  20.831   7.678
    3AU     LIG 1422  22.326  20.942   7.573
    3AU     LIG 1423  21.896  21.019   7.754
    3AU    AUSL 1424  24.409  18.991   7.342
    3AU    AUSL 1425  24.501  19.403   7.188
    3AU     AUL 1426  24.232  19.329   7.203
    3AU       S 1427  23.842  19.282   7.464
    3AU     LIG 1428  23.588  19.289   7.078
    3AU     LIG 1429  23.238  19.399   6.755
    3AU     LIG 1430  22.799  19.547   6.627
    3AU     LIG 1431  22.362  19.707   6.664
    3AU     LIG 1432  21.934  19.529   6.734
    3AU     LIG 1433  21.465  19.627   6.739
    3AU       S 1434  24.344  19.582   6.815
    3AU     LIG 1435  24.433  19.896   6.467
    3AU     LIG 1436  24.230  20.228   6.181
    3AU     LIG 1437  23.983  20.634   6.129
    3AU     LIG 1438  23.578  20.880   6.080
    3AU     LIG 1439  23.263  21.200   6.160
    3AU     LIG 1440  22.922  21.472   5.972
    3AU    AUSL 1441  24.109  18.924   7.635
    3AU    AUSL 1442  24.159  18.666   7.288
    3AU     AUL 1443  24.012  18.927   7.238
    3AU       S 1444  23.815  18.503   7.424
    3AU     LIG 1445  23.390  18.451   7.696
    3AU     LIG 1446  22.903  18.342   7.796
    3AU     LIG 1447  22.450  18.133   7.836
    3AU     LIG 1448  22.121  17.943   7.525
    3AU     LIG 1449  21.693  17.731   7.429
    3AU     LIG 1450  21.229  17.555   7.427
    3AU       S 1451  23.921  18.988   7.706
    3AU     LIG 1452  23.646  19.247   7.961
    3AU     LIG 1453  23.225  19.404   8.047
    3AU     LIG 1454  22.799  19.291   8.189
    3AU     LIG 1455  22.392  19.310   8.408
    3AU     LIG 1456  22.048  19.612   8.387
    3AU     LIG 1457  21.583  19.596   8.376
    3AU    AUSL 1458  25.671  18.236   7.574
    3AU    AUSL 1459  25.621  18.447   7.961
    3AU     AUL 1460  25.925  18.491   7.911
    3AU       S 1461  25.854  17.964   7.550
    3AU     LIG 1462  26.287  17.702   7.530
    3AU     LIG 1463  26.713  17.484   7.483
    3AU     LIG 1464  26.891  17.038   7.561
    3AU     LIG 1465  27.249  16.727   7.473
    3AU     LIG 1466  27.699  16.537   7.524
    3AU     LIG 1467  28.126  16.741   7.582
    3AU       S 1468  25.627  18.139   8.027
    3AU     LIG 1469  26.026  17.945   8.203
    3AU     LIG 1470  26.059  17.582   8.512
    3AU     LIG 1471  26.262  17.250   8.785
    3AU     LIG 1472  26.606  17.162   9.122
    3AU     LIG 1473  26.988  17.183   9.426
    3AU     LIG 1474  27.312  17.123   9.787
    3AU    AUSL 1475  25.514  18.569   7.365
    3AU    AUSL 1476  25.432  18.096   7.264
    3AU     AUL 1477  25.775  18.308   7.192
    3AU       S 1478  25.855  18.148   7.598
    3AU     LIG 1479  26.169  18.033   7.171
    3AU     LIG 1480  26.573  17.808   7.061
    3AU     LIG 1481  27.029  17.709   7.137
    3AU     LIG 1482  27.507  17.742   7.103
    3AU     LIG 1483  27.977  17.545   7.033
    3AU     LIG 1484  28.386  17.781   6.926
    3AU       S 1485  25.659  17.861   7.087
    3AU     LIG 1486  25.615  17.467   6.832
    3AU     LIG 1487  25.864  17.112   6.665
    3AU     LIG 1488  26.129  16.821   6.403
    3AU     LIG 1489  26.218  16.364   6.262
    3AU     LIG 1490  26.472  16.013   6.064
    3AU     LIG 1491  26.865  15.783   5.919
    3AU    AUSL 1492  24.246  18.284   7.478
    3AU    AUSL 1493  24.343  18.390   7.048
    3AU     AUL 1494  24.078  18.492   7.022
    3AU       S 1495  24.246  18.064   7.040
    3AU     LIG 1496  23.777  18.065   6.989
    3AU     LIG 1497  23.480  17.816   6.735
    3AU     LIG 1498  23.224  17.560   6.426
    3AU     LIG 1499  22.971  17.312   6.111
    3AU     LIG 1500  22.786  17.152   5.700
    3AU     LIG 1501  22.468  17.171   5.352
    3AU       S 1502  23.954  18.276   7.410
    3AU     LIG 1503  23.630  18.026   7.527
    3AU     LIG 1504  23.214  17.961   7.636
    3AU     LIG 1505  22.774  17.872   7.543
    3AU     LIG 1506  22.432  17.574   7.658
    3AU     LIG 1507  22.035  17.333   7.540
    3AU     LIG 1508  21.875  16.890   7.412
    3AU    AUSL 1509  24.421  18.652   7.629
    3AU    AUSL 1510  24.503  18.259   7.813
    3AU     AUL 1511  24.127  18.434   7.802
    3AU       S 1512  24.219  18.080   8.083
    3AU     LIG 1513  24.048  17.847   7.762
    3AU     LIG 1514  23.656  17.581   7.871
    3AU     LIG 1515  23.393  17.273   8.171
    3AU     LIG 1516  23.106  16.989   8.459
    3AU     LIG 1517  22.858  16.710   8.773
    3AU     LIG 1518  22.796  16.344   9.075
    3AU       S 1519  23.858  18.552   7.459
    3AU     LIG 1520  23.413  18.404   7.191
    3AU     LIG 1521  22.991  18.257   7.256
    3AU     LIG 1522  22.564  18.337   7.393
    3AU     LIG 1523  22.127  18.453   7.575
    3AU     LIG 1524  21.718  18.217   7.692
    3AU     LIG 1525  21.378  17.898   7.803
    3AU    AUSL 1526  25.038  19.441   8.044
    3AU    AUSL 1527  24.702  19.226   7.719
    3AU     AUL 1528  24.731  19.520   8.120
    3AU       S 1529  24.325  19.357   8.266
    3AU     LIG 1530  24.118  19.710   8.494
    3AU     LIG 1531  24.116  20.139   8.706
    3AU     LIG 1532  23.864  20.526   8.810
    3AU     LIG 1533  23.596  20.893   8.932
    3AU     LIG 1534  23.288  21.106   9.230
    3AU     LIG 1535  22.969  21.332   9.495
    3AU       S 1536  25.090  19.827   8.018
    3AU     LIG 1537  25.224  20.057   8.379
    3AU     LIG 1538  25.195  20.514   8.482
    3AU     LIG 1539  25.247  20.893   8.762
    3AU     LIG 1540  25.203  21.081   9.196
    3AU     LIG 1541  25.056  21.427   9.477
    3AU     LIG 1542  24.937  21.862   9.613
    3AU    AUSL 1543  24.782  19.626   7.680
    3AU    AUSL 1544  25.239  19.605   7.266
    3AU     AUL 1545  24.895  19.860   7.438
    3AU       S 1546  24.923  19.900   7.894
    3AU     LIG 1547  24.886  20.306   8.091
    3AU     LIG 1548  25.097  20.687   8.001
    3AU     LIG 1549  25.119  21.035   8.273
    3AU     LIG 1550  24.899  21.377   8.489
    3AU     LIG 1551  24.598  21.735   8.389
    3AU     LIG 1552  24.327  22.086   8.591
    3AU       S 1553  25.296  19.916   7.188
    3AU     LIG 1554  25.453  20.251   6.937
    3AU     LIG 1555  25.416  20.660   6.720
    3AU     LIG 1556  25.566  21.106   6.639
    3AU     LIG 1557  25.909  21.467   6.650
    3AU     LIG 1558  26.117  21.913   6.603
    3AU     LIG 1559  26.080  22.401   6.549
    3AU    AUSL 1560  25.184  19.459   7.652
    3AU    AUSL 1561  25.174  19.079   7.907
    3AU     AUL 1562  25.371  19.464   8.041
    3AU       S 1563  25.750  19.241   8.234
    3AU     LIG 1564  25.963  19.390   8.611
    3AU     LIG 1565  26.203  19.603   8.960
    3AU     LIG 1566  26.457  19.814   9.304
    3AU     LIG 1567  26.616  20.099   9.648
    3AU     LIG 1568  26.527  20.480   9.943
    3AU     LIG 1569  26.542  20.901  10.171
    3AU       S 1570  25.258  19.792   7.730
    3AU     LIG 1571  25.382  20.244   7.928
    3AU     LIG 1572  25.575  20.649   8.161
    3AU     LIG 1573  25.709  21.099   8.323
    3AU     LIG 1574  26.044  21.486   8.382
    3AU     LIG 1575  26.222  21.949   8.381
    3AU     LIG 1576  26.184  22.423   8.408
    3AU    AUSL 1577  24.929  18.191   7.934
    3AU    AUSL 1578  25.294  18.311   7.728
    3AU     AUL 1579  25.112  18.072   8.192
    3AU       S 1580  24.986  17.650   8.056
    3AU     LIG 1581  25.038  17.262   8.265
    3AU     LIG 1582  24.687  16.974   8.283
    3AU     LIG 1583  24.545  16.564   8.411
    3AU     LIG 1584  24.658  16.125   8.539
    3AU     LIG 1585  24.684  15.823   8.917
    3AU     LIG 1586  24.686  15.483   9.263
    3AU       S 1587  25.577  17.944   7.944
    3AU     LIG 1588  25.752  17.502   8.096
    3AU     LIG 1589  25.900  17.101   8.369
    3AU     LIG 1590  25.956  16.634   8.538
    3AU     LIG 1591  26.192  16.213   8.578
    3AU     LIG 1592  26.471  15.962   8.834
    3AU     LIG 1593  26.896  15.999   9.026
    3AU    AUSL 1594  24.735  17.951   7.656
    3AU    AUSL 1595  24.644  18.325   8.211
    3AU     AUL 1596  24.659  17.983   8.016
    3AU       S 1597  24.792  17.551   7.933
    3AU     LIG 1598  24.618  17.167   7.737
    3AU     LIG 1599  24.451  16.744   7.870
    3AU     LIG 1600  24.350  16.306   8.013
    3AU     LIG 1601  24.051  15.940   8.071
    3AU     LIG 1602  23.942  15.489   8.156
    3AU     LIG 1603  23.910  15.135   8.444
    3AU       S 1604  24.390  18.212   8.312
    3AU     LIG 1605  24.086  17.865   8.517
    3AU     LIG 1606  23.735  17.540   8.464
    3AU     LIG 1607  23.532  17.169   8.683
    3AU     LIG 1608  23.309  16.864   8.962
    3AU     LIG 1609  23.167  16.601   9.322
    3AU     LIG 1610  23.203  16.303   9.690
    3AU    AUSL 1611  25.186  17.912   7.714
    3AU    AUSL 1612  24.697  17.945   7.238
    3AU     AUL 1613  24.880  17.706   7.514
    3AU       S 1614  24.612  17.626   7.126
    3AU     LIG 1615  24.335  17.303   7.211
    3AU     LIG 1616  24.377  16.835   7.240
    3AU     LIG 1617  24.416  16.387   7.031
    3AU     LIG 1618  24.336  15.900   6.921
    3AU     LIG 1619  24.228  15.399   6.880
    3AU     LIG 1620  24.245  14.948   6.646
    3AU       S 1621  25.137  17.715   7.887
    3AU     LIG 1622  25.134  17.238   7.753
    3AU     LIG 1623  24.966  16.796   7.892
    3AU     LIG 1624  24.893  16.346   8.097
    3AU     LIG 1625  25.099  15.911   8.253
    3AU     LIG 1626  25.385  15.482   8.234
    3AU     LIG 1627  25.417  14.980   8.158
    3AU    AUSL 1628  24.984  19.429   6.944
    3AU    AUSL 1629  25.280  19.192   7.266
    3AU     AUL 1630  25.360  19.499   6.999
    3AU       S 1631  25.049  19.785   6.803
    3AU     LIG 1632  25.103  20.189   6.569
    3AU     LIG 1633  25.149  20.580   6.282
    3AU     LIG 1634  25.319  20.752   5.876
    3AU     LIG 1635  25.375  21.064   5.534
    3AU     LIG 1636  25.409  21.517   5.423
    3AU     LIG 1637  25.295  21.904   5.173
    3AU       S 1638  25.717  19.198   6.971
    3AU     LIG 1639  26.066  19.580   6.792
    3AU     LIG 1640  26.396  19.790   6.482
    3AU     LIG 1641  26.674  20.053   6.187
    3AU     LIG 1642  26.940  20.457   6.103
    3AU     LIG 1643  27.138  20.905   6.042
    3AU     LIG 1644  27.320  21.344   5.924
    3AU    AUSL 1645  24.880  19.396   7.351
    3AU    AUSL 1646  24.769  19.101   7.065
    3AU     AUL 1647  24.722  19.589   7.088
    3AU       S 1648  25.097  19.880   7.035
    3AU     LIG 1649  24.939  20.283   7.065
    3AU     LIG 1650  24.905  20.616   6.769
    3AU     LIG 1651  24.994  21.019   6.559
    3AU     LIG 1652  24.974  21.487   6.537
    3AU     LIG 1653  24.615  21.809   6.500
    3AU     LIG 1654  24.233  22.097   6.495
    3AU       S 1655  24.578  19.406   6.686
    3AU     LIG 1656  24.578  19.452   6.244
    3AU     LIG 1657  24.359  19.769   5.952
    3AU     LIG 1658  24.071  19.963   5.607
    3AU     LIG 1659  23.772  20.110   5.237
    3AU     LIG 1660  23.614  20.490   4.982
    3AU     LIG 1661  23.463  20.714   4.582
    3AU    AUSL 1662  25.055  18.032   6.978
    3AU    AUSL 1663  24.636  18.334   7.351
    3AU     AUL 1664  24.702  18.038   6.930
    3AU       S 1665  24.244  17.940   7.170
    3AU     LIG 1666  23.910  17.661   7.287
    3AU     LIG 1667  23.576  17.417   7.046
    3AU     LIG 1668  23.277  17.157   6.747
    3AU     LIG 1669  23.002  16.889   6.432
    3AU     LIG 1670  22.682  16.518   6.320
    3AU     LIG 1671  22.509  16.086   6.159
    3AU       S 1672  24.930  17.641   6.910
    3AU     LIG 1673  24.650  17.264   6.769
    3AU     LIG 1674  24.549  16.812   6.743
    3AU     LIG 1675  24.583  16.394   6.524
    3AU     LIG 1676  24.602  16.175   6.089
    3AU     LIG 1677  24.742  15.915   5.706
    3AU     LIG 1678  24.994  15.558   5.516
    3AU    AUSL 1679  25.040  18.128   7.396
    3AU    AUSL 1680  25.173  18.405   7.100
    3AU     AUL 1681  25.211  17.885   7.202
    3AU       S 1682  24.843  17.614   7.079
    3AU     LIG 1683  24.837  17.163   7.248
    3AU     LIG 1684  24.858  16.687   7.138
    3AU     LIG 1685  24.918  16.253   6.924
    3AU     LIG 1686  25.208  15.852   6.874
    3AU     LIG 1687  25.318  15.387   6.822
    3AU     LIG 1688  25.631  15.127   6.569
    3AU       S 1689  25.469  17.966   6.806
    3AU     LIG 1690  25.589  17.792   6.411
    3AU     LIG 1691  25.719  17.385   6.248
    3AU     LIG 1692  25.959  17.077   5.997
    3AU     LIG 1693  26.192  16.720   5.800
    3AU     LIG 1694  26.158  16.472   5.381
    3AU     LIG 1695  26.314  16.375   4.944
    4AU     AUC 1696   1.729  25.914   7.499
    4AU     AUC 1697   1.992  25.910   7.338
    4AU     AUC 1698   1.984  25.901   7.645
    4AU     AUC 1699   1.483  25.917   7.338
    4AU     AUC 1700   1.466  25.936   7.645
    4AU     AUC 1701   1.586  26.176   7.500
    4AU     AUC 1702   1.894  26.166   7.477
    4AU     AUC 1703   1.569  25.660   7.510
    4AU     AUC 1704   1.864  25.654   7.523
    4AU     AUC 1705   1.717  25.766   7.762
    4AU     AUC 1706   1.756  26.080   7.749
    4AU     AUC 1707   1.729  25.748   7.242
    4AU     AUC 1708   1.719  26.050   7.235
    4AU     AUC 1709   2.239  25.899   7.171
    4AU     AUC 1710   2.250  25.907   7.481
    4AU     AUC 1711   2.242  25.900   7.793
    4AU     AUC 1712   1.222  25.909   7.180
    4AU     AUC 1713   1.209  25.940   7.483
    4AU     AUC 1714   1.220  25.960   7.807
    4AU     AUC 1715   1.449  26.447   7.501
    4AU     AUC 1716   1.754  26.441   7.491
    4AU     AUC 1717   2.046  26.431   7.487
    4AU     AUC 1718   1.380  25.411   7.521
    4AU     AUC 1719   1.700  25.389   7.507
    4AU     AUC 1720   2.014  25.386   7.530
    4AU     AUC 1721   1.695  25.612   8.012
    4AU     AUC 1722   1.734  25.923   8.027
    4AU     AUC 1723   1.761  26.236   8.016
    4AU     AUC 1724   1.728  25.570   7.007
    4AU     AUC 1725   1.739  25.889   6.973
    4AU     AUC 1726   1.721  26.202   6.970
    4AU     AUC 1727   1.997  25.760   7.922
    4AU     AUC 1728   2.004  26.055   7.915
    4AU     AUC 1729   1.998  25.737   7.079
    4AU     AUC 1730   1.998  26.049   7.065
    4AU     AUC 1731   1.458  25.791   7.928
    4AU     AUC 1732   1.480  26.099   7.926
    4AU     AUC 1733   1.479  25.745   7.069
    4AU     AUC 1734   1.471  26.059   7.072
    4AU     AUC 1735   2.149  26.174   7.315
    4AU     AUC 1736   2.162  26.149   7.636
    4AU     AUC 1737   1.318  26.181   7.343
    4AU     AUC 1738   1.327  26.205   7.663
    4AU     AUC 1739   2.137  25.642   7.349
    4AU     AUC 1740   2.142  25.643   7.666
    4AU     AUC 1741   1.300  25.663   7.341
    4AU     AUC 1742   1.302  25.686   7.679
    4AU     AUC 1743   1.591  26.340   7.767
    4AU     AUC 1744   1.914  26.338   7.737
    4AU     AUC 1745   1.543  25.499   7.763
    4AU     AUC 1746   1.865  25.497   7.784
    4AU     AUC 1747   1.576  26.331   7.232
    4AU     AUC 1748   1.894  26.315   7.218
    4AU     AUC 1749   1.549  25.501   7.247
    4AU     AUC 1750   1.878  25.480   7.264
    4AU    AUSL 1751   2.071  25.856   8.096
    4AU    AUSL 1752   2.032  25.424   8.137
    4AU     AUL 1753   2.267  25.510   8.394
    4AU       S 1754   2.290  25.143   8.059
    4AU     LIG 1755   2.209  24.979   8.451
    4AU     LIG 1756   2.279  24.572   8.633
    4AU     LIG 1757   2.543  24.304   8.914
    4AU     LIG 1758   2.826  24.029   9.186
    4AU     LIG 1759   2.870  23.726   9.561
    4AU     LIG 1760   2.793  23.448   9.949
    4AU       S 1761   2.144  25.873   8.654
    4AU     LIG 1762   2.453  25.592   8.870
    4AU     LIG 1763   2.687  25.433   9.252
    4AU     LIG 1764   3.008  25.401   9.605
    4AU     LIG 1765   3.404  25.433   9.878
    4AU     LIG 1766   3.662  25.519  10.267
    4AU     LIG 1767   4.041  25.625  10.507
    4AU    AUSL 1768   1.792  25.693   8.368
    4AU    AUSL 1769   1.683  26.100   8.290
    4AU     AUL 1770   1.737  26.061   8.707
    4AU       S 1771   1.868  25.687   8.507
    4AU     LIG 1772   2.005  25.344   8.795
    4AU     LIG 1773   2.224  25.187   9.210
    4AU     LIG 1774   2.307  24.999   9.673
    4AU     LIG 1775   2.353  24.825  10.142
    4AU     LIG 1776   2.445  24.763  10.620
    4AU     LIG 1777   2.472  24.713  11.103
    4AU       S 1778   1.370  25.809   8.645
    4AU     LIG 1779   1.210  25.741   9.101
    4AU     LIG 1780   1.020  25.679   9.519
    4AU     LIG 1781   0.955  25.786   9.972
    4AU     LIG 1782   0.980  26.087  10.354
    4AU     LIG 1783   0.852  26.311  10.761
    4AU     LIG 1784   0.855  26.608  11.139
    4AU    AUSL 1785   2.075  26.230   8.280
    4AU    AUSL 1786   2.402  26.086   7.971
    4AU     AUL 1787   2.372  25.952   8.275
    4AU       S 1788   2.092  26.252   8.485
    4AU     LIG 1789   2.149  26.475   8.884
    4AU     LIG 1790   2.312  26.652   9.305
    4AU     LIG 1791   2.266  26.751   9.782
    4AU     LIG 1792   2.417  26.764  10.237
    4AU     LIG 1793   2.519  26.867  10.692
    4AU     LIG 1794   2.477  26.717  11.146
    4AU       S 1795   2.705  26.155   8.024
    4AU     LIG 1796   2.905  26.136   8.436
    4AU     LIG 1797   3.148  26.411   8.728
    4AU     LIG 1798   3.422  26.665   9.017
    4AU     LIG 1799   3.663  26.777   9.417
    4AU     LIG 1800   4.042  26.925   9.671
    4AU     LIG 1801   4.339  27.241   9.870
    4AU    AUSL 1802   2.268  25.942   6.863
    4AU    AUSL 1803   2.033  26.339   6.816
    4AU     AUL 1804   2.394  26.288   6.452
    4AU       S 1805   2.296  25.966   6.711
    4AU     LIG 1806   2.586  25.861   6.317
    4AU     LIG 1807   2.619  25.649   5.906
    4AU     LIG 1808   2.757  25.532   5.457
    4AU     LIG 1809   3.163  25.507   5.170
    4AU     LIG 1810   3.539  25.506   4.859
    4AU     LIG 1811   3.744  25.482   4.419
    4AU       S 1812   2.022  26.388   6.653
    4AU     LIG 1813   2.308  26.754   6.562
    4AU     LIG 1814   2.670  26.804   6.261
    4AU     LIG 1815   2.994  26.972   5.928
    4AU     LIG 1816   3.146  27.202   5.507
    4AU     LIG 1817   3.292  27.537   5.172
    4AU     LIG 1818   3.465  27.696   4.755
    4AU    AUSL 1819   2.006  25.620   6.700
    4AU    AUSL 1820   2.342  25.553   6.993
    4AU     AUL 1821   2.436  25.560   6.674
    4AU       S 1822   2.327  25.137   6.820
    4AU     LIG 1823   2.537  24.970   6.430
    4AU     LIG 1824   2.781  24.579   6.289
    4AU     LIG 1825   3.062  24.238   6.094
    4AU     LIG 1826   3.358  24.086   5.747
    4AU     LIG 1827   3.676  24.223   5.419
    4AU     LIG 1828   4.063  24.251   5.138
    4AU       S 1829   2.106  25.833   6.443
    4AU     LIG 1830   2.226  25.446   6.231
    4AU     LIG 1831   2.296  25.264   5.794
    4AU     LIG 1832   2.302  25.253   5.314
    4AU     LIG 1833   2.255  25.170   4.846
    4AU     LIG 1834   2.340  25.142   4.373
    4AU     LIG 1835   2.629  25.036   4.009
    4AU    AUSL 1836   1.848  25.977   6.877
    4AU    AUSL 1837   1.595  25.719   6.656
    4AU     AUL 1838   1.802  25.503   6.561
    4AU       S 1839   1.553  25.821   6.327
    4AU     LIG 1840   1.548  25.496   6.036
    4AU     LIG 1841   1.265  25.267   5.730
    4AU     LIG 1842   1.076  25.175   5.303
    4AU     LIG 1843   0.857  25.059   4.896
    4AU     LIG 1844   0.748  24.821   4.488
    4AU     LIG 1845   0.558  24.763   4.058
    4AU       S 1846   1.993  25.947   6.496
    4AU     LIG 1847   2.119  25.897   5.971
    4AU     LIG 1848   2.259  25.725   5.542
    4AU     LIG 1849   2.386  25.718   5.079
    4AU     LIG 1850   2.507  25.984   4.697
    4AU     LIG 1851   2.549  26.079   4.230
    4AU     LIG 1852   2.735  26.156   3.796
    4AU    AUSL 1853   1.289  25.984   8.220
    4AU    AUSL 1854   1.433  26.396   8.134
    4AU     AUL 1855   1.474  26.300   8.422
    4AU       S 1856   1.220  25.991   8.664
    4AU     LIG 1857   0.864  25.714   8.693
    4AU     LIG 1858   0.718  25.521   9.090
    4AU     LIG 1859   0.540  25.478   9.531
    4AU     LIG 1860   0.245  25.394   9.892
    4AU     LIG 1861  44.880  25.552  10.156
    4AU     LIG 1862  44.820  25.541  10.639
    4AU       S 1863   1.022  26.366   8.357
    4AU     LIG 1864   1.023  26.449   8.796
    4AU     LIG 1865   0.918  26.816   9.068
    4AU     LIG 1866   0.769  27.202   9.309
    4AU     LIG 1867   0.665  27.406   9.731
    4AU     LIG 1868   0.487  27.589  10.139
    4AU     LIG 1869   0.221  27.846  10.442
    4AU    AUSL 1870   1.592  25.781   8.018
    4AU    AUSL 1871   1.044  25.723   8.005
    4AU     AUL 1872   1.097  25.842   8.248
    4AU       S 1873   0.870  25.428   8.238
    4AU     LIG 1874   0.416  25.250   8.191
    4AU     LIG 1875  44.979  25.058   8.285
    4AU     LIG 1876  44.771  24.773   8.604
    4AU     LIG 1877  44.620  24.461   8.932
    4AU     LIG 1878  44.387  24.642   9.284
    4AU     LIG 1879  44.393  24.667   9.760
    4AU       S 1880   1.387  25.696   8.600
    4AU     LIG 1881   1.175  25.325   8.816
    4AU     LIG 1882   1.087  25.221   9.279
    4AU     LIG 1883   0.928  25.205   9.739
    4AU     LIG 1884   0.722  25.004  10.130
    4AU     LIG 1885   0.607  24.840  10.572
    4AU     LIG 1886   0.543  24.906  11.045
    4AU    AUSL 1887   1.336  25.866   6.949
    4AU    AUSL 1888   1.476  25.441   6.936
    4AU     AUL 1889   1.302  25.553   6.635
    4AU       S 1890   1.316  25.908   6.312
    4AU     LIG 1891   1.079  25.706   5.976
    4AU     LIG 1892   0.869  25.570   5.567
    4AU     LIG 1893   0.594  25.400   5.210
    4AU     LIG 1894   0.170  25.347   4.965
    4AU     LIG 1895  44.817  25.539   4.696
    4AU     LIG 1896  44.578  25.732   4.342
    4AU       S 1897   1.012  25.158   6.788
    4AU     LIG 1898   0.714  24.792   6.744
    4AU     LIG 1899   0.390  24.503   6.537
    4AU     LIG 1900   0.127  24.260   6.218
    4AU     LIG 1901   0.253  24.011   5.828
    4AU     LIG 1902   0.361  23.854   5.378
    4AU     LIG 1903   0.217  23.620   4.977
    4AU    AUSL 1904   1.531  26.153   6.666
    4AU    AUSL 1905   1.100  26.211   6.942
    4AU     AUL 1906   1.122  25.987   6.714
    4AU       S 1907   1.087  26.450   6.730
    4AU     LIG 1908   0.792  26.509   6.366
    4AU     LIG 1909   0.631  26.808   6.011
    4AU     LIG 1910   0.395  26.917   5.594
    4AU     LIG 1911   0.000  27.019   5.322
    4AU     LIG 1912  44.692  27.197   5.000
    4AU     LIG 1913  44.293  27.449   4.884
    4AU       S 1914   1.534  26.080   6.457
    4AU     LIG 1915   1.555  26.035   5.898
    4AU     LIG 1916   1.372  25.743   5.550
    4AU     LIG 1917   1.186  25.650   5.114
    4AU     LIG 1918   1.180  25.797   4.649
    4AU     LIG 1919   1.047  26.058   4.261
    4AU     LIG 1920   0.884  26.316   3.889
    4AU    AUSL 1921   2.361  26.525   7.433
    4AU    AUSL 1922   2.382  26.288   7.070
    4AU     AUL 1923   2.499  26.734   7.231
    4AU       S 1924   2.510  26.390   6.884
    4AU     LIG 1925   2.869  26.344   6.588
    4AU     LIG 1926   3.117  26.531   6.218
    4AU     LIG 1927   3.461  26.724   5.943
    4AU     LIG 1928   3.853  26.702   5.660
    4AU     LIG 1929   4.236  26.837   5.410
    4AU     LIG 1930   4.483  27.107   5.111
    4AU       S 1931   2.817  26.402   7.331
    4AU     LIG 1932   3.304  26.419   7.453
    4AU     LIG 1933   3.795  26.402   7.562
    4AU     LIG 1934   4.278  26.524   7.531
    4AU     LIG 1935   4.570  26.943   7.496
    4AU     LIG 1936   4.807  27.387   7.528
    4AU     LIG 1937   5.184  27.536   7.772
    4AU    AUSL 1938   2.571  25.954   7.223
    4AU    AUSL 1939   2.581  25.789   7.642
    4AU     AUL 1940   2.820  25.728   7.345
    4AU       S 1941   2.770  26.187   7.311
    4AU     LIG 1942   3.154  26.059   7.115
    4AU     LIG 1943   3.621  26.054   7.214
    4AU     LIG 1944   4.095  26.079   7.290
    4AU     LIG 1945   4.569  26.113   7.255
    4AU     LIG 1946   4.918  26.274   6.987
    4AU     LIG 1947   5.359  26.406   6.983
    4AU       S 1948   2.905  25.388   7.651
    4AU     LIG 1949   3.313  25.229   7.780
    4AU     LIG 1950   3.734  25.029   7.776
    4AU     LIG 1951   4.102  24.779   7.782
    4AU     LIG 1952   4.487  24.587   7.931
    4AU     LIG 1953   4.894  24.784   8.038
    4AU     LIG 1954   5.344  24.672   8.121
    4AU    AUSL 1955   2.354  26.123   7.558
    4AU    AUSL 1956   2.265  26.463   7.839
    4AU     AUL 1957   2.523  26.436   7.695
    4AU       S 1958   2.565  26.380   8.138
    4AU     LIG 1959   2.943  26.646   8.302
    4AU     LIG 1960   3.177  26.927   8.628
    4AU     LIG 1961   3.433  27.297   8.809
    4AU     LIG 1962   3.625  27.757   8.772
    4AU     LIG 1963   3.883  28.159   8.868
    4AU     LIG 1964   4.129  28.550   8.965
    4AU       S 1965   2.861  26.165   7.551
    4AU     LIG 1966   3.280  25.924   7.609
    4AU     LIG 1967   3.779  25.889   7.681
    4AU     LIG 1968   4.228  26.034   7.789
    4AU     LIG 1969   4.685  26.145   7.778
    4AU     LIG 1970   5.073  26.330   7.968
    4AU     LIG 1971   5.333  26.717   7.939
    4AU    AUSL 1972   1.077  26.487   7.572
    4AU    AUSL 1973   1.121  26.214   7.917
    4AU     AUL 1974   1.086  26.660   7.842
    4AU       S 1975   0.917  26.285   8.105
    4AU     LIG 1976   0.550  26.360   8.455
    4AU     LIG 1977   0.497  26.573   8.874
    4AU     LIG 1978   0.233  26.666   9.269
    4AU     LIG 1979  44.931  26.792   9.633
    4AU     LIG 1980  44.625  26.954   9.977
    4AU     LIG 1981  44.397  27.292  10.228
    4AU       S 1982   0.705  26.527   7.626
    4AU     LIG 1983   0.330  26.840   7.639
    4AU     LIG 1984   0.123  27.291   7.622
    4AU     LIG 1985  44.899  27.707   7.745
    4AU     LIG 1986  44.594  28.080   7.785
    4AU     LIG 1987  44.159  28.183   7.557
    4AU     LIG 1988  43.712  28.243   7.408
    4AU    AUSL 1989   1.154  26.144   7.345
    4AU    AUSL 1990   1.245  26.556   7.189
    4AU     AUL 1991   0.974  26.481   7.210
    4AU       S 1992   0.587  26.434   7.470
    4AU     LIG 1993   0.291  26.374   7.103
    4AU     LIG 1994  44.894  26.533   6.844
    4AU     LIG 1995  44.499  26.754   6.702
    4AU     LIG 1996  44.188  27.110   6.670
    4AU     LIG 1997  43.793  27.345   6.759
    4AU     LIG 1998  43.333  27.308   6.624
    4AU       S 1999   1.081  26.724   6.814
    4AU     LIG 2000   1.001  26.967   6.417
    4AU     LIG 2001   0.856  27.308   6.119
    4AU     LIG 2002   0.782  27.797   6.122
    4AU     LIG 2003   0.479  28.165   6.052
    4AU     LIG 2004   0.032  28.312   5.892
    4AU     LIG 2005  44.826  28.594   5.553
    4AU    AUSL 2006   0.858  26.074   7.641
    4AU    AUSL 2007   0.905  25.819   7.290
    4AU     AUL 2008   0.759  26.077   7.251
    4AU       S 2009   0.549  25.629   7.423
    4AU     LIG 2010   0.187  25.499   7.771
    4AU     LIG 2011  44.685  25.496   7.870
    4AU     LIG 2012  44.241  25.259   7.816
    4AU     LIG 2013  43.896  25.203   7.415
    4AU     LIG 2014  43.524  25.378   7.154
    4AU     LIG 2015  43.210  25.095   6.933
    4AU       S 2016   0.656  26.146   7.722
    4AU     LIG 2017   0.361  26.424   7.983
    4AU     LIG 2018  44.887  26.537   8.015
    4AU     LIG 2019  44.445  26.796   8.047
    4AU     LIG 2020  44.041  27.076   8.217
    4AU     LIG 2021  43.636  27.296   8.432
    4AU     LIG 2022  43.167  27.250   8.459
    4AU    AUSL 2023   2.424  25.390   7.571
    4AU    AUSL 2024   2.369  25.611   7.949
    4AU     AUL 2025   2.659  25.655   7.926
    4AU       S 2026   2.621  25.166   7.566
    4AU     LIG 2027   2.886  24.908   7.823
    4AU     LIG 2028   3.306  24.718   7.681
    4AU     LIG 2029   3.723  24.524   7.548
    4AU     LIG 2030   4.162  24.306   7.578
    4AU     LIG 2031   4.430  24.009   7.848
    4AU     LIG 2032   4.747  23.639   7.936
    4AU       S 2033   2.383  25.284   8.018
    4AU     LIG 2034   2.709  25.125   8.318
    4AU     LIG 2035   2.769  24.760   8.614
    4AU     LIG 2036   3.032  24.407   8.812
    4AU     LIG 2037   3.320  24.188   9.122
    4AU     LIG 2038   3.722  24.154   9.381
    4AU     LIG 2039   4.118  24.109   9.640
    4AU    AUSL 2040   2.266  25.720   7.362
    4AU    AUSL 2041   2.181  25.254   7.258
    4AU     AUL 2042   2.504  25.419   7.181
    4AU       S 2043   2.660  25.325   7.593
    4AU     LIG 2044   3.079  25.062   7.342
    4AU     LIG 2045   3.577  24.963   7.295
    4AU     LIG 2046   4.048  24.789   7.244
    4AU     LIG 2047   4.464  24.633   7.028
    4AU     LIG 2048   4.939  24.538   7.017
    4AU     LIG 2049   5.345  24.414   6.800
    4AU       S 2050   2.386  25.001   6.983
    4AU     LIG 2051   2.458  24.574   6.749
    4AU     LIG 2052   2.617  24.155   6.537
    4AU     LIG 2053   2.862  23.790   6.317
    4AU     LIG 2054   3.234  23.468   6.309
    4AU     LIG 2055   3.636  23.209   6.241
    4AU     LIG 2056   4.091  23.130   6.099
    4AU    AUSL 2057   0.994  25.437   7.475
    4AU    AUSL 2058   1.089  25.546   7.046
    4AU     AUL 2059   0.820  25.644   7.030
    4AU       S 2060   0.986  25.215   7.036
    4AU     LIG 2061   0.522  25.221   6.961
    4AU     LIG 2062   0.194  24.939   6.752
    4AU     LIG 2063  44.890  24.648   6.495
    4AU     LIG 2064  44.641  24.462   6.131
    4AU     LIG 2065  44.358  24.654   5.793
    4AU     LIG 2066  44.176  24.644   5.346
    4AU       S 2067   0.684  25.416   7.410
    4AU     LIG 2068   0.290  25.154   7.420
    4AU     LIG 2069  44.844  25.083   7.574
    4AU     LIG 2070  44.399  25.032   7.395
    4AU     LIG 2071  44.041  24.724   7.328
    4AU     LIG 2072  43.620  24.447   7.442
    4AU     LIG 2073  43.408  24.089   7.729
    4AU    AUSL 2074   1.171  25.804   7.627
    4AU    AUSL 2075   1.253  25.410   7.808
    4AU     AUL 2076   0.879  25.579   7.795
    4AU       S 2077   0.955  25.223   8.077
    4AU     LIG 2078   0.648  25.059   7.781
    4AU     LIG 2079   0.222  24.838   7.886
    4AU     LIG 2080  44.897  24.551   8.152
    4AU     LIG 2081  44.554  24.342   8.437
    4AU     LIG 2082  44.245  24.137   8.722
    4AU     LIG 2083  44.231  23.678   8.862
    4AU       S 2084   0.592  25.709   7.472
    4AU     LIG 2085   0.089  25.787   7.368
    4AU     LIG 2086  44.668  25.525   7.346
    4AU     LIG 2087  44.195  25.597   7.456
    4AU     LIG 2088  43.762  25.456   7.818
    4AU     LIG 2089  43.407  25.049   7.986
    4AU     LIG 2090  42.984  24.727   8.092
    4AU    AUSL 2091   1.787  26.598   8.036
    4AU    AUSL 2092   1.451  26.383   7.719
    4AU     AUL 2093   1.485  26.679   8.114
    4AU       S 2094   1.084  26.513   8.270
    4AU     LIG 2095   0.816  26.824   8.519
    4AU     LIG 2096   0.760  27.220   8.783
    4AU     LIG 2097   0.770  27.670   8.951
    4AU     LIG 2098   0.526  28.086   8.988
    4AU     LIG 2099   0.063  28.254   9.035
    4AU     LIG 2100  44.604  28.350   9.132
    4AU       S 2101   1.842  26.984   8.006
    4AU     LIG 2102   1.994  27.181   8.374
    4AU     LIG 2103   1.980  27.608   8.561
    4AU     LIG 2104   1.992  27.991   8.839
    4AU     LIG 2105   1.895  28.292   9.208
    4AU     LIG 2106   1.886  28.688   9.478
    4AU     LIG 2107   2.084  29.001   9.778
    4AU    AUSL 2108   1.532  26.783   7.673
    4AU    AUSL 2109   1.984  26.757   7.257
    4AU     AUL 2110   1.662  27.013   7.428
    4AU       S 2111   1.687  27.064   7.886
    4AU     LIG 2112   1.756  27.522   8.070
    4AU     LIG 2113   1.760  27.978   8.252
    4AU     LIG 2114   1.582  28.433   8.330
    4AU     LIG 2115   1.418  28.895   8.445
    4AU     LIG 2116   1.521  29.306   8.685
    4AU     LIG 2117   1.423  29.762   8.589
    4AU       S 2118   2.022  27.089   7.126
    4AU     LIG 2119   2.364  27.196   6.857
    4AU     LIG 2120   2.464  27.652   6.743
    4AU     LIG 2121   2.546  28.129   6.687
    4AU     LIG 2122   2.799  28.552   6.656
    4AU     LIG 2123   2.812  29.023   6.567
    4AU     LIG 2124   2.520  29.424   6.549
    4AU    AUSL 2125   1.934  26.613   7.644
    4AU    AUSL 2126   1.920  26.233   7.903
    4AU     AUL 2127   2.118  26.620   8.037
    4AU       S 2128   2.495  26.401   8.234
    4AU     LIG 2129   2.620  26.500   8.673
    4AU     LIG 2130   2.862  26.749   9.001
    4AU     LIG 2131   3.161  27.060   9.207
    4AU     LIG 2132   3.318  27.259   9.610
    4AU     LIG 2133   3.303  27.565   9.984
    4AU     LIG 2134   3.343  27.975  10.218
    4AU       S 2135   2.020  26.934   7.716
    4AU     LIG 2136   2.212  27.323   7.921
    4AU     LIG 2137   2.252  27.753   8.144
    4AU     LIG 2138   2.532  28.144   8.278
    4AU     LIG 2139   2.818  28.546   8.381
    4AU     LIG 2140   2.777  29.014   8.508
    4AU     LIG 2141   2.459  29.387   8.586
    4AU    AUSL 2142   1.681  25.344   7.931
    4AU    AUSL 2143   2.043  25.465   7.719
    4AU     AUL 2144   1.863  25.225   8.188
    4AU       S 2145   1.732  24.808   8.048
    4AU     LIG 2146   1.831  24.473   8.293
    4AU     LIG 2147   1.522  24.138   8.285
    4AU     LIG 2148   1.327  23.743   8.417
    4AU     LIG 2149   1.345  23.338   8.647
    4AU     LIG 2150   1.419  23.166   9.091
    4AU     LIG 2151   1.553  22.877   9.442
    4AU       S 2152   2.333  25.089   7.931
    4AU     LIG 2153   2.496  24.681   8.144
    4AU     LIG 2154   2.667  24.304   8.402
    4AU     LIG 2155   2.842  23.943   8.667
    4AU     LIG 2156   3.049  23.537   8.815
    4AU     LIG 2157   3.419  23.276   8.951
    4AU     LIG 2158   3.882  23.210   9.007
    4AU    AUSL 2159   1.487  25.104   7.652
    4AU    AUSL 2160   1.393  25.477   8.205
    4AU     AUL 2161   1.403  25.140   8.014
    4AU       S 2162   1.552  24.715   7.924
    4AU     LIG 2163   1.372  24.327   7.776
    4AU     LIG 2164   1.191  23.924   7.930
    4AU     LIG 2165   1.111  23.476   8.035
    4AU     LIG 2166   1.017  23.093   8.290
    4AU     LIG 2167   0.789  22.675   8.388
    4AU     LIG 2168   0.688  22.320   8.697
    4AU       S 2169   1.123  25.359   8.309
    4AU     LIG 2170   0.769  25.026   8.511
    4AU     LIG 2171   0.350  24.736   8.452
    4AU     LIG 2172   0.074  24.366   8.650
    4AU     LIG 2173   0.073  24.121   9.068
    4AU     LIG 2174   0.005  23.835   9.441
    4AU     LIG 2175  44.914  23.631   9.851
    4AU    AUSL 2176   1.936  25.065   7.707
    4AU    AUSL 2177   1.445  25.099   7.234
    4AU     AUL 2178   1.631  24.859   7.498
    4AU       S 2179   1.375  24.769   7.097
    4AU     LIG 2180   1.145  24.487   7.313
    4AU     LIG 2181   1.142  24.034   7.225
    4AU     LIG 2182   1.145  23.602   7.030
    4AU     LIG 2183   1.152  23.183   6.790
    4AU     LIG 2184   1.044  22.707   6.754
    4AU     LIG 2185   1.173  22.302   6.550
    4AU       S 2186   1.884  24.871   7.876
    4AU     LIG 2187   1.890  24.379   7.781
    4AU     LIG 2188   1.706  23.931   7.852
    4AU     LIG 2189   1.635  23.503   8.076
    4AU     LIG 2190   1.797  23.062   8.231
    4AU     LIG 2191   2.062  22.642   8.304
    4AU     LIG 2192   2.230  22.200   8.456
    4AU    AUSL 2193   1.721  26.585   6.940
    4AU    AUSL 2194   2.027  26.345   7.263
    4AU     AUL 2195   2.097  26.658   6.995
    4AU       S 2196   1.774  26.901   6.769
    4AU     LIG 2197   2.010  27.161   6.478
    4AU     LIG 2198   2.156  27.580   6.335
    4AU     LIG 2199   2.303  27.891   6.006
    4AU     LIG 2200   2.227  28.099   5.577
    4AU     LIG 2201   2.111  28.488   5.340
    4AU     LIG 2202   2.107  28.898   5.103
    4AU       S 2203   2.460  26.365   6.960
    4AU     LIG 2204   2.761  26.796   6.797
    4AU     LIG 2205   3.101  26.975   6.483
    4AU     LIG 2206   3.391  27.220   6.178
    4AU     LIG 2207   3.621  27.650   6.075
    4AU     LIG 2208   3.802  28.110   6.000
    4AU     LIG 2209   3.966  28.553   5.855
    4AU    AUSL 2210   1.626  26.548   7.347
    4AU    AUSL 2211   1.511  26.255   7.062
    4AU     AUL 2212   1.460  26.743   7.090
    4AU       S 2213   1.821  27.042   7.000
    4AU     LIG 2214   1.945  27.506   6.845
    4AU     LIG 2215   2.026  27.954   6.696
    4AU     LIG 2216   1.865  28.408   6.707
    4AU     LIG 2217   1.661  28.836   6.763
    4AU     LIG 2218   1.491  29.255   6.602
    4AU     LIG 2219   1.295  29.679   6.506
    4AU       S 2220   1.316  26.557   6.686
    4AU     LIG 2221   1.289  26.566   6.239
    4AU     LIG 2222   1.126  26.881   5.909
    4AU     LIG 2223   0.895  27.079   5.531
    4AU     LIG 2224   0.842  27.300   5.090
    4AU     LIG 2225   0.666  27.633   4.792
    4AU     LIG 2226   0.477  28.047   4.649
    4AU    AUSL 2227   1.801  25.188   6.975
    4AU    AUSL 2228   1.383  25.488   7.347
    4AU     AUL 2229   1.442  25.194   6.931
    4AU       S 2230   0.993  25.090   7.166
    4AU     LIG 2231   0.632  24.800   7.248
    4AU     LIG 2232   0.269  24.520   7.042
    4AU     LIG 2233   0.001  24.215   6.737
    4AU     LIG 2234  44.659  24.036   6.440
    4AU     LIG 2235  44.568  23.580   6.259
    4AU     LIG 2236  44.177  23.378   6.159
    4AU       S 2237   1.700  24.821   6.888
    4AU     LIG 2238   1.653  24.432   6.677
    4AU     LIG 2239   1.391  24.054   6.741
    4AU     LIG 2240   1.328  23.633   6.556
    4AU     LIG 2241   1.312  23.262   6.275
    4AU     LIG 2242   1.354  23.108   5.823
    4AU     LIG 2243   1.623  22.941   5.471
    4AU    AUSL 2244   1.789  25.284   7.391
    4AU    AUSL 2245   1.919  25.561   7.093
    4AU     AUL 2246   1.974  25.045   7.193
    4AU       S 2247   1.609  24.766   7.061
    4AU     LIG 2248   1.612  24.304   7.186
    4AU     LIG 2249   1.609  23.821   7.142
    4AU     LIG 2250   1.626  23.394   6.914
    4AU     LIG 2251   1.893  22.999   6.788
    4AU     LIG 2252   2.227  22.623   6.779
    4AU     LIG 2253   2.287  22.134   6.811
    4AU       S 2254   2.175  25.175   6.735
    4AU     LIG 2255   2.053  24.799   6.515
    4AU     LIG 2256   2.276  24.467   6.266
    4AU     LIG 2257   2.560  24.164   6.020
    4AU     LIG 2258   2.849  23.960   5.694
    4AU     LIG 2259   2.957  23.790   5.254
    4AU     LIG 2260   3.151  23.436   4.994
    5AU     AUC 2261   9.400  26.997   7.509
    5AU     AUC 2262   9.655  26.993   7.346
    5AU     AUC 2263   9.654  26.982   7.656
    5AU     AUC 2264   9.153  26.998   7.347
    5AU     AUC 2265   9.135  27.019   7.654
    5AU     AUC 2266   9.255  27.257   7.512
    5AU     AUC 2267   9.559  27.249   7.487
    5AU     AUC 2268   9.243  26.742   7.518
    5AU     AUC 2269   9.538  26.738   7.529
    5AU     AUC 2270   9.388  26.847   7.772
    5AU     AUC 2271   9.424  27.162   7.760
    5AU     AUC 2272   9.401  26.832   7.251
    5AU     AUC 2273   9.391  27.140   7.246
    5AU     AUC 2274   9.907  26.995   7.184
    5AU     AUC 2275   9.920  26.986   7.492
    5AU     AUC 2276   9.908  26.977   7.812
    5AU     AUC 2277   8.893  26.990   7.191
    5AU     AUC 2278   8.880  27.021   7.493
    5AU     AUC 2279   8.889  27.039   7.816
    5AU     AUC 2280   9.118  27.529   7.512
    5AU     AUC 2281   9.425  27.525   7.501
    5AU     AUC 2282   9.733  27.510   7.498
    5AU     AUC 2283   9.057  26.491   7.530
    5AU     AUC 2284   9.375  26.471   7.514
    5AU     AUC 2285   9.685  26.469   7.537
    5AU     AUC 2286   9.369  26.691   8.021
    5AU     AUC 2287   9.402  27.003   8.038
    5AU     AUC 2288   9.427  27.316   8.028
    5AU     AUC 2289   9.401  26.654   7.016
    5AU     AUC 2290   9.404  26.974   6.984
    5AU     AUC 2291   9.392  27.295   6.987
    5AU     AUC 2292   9.669  26.845   7.933
    5AU     AUC 2293   9.665  27.140   7.935
    5AU     AUC 2294   9.668  26.828   7.087
    5AU     AUC 2295   9.662  27.140   7.073
    5AU     AUC 2296   9.127  26.870   7.937
    5AU     AUC 2297   9.149  27.178   7.937
    5AU     AUC 2298   9.148  26.826   7.079
    5AU     AUC 2299   9.138  27.142   7.082
    5AU     AUC 2300   9.822  27.256   7.332
    5AU     AUC 2301   9.823  27.233   7.656
    5AU     AUC 2302   8.988  27.263   7.354
    5AU     AUC 2303   8.997  27.286   7.674
    5AU     AUC 2304   9.810  26.730   7.358
    5AU     AUC 2305   9.810  26.721   7.675
    5AU     AUC 2306   8.973  26.744   7.351
    5AU     AUC 2307   8.974  26.765   7.687
    5AU     AUC 2308   9.260  27.422   7.778
    5AU     AUC 2309   9.583  27.422   7.748
    5AU     AUC 2310   9.217  26.579   7.772
    5AU     AUC 2311   9.537  26.578   7.792
    5AU     AUC 2312   9.248  27.414   7.245
    5AU     AUC 2313   9.569  27.402   7.232
    5AU     AUC 2314   9.223  26.584   7.254
    5AU     AUC 2315   9.553  26.566   7.269
    5AU    AUSL 2316   9.737  26.947   8.120
    5AU    AUSL 2317   9.716  26.511   8.143
    5AU     AUL 2318   9.951  26.610   8.398
    5AU       S 2319   9.975  26.240   8.058
    5AU     LIG 2320   9.930  26.071   8.460
    5AU     LIG 2321  10.023  25.663   8.661
    5AU     LIG 2322  10.235  25.325   8.915
    5AU     LIG 2323  10.280  25.131   9.345
    5AU     LIG 2324  10.324  24.940   9.774
    5AU     LIG 2325  10.493  24.767  10.184
    5AU       S 2326   9.809  26.962   8.656
    5AU     LIG 2327  10.113  26.693   8.888
    5AU     LIG 2328  10.338  26.519   9.270
    5AU     LIG 2329  10.646  26.454   9.627
    5AU     LIG 2330  11.040  26.503   9.895
    5AU     LIG 2331  11.353  26.594  10.233
    5AU     LIG 2332  11.553  26.827  10.591
    5AU    AUSL 2333   9.458  26.758   8.375
    5AU    AUSL 2334   9.347  27.166   8.308
    5AU     AUL 2335   9.394  27.119   8.723
    5AU       S 2336   9.537  26.750   8.521
    5AU     LIG 2337   9.693  26.408   8.793
    5AU     LIG 2338   9.909  26.230   9.201
    5AU     LIG 2339  10.018  26.054   9.664
    5AU     LIG 2340  10.055  26.011  10.161
    5AU     LIG 2341  10.158  26.069  10.639
    5AU     LIG 2342  10.395  25.924  11.036
    5AU       S 2343   9.017  26.885   8.653
    5AU     LIG 2344   8.885  26.822   9.118
    5AU     LIG 2345   8.742  26.712   9.557
    5AU     LIG 2346   8.578  26.705  10.008
    5AU     LIG 2347   8.490  26.958  10.419
    5AU     LIG 2348   8.513  27.240  10.829
    5AU     LIG 2349   8.383  27.493  11.234
    5AU    AUSL 2350   9.725  27.327   8.298
    5AU    AUSL 2351  10.071  27.192   8.025
    5AU     AUL 2352  10.049  27.054   8.285
    5AU       S 2353   9.750  27.324   8.510
    5AU     LIG 2354   9.773  27.476   8.959
    5AU     LIG 2355   9.857  27.680   9.406
    5AU     LIG 2356   9.953  27.804   9.879
    5AU     LIG 2357   9.950  27.998  10.323
    5AU     LIG 2358  10.000  27.975  10.800
    5AU     LIG 2359  10.180  27.882  11.225
    5AU       S 2360  10.372  27.389   8.206
    5AU     LIG 2361  10.697  27.540   8.507
    5AU     LIG 2362  10.961  27.643   8.878
    5AU     LIG 2363  11.210  27.728   9.260
    5AU     LIG 2364  11.591  27.716   9.532
    5AU     LIG 2365  11.958  27.944   9.672
    5AU     LIG 2366  12.118  28.359   9.851
    5AU    AUSL 2367   9.908  27.040   6.895
    5AU    AUSL 2368   9.676  27.431   6.855
    5AU     AUL 2369   9.669  27.382   6.580
    5AU       S 2370   9.978  27.067   6.463
    5AU     LIG 2371  10.270  26.871   6.201
    5AU     LIG 2372  10.387  26.629   5.838
    5AU     LIG 2373  10.502  26.590   5.381
    5AU     LIG 2374  10.912  26.564   5.100
    5AU     LIG 2375  11.266  26.610   4.761
    5AU     LIG 2376  11.588  26.727   4.424
    5AU       S 2377  10.078  27.600   6.624
    5AU     LIG 2378  10.331  27.832   6.322
    5AU     LIG 2379  10.594  28.036   5.990
    5AU     LIG 2380  10.855  28.189   5.645
    5AU     LIG 2381  10.825  28.446   5.264
    5AU     LIG 2382  11.012  28.729   4.944
    5AU     LIG 2383  11.267  29.026   4.705
    5AU    AUSL 2384   9.682  26.725   6.702
    5AU    AUSL 2385  10.019  26.649   6.991
    5AU     AUL 2386  10.160  26.832   6.807
    5AU       S 2387  10.041  26.380   6.735
    5AU     LIG 2388  10.225  26.058   6.423
    5AU     LIG 2389  10.467  25.667   6.279
    5AU     LIG 2390  10.724  25.388   5.978
    5AU     LIG 2391  11.069  25.334   5.641
    5AU     LIG 2392  11.463  25.345   5.348
    5AU     LIG 2393  11.778  25.345   4.973
    5AU       S 2394   9.848  26.787   6.464
    5AU     LIG 2395   9.934  26.449   6.212
    5AU     LIG 2396   9.975  26.333   5.756
    5AU     LIG 2397  10.098  26.239   5.296
    5AU     LIG 2398  10.124  26.034   4.847
    5AU     LIG 2399  10.140  25.992   4.362
    5AU     LIG 2400  10.263  25.999   3.884
    5AU    AUSL 2401   9.496  27.062   6.880
    5AU    AUSL 2402   9.260  26.797   6.660
    5AU     AUL 2403   9.453  26.567   6.572
    5AU       S 2404   9.232  26.904   6.338
    5AU     LIG 2405   9.168  26.574   6.052
    5AU     LIG 2406   8.879  26.381   5.726
    5AU     LIG 2407   8.682  26.306   5.296
    5AU     LIG 2408   8.525  26.063   4.909
    5AU     LIG 2409   8.376  26.016   4.456
    5AU     LIG 2410   8.289  26.098   4.001
    5AU       S 2411   9.702  26.945   6.481
    5AU     LIG 2412   9.752  26.905   5.993
    5AU     LIG 2413   9.994  26.830   5.576
    5AU     LIG 2414  10.129  26.894   5.117
    5AU     LIG 2415  10.092  27.061   4.655
    5AU     LIG 2416  10.189  27.367   4.299
    5AU     LIG 2417  10.130  27.539   3.849
    5AU    AUSL 2418   8.955  27.057   8.222
    5AU    AUSL 2419   9.106  27.469   8.151
    5AU     AUL 2420   9.147  27.375   8.435
    5AU       S 2421   8.877  27.070   8.671
    5AU     LIG 2422   8.531  26.765   8.722
    5AU     LIG 2423   8.408  26.585   9.142
    5AU     LIG 2424   8.257  26.543   9.603
    5AU     LIG 2425   8.066  26.613  10.036
    5AU     LIG 2426   7.725  26.704  10.351
    5AU     LIG 2427   7.437  26.635  10.711
    5AU       S 2428   8.694  27.440   8.374
    5AU     LIG 2429   8.698  27.557   8.807
    5AU     LIG 2430   8.670  27.944   9.081
    5AU     LIG 2431   8.483  28.285   9.357
    5AU     LIG 2432   8.344  28.479   9.780
    5AU     LIG 2433   8.129  28.671  10.175
    5AU     LIG 2434   7.899  28.982  10.464
    5AU    AUSL 2435   9.264  26.858   8.024
    5AU    AUSL 2436   8.707  26.798   8.009
    5AU     AUL 2437   8.762  26.922   8.251
    5AU       S 2438   8.544  26.506   8.250
    5AU     LIG 2439   8.125  26.358   8.068
    5AU     LIG 2440   7.795  26.048   8.206
    5AU     LIG 2441   7.612  25.789   8.554
    5AU     LIG 2442   7.412  25.504   8.863
    5AU     LIG 2443   7.083  25.384   9.180
    5AU     LIG 2444   6.755  25.442   9.521
    5AU       S 2445   9.056  26.781   8.607
    5AU     LIG 2446   8.871  26.400   8.837
    5AU     LIG 2447   8.776  26.265   9.296
    5AU     LIG 2448   8.640  26.229   9.767
    5AU     LIG 2449   8.464  26.100  10.203
    5AU     LIG 2450   8.246  26.055  10.636
    5AU     LIG 2451   8.235  26.129  11.112
    5AU    AUSL 2452   9.003  26.947   6.958
    5AU    AUSL 2453   9.149  26.523   6.947
    5AU     AUL 2454   8.965  26.635   6.645
    5AU       S 2455   8.976  26.987   6.324
    5AU     LIG 2456   8.711  26.813   5.987
    5AU     LIG 2457   8.470  26.680   5.589
    5AU     LIG 2458   8.199  26.529   5.217
    5AU     LIG 2459   7.777  26.521   4.961
    5AU     LIG 2460   7.405  26.487   4.644
    5AU     LIG 2461   7.183  26.628   4.233
    5AU       S 2462   8.690  26.236   6.803
    5AU     LIG 2463   8.494  25.827   6.830
    5AU     LIG 2464   8.215  25.551   6.585
    5AU     LIG 2465   7.920  25.388   6.254
    5AU     LIG 2466   7.776  25.181   5.840
    5AU     LIG 2467   7.814  25.056   5.364
    5AU     LIG 2468   7.749  24.788   4.972
    5AU    AUSL 2469   9.180  27.238   6.675
    5AU    AUSL 2470   8.775  27.297   6.952
    5AU     AUL 2471   8.781  27.068   6.726
    5AU       S 2472   8.765  27.534   6.743
    5AU     LIG 2473   8.476  27.668   6.394
    5AU     LIG 2474   8.297  27.816   5.968
    5AU     LIG 2475   7.996  27.907   5.595
    5AU     LIG 2476   7.546  27.969   5.411
    5AU     LIG 2477   7.200  28.231   5.207
    5AU     LIG 2478   6.999  28.580   4.944
    5AU       S 2479   9.221  27.135   6.468
    5AU     LIG 2480   9.198  27.100   5.900
    5AU     LIG 2481   8.967  26.858   5.542
    5AU     LIG 2482   8.758  26.799   5.112
    5AU     LIG 2483   8.810  26.974   4.653
    5AU     LIG 2484   8.846  27.259   4.256
    5AU     LIG 2485   8.721  27.489   3.859
    5AU    AUSL 2486  10.093  27.518   7.454
    5AU    AUSL 2487  10.051  27.397   7.044
    5AU     AUL 2488  10.127  27.786   7.234
    5AU       S 2489  10.243  27.358   6.807
    5AU     LIG 2490  10.458  27.326   6.427
    5AU     LIG 2491  10.736  27.552   6.142
    5AU     LIG 2492  11.065  27.805   5.940
    5AU     LIG 2493  11.287  27.899   5.532
    5AU     LIG 2494  11.678  27.969   5.274
    5AU     LIG 2495  12.010  28.243   5.080
    5AU       S 2496  10.475  27.497   7.358
    5AU     LIG 2497  10.812  27.687   7.561
    5AU     LIG 2498  11.270  27.692   7.525
    5AU     LIG 2499  11.735  27.696   7.488
    5AU     LIG 2500  12.179  27.859   7.468
    5AU     LIG 2501  12.437  28.272   7.480
    5AU     LIG 2502  12.658  28.708   7.466
    5AU    AUSL 2503  10.208  27.095   7.270
    5AU    AUSL 2504  10.269  26.868   7.641
    5AU     AUL 2505  10.429  26.830   7.268
    5AU       S 2506  10.483  27.292   7.254
    5AU     LIG 2507  10.959  27.372   7.172
    5AU     LIG 2508  11.447  27.311   7.227
    5AU     LIG 2509  11.942  27.314   7.216
    5AU     LIG 2510  12.417  27.428   7.287
    5AU     LIG 2511  12.792  27.693   7.135
    5AU     LIG 2512  13.189  27.828   6.939
    5AU       S 2513  10.606  26.561   7.611
    5AU     LIG 2514  10.873  26.234   7.832
    5AU     LIG 2515  11.294  25.980   7.808
    5AU     LIG 2516  11.736  25.776   7.747
    5AU     LIG 2517  12.179  25.576   7.768
    5AU     LIG 2518  12.645  25.613   7.883
    5AU     LIG 2519  12.967  25.546   8.234
    5AU    AUSL 2520   9.969  27.152   7.629
    5AU    AUSL 2521   9.937  27.554   7.840
    5AU     AUL 2522  10.244  27.372   7.752
    5AU       S 2523  10.213  27.647   8.117
    5AU     LIG 2524  10.410  27.947   8.406
    5AU     LIG 2525  10.808  28.073   8.626
    5AU     LIG 2526  11.070  28.415   8.821
    5AU     LIG 2527  11.309  28.832   8.779
    5AU     LIG 2528  11.640  29.088   8.991
    5AU     LIG 2529  11.638  29.555   9.075
    5AU       S 2530  10.593  27.212   7.518
    5AU     LIG 2531  11.055  27.232   7.659
    5AU     LIG 2532  11.534  27.282   7.735
    5AU     LIG 2533  12.023  27.324   7.721
    5AU     LIG 2534  12.494  27.234   7.770
    5AU     LIG 2535  12.899  27.257   8.032
    5AU     LIG 2536  13.185  27.601   8.140
    5AU    AUSL 2537   8.746  27.567   7.582
    5AU    AUSL 2538   8.787  27.302   7.930
    5AU     AUL 2539   8.754  27.746   7.857
    5AU       S 2540   8.586  27.372   8.119
    5AU     LIG 2541   8.244  27.589   8.453
    5AU     LIG 2542   8.223  27.824   8.858
    5AU     LIG 2543   8.075  27.966   9.282
    5AU     LIG 2544   7.712  28.046   9.591
    5AU     LIG 2545   7.322  28.245   9.785
    5AU     LIG 2546   6.874  28.398   9.859
    5AU       S 2547   8.387  27.605   7.626
    5AU     LIG 2548   8.175  28.023   7.538
    5AU     LIG 2549   7.868  28.410   7.525
    5AU     LIG 2550   7.485  28.728   7.546
    5AU     LIG 2551   7.078  29.013   7.587
    5AU     LIG 2552   6.661  29.208   7.749
    5AU     LIG 2553   6.281  29.491   7.638
    5AU    AUSL 2554   8.824  27.225   7.354
    5AU    AUSL 2555   8.923  27.638   7.204
    5AU     AUL 2556   8.647  27.564   7.216
    5AU       S 2557   8.262  27.512   7.486
    5AU     LIG 2558   7.946  27.462   7.166
    5AU     LIG 2559   7.515  27.547   6.962
    5AU     LIG 2560   7.127  27.753   6.758
    5AU     LIG 2561   6.697  27.817   6.550
    5AU     LIG 2562   6.259  27.934   6.503
    5AU     LIG 2563   5.936  28.128   6.776
    5AU       S 2564   8.745  27.817   6.825
    5AU     LIG 2565   8.696  28.141   6.481
    5AU     LIG 2566   8.698  28.556   6.228
    5AU     LIG 2567   8.513  28.966   6.061
    5AU     LIG 2568   8.146  29.216   5.881
    5AU     LIG 2569   7.753  29.488   5.981
    5AU     LIG 2570   7.317  29.664   6.081
    5AU    AUSL 2571   8.530  27.151   7.653
    5AU    AUSL 2572   8.577  26.898   7.300
    5AU     AUL 2573   8.430  27.159   7.254
    5AU       S 2574   8.227  26.707   7.432
    5AU     LIG 2575   7.807  26.691   7.703
    5AU     LIG 2576   7.315  26.765   7.772
    5AU     LIG 2577   6.839  26.886   7.675
    5AU     LIG 2578   6.378  26.765   7.538
    5AU     LIG 2579   5.987  26.465   7.484
    5AU     LIG 2580   5.690  26.137   7.299
    5AU       S 2581   8.346  27.217   7.725
    5AU     LIG 2582   8.065  27.476   7.989
    5AU     LIG 2583   7.739  27.697   8.267
    5AU     LIG 2584   7.299  27.878   8.380
    5AU     LIG 2585   6.824  27.966   8.352
    5AU     LIG 2586   6.368  28.023   8.240
    5AU     LIG 2587   5.924  28.065   8.052
    5AU    AUSL 2588  10.094  26.464   7.589
    5AU    AUSL 2589  10.033  26.718   7.946
    5AU     AUL 2590  10.321  26.719   7.939
    5AU       S 2591  10.312  26.333   7.629
    5AU     LIG 2592  10.463  25.936   7.758
    5AU     LIG 2593  10.875  25.710   7.661
    5AU     LIG 2594  11.322  25.505   7.572
    5AU     LIG 2595  11.787  25.318   7.497
    5AU     LIG 2596  12.251  25.215   7.402
    5AU     LIG 2597  12.472  24.789   7.393
    5AU       S 2598  10.034  26.362   8.032
    5AU     LIG 2599  10.436  26.178   8.222
    5AU     LIG 2600  10.504  25.826   8.532
    5AU     LIG 2601  10.715  25.467   8.777
    5AU     LIG 2602  11.046  25.315   9.095
    5AU     LIG 2603  11.435  25.289   9.389
    5AU     LIG 2604  11.775  25.323   9.726
    5AU    AUSL 2605   9.949  26.790   7.370
    5AU    AUSL 2606   9.860  26.345   7.257
    5AU     AUL 2607  10.150  26.457   7.200
    5AU       S 2608  10.414  26.432   7.564
    5AU     LIG 2609  10.730  26.132   7.352
    5AU     LIG 2610  11.176  25.945   7.304
    5AU     LIG 2611  11.621  25.770   7.245
    5AU     LIG 2612  12.090  25.692   7.268
    5AU     LIG 2613  12.540  25.742   7.109
    5AU     LIG 2614  12.935  26.003   6.973
    5AU       S 2615  10.001  26.139   6.886
    5AU     LIG 2616  10.019  25.695   6.741
    5AU     LIG 2617  10.205  25.305   6.534
    5AU     LIG 2618  10.551  25.038   6.333
    5AU     LIG 2619  10.865  24.653   6.315
    5AU     LIG 2620  11.183  24.290   6.215
    5AU     LIG 2621  11.460  24.092   5.884
    5AU    AUSL 2622   8.669  26.516   7.486
    5AU    AUSL 2623   8.761  26.623   7.058
    5AU     AUL 2624   8.495  26.722   7.038
    5AU       S 2625   8.666  26.294   7.049
    5AU     LIG 2626   8.200  26.248   6.975
    5AU     LIG 2627   7.921  25.970   6.697
    5AU     LIG 2628   7.594  25.773   6.401
    5AU     LIG 2629   7.182  25.627   6.206
    5AU     LIG 2630   6.917  25.443   5.864
    5AU     LIG 2631   6.895  25.046   5.605
    5AU       S 2632   8.360  26.490   7.415
    5AU     LIG 2633   7.991  26.241   7.540
    5AU     LIG 2634   7.498  26.271   7.595
    5AU     LIG 2635   7.059  26.038   7.660
    5AU     LIG 2636   6.611  25.810   7.586
    5AU     LIG 2637   6.260  25.465   7.599
    5AU     LIG 2638   5.910  25.269   7.837
    5AU    AUSL 2639   8.846  26.884   7.637
    5AU    AUSL 2640   8.931  26.491   7.817
    5AU     AUL 2641   8.554  26.644   7.803
    5AU       S 2642   8.639  26.309   8.110
    5AU     LIG 2643   8.457  26.108   7.778
    5AU     LIG 2644   8.108  25.794   7.887
    5AU     LIG 2645   7.835  25.495   8.196
    5AU     LIG 2646   7.542  25.182   8.469
    5AU     LIG 2647   7.278  24.779   8.620
    5AU     LIG 2648   6.986  24.361   8.581
    5AU       S 2649   8.277  26.787   7.476
    5AU     LIG 2650   7.847  26.959   7.270
    5AU     LIG 2651   7.437  26.725   7.278
    5AU     LIG 2652   7.040  26.494   7.412
    5AU     LIG 2653   6.631  26.330   7.610
    5AU     LIG 2654   6.237  26.150   7.809
    5AU     LIG 2655   5.872  25.831   7.817
    5AU    AUSL 2656   9.443  27.685   8.031
    5AU    AUSL 2657   9.119  27.467   7.734
    5AU     AUL 2658   9.156  27.760   8.119
    5AU       S 2659   8.760  27.597   8.286
    5AU     LIG 2660   8.595  27.976   8.527
    5AU     LIG 2661   8.455  28.344   8.823
    5AU     LIG 2662   8.451  28.833   8.940
    5AU     LIG 2663   8.317  29.315   8.976
    5AU     LIG 2664   7.972  29.663   8.993
    5AU     LIG 2665   7.548  29.863   9.123
    5AU       S 2666   9.496  28.089   7.990
    5AU     LIG 2667   9.628  28.285   8.358
    5AU     LIG 2668   9.633  28.720   8.525
    5AU     LIG 2669   9.509  29.077   8.825
    5AU     LIG 2670   9.536  29.310   9.247
    5AU     LIG 2671   9.520  29.664   9.580
    5AU     LIG 2672   9.691  30.022   9.850
    5AU    AUSL 2673   9.195  27.865   7.672
    5AU    AUSL 2674   9.655  27.829   7.248
    5AU     AUL 2675   9.327  28.089   7.434
    5AU       S 2676   9.328  28.153   7.890
    5AU     LIG 2677   9.389  28.621   8.033
    5AU     LIG 2678   9.499  29.068   8.162
    5AU     LIG 2679   9.381  29.532   8.175
    5AU     LIG 2680   9.364  29.939   8.437
    5AU     LIG 2681   9.329  30.389   8.573
    5AU     LIG 2682   9.082  30.767   8.412
    5AU       S 2683   9.717  28.128   7.159
    5AU     LIG 2684   9.972  28.455   6.969
    5AU     LIG 2685   9.946  28.902   6.813
    5AU     LIG 2686  10.192  29.296   6.705
    5AU     LIG 2687  10.541  29.625   6.619
    5AU     LIG 2688  10.586  30.093   6.496
    5AU     LIG 2689  10.676  30.547   6.430
    5AU    AUSL 2690   9.611  27.716   7.648
    5AU    AUSL 2691   9.595  27.321   7.912
    5AU     AUL 2692   9.755  27.717   8.051
    5AU       S 2693  10.140  27.508   8.249
    5AU     LIG 2694  10.207  27.554   8.680
    5AU     LIG 2695  10.481  27.827   8.939
    5AU     LIG 2696  10.825  28.078   9.166
    5AU     LIG 2697  10.954  28.304   9.580
    5AU     LIG 2698  10.960  28.630   9.949
    5AU     LIG 2699  10.950  29.071  10.144
    5AU       S 2700   9.689  28.031   7.718
    5AU     LIG 2701   9.863  28.442   7.924
    5AU     LIG 2702   9.994  28.858   8.157
    5AU     LIG 2703  10.326  29.225   8.271
    5AU     LIG 2704  10.493  29.681   8.363
    5AU     LIG 2705  10.415  30.157   8.384
    5AU     LIG 2706  10.134  30.558   8.408
    5AU    AUSL 2707   9.357  26.418   7.950
    5AU    AUSL 2708   9.712  26.546   7.726
    5AU     AUL 2709   9.547  26.301   8.193
    5AU       S 2710   9.410  25.883   8.058
    5AU     LIG 2711   9.409  25.449   8.231
    5AU     LIG 2712   9.082  25.123   8.271
    5AU     LIG 2713   8.936  24.751   8.491
    5AU     LIG 2714   9.044  24.348   8.662
    5AU     LIG 2715   9.104  24.022   8.982
    5AU     LIG 2716   9.095  23.747   9.363
    5AU       S 2717  10.004  26.150   7.937
    5AU     LIG 2718  10.154  25.735   8.143
    5AU     LIG 2719  10.353  25.348   8.400
    5AU     LIG 2720  10.579  24.962   8.625
    5AU     LIG 2721  10.822  24.500   8.629
    5AU     LIG 2722  11.201  24.160   8.669
    5AU     LIG 2723  11.676  24.027   8.653
    5AU    AUSL 2724   9.166  26.189   7.658
    5AU    AUSL 2725   9.062  26.558   8.215
    5AU     AUL 2726   9.080  26.218   8.022
    5AU       S 2727   9.229  25.797   7.922
    5AU     LIG 2728   9.040  25.473   7.675
    5AU     LIG 2729   8.821  25.089   7.796
    5AU     LIG 2730   8.746  24.690   8.019
    5AU     LIG 2731   8.814  24.260   8.205
    5AU     LIG 2732   8.641  23.806   8.286
    5AU     LIG 2733   8.490  23.339   8.332
    5AU       S 2734   8.812  26.445   8.322
    5AU     LIG 2735   8.501  26.121   8.558
    5AU     LIG 2736   8.151  25.789   8.500
    5AU     LIG 2737   7.930  25.417   8.716
    5AU     LIG 2738   7.699  25.088   8.979
    5AU     LIG 2739   7.682  24.840   9.388
    5AU     LIG 2740   7.762  24.606   9.797
    5AU    AUSL 2741   9.610  26.147   7.710
    5AU    AUSL 2742   9.126  26.180   7.240
    5AU     AUL 2743   9.308  25.945   7.498
    5AU       S 2744   9.057  25.850   7.096
    5AU     LIG 2745   8.758  25.576   7.227
    5AU     LIG 2746   8.775  25.114   7.218
    5AU     LIG 2747   8.778  24.683   7.000
    5AU     LIG 2748   8.799  24.241   6.768
    5AU     LIG 2749   8.791  23.739   6.700
    5AU     LIG 2750   8.556  23.327   6.536
    5AU       S 2751   9.556  25.951   7.878
    5AU     LIG 2752   9.556  25.479   7.730
    5AU     LIG 2753   9.341  25.053   7.837
    5AU     LIG 2754   9.253  24.634   8.096
    5AU     LIG 2755   9.341  24.183   8.268
    5AU     LIG 2756   9.634  23.811   8.405
    5AU     LIG 2757   9.893  23.428   8.556
    5AU    AUSL 2758   9.360  27.682   6.946
    5AU    AUSL 2759   9.719  27.423   7.291
    5AU     AUL 2760   9.731  27.717   6.942
    5AU       S 2761   9.421  28.037   6.807
    5AU     LIG 2762   9.735  28.252   6.559
    5AU     LIG 2763   9.746  28.698   6.386
    5AU     LIG 2764   9.662  29.100   6.118
    5AU     LIG 2765   9.754  29.341   5.680
    5AU     LIG 2766   9.808  29.634   5.277
    5AU     LIG 2767   9.753  30.058   5.035
    5AU       S 2768  10.142  27.459   6.912
    5AU     LIG 2769  10.553  27.736   6.790
    5AU     LIG 2770  10.827  27.965   6.447
    5AU     LIG 2771  11.065  28.279   6.154
    5AU     LIG 2772  11.438  28.587   6.132
    5AU     LIG 2773  11.599  29.048   6.114
    5AU     LIG 2774  11.665  29.523   6.041
    5AU    AUSL 2775   9.307  27.618   7.361
    5AU    AUSL 2776   9.185  27.334   7.072
    5AU     AUL 2777   9.122  27.823   7.102
    5AU       S 2778   9.513  28.121   7.027
    5AU     LIG 2779   9.482  28.572   6.874
    5AU     LIG 2780   9.435  28.997   6.680
    5AU     LIG 2781   9.660  29.377   6.589
    5AU     LIG 2782   9.510  29.819   6.625
    5AU     LIG 2783   9.428  30.284   6.604
    5AU     LIG 2784   9.248  30.712   6.480
    5AU       S 2785   8.971  27.648   6.687
    5AU     LIG 2786   8.954  27.767   6.243
    5AU     LIG 2787   8.736  28.088   5.946
    5AU     LIG 2788   8.538  28.251   5.521
    5AU     LIG 2789   8.461  28.490   5.084
    5AU     LIG 2790   8.280  28.850   4.801
    5AU     LIG 2791   8.056  29.275   4.775
    5AU    AUSL 2792   9.479  26.273   6.978
    5AU    AUSL 2793   9.058  26.567   7.358
    5AU     AUL 2794   9.122  26.277   6.936
    5AU       S 2795   8.677  26.168   7.181
    5AU     LIG 2796   8.353  25.909   7.322
    5AU     LIG 2797   8.055  25.659   7.086
    5AU     LIG 2798   7.749  25.460   6.779
    5AU     LIG 2799   7.464  25.257   6.456
    5AU     LIG 2800   7.274  24.899   6.215
    5AU     LIG 2801   7.126  24.446   6.154
    5AU       S 2802   9.388  25.910   6.886
    5AU     LIG 2803   9.265  25.514   6.688
    5AU     LIG 2804   9.013  25.129   6.735
    5AU     LIG 2805   8.986  24.703   6.535
    5AU     LIG 2806   8.995  24.313   6.278
    5AU     LIG 2807   8.952  24.175   5.817
    5AU     LIG 2808   8.988  23.955   5.402
    5AU    AUSL 2809   9.468  26.369   7.394
    5AU    AUSL 2810   9.596  26.648   7.094
    5AU     AUL 2811   9.659  26.131   7.198
    5AU       S 2812   9.296  25.849   7.062
    5AU     LIG 2813   9.246  25.381   7.195
    5AU     LIG 2814   9.243  24.899   7.132
    5AU     LIG 2815   9.247  24.463   6.911
    5AU     LIG 2816   9.271  24.002   6.744
    5AU     LIG 2817   9.569  23.603   6.718
    5AU     LIG 2818  10.047  23.422   6.711
    5AU       S 2819   9.854  26.293   6.731
    5AU     LIG 2820   9.711  25.991   6.452
    5AU     LIG 2821   9.944  25.643   6.220
    5AU     LIG 2822  10.208  25.308   6.003
    5AU     LIG 2823  10.395  25.122   5.609
    5AU     LIG 2824  10.419  24.927   5.169
    5AU     LIG 2825  10.586  24.577   4.898
    6AU     AUC 2826  37.051   1.597   7.502
    6AU     AUC 2827  37.309   1.593   7.339
    6AU     AUC 2828  37.305   1.580   7.649
    6AU     AUC 2829  36.806   1.602   7.339
    6AU     AUC 2830  36.787   1.622   7.646
    6AU     AUC 2831  36.910   1.860   7.503
    6AU     AUC 2832  37.210   1.849   7.479
    6AU     AUC 2833  36.891   1.345   7.513
    6AU     AUC 2834  37.189   1.338   7.526
    6AU     AUC 2835  37.038   1.448   7.765
    6AU     AUC 2836  37.076   1.764   7.753
    6AU     AUC 2837  37.052   1.430   7.246
    6AU     AUC 2838  37.045   1.737   7.237
    6AU     AUC 2839  37.563   1.586   7.182
    6AU     AUC 2840  37.571   1.585   7.486
    6AU     AUC 2841  37.561   1.576   7.805
    6AU     AUC 2842  36.547   1.596   7.182
    6AU     AUC 2843  36.532   1.627   7.484
    6AU     AUC 2844  36.540   1.647   7.807
    6AU     AUC 2845  36.775   2.133   7.503
    6AU     AUC 2846  37.081   2.124   7.494
    6AU     AUC 2847  37.383   2.109   7.487
    6AU     AUC 2848  36.700   1.097   7.525
    6AU     AUC 2849  37.020   1.072   7.512
    6AU     AUC 2850  37.336   1.070   7.535
    6AU     AUC 2851  37.016   1.295   8.015
    6AU     AUC 2852  37.052   1.606   8.031
    6AU     AUC 2853  37.080   1.918   8.021
    6AU     AUC 2854  37.051   1.250   7.012
    6AU     AUC 2855  37.062   1.570   6.977
    6AU     AUC 2856  37.047   1.886   6.971
    6AU     AUC 2857  37.318   1.444   7.928
    6AU     AUC 2858  37.318   1.739   7.928
    6AU     AUC 2859  37.321   1.418   7.084
    6AU     AUC 2860  37.320   1.731   7.067
    6AU     AUC 2861  36.776   1.475   7.929
    6AU     AUC 2862  36.802   1.784   7.928
    6AU     AUC 2863  36.802   1.428   7.072
    6AU     AUC 2864  36.796   1.744   7.073
    6AU     AUC 2865  37.472   1.856   7.319
    6AU     AUC 2866  37.474   1.831   7.647
    6AU     AUC 2867  36.643   1.868   7.344
    6AU     AUC 2868  36.650   1.892   7.664
    6AU     AUC 2869  37.461   1.326   7.356
    6AU     AUC 2870  37.460   1.321   7.671
    6AU     AUC 2871  36.622   1.349   7.343
    6AU     AUC 2872  36.622   1.371   7.679
    6AU     AUC 2873  36.914   2.023   7.771
    6AU     AUC 2874  37.237   2.021   7.742
    6AU     AUC 2875  36.863   1.183   7.766
    6AU     AUC 2876  37.185   1.180   7.788
    6AU     AUC 2877  36.904   2.016   7.234
    6AU     AUC 2878  37.222   1.997   7.220
    6AU     AUC 2879  36.871   1.185   7.250
    6AU     AUC 2880  37.201   1.162   7.269
    6AU    AUSL 2881  37.388   1.544   8.108
    6AU    AUSL 2882  37.359   1.110   8.138
    6AU     AUL 2883  37.590   1.194   8.395
    6AU       S 2884  37.613   0.833   8.050
    6AU     LIG 2885  37.551   0.679   8.458
    6AU     LIG 2886  37.601   0.270   8.647
    6AU     LIG 2887  37.843  44.956   8.899
    6AU     LIG 2888  38.137  44.657   9.128
    6AU     LIG 2889  38.186  44.292   9.429
    6AU     LIG 2890  38.249  44.176   9.891
    6AU       S 2891  37.453   1.545   8.662
    6AU     LIG 2892  37.768   1.308   8.889
    6AU     LIG 2893  37.970   1.163   9.292
    6AU     LIG 2894  38.262   1.143   9.670
    6AU     LIG 2895  38.553   1.272  10.019
    6AU     LIG 2896  38.843   1.341  10.380
    6AU     LIG 2897  39.064   1.438  10.779
    6AU    AUSL 2898  37.107   1.367   8.369
    6AU    AUSL 2899  36.997   1.775   8.297
    6AU     AUL 2900  37.048   1.733   8.712
    6AU       S 2901  37.186   1.361   8.512
    6AU     LIG 2902  37.332   1.035   8.810
    6AU     LIG 2903  37.517   0.896   9.247
    6AU     LIG 2904  37.554   0.705   9.712
    6AU     LIG 2905  37.549   0.531  10.180
    6AU     LIG 2906  37.683   0.499  10.647
    6AU     LIG 2907  37.922   0.715  11.012
    6AU       S 2908  36.671   1.499   8.646
    6AU     LIG 2909  36.538   1.408   9.102
    6AU     LIG 2910  36.354   1.334   9.520
    6AU     LIG 2911  36.199   1.325   9.964
    6AU     LIG 2912  36.195   1.640  10.325
    6AU     LIG 2913  36.078   1.963  10.655
    6AU     LIG 2914  35.968   2.122  11.088
    6AU    AUSL 2915  37.381   1.920   8.293
    6AU    AUSL 2916  37.727   1.783   8.015
    6AU     AUL 2917  37.682   1.637   8.288
    6AU       S 2918  37.404   1.935   8.501
    6AU     LIG 2919  37.566   1.964   8.944
    6AU     LIG 2920  37.793   2.175   9.321
    6AU     LIG 2921  37.880   2.409   9.734
    6AU     LIG 2922  37.914   2.536  10.188
    6AU     LIG 2923  37.801   2.592  10.650
    6AU     LIG 2924  37.877   2.410  11.093
    6AU       S 2925  38.049   1.865   8.112
    6AU     LIG 2926  38.207   1.873   8.518
    6AU     LIG 2927  38.453   2.171   8.769
    6AU     LIG 2928  38.657   2.473   9.069
    6AU     LIG 2929  38.914   2.542   9.470
    6AU     LIG 2930  39.341   2.610   9.703
    6AU     LIG 2931  39.703   2.688  10.015
    6AU    AUSL 2932  37.593   1.611   6.884
    6AU    AUSL 2933  37.337   2.017   6.802
    6AU     AUL 2934  37.686   1.930   6.433
    6AU       S 2935  37.632   1.635   6.732
    6AU     LIG 2936  37.921   1.524   6.337
    6AU     LIG 2937  37.976   1.350   5.920
    6AU     LIG 2938  38.123   1.269   5.470
    6AU     LIG 2939  38.453   1.163   5.134
    6AU     LIG 2940  38.826   1.136   4.819
    6AU     LIG 2941  39.073   1.253   4.418
    6AU       S 2942  37.340   2.097   6.637
    6AU     LIG 2943  37.699   2.414   6.441
    6AU     LIG 2944  38.020   2.525   6.082
    6AU     LIG 2945  38.290   2.485   5.664
    6AU     LIG 2946  38.480   2.689   5.247
    6AU     LIG 2947  38.638   3.109   5.048
    6AU     LIG 2948  38.755   3.468   4.751
    6AU    AUSL 2949  37.329   1.299   6.703
    6AU    AUSL 2950  37.663   1.215   6.995
    6AU     AUL 2951  37.764   1.228   6.687
    6AU       S 2952  37.612   0.815   6.822
    6AU     LIG 2953  37.855   0.601   6.468
    6AU     LIG 2954  38.106   0.222   6.321
    6AU     LIG 2955  38.364  44.965   6.012
    6AU     LIG 2956  38.741  44.936   5.725
    6AU     LIG 2957  39.170  44.899   5.527
    6AU     LIG 2958  39.596  44.869   5.340
    6AU       S 2959  37.433   1.501   6.461
    6AU     LIG 2960  37.552   1.132   6.237
    6AU     LIG 2961  37.638   0.983   5.800
    6AU     LIG 2962  37.712   0.979   5.332
    6AU     LIG 2963  37.720   0.910   4.860
    6AU     LIG 2964  37.798   0.679   4.443
    6AU     LIG 2965  37.944   0.648   3.994
    6AU    AUSL 2966  37.173   1.653   6.881
    6AU    AUSL 2967  36.918   1.400   6.658
    6AU     AUL 2968  37.121   1.177   6.567
    6AU       S 2969  36.883   1.500   6.328
    6AU     LIG 2970  36.834   1.181   6.026
    6AU     LIG 2971  36.561   0.964   5.705
    6AU     LIG 2972  36.317   0.786   5.328
    6AU     LIG 2973  36.268   0.531   4.918
    6AU     LIG 2974  36.220   0.462   4.449
    6AU     LIG 2975  36.219   0.506   3.978
    6AU       S 2976  37.318   1.624   6.518
    6AU     LIG 2977  37.474   1.601   5.997
    6AU     LIG 2978  37.626   1.452   5.558
    6AU     LIG 2979  37.758   1.443   5.094
    6AU     LIG 2980  37.696   1.662   4.661
    6AU     LIG 2981  37.854   1.831   4.240
    6AU     LIG 2982  37.784   1.931   3.773
    6AU    AUSL 2983  36.603   1.667   8.214
    6AU    AUSL 2984  36.756   2.078   8.139
    6AU     AUL 2985  36.786   1.973   8.425
    6AU       S 2986  36.513   1.675   8.667
    6AU     LIG 2987  36.194   1.329   8.715
    6AU     LIG 2988  36.047   1.154   9.133
    6AU     LIG 2989  35.876   1.130   9.594
    6AU     LIG 2990  35.635   1.024  10.002
    6AU     LIG 2991  35.344   0.984  10.391
    6AU     LIG 2992  35.079   1.259  10.676
    6AU       S 2993  36.337   2.053   8.357
    6AU     LIG 2994  36.326   2.165   8.797
    6AU     LIG 2995  36.249   2.488   9.145
    6AU     LIG 2996  36.092   2.730   9.530
    6AU     LIG 2997  36.055   2.911   9.986
    6AU     LIG 2998  35.880   3.220  10.311
    6AU     LIG 2999  35.625   3.601  10.450
    6AU    AUSL 3000  36.911   1.464   8.019
    6AU    AUSL 3001  36.357   1.407   8.001
    6AU     AUL 3002  36.411   1.530   8.243
    6AU       S 3003  36.199   1.110   8.232
    6AU     LIG 3004  35.778   0.910   8.162
    6AU     LIG 3005  35.427   0.624   8.268
    6AU     LIG 3006  35.246   0.325   8.576
    6AU     LIG 3007  35.078   0.011   8.877
    6AU     LIG 3008  34.745  44.859   9.185
    6AU     LIG 3009  34.413  44.787   9.530
    6AU       S 3010  36.705   1.393   8.596
    6AU     LIG 3011  36.576   0.997   8.805
    6AU     LIG 3012  36.471   0.891   9.254
    6AU     LIG 3013  36.299   0.853   9.700
    6AU     LIG 3014  36.083   0.785  10.112
    6AU     LIG 3015  35.980   0.612  10.549
    6AU     LIG 3016  35.887   0.672  11.023
    6AU    AUSL 3017  36.661   1.551   6.951
    6AU    AUSL 3018  36.799   1.124   6.940
    6AU     AUL 3019  36.624   1.237   6.638
    6AU       S 3020  36.641   1.586   6.312
    6AU     LIG 3021  36.352   1.366   6.005
    6AU     LIG 3022  36.135   1.225   5.588
    6AU     LIG 3023  35.813   0.967   5.332
    6AU     LIG 3024  35.398   0.974   5.087
    6AU     LIG 3025  35.170   1.090   4.692
    6AU     LIG 3026  34.944   1.291   4.310
    6AU       S 3027  36.339   0.846   6.788
    6AU     LIG 3028  36.104   0.457   6.787
    6AU     LIG 3029  35.812   0.198   6.527
    6AU     LIG 3030  35.556  44.937   6.227
    6AU     LIG 3031  35.333  44.687   5.885
    6AU     LIG 3032  35.397  44.486   5.442
    6AU     LIG 3033  35.363  44.344   4.980
    6AU    AUSL 3034  36.860   1.835   6.667
    6AU    AUSL 3035  36.428   1.897   6.943
    6AU     AUL 3036  36.454   1.679   6.713
    6AU       S 3037  36.378   2.140   6.727
    6AU     LIG 3038  36.097   2.198   6.329
    6AU     LIG 3039  35.909   2.341   5.892
    6AU     LIG 3040  35.607   2.447   5.523
    6AU     LIG 3041  35.277   2.577   5.205
    6AU     LIG 3042  34.881   2.824   5.121
    6AU     LIG 3043  34.421   2.945   5.128
    6AU       S 3044  36.864   1.761   6.455
    6AU     LIG 3045  36.881   1.721   5.903
    6AU     LIG 3046  36.616   1.481   5.577
    6AU     LIG 3047  36.398   1.558   5.157
    6AU     LIG 3048  36.447   1.820   4.743
    6AU     LIG 3049  36.404   2.021   4.306
    6AU     LIG 3050  36.282   2.035   3.839
    6AU    AUSL 3051  37.725   2.125   7.437
    6AU    AUSL 3052  37.697   1.987   7.026
    6AU     AUL 3053  37.806   2.377   7.260
    6AU       S 3054  37.802   2.121   6.836
    6AU     LIG 3055  38.143   2.138   6.518
    6AU     LIG 3056  38.458   2.279   6.191
    6AU     LIG 3057  38.753   2.304   5.817
    6AU     LIG 3058  39.066   2.534   5.556
    6AU     LIG 3059  39.442   2.750   5.367
    6AU     LIG 3060  39.853   2.935   5.215
    6AU       S 3061  38.176   2.090   7.358
    6AU     LIG 3062  38.666   2.059   7.474
    6AU     LIG 3063  39.146   2.117   7.511
    6AU     LIG 3064  39.556   2.366   7.524
    6AU     LIG 3065  39.776   2.821   7.549
    6AU     LIG 3066  40.157   3.112   7.615
    6AU     LIG 3067  40.574   3.253   7.730
    6AU    AUSL 3068  37.864   1.703   7.271
    6AU    AUSL 3069  37.915   1.472   7.641
    6AU     AUL 3070  38.065   1.437   7.230
    6AU       S 3071  38.116   1.892   7.273
    6AU     LIG 3072  38.542   1.644   7.203
    6AU     LIG 3073  39.022   1.695   7.231
    6AU     LIG 3074  39.510   1.828   7.264
    6AU     LIG 3075  40.000   1.817   7.199
    6AU     LIG 3076  40.438   2.041   7.137
    6AU     LIG 3077  40.756   2.401   7.064
    6AU       S 3078  38.265   1.240   7.598
    6AU     LIG 3079  38.536   1.035   7.869
    6AU     LIG 3080  38.856   0.708   7.802
    6AU     LIG 3081  39.283   0.549   7.816
    6AU     LIG 3082  39.739   0.580   7.733
    6AU     LIG 3083  40.172   0.379   7.872
    6AU     LIG 3084  40.622   0.520   7.996
    6AU    AUSL 3085  37.619   1.757   7.621
    6AU    AUSL 3086  37.598   2.151   7.837
    6AU     AUL 3087  37.875   2.027   7.716
    6AU       S 3088  37.881   2.172   8.148
    6AU     LIG 3089  38.255   2.364   8.326
    6AU     LIG 3090  38.410   2.689   8.637
    6AU     LIG 3091  38.605   3.133   8.656
    6AU     LIG 3092  38.965   3.403   8.845
    6AU     LIG 3093  39.366   3.647   8.983
    6AU     LIG 3094  39.640   4.041   8.966
    6AU       S 3095  38.228   1.803   7.553
    6AU     LIG 3096  38.588   1.615   7.744
    6AU     LIG 3097  39.046   1.679   7.759
    6AU     LIG 3098  39.505   1.807   7.779
    6AU     LIG 3099  39.993   1.828   7.878
    6AU     LIG 3100  40.481   1.724   7.928
    6AU     LIG 3101  40.895   1.996   8.024
    6AU    AUSL 3102  36.404   2.178   7.572
    6AU    AUSL 3103  36.441   1.908   7.917
    6AU     AUL 3104  36.415   2.356   7.843
    6AU       S 3105  36.237   1.981   8.104
    6AU     LIG 3106  35.870   2.119   8.452
    6AU     LIG 3107  35.830   2.332   8.884
    6AU     LIG 3108  35.683   2.421   9.349
    6AU     LIG 3109  35.325   2.486   9.691
    6AU     LIG 3110  34.943   2.691   9.935
    6AU     LIG 3111  34.683   3.060  10.120
    6AU       S 3112  36.033   2.206   7.644
    6AU     LIG 3113  35.891   2.647   7.586
    6AU     LIG 3114  35.602   3.042   7.577
    6AU     LIG 3115  35.185   3.284   7.586
    6AU     LIG 3116  34.792   3.474   7.788
    6AU     LIG 3117  34.379   3.731   7.837
    6AU     LIG 3118  33.969   3.984   7.867
    6AU    AUSL 3119  36.479   1.833   7.347
    6AU    AUSL 3120  36.576   2.242   7.189
    6AU     AUL 3121  36.302   2.173   7.213
    6AU       S 3122  35.919   2.126   7.482
    6AU     LIG 3123  35.573   1.937   7.241
    6AU     LIG 3124  35.164   1.920   6.974
    6AU     LIG 3125  34.811   2.221   6.853
    6AU     LIG 3126  34.465   2.472   6.662
    6AU     LIG 3127  34.001   2.465   6.667
    6AU     LIG 3128  33.655   2.494   6.958
    6AU       S 3129  36.416   2.407   6.814
    6AU     LIG 3130  36.259   2.666   6.465
    6AU     LIG 3131  36.065   2.990   6.186
    6AU     LIG 3132  36.029   3.450   6.103
    6AU     LIG 3133  35.783   3.834   6.155
    6AU     LIG 3134  35.419   4.028   5.964
    6AU     LIG 3135  35.100   4.078   5.630
    6AU    AUSL 3136  36.181   1.759   7.641
    6AU    AUSL 3137  36.230   1.509   7.288
    6AU     AUL 3138  36.083   1.770   7.248
    6AU       S 3139  35.877   1.330   7.410
    6AU     LIG 3140  35.508   1.253   7.746
    6AU     LIG 3141  35.001   1.302   7.756
    6AU     LIG 3142  34.544   1.102   7.749
    6AU     LIG 3143  34.184   0.875   7.482
    6AU     LIG 3144  33.768   0.961   7.231
    6AU     LIG 3145  33.311   0.871   7.065
    6AU       S 3146  35.998   1.812   7.719
    6AU     LIG 3147  35.686   2.010   7.977
    6AU     LIG 3148  35.261   2.080   8.187
    6AU     LIG 3149  34.865   2.314   8.280
    6AU     LIG 3150  34.437   2.276   8.450
    6AU     LIG 3151  34.072   2.479   8.291
    6AU     LIG 3152  33.635   2.638   8.327
    6AU    AUSL 3153  37.750   1.071   7.582
    6AU    AUSL 3154  37.686   1.309   7.946
    6AU     AUL 3155  37.972   1.320   7.943
    6AU       S 3156  37.995   0.955   7.633
    6AU     LIG 3157  38.219   0.616   7.803
    6AU     LIG 3158  38.557   0.338   7.619
    6AU     LIG 3159  39.002   0.175   7.570
    6AU     LIG 3160  39.393  44.925   7.446
    6AU     LIG 3161  39.794  44.651   7.492
    6AU     LIG 3162  40.222  44.630   7.701
    6AU       S 3163  37.689   0.956   8.024
    6AU     LIG 3164  38.048   0.776   8.277
    6AU     LIG 3165  38.104   0.402   8.564
    6AU     LIG 3166  38.332   0.034   8.778
    6AU     LIG 3167  38.623  44.876   9.126
    6AU     LIG 3168  39.020  44.893   9.404
    6AU     LIG 3169  39.414  44.764   9.645
    6AU    AUSL 3170  37.601   1.394   7.359
    6AU    AUSL 3171  37.500   0.931   7.275
    6AU     AUL 3172  37.798   1.047   7.208
    6AU       S 3173  38.105   1.064   7.540
    6AU     LIG 3174  38.501   0.822   7.404
    6AU     LIG 3175  38.902   0.594   7.293
    6AU     LIG 3176  39.375   0.436   7.295
    6AU     LIG 3177  39.839   0.512   7.169
    6AU     LIG 3178  40.344   0.488   7.083
    6AU     LIG 3179  40.783   0.304   7.049
    6AU       S 3180  37.680   0.667   6.958
    6AU     LIG 3181  37.641   0.248   6.786
    6AU     LIG 3182  37.840  44.869   6.585
    6AU     LIG 3183  38.183  44.631   6.364
    6AU     LIG 3184  38.439  44.278   6.162
    6AU     LIG 3185  38.739  43.887   6.100
    6AU     LIG 3186  39.084  43.528   6.067
    6AU    AUSL 3187  36.314   1.126   7.476
    6AU    AUSL 3188  36.412   1.232   7.047
    6AU     AUL 3189  36.150   1.340   7.021
    6AU       S 3190  36.312   0.909   7.036
    6AU     LIG 3191  35.856   0.904   6.952
    6AU     LIG 3192  35.575   0.633   6.703
    6AU     LIG 3193  35.317   0.363   6.409
    6AU     LIG 3194  35.056   0.071   6.138
    6AU     LIG 3195  34.686  44.944   5.867
    6AU     LIG 3196  34.299  44.943   5.577
    6AU       S 3197  36.010   1.113   7.399
    6AU     LIG 3198  35.616   0.881   7.415
    6AU     LIG 3199  35.140   0.946   7.408
    6AU     LIG 3200  34.695   0.733   7.424
    6AU     LIG 3201  34.363   0.387   7.563
    6AU     LIG 3202  34.111   0.066   7.838
    6AU     LIG 3203  33.760  44.732   7.810
    6AU    AUSL 3204  36.495   1.492   7.628
    6AU    AUSL 3205  36.574   1.098   7.809
    6AU     AUL 3206  36.197   1.265   7.791
    6AU       S 3207  36.286   0.914   8.080
    6AU     LIG 3208  36.039   0.745   7.754
    6AU     LIG 3209  35.729   0.418   7.900
    6AU     LIG 3210  35.521   0.093   8.209
    6AU     LIG 3211  35.275  44.748   8.465
    6AU     LIG 3212  35.181  44.306   8.665
    6AU     LIG 3213  34.958  43.946   8.884
    6AU       S 3214  35.919   1.396   7.459
    6AU     LIG 3215  35.418   1.452   7.293
    6AU     LIG 3216  34.955   1.436   7.252
    6AU     LIG 3217  34.539   1.240   7.267
    6AU     LIG 3218  34.137   1.374   7.478
    6AU     LIG 3219  33.781   1.141   7.713
    6AU     LIG 3220  33.456   0.804   7.640
    6AU    AUSL 3221  37.107   2.281   8.037
    6AU    AUSL 3222  36.775   2.071   7.724
    6AU     AUL 3223  36.812   2.360   8.117
    6AU       S 3224  36.408   2.203   8.270
    6AU     LIG 3225  36.170   2.539   8.476
    6AU     LIG 3226  36.022   2.821   8.814
    6AU     LIG 3227  35.950   3.253   8.990
    6AU     LIG 3228  35.803   3.702   9.072
    6AU     LIG 3229  35.475   4.018   9.194
    6AU     LIG 3230  35.071   4.221   9.348
    6AU       S 3231  37.168   2.679   8.023
    6AU     LIG 3232  37.369   2.940   8.360
    6AU     LIG 3233  37.635   3.276   8.561
    6AU     LIG 3234  37.608   3.705   8.744
    6AU     LIG 3235  37.498   3.925   9.161
    6AU     LIG 3236  37.456   4.220   9.540
    6AU     LIG 3237  37.343   4.606   9.792
    6AU    AUSL 3238  36.862   2.469   7.674
    6AU    AUSL 3239  37.315   2.440   7.264
    6AU     AUL 3240  37.004   2.694   7.428
    6AU       S 3241  37.004   2.741   7.885
    6AU     LIG 3242  37.090   3.195   8.011
    6AU     LIG 3243  37.255   3.529   8.314
    6AU     LIG 3244  37.291   3.998   8.425
    6AU     LIG 3245  37.055   4.442   8.436
    6AU     LIG 3246  36.838   4.898   8.476
    6AU     LIG 3247  36.889   5.381   8.563
    6AU       S 3248  37.352   2.793   7.107
    6AU     LIG 3249  37.687   3.124   6.970
    6AU     LIG 3250  37.805   3.566   6.846
    6AU     LIG 3251  38.093   3.937   6.739
    6AU     LIG 3252  38.087   4.406   6.664
    6AU     LIG 3253  37.993   4.867   6.633
    6AU     LIG 3254  37.808   5.306   6.543
    6AU    AUSL 3255  37.262   2.294   7.648
    6AU    AUSL 3256  37.253   1.919   7.906
    6AU     AUL 3257  37.434   2.304   8.043
    6AU       S 3258  37.813   2.071   8.238
    6AU     LIG 3259  37.897   2.250   8.674
    6AU     LIG 3260  38.125   2.457   9.036
    6AU     LIG 3261  38.326   2.434   9.464
    6AU     LIG 3262  38.513   2.673   9.818
    6AU     LIG 3263  38.562   3.112  10.011
    6AU     LIG 3264  38.666   3.566  10.101
    6AU       S 3265  37.349   2.630   7.730
    6AU     LIG 3266  37.568   3.034   7.894
    6AU     LIG 3267  37.714   3.463   8.091
    6AU     LIG 3268  37.932   3.882   8.242
    6AU     LIG 3269  38.038   4.346   8.420
    6AU     LIG 3270  38.059   4.808   8.646
    6AU     LIG 3271  37.904   5.269   8.781
    6AU    AUSL 3272  37.002   1.027   7.939
    6AU    AUSL 3273  37.365   1.144   7.721
    6AU     AUL 3274  37.189   0.907   8.190
    6AU       S 3275  37.056   0.488   8.059
    6AU     LIG 3276  37.082   0.147   8.326
    6AU     LIG 3277  36.769  44.825   8.249
    6AU     LIG 3278  36.702  44.371   8.287
    6AU     LIG 3279  36.851  43.986   8.522
    6AU     LIG 3280  36.953  43.760   8.930
    6AU     LIG 3281  36.987  43.489   9.322
    6AU       S 3282  37.661   0.756   7.916
    6AU     LIG 3283  37.771   0.347   8.134
    6AU     LIG 3284  37.926  44.959   8.379
    6AU     LIG 3285  38.091  44.583   8.620
    6AU     LIG 3286  38.271  44.215   8.869
    6AU     LIG 3287  38.641  43.907   8.923
    6AU     LIG 3288  38.987  43.567   8.972
    6AU    AUSL 3289  36.807   0.789   7.659
    6AU    AUSL 3290  36.709   1.162   8.207
    6AU     AUL 3291  36.729   0.820   8.016
    6AU       S 3292  36.869   0.388   7.928
    6AU     LIG 3293  36.725  44.989   7.732
    6AU     LIG 3294  36.533  44.569   7.829
    6AU     LIG 3295  36.294  44.184   7.996
    6AU     LIG 3296  36.066  43.799   8.161
    6AU     LIG 3297  36.006  43.328   8.110
    6AU     LIG 3298  35.953  42.844   8.136
    6AU       S 3299  36.459   1.053   8.308
    6AU     LIG 3300  36.158   0.746   8.558
    6AU     LIG 3301  35.822   0.402   8.516
    6AU     LIG 3302  35.627   0.018   8.728
    6AU     LIG 3303  35.441  44.648   8.960
    6AU     LIG 3304  35.361  44.400   9.346
    6AU     LIG 3305  35.459  44.291   9.803
    6AU    AUSL 3306  37.253   0.747   7.711
    6AU    AUSL 3307  36.764   0.783   7.240
    6AU     AUL 3308  36.948   0.545   7.507
    6AU       S 3309  36.683   0.455   7.113
    6AU     LIG 3310  36.396   0.109   7.106
    6AU     LIG 3311  36.380  44.630   7.183
    6AU     LIG 3312  36.245  44.179   7.042
    6AU     LIG 3313  36.004  43.749   6.978
    6AU     LIG 3314  35.802  43.322   6.871
    6AU     LIG 3315  35.798  42.868   6.709
    6AU       S 3316  37.203   0.547   7.884
    6AU     LIG 3317  37.227   0.042   7.843
    6AU     LIG 3318  37.061  44.575   7.913
    6AU     LIG 3319  37.095  44.107   8.071
    6AU     LIG 3320  37.259  43.661   8.193
    6AU     LIG 3321  37.444  43.215   8.220
    6AU     LIG 3322  37.549  42.823   8.464
    6AU    AUSL 3323  37.046   2.276   6.947
    6AU    AUSL 3324  37.361   2.029   7.257
    6AU     AUL 3325  37.408   2.351   6.996
    6AU       S 3326  37.091   2.599   6.764
    6AU     LIG 3327  37.475   2.831   6.605
    6AU     LIG 3328  37.644   3.244   6.432
    6AU     LIG 3329  37.655   3.465   5.988
    6AU     LIG 3330  37.520   3.722   5.582
    6AU     LIG 3331  37.414   4.155   5.384
    6AU     LIG 3332  37.438   4.528   5.076
    6AU       S 3333  37.776   2.058   6.928
    6AU     LIG 3334  38.032   2.535   6.834
    6AU     LIG 3335  38.290   2.718   6.489
    6AU     LIG 3336  38.665   2.956   6.331
    6AU     LIG 3337  39.008   3.277   6.213
    6AU     LIG 3338  39.306   3.645   6.089
    6AU     LIG 3339  39.658   3.982   6.027
    6AU    AUSL 3340  36.956   2.227   7.353
    6AU    AUSL 3341  36.840   1.939   7.061
    6AU     AUL 3342  36.788   2.429   7.096
    6AU       S 3343  37.136   2.735   6.996
    6AU     LIG 3344  37.189   3.189   6.823
    6AU     LIG 3345  37.299   3.634   6.701
    6AU     LIG 3346  37.087   4.080   6.673
    6AU     LIG 3347  36.812   4.492   6.642
    6AU     LIG 3348  36.668   4.949   6.541
    6AU     LIG 3349  36.497   5.351   6.340
    6AU       S 3350  36.644   2.238   6.690
    6AU     LIG 3351  36.587   2.321   6.254
    6AU     LIG 3352  36.356   2.602   5.937
    6AU     LIG 3353  36.287   2.773   5.480
    6AU     LIG 3354  36.184   3.077   5.113
    6AU     LIG 3355  35.907   3.384   4.866
    6AU     LIG 3356  35.513   3.611   4.733
    6AU    AUSL 3357  37.122   0.867   6.982
    6AU    AUSL 3358  36.704   1.174   7.350
    6AU     AUL 3359  36.768   0.875   6.934
    6AU       S 3360  36.314   0.782   7.165
    6AU     LIG 3361  35.976   0.519   7.279
    6AU     LIG 3362  35.672   0.252   7.035
    6AU     LIG 3363  35.396  44.976   6.741
    6AU     LIG 3364  35.176  44.666   6.444
    6AU     LIG 3365  34.959  44.297   6.239
    6AU     LIG 3366  34.625  43.976   6.155
    6AU       S 3367  37.019   0.496   6.899
    6AU     LIG 3368  36.780   0.179   6.674
    6AU     LIG 3369  36.593  44.778   6.738
    6AU     LIG 3370  36.620  44.322   6.648
    6AU     LIG 3371  36.780  44.031   6.288
    6AU     LIG 3372  36.852  43.881   5.818
    6AU     LIG 3373  36.853  43.579   5.435
    6AU    AUSL 3374  37.107   0.968   7.396
    6AU    AUSL 3375  37.246   1.241   7.097
    6AU     AUL 3376  37.292   0.726   7.202
    6AU       S 3377  36.924   0.449   7.071
    6AU     LIG 3378  36.897  44.988   7.161
    6AU     LIG 3379  36.882  44.523   7.083
    6AU     LIG 3380  37.022  44.110   6.906
    6AU     LIG 3381  37.225  43.735   6.725
    6AU     LIG 3382  37.428  43.316   6.703
    6AU     LIG 3383  37.550  42.867   6.600
    6AU       S 3384  37.482   0.852   6.722
    6AU     LIG 3385  37.336   0.523   6.477
    6AU     LIG 3386  37.579   0.189   6.263
    6AU     LIG 3387  37.844  44.865   6.048
    6AU     LIG 3388  38.079  44.625   5.717
    6AU     LIG 3389  38.164  44.480   5.266
    6AU     LIG 3390  38.495  44.391   4.935
    7AU     AUC 3391  32.062  26.020   7.495
    7AU     AUC 3392  32.324  26.017   7.333
    7AU     AUC 3393  32.318  26.012   7.640
    7AU     AUC 3394  31.814  26.022   7.336
    7AU     AUC 3395  31.800  26.041   7.643
    7AU     AUC 3396  31.917  26.281   7.496
    7AU     AUC 3397  32.225  26.274   7.471
    7AU     AUC 3398  31.905  25.766   7.509
    7AU     AUC 3399  32.198  25.762   7.519
    7AU     AUC 3400  32.052  25.874   7.759
    7AU     AUC 3401  32.089  26.187   7.744
    7AU     AUC 3402  32.062  25.853   7.240
    7AU     AUC 3403  32.049  26.155   7.230
    7AU     AUC 3404  32.570  26.008   7.165
    7AU     AUC 3405  32.583  26.018   7.475
    7AU     AUC 3406  32.578  26.014   7.785
    7AU     AUC 3407  31.551  26.010   7.181
    7AU     AUC 3408  31.542  26.042   7.485
    7AU     AUC 3409  31.555  26.063   7.808
    7AU     AUC 3410  31.777  26.552   7.496
    7AU     AUC 3411  32.082  26.548   7.484
    7AU     AUC 3412  32.373  26.540   7.479
    7AU     AUC 3413  31.717  25.514   7.523
    7AU     AUC 3414  32.038  25.494   7.507
    7AU     AUC 3415  32.353  25.494   7.524
    7AU     AUC 3416  32.035  25.720   8.011
    7AU     AUC 3417  32.071  26.032   8.024
    7AU     AUC 3418  32.095  26.345   8.011
    7AU     AUC 3419  32.060  25.676   7.006
    7AU     AUC 3420  32.070  25.994   6.970
    7AU     AUC 3421  32.049  26.306   6.964
    7AU     AUC 3422  32.335  25.870   7.918
    7AU     AUC 3423  32.339  26.166   7.909
    7AU     AUC 3424  32.330  25.843   7.075
    7AU     AUC 3425  32.329  26.155   7.060
    7AU     AUC 3426  31.795  25.897   7.927
    7AU     AUC 3427  31.814  26.205   7.924
    7AU     AUC 3428  31.810  25.848   7.068
    7AU     AUC 3429  31.800  26.161   7.070
    7AU     AUC 3430  32.479  26.283   7.308
    7AU     AUC 3431  32.495  26.260   7.628
    7AU     AUC 3432  31.647  26.283   7.341
    7AU     AUC 3433  31.659  26.309   7.662
    7AU     AUC 3434  32.471  25.750   7.343
    7AU     AUC 3435  32.479  25.754   7.660
    7AU     AUC 3436  31.633  25.766   7.342
    7AU     AUC 3437  31.640  25.788   7.680
    7AU     AUC 3438  31.923  26.447   7.762
    7AU     AUC 3439  32.245  26.447   7.730
    7AU     AUC 3440  31.882  25.605   7.762
    7AU     AUC 3441  32.204  25.606   7.782
    7AU     AUC 3442  31.903  26.434   7.227
    7AU     AUC 3443  32.222  26.421   7.210
    7AU     AUC 3444  31.882  25.602   7.245
    7AU     AUC 3445  32.212  25.587   7.263
    7AU    AUSL 3446  32.409  25.967   8.088
    7AU    AUSL 3447  32.376  25.536   8.135
    7AU     AUL 3448  32.610  25.628   8.393
    7AU       S 3449  32.644  25.255   8.065
    7AU     LIG 3450  32.620  25.128   8.478
    7AU     LIG 3451  32.710  24.728   8.690
    7AU     LIG 3452  32.894  24.361   8.920
    7AU     LIG 3453  33.172  24.075   9.180
    7AU     LIG 3454  33.205  23.862   9.614
    7AU     LIG 3455  33.200  23.562   9.989
    7AU       S 3456  32.486  25.993   8.647
    7AU     LIG 3457  32.761  25.720   8.911
    7AU     LIG 3458  32.967  25.601   9.333
    7AU     LIG 3459  33.222  25.445   9.712
    7AU     LIG 3460  33.598  25.447  10.023
    7AU     LIG 3461  33.862  25.606  10.387
    7AU     LIG 3462  34.184  25.802  10.686
    7AU    AUSL 3463  32.135  25.804   8.364
    7AU    AUSL 3464  32.020  26.209   8.288
    7AU     AUL 3465  32.077  26.173   8.707
    7AU       S 3466  32.210  25.804   8.499
    7AU     LIG 3467  32.325  25.463   8.781
    7AU     LIG 3468  32.551  25.320   9.189
    7AU     LIG 3469  32.727  25.246   9.643
    7AU     LIG 3470  32.768  25.083  10.102
    7AU     LIG 3471  32.794  25.064  10.582
    7AU     LIG 3472  32.804  25.014  11.061
    7AU       S 3473  31.711  25.919   8.642
    7AU     LIG 3474  31.573  25.838   9.104
    7AU     LIG 3475  31.404  25.752   9.529
    7AU     LIG 3476  31.262  25.748   9.979
    7AU     LIG 3477  31.271  26.054  10.349
    7AU     LIG 3478  31.268  26.352  10.726
    7AU     LIG 3479  31.080  26.476  11.140
    7AU    AUSL 3480  32.411  26.342   8.272
    7AU    AUSL 3481  32.737  26.201   7.959
    7AU     AUL 3482  32.709  26.068   8.265
    7AU       S 3483  32.428  26.366   8.477
    7AU     LIG 3484  32.509  26.551   8.895
    7AU     LIG 3485  32.641  26.728   9.331
    7AU     LIG 3486  32.674  26.802   9.815
    7AU     LIG 3487  32.705  26.864  10.296
    7AU     LIG 3488  32.845  26.792  10.740
    7AU     LIG 3489  33.219  26.786  11.029
    7AU       S 3490  33.034  26.276   8.008
    7AU     LIG 3491  33.248  26.260   8.419
    7AU     LIG 3492  33.499  26.551   8.695
    7AU     LIG 3493  33.783  26.755   9.021
    7AU     LIG 3494  34.044  26.867   9.429
    7AU     LIG 3495  34.435  26.882   9.739
    7AU     LIG 3496  34.811  27.121   9.934
    7AU    AUSL 3497  32.600  26.050   6.857
    7AU    AUSL 3498  32.363  26.445   6.811
    7AU     AUL 3499  32.725  26.396   6.444
    7AU       S 3500  32.626  26.075   6.705
    7AU     LIG 3501  32.925  25.975   6.320
    7AU     LIG 3502  32.976  25.771   5.916
    7AU     LIG 3503  33.098  25.603   5.486
    7AU     LIG 3504  33.327  25.526   5.066
    7AU     LIG 3505  33.701  25.463   4.749
    7AU     LIG 3506  34.070  25.507   4.440
    7AU       S 3507  32.357  26.491   6.652
    7AU     LIG 3508  32.681  26.855   6.575
    7AU     LIG 3509  33.020  26.905   6.237
    7AU     LIG 3510  33.311  27.024   5.843
    7AU     LIG 3511  33.392  27.243   5.389
    7AU     LIG 3512  33.655  27.505   5.054
    7AU     LIG 3513  33.717  27.804   4.675
    7AU    AUSL 3514  32.341  25.728   6.695
    7AU    AUSL 3515  32.674  25.660   6.989
    7AU     AUL 3516  32.771  25.671   6.667
    7AU       S 3517  32.697  25.248   6.827
    7AU     LIG 3518  32.949  25.168   6.462
    7AU     LIG 3519  33.116  24.763   6.298
    7AU     LIG 3520  33.373  24.408   6.141
    7AU     LIG 3521  33.749  24.302   5.874
    7AU     LIG 3522  34.162  24.288   5.639
    7AU     LIG 3523  34.451  24.455   5.317
    7AU       S 3524  32.437  25.935   6.436
    7AU     LIG 3525  32.576  25.552   6.221
    7AU     LIG 3526  32.675  25.375   5.784
    7AU     LIG 3527  32.688  25.346   5.300
    7AU     LIG 3528  32.702  25.218   4.831
    7AU     LIG 3529  32.764  25.175   4.358
    7AU     LIG 3530  33.031  25.164   3.966
    7AU    AUSL 3531  32.179  26.082   6.875
    7AU    AUSL 3532  31.929  25.820   6.655
    7AU     AUL 3533  32.137  25.603   6.563
    7AU       S 3534  31.883  25.914   6.329
    7AU     LIG 3535  31.850  25.567   6.044
    7AU     LIG 3536  31.618  25.315   5.699
    7AU     LIG 3537  31.447  25.188   5.268
    7AU     LIG 3538  31.237  25.033   4.858
    7AU     LIG 3539  31.041  25.056   4.417
    7AU     LIG 3540  30.909  25.019   3.951
    7AU       S 3541  32.329  26.050   6.489
    7AU     LIG 3542  32.491  26.018   5.969
    7AU     LIG 3543  32.629  25.836   5.535
    7AU     LIG 3544  32.814  25.805   5.083
    7AU     LIG 3545  32.818  26.008   4.640
    7AU     LIG 3546  32.947  26.340   4.317
    7AU     LIG 3547  33.138  26.569   3.944
    7AU    AUSL 3548  31.626  26.091   8.217
    7AU    AUSL 3549  31.770  26.504   8.131
    7AU     AUL 3550  31.810  26.405   8.418
    7AU       S 3551  31.554  26.098   8.666
    7AU     LIG 3552  31.220  25.781   8.716
    7AU     LIG 3553  31.086  25.596   9.134
    7AU     LIG 3554  30.926  25.561   9.598
    7AU     LIG 3555  30.597  25.582   9.962
    7AU     LIG 3556  30.194  25.691  10.227
    7AU     LIG 3557  29.897  25.581  10.601
    7AU       S 3558  31.357  26.470   8.359
    7AU     LIG 3559  31.354  26.571   8.798
    7AU     LIG 3560  31.327  26.939   9.094
    7AU     LIG 3561  31.104  27.261   9.368
    7AU     LIG 3562  30.905  27.387   9.800
    7AU     LIG 3563  30.691  27.572  10.200
    7AU     LIG 3564  30.421  27.939  10.378
    7AU    AUSL 3565  31.931  25.890   8.016
    7AU    AUSL 3566  31.385  25.821   8.007
    7AU     AUL 3567  31.435  25.949   8.248
    7AU       S 3568  31.217  25.529   8.241
    7AU     LIG 3569  30.792  25.339   8.087
    7AU     LIG 3570  30.436  25.089   8.269
    7AU     LIG 3571  30.245  24.815   8.593
    7AU     LIG 3572  30.032  24.507   8.871
    7AU     LIG 3573  29.700  24.438   9.205
    7AU     LIG 3574  29.374  24.578   9.531
    7AU       S 3575  31.732  25.808   8.598
    7AU     LIG 3576  31.569  25.420   8.818
    7AU     LIG 3577  31.484  25.304   9.276
    7AU     LIG 3578  31.346  25.279   9.744
    7AU     LIG 3579  31.271  25.236  10.224
    7AU     LIG 3580  31.156  25.150  10.697
    7AU     LIG 3581  30.956  25.182  11.144
    7AU    AUSL 3582  31.668  25.969   6.943
    7AU    AUSL 3583  31.806  25.542   6.934
    7AU     AUL 3584  31.630  25.654   6.636
    7AU       S 3585  31.653  25.999   6.304
    7AU     LIG 3586  31.374  25.755   6.011
    7AU     LIG 3587  31.195  25.588   5.596
    7AU     LIG 3588  31.013  25.450   5.174
    7AU     LIG 3589  30.680  25.297   4.870
    7AU     LIG 3590  30.326  25.354   4.555
    7AU     LIG 3591  30.103  25.647   4.254
    7AU       S 3592  31.366  25.251   6.803
    7AU     LIG 3593  31.087  24.889   6.788
    7AU     LIG 3594  30.737  24.690   6.544
    7AU     LIG 3595  30.474  24.423   6.250
    7AU     LIG 3596  30.530  24.218   5.822
    7AU     LIG 3597  30.544  23.965   5.420
    7AU     LIG 3598  30.429  23.640   5.090
    7AU    AUSL 3599  31.865  26.256   6.661
    7AU    AUSL 3600  31.419  26.304   6.946
    7AU     AUL 3601  31.466  26.100   6.705
    7AU       S 3602  31.362  26.555   6.730
    7AU     LIG 3603  31.095  26.710   6.363
    7AU     LIG 3604  30.942  27.061   6.049
    7AU     LIG 3605  30.691  27.095   5.623
    7AU     LIG 3606  30.290  27.043   5.329
    7AU     LIG 3607  30.005  27.228   4.979
    7AU     LIG 3608  29.576  27.363   4.809
    7AU       S 3609  31.874  26.176   6.448
    7AU     LIG 3610  31.945  26.103   5.900
    7AU     LIG 3611  31.686  25.824   5.599
    7AU     LIG 3612  31.475  25.722   5.180
    7AU     LIG 3613  31.398  25.905   4.740
    7AU     LIG 3614  31.300  26.185   4.355
    7AU     LIG 3615  31.049  26.419   4.018
    7AU    AUSL 3616  32.685  26.642   7.424
    7AU    AUSL 3617  32.711  26.395   7.068
    7AU     AUL 3618  32.826  26.847   7.221
    7AU       S 3619  32.844  26.484   6.881
    7AU     LIG 3620  33.198  26.433   6.576
    7AU     LIG 3621  33.470  26.654   6.239
    7AU     LIG 3622  33.792  26.725   5.886
    7AU     LIG 3623  34.201  26.760   5.620
    7AU     LIG 3624  34.528  26.893   5.296
    7AU     LIG 3625  34.789  27.228   5.091
    7AU       S 3626  33.138  26.514   7.333
    7AU     LIG 3627  33.615  26.560   7.479
    7AU     LIG 3628  34.101  26.657   7.515
    7AU     LIG 3629  34.575  26.789   7.495
    7AU     LIG 3630  35.014  27.005   7.550
    7AU     LIG 3631  35.279  27.334   7.787
    7AU     LIG 3632  35.643  27.659   7.845
    7AU    AUSL 3633  32.906  26.060   7.213
    7AU    AUSL 3634  32.913  25.903   7.633
    7AU     AUL 3635  33.175  25.842   7.377
    7AU       S 3636  33.106  26.293   7.292
    7AU     LIG 3637  33.503  26.185   7.137
    7AU     LIG 3638  33.955  26.232   7.236
    7AU     LIG 3639  34.416  26.342   7.245
    7AU     LIG 3640  34.876  26.444   7.247
    7AU     LIG 3641  35.290  26.658   7.283
    7AU     LIG 3642  35.643  26.934   7.160
    7AU       S 3643  33.216  25.458   7.648
    7AU     LIG 3644  33.520  25.248   7.877
    7AU     LIG 3645  33.907  25.014   7.860
    7AU     LIG 3646  34.347  24.910   7.776
    7AU     LIG 3647  34.802  24.914   7.899
    7AU     LIG 3648  35.252  24.832   8.050
    7AU     LIG 3649  35.708  24.957   8.201
    7AU    AUSL 3650  32.690  26.240   7.546
    7AU    AUSL 3651  32.591  26.574   7.830
    7AU     AUL 3652  32.840  26.569   7.691
    7AU       S 3653  32.900  26.488   8.128
    7AU     LIG 3654  33.278  26.756   8.259
    7AU     LIG 3655  33.467  27.069   8.574
    7AU     LIG 3656  33.628  27.527   8.659
    7AU     LIG 3657  33.948  27.864   8.771
    7AU     LIG 3658  34.179  28.260   8.886
    7AU     LIG 3659  34.400  28.626   9.097
    7AU       S 3660  33.166  26.297   7.536
    7AU     LIG 3661  33.543  26.083   7.658
    7AU     LIG 3662  34.002  26.202   7.746
    7AU     LIG 3663  34.470  26.351   7.757
    7AU     LIG 3664  34.939  26.509   7.751
    7AU     LIG 3665  35.424  26.558   7.771
    7AU     LIG 3666  35.861  26.639   7.955
    7AU    AUSL 3667  31.406  26.590   7.573
    7AU    AUSL 3668  31.455  26.323   7.918
    7AU     AUL 3669  31.420  26.770   7.842
    7AU       S 3670  31.253  26.397   8.111
    7AU     LIG 3671  30.901  26.576   8.469
    7AU     LIG 3672  30.872  26.818   8.885
    7AU     LIG 3673  30.713  26.920   9.339
    7AU     LIG 3674  30.411  26.956   9.732
    7AU     LIG 3675  29.994  27.086   9.940
    7AU     LIG 3676  29.757  27.384  10.205
    7AU       S 3677  31.044  26.621   7.633
    7AU     LIG 3678  30.873  27.059   7.533
    7AU     LIG 3679  30.562  27.432   7.566
    7AU     LIG 3680  30.199  27.740   7.571
    7AU     LIG 3681  29.839  27.996   7.369
    7AU     LIG 3682  29.387  28.122   7.487
    7AU     LIG 3683  29.007  28.234   7.754
    7AU    AUSL 3684  31.483  26.246   7.348
    7AU    AUSL 3685  31.566  26.656   7.186
    7AU     AUL 3686  31.297  26.580   7.214
    7AU       S 3687  30.920  26.532   7.491
    7AU     LIG 3688  30.593  26.451   7.177
    7AU     LIG 3689  30.190  26.615   6.941
    7AU     LIG 3690  29.816  26.899   6.778
    7AU     LIG 3691  29.415  27.172   6.673
    7AU     LIG 3692  28.946  27.210   6.663
    7AU     LIG 3693  28.536  27.185   6.879
    7AU       S 3694  31.396  26.827   6.816
    7AU     LIG 3695  31.207  27.171   6.542
    7AU     LIG 3696  31.232  27.489   6.211
    7AU     LIG 3697  31.070  27.926   6.211
    7AU     LIG 3698  30.851  28.314   6.114
    7AU     LIG 3699  30.423  28.492   6.061
    7AU     LIG 3700  30.094  28.795   5.946
    7AU    AUSL 3701  31.191  26.170   7.649
    7AU    AUSL 3702  31.235  25.918   7.296
    7AU     AUL 3703  31.083  26.176   7.260
    7AU       S 3704  30.883  25.721   7.429
    7AU     LIG 3705  30.488  25.665   7.736
    7AU     LIG 3706  29.989  25.595   7.775
    7AU     LIG 3707  29.528  25.776   7.661
    7AU     LIG 3708  29.145  25.620   7.362
    7AU     LIG 3709  28.752  25.362   7.240
    7AU     LIG 3710  28.293  25.185   7.168
    7AU       S 3711  31.007  26.226   7.731
    7AU     LIG 3712  30.728  26.473   7.999
    7AU     LIG 3713  30.367  26.680   8.239
    7AU     LIG 3714  29.888  26.793   8.296
    7AU     LIG 3715  29.397  26.850   8.329
    7AU     LIG 3716  28.930  26.864   8.425
    7AU     LIG 3717  28.642  27.246   8.385
    7AU    AUSL 3718  32.758  25.504   7.561
    7AU    AUSL 3719  32.711  25.723   7.945
    7AU     AUL 3720  33.007  25.776   7.900
    7AU       S 3721  32.918  25.251   7.531
    7AU     LIG 3722  33.125  24.946   7.773
    7AU     LIG 3723  33.531  24.721   7.672
    7AU     LIG 3724  33.985  24.559   7.595
    7AU     LIG 3725  34.352  24.253   7.551
    7AU     LIG 3726  34.693  23.972   7.743
    7AU     LIG 3727  35.045  23.664   7.894
    7AU       S 3728  32.729  25.409   8.014
    7AU     LIG 3729  33.109  25.216   8.227
    7AU     LIG 3730  33.189  24.862   8.530
    7AU     LIG 3731  33.370  24.486   8.781
    7AU     LIG 3732  33.656  24.293   9.114
    7AU     LIG 3733  34.059  24.264   9.383
    7AU     LIG 3734  34.424  24.170   9.681
    7AU    AUSL 3735  32.596  25.834   7.354
    7AU    AUSL 3736  32.515  25.362   7.253
    7AU     AUL 3737  32.853  25.559   7.175
    7AU       S 3738  32.970  25.423   7.588
    7AU     LIG 3739  33.386  25.120   7.358
    7AU     LIG 3740  33.860  24.992   7.342
    7AU     LIG 3741  34.322  24.834   7.269
    7AU     LIG 3742  34.796  24.914   7.155
    7AU     LIG 3743  35.207  24.944   6.888
    7AU     LIG 3744  35.696  25.013   6.846
    7AU       S 3745  32.754  25.125   7.012
    7AU     LIG 3746  32.757  24.747   6.701
    7AU     LIG 3747  32.917  24.335   6.506
    7AU     LIG 3748  33.160  23.970   6.330
    7AU     LIG 3749  33.474  23.613   6.348
    7AU     LIG 3750  33.739  23.311   6.128
    7AU     LIG 3751  34.101  23.030   6.145
    7AU    AUSL 3752  31.332  25.536   7.478
    7AU    AUSL 3753  31.420  25.652   7.047
    7AU     AUL 3754  31.148  25.745   7.035
    7AU       S 3755  31.350  25.333   7.031
    7AU     LIG 3756  30.844  25.318   6.984
    7AU     LIG 3757  30.463  25.121   6.765
    7AU     LIG 3758  30.302  24.903   6.369
    7AU     LIG 3759  29.986  24.641   6.157
    7AU     LIG 3760  29.628  24.658   5.834
    7AU     LIG 3761  29.415  24.557   5.405
    7AU       S 3762  31.025  25.514   7.418
    7AU     LIG 3763  30.695  25.240   7.557
    7AU     LIG 3764  30.304  25.174   7.781
    7AU     LIG 3765  29.864  25.101   7.622
    7AU     LIG 3766  29.469  24.911   7.403
    7AU     LIG 3767  29.040  24.661   7.475
    7AU     LIG 3768  28.878  24.236   7.654
    7AU    AUSL 3769  31.507  25.905   7.629
    7AU    AUSL 3770  31.595  25.509   7.808
    7AU     AUL 3771  31.219  25.678   7.800
    7AU       S 3772  31.305  25.324   8.082
    7AU     LIG 3773  31.113  25.065   7.788
    7AU     LIG 3774  30.702  24.833   7.903
    7AU     LIG 3775  30.416  24.543   8.192
    7AU     LIG 3776  30.145  24.200   8.458
    7AU     LIG 3777  29.847  23.789   8.538
    7AU     LIG 3778  29.573  23.375   8.609
    7AU       S 3779  30.931  25.801   7.475
    7AU     LIG 3780  30.465  25.946   7.309
    7AU     LIG 3781  30.002  25.851   7.348
    7AU     LIG 3782  29.684  25.463   7.318
    7AU     LIG 3783  29.339  25.304   7.693
    7AU     LIG 3784  28.848  25.305   7.823
    7AU     LIG 3785  28.378  25.162   7.995
    7AU    AUSL 3786  32.119  26.711   8.027
    7AU    AUSL 3787  31.783  26.489   7.715
    7AU     AUL 3788  31.823  26.786   8.107
    7AU       S 3789  31.424  26.622   8.270
    7AU     LIG 3790  31.230  26.974   8.509
    7AU     LIG 3791  31.088  27.300   8.814
    7AU     LIG 3792  31.053  27.755   8.921
    7AU     LIG 3793  30.836  28.149   9.047
    7AU     LIG 3794  30.560  28.521   9.093
    7AU     LIG 3795  30.248  28.661   9.417
    7AU       S 3796  32.173  27.098   7.978
    7AU     LIG 3797  32.341  27.194   8.365
    7AU     LIG 3798  32.456  27.621   8.526
    7AU     LIG 3799  32.405  28.019   8.790
    7AU     LIG 3800  32.336  28.281   9.187
    7AU     LIG 3801  32.210  28.623   9.498
    7AU     LIG 3802  32.082  29.043   9.681
    7AU    AUSL 3803  31.858  26.889   7.663
    7AU    AUSL 3804  32.305  26.864   7.244
    7AU     AUL 3805  32.001  27.117   7.415
    7AU       S 3806  32.004  27.173   7.874
    7AU     LIG 3807  32.117  27.597   8.113
    7AU     LIG 3808  32.228  28.039   8.296
    7AU     LIG 3809  32.096  28.490   8.471
    7AU     LIG 3810  31.956  28.966   8.550
    7AU     LIG 3811  31.751  29.392   8.635
    7AU     LIG 3812  31.738  29.855   8.744
    7AU       S 3813  32.327  27.208   7.069
    7AU     LIG 3814  32.641  27.507   6.883
    7AU     LIG 3815  32.872  27.895   6.716
    7AU     LIG 3816  33.188  28.264   6.688
    7AU     LIG 3817  33.314  28.725   6.591
    7AU     LIG 3818  33.375  29.177   6.438
    7AU     LIG 3819  33.112  29.571   6.419
    7AU    AUSL 3820  32.260  26.722   7.633
    7AU    AUSL 3821  32.249  26.343   7.898
    7AU     AUL 3822  32.445  26.733   8.030
    7AU       S 3823  32.826  26.521   8.223
    7AU     LIG 3824  32.966  26.631   8.653
    7AU     LIG 3825  33.212  26.863   8.991
    7AU     LIG 3826  33.500  27.054   9.319
    7AU     LIG 3827  33.710  27.197   9.708
    7AU     LIG 3828  33.667  27.532  10.039
    7AU     LIG 3829  33.642  27.982  10.183
    7AU       S 3830  32.356  27.052   7.709
    7AU     LIG 3831  32.582  27.430   7.973
    7AU     LIG 3832  32.789  27.857   8.182
    7AU     LIG 3833  33.158  28.229   8.257
    7AU     LIG 3834  33.281  28.730   8.297
    7AU     LIG 3835  33.354  29.223   8.319
    7AU     LIG 3836  33.204  29.695   8.388
    7AU    AUSL 3837  32.024  25.453   7.931
    7AU    AUSL 3838  32.382  25.580   7.718
    7AU     AUL 3839  32.215  25.333   8.185
    7AU       S 3840  32.050  24.911   8.030
    7AU     LIG 3841  31.935  24.522   8.212
    7AU     LIG 3842  31.731  24.118   8.212
    7AU     LIG 3843  31.596  23.735   8.413
    7AU     LIG 3844  31.721  23.371   8.663
    7AU     LIG 3845  31.759  23.215   9.111
    7AU     LIG 3846  31.793  22.950   9.501
    7AU       S 3847  32.677  25.203   7.935
    7AU     LIG 3848  32.817  24.780   8.157
    7AU     LIG 3849  33.002  24.396   8.406
    7AU     LIG 3850  33.168  24.003   8.648
    7AU     LIG 3851  33.294  23.526   8.695
    7AU     LIG 3852  33.669  23.260   8.789
    7AU     LIG 3853  34.068  23.187   9.045
    7AU    AUSL 3854  31.838  25.203   7.659
    7AU    AUSL 3855  31.735  25.585   8.206
    7AU     AUL 3856  31.754  25.258   8.034
    7AU       S 3857  31.811  24.853   7.825
    7AU     LIG 3858  31.594  24.445   7.818
    7AU     LIG 3859  31.456  23.995   7.789
    7AU     LIG 3860  31.380  23.567   7.969
    7AU     LIG 3861  31.234  23.136   8.092
    7AU     LIG 3862  31.053  22.697   8.143
    7AU     LIG 3863  31.221  22.264   8.250
    7AU       S 3864  31.463  25.468   8.320
    7AU     LIG 3865  31.137  25.134   8.525
    7AU     LIG 3866  30.796  24.788   8.477
    7AU     LIG 3867  30.560  24.422   8.687
    7AU     LIG 3868  30.361  24.126   9.000
    7AU     LIG 3869  30.340  23.894   9.422
    7AU     LIG 3870  30.243  23.787   9.876
    7AU    AUSL 3871  32.287  25.178   7.706
    7AU    AUSL 3872  31.781  25.202   7.243
    7AU     AUL 3873  32.088  24.938   7.470
    7AU       S 3874  31.676  24.889   7.110
    7AU     LIG 3875  31.362  24.577   7.173
    7AU     LIG 3876  31.378  24.112   7.267
    7AU     LIG 3877  31.345  23.648   7.088
    7AU     LIG 3878  31.213  23.230   6.834
    7AU     LIG 3879  30.993  22.776   6.765
    7AU     LIG 3880  30.842  22.369   6.518
    7AU       S 3881  32.189  24.967   7.905
    7AU     LIG 3882  32.170  24.500   7.753
    7AU     LIG 3883  31.963  24.076   7.748
    7AU     LIG 3884  31.904  23.658   8.002
    7AU     LIG 3885  32.067  23.231   8.211
    7AU     LIG 3886  32.356  22.807   8.233
    7AU     LIG 3887  32.536  22.335   8.258
    7AU    AUSL 3888  32.044  26.684   6.930
    7AU    AUSL 3889  32.354  26.452   7.256
    7AU     AUL 3890  32.423  26.768   6.991
    7AU       S 3891  32.084  26.974   6.746
    7AU     LIG 3892  32.369  27.248   6.523
    7AU     LIG 3893  32.497  27.673   6.403
    7AU     LIG 3894  32.381  28.076   6.179
    7AU     LIG 3895  32.330  28.282   5.740
    7AU     LIG 3896  32.371  28.655   5.451
    7AU     LIG 3897  32.202  28.991   5.150
    7AU       S 3898  32.787  26.476   6.956
    7AU     LIG 3899  33.134  26.869   6.826
    7AU     LIG 3900  33.404  27.117   6.510
    7AU     LIG 3901  33.606  27.513   6.310
    7AU     LIG 3902  33.918  27.870   6.211
    7AU     LIG 3903  34.147  28.193   5.947
    7AU     LIG 3904  34.198  28.664   5.988
    7AU    AUSL 3905  31.951  26.651   7.339
    7AU    AUSL 3906  31.831  26.357   7.055
    7AU     AUL 3907  31.778  26.844   7.086
    7AU       S 3908  32.125  27.141   6.976
    7AU     LIG 3909  32.132  27.597   6.812
    7AU     LIG 3910  32.322  28.017   6.737
    7AU     LIG 3911  32.184  28.425   6.557
    7AU     LIG 3912  32.069  28.837   6.368
    7AU     LIG 3913  31.949  29.298   6.403
    7AU     LIG 3914  31.534  29.453   6.546
    7AU       S 3915  31.627  26.648   6.685
    7AU     LIG 3916  31.564  26.905   6.281
    7AU     LIG 3917  31.424  27.144   5.865
    7AU     LIG 3918  31.433  27.348   5.408
    7AU     LIG 3919  31.276  27.584   5.001
    7AU     LIG 3920  31.050  27.938   4.770
    7AU     LIG 3921  30.647  28.119   4.586
    7AU    AUSL 3922  32.131  25.289   6.978
    7AU    AUSL 3923  31.718  25.593   7.345
    7AU     AUL 3924  31.808  25.293   6.910
    7AU       S 3925  31.308  25.213   7.148
    7AU     LIG 3926  30.989  24.929   7.286
    7AU     LIG 3927  30.634  24.721   7.042
    7AU     LIG 3928  30.272  24.545   6.737
    7AU     LIG 3929  30.021  24.189   6.465
    7AU     LIG 3930  29.767  23.747   6.339
    7AU     LIG 3931  29.752  23.306   6.095
    7AU       S 3932  31.946  24.871   7.020
    7AU     LIG 3933  31.768  24.450   6.868
    7AU     LIG 3934  31.570  24.036   6.791
    7AU     LIG 3935  31.499  23.616   6.594
    7AU     LIG 3936  31.557  23.219   6.365
    7AU     LIG 3937  31.604  23.015   5.933
    7AU     LIG 3938  31.642  22.740   5.547
    7AU    AUSL 3939  32.126  25.393   7.393
    7AU    AUSL 3940  32.250  25.667   7.087
    7AU     AUL 3941  32.311  25.168   7.137
    7AU       S 3942  31.702  24.995   7.260
    7AU     LIG 3943  31.829  24.502   7.375
    7AU     LIG 3944  31.885  24.054   7.215
    7AU     LIG 3945  31.870  23.636   6.961
    7AU     LIG 3946  32.042  23.216   6.761
    7AU     LIG 3947  32.374  22.842   6.687
    7AU     LIG 3948  32.612  22.482   6.443
    7AU       S 3949  32.513  25.285   6.729
    7AU     LIG 3950  32.467  25.028   6.365
    7AU     LIG 3951  32.633  24.631   6.177
    7AU     LIG 3952  32.892  24.285   5.978
    7AU     LIG 3953  33.028  23.991   5.619
    7AU     LIG 3954  33.144  23.697   5.244
    7AU     LIG 3955  33.234  23.348   4.921
    8AU     AUC 3956  11.573   7.614   7.500
    8AU     AUC 3957  11.835   7.612   7.339
    8AU     AUC 3958  11.829   7.602   7.646
    8AU     AUC 3959  11.327   7.615   7.339
    8AU     AUC 3960  11.310   7.634   7.646
    8AU     AUC 3961  11.428   7.874   7.502
    8AU     AUC 3962  11.735   7.868   7.478
    8AU     AUC 3963  11.416   7.359   7.512
    8AU     AUC 3964  11.711   7.355   7.525
    8AU     AUC 3965  11.563   7.465   7.763
    8AU     AUC 3966  11.599   7.780   7.750
    8AU     AUC 3967  11.575   7.447   7.244
    8AU     AUC 3968  11.562   7.750   7.236
    8AU     AUC 3969  12.083   7.605   7.172
    8AU     AUC 3970  12.095   7.612   7.481
    8AU     AUC 3971  12.087   7.604   7.794
    8AU     AUC 3972  11.067   7.605   7.183
    8AU     AUC 3973  11.054   7.636   7.485
    8AU     AUC 3974  11.064   7.655   7.809
    8AU     AUC 3975  11.288   8.145   7.503
    8AU     AUC 3976  11.594   8.141   7.493
    8AU     AUC 3977  11.886   8.135   7.487
    8AU     AUC 3978  11.229   7.108   7.524
    8AU     AUC 3979  11.549   7.088   7.509
    8AU     AUC 3980  11.863   7.089   7.532
    8AU     AUC 3981  11.543   7.312   8.013
    8AU     AUC 3982  11.579   7.624   8.029
    8AU     AUC 3983  11.603   7.936   8.017
    8AU     AUC 3984  11.574   7.268   7.009
    8AU     AUC 3985  11.582   7.588   6.975
    8AU     AUC 3986  11.561   7.902   6.971
    8AU     AUC 3987  11.844   7.462   7.923
    8AU     AUC 3988  11.847   7.757   7.917
    8AU     AUC 3989  11.843   7.439   7.080
    8AU     AUC 3990  11.839   7.752   7.066
    8AU     AUC 3991  11.304   7.489   7.930
    8AU     AUC 3992  11.324   7.797   7.928
    8AU     AUC 3993  11.324   7.442   7.072
    8AU     AUC 3994  11.313   7.757   7.073
    8AU     AUC 3995  11.990   7.878   7.315
    8AU     AUC 3996  12.003   7.853   7.637
    8AU     AUC 3997  11.160   7.878   7.344
    8AU     AUC 3998  11.169   7.901   7.665
    8AU     AUC 3999  11.984   7.347   7.350
    8AU     AUC 4000  11.988   7.346   7.667
    8AU     AUC 4001  11.146   7.359   7.343
    8AU     AUC 4002  11.148   7.382   7.681
    8AU     AUC 4003  11.432   8.038   7.770
    8AU     AUC 4004  11.755   8.039   7.739
    8AU     AUC 4005  11.391   7.197   7.765
    8AU     AUC 4006  11.713   7.198   7.786
    8AU     AUC 4007  11.416   8.030   7.234
    8AU     AUC 4008  11.734   8.017   7.219
    8AU     AUC 4009  11.397   7.199   7.249
    8AU     AUC 4010  11.726   7.181   7.266
    8AU    AUSL 4011  11.916   7.560   8.099
    8AU    AUSL 4012  11.883   7.128   8.138
    8AU     AUL 4013  12.116   7.214   8.395
    8AU       S 4014  12.141   6.851   8.058
    8AU     LIG 4015  12.067   6.660   8.440
    8AU     LIG 4016  12.090   6.217   8.570
    8AU     LIG 4017  12.323   5.870   8.768
    8AU     LIG 4018  12.618   5.627   9.046
    8AU     LIG 4019  12.692   5.439   9.465
    8AU     LIG 4020  12.687   5.303   9.926
    8AU       S 4021  11.990   7.573   8.659
    8AU     LIG 4022  12.293   7.305   8.891
    8AU     LIG 4023  12.518   7.159   9.286
    8AU     LIG 4024  12.829   7.188   9.651
    8AU     LIG 4025  13.201   7.336   9.927
    8AU     LIG 4026  13.540   7.375  10.266
    8AU     LIG 4027  13.737   7.512  10.679
    8AU    AUSL 4028  11.639   7.393   8.369
    8AU    AUSL 4029  11.527   7.800   8.291
    8AU     AUL 4030  11.583   7.761   8.708
    8AU       S 4031  11.716   7.388   8.509
    8AU     LIG 4032  11.856   7.044   8.797
    8AU     LIG 4033  12.057   6.909   9.234
    8AU     LIG 4034  12.143   6.741   9.707
    8AU     LIG 4035  12.181   6.628  10.195
    8AU     LIG 4036  12.343   6.587  10.650
    8AU     LIG 4037  12.584   6.421  11.032
    8AU       S 4038  11.214   7.511   8.649
    8AU     LIG 4039  11.059   7.426   9.105
    8AU     LIG 4040  10.882   7.355   9.530
    8AU     LIG 4041  10.897   7.373   9.999
    8AU     LIG 4042  10.974   7.671  10.377
    8AU     LIG 4043  10.828   7.945  10.745
    8AU     LIG 4044  10.516   8.145  11.051
    8AU    AUSL 4045  11.916   7.935   8.283
    8AU    AUSL 4046  12.246   7.795   7.976
    8AU     AUL 4047  12.212   7.655   8.277
    8AU       S 4048  11.938   7.957   8.491
    8AU     LIG 4049  12.020   8.101   8.940
    8AU     LIG 4050  12.208   8.297   9.358
    8AU     LIG 4051  12.231   8.435   9.841
    8AU     LIG 4052  12.251   8.504  10.326
    8AU     LIG 4053  12.495   8.407  10.727
    8AU     LIG 4054  12.472   8.457  11.211
    8AU       S 4055  12.545   7.862   8.028
    8AU     LIG 4056  12.766   7.855   8.416
    8AU     LIG 4057  12.990   8.119   8.725
    8AU     LIG 4058  13.283   8.365   8.990
    8AU     LIG 4059  13.549   8.574   9.314
    8AU     LIG 4060  13.928   8.651   9.602
    8AU     LIG 4061  14.242   8.954   9.798
    8AU    AUSL 4062  12.109   7.645   6.865
    8AU    AUSL 4063  11.866   8.041   6.814
    8AU     AUL 4064  12.223   7.992   6.448
    8AU       S 4065  12.138   7.670   6.712
    8AU     LIG 4066  12.434   7.571   6.325
    8AU     LIG 4067  12.444   7.400   5.893
    8AU     LIG 4068  12.589   7.279   5.445
    8AU     LIG 4069  12.997   7.232   5.155
    8AU     LIG 4070  13.421   7.225   4.887
    8AU     LIG 4071  13.681   7.239   4.473
    8AU       S 4072  11.852   8.092   6.649
    8AU     LIG 4073  12.145   8.465   6.563
    8AU     LIG 4074  12.521   8.503   6.268
    8AU     LIG 4075  12.821   8.644   5.896
    8AU     LIG 4076  13.007   8.806   5.450
    8AU     LIG 4077  13.108   9.112   5.062
    8AU     LIG 4078  13.213   9.434   4.705
    8AU    AUSL 4079  11.851   7.322   6.701
    8AU    AUSL 4080  12.189   7.256   6.994
    8AU     AUL 4081  12.283   7.265   6.678
    8AU       S 4082  12.155   6.843   6.814
    8AU     LIG 4083  12.359   6.616   6.450
    8AU     LIG 4084  12.528   6.201   6.297
    8AU     LIG 4085  12.789   5.923   5.998
    8AU     LIG 4086  13.167   5.888   5.692
    8AU     LIG 4087  13.603   5.903   5.478
    8AU     LIG 4088  13.916   5.911   5.111
    8AU       S 4089  11.952   7.534   6.442
    8AU     LIG 4090  12.073   7.159   6.223
    8AU     LIG 4091  12.137   7.008   5.768
    8AU     LIG 4092  12.165   6.995   5.285
    8AU     LIG 4093  12.101   6.898   4.805
    8AU     LIG 4094  12.164   6.643   4.383
    8AU     LIG 4095  12.452   6.520   4.010
    8AU    AUSL 4096  11.689   7.676   6.878
    8AU    AUSL 4097  11.439   7.416   6.657
    8AU     AUL 4098  11.648   7.203   6.562
    8AU       S 4099  11.395   7.516   6.325
    8AU     LIG 4100  11.372   7.215   5.992
    8AU     LIG 4101  11.094   6.985   5.665
    8AU     LIG 4102  10.846   6.849   5.264
    8AU     LIG 4103  10.769   6.538   4.879
    8AU     LIG 4104  10.683   6.381   4.429
    8AU     LIG 4105  10.545   6.551   4.002
    8AU       S 4106  11.834   7.648   6.498
    8AU     LIG 4107  11.917   7.594   5.969
    8AU     LIG 4108  12.080   7.468   5.529
    8AU     LIG 4109  12.173   7.461   5.062
    8AU     LIG 4110  12.226   7.623   4.624
    8AU     LIG 4111  12.379   7.916   4.283
    8AU     LIG 4112  12.678   8.105   3.965
    8AU    AUSL 4113  11.134   7.680   8.221
    8AU    AUSL 4114  11.273   8.094   8.136
    8AU     AUL 4115  11.313   7.992   8.423
    8AU       S 4116  11.055   7.688   8.670
    8AU     LIG 4117  10.717   7.373   8.711
    8AU     LIG 4118  10.568   7.194   9.133
    8AU     LIG 4119  10.400   7.153   9.601
    8AU     LIG 4120  10.108   7.126  10.000
    8AU     LIG 4121   9.886   7.213  10.427
    8AU     LIG 4122   9.542   7.237  10.764
    8AU       S 4123  10.860   8.056   8.361
    8AU     LIG 4124  10.875   8.179   8.794
    8AU     LIG 4125  10.825   8.525   9.114
    8AU     LIG 4126  10.628   8.882   9.358
    8AU     LIG 4127  10.555   9.175   9.741
    8AU     LIG 4128  10.364   9.356  10.159
    8AU     LIG 4129  10.086   9.547  10.515
    8AU    AUSL 4130  11.439   7.480   8.020
    8AU    AUSL 4131  10.890   7.418   8.006
    8AU     AUL 4132  10.943   7.537   8.250
    8AU       S 4133  10.732   7.115   8.234
    8AU     LIG 4134  10.302   6.911   8.206
    8AU     LIG 4135   9.918   6.639   8.278
    8AU     LIG 4136   9.705   6.311   8.547
    8AU     LIG 4137   9.574   5.942   8.817
    8AU     LIG 4138   9.367   5.784   9.194
    8AU     LIG 4139   8.987   5.876   9.464
    8AU       S 4140  11.236   7.397   8.602
    8AU     LIG 4141  11.061   7.011   8.815
    8AU     LIG 4142  10.966   6.905   9.277
    8AU     LIG 4143  10.824   6.881   9.742
    8AU     LIG 4144  10.625   6.761  10.160
    8AU     LIG 4145  10.545   6.601  10.612
    8AU     LIG 4146  10.547   6.702  11.084
    8AU    AUSL 4147  11.181   7.562   6.953
    8AU    AUSL 4148  11.324   7.137   6.938
    8AU     AUL 4149  11.149   7.247   6.639
    8AU       S 4150  11.157   7.600   6.314
    8AU     LIG 4151  10.891   7.398   5.989
    8AU     LIG 4152  10.687   7.279   5.572
    8AU     LIG 4153  10.374   7.112   5.257
    8AU     LIG 4154   9.931   7.127   5.055
    8AU     LIG 4155   9.623   7.207   4.695
    8AU     LIG 4156   9.465   7.328   4.273
    8AU       S 4157  10.861   6.855   6.787
    8AU     LIG 4158  10.537   6.516   6.746
    8AU     LIG 4159  10.226   6.254   6.506
    8AU     LIG 4160   9.950   6.023   6.174
    8AU     LIG 4161   9.784   5.812   5.756
    8AU     LIG 4162   9.829   5.672   5.277
    8AU     LIG 4163   9.973   5.366   4.919
    8AU    AUSL 4164  11.370   7.849   6.668
    8AU    AUSL 4165  10.944   7.906   6.942
    8AU     AUL 4166  10.964   7.680   6.717
    8AU       S 4167  10.925   8.143   6.729
    8AU     LIG 4168  10.638   8.242   6.352
    8AU     LIG 4169  10.479   8.479   5.948
    8AU     LIG 4170  10.251   8.604   5.536
    8AU     LIG 4171   9.895   8.741   5.242
    8AU     LIG 4172   9.438   8.823   5.151
    8AU     LIG 4173   8.968   8.911   5.137
    8AU       S 4174  11.374   7.779   6.464
    8AU     LIG 4175  11.400   7.772   5.917
    8AU     LIG 4176  11.191   7.492   5.575
    8AU     LIG 4177  10.983   7.388   5.153
    8AU     LIG 4178  10.904   7.593   4.712
    8AU     LIG 4179  10.736   7.867   4.335
    8AU     LIG 4180  10.589   8.190   3.994
    8AU    AUSL 4181  12.204   8.224   7.431
    8AU    AUSL 4182  12.218   7.998   7.061
    8AU     AUL 4183  12.331   8.441   7.229
    8AU       S 4184  12.341   8.101   6.878
    8AU     LIG 4185  12.696   8.028   6.588
    8AU     LIG 4186  12.954   8.213   6.225
    8AU     LIG 4187  13.288   8.429   5.952
    8AU     LIG 4188  13.603   8.436   5.579
    8AU     LIG 4189  13.993   8.569   5.323
    8AU     LIG 4190  14.386   8.713   5.094
    8AU       S 4191  12.660   8.117   7.329
    8AU     LIG 4192  13.154   8.167   7.472
    8AU     LIG 4193  13.660   8.267   7.507
    8AU     LIG 4194  14.155   8.393   7.498
    8AU     LIG 4195  14.608   8.613   7.530
    8AU     LIG 4196  14.932   9.015   7.587
    8AU     LIG 4197  15.082   9.453   7.798
    8AU    AUSL 4198  12.408   7.672   7.225
    8AU    AUSL 4199  12.430   7.498   7.641
    8AU     AUL 4200  12.636   7.444   7.296
    8AU       S 4201  12.605   7.905   7.313
    8AU     LIG 4202  13.032   7.766   7.172
    8AU     LIG 4203  13.502   7.834   7.249
    8AU     LIG 4204  13.978   7.939   7.258
    8AU     LIG 4205  14.450   8.036   7.256
    8AU     LIG 4206  14.842   8.180   7.050
    8AU     LIG 4207  15.297   8.209   6.968
    8AU       S 4208  12.789   7.161   7.632
    8AU     LIG 4209  13.042   6.848   7.857
    8AU     LIG 4210  13.456   6.597   7.830
    8AU     LIG 4211  13.898   6.399   7.768
    8AU     LIG 4212  14.389   6.356   7.771
    8AU     LIG 4213  14.898   6.372   7.828
    8AU     LIG 4214  15.391   6.440   7.899
    8AU    AUSL 4215  12.189   7.825   7.564
    8AU    AUSL 4216  12.106   8.170   7.838
    8AU     AUL 4217  12.365   8.134   7.695
    8AU       S 4218  12.407   8.149   8.145
    8AU     LIG 4219  12.777   8.379   8.325
    8AU     LIG 4220  13.004   8.645   8.658
    8AU     LIG 4221  13.365   8.882   8.884
    8AU     LIG 4222  13.684   9.249   8.931
    8AU     LIG 4223  13.956   9.661   8.945
    8AU     LIG 4224  13.969  10.135   8.866
    8AU       S 4225  12.704   7.869   7.550
    8AU     LIG 4226  13.106   7.700   7.690
    8AU     LIG 4227  13.572   7.823   7.759
    8AU     LIG 4228  14.044   7.967   7.766
    8AU     LIG 4229  14.526   8.101   7.763
    8AU     LIG 4230  14.977   8.013   7.931
    8AU     LIG 4231  15.364   8.097   8.156
    8AU    AUSL 4232  10.916   8.181   7.574
    8AU    AUSL 4233  10.962   7.909   7.919
    8AU     AUL 4234  10.925   8.357   7.845
    8AU       S 4235  10.757   7.981   8.108
    8AU     LIG 4236  10.401   8.166   8.444
    8AU     LIG 4237  10.387   8.383   8.874
    8AU     LIG 4238  10.237   8.503   9.324
    8AU     LIG 4239   9.875   8.541   9.665
    8AU     LIG 4240   9.480   8.716   9.896
    8AU     LIG 4241   9.054   8.875  10.064
    8AU       S 4242  10.550   8.213   7.631
    8AU     LIG 4243  10.423   8.642   7.508
    8AU     LIG 4244  10.111   9.011   7.484
    8AU     LIG 4245   9.734   9.318   7.516
    8AU     LIG 4246   9.340   9.545   7.670
    8AU     LIG 4247   9.103   9.892   7.892
    8AU     LIG 4248   8.645   9.975   7.954
    8AU    AUSL 4249  10.996   7.840   7.345
    8AU    AUSL 4250  11.084   8.251   7.190
    8AU     AUL 4251  10.814   8.178   7.212
    8AU       S 4252  10.422   8.121   7.471
    8AU     LIG 4253   9.976   8.059   7.258
    8AU     LIG 4254   9.556   8.152   6.968
    8AU     LIG 4255   9.124   8.279   6.738
    8AU     LIG 4256   8.790   8.645   6.659
    8AU     LIG 4257   8.388   8.896   6.503
    8AU     LIG 4258   7.907   9.072   6.506
    8AU       S 4259  10.917   8.418   6.814
    8AU     LIG 4260  10.892   8.677   6.421
    8AU     LIG 4261  10.683   8.940   6.085
    8AU     LIG 4262  10.483   9.283   5.832
    8AU     LIG 4263  10.142   9.627   5.790
    8AU     LIG 4264   9.752   9.922   5.844
    8AU     LIG 4265   9.460  10.307   5.884
    8AU    AUSL 4266  10.701   7.766   7.642
    8AU    AUSL 4267  10.751   7.512   7.291
    8AU     AUL 4268  10.603   7.771   7.247
    8AU       S 4269  10.402   7.328   7.408
    8AU     LIG 4270  10.105   7.207   7.786
    8AU     LIG 4271   9.620   7.270   7.832
    8AU     LIG 4272   9.148   7.308   7.719
    8AU     LIG 4273   8.809   7.384   7.351
    8AU     LIG 4274   8.471   7.073   7.148
    8AU     LIG 4275   8.018   6.940   6.990
    8AU       S 4276  10.515   7.824   7.718
    8AU     LIG 4277  10.202   8.057   7.973
    8AU     LIG 4278   9.771   8.235   8.126
    8AU     LIG 4279   9.376   8.488   8.247
    8AU     LIG 4280   8.906   8.413   8.312
    8AU     LIG 4281   8.418   8.393   8.358
    8AU     LIG 4282   8.047   8.654   8.562
    8AU    AUSL 4283  12.275   7.094   7.574
    8AU    AUSL 4284  12.216   7.320   7.947
    8AU     AUL 4285  12.500   7.352   7.930
    8AU       S 4286  12.494   6.950   7.611
    8AU     LIG 4287  12.632   6.555   7.746
    8AU     LIG 4288  13.048   6.335   7.646
    8AU     LIG 4289  13.491   6.136   7.564
    8AU     LIG 4290  13.929   5.926   7.499
    8AU     LIG 4291  14.309   5.633   7.472
    8AU     LIG 4292  14.616   5.479   7.795
    8AU       S 4293  12.229   6.981   8.022
    8AU     LIG 4294  12.572   6.704   8.244
    8AU     LIG 4295  12.592   6.338   8.533
    8AU     LIG 4296  12.831   6.012   8.779
    8AU     LIG 4297  13.124   5.770   9.071
    8AU     LIG 4298  13.537   5.763   9.319
    8AU     LIG 4299  13.949   5.691   9.555
    8AU    AUSL 4300  12.115   7.421   7.364
    8AU    AUSL 4301  12.031   6.957   7.262
    8AU     AUL 4302  12.335   7.097   7.187
    8AU       S 4303  12.573   7.054   7.570
    8AU     LIG 4304  12.932   6.765   7.361
    8AU     LIG 4305  13.393   6.581   7.315
    8AU     LIG 4306  13.853   6.382   7.257
    8AU     LIG 4307  14.327   6.199   7.275
    8AU     LIG 4308  14.824   6.212   7.176
    8AU     LIG 4309  15.238   6.386   6.976
    8AU       S 4310  12.220   6.693   6.962
    8AU     LIG 4311  12.151   6.254   6.765
    8AU     LIG 4312  12.276   5.821   6.563
    8AU     LIG 4313  12.590   5.539   6.323
    8AU     LIG 4314  12.826   5.116   6.231
    8AU     LIG 4315  13.261   4.882   6.179
    8AU     LIG 4316  13.716   4.793   5.995
    8AU    AUSL 4317  10.843   7.131   7.477
    8AU    AUSL 4318  10.936   7.239   7.049
    8AU     AUL 4319  10.677   7.343   7.023
    8AU       S 4320  10.829   6.909   7.035
    8AU     LIG 4321  10.366   6.954   6.942
    8AU     LIG 4322  10.015   6.730   6.704
    8AU     LIG 4323   9.784   6.479   6.376
    8AU     LIG 4324   9.463   6.192   6.213
    8AU     LIG 4325   9.169   6.109   5.871
    8AU     LIG 4326   9.180   5.922   5.441
    8AU       S 4327  10.534   7.116   7.402
    8AU     LIG 4328  10.108   6.901   7.385
    8AU     LIG 4329   9.657   6.871   7.514
    8AU     LIG 4330   9.283   6.812   7.794
    8AU     LIG 4331   8.906   6.522   7.787
    8AU     LIG 4332   8.456   6.457   7.648
    8AU     LIG 4333   8.035   6.260   7.611
    8AU    AUSL 4334  11.017   7.499   7.629
    8AU    AUSL 4335  11.102   7.107   7.811
    8AU     AUL 4336  10.723   7.276   7.794
    8AU       S 4337  10.817   6.917   8.067
    8AU     LIG 4338  10.509   6.765   7.765
    8AU     LIG 4339  10.217   6.424   7.919
    8AU     LIG 4340   9.982   6.084   8.183
    8AU     LIG 4341   9.610   5.804   8.331
    8AU     LIG 4342   9.396   5.406   8.559
    8AU     LIG 4343   9.282   4.966   8.769
    8AU       S 4344  10.444   7.399   7.462
    8AU     LIG 4345   9.939   7.511   7.404
    8AU     LIG 4346   9.491   7.334   7.325
    8AU     LIG 4347   9.146   6.989   7.330
    8AU     LIG 4348   8.748   6.974   7.631
    8AU     LIG 4349   8.348   6.927   7.868
    8AU     LIG 4350   7.915   7.092   7.822
    8AU    AUSL 4351  11.627   8.297   8.040
    8AU    AUSL 4352  11.291   8.079   7.721
    8AU     AUL 4353  11.325   8.375   8.119
    8AU       S 4354  10.925   8.205   8.272
    8AU     LIG 4355  10.731   8.565   8.482
    8AU     LIG 4356  10.583   8.863   8.811
    8AU     LIG 4357  10.430   9.243   9.034
    8AU     LIG 4358  10.137   9.605   9.116
    8AU     LIG 4359   9.725   9.837   9.176
    8AU     LIG 4360   9.379  10.159   9.274
    8AU       S 4361  11.678   8.683   8.007
    8AU     LIG 4362  11.855   8.862   8.374
    8AU     LIG 4363  11.863   9.293   8.550
    8AU     LIG 4364  11.917   9.719   8.734
    8AU     LIG 4365  11.908   9.969   9.140
    8AU     LIG 4366  11.901  10.338   9.439
    8AU     LIG 4367  11.727  10.601   9.800
    8AU    AUSL 4368  11.367   8.479   7.678
    8AU    AUSL 4369  11.819   8.460   7.261
    8AU     AUL 4370  11.476   8.711   7.437
    8AU       S 4371  11.527   8.762   7.891
    8AU     LIG 4372  11.698   9.196   8.021
    8AU     LIG 4373  11.770   9.628   8.166
    8AU     LIG 4374  11.555   9.982   8.334
    8AU     LIG 4375  11.315  10.379   8.350
    8AU     LIG 4376  11.124  10.813   8.365
    8AU     LIG 4377  11.241  11.268   8.418
    8AU       S 4378  11.865   8.780   7.174
    8AU     LIG 4379  12.192   8.976   6.952
    8AU     LIG 4380  12.227   9.410   6.755
    8AU     LIG 4381  12.188   9.877   6.582
    8AU     LIG 4382  12.345  10.359   6.556
    8AU     LIG 4383  12.529  10.830   6.487
    8AU     LIG 4384  12.647  11.316   6.440
    8AU    AUSL 4385  11.770   8.314   7.646
    8AU    AUSL 4386  11.766   7.934   7.904
    8AU     AUL 4387  11.958   8.324   8.038
    8AU       S 4388  12.344   8.084   8.219
    8AU     LIG 4389  12.451   8.176   8.669
    8AU     LIG 4390  12.680   8.422   9.006
    8AU     LIG 4391  12.987   8.727   9.205
    8AU     LIG 4392  13.152   9.037   9.528
    8AU     LIG 4393  13.131   9.416   9.837
    8AU     LIG 4394  13.295   9.803  10.068
    8AU       S 4395  11.847   8.634   7.714
    8AU     LIG 4396  12.130   8.920   7.936
    8AU     LIG 4397  12.198   9.338   8.161
    8AU     LIG 4398  12.239   9.801   8.322
    8AU     LIG 4399  12.432  10.262   8.324
    8AU     LIG 4400  12.559  10.737   8.258
    8AU     LIG 4401  12.486  11.191   8.377
    8AU    AUSL 4402  11.531   7.044   7.934
    8AU    AUSL 4403  11.893   7.166   7.720
    8AU     AUL 4404  11.716   6.930   8.194
    8AU       S 4405  11.605   6.505   8.062
    8AU     LIG 4406  11.715   6.106   8.226
    8AU     LIG 4407  11.421   5.754   8.269
    8AU     LIG 4408  11.277   5.322   8.357
    8AU     LIG 4409  11.353   4.983   8.658
    8AU     LIG 4410  11.278   4.789   9.075
    8AU     LIG 4411  11.255   4.497   9.448
    8AU       S 4412  12.184   6.789   7.925
    8AU     LIG 4413  12.198   6.337   8.064
    8AU     LIG 4414  12.419   5.947   8.250
    8AU     LIG 4415  12.671   5.602   8.504
    8AU     LIG 4416  12.987   5.339   8.786
    8AU     LIG 4417  13.379   5.020   8.881
    8AU     LIG 4418  13.795   4.854   9.108
    8AU    AUSL 4419  11.339   6.803   7.655
    8AU    AUSL 4420  11.242   7.174   8.208
    8AU     AUL 4421  11.265   6.830   8.015
    8AU       S 4422  11.426   6.405   7.924
    8AU     LIG 4423  11.328   5.987   7.715
    8AU     LIG 4424  11.247   5.515   7.838
    8AU     LIG 4425  10.916   5.167   8.001
    8AU     LIG 4426  10.640   4.740   8.030
    8AU     LIG 4427  10.596   4.237   8.023
    8AU     LIG 4428  10.741   3.791   8.176
    8AU       S 4429  10.988   7.056   8.307
    8AU     LIG 4430  10.678   6.719   8.526
    8AU     LIG 4431  10.316   6.382   8.482
    8AU     LIG 4432  10.088   6.002   8.699
    8AU     LIG 4433   9.953   5.775   9.111
    8AU     LIG 4434   9.754   5.570   9.486
    8AU     LIG 4435   9.792   5.360   9.902
    8AU    AUSL 4436  11.786   6.766   7.708
    8AU    AUSL 4437  11.296   6.795   7.237
    8AU     AUL 4438  11.481   6.558   7.497
    8AU       S 4439  11.226   6.452   7.101
    8AU     LIG 4440  11.130   5.994   7.165
    8AU     LIG 4441  10.974   5.537   7.099
    8AU     LIG 4442  10.599   5.196   7.056
    8AU     LIG 4443  10.305   4.800   6.970
    8AU     LIG 4444  10.346   4.356   6.785
    8AU     LIG 4445  10.705   4.230   6.485
    8AU       S 4446  11.736   6.589   7.872
    8AU     LIG 4447  11.828   6.169   7.723
    8AU     LIG 4448  11.744   5.737   7.863
    8AU     LIG 4449  11.722   5.355   8.122
    8AU     LIG 4450  11.635   4.929   8.218
    8AU     LIG 4451  11.919   4.560   8.228
    8AU     LIG 4452  12.083   4.118   8.295
    8AU    AUSL 4453  11.557   8.289   6.943
    8AU    AUSL 4454  11.867   8.048   7.262
    8AU     AUL 4455  11.929   8.363   6.991
    8AU       S 4456  11.610   8.635   6.795
    8AU     LIG 4457  11.870   8.917   6.563
    8AU     LIG 4458  11.863   9.344   6.402
    8AU     LIG 4459  11.944   9.659   6.062
    8AU     LIG 4460  11.915   9.915   5.662
    8AU     LIG 4461  11.939  10.253   5.339
    8AU     LIG 4462  11.819  10.656   5.140
    8AU       S 4463  12.295   8.073   6.955
    8AU     LIG 4464  12.613   8.490   6.793
    8AU     LIG 4465  12.962   8.662   6.481
    8AU     LIG 4466  13.299   8.907   6.228
    8AU     LIG 4467  13.600   9.308   6.181
    8AU     LIG 4468  13.784   9.759   6.100
    8AU     LIG 4469  14.152  10.051   6.022
    8AU    AUSL 4470  11.464   8.247   7.351
    8AU    AUSL 4471  11.354   7.953   7.063
    8AU     AUL 4472  11.296   8.440   7.090
    8AU       S 4473  11.663   8.746   7.026
    8AU     LIG 4474  11.721   9.222   6.951
    8AU     LIG 4475  11.779   9.659   6.808
    8AU     LIG 4476  11.617  10.058   6.680
    8AU     LIG 4477  11.331  10.435   6.710
    8AU     LIG 4478  11.177  10.767   6.432
    8AU     LIG 4479  11.100  11.217   6.274
    8AU       S 4480  11.156   8.254   6.684
    8AU     LIG 4481  11.137   8.256   6.228
    8AU     LIG 4482  10.980   8.566   5.879
    8AU     LIG 4483  10.706   8.849   5.564
    8AU     LIG 4484  10.574   9.067   5.131
    8AU     LIG 4485  10.332   9.314   4.782
    8AU     LIG 4486  10.075   9.615   4.510
    8AU    AUSL 4487  11.651   6.887   6.977
    8AU    AUSL 4488  11.231   7.185   7.350
    8AU     AUL 4489  11.289   6.887   6.940
    8AU       S 4490  10.845   6.785   7.166
    8AU     LIG 4491  10.462   6.554   7.255
    8AU     LIG 4492  10.089   6.340   7.017
    8AU     LIG 4493   9.779   6.090   6.708
    8AU     LIG 4494   9.603   5.721   6.427
    8AU     LIG 4495   9.400   5.291   6.266
    8AU     LIG 4496   9.196   4.856   6.110
    8AU       S 4497  11.556   6.519   6.891
    8AU     LIG 4498  11.629   6.100   6.728
    8AU     LIG 4499  11.371   5.714   6.774
    8AU     LIG 4500  11.342   5.306   6.539
    8AU     LIG 4501  11.435   4.982   6.205
    8AU     LIG 4502  11.306   4.683   5.841
    8AU     LIG 4503  11.456   4.400   5.481
    8AU    AUSL 4504  11.638   6.985   7.393
    8AU    AUSL 4505  11.767   7.262   7.094
    8AU     AUL 4506  11.826   6.746   7.198
    8AU       S 4507  11.466   6.464   7.059
    8AU     LIG 4508  11.622   6.084   7.253
    8AU     LIG 4509  11.492   5.632   7.281
    8AU     LIG 4510  11.403   5.236   7.040
    8AU     LIG 4511  11.684   4.946   6.767
    8AU     LIG 4512  12.056   4.611   6.735
    8AU     LIG 4513  12.436   4.286   6.705
    8AU       S 4514  12.018   6.879   6.728
    8AU     LIG 4515  11.848   6.550   6.474
    8AU     LIG 4516  11.996   6.150   6.273
    8AU     LIG 4517  12.267   5.838   6.038
    8AU     LIG 4518  12.507   5.512   5.797
    8AU     LIG 4519  12.735   5.404   5.386
    8AU     LIG 4520  12.821   5.167   4.977
    9AU     AUC 4521  23.172   5.187   7.519
    9AU     AUC 4522  23.428   5.186   7.372
    9AU     AUC 4523  23.422   5.172   7.675
    9AU     AUC 4524  22.911   5.190   7.350
    9AU     AUC 4525  22.905   5.210   7.656
    9AU     AUC 4526  23.024   5.450   7.528
    9AU     AUC 4527  23.344   5.426   7.510
    9AU     AUC 4528  23.021   4.928   7.519
    9AU     AUC 4529  23.311   4.929   7.542
    9AU     AUC 4530  23.155   5.040   7.784
    9AU     AUC 4531  23.178   5.361   7.765
    9AU     AUC 4532  23.181   5.033   7.260
    9AU     AUC 4533  23.175   5.324   7.246
    9AU     AUC 4534  23.691   5.184   7.213
    9AU     AUC 4535  23.695   5.173   7.516
    9AU     AUC 4536  23.680   5.157   7.837
    9AU     AUC 4537  22.660   5.185   7.199
    9AU     AUC 4538  22.648   5.176   7.496
    9AU     AUC 4539  22.649   5.223   7.811
    9AU     AUC 4540  22.883   5.705   7.522
    9AU     AUC 4541  23.201   5.711   7.528
    9AU     AUC 4542  23.512   5.696   7.507
    9AU     AUC 4543  22.846   4.683   7.521
    9AU     AUC 4544  23.157   4.662   7.518
    9AU     AUC 4545  23.459   4.659   7.547
    9AU     AUC 4546  23.139   4.888   8.044
    9AU     AUC 4547  23.155   5.194   8.047
    9AU     AUC 4548  23.181   5.506   8.022
    9AU     AUC 4549  23.181   4.877   7.019
    9AU     AUC 4550  23.170   5.178   6.988
    9AU     AUC 4551  23.182   5.493   6.985
    9AU     AUC 4552  23.425   5.039   7.957
    9AU     AUC 4553  23.421   5.333   7.956
    9AU     AUC 4554  23.439   5.029   7.100
    9AU     AUC 4555  23.452   5.329   7.080
    9AU     AUC 4556  22.890   5.054   7.942
    9AU     AUC 4557  22.908   5.380   7.933
    9AU     AUC 4558  22.910   5.033   7.091
    9AU     AUC 4559  22.905   5.355   7.100
    9AU     AUC 4560  23.601   5.448   7.357
    9AU     AUC 4561  23.605   5.414   7.676
    9AU     AUC 4562  22.753   5.436   7.355
    9AU     AUC 4563  22.756   5.476   7.654
    9AU     AUC 4564  23.583   4.921   7.382
    9AU     AUC 4565  23.578   4.912   7.698
    9AU     AUC 4566  22.750   4.929   7.348
    9AU     AUC 4567  22.758   4.941   7.682
    9AU     AUC 4568  23.026   5.614   7.775
    9AU     AUC 4569  23.366   5.606   7.760
    9AU     AUC 4570  22.998   4.763   7.769
    9AU     AUC 4571  23.303   4.770   7.810
    9AU     AUC 4572  23.034   5.597   7.263
    9AU     AUC 4573  23.349   5.588   7.239
    9AU     AUC 4574  22.999   4.768   7.259
    9AU     AUC 4575  23.324   4.763   7.274
    9AU    AUSL 4576  23.501   5.159   8.154
    9AU    AUSL 4577  23.465   4.729   8.188
    9AU     AUL 4578  23.727   4.952   8.432
    9AU       S 4579  23.763   4.505   8.294
    9AU     LIG 4580  23.562   4.192   8.506
    9AU     LIG 4581  23.634   3.788   8.650
    9AU     LIG 4582  23.880   3.513   8.901
    9AU     LIG 4583  24.128   3.234   9.178
    9AU     LIG 4584  24.210   3.022   9.590
    9AU     LIG 4585  24.310   2.876  10.039
    9AU       S 4586  23.479   5.226   8.713
    9AU     LIG 4587  23.748   4.936   8.943
    9AU     LIG 4588  24.037   4.717   9.235
    9AU     LIG 4589  24.362   4.699   9.572
    9AU     LIG 4590  24.744   4.751   9.849
    9AU     LIG 4591  25.019   4.805  10.227
    9AU     LIG 4592  25.181   4.786  10.666
    9AU    AUSL 4593  23.206   4.985   8.402
    9AU    AUSL 4594  22.987   5.351   8.352
    9AU     AUL 4595  23.037   5.353   8.724
    9AU       S 4596  23.289   5.019   8.559
    9AU     LIG 4597  23.393   4.620   8.751
    9AU     LIG 4598  23.591   4.446   9.179
    9AU     LIG 4599  23.722   4.274   9.646
    9AU     LIG 4600  23.763   4.115  10.130
    9AU     LIG 4601  23.879   4.082  10.607
    9AU     LIG 4602  24.056   4.184  11.045
    9AU       S 4603  22.716   5.059   8.607
    9AU     LIG 4604  22.743   5.047   9.098
    9AU     LIG 4605  22.529   4.968   9.515
    9AU     LIG 4606  22.427   4.986   9.974
    9AU     LIG 4607  22.509   5.274  10.366
    9AU     LIG 4608  22.432   5.561  10.752
    9AU     LIG 4609  22.203   5.701  11.158
    9AU    AUSL 4610  23.359   5.520   8.329
    9AU    AUSL 4611  23.847   5.361   8.044
    9AU     AUL 4612  23.678   5.428   8.360
    9AU       S 4613  23.319   5.652   8.520
    9AU     LIG 4614  23.667   5.689   8.843
    9AU     LIG 4615  23.746   5.812   9.314
    9AU     LIG 4616  23.682   5.990   9.772
    9AU     LIG 4617  23.817   6.049  10.231
    9AU     LIG 4618  24.025   6.079  10.660
    9AU     LIG 4619  24.098   6.023  11.125
    9AU       S 4620  24.097   5.268   8.164
    9AU     LIG 4621  24.509   5.450   8.276
    9AU     LIG 4622  24.693   5.670   8.651
    9AU     LIG 4623  24.929   5.931   8.977
    9AU     LIG 4624  25.214   6.179   9.284
    9AU     LIG 4625  25.607   6.171   9.597
    9AU     LIG 4626  25.996   6.308   9.862
    9AU    AUSL 4627  23.589   5.223   6.966
    9AU    AUSL 4628  23.449   5.647   6.885
    9AU     AUL 4629  23.675   5.564   6.597
    9AU       S 4630  23.644   5.158   6.364
    9AU     LIG 4631  24.060   5.064   6.263
    9AU     LIG 4632  24.188   4.824   5.893
    9AU     LIG 4633  24.273   4.717   5.444
    9AU     LIG 4634  24.528   4.733   5.040
    9AU     LIG 4635  24.978   4.735   4.832
    9AU     LIG 4636  25.390   4.788   4.576
    9AU       S 4637  23.925   5.914   6.779
    9AU     LIG 4638  24.161   5.853   6.400
    9AU     LIG 4639  24.389   6.038   6.028
    9AU     LIG 4640  24.612   6.270   5.679
    9AU     LIG 4641  24.639   6.631   5.360
    9AU     LIG 4642  24.787   6.875   4.967
    9AU     LIG 4643  24.807   7.320   4.781
    9AU    AUSL 4644  23.425   4.905   6.711
    9AU    AUSL 4645  23.811   4.869   7.000
    9AU     AUL 4646  23.838   5.111   6.772
    9AU       S 4647  23.873   4.630   6.753
    9AU     LIG 4648  24.114   4.311   6.459
    9AU     LIG 4649  24.243   3.865   6.286
    9AU     LIG 4650  24.458   3.494   6.046
    9AU     LIG 4651  24.781   3.282   5.745
    9AU     LIG 4652  25.181   3.403   5.483
    9AU     LIG 4653  25.561   3.366   5.184
    9AU       S 4654  23.604   4.906   6.423
    9AU     LIG 4655  23.795   4.615   6.188
    9AU     LIG 4656  23.826   4.480   5.753
    9AU     LIG 4657  23.838   4.486   5.285
    9AU     LIG 4658  23.954   4.488   4.826
    9AU     LIG 4659  23.981   4.294   4.394
    9AU     LIG 4660  24.085   4.319   3.932
    9AU    AUSL 4661  23.310   5.317   6.670
    9AU    AUSL 4662  23.048   5.056   6.855
    9AU     AUL 4663  23.166   4.869   6.551
    9AU       S 4664  22.928   5.194   6.335
    9AU     LIG 4665  22.966   4.907   6.010
    9AU     LIG 4666  22.721   4.622   5.720
    9AU     LIG 4667  22.533   4.470   5.305
    9AU     LIG 4668  22.400   4.235   4.901
    9AU     LIG 4669  22.355   4.086   4.431
    9AU     LIG 4670  22.115   4.074   4.013
    9AU       S 4671  23.427   5.214   6.408
    9AU     LIG 4672  23.511   4.984   5.927
    9AU     LIG 4673  23.809   4.952   5.539
    9AU     LIG 4674  23.974   4.946   5.078
    9AU     LIG 4675  23.924   5.036   4.606
    9AU     LIG 4676  24.039   5.326   4.235
    9AU     LIG 4677  24.131   5.690   3.947
    9AU    AUSL 4678  22.657   5.206   8.150
    9AU    AUSL 4679  22.938   5.571   8.005
    9AU     AUL 4680  22.754   5.526   8.362
    9AU       S 4681  22.546   5.200   8.645
    9AU     LIG 4682  22.356   4.800   8.860
    9AU     LIG 4683  22.155   4.694   9.286
    9AU     LIG 4684  22.000   4.755   9.738
    9AU     LIG 4685  21.753   4.652  10.124
    9AU     LIG 4686  21.379   4.611  10.383
    9AU     LIG 4687  21.164   4.750  10.776
    9AU       S 4688  22.506   5.885   8.206
    9AU     LIG 4689  22.556   5.918   8.665
    9AU     LIG 4690  22.452   6.165   9.062
    9AU     LIG 4691  22.209   6.474   9.334
    9AU     LIG 4692  22.072   6.631   9.773
    9AU     LIG 4693  21.915   6.867  10.172
    9AU     LIG 4694  21.688   7.243  10.374
    9AU    AUSL 4695  23.033   5.058   8.037
    9AU    AUSL 4696  22.440   4.907   7.952
    9AU     AUL 4697  22.479   5.084   8.207
    9AU       S 4698  22.242   4.683   8.208
    9AU     LIG 4699  21.927   4.402   8.086
    9AU     LIG 4700  21.557   4.171   8.141
    9AU     LIG 4701  21.368   3.955   8.510
    9AU     LIG 4702  21.182   3.698   8.844
    9AU     LIG 4703  20.928   3.432   9.121
    9AU     LIG 4704  20.555   3.445   9.412
    9AU       S 4705  22.786   4.974   8.595
    9AU     LIG 4706  22.845   4.610   8.839
    9AU     LIG 4707  22.646   4.527   9.260
    9AU     LIG 4708  22.433   4.486   9.698
    9AU     LIG 4709  22.169   4.328  10.076
    9AU     LIG 4710  22.135   4.173  10.540
    9AU     LIG 4711  22.047   4.234  11.011
    9AU    AUSL 4712  22.657   5.193   6.873
    9AU    AUSL 4713  22.856   4.698   6.899
    9AU     AUL 4714  22.721   4.922   6.657
    9AU       S 4715  22.632   5.266   6.362
    9AU     LIG 4716  22.452   4.987   6.023
    9AU     LIG 4717  22.255   4.808   5.601
    9AU     LIG 4718  22.012   4.517   5.278
    9AU     LIG 4719  21.669   4.453   4.938
    9AU     LIG 4720  21.309   4.657   4.660
    9AU     LIG 4721  21.175   4.946   4.294
    9AU       S 4722  22.508   4.482   6.729
    9AU     LIG 4723  22.228   4.079   6.693
    9AU     LIG 4724  21.931   3.795   6.486
    9AU     LIG 4725  21.675   3.510   6.212
    9AU     LIG 4726  21.581   3.337   5.781
    9AU     LIG 4727  21.730   3.119   5.370
    9AU     LIG 4728  21.709   2.976   4.916
    9AU    AUSL 4729  22.925   5.477   6.701
    9AU    AUSL 4730  22.649   5.578   7.045
    9AU     AUL 4731  22.494   5.443   6.767
    9AU       S 4732  22.568   5.897   6.794
    9AU     LIG 4733  22.256   5.825   6.452
    9AU     LIG 4734  22.102   6.005   6.017
    9AU     LIG 4735  21.832   6.090   5.606
    9AU     LIG 4736  21.430   6.202   5.336
    9AU     LIG 4737  21.029   6.365   5.112
    9AU     LIG 4738  20.856   6.738   4.861
    9AU       S 4739  22.888   5.389   6.484
    9AU     LIG 4740  22.802   5.433   5.935
    9AU     LIG 4741  22.689   5.125   5.589
    9AU     LIG 4742  22.551   4.990   5.158
    9AU     LIG 4743  22.588   5.165   4.697
    9AU     LIG 4744  22.603   5.388   4.260
    9AU     LIG 4745  22.488   5.512   3.806
    9AU    AUSL 4746  23.868   5.718   7.454
    9AU    AUSL 4747  23.830   5.546   7.055
    9AU     AUL 4748  23.859   5.974   7.259
    9AU       S 4749  24.041   5.585   6.878
    9AU     LIG 4750  24.336   5.415   6.611
    9AU     LIG 4751  24.632   5.640   6.311
    9AU     LIG 4752  24.886   5.918   6.005
    9AU     LIG 4753  25.179   5.996   5.631
    9AU     LIG 4754  25.583   6.137   5.414
    9AU     LIG 4755  25.904   6.453   5.263
    9AU       S 4756  24.261   5.723   7.314
    9AU     LIG 4757  24.767   5.826   7.277
    9AU     LIG 4758  25.240   5.807   7.450
    9AU     LIG 4759  25.727   5.882   7.520
    9AU     LIG 4760  26.113   6.189   7.526
    9AU     LIG 4761  26.241   6.611   7.706
    9AU     LIG 4762  26.490   6.908   7.983
    9AU    AUSL 4763  24.009   5.271   7.306
    9AU    AUSL 4764  24.028   5.041   7.681
    9AU     AUL 4765  24.276   5.226   7.681
    9AU       S 4766  24.238   5.348   7.236
    9AU     LIG 4767  24.651   5.376   7.051
    9AU     LIG 4768  25.105   5.378   7.201
    9AU     LIG 4769  25.584   5.417   7.303
    9AU     LIG 4770  26.004   5.620   7.171
    9AU     LIG 4771  26.395   5.889   7.180
    9AU     LIG 4772  26.833   5.897   7.025
    9AU       S 4773  24.320   4.779   7.514
    9AU     LIG 4774  24.714   4.479   7.624
    9AU     LIG 4775  25.124   4.193   7.689
    9AU     LIG 4776  25.558   3.958   7.747
    9AU     LIG 4777  25.986   3.741   7.822
    9AU     LIG 4778  26.422   3.840   8.032
    9AU     LIG 4779  26.849   3.987   8.194
    9AU    AUSL 4780  23.762   5.355   7.642
    9AU    AUSL 4781  23.775   5.741   7.865
    9AU     AUL 4782  24.017   5.619   7.713
    9AU       S 4783  24.035   5.669   8.165
    9AU     LIG 4784  24.344   5.936   8.367
    9AU     LIG 4785  24.641   6.193   8.628
    9AU     LIG 4786  24.947   6.447   8.890
    9AU     LIG 4787  25.165   6.831   9.063
    9AU     LIG 4788  25.456   7.220   9.058
    9AU     LIG 4789  25.726   7.612   8.985
    9AU       S 4790  24.337   5.581   7.385
    9AU     LIG 4791  24.747   5.421   7.588
    9AU     LIG 4792  25.229   5.355   7.706
    9AU     LIG 4793  25.689   5.457   7.815
    9AU     LIG 4794  26.056   5.547   8.086
    9AU     LIG 4795  26.482   5.707   8.151
    9AU     LIG 4796  26.835   5.977   8.216
    9AU    AUSL 4797  22.596   5.569   7.491
    9AU    AUSL 4798  22.526   5.525   7.921
    9AU     AUL 4799  22.301   5.792   7.662
    9AU       S 4800  22.387   5.624   8.087
    9AU     LIG 4801  22.140   5.671   8.475
    9AU     LIG 4802  22.035   5.955   8.843
    9AU     LIG 4803  21.811   6.147   9.237
    9AU     LIG 4804  21.450   6.203   9.586
    9AU     LIG 4805  21.144   6.340   9.948
    9AU     LIG 4806  20.878   6.664  10.191
    9AU       S 4807  22.013   5.570   7.381
    9AU     LIG 4808  21.989   6.044   7.354
    9AU     LIG 4809  21.683   6.428   7.411
    9AU     LIG 4810  21.273   6.708   7.476
    9AU     LIG 4811  21.003   7.087   7.608
    9AU     LIG 4812  20.649   7.349   7.777
    9AU     LIG 4813  20.235   7.570   7.811
    9AU    AUSL 4814  22.404   5.295   7.230
    9AU    AUSL 4815  22.716   5.919   7.290
    9AU     AUL 4816  22.421   5.723   7.210
    9AU       S 4817  22.032   5.506   7.103
    9AU     LIG 4818  21.821   5.861   6.900
    9AU     LIG 4819  21.367   6.036   6.869
    9AU     LIG 4820  20.890   6.154   6.824
    9AU     LIG 4821  20.426   6.176   6.702
    9AU     LIG 4822  20.109   6.547   6.688
    9AU     LIG 4823  19.684   6.530   6.522
    9AU       S 4824  22.510   6.119   6.948
    9AU     LIG 4825  22.491   6.283   6.467
    9AU     LIG 4826  22.327   6.531   6.096
    9AU     LIG 4827  22.129   6.957   5.982
    9AU     LIG 4828  21.763   7.275   5.931
    9AU     LIG 4829  21.333   7.502   5.954
    9AU     LIG 4830  21.025   7.863   5.991
    9AU    AUSL 4831  22.298   5.302   7.658
    9AU    AUSL 4832  22.388   4.937   7.455
    9AU     AUL 4833  22.144   5.107   7.285
    9AU       S 4834  22.045   4.799   7.650
    9AU     LIG 4835  21.595   4.728   7.838
    9AU     LIG 4836  21.109   4.794   7.737
    9AU     LIG 4837  20.657   4.950   7.568
    9AU     LIG 4838  20.220   4.948   7.274
    9AU     LIG 4839  19.804   4.667   7.171
    9AU     LIG 4840  19.399   4.415   7.019
    9AU       S 4841  22.069   5.384   7.655
    9AU     LIG 4842  21.881   5.728   7.967
    9AU     LIG 4843  21.434   5.932   8.138
    9AU     LIG 4844  20.936   6.069   8.202
    9AU     LIG 4845  20.442   6.083   8.276
    9AU     LIG 4846  19.995   6.207   8.396
    9AU     LIG 4847  19.528   6.364   8.403
    9AU    AUSL 4848  23.849   4.645   7.611
    9AU    AUSL 4849  23.789   4.906   7.984
    9AU     AUL 4850  24.104   4.826   7.931
    9AU       S 4851  24.185   4.531   7.580
    9AU     LIG 4852  24.362   4.132   7.477
    9AU     LIG 4853  24.740   3.874   7.536
    9AU     LIG 4854  25.165   3.678   7.548
    9AU     LIG 4855  25.591   3.465   7.582
    9AU     LIG 4856  25.815   3.057   7.691
    9AU     LIG 4857  26.245   2.905   7.628
    9AU       S 4858  23.764   4.584   8.107
    9AU     LIG 4859  24.158   4.238   8.262
    9AU     LIG 4860  24.161   3.884   8.588
    9AU     LIG 4861  24.396   3.537   8.834
    9AU     LIG 4862  24.764   3.380   9.107
    9AU     LIG 4863  25.187   3.336   9.351
    9AU     LIG 4864  25.564   3.195   9.617
    9AU    AUSL 4865  23.726   4.983   7.387
    9AU    AUSL 4866  23.642   4.542   7.254
    9AU     AUL 4867  23.900   4.629   7.233
    9AU       S 4868  24.263   4.857   7.334
    9AU     LIG 4869  24.525   4.495   7.144
    9AU     LIG 4870  24.936   4.221   7.207
    9AU     LIG 4871  25.406   4.032   7.261
    9AU     LIG 4872  25.900   3.898   7.306
    9AU     LIG 4873  26.340   4.018   7.068
    9AU     LIG 4874  26.736   3.834   6.803
    9AU       S 4875  23.821   4.345   6.873
    9AU     LIG 4876  23.930   3.898   6.718
    9AU     LIG 4877  24.037   3.456   6.539
    9AU     LIG 4878  24.277   3.102   6.323
    9AU     LIG 4879  24.640   2.902   6.086
    9AU     LIG 4880  25.068   2.666   6.130
    9AU     LIG 4881  25.472   2.402   6.246
    9AU    AUSL 4882  22.541   4.545   7.500
    9AU    AUSL 4883  22.506   4.865   7.067
    9AU     AUL 4884  22.332   4.657   7.283
    9AU       S 4885  22.354   4.668   6.822
    9AU     LIG 4886  21.968   4.456   6.954
    9AU     LIG 4887  21.664   4.177   6.726
    9AU     LIG 4888  21.424   3.923   6.402
    9AU     LIG 4889  21.198   3.674   6.064
    9AU     LIG 4890  20.887   3.736   5.695
    9AU     LIG 4891  20.523   3.769   5.381
    9AU       S 4892  22.055   4.590   7.634
    9AU     LIG 4893  21.770   4.269   7.609
    9AU     LIG 4894  21.321   4.308   7.685
    9AU     LIG 4895  20.846   4.329   7.678
    9AU     LIG 4896  20.416   4.118   7.546
    9AU     LIG 4897  19.947   3.959   7.530
    9AU     LIG 4898  19.739   3.529   7.545
    9AU    AUSL 4899  22.670   5.122   7.691
    9AU    AUSL 4900  22.780   4.722   7.793
    9AU     AUL 4901  22.472   4.627   7.805
    9AU       S 4902  22.419   4.483   8.226
    9AU     LIG 4903  22.342   4.159   7.894
    9AU     LIG 4904  21.955   3.890   7.940
    9AU     LIG 4905  21.616   3.645   8.183
    9AU     LIG 4906  21.302   3.391   8.451
    9AU     LIG 4907  21.083   3.093   8.752
    9AU     LIG 4908  20.933   2.659   8.889
    9AU       S 4909  22.085   4.876   7.675
    9AU     LIG 4910  21.662   4.708   7.339
    9AU     LIG 4911  21.157   4.584   7.271
    9AU     LIG 4912  20.642   4.546   7.274
    9AU     LIG 4913  20.283   4.597   7.617
    9AU     LIG 4914  19.897   4.437   7.802
    9AU     LIG 4915  19.614   4.084   7.944
    9AU    AUSL 4916  23.223   5.874   8.036
    9AU    AUSL 4917  22.740   5.857   7.768
    9AU     AUL 4918  22.963   5.921   8.150
    9AU       S 4919  22.547   5.997   7.994
    9AU     LIG 4920  22.216   6.215   8.391
    9AU     LIG 4921  22.124   6.470   8.800
    9AU     LIG 4922  22.077   6.905   9.019
    9AU     LIG 4923  21.951   7.388   9.062
    9AU     LIG 4924  21.630   7.728   9.217
    9AU     LIG 4925  21.218   7.927   9.385
    9AU       S 4926  23.318   6.238   8.036
    9AU     LIG 4927  23.424   6.606   8.315
    9AU     LIG 4928  23.560   6.953   8.601
    9AU     LIG 4929  23.513   7.371   8.783
    9AU     LIG 4930  23.492   7.590   9.187
    9AU     LIG 4931  23.424   7.919   9.505
    9AU     LIG 4932  23.594   8.320   9.698
    9AU    AUSL 4933  23.072   6.066   7.655
    9AU    AUSL 4934  23.375   6.011   7.287
    9AU     AUL 4935  22.989   6.318   7.425
    9AU       S 4936  23.285   6.305   7.788
    9AU     LIG 4937  23.287   6.772   7.850
    9AU     LIG 4938  23.350   7.126   8.168
    9AU     LIG 4939  23.271   7.564   8.339
    9AU     LIG 4940  22.958   7.935   8.279
    9AU     LIG 4941  22.741   8.369   8.383
    9AU     LIG 4942  22.876   8.791   8.611
    9AU       S 4943  23.466   6.271   7.245
    9AU     LIG 4944  23.769   6.488   7.021
    9AU     LIG 4945  23.846   6.939   6.871
    9AU     LIG 4946  23.806   7.415   6.747
    9AU     LIG 4947  23.971   7.885   6.683
    9AU     LIG 4948  24.196   8.336   6.606
    9AU     LIG 4949  24.174   8.775   6.405
    9AU    AUSL 4950  23.440   5.865   7.667
    9AU    AUSL 4951  23.427   5.521   7.929
    9AU     AUL 4952  23.584   5.855   8.086
    9AU       S 4953  24.033   5.378   8.094
    9AU     LIG 4954  24.122   5.515   8.615
    9AU     LIG 4955  24.285   5.892   8.889
    9AU     LIG 4956  24.542   6.231   9.142
    9AU     LIG 4957  24.815   6.561   9.382
    9AU     LIG 4958  24.845   6.927   9.708
    9AU     LIG 4959  24.817   7.190  10.111
    9AU       S 4960  23.543   6.166   7.739
    9AU     LIG 4961  23.745   6.537   7.909
    9AU     LIG 4962  23.821   6.936   8.152
    9AU     LIG 4963  23.783   7.387   8.337
    9AU     LIG 4964  23.960   7.848   8.426
    9AU     LIG 4965  24.161   8.308   8.502
    9AU     LIG 4966  24.139   8.733   8.731
    9AU    AUSL 4967  23.137   4.578   7.983
    9AU    AUSL 4968  23.474   4.738   7.761
    9AU     AUL 4969  23.312   4.476   8.194
    9AU       S 4970  23.125   4.068   8.031
    9AU     LIG 4971  23.279   3.733   8.269
    9AU     LIG 4972  23.023   3.369   8.278
    9AU     LIG 4973  22.867   2.968   8.409
    9AU     LIG 4974  23.016   2.656   8.715
    9AU     LIG 4975  22.941   2.474   9.149
    9AU     LIG 4976  23.047   2.252   9.554
    9AU       S 4977  23.760   4.395   7.998
    9AU     LIG 4978  23.771   3.914   8.141
    9AU     LIG 4979  23.933   3.487   8.363
    9AU     LIG 4980  24.109   3.131   8.661
    9AU     LIG 4981  24.404   2.809   8.828
    9AU     LIG 4982  24.817   2.559   8.842
    9AU     LIG 4983  25.143   2.463   9.158
    9AU    AUSL 4984  22.960   4.369   7.665
    9AU    AUSL 4985  22.822   4.751   8.210
    9AU     AUL 4986  22.839   4.426   8.036
    9AU       S 4987  22.896   4.051   7.783
    9AU     LIG 4988  22.715   3.697   7.963
    9AU     LIG 4989  22.680   3.240   7.896
    9AU     LIG 4990  22.536   2.805   8.037
    9AU     LIG 4991  22.319   2.388   8.174
    9AU     LIG 4992  22.267   1.916   8.282
    9AU     LIG 4993  22.433   1.469   8.404
    9AU       S 4994  22.555   4.634   8.335
    9AU     LIG 4995  22.158   4.366   8.604
    9AU     LIG 4996  21.901   3.974   8.490
    9AU     LIG 4997  21.694   3.597   8.708
    9AU     LIG 4998  21.469   3.312   9.020
    9AU     LIG 4999  21.435   3.086   9.436
    9AU     LIG 5000  21.484   2.856   9.853
    9AU    AUSL 5001  23.403   4.337   7.712
    9AU    AUSL 5002  22.907   4.374   7.248
    9AU     AUL 5003  23.226   4.104   7.467
    9AU       S 5004  22.745   4.135   7.298
    9AU     LIG 5005  22.564   3.763   7.459
    9AU     LIG 5006  22.632   3.306   7.327
    9AU     LIG 5007  22.670   2.888   7.064
    9AU     LIG 5008  22.722   2.479   6.791
    9AU     LIG 5009  22.629   2.011   6.669
    9AU     LIG 5010  22.422   1.574   6.557
    9AU       S 5011  23.263   4.106   7.914
    9AU     LIG 5012  23.192   3.638   7.768
    9AU     LIG 5013  23.195   3.184   7.836
    9AU     LIG 5014  23.283   2.855   8.151
    9AU     LIG 5015  23.159   2.434   8.259
    9AU     LIG 5016  23.318   1.992   8.290
    9AU     LIG 5017  23.322   1.516   8.345
    9AU    AUSL 5018  23.104   5.870   6.986
    9AU    AUSL 5019  23.499   5.614   7.302
    9AU     AUL 5020  23.484   5.906   6.935
    9AU       S 5021  23.234   6.313   6.951
    9AU     LIG 5022  23.394   6.699   6.732
    9AU     LIG 5023  23.528   7.060   6.480
    9AU     LIG 5024  23.416   7.314   6.115
    9AU     LIG 5025  23.574   7.503   5.710
    9AU     LIG 5026  23.449   7.852   5.432
    9AU     LIG 5027  23.449   8.270   5.227
    9AU       S 5028  23.926   5.629   6.976
    9AU     LIG 5029  24.427   5.864   6.858
    9AU     LIG 5030  24.614   6.120   6.496
    9AU     LIG 5031  24.801   6.412   6.164
    9AU     LIG 5032  25.090   6.802   6.087
    9AU     LIG 5033  25.370   7.204   6.042
    9AU     LIG 5034  25.450   7.664   5.955
    9AU    AUSL 5035  23.063   5.739   7.411
    9AU    AUSL 5036  23.053   5.478   7.082
    9AU     AUL 5037  22.929   5.988   7.101
    9AU       S 5038  23.382   6.167   7.288
    9AU     LIG 5039  23.343   6.727   7.245
    9AU     LIG 5040  23.403   7.159   7.020
    9AU     LIG 5041  23.325   7.598   6.838
    9AU     LIG 5042  23.187   8.050   6.753
    9AU     LIG 5043  22.969   8.457   6.632
    9AU     LIG 5044  22.807   8.920   6.567
    9AU       S 5045  22.740   5.891   6.689
    9AU     LIG 5046  22.727   5.846   6.251
    9AU     LIG 5047  22.586   6.117   5.894
    9AU     LIG 5048  22.334   6.282   5.515
    9AU     LIG 5049  22.311   6.520   5.083
    9AU     LIG 5050  22.076   6.856   4.825
    9AU     LIG 5051  21.871   7.229   4.606
    9AU    AUSL 5052  23.225   4.505   6.970
    9AU    AUSL 5053  22.835   4.771   7.316
    9AU     AUL 5054  22.948   4.495   6.882
    9AU       S 5055  22.501   4.390   6.964
    9AU     LIG 5056  22.236   4.107   7.213
    9AU     LIG 5057  21.885   3.821   7.021
    9AU     LIG 5058  21.556   3.551   6.737
    9AU     LIG 5059  21.300   3.221   6.449
    9AU     LIG 5060  21.078   2.760   6.367
    9AU     LIG 5061  20.749   2.395   6.255
    9AU       S 5062  23.018   4.079   7.039
    9AU     LIG 5063  22.665   3.787   6.931
    9AU     LIG 5064  22.749   3.333   6.810
    9AU     LIG 5065  22.952   2.933   6.618
    9AU     LIG 5066  23.117   2.586   6.332
    9AU     LIG 5067  23.128   2.374   5.896
    9AU     LIG 5068  22.958   2.029   5.603
    9AU    AUSL 5069  23.253   4.560   7.398
    9AU    AUSL 5070  23.386   4.850   7.112
    9AU     AUL 5071  23.425   4.351   7.124
    9AU       S 5072  22.868   4.187   7.215
    9AU     LIG 5073  23.023   3.654   7.280
    9AU     LIG 5074  23.111   3.161   7.161
    9AU     LIG 5075  23.147   2.681   7.017
    9AU     LIG 5076  23.216   2.281   6.752
    9AU     LIG 5077  23.275   1.793   6.649
    9AU     LIG 5078  23.226   1.274   6.675
    9AU       S 5079  23.646   4.505   6.741
    9AU     LIG 5080  23.614   4.179   6.417
    9AU     LIG 5081  23.741   3.760   6.232
    9AU     LIG 5082  23.942   3.374   6.031
    9AU     LIG 5083  24.233   3.092   5.788
    9AU     LIG 5084  24.484   2.952   5.408
    9AU     LIG 5085  24.672   2.773   5.008
   10AU     AUC 5086  17.763  20.287   7.502
   10AU     AUC 5087  18.025  20.282   7.340
   10AU     AUC 5088  18.019  20.280   7.647
   10AU     AUC 5089  17.516  20.286   7.343
   10AU     AUC 5090  17.501  20.309   7.649
   10AU     AUC 5091  17.619  20.548   7.501
   10AU     AUC 5092  17.927  20.540   7.476
   10AU     AUC 5093  17.604  20.033   7.519
   10AU     AUC 5094  17.899  20.028   7.530
   10AU     AUC 5095  17.753  20.143   7.767
   10AU     AUC 5096  17.790  20.455   7.750
   10AU     AUC 5097  17.763  20.117   7.248
   10AU     AUC 5098  17.751  20.419   7.236
   10AU     AUC 5099  18.270  20.270   7.170
   10AU     AUC 5100  18.285  20.284   7.482
   10AU     AUC 5101  18.280  20.283   7.792
   10AU     AUC 5102  17.255  20.275   7.188
   10AU     AUC 5103  17.244  20.309   7.489
   10AU     AUC 5104  17.256  20.334   7.813
   10AU     AUC 5105  17.480  20.818   7.498
   10AU     AUC 5106  17.784  20.814   7.486
   10AU     AUC 5107  18.076  20.806   7.482
   10AU     AUC 5108  17.417  19.781   7.536
   10AU     AUC 5109  17.739  19.761   7.520
   10AU     AUC 5110  18.054  19.761   7.536
   10AU     AUC 5111  17.735  19.992   8.022
   10AU     AUC 5112  17.771  20.304   8.031
   10AU     AUC 5113  17.795  20.616   8.014
   10AU     AUC 5114  17.762  19.937   7.017
   10AU     AUC 5115  17.770  20.254   6.977
   10AU     AUC 5116  17.751  20.568   6.969
   10AU     AUC 5117  18.035  20.141   7.926
   10AU     AUC 5118  18.041  20.436   7.914
   10AU     AUC 5119  18.030  20.105   7.083
   10AU     AUC 5120  18.030  20.417   7.065
   10AU     AUC 5121  17.496  20.168   7.935
   10AU     AUC 5122  17.515  20.476   7.928
   10AU     AUC 5123  17.511  20.109   7.077
   10AU     AUC 5124  17.502  20.424   7.075
   10AU     AUC 5125  18.181  20.547   7.312
   10AU     AUC 5126  18.197  20.528   7.631
   10AU     AUC 5127  17.350  20.549   7.345
   10AU     AUC 5128  17.360  20.577   7.664
   10AU     AUC 5129  18.171  20.014   7.353
   10AU     AUC 5130  18.180  20.022   7.669
   10AU     AUC 5131  17.334  20.031   7.351
   10AU     AUC 5132  17.339  20.056   7.689
   10AU     AUC 5133  17.624  20.716   7.765
   10AU     AUC 5134  17.946  20.716   7.733
   10AU     AUC 5135  17.583  19.874   7.773
   10AU     AUC 5136  17.905  19.877   7.794
   10AU     AUC 5137  17.606  20.699   7.230
   10AU     AUC 5138  17.924  20.685   7.215
   10AU     AUC 5139  17.582  19.865   7.257
   10AU     AUC 5140  17.912  19.851   7.275
   10AU    AUSL 5141  18.111  20.238   8.091
   10AU    AUSL 5142  18.076  19.809   8.149
   10AU     AUL 5143  18.306  19.899   8.406
   10AU       S 5144  18.350  19.525   8.078
   10AU     LIG 5145  18.280  19.370   8.478
   10AU     LIG 5146  18.358  18.950   8.658
   10AU     LIG 5147  18.590  18.609   8.885
   10AU     LIG 5148  18.882  18.310   9.112
   10AU     LIG 5149  19.052  18.089   9.484
   10AU     LIG 5150  19.101  17.885   9.904
   10AU       S 5151  18.187  20.268   8.658
   10AU     LIG 5152  18.456  19.955   8.898
   10AU     LIG 5153  18.680  19.760   9.275
   10AU     LIG 5154  18.882  19.655   9.687
   10AU     LIG 5155  19.162  19.761  10.052
   10AU     LIG 5156  19.491  19.948  10.333
   10AU     LIG 5157  19.750  20.077  10.704
   10AU    AUSL 5158  17.837  20.085   8.373
   10AU    AUSL 5159  17.718  20.489   8.289
   10AU     AUL 5160  17.779  20.455   8.707
   10AU       S 5161  17.907  20.082   8.507
   10AU     LIG 5162  18.010  19.720   8.780
   10AU     LIG 5163  18.220  19.545   9.193
   10AU     LIG 5164  18.390  19.437   9.656
   10AU     LIG 5165  18.404  19.247  10.126
   10AU     LIG 5166  18.526  19.125  10.585
   10AU     LIG 5167  18.746  19.168  11.001
   10AU       S 5168  17.398  20.219   8.663
   10AU     LIG 5169  17.227  20.141   9.104
   10AU     LIG 5170  17.064  20.045   9.526
   10AU     LIG 5171  16.875  20.059   9.959
   10AU     LIG 5172  16.866  20.327  10.372
   10AU     LIG 5173  16.801  20.690  10.705
   10AU     LIG 5174  16.725  20.857  11.153
   10AU    AUSL 5175  18.112  20.611   8.277
   10AU    AUSL 5176  18.439  20.471   7.963
   10AU     AUL 5177  18.409  20.337   8.274
   10AU       S 5178  18.129  20.642   8.474
   10AU     LIG 5179  18.219  20.812   8.886
   10AU     LIG 5180  18.460  21.011   9.252
   10AU     LIG 5181  18.524  21.141   9.714
   10AU     LIG 5182  18.569  21.138  10.198
   10AU     LIG 5183  18.581  21.158  10.671
   10AU     LIG 5184  18.592  21.127  11.144
   10AU       S 5185  18.721  20.546   8.006
   10AU     LIG 5186  18.948  20.486   8.386
   10AU     LIG 5187  19.194  20.747   8.691
   10AU     LIG 5188  19.452  21.023   8.978
   10AU     LIG 5189  19.696  21.295   9.283
   10AU     LIG 5190  20.054  21.416   9.567
   10AU     LIG 5191  20.484  21.520   9.758
   10AU    AUSL 5192  18.298  20.308   6.862
   10AU    AUSL 5193  18.065  20.705   6.817
   10AU     AUL 5194  18.441  20.667   6.467
   10AU       S 5195  18.316  20.333   6.700
   10AU     LIG 5196  18.627  20.237   6.335
   10AU     LIG 5197  18.698  20.033   5.931
   10AU     LIG 5198  18.823  19.872   5.499
   10AU     LIG 5199  18.962  19.803   5.045
   10AU     LIG 5200  19.298  19.859   4.707
   10AU     LIG 5201  19.618  19.978   4.363
   10AU       S 5202  18.058  20.752   6.654
   10AU     LIG 5203  18.353  21.133   6.578
   10AU     LIG 5204  18.701  21.206   6.255
   10AU     LIG 5205  18.994  21.408   5.914
   10AU     LIG 5206  19.188  21.506   5.466
   10AU     LIG 5207  19.374  21.740   5.082
   10AU     LIG 5208  19.549  22.031   4.752
   10AU    AUSL 5209  18.037  19.983   6.705
   10AU    AUSL 5210  18.373  19.921   6.998
   10AU     AUL 5211  18.465  19.929   6.677
   10AU       S 5212  18.413  19.503   6.849
   10AU     LIG 5213  18.782  19.429   6.609
   10AU     LIG 5214  18.928  19.049   6.372
   10AU     LIG 5215  19.065  18.704   6.072
   10AU     LIG 5216  19.389  18.575   5.730
   10AU     LIG 5217  19.805  18.622   5.489
   10AU     LIG 5218  20.166  18.535   5.187
   10AU       S 5219  18.133  20.196   6.441
   10AU     LIG 5220  18.284  19.822   6.219
   10AU     LIG 5221  18.400  19.638   5.788
   10AU     LIG 5222  18.434  19.600   5.306
   10AU     LIG 5223  18.545  19.539   4.840
   10AU     LIG 5224  18.551  19.291   4.419
   10AU     LIG 5225  18.587  19.242   3.952
   10AU    AUSL 5226  17.877  20.343   6.876
   10AU    AUSL 5227  17.625  20.077   6.665
   10AU     AUL 5228  17.833  19.865   6.571
   10AU       S 5229  17.580  20.173   6.324
   10AU     LIG 5230  17.480  19.878   5.992
   10AU     LIG 5231  17.244  19.632   5.665
   10AU     LIG 5232  17.010  19.521   5.269
   10AU     LIG 5233  16.737  19.435   4.881
   10AU     LIG 5234  16.635  19.454   4.409
   10AU     LIG 5235  16.517  19.261   3.979
   10AU       S 5236  18.018  20.313   6.496
   10AU     LIG 5237  18.213  20.286   5.979
   10AU     LIG 5238  18.352  20.100   5.546
   10AU     LIG 5239  18.515  20.060   5.091
   10AU     LIG 5240  18.671  20.107   4.639
   10AU     LIG 5241  18.552  20.275   4.183
   10AU     LIG 5242  18.697  20.471   3.754
   10AU    AUSL 5243  17.324  20.368   8.229
   10AU    AUSL 5244  17.464  20.779   8.129
   10AU     AUL 5245  17.505  20.682   8.421
   10AU       S 5246  17.224  20.398   8.662
   10AU     LIG 5247  16.899  20.071   8.696
   10AU     LIG 5248  16.775  19.857   9.102
   10AU     LIG 5249  16.609  19.812   9.560
   10AU     LIG 5250  16.347  19.905   9.956
   10AU     LIG 5251  15.962  19.958  10.261
   10AU     LIG 5252  15.775  20.044  10.699
   10AU       S 5253  17.063  20.790   8.336
   10AU     LIG 5254  17.176  20.941   8.757
   10AU     LIG 5255  17.170  21.314   9.054
   10AU     LIG 5256  16.944  21.529   9.413
   10AU     LIG 5257  16.814  21.782   9.806
   10AU     LIG 5258  16.595  22.092  10.099
   10AU     LIG 5259  16.276  22.286  10.406
   10AU    AUSL 5260  17.626  20.163   8.027
   10AU    AUSL 5261  17.092  20.091   8.018
   10AU     AUL 5262  17.132  20.210   8.254
   10AU       S 5263  16.951  19.769   8.216
   10AU     LIG 5264  16.528  19.725   8.175
   10AU     LIG 5265  16.253  19.370   8.287
   10AU     LIG 5266  16.027  19.068   8.581
   10AU     LIG 5267  15.820  18.757   8.870
   10AU     LIG 5268  15.538  18.530   9.164
   10AU     LIG 5269  15.197  18.559   9.496
   10AU       S 5270  17.430  20.094   8.604
   10AU     LIG 5271  17.256  19.721   8.819
   10AU     LIG 5272  17.183  19.603   9.277
   10AU     LIG 5273  17.041  19.560   9.734
   10AU     LIG 5274  16.977  19.294  10.130
   10AU     LIG 5275  16.751  19.200  10.538
   10AU     LIG 5276  16.724  19.151  11.007
   10AU    AUSL 5277  17.369  20.228   6.959
   10AU    AUSL 5278  17.508  19.801   6.948
   10AU     AUL 5279  17.335  19.908   6.648
   10AU       S 5280  17.333  20.256   6.324
   10AU     LIG 5281  17.038  20.145   5.975
   10AU     LIG 5282  16.833  19.934   5.588
   10AU     LIG 5283  16.538  19.738   5.268
   10AU     LIG 5284  16.243  19.650   4.904
   10AU     LIG 5285  15.981  19.821   4.550
   10AU     LIG 5286  15.666  20.157   4.393
   10AU       S 5287  17.071  19.507   6.819
   10AU     LIG 5288  16.824  19.134   6.815
   10AU     LIG 5289  16.550  18.853   6.571
   10AU     LIG 5290  16.300  18.576   6.286
   10AU     LIG 5291  16.065  18.287   5.995
   10AU     LIG 5292  15.997  18.079   5.579
   10AU     LIG 5293  16.033  18.168   5.105
   10AU    AUSL 5294  17.554  20.510   6.668
   10AU    AUSL 5295  17.131  20.571   6.944
   10AU     AUL 5296  17.143  20.339   6.726
   10AU       S 5297  17.124  20.804   6.730
   10AU     LIG 5298  16.783  20.935   6.422
   10AU     LIG 5299  16.587  20.973   5.985
   10AU     LIG 5300  16.448  21.156   5.572
   10AU     LIG 5301  16.045  21.164   5.323
   10AU     LIG 5302  15.642  21.315   5.125
   10AU     LIG 5303  15.284  21.621   5.054
   10AU       S 5304  17.550  20.429   6.465
   10AU     LIG 5305  17.514  20.418   5.905
   10AU     LIG 5306  17.321  20.137   5.544
   10AU     LIG 5307  17.093  20.027   5.126
   10AU     LIG 5308  17.094  20.155   4.640
   10AU     LIG 5309  17.116  20.354   4.178
   10AU     LIG 5310  17.017  20.579   3.752
   10AU    AUSL 5311  18.388  20.908   7.423
   10AU    AUSL 5312  18.413  20.651   7.074
   10AU     AUL 5313  18.541  21.106   7.216
   10AU       S 5314  18.546  20.731   6.907
   10AU     LIG 5315  18.896  20.594   6.655
   10AU     LIG 5316  19.072  20.817   6.263
   10AU     LIG 5317  19.379  21.072   5.980
   10AU     LIG 5318  19.641  21.348   5.671
   10AU     LIG 5319  19.999  21.500   5.365
   10AU     LIG 5320  20.283  21.727   5.034
   10AU       S 5321  18.847  20.764   7.335
   10AU     LIG 5322  19.351  20.668   7.456
   10AU     LIG 5323  19.840  20.611   7.514
   10AU     LIG 5324  20.276  20.852   7.491
   10AU     LIG 5325  20.618  21.226   7.497
   10AU     LIG 5326  20.873  21.675   7.456
   10AU     LIG 5327  21.033  22.153   7.428
   10AU    AUSL 5328  18.610  20.318   7.218
   10AU    AUSL 5329  18.611  20.169   7.642
   10AU     AUL 5330  18.881  20.093   7.401
   10AU       S 5331  18.813  20.537   7.288
   10AU     LIG 5332  19.166  20.373   7.081
   10AU     LIG 5333  19.629  20.447   7.051
   10AU     LIG 5334  20.109  20.542   7.077
   10AU     LIG 5335  20.588  20.541   7.160
   10AU     LIG 5336  21.047  20.714   7.140
   10AU     LIG 5337  21.514  20.872   7.120
   10AU       S 5338  18.906  19.702   7.671
   10AU     LIG 5339  19.235  19.596   7.870
   10AU     LIG 5340  19.572  19.327   7.813
   10AU     LIG 5341  20.007  19.246   7.794
   10AU     LIG 5342  20.439  19.287   7.943
   10AU     LIG 5343  20.896  19.266   8.003
   10AU     LIG 5344  21.364  19.290   8.006
   10AU    AUSL 5345  18.394  20.507   7.548
   10AU    AUSL 5346  18.295  20.844   7.830
   10AU     AUL 5347  18.544  20.839   7.686
   10AU       S 5348  18.595  20.754   8.124
   10AU     LIG 5349  18.993  20.988   8.261
   10AU     LIG 5350  19.185  21.265   8.600
   10AU     LIG 5351  19.442  21.545   8.895
   10AU     LIG 5352  19.711  21.949   8.947
   10AU     LIG 5353  19.910  22.390   9.027
   10AU     LIG 5354  20.299  22.611   9.176
   10AU       S 5355  18.866  20.558   7.538
   10AU     LIG 5356  19.156  20.369   7.830
   10AU     LIG 5357  19.596  20.494   7.959
   10AU     LIG 5358  20.092  20.562   7.971
   10AU     LIG 5359  20.549  20.645   7.886
   10AU     LIG 5360  20.993  20.779   7.952
   10AU     LIG 5361  21.425  20.972   7.998
   10AU    AUSL 5362  17.108  20.856   7.572
   10AU    AUSL 5363  17.158  20.583   7.915
   10AU     AUL 5364  17.117  21.034   7.829
   10AU       S 5365  16.965  20.652   8.097
   10AU     LIG 5366  16.709  20.522   8.504
   10AU     LIG 5367  16.496  20.861   8.760
   10AU     LIG 5368  16.283  21.078   9.137
   10AU     LIG 5369  15.929  21.230   9.437
   10AU     LIG 5370  15.564  21.397   9.720
   10AU     LIG 5371  15.162  21.606   9.899
   10AU       S 5372  16.718  20.889   7.656
   10AU     LIG 5373  16.408  21.264   7.577
   10AU     LIG 5374  16.095  21.631   7.540
   10AU     LIG 5375  15.821  22.002   7.662
   10AU     LIG 5376  15.536  22.374   7.582
   10AU     LIG 5377  15.084  22.427   7.669
   10AU     LIG 5378  14.737  22.608   7.914
   10AU    AUSL 5379  17.187  20.511   7.348
   10AU    AUSL 5380  17.272  20.920   7.185
   10AU     AUL 5381  17.006  20.849   7.210
   10AU       S 5382  16.630  20.811   7.479
   10AU     LIG 5383  16.315  20.888   7.155
   10AU     LIG 5384  15.959  20.924   6.837
   10AU     LIG 5385  15.568  21.085   6.623
   10AU     LIG 5386  15.200  21.398   6.655
   10AU     LIG 5387  14.726  21.337   6.636
   10AU     LIG 5388  14.241  21.249   6.693
   10AU       S 5389  17.108  21.083   6.807
   10AU     LIG 5390  17.062  21.430   6.487
   10AU     LIG 5391  17.044  21.894   6.319
   10AU     LIG 5392  16.744  22.266   6.245
   10AU     LIG 5393  16.403  22.351   5.939
   10AU     LIG 5394  16.077  22.670   5.858
   10AU     LIG 5395  15.945  23.028   5.590
   10AU    AUSL 5396  16.889  20.445   7.643
   10AU    AUSL 5397  16.939  20.185   7.298
   10AU     AUL 5398  16.791  20.447   7.258
   10AU       S 5399  16.590  20.007   7.425
   10AU     LIG 5400  16.283  19.956   7.785
   10AU     LIG 5401  15.832  20.018   7.792
   10AU     LIG 5402  15.416  19.827   7.664
   10AU     LIG 5403  15.041  19.661   7.395
   10AU     LIG 5404  14.641  19.400   7.265
   10AU     LIG 5405  14.236  19.167   7.118
   10AU       S 5406  16.683  20.499   7.736
   10AU     LIG 5407  16.477  20.767   8.094
   10AU     LIG 5408  16.052  20.946   8.191
   10AU     LIG 5409  15.565  21.065   8.229
   10AU     LIG 5410  15.076  21.138   8.297
   10AU     LIG 5411  14.622  21.323   8.346
   10AU     LIG 5412  14.170  21.494   8.275
   10AU    AUSL 5413  18.459  19.771   7.571
   10AU    AUSL 5414  18.414  19.991   7.957
   10AU     AUL 5415  18.714  20.046   7.902
   10AU       S 5416  18.633  19.501   7.538
   10AU     LIG 5417  19.031  19.226   7.567
   10AU     LIG 5418  19.423  18.969   7.480
   10AU     LIG 5419  19.843  18.753   7.536
   10AU     LIG 5420  20.126  18.341   7.500
   10AU     LIG 5421  20.535  18.110   7.385
   10AU     LIG 5422  20.989  18.036   7.479
   10AU       S 5423  18.438  19.682   8.030
   10AU     LIG 5424  18.778  19.468   8.316
   10AU     LIG 5425  18.858  19.076   8.595
   10AU     LIG 5426  19.088  18.700   8.817
   10AU     LIG 5427  19.348  18.534   9.205
   10AU     LIG 5428  19.735  18.596   9.496
   10AU     LIG 5429  20.080  18.616   9.834
   10AU    AUSL 5430  18.295  20.100   7.362
   10AU    AUSL 5431  18.215  19.626   7.267
   10AU     AUL 5432  18.555  19.826   7.182
   10AU       S 5433  18.647  19.692   7.596
   10AU     LIG 5434  19.011  19.610   7.208
   10AU     LIG 5435  19.449  19.438   7.268
   10AU     LIG 5436  19.877  19.228   7.298
   10AU     LIG 5437  20.338  19.358   7.199
   10AU     LIG 5438  20.793  19.256   7.067
   10AU     LIG 5439  21.259  19.335   7.114
   10AU       S 5440  18.460  19.384   7.041
   10AU     LIG 5441  18.534  18.995   6.742
   10AU     LIG 5442  18.736  18.595   6.537
   10AU     LIG 5443  18.899  18.236   6.267
   10AU     LIG 5444  19.113  17.816   6.167
   10AU     LIG 5445  19.525  17.566   6.153
   10AU     LIG 5446  19.800  17.184   6.146
   10AU    AUSL 5447  17.030  19.807   7.491
   10AU    AUSL 5448  17.122  19.910   7.057
   10AU     AUL 5449  16.856  20.010   7.035
   10AU       S 5450  17.056  19.596   7.050
   10AU     LIG 5451  16.571  19.588   6.976
   10AU     LIG 5452  16.302  19.287   6.745
   10AU     LIG 5453  16.062  19.018   6.435
   10AU     LIG 5454  15.818  18.730   6.147
   10AU     LIG 5455  15.518  18.630   5.792
   10AU     LIG 5456  15.203  18.717   5.438
   10AU       S 5457  16.734  19.789   7.428
   10AU     LIG 5458  16.342  19.553   7.463
   10AU     LIG 5459  15.872  19.566   7.528
   10AU     LIG 5460  15.442  19.338   7.503
   10AU     LIG 5461  14.989  19.184   7.587
   10AU     LIG 5462  14.540  19.053   7.641
   10AU     LIG 5463  14.247  18.695   7.806
   10AU    AUSL 5464  17.204  20.176   7.636
   10AU    AUSL 5465  17.298  19.780   7.817
   10AU     AUL 5466  16.906  19.982   7.809
   10AU       S 5467  17.020  19.577   7.988
   10AU     LIG 5468  16.666  19.365   7.830
   10AU     LIG 5469  16.411  18.994   7.975
   10AU     LIG 5470  16.154  18.688   8.255
   10AU     LIG 5471  15.936  18.364   8.552
   10AU     LIG 5472  15.701  17.972   8.712
   10AU     LIG 5473  15.493  17.537   8.818
   10AU       S 5474  16.633  20.068   7.462
   10AU     LIG 5475  16.111  19.990   7.310
   10AU     LIG 5476  15.692  20.237   7.339
   10AU     LIG 5477  15.212  20.185   7.372
   10AU     LIG 5478  14.880  20.057   7.677
   10AU     LIG 5479  14.621  19.660   7.721
   10AU     LIG 5480  14.295  19.422   7.933
   10AU    AUSL 5481  17.818  20.980   8.030
   10AU    AUSL 5482  17.485  20.757   7.714
   10AU     AUL 5483  17.517  21.056   8.107
   10AU       S 5484  17.117  20.889   8.254
   10AU     LIG 5485  17.176  21.322   8.387
   10AU     LIG 5486  17.042  21.657   8.686
   10AU     LIG 5487  16.945  22.105   8.797
   10AU     LIG 5488  16.607  22.441   8.820
   10AU     LIG 5489  16.352  22.822   8.958
   10AU     LIG 5490  15.992  23.157   8.937
   10AU       S 5491  17.867  21.365   7.990
   10AU     LIG 5492  18.041  21.546   8.351
   10AU     LIG 5493  17.924  21.847   8.687
   10AU     LIG 5494  18.046  22.186   8.973
   10AU     LIG 5495  18.037  22.574   9.232
   10AU     LIG 5496  18.060  22.922   9.555
   10AU     LIG 5497  18.020  23.356   9.738
   10AU    AUSL 5498  17.558  21.157   7.665
   10AU    AUSL 5499  18.010  21.130   7.247
   10AU     AUL 5500  17.691  21.387   7.416
   10AU       S 5501  17.689  21.441   7.876
   10AU     LIG 5502  17.685  21.848   8.157
   10AU     LIG 5503  17.964  22.197   8.318
   10AU     LIG 5504  17.929  22.673   8.327
   10AU     LIG 5505  17.657  23.066   8.425
   10AU     LIG 5506  17.350  23.457   8.508
   10AU     LIG 5507  17.166  23.906   8.625
   10AU       S 5508  18.025  21.461   7.085
   10AU     LIG 5509  18.293  21.644   6.801
   10AU     LIG 5510  18.296  22.102   6.742
   10AU     LIG 5511  18.376  22.560   6.632
   10AU     LIG 5512  18.591  23.007   6.636
   10AU     LIG 5513  18.704  23.488   6.596
   10AU     LIG 5514  18.634  23.938   6.439
   10AU    AUSL 5515  17.961  20.991   7.637
   10AU    AUSL 5516  17.953  20.614   7.902
   10AU     AUL 5517  18.147  21.003   8.032
   10AU       S 5518  18.529  20.789   8.222
   10AU     LIG 5519  18.678  20.853   8.653
   10AU     LIG 5520  18.919  21.068   9.001
   10AU     LIG 5521  19.175  21.270   9.340
   10AU     LIG 5522  19.414  21.467   9.698
   10AU     LIG 5523  19.442  21.860   9.965
   10AU     LIG 5524  19.366  22.320  10.095
   10AU       S 5525  18.041  21.318   7.711
   10AU     LIG 5526  18.096  21.788   7.843
   10AU     LIG 5527  18.387  22.089   8.069
   10AU     LIG 5528  18.419  22.508   8.306
   10AU     LIG 5529  18.419  22.995   8.378
   10AU     LIG 5530  18.545  23.481   8.416
   10AU     LIG 5531  18.617  23.976   8.432
   10AU    AUSL 5532  17.726  19.728   7.941
   10AU    AUSL 5533  18.085  19.850   7.730
   10AU     AUL 5534  17.922  19.608   8.198
   10AU       S 5535  17.758  19.182   8.048
   10AU     LIG 5536  17.633  18.828   8.270
   10AU     LIG 5537  17.352  18.486   8.336
   10AU     LIG 5538  17.377  18.034   8.345
   10AU     LIG 5539  17.585  17.682   8.578
   10AU     LIG 5540  17.603  17.394   8.946
   10AU     LIG 5541  17.589  17.074   9.284
   10AU       S 5542  18.382  19.476   7.947
   10AU     LIG 5543  18.523  19.045   8.154
   10AU     LIG 5544  18.696  18.637   8.380
   10AU     LIG 5545  18.864  18.231   8.603
   10AU     LIG 5546  19.091  17.816   8.753
   10AU     LIG 5547  19.451  17.491   8.661
   10AU     LIG 5548  19.830  17.227   8.818
   10AU    AUSL 5549  17.539  19.469   7.677
   10AU    AUSL 5550  17.438  19.854   8.218
   10AU     AUL 5551  17.467  19.532   8.059
   10AU       S 5552  17.511  19.128   7.845
   10AU     LIG 5553  17.333  18.704   7.856
   10AU     LIG 5554  17.192  18.261   7.893
   10AU     LIG 5555  16.965  17.877   8.049
   10AU     LIG 5556  16.692  17.495   8.140
   10AU     LIG 5557  16.691  17.044   8.283
   10AU     LIG 5558  16.512  16.663   8.090
   10AU       S 5559  17.135  19.717   8.310
   10AU     LIG 5560  16.809  19.317   8.361
   10AU     LIG 5561  16.532  18.970   8.486
   10AU     LIG 5562  16.315  18.658   8.754
   10AU     LIG 5563  16.148  18.423   9.125
   10AU     LIG 5564  16.306  18.229   9.539
   10AU     LIG 5565  16.239  17.980   9.937
   10AU    AUSL 5566  17.990  19.448   7.722
   10AU    AUSL 5567  17.483  19.466   7.260
   10AU     AUL 5568  17.792  19.204   7.490
   10AU       S 5569  17.380  19.157   7.148
   10AU     LIG 5570  17.052  18.842   7.187
   10AU     LIG 5571  17.021  18.370   7.203
   10AU     LIG 5572  16.982  17.922   7.018
   10AU     LIG 5573  16.705  17.516   6.937
   10AU     LIG 5574  16.597  17.101   6.724
   10AU     LIG 5575  16.787  16.736   6.498
   10AU       S 5576  17.891  19.237   7.925
   10AU     LIG 5577  17.850  18.748   7.805
   10AU     LIG 5578  17.705  18.313   7.991
   10AU     LIG 5579  17.790  17.828   8.108
   10AU     LIG 5580  17.840  17.361   8.258
   10AU     LIG 5581  18.037  16.941   8.437
   10AU     LIG 5582  18.155  16.445   8.505
   10AU    AUSL 5583  17.748  20.949   6.932
   10AU    AUSL 5584  18.056  20.717   7.261
   10AU     AUL 5585  18.130  21.028   6.994
   10AU       S 5586  17.794  21.243   6.754
   10AU     LIG 5587  17.990  21.463   6.419
   10AU     LIG 5588  18.115  21.891   6.312
   10AU     LIG 5589  18.063  22.326   6.144
   10AU     LIG 5590  18.104  22.646   5.783
   10AU     LIG 5591  18.020  22.949   5.415
   10AU     LIG 5592  18.052  23.326   5.122
   10AU       S 5593  18.487  20.731   6.962
   10AU     LIG 5594  18.837  21.092   6.757
   10AU     LIG 5595  19.172  21.292   6.438
   10AU     LIG 5596  19.446  21.561   6.142
   10AU     LIG 5597  19.721  21.948   6.053
   10AU     LIG 5598  19.903  22.402   6.046
   10AU     LIG 5599  20.147  22.743   5.827
   10AU    AUSL 5600  17.655  20.920   7.341
   10AU    AUSL 5601  17.542  20.620   7.062
   10AU     AUL 5602  17.482  21.109   7.087
   10AU       S 5603  17.834  21.405   6.981
   10AU     LIG 5604  17.814  21.812   6.742
   10AU     LIG 5605  17.806  22.268   6.770
   10AU     LIG 5606  17.466  22.594   6.757
   10AU     LIG 5607  17.231  22.988   6.610
   10AU     LIG 5608  17.312  23.422   6.415
   10AU     LIG 5609  17.204  23.882   6.532
   10AU       S 5610  17.345  20.917   6.681
   10AU     LIG 5611  17.254  21.014   6.242
   10AU     LIG 5612  16.989  21.313   5.963
   10AU     LIG 5613  16.833  21.522   5.542
   10AU     LIG 5614  16.706  21.775   5.138
   10AU     LIG 5615  16.421  22.099   4.919
   10AU     LIG 5616  16.249  22.444   4.630
   10AU    AUSL 5617  17.834  19.549   6.994
   10AU    AUSL 5618  17.418  19.858   7.358
   10AU     AUL 5619  17.512  19.551   6.926
   10AU       S 5620  17.011  19.475   7.168
   10AU     LIG 5621  16.699  19.210   7.309
   10AU     LIG 5622  16.418  18.909   7.078
   10AU     LIG 5623  16.126  18.645   6.786
   10AU     LIG 5624  15.886  18.340   6.491
   10AU     LIG 5625  15.741  17.958   6.228
   10AU     LIG 5626  15.493  17.670   5.943
   10AU       S 5627  17.647  19.131   7.042
   10AU     LIG 5628  17.394  18.799   6.806
   10AU     LIG 5629  17.212  18.383   6.724
   10AU     LIG 5630  17.303  17.952   6.576
   10AU     LIG 5631  17.593  17.650   6.356
   10AU     LIG 5632  17.652  17.433   5.935
   10AU     LIG 5633  17.725  17.320   5.476
   10AU    AUSL 5634  17.826  19.660   7.408
   10AU    AUSL 5635  17.949  19.929   7.098
   10AU     AUL 5636  18.012  19.430   7.153
   10AU       S 5637  17.405  19.259   7.281
   10AU     LIG 5638  17.528  18.756   7.377
   10AU     LIG 5639  17.533  18.340   7.133
   10AU     LIG 5640  17.536  17.865   7.019
   10AU     LIG 5641  17.604  17.432   6.832
   10AU     LIG 5642  17.977  17.128   6.821
   10AU     LIG 5643  18.085  16.649   6.872
   10AU       S 5644  18.218  19.538   6.745
   10AU     LIG 5645  18.347  19.298   6.362
   10AU     LIG 5646  18.478  18.871   6.189
   10AU     LIG 5647  18.610  18.511   5.899
   10AU     LIG 5648  18.644  18.322   5.450
   10AU     LIG 5649  18.893  18.122   5.082
   10AU     LIG 5650  19.075  17.726   4.885
   11POPC   NC3 5651   3.080  41.582   9.454
   11POPC   PO4 5652   2.468  41.264   9.563
   11POPC   GL1 5653   2.580  41.562   9.193
   11POPC   GL2 5654   2.336  41.844   9.190
   11POPC   C1A 5655   2.875  41.694   8.825
   11POPC   D2A 5656   3.211  41.628   8.495
   11POPC   C3A 5657   3.100  41.817   8.113
   11POPC   C4A 5658   2.993  41.674   7.730
   11POPC   C1B 5659   2.365  41.763   8.753
   11POPC   C2B 5660   2.625  41.830   8.379
   11POPC   C3B 5661   2.540  41.645   7.992
   11POPC   C4B 5662   2.245  41.755   7.647
   12POPC   NC3 5663   6.255  34.726   9.512
   12POPC   PO4 5664   5.812  34.243   9.400
   12POPC   GL1 5665   5.821  34.580   9.147
   12POPC   GL2 5666   6.121  34.629   9.043
   12POPC   C1A 5667   5.753  34.807   8.744
   12POPC   D2A 5668   5.915  34.827   8.328
   12POPC   C3A 5669   5.628  34.706   8.015
   12POPC   C4A 5670   5.639  34.943   7.658
   12POPC   C1B 5671   6.188  34.481   8.659
   12POPC   C2B 5672   6.317  34.419   8.239
   12POPC   C3B 5673   6.132  34.603   7.875
   12POPC   C4B 5674   5.800  34.454   7.583
   13POPC   NC3 5675   7.851   9.397   9.667
   13POPC   PO4 5676   7.304   9.048   9.583
   13POPC   GL1 5677   7.220   9.058   9.156
   13POPC   GL2 5678   7.525   8.888   9.055
   13POPC   C1A 5679   7.307   9.354   8.807
   13POPC   D2A 5680   7.431   9.413   8.372
   13POPC   C3A 5681   7.265   9.079   8.145
   13POPC   C4A 5682   7.202   9.014   7.739
   13POPC   C1B 5683   7.566   8.942   8.602
   13POPC   C2B 5684   7.759   8.903   8.189
   13POPC   C3B 5685   7.721   9.005   7.749
   13POPC   C4B 5686   7.594   8.849   7.354
   14POPC   NC3 5687   7.952   1.206   9.382
   14POPC   PO4 5688   8.607   1.373   9.459
   14POPC   GL1 5689   8.430   1.281   9.125
   14POPC   GL2 5690   8.340   0.942   9.195
   14POPC   C1A 5691   8.392   1.488   8.732
   14POPC   D2A 5692   8.483   1.313   8.326
   14POPC   C3A 5693   8.176   1.399   8.021
   14POPC   C4A 5694   8.182   1.577   7.641
   14POPC   C1B 5695   8.448   0.948   8.748
   14POPC   C2B 5696   8.316   0.831   8.360
   14POPC   C3B 5697   8.406   0.947   7.956
   14POPC   C4B 5698   8.032   0.770   7.814
   15POPC   NC3 5699  23.856  13.462   9.409
   15POPC   PO4 5700  23.489  14.050   9.470
   15POPC   GL1 5701  23.572  13.797   9.105
   15POPC   GL2 5702  23.612  13.456   8.980
   15POPC   C1A 5703  23.767  13.843   8.687
   15POPC   D2A 5704  23.604  13.898   8.284
   15POPC   C3A 5705  23.925  14.010   7.997
   15POPC   C4A 5706  23.748  14.130   7.595
   15POPC   C1B 5707  23.987  13.369   8.713
   15POPC   C2B 5708  24.026  13.196   8.294
   15POPC   C3B 5709  23.831  13.472   8.049
   15POPC   C4B 5710  23.787  13.641   7.693
   16POPC   NC3 5711  33.135   3.925   9.631
   16POPC   PO4 5712  32.960   3.215   9.620
   16POPC   GL1 5713  32.975   3.330   9.186
   16POPC   GL2 5714  33.113   3.655   9.092
   16POPC   C1A 5715  33.137   3.272   8.766
   16POPC   D2A 5716  33.397   3.066   8.507
   16POPC   C3A 5717  33.129   2.961   8.190
   16POPC   C4A 5718  32.911   3.283   7.916
   16POPC   C1B 5719  32.732   3.586   8.793
   16POPC   C2B 5720  32.863   3.553   8.398
   16POPC   C3B 5721  32.783   3.759   8.059
   16POPC   C4B 5722  32.509   3.633   7.763
   17POPC   NC3 5723  32.679   8.386   9.358
   17POPC   PO4 5724  32.053   8.149   9.514
   17POPC   GL1 5725  32.229   8.238   9.133
   17POPC   GL2 5726  32.480   8.023   9.108
   17POPC   C1A 5727  32.370   8.385   8.746
   17POPC   D2A 5728  32.191   8.542   8.371
   17POPC   C3A 5729  32.089   8.205   8.115
   17POPC   C4A 5730  32.376   8.152   7.735
   17POPC   C1B 5731  32.603   7.917   8.727
   17POPC   C2B 5732  32.561   8.111   8.328
   17POPC   C3B 5733  32.783   7.990   7.954
   17POPC   C4B 5734  32.644   7.714   7.614
   18POPC   NC3 5735  41.660  17.928   9.430
   18POPC   PO4 5736  41.207  17.339   9.504
   18POPC   GL1 5737  41.415  17.525   9.184
   18POPC   GL2 5738  41.229  17.822   9.153
   18POPC   C1A 5739  41.435  17.330   8.784
   18POPC   D2A 5740  41.428  17.173   8.354
   18POPC   C3A 5741  41.719  17.398   8.065
   18POPC   C4A 5742  41.779  17.276   7.654
   18POPC   C1B 5743  41.346  17.884   8.765
   18POPC   C2B 5744  41.438  17.684   8.404
   18POPC   C3B 5745  41.230  17.561   8.062
   18POPC   C4B 5746  41.408  17.644   7.683
   19POPC   NC3 5747  15.424   3.898   9.307
   19POPC   PO4 5748  15.070   3.335   9.540
   19POPC   GL1 5749  14.952   3.423   9.144
   19POPC   GL2 5750  15.338   3.419   9.089
   19POPC   C1A 5751  15.029   3.286   8.727
   19POPC   D2A 5752  15.279   3.546   8.426
   19POPC   C3A 5753  15.073   3.709   8.023
   19POPC   C4A 5754  15.027   3.336   7.819
   19POPC   C1B 5755  15.541   3.137   8.753
   19POPC   C2B 5756  15.683   3.227   8.311
   19POPC   C3B 5757  15.591   3.353   7.878
   19POPC   C4B 5758  15.811   3.328   7.475
   20POPC   NC3 5759  28.638  25.898   9.649
   20POPC   PO4 5760  28.073  26.152   9.573
   20POPC   GL1 5761  28.399  26.101   9.224
   20POPC   GL2 5762  28.523  25.771   9.126
   20POPC   C1A 5763  28.447  26.113   8.754
   20POPC   D2A 5764  28.178  26.130   8.388
   20POPC   C3A 5765  28.375  26.072   7.959
   20POPC   C4A 5766  28.466  26.337   7.586
   20POPC   C1B 5767  28.126  25.715   8.815
   20POPC   C2B 5768  27.954  25.674   8.358
   20POPC   C3B 5769  28.108  25.631   7.911
   20POPC   C4B 5770  28.409  25.460   7.593
   21POPC   NC3 5771  20.060  10.528   9.560
   21POPC   PO4 5772  19.517  10.248   9.549
   21POPC   GL1 5773  19.694  10.456   9.188
   21POPC   GL2 5774  20.049  10.362   9.095
   21POPC   C1A 5775  19.755  10.673   8.798
   21POPC   D2A 5776  19.634  10.489   8.414
   21POPC   C3A 5777  19.642  10.748   8.054
   21POPC   C4A 5778  19.654  10.511   7.660
   21POPC   C1B 5779  20.136  10.345   8.672
   21POPC   C2B 5780  20.109  10.667   8.343
   21POPC   C3B 5781  20.089  10.545   7.923
   21POPC   C4B 5782  20.056  10.112   7.704
   22POPC   NC3 5783  41.300  41.377   9.536
   22POPC   PO4 5784  41.714  41.780   9.517
   22POPC   GL1 5785  41.555  41.584   9.156
   22POPC   GL2 5786  41.296  41.769   9.093
   22POPC   C1A 5787  41.543  41.262   8.862
   22POPC   D2A 5788  41.294  41.167   8.480
   22POPC   C3A 5789  41.465  41.347   8.108
   22POPC   C4A 5790  41.570  41.578   7.736
   22POPC   C1B 5791  41.269  41.633   8.702
   22POPC   C2B 5792  41.315  41.774   8.336
   22POPC   C3B 5793  41.122  41.742   7.949
   22POPC   C4B 5794  41.119  42.030   7.600
   23POPC   NC3 5795   5.242  20.744   9.552
   23POPC   PO4 5796   4.631  20.505   9.527
   23POPC   GL1 5797   4.874  20.412   9.175
   23POPC   GL2 5798   5.244  20.382   9.165
   23POPC   C1A 5799   4.939  20.723   8.863
   23POPC   D2A 5800   5.001  20.792   8.426
   23POPC   C3A 5801   4.943  20.402   8.198
   23POPC   C4A 5802   4.948  20.385   7.738
   23POPC   C1B 5803   5.456  20.656   8.856
   23POPC   C2B 5804   5.542  20.551   8.420
   23POPC   C3B 5805   5.419  20.394   8.014
   23POPC   C4B 5806   5.505  20.601   7.640
   24POPC   NC3 5807   4.114   3.689   9.259
   24POPC   PO4 5808   4.769   3.826   9.432
   24POPC   GL1 5809   4.587   3.627   9.076
   24POPC   GL2 5810   4.621   3.305   9.009
   24POPC   C1A 5811   4.481   3.628   8.618
   24POPC   D2A 5812   4.749   3.690   8.276
   24POPC   C3A 5813   4.586   3.562   7.918
   24POPC   C4A 5814   4.199   3.709   7.757
   24POPC   C1B 5815   4.186   3.251   8.796
   24POPC   C2B 5816   4.133   3.077   8.416
   24POPC   C3B 5817   4.144   3.351   8.111
   24POPC   C4B 5818   3.966   3.195   7.763
   25POPC   NC3 5819  17.857  15.736   9.749
   25POPC   PO4 5820  17.432  16.181   9.519
   25POPC   GL1 5821  17.602  15.792   9.291
   25POPC   GL2 5822  17.937  15.915   9.180
   25POPC   C1A 5823  17.685  15.600   8.867
   25POPC   D2A 5824  17.545  15.737   8.436
   25POPC   C3A 5825  17.761  15.597   8.039
   25POPC   C4A 5826  17.631  15.695   7.605
   25POPC   C1B 5827  17.808  16.110   8.777
   25POPC   C2B 5828  17.694  16.226   8.341
   25POPC   C3B 5829  17.495  16.044   7.965
   25POPC   C4B 5830  17.234  16.234   7.645
   26POPC   NC3 5831   4.588  40.972   9.760
   26POPC   PO4 5832   4.286  40.892   9.202
   26POPC   GL1 5833   4.291  40.576   8.957
   26POPC   GL2 5834   4.441  40.290   9.097
   26POPC   C1A 5835   4.418  40.595   8.534
   26POPC   D2A 5836   4.471  40.937   8.251
   26POPC   C3A 5837   4.188  40.842   7.948
   26POPC   C4A 5838   4.179  40.628   7.609
   26POPC   C1B 5839   4.541  40.110   8.723
   26POPC   C2B 5840   4.689  40.203   8.320
   26POPC   C3B 5841   4.620  40.478   7.943
   26POPC   C4B 5842   4.554  40.292   7.517
   27POPC   NC3 5843   7.269   8.567   9.724
   27POPC   PO4 5844   7.109   7.844   9.657
   27POPC   GL1 5845   7.235   8.082   9.288
   27POPC   GL2 5846   7.357   8.419   9.218
   27POPC   C1A 5847   7.264   8.042   8.849
   27POPC   D2A 5848   7.466   7.976   8.475
   27POPC   C3A 5849   7.506   8.077   8.065
   27POPC   C4A 5850   7.185   8.152   7.839
   27POPC   C1B 5851   7.252   8.548   8.777
   27POPC   C2B 5852   7.466   8.504   8.356
   27POPC   C3B 5853   7.455   8.587   7.908
   27POPC   C4B 5854   7.491   8.381   7.509
   28POPC   NC3 5855   0.662  36.570  10.003
   28POPC   PO4 5856   0.330  36.890   9.509
   28POPC   GL1 5857   0.479  37.013   9.127
   28POPC   GL2 5858   0.839  37.110   9.153
   28POPC   C1A 5859   0.253  37.022   8.746
   28POPC   D2A 5860   0.106  36.654   8.536
   28POPC   C3A 5861   0.069  36.746   8.126
   28POPC   C4A 5862   0.257  37.027   7.861
   28POPC   C1B 5863   0.767  36.897   8.725
   28POPC   C2B 5864   0.534  36.889   8.319
   28POPC   C3B 5865   0.661  36.734   7.920
   28POPC   C4B 5866   0.717  37.134   7.711
   29POPC   NC3 5867  14.497  36.296   9.341
   29POPC   PO4 5868  14.186  35.655   9.523
   29POPC   GL1 5869  14.114  35.982   9.160
   29POPC   GL2 5870  14.112  36.346   9.032
   29POPC   C1A 5871  14.108  35.904   8.736
   29POPC   D2A 5872  14.281  35.975   8.312
   29POPC   C3A 5873  14.039  35.745   8.020
   29POPC   C4A 5874  13.845  35.876   7.635
   29POPC   C1B 5875  14.469  36.264   8.705
   29POPC   C2B 5876  14.595  36.414   8.304
   29POPC   C3B 5877  14.451  36.287   7.919
   29POPC   C4B 5878  14.584  36.403   7.532
   30POPC   NC3 5879  28.281   6.459   9.434
   30POPC   PO4 5880  28.775   6.843   9.353
   30POPC   GL1 5881  28.636   6.487   9.065
   30POPC   GL2 5882  28.252   6.463   8.936
   30POPC   C1A 5883  28.638   6.301   8.679
   30POPC   D2A 5884  28.326   6.464   8.372
   30POPC   C3A 5885  28.550   6.612   8.005
   30POPC   C4A 5886  28.778   6.366   7.700
   30POPC   C1B 5887  28.135   6.872   8.764
   30POPC   C2B 5888  27.869   6.929   8.385
   30POPC   C3B 5889  28.022   6.753   8.009
   30POPC   C4B 5890  28.278   6.998   7.785
   31POPC   NC3 5891  32.966  12.001   9.564
   31POPC   PO4 5892  33.561  11.817   9.459
   31POPC   GL1 5893  33.182  11.963   9.120
   31POPC   GL2 5894  32.940  12.284   9.141
   31POPC   C1A 5895  33.105  12.137   8.699
   31POPC   D2A 5896  32.908  11.948   8.361
   31POPC   C3A 5897  33.106  12.025   7.994
   31POPC   C4A 5898  33.454  12.163   7.743
   31POPC   C1B 5899  32.637  12.071   8.855
   31POPC   C2B 5900  32.446  12.135   8.457
   31POPC   C3B 5901  32.629  12.263   8.053
   31POPC   C4B 5902  32.963  12.462   7.763
   32POPC   NC3 5903  15.653  32.737   9.718
   32POPC   PO4 5904  16.190  32.851   9.316
   32POPC   GL1 5905  16.136  33.079   8.953
   32POPC   GL2 5906  16.192  33.411   9.118
   32POPC   C1A 5907  15.908  32.919   8.572
   32POPC   D2A 5908  15.881  32.565   8.286
   32POPC   C3A 5909  15.909  32.799   7.921
   32POPC   C4A 5910  15.689  33.194   7.945
   32POPC   C1B 5911  16.419  33.475   8.748
   32POPC   C2B 5912  16.266  33.243   8.402
   32POPC   C3B 5913  16.242  33.179   7.972
   32POPC   C4B 5914  16.326  33.444   7.627
   33POPC   NC3 5915  30.400  38.346   9.501
   33POPC   PO4 5916  31.093  38.480   9.425
   33POPC   GL1 5917  30.751  38.501   9.150
   33POPC   GL2 5918  30.462  38.749   9.196
   33POPC   C1A 5919  30.736  38.310   8.754
   33POPC   D2A 5920  30.814  38.547   8.378
   33POPC   C3A 5921  30.842  38.237   8.089
   33POPC   C4A 5922  30.675  38.118   7.728
   33POPC   C1B 5923  30.520  38.764   8.769
   33POPC   C2B 5924  30.286  38.468   8.524
   33POPC   C3B 5925  30.282  38.449   8.089
   33POPC   C4B 5926  30.619  38.645   7.862
   34POPC   NC3 5927   6.205  20.475   9.535
   34POPC   PO4 5928   5.519  20.294   9.596
   34POPC   GL1 5929   5.790  20.344   9.239
   34POPC   GL2 5930   5.848  20.687   9.216
   34POPC   C1A 5931   5.860  20.343   8.797
   34POPC   D2A 5932   6.101  20.479   8.423
   34POPC   C3A 5933   5.925  20.428   8.039
   34POPC   C4A 5934   5.952  20.310   7.637
   34POPC   C1B 5935   6.015  20.822   8.814
   34POPC   C2B 5936   5.893  20.942   8.404
   34POPC   C3B 5937   6.113  20.895   8.057
   34POPC   C4B 5938   6.213  20.736   7.723
   35POPC   NC3 5939  40.602   5.162   9.693
   35POPC   PO4 5940  40.881   4.654   9.783
   35POPC   GL1 5941  40.851   4.906   9.304
   35POPC   GL2 5942  41.196   5.008   9.235
   35POPC   C1A 5943  40.639   5.223   8.925
   35POPC   D2A 5944  40.734   5.352   8.467
   35POPC   C3A 5945  40.705   5.193   8.013
   35POPC   C4A 5946  40.776   5.380   7.576
   35POPC   C1B 5947  41.109   5.115   8.783
   35POPC   C2B 5948  41.079   4.953   8.361
   35POPC   C3B 5949  41.005   4.745   7.979
   35POPC   C4B 5950  40.853   4.880   7.611
   36POPC   NC3 5951  13.239  22.979   9.415
   36POPC   PO4 5952  13.914  22.933   9.488
   36POPC   GL1 5953  13.758  23.068   9.070
   36POPC   GL2 5954  13.428  23.240   8.988
   36POPC   C1A 5955  13.892  22.781   8.730
   36POPC   D2A 5956  13.977  22.581   8.347
   36POPC   C3A 5957  13.816  22.822   8.031
   36POPC   C4A 5958  13.691  22.669   7.689
   36POPC   C1B 5959  13.395  22.807   8.796
   36POPC   C2B 5960  13.468  22.674   8.380
   36POPC   C3B 5961  13.278  22.742   7.960
   36POPC   C4B 5962  13.271  22.761   7.450
   37POPC   NC3 5963  31.139  39.851   9.699
   37POPC   PO4 5964  31.763  39.985   9.579
   37POPC   GL1 5965  31.557  40.098   9.202
   37POPC   GL2 5966  31.566  39.770   9.062
   37POPC   C1A 5967  31.615  40.133   8.732
   37POPC   D2A 5968  31.836  39.849   8.502
   37POPC   C3A 5969  31.807  39.881   8.053
   37POPC   C4A 5970  31.907  39.590   7.723
   37POPC   C1B 5971  31.162  39.910   8.842
   37POPC   C2B 5972  31.076  40.084   8.457
   37POPC   C3B 5973  31.134  39.940   8.049
   37POPC   C4B 5974  31.372  39.984   7.722
   38POPC   NC3 5975  30.000  15.877   9.528
   38POPC   PO4 5976  30.070  16.559   9.411
   38POPC   GL1 5977  29.756  16.348   9.116
   38POPC   GL2 5978  29.661  15.968   9.156
   38POPC   C1A 5979  29.858  16.176   8.722
   38POPC   D2A 5980  29.948  16.100   8.295
   38POPC   C3A 5981  29.814  16.085   7.881
   38POPC   C4A 5982  30.191  15.919   7.770
   38POPC   C1B 5983  29.878  15.649   8.895
   38POPC   C2B 5984  30.054  15.616   8.514
   38POPC   C3B 5985  29.950  15.629   8.118
   38POPC   C4B 5986  29.936  15.479   7.748
   39POPC   NC3 5987  38.654  37.891   9.477
   39POPC   PO4 5988  38.497  38.556   9.639
   39POPC   GL1 5989  38.389  38.415   9.236
   39POPC   GL2 5990  38.240  38.713   9.142
   39POPC   C1A 5991  38.531  38.451   8.780
   39POPC   D2A 5992  38.715  38.652   8.383
   39POPC   C3A 5993  38.532  38.499   7.977
   39POPC   C4A 5994  38.518  38.092   7.812
   39POPC   C1B 5995  38.023  38.597   8.776
   39POPC   C2B 5996  38.210  38.608   8.378
   39POPC   C3B 5997  38.065  38.738   7.980
   39POPC   C4B 5998  38.140  38.821   7.564
   40POPC   NC3 5999  22.000  13.025   9.555
   40POPC   PO4 6000  22.393  12.678   9.746
   40POPC   GL1 6001  22.325  12.812   9.233
   40POPC   GL2 6002  22.101  13.088   9.073
   40POPC   C1A 6003  22.437  12.869   8.783
   40POPC   D2A 6004  22.204  13.139   8.477
   40POPC   C3A 6005  22.453  13.143   8.108
   40POPC   C4A 6006  22.483  12.862   7.771
   40POPC   C1B 6007  21.952  12.718   8.797
   40POPC   C2B 6008  22.042  12.663   8.369
   40POPC   C3B 6009  22.004  12.878   7.967
   40POPC   C4B 6010  21.848  12.627   7.596
   41POPC   NC3 6011  14.541  40.914   9.593
   41POPC   PO4 6012  14.018  40.516   9.363
   41POPC   GL1 6013  14.311  40.673   9.105
   41POPC   GL2 6014  14.579  40.907   9.098
   41POPC   C1A 6015  14.245  40.872   8.713
   41POPC   D2A 6016  14.446  41.037   8.353
   41POPC   C3A 6017  14.231  40.932   7.958
   41POPC   C4A 6018  14.154  40.579   7.641
   41POPC   C1B 6019  14.719  40.679   8.723
   41POPC   C2B 6020  14.732  40.538   8.309
   41POPC   C3B 6021  14.707  40.727   7.898
   41POPC   C4B 6022  14.911  40.638   7.509
   42POPC   NC3 6023   5.214   4.006   9.433
   42POPC   PO4 6024   4.856   4.571   9.642
   42POPC   GL1 6025   5.040   4.474   9.237
   42POPC   GL2 6026   5.387   4.571   9.210
   42POPC   C1A 6027   4.931   4.345   8.826
   42POPC   D2A 6028   4.811   4.167   8.443
   42POPC   C3A 6029   4.848   4.430   8.091
   42POPC   C4A 6030   5.184   4.456   7.803
   42POPC   C1B 6031   5.461   4.318   8.828
   42POPC   C2B 6032   5.493   3.951   8.561
   42POPC   C3B 6033   5.325   4.051   8.159
   42POPC   C4B 6034   5.409   3.987   7.734
   43POPC   NC3 6035  17.117   4.110   9.467
   43POPC   PO4 6036  16.438   4.364   9.561
   43POPC   GL1 6037  16.679   4.258   9.209
   43POPC   GL2 6038  16.666   3.904   9.203
   43POPC   C1A 6039  16.693   4.383   8.783
   43POPC   D2A 6040  16.592   4.578   8.393
   43POPC   C3A 6041  16.740   4.293   8.110
   43POPC   C4A 6042  16.944   4.449   7.775
   43POPC   C1B 6043  16.307   4.028   8.906
   43POPC   C2B 6044  16.213   4.259   8.516
   43POPC   C3B 6045  16.253   4.088   8.092
   43POPC   C4B 6046  16.488   3.962   7.710
   44POPC   NC3 6047  36.407  17.541   9.807
   44POPC   PO4 6048  35.851  17.779   9.631
   44POPC   GL1 6049  36.057  17.725   9.234
   44POPC   GL2 6050  36.015  17.404   9.168
   44POPC   C1A 6051  36.231  17.689   8.793
   44POPC   D2A 6052  36.018  17.562   8.410
   44POPC   C3A 6053  36.181  17.732   8.060
   44POPC   C4A 6054  36.353  17.640   7.721
   44POPC   C1B 6055  36.050  17.169   8.752
   44POPC   C2B 6056  35.875  17.085   8.320
   44POPC   C3B 6057  36.021  17.269   7.916
   44POPC   C4B 6058  36.119  17.292   7.442
   45POPC   NC3 6059  39.604   6.376   9.295
   45POPC   PO4 6060  38.943   6.493   9.502
   45POPC   GL1 6061  39.137   6.453   9.072
   45POPC   GL2 6062  39.322   6.718   8.912
   45POPC   C1A 6063  39.176   6.380   8.599
   45POPC   D2A 6064  39.133   6.643   8.233
   45POPC   C3A 6065  39.382   6.472   7.840
   45POPC   C4A 6066  39.525   6.321   7.387
   45POPC   C1B 6067  39.060   6.988   8.657
   45POPC   C2B 6068  39.164   7.311   8.410
   45POPC   C3B 6069  39.332   7.116   8.077
   45POPC   C4B 6070  39.084   6.899   7.788
   46POPC   NC3 6071  14.483  37.291   9.508
   46POPC   PO4 6072  14.233  36.651   9.451
   46POPC   GL1 6073  14.456  36.760   9.095
   46POPC   GL2 6074  14.324  37.066   9.086
   46POPC   C1A 6075  14.380  36.761   8.656
   46POPC   D2A 6076  14.104  36.501   8.407
   46POPC   C3A 6077  14.149  36.680   8.007
   46POPC   C4A 6078  14.310  36.828   7.647
   46POPC   C1B 6079  14.106  37.199   8.717
   46POPC   C2B 6080  13.916  37.012   8.341
   46POPC   C3B 6081  13.961  37.168   7.905
   46POPC   C4B 6082  14.015  37.219   7.457
   47POPC   NC3 6083   2.119  39.782   9.582
   47POPC   PO4 6084   1.456  40.131   9.448
   47POPC   GL1 6085   1.730  40.081   9.078
   47POPC   GL2 6086   2.103  40.016   9.112
   47POPC   C1A 6087   1.864  40.076   8.644
   47POPC   D2A 6088   1.845  39.839   8.262
   47POPC   C3A 6089   1.848  40.173   7.924
   47POPC   C4A 6090   1.691  40.322   7.509
   47POPC   C1B 6091   2.456  39.911   8.809
   47POPC   C2B 6092   2.597  39.981   8.357
   47POPC   C3B 6093   2.302  39.864   8.009
   47POPC   C4B 6094   2.396  39.621   7.644
   48POPC   NC3 6095  41.463  23.309   9.601
   48POPC   PO4 6096  41.995  22.819   9.617
   48POPC   GL1 6097  41.750  22.942   9.224
   48POPC   GL2 6098  41.413  23.092   9.148
   48POPC   C1A 6099  41.734  22.988   8.761
   48POPC   D2A 6100  41.466  23.208   8.435
   48POPC   C3A 6101  41.600  23.280   8.013
   48POPC   C4A 6102  41.640  22.922   7.717
   48POPC   C1B 6103  41.215  22.936   8.771
   48POPC   C2B 6104  41.151  22.705   8.351
   48POPC   C3B 6105  41.131  22.790   7.875
   48POPC   C4B 6106  41.194  22.823   7.398
   49POPC   NC3 6107  39.012  41.096   9.456
   49POPC   PO4 6108  39.449  41.640   9.327
   49POPC   GL1 6109  39.229  41.429   9.098
   49POPC   GL2 6110  39.462  41.262   8.902
   49POPC   C1A 6111  39.113  41.629   8.741
   49POPC   D2A 6112  39.195  41.416   8.391
   49POPC   C3A 6113  39.118  41.640   8.046
   49POPC   C4A 6114  38.927  41.541   7.656
   49POPC   C1B 6115  39.631  41.624   8.717
   49POPC   C2B 6116  39.556  41.791   8.335
   49POPC   C3B 6117  39.628  41.621   7.950
   49POPC   C4B 6118  39.416  41.423   7.596
   50POPC   NC3 6119   1.459  34.766   9.383
   50POPC   PO4 6120   1.017  34.367   9.616
   50POPC   GL1 6121   1.086  34.449   9.167
   50POPC   GL2 6122   1.371  34.301   9.030
   50POPC   C1A 6123   1.009  34.653   8.735
   50POPC   D2A 6124   1.211  34.767   8.325
   50POPC   C3A 6125   1.015  34.692   7.943
   50POPC   C4A 6126   1.324  34.680   7.637
   50POPC   C1B 6127   1.527  34.630   8.728
   50POPC   C2B 6128   1.678  34.507   8.307
   50POPC   C3B 6129   1.759  34.389   7.855
   50POPC   C4B 6130   1.661  34.381   7.400
   51POPC   NC3 6131  18.985  38.074   9.409
   51POPC   PO4 6132  19.113  37.371   9.547
   51POPC   GL1 6133  18.870  37.440   9.148
   51POPC   GL2 6134  18.982  37.713   9.065
   51POPC   C1A 6135  18.904  37.365   8.702
   51POPC   D2A 6136  19.158  37.385   8.381
   51POPC   C3A 6137  18.970  37.416   8.018
   51POPC   C4A 6138  19.110  37.715   7.766
   51POPC   C1B 6139  19.354  37.534   8.889
   51POPC   C2B 6140  19.611  37.563   8.523
   51POPC   C3B 6141  19.517  37.595   8.071
   51POPC   C4B 6142  19.609  37.907   7.717
   52POPC   NC3 6143   5.228  14.536   9.531
   52POPC   PO4 6144   5.133  13.837   9.488
   52POPC   GL1 6145   5.231  14.142   9.176
   52POPC   GL2 6146   4.906  14.327   9.169
   52POPC   C1A 6147   5.273  14.348   8.772
   52POPC   D2A 6148   5.118  14.268   8.361
   52POPC   C3A 6149   5.384  14.406   8.020
   52POPC   C4A 6150   5.350  14.223   7.626
   52POPC   C1B 6151   4.871  14.675   8.867
   52POPC   C2B 6152   5.023  14.767   8.446
   52POPC   C3B 6153   4.930  14.637   8.020
   52POPC   C4B 6154   5.005  14.563   7.561
   53POPC   NC3 6155  11.704  21.437   9.902
   53POPC   PO4 6156  12.275  21.389   9.540
   53POPC   GL1 6157  12.115  21.402   9.135
   53POPC   GL2 6158  11.890  21.198   9.228
   53POPC   C1A 6159  12.280  21.501   8.710
   53POPC   D2A 6160  12.354  21.753   8.316
   53POPC   C3A 6161  12.167  21.546   7.948
   53POPC   C4A 6162  12.398  21.206   7.796
   53POPC   C1B 6163  11.864  21.021   8.844
   53POPC   C2B 6164  11.765  21.113   8.441
   53POPC   C3B 6165  12.022  21.061   8.118
   53POPC   C4B 6166  11.894  21.093   7.714
   54POPC   NC3 6167  16.181   7.103   9.556
   54POPC   PO4 6168  15.803   7.711   9.617
   54POPC   GL1 6169  15.923   7.465   9.281
   54POPC   GL2 6170  16.270   7.488   9.202
   54POPC   C1A 6171  15.858   7.398   8.855
   54POPC   D2A 6172  15.900   7.571   8.448
   54POPC   C3A 6173  15.934   7.324   8.103
   54POPC   C4A 6174  15.637   7.308   7.801
   54POPC   C1B 6175  16.319   7.569   8.762
   54POPC   C2B 6176  16.329   7.821   8.355
   54POPC   C3B 6177  16.264   7.660   7.906
   54POPC   C4B 6178  15.963   7.631   7.568
   55POPC   NC3 6179  40.002  13.177   9.507
   55POPC   PO4 6180  40.000  12.451   9.601
   55POPC   GL1 6181  40.157  12.715   9.267
   55POPC   GL2 6182  40.304  12.509   9.033
   55POPC   C1A 6183  39.989  12.899   8.872
   55POPC   D2A 6184  40.109  13.085   8.476
   55POPC   C3A 6185  39.911  12.969   8.102
   55POPC   C4A 6186  39.899  13.025   7.668
   55POPC   C1B 6187  40.276  12.580   8.569
   55POPC   C2B 6188  40.409  12.769   8.182
   55POPC   C3B 6189  40.206  12.637   7.861
   55POPC   C4B 6190  39.750  12.560   7.791
   56POPC   NC3 6191  31.682  39.508   9.490
   56POPC   PO4 6192  31.143  39.203   9.724
   56POPC   GL1 6193  31.316  39.025   9.256
   56POPC   GL2 6194  31.551  39.242   9.104
   56POPC   C1A 6195  31.446  38.934   8.757
   56POPC   D2A 6196  31.323  39.105   8.322
   56POPC   C3A 6197  31.084  38.838   8.005
   56POPC   C4A 6198  30.973  38.881   7.534
   56POPC   C1B 6199  31.400  39.437   8.722
   56POPC   C2B 6200  31.363  39.656   8.382
   56POPC   C3B 6201  31.430  39.541   7.963
   56POPC   C4B 6202  31.298  39.209   7.722
   57POPC   NC3 6203  28.215  13.082   9.531
   57POPC   PO4 6204  28.640  12.600   9.452
   57POPC   GL1 6205  28.397  12.754   9.135
   57POPC   GL2 6206  28.542  13.073   9.167
   57POPC   C1A 6207  28.321  12.658   8.693
   57POPC   D2A 6208  28.288  12.883   8.302
   57POPC   C3A 6209  28.022  12.865   7.933
   57POPC   C4A 6210  28.241  12.696   7.579
   57POPC   C1B 6211  28.305  13.153   8.807
   57POPC   C2B 6212  28.552  13.283   8.480
   57POPC   C3B 6213  28.440  13.336   8.100
   57POPC   C4B 6214  28.436  13.143   7.739
   58POPC   NC3 6215  40.386  25.119   9.761
   58POPC   PO4 6216  41.000  25.167   9.536
   58POPC   GL1 6217  40.972  25.056   9.094
   58POPC   GL2 6218  41.116  24.753   9.037
   58POPC   C1A 6219  40.690  25.118   8.720
   58POPC   D2A 6220  40.594  25.400   8.372
   58POPC   C3A 6221  40.661  25.354   7.888
   58POPC   C4A 6222  40.447  25.382   7.456
   58POPC   C1B 6223  40.976  24.709   8.639
   58POPC   C2B 6224  40.936  24.967   8.264
   58POPC   C3B 6225  41.201  24.917   7.910
   58POPC   C4B 6226  41.330  25.153   7.556
   59POPC   NC3 6227  36.823  33.450   9.530
   59POPC   PO4 6228  36.838  34.133   9.516
   59POPC   GL1 6229  36.720  34.060   9.100
   59POPC   GL2 6230  36.782  33.692   9.085
   59POPC   C1A 6231  36.566  33.907   8.684
   59POPC   D2A 6232  36.713  33.478   8.543
   59POPC   C3A 6233  36.677  33.331   8.107
   59POPC   C4A 6234  36.465  33.535   7.759
   59POPC   C1B 6235  37.071  33.834   8.770
   59POPC   C2B 6236  36.968  34.050   8.380
   59POPC   C3B 6237  36.772  33.838   8.052
   59POPC   C4B 6238  37.097  33.645   7.774
   60POPC   NC3 6239  36.462  21.898   9.444
   60POPC   PO4 6240  35.751  21.838   9.495
   60POPC   GL1 6241  36.028  22.039   9.185
   60POPC   GL2 6242  36.173  22.382   9.186
   60POPC   C1A 6243  36.232  21.959   8.800
   60POPC   D2A 6244  36.229  22.133   8.403
   60POPC   C3A 6245  36.125  21.893   8.076
   60POPC   C4A 6246  36.240  22.037   7.677
   60POPC   C1B 6247  36.329  22.475   8.770
   60POPC   C2B 6248  36.523  22.559   8.359
   60POPC   C3B 6249  36.333  22.513   7.957
   60POPC   C4B 6250  36.135  22.534   7.571
   61POPC   NC3 6251  21.510  12.466   9.466
   61POPC   PO4 6252  21.098  13.010   9.574
   61POPC   GL1 6253  21.270  12.981   9.150
   61POPC   GL2 6254  21.626  12.898   9.163
   61POPC   C1A 6255  21.349  12.764   8.736
   61POPC   D2A 6256  21.534  12.513   8.390
   61POPC   C3A 6257  21.524  12.730   7.991
   61POPC   C4A 6258  21.201  12.900   7.717
   61POPC   C1B 6259  21.704  13.148   8.767
   61POPC   C2B 6260  21.673  13.026   8.388
   61POPC   C3B 6261  21.464  13.242   8.098
   61POPC   C4B 6262  21.641  13.225   7.743
   62POPC   NC3 6263  13.862  44.655   9.928
   62POPC   PO4 6264  14.502  44.880   9.700
   62POPC   GL1 6265  14.510  44.888   9.213
   62POPC   GL2 6266  14.418  44.552   9.100
   62POPC   C1A 6267  14.384  44.913   8.757
   62POPC   D2A 6268  14.425  44.638   8.375
   62POPC   C3A 6269  14.336  44.826   7.950
   62POPC   C4A 6270  14.291   0.007   7.527
   62POPC   C1B 6271  14.085  44.492   8.739
   62POPC   C2B 6272  14.012  44.339   8.303
   62POPC   C3B 6273  14.001  44.409   7.858
   62POPC   C4B 6274  14.144  44.180   7.491
   63POPC   NC3 6275  28.087  15.916   9.538
   63POPC   PO4 6276  28.710  16.034   9.415
   63POPC   GL1 6277  28.590  15.682   9.130
   63POPC   GL2 6278  28.222  15.655   9.129
   63POPC   C1A 6279  28.507  15.681   8.676
   63POPC   D2A 6280  28.655  15.734   8.247
   63POPC   C3A 6281  28.507  16.083   7.976
   63POPC   C4A 6282  28.083  16.232   7.805
   63POPC   C1B 6283  28.008  15.566   8.754
   63POPC   C2B 6284  28.170  15.455   8.346
   63POPC   C3B 6285  28.181  15.683   7.942
   63POPC   C4B 6286  28.184  15.824   7.512
   64POPC   NC3 6287  39.658  40.419   9.809
   64POPC   PO4 6288  39.943  39.850   9.514
   64POPC   GL1 6289  40.022  39.932   9.115
   64POPC   GL2 6290  40.027  40.266   9.104
   64POPC   C1A 6291  39.931  39.923   8.701
   64POPC   D2A 6292  40.100  39.730   8.383
   64POPC   C3A 6293  39.842  39.771   8.074
   64POPC   C4A 6294  40.019  39.786   7.705
   64POPC   C1B 6295  40.197  40.341   8.724
   64POPC   C2B 6296  40.038  40.255   8.313
   64POPC   C3B 6297  39.972  40.270   7.874
   64POPC   C4B 6298  39.716  40.188   7.505
   65POPC   NC3 6299  15.665  38.443   9.489
   65POPC   PO4 6300  16.166  38.048   9.547
   65POPC   GL1 6301  16.040  38.236   9.166
   65POPC   GL2 6302  15.741  38.031   9.182
   65POPC   C1A 6303  16.048  38.533   8.791
   65POPC   D2A 6304  16.159  38.773   8.383
   65POPC   C3A 6305  15.907  38.634   8.005
   65POPC   C4A 6306  16.039  38.374   7.603
   65POPC   C1B 6307  15.632  38.210   8.791
   65POPC   C2B 6308  15.728  38.292   8.360
   65POPC   C3B 6309  15.636  38.220   7.926
   65POPC   C4B 6310  15.546  38.434   7.552
   66POPC   NC3 6311  33.190  22.666   9.540
   66POPC   PO4 6312  33.202  23.228   9.341
   66POPC   GL1 6313  33.051  22.858   9.071
   66POPC   GL2 6314  33.229  22.502   9.049
   66POPC   C1A 6315  32.970  23.002   8.650
   66POPC   D2A 6316  33.240  23.101   8.284
   66POPC   C3A 6317  33.007  23.041   7.895
   66POPC   C4A 6318  32.723  23.098   7.530
   66POPC   C1B 6319  32.993  22.474   8.656
   66POPC   C2B 6320  32.871  22.700   8.252
   66POPC   C3B 6321  32.654  22.644   7.819
   66POPC   C4B 6322  32.607  22.605   7.348
   67POPC   NC3 6323   0.828  30.030   9.451
   67POPC   PO4 6324   0.111  30.083   9.380
   67POPC   GL1 6325   0.212  29.865   9.039
   67POPC   GL2 6326   0.544  29.969   9.004
   67POPC   C1A 6327   0.160  29.890   8.612
   67POPC   D2A 6328   0.413  29.822   8.283
   67POPC   C3A 6329   0.204  29.752   7.913
   67POPC   C4A 6330   0.310  30.106   7.682
   67POPC   C1B 6331   0.901  29.898   8.714
   67POPC   C2B 6332   0.934  29.778   8.272
   67POPC   C3B 6333   0.767  29.955   7.893
   67POPC   C4B 6334   0.949  30.246   7.633
   68POPC   NC3 6335   3.744  19.642   9.474
   68POPC   PO4 6336   3.196  20.011   9.449
   68POPC   GL1 6337   3.436  19.882   9.133
   68POPC   GL2 6338   3.281  19.582   9.074
   68POPC   C1A 6339   3.664  19.731   8.766
   68POPC   D2A 6340   3.604  19.897   8.369
   68POPC   C3A 6341   3.717  19.693   8.019
   68POPC   C4A 6342   3.665  19.778   7.601
   68POPC   C1B 6343   3.159  19.824   8.691
   68POPC   C2B 6344   3.121  19.963   8.275
   68POPC   C3B 6345   3.309  20.060   7.891
   68POPC   C4B 6346   3.167  19.757   7.608
   69POPC   NC3 6347  14.743   1.946   9.750
   69POPC   PO4 6348  14.102   1.973   9.530
   69POPC   GL1 6349  14.423   1.768   9.280
   69POPC   GL2 6350  14.728   1.932   9.204
   69POPC   C1A 6351  14.426   1.692   8.829
   69POPC   D2A 6352  14.255   1.962   8.502
   69POPC   C3A 6353  14.225   1.796   8.079
   69POPC   C4A 6354  14.226   2.091   7.771
   69POPC   C1B 6355  14.659   2.140   8.811
   69POPC   C2B 6356  14.766   1.938   8.443
   69POPC   C3B 6357  14.676   2.053   8.054
   69POPC   C4B 6358  14.666   1.876   7.657
   70POPC   NC3 6359   3.128  36.513   9.406
   70POPC   PO4 6360   2.767  35.976   9.577
   70POPC   GL1 6361   2.661  36.044   9.165
   70POPC   GL2 6362   2.938  36.181   9.048
   70POPC   C1A 6363   2.559  36.089   8.725
   70POPC   D2A 6364   2.766  36.241   8.422
   70POPC   C3A 6365   2.658  35.996   8.110
   70POPC   C4A 6366   2.467  36.104   7.741
   70POPC   C1B 6367   3.017  35.852   8.740
   70POPC   C2B 6368   3.169  35.935   8.335
   70POPC   C3B 6369   3.101  36.177   7.963
   70POPC   C4B 6370   3.209  36.046   7.606
   71POPC   NC3 6371  32.037  44.905   9.484
   71POPC   PO4 6372  32.733  44.787   9.596
   71POPC   GL1 6373  32.458  44.620   9.217
   71POPC   GL2 6374  32.158  44.699   9.036
   71POPC   C1A 6375  32.606  44.591   8.764
   71POPC   D2A 6376  32.647  44.383   8.349
   71POPC   C3A 6377  32.505  44.510   7.941
   71POPC   C4A 6378  32.117  44.451   7.734
   71POPC   C1B 6379  32.138  44.475   8.643
   71POPC   C2B 6380  32.173  44.694   8.272
   71POPC   C3B 6381  32.000  44.970   7.983
   71POPC   C4B 6382  32.131  44.937   7.591
   72POPC   NC3 6383   7.875  42.074   9.371
   72POPC   PO4 6384   8.295  42.553   9.547
   72POPC   GL1 6385   8.171  42.437   9.105
   72POPC   GL2 6386   8.175  42.069   8.976
   72POPC   C1A 6387   8.133  42.411   8.632
   72POPC   D2A 6388   8.209  42.070   8.424
   72POPC   C3A 6389   8.073  42.172   8.052
   72POPC   C4A 6390   8.191  42.431   7.711
   72POPC   C1B 6391   7.784  42.041   8.739
   72POPC   C2B 6392   7.630  42.133   8.352
   72POPC   C3B 6393   7.598  41.967   7.947
   72POPC   C4B 6394   7.705  42.299   7.716
   73POPC   NC3 6395  42.344  22.506   9.704
   73POPC   PO4 6396  42.603  23.070   9.358
   73POPC   GL1 6397  42.261  22.901   9.134
   73POPC   GL2 6398  42.149  22.579   9.205
   73POPC   C1A 6399  42.214  22.806   8.688
   73POPC   D2A 6400  42.319  23.081   8.328
   73POPC   C3A 6401  42.501  22.898   7.947
   73POPC   C4A 6402  42.510  23.058   7.509
   73POPC   C1B 6403  41.970  22.367   8.853
   73POPC   C2B 6404  42.084  22.336   8.418
   73POPC   C3B 6405  42.029  22.678   8.125
   73POPC   C4B 6406  42.092  22.652   7.692
   74POPC   NC3 6407  20.404   9.092   9.462
   74POPC   PO4 6408  21.019   8.738   9.427
   74POPC   GL1 6409  20.699   8.869   9.117
   74POPC   GL2 6410  20.827   9.211   9.021
   74POPC   C1A 6411  20.410   9.075   8.792
   74POPC   D2A 6412  20.517   9.174   8.384
   74POPC   C3A 6413  20.244   9.178   8.041
   74POPC   C4A 6414  20.321   9.033   7.621
   74POPC   C1B 6415  20.949   9.392   8.608
   74POPC   C2B 6416  20.826   9.503   8.165
   74POPC   C3B 6417  20.736   9.151   7.894
   74POPC   C4B 6418  20.847   9.078   7.435
   75POPC   NC3 6419  30.796  35.883   9.448
   75POPC   PO4 6420  31.089  36.491   9.236
   75POPC   GL1 6421  30.659  36.316   9.120
   75POPC   GL2 6422  30.543  35.983   8.997
   75POPC   C1A 6423  30.507  36.441   8.729
   75POPC   D2A 6424  30.775  36.612   8.382
   75POPC   C3A 6425  30.888  36.278   8.103
   75POPC   C4A 6426  30.521  36.147   7.916
   75POPC   C1B 6427  30.767  36.028   8.598
   75POPC   C2B 6428  30.747  35.791   8.217
   75POPC   C3B 6429  30.913  35.768   7.783
   75POPC   C4B 6430  30.848  35.701   7.268
   76POPC   NC3 6431   3.048  31.363   9.556
   76POPC   PO4 6432   3.673  31.685   9.636
   76POPC   GL1 6433   3.686  31.466   9.237
   76POPC   GL2 6434   3.395  31.329   9.185
   76POPC   C1A 6435   3.718  31.573   8.823
   76POPC   D2A 6436   3.887  31.598   8.409
   76POPC   C3A 6437   3.557  31.733   8.138
   76POPC   C4A 6438   3.470  31.499   7.762
   76POPC   C1B 6439   3.355  31.178   8.776
   76POPC   C2B 6440   3.419  31.317   8.404
   76POPC   C3B 6441   3.317  31.083   8.057
   76POPC   C4B 6442   3.397  30.981   7.669
   77POPC   NC3 6443  19.838  12.371   9.446
   77POPC   PO4 6444  20.215  11.760   9.467
   77POPC   GL1 6445  19.927  11.883   9.106
   77POPC   GL2 6446  19.928  12.265   8.964
   77POPC   C1A 6447  19.868  11.857   8.664
   77POPC   D2A 6448  20.049  12.202   8.452
   77POPC   C3A 6449  20.041  12.195   8.031
   77POPC   C4A 6450  19.917  11.921   7.703
   77POPC   C1B 6451  19.589  12.298   8.634
   77POPC   C2B 6452  19.570  12.372   8.191
   77POPC   C3B 6453  19.655  12.345   7.744
   77POPC   C4B 6454  19.979  12.364   7.401
   78POPC   NC3 6455  29.576   0.767   9.421
   78POPC   PO4 6456  30.047   0.359   9.638
   78POPC   GL1 6457  30.044   0.294   9.245
   78POPC   GL2 6458  29.710   0.353   9.169
   78POPC   C1A 6459  30.175   0.336   8.845
   78POPC   D2A 6460  30.201   0.437   8.387
   78POPC   C3A 6461  30.488   0.306   8.101
   78POPC   C4A 6462  30.261   0.271   7.723
   78POPC   C1B 6463  29.728   0.574   8.758
   78POPC   C2B 6464  29.724   0.344   8.386
   78POPC   C3B 6465  29.857   0.482   7.988
   78POPC   C4B 6466  29.832   0.780   7.686
   79POPC   NC3 6467  12.451   2.504   9.522
   79POPC   PO4 6468  11.943   3.075   9.489
   79POPC   GL1 6469  12.044   2.869   9.084
   79POPC   GL2 6470  12.296   2.670   9.082
   79POPC   C1A 6471  12.094   2.750   8.630
   79POPC   D2A 6472  11.864   2.630   8.283
   79POPC   C3A 6473  12.018   2.457   7.917
   79POPC   C4A 6474  12.164   2.749   7.633
   79POPC   C1B 6475  12.448   2.411   8.814
   79POPC   C2B 6476  12.694   2.515   8.485
   79POPC   C3B 6477  12.457   2.621   8.123
   79POPC   C4B 6478  12.562   2.443   7.742
   80POPC   NC3 6479  14.686   1.167   9.533
   80POPC   PO4 6480  14.090   0.973   9.529
   80POPC   GL1 6481  14.329   1.268   9.179
   80POPC   GL2 6482  14.746   1.403   9.104
   80POPC   C1A 6483  14.116   1.250   8.784
   80POPC   D2A 6484  14.100   0.921   8.461
   80POPC   C3A 6485  14.043   1.177   8.122
   80POPC   C4A 6486  14.231   1.323   7.761
   80POPC   C1B 6487  14.627   1.212   8.731
   80POPC   C2B 6488  14.438   1.422   8.381
   80POPC   C3B 6489  14.668   1.519   8.014
   80POPC   C4B 6490  14.710   1.385   7.577
   81POPC   NC3 6491  43.669  41.791   9.524
   81POPC   PO4 6492  44.331  41.559   9.615
   81POPC   GL1 6493  44.075  41.525   9.251
   81POPC   GL2 6494  43.790  41.326   9.317
   81POPC   C1A 6495  44.156  41.604   8.796
   81POPC   D2A 6496  44.132  41.353   8.414
   81POPC   C3A 6497  44.032  41.595   8.055
   81POPC   C4A 6498  43.969  41.884   7.703
   81POPC   C1B 6499  43.781  41.284   8.877
   81POPC   C2B 6500  43.673  41.582   8.537
   81POPC   C3B 6501  43.528  41.667   8.111
   81POPC   C4B 6502  43.649  41.511   7.702
   82POPC   NC3 6503   3.905  10.939   9.494
   82POPC   PO4 6504   3.243  10.729   9.543
   82POPC   GL1 6505   3.428  10.597   9.131
   82POPC   GL2 6506   3.765  10.572   9.107
   82POPC   C1A 6507   3.525  10.342   8.750
   82POPC   D2A 6508   3.496  10.476   8.329
   82POPC   C3A 6509   3.479  10.239   7.954
   82POPC   C4A 6510   3.530  10.366   7.512
   82POPC   C1B 6511   4.037  10.435   8.740
   82POPC   C2B 6512   4.013  10.483   8.274
   82POPC   C3B 6513   3.976  10.450   7.807
   82POPC   C4B 6514   4.000  10.438   7.332
   83POPC   NC3 6515  11.765  43.573   9.498
   83POPC   PO4 6516  11.984  44.152   9.736
   83POPC   GL1 6517  12.055  43.953   9.295
   83POPC   GL2 6518  12.401  43.876   9.194
   83POPC   C1A 6519  11.965  43.880   8.836
   83POPC   D2A 6520  11.804  43.991   8.411
   83POPC   C3A 6521  11.829  43.699   8.051
   83POPC   C4A 6522  12.042  43.864   7.698
   83POPC   C1B 6523  12.474  43.764   8.750
   83POPC   C2B 6524  12.270  43.748   8.326
   83POPC   C3B 6525  12.316  43.505   7.954
   83POPC   C4B 6526  12.358  43.521   7.468
   84POPC   NC3 6527  42.867  18.305   9.870
   84POPC   PO4 6528  42.291  18.546   9.473
   84POPC   GL1 6529  42.101  18.385   9.065
   84POPC   GL2 6530  42.365  18.173   9.026
   84POPC   C1A 6531  42.205  18.263   8.571
   84POPC   D2A 6532  42.047  18.527   8.262
   84POPC   C3A 6533  42.180  18.443   7.824
   84POPC   C4A 6534  42.339  18.066   7.650
   84POPC   C1B 6535  42.494  18.599   8.808
   84POPC   C2B 6536  42.493  18.716   8.413
   84POPC   C3B 6537  42.591  18.453   8.125
   84POPC   C4B 6538  42.717  18.452   7.707
   85POPC   NC3 6539  24.152  10.600   9.575
   85POPC   PO4 6540  23.473  10.919   9.428
   85POPC   GL1 6541  23.788  10.658   9.157
   85POPC   GL2 6542  24.028  10.350   9.159
   85POPC   C1A 6543  23.625  10.394   8.809
   85POPC   D2A 6544  23.622  10.140   8.424
   85POPC   C3A 6545  23.548  10.332   8.043
   85POPC   C4A 6546  23.475  10.639   7.707
   85POPC   C1B 6547  24.125  10.453   8.740
   85POPC   C2B 6548  23.948  10.544   8.383
   85POPC   C3B 6549  24.066  10.400   8.001
   85POPC   C4B 6550  23.842  10.275   7.638
   86POPC   NC3 6551  37.266  36.203   9.393
   86POPC   PO4 6552  38.012  36.205   9.481
   86POPC   GL1 6553  37.983  36.069   9.069
   86POPC   GL2 6554  37.654  35.956   9.154
   86POPC   C1A 6555  37.942  36.002   8.619
   86POPC   D2A 6556  37.877  36.191   8.239
   86POPC   C3A 6557  37.854  35.845   7.960
   86POPC   C4A 6558  37.815  35.977   7.578
   86POPC   C1B 6559  37.463  36.020   8.755
   86POPC   C2B 6560  37.476  35.873   8.314
   86POPC   C3B 6561  37.374  35.983   7.878
   86POPC   C4B 6562  37.406  36.276   7.494
   87POPC   NC3 6563  32.700  43.326   9.459
   87POPC   PO4 6564  33.313  42.933   9.516
   87POPC   GL1 6565  33.075  42.949   9.148
   87POPC   GL2 6566  32.804  42.689   9.181
   87POPC   C1A 6567  33.080  43.252   8.786
   87POPC   D2A 6568  32.886  43.366   8.387
   87POPC   C3A 6569  33.113  43.196   8.044
   87POPC   C4A 6570  33.255  43.410   7.666
   87POPC   C1B 6571  32.661  42.989   8.858
   87POPC   C2B 6572  32.737  42.872   8.455
   87POPC   C3B 6573  32.637  42.940   8.049
   87POPC   C4B 6574  32.723  43.206   7.710
   88POPC   NC3 6575  43.140   5.509   9.678
   88POPC   PO4 6576  42.822   6.065   9.415
   88POPC   GL1 6577  43.161   5.914   9.164
   88POPC   GL2 6578  43.422   5.693   9.283
   88POPC   C1A 6579  43.266   5.950   8.759
   88POPC   D2A 6580  43.344   6.224   8.465
   88POPC   C3A 6581  43.107   6.104   8.101
   88POPC   C4A 6582  43.203   6.037   7.672
   88POPC   C1B 6583  43.430   5.482   8.900
   88POPC   C2B 6584  43.247   5.418   8.507
   88POPC   C3B 6585  43.327   5.560   8.080
   88POPC   C4B 6586  43.403   5.585   7.655
   89POPC   NC3 6587  14.898  13.198   9.369
   89POPC   PO4 6588  15.000  13.867   9.609
   89POPC   GL1 6589  15.031  13.635   9.192
   89POPC   GL2 6590  15.363  13.642   9.068
   89POPC   C1A 6591  14.957  13.762   8.747
   89POPC   D2A 6592  15.276  13.697   8.436
   89POPC   C3A 6593  15.228  13.466   8.134
   89POPC   C4A 6594  15.243  13.703   7.804
   89POPC   C1B 6595  15.199  13.305   8.758
   89POPC   C2B 6596  14.896  13.175   8.423
   89POPC   C3B 6597  14.960  13.093   7.961
   89POPC   C4B 6598  14.918  13.349   7.605
   90POPC   NC3 6599  41.315  36.609   9.400
   90POPC   PO4 6600  41.325  35.886   9.470
   90POPC   GL1 6601  41.337  36.146   9.126
   90POPC   GL2 6602  41.654  36.345   9.133
   90POPC   C1A 6603  41.490  36.052   8.723
   90POPC   D2A 6604  41.720  35.953   8.391
   90POPC   C3A 6605  41.460  35.938   8.026
   90POPC   C4A 6606  41.514  35.772   7.607
   90POPC   C1B 6607  41.557  36.564   8.720
   90POPC   C2B 6608  41.535  36.459   8.229
   90POPC   C3B 6609  41.277  36.560   7.823
   90POPC   C4B 6610  41.115  36.571   7.385
   91POPC   NC3 6611  23.715  12.755   9.528
   91POPC   PO4 6612  23.410  13.309   9.481
   91POPC   GL1 6613  23.506  12.986   9.139
   91POPC   GL2 6614  23.884  13.024   9.077
   91POPC   C1A 6615  23.659  12.621   8.863
   91POPC   D2A 6616  23.937  12.685   8.503
   91POPC   C3A 6617  23.735  12.681   8.100
   91POPC   C4A 6618  24.014  12.570   7.798
   91POPC   C1B 6619  23.613  13.061   8.650
   91POPC   C2B 6620  23.508  13.139   8.253
   91POPC   C3B 6621  23.546  13.089   7.822
   91POPC   C4B 6622  23.317  12.738   7.724
   92POPC   NC3 6623  14.392  26.864   9.588
   92POPC   PO4 6624  14.955  26.631   9.332
   92POPC   GL1 6625  14.582  26.713   9.062
   92POPC   GL2 6626  14.283  26.953   9.107
   92POPC   C1A 6627  14.303  26.696   8.672
   92POPC   D2A 6628  14.396  26.582   8.254
   92POPC   C3A 6629  14.191  26.789   7.945
   92POPC   C4A 6630  14.284  27.087   7.638
   92POPC   C1B 6631  14.559  27.131   8.800
   92POPC   C2B 6632  14.709  26.929   8.461
   92POPC   C3B 6633  14.625  27.036   8.061
   92POPC   C4B 6634  14.804  27.070   7.708
   93POPC   NC3 6635  10.207  44.672   9.402
   93POPC   PO4 6636  10.849  44.746   9.516
   93POPC   GL1 6637  10.802  44.677   9.123
   93POPC   GL2 6638  10.514  44.472   9.061
   93POPC   C1A 6639  10.749  44.843   8.777
   93POPC   D2A 6640  10.682  44.502   8.547
   93POPC   C3A 6641  10.682  44.548   8.147
   93POPC   C4A 6642  10.627  44.558   7.736
   93POPC   C1B 6643  10.230  44.594   8.763
   93POPC   C2B 6644  10.166  44.434   8.398
   93POPC   C3B 6645  10.228  44.391   8.017
   93POPC   C4B 6646  10.190  44.797   7.911
   94POPC   NC3 6647  17.251   2.435   9.516
   94POPC   PO4 6648  17.509   3.058   9.648
   94POPC   GL1 6649  17.515   2.893   9.268
   94POPC   GL2 6650  17.196   2.921   9.200
   94POPC   C1A 6651  17.623   2.757   8.874
   94POPC   D2A 6652  17.407   2.742   8.492
   94POPC   C3A 6653  17.606   2.604   8.141
   94POPC   C4A 6654  17.609   2.514   7.740
   94POPC   C1B 6655  17.256   3.126   8.811
   94POPC   C2B 6656  17.172   3.227   8.391
   94POPC   C3B 6657  17.182   2.948   8.062
   94POPC   C4B 6658  17.279   3.016   7.653
   95POPC   NC3 6659  34.201  35.194   9.412
   95POPC   PO4 6660  34.690  35.667   9.511
   95POPC   GL1 6661  34.895  35.538   9.129
   95POPC   GL2 6662  34.983  35.148   9.195
   95POPC   C1A 6663  34.926  35.718   8.701
   95POPC   D2A 6664  35.109  35.603   8.289
   95POPC   C3A 6665  34.787  35.498   7.991
   95POPC   C4A 6666  34.325  35.527   7.929
   95POPC   C1B 6667  34.711  35.170   8.827
   95POPC   C2B 6668  34.600  35.201   8.399
   95POPC   C3B 6669  34.624  34.977   8.025
   95POPC   C4B 6670  34.556  35.178   7.638
   96POPC   NC3 6671  16.149  29.482   9.772
   96POPC   PO4 6672  15.607  29.120   9.497
   96POPC   GL1 6673  15.810  29.280   9.170
   96POPC   GL2 6674  16.069  29.473   9.272
   96POPC   C1A 6675  15.924  29.052   8.834
   96POPC   D2A 6676  15.721  28.812   8.525
   96POPC   C3A 6677  15.985  28.835   8.193
   96POPC   C4A 6678  16.092  28.982   7.768
   96POPC   C1B 6679  16.078  29.572   8.835
   96POPC   C2B 6680  15.988  29.372   8.438
   96POPC   C3B 6681  15.722  29.286   8.111
   96POPC   C4B 6682  15.894  29.455   7.736
   97POPC   NC3 6683   5.506   2.196   9.785
   97POPC   PO4 6684   6.086   2.041   9.559
   97POPC   GL1 6685   5.933   2.094   9.171
   97POPC   GL2 6686   5.597   2.086   9.193
   97POPC   C1A 6687   5.922   1.821   8.811
   97POPC   D2A 6688   6.104   1.743   8.433
   97POPC   C3A 6689   5.814   1.887   8.151
   97POPC   C4A 6690   5.926   1.846   7.729
   97POPC   C1B 6691   5.658   2.269   8.768
   97POPC   C2B 6692   5.588   2.349   8.314
   97POPC   C3B 6693   5.756   2.319   7.900
   97POPC   C4B 6694   6.062   2.391   7.619
   98POPC   NC3 6695  41.901  37.805   9.411
   98POPC   PO4 6696  42.327  37.579   9.823
   98POPC   GL1 6697  42.361  37.763   9.286
   98POPC   GL2 6698  42.110  37.487   9.100
   98POPC   C1A 6699  42.242  37.884   8.811
   98POPC   D2A 6700  42.344  37.753   8.347
   98POPC   C3A 6701  42.153  37.879   7.938
   98POPC   C4A 6702  42.328  37.754   7.559
   98POPC   C1B 6703  42.245  37.379   8.688
   98POPC   C2B 6704  42.135  37.282   8.314
   98POPC   C3B 6705  42.259  37.366   7.908
   98POPC   C4B 6706  42.081  37.280   7.514
   99POPC   NC3 6707  23.006  44.480   9.417
   99POPC   PO4 6708  22.637  44.949   9.584
   99POPC   GL1 6709  22.684  44.820   9.152
   99POPC   GL2 6710  22.529  44.485   9.070
   99POPC   C1A 6711  22.551  44.826   8.715
   99POPC   D2A 6712  22.806  44.714   8.382
   99POPC   C3A 6713  22.735  44.749   8.001
   99POPC   C4A 6714  22.999  44.640   7.682
   99POPC   C1B 6715  22.905  44.456   8.799
   99POPC   C2B 6716  23.136  44.248   8.476
   99POPC   C3B 6717  23.216  44.350   8.050
   99POPC   C4B 6718  23.442  44.363   7.661
  100POPC   NC3 6719  10.729   3.857   9.609
  100POPC   PO4 6720  10.389   3.217   9.696
  100POPC   GL1 6721  10.387   3.363   9.234
  100POPC   GL2 6722  10.612   3.620   9.171
  100POPC   C1A 6723  10.238   3.335   8.752
  100POPC   D2A 6724  10.128   3.156   8.319
  100POPC   C3A 6725  10.336   3.334   7.920
  100POPC   C4A 6726  10.337   3.797   7.821
  100POPC   C1B 6727  10.746   3.425   8.795
  100POPC   C2B 6728  10.620   3.313   8.371
  100POPC   C3B 6729  10.844   3.303   8.007
  100POPC   C4B 6730  10.827   3.606   7.706
  101POPC   NC3 6731   0.171   1.213   9.410
  101POPC   PO4 6732   0.862   1.405   9.469
  101POPC   GL1 6733   0.584   1.394   9.139
  101POPC   GL2 6734   0.650   1.037   9.155
  101POPC   C1A 6735   0.359   1.470   8.751
  101POPC   D2A 6736   0.314   1.262   8.350
  101POPC   C3A 6737   0.328   1.394   7.896
  101POPC   C4A 6738   0.201   1.153   7.494
  101POPC   C1B 6739   0.443   0.944   8.769
  101POPC   C2B 6740   0.308   0.744   8.392
  101POPC   C3B 6741   0.281   0.886   8.006
  101POPC   C4B 6742   0.600   0.977   7.756
  102POPC   NC3 6743  19.788  11.478   9.408
  102POPC   PO4 6744  20.241  10.936   9.499
  102POPC   GL1 6745  20.097  11.178   9.112
  102POPC   GL2 6746  19.703  11.140   9.013
  102POPC   C1A 6747  20.046  11.370   8.695
  102POPC   D2A 6748  19.806  11.187   8.354
  102POPC   C3A 6749  20.059  11.082   8.004
  102POPC   C4A 6750  19.866  10.981   7.615
  102POPC   C1B 6751  19.503  11.456   8.721
  102POPC   C2B 6752  19.554  11.651   8.290
  102POPC   C3B 6753  19.755  11.494   7.908
  102POPC   C4B 6754  19.509  11.475   7.503
  103POPC   NC3 6755  24.874  40.408   9.801
  103POPC   PO4 6756  25.480  40.675   9.660
  103POPC   GL1 6757  25.242  40.617   9.292
  103POPC   GL2 6758  25.485  40.800   9.125
  103POPC   C1A 6759  25.100  40.621   8.855
  103POPC   D2A 6760  25.055  40.805   8.449
  103POPC   C3A 6761  25.191  40.590   8.060
  103POPC   C4A 6762  25.221  40.790   7.629
  103POPC   C1B 6763  25.658  40.928   8.745
  103POPC   C2B 6764  25.590  40.829   8.344
  103POPC   C3B 6765  25.693  40.686   7.964
  103POPC   C4B 6766  25.713  40.889   7.596
  104POPC   NC3 6767  17.640   7.848   9.586
  104POPC   PO4 6768  17.375   8.514   9.759
  104POPC   GL1 6769  17.447   8.315   9.300
  104POPC   GL2 6770  17.251   8.454   9.001
  104POPC   C1A 6771  17.664   8.185   8.896
  104POPC   D2A 6772  17.698   8.021   8.474
  104POPC   C3A 6773  17.408   8.073   8.178
  104POPC   C4A 6774  17.592   8.207   7.811
  104POPC   C1B 6775  17.485   8.588   8.632
  104POPC   C2B 6776  17.582   8.559   8.197
  104POPC   C3B 6777  17.336   8.638   7.833
  104POPC   C4B 6778  17.129   8.552   7.413
  105POPC   NC3 6779  17.227  22.119   9.405
  105POPC   PO4 6780  17.630  21.733   9.398
  105POPC   GL1 6781  17.566  22.008   9.037
  105POPC   GL2 6782  17.573  22.368   9.129
  105POPC   C1A 6783  17.433  21.978   8.614
  105POPC   D2A 6784  17.116  22.013   8.306
  105POPC   C3A 6785  17.283  22.017   7.896
  105POPC   C4A 6786  17.615  21.870   7.606
  105POPC   C1B 6787  17.669  22.417   8.695
  105POPC   C2B 6788  17.499  22.364   8.263
  105POPC   C3B 6789  17.720  22.301   7.864
  105POPC   C4B 6790  17.697  22.364   7.398
  106POPC   NC3 6791  37.921   9.999   9.424
  106POPC   PO4 6792  37.715   9.383   9.575
  106POPC   GL1 6793  37.589   9.451   9.128
  106POPC   GL2 6794  37.657   9.804   9.038
  106POPC   C1A 6795  37.674   9.477   8.643
  106POPC   D2A 6796  37.431   9.705   8.376
  106POPC   C3A 6797  37.617   9.645   7.994
  106POPC   C4A 6798  37.751   9.635   7.578
  106POPC   C1B 6799  37.991   9.862   8.734
  106POPC   C2B 6800  37.917   9.956   8.295
  106POPC   C3B 6801  37.844  10.076   7.864
  106POPC   C4B 6802  38.130   9.966   7.526
  107POPC   NC3 6803   7.307  17.781   9.296
  107POPC   PO4 6804   7.641  18.279   9.704
  107POPC   GL1 6805   7.452  18.258   9.267
  107POPC   GL2 6806   7.751  18.394   9.140
  107POPC   C1A 6807   7.349  18.273   8.841
  107POPC   D2A 6808   7.365  18.480   8.467
  107POPC   C3A 6809   7.287  18.262   8.115
  107POPC   C4A 6810   7.378  18.604   7.905
  107POPC   C1B 6811   7.835  18.157   8.732
  107POPC   C2B 6812   7.723  18.052   8.269
  107POPC   C3B 6813   7.737  18.248   7.835
  107POPC   C4B 6814   7.857  18.139   7.379
  108POPC   NC3 6815  12.292  15.135   9.548
  108POPC   PO4 6816  11.663  15.322   9.271
  108POPC   GL1 6817  12.035  15.189   9.091
  108POPC   GL2 6818  12.102  14.855   9.093
  108POPC   C1A 6819  12.072  15.153   8.668
  108POPC   D2A 6820  11.915  15.380   8.338
  108POPC   C3A 6821  12.182  15.366   7.999
  108POPC   C4A 6822  12.063  15.196   7.623
  108POPC   C1B 6823  11.824  14.706   8.763
  108POPC   C2B 6824  11.776  14.882   8.342
  108POPC   C3B 6825  12.046  14.868   8.021
  108POPC   C4B 6826  12.115  14.552   7.720
  109POPC   NC3 6827   8.977  40.059   9.414
  109POPC   PO4 6828   8.309  40.036   9.482
  109POPC   GL1 6829   8.529  40.097   9.110
  109POPC   GL2 6830   8.533  39.745   9.023
  109POPC   C1A 6831   8.787  40.094   8.727
  109POPC   D2A 6832   9.150  39.989   8.445
  109POPC   C3A 6833   9.092  40.081   7.992
  109POPC   C4A 6834   8.959  40.304   7.615
  109POPC   C1B 6835   8.802  39.577   8.667
  109POPC   C2B 6836   9.063  39.498   8.297
  109POPC   C3B 6837   8.965  39.603   7.873
  109POPC   C4B 6838   9.195  39.860   7.539
  110POPC   NC3 6839  31.467  37.483   9.666
  110POPC   PO4 6840  31.587  36.858   9.504
  110POPC   GL1 6841  31.541  36.775   9.063
  110POPC   GL2 6842  31.816  36.569   8.988
  110POPC   C1A 6843  31.441  36.659   8.643
  110POPC   D2A 6844  31.558  36.917   8.317
  110POPC   C3A 6845  31.337  37.028   7.988
  110POPC   C4A 6846  31.141  36.657   7.841
  110POPC   C1B 6847  31.958  36.513   8.546
  110POPC   C2B 6848  31.889  36.608   8.101
  110POPC   C3B 6849  31.651  36.753   7.720
  110POPC   C4B 6850  31.762  36.818   7.275
  111POPC   NC3 6851  27.819  14.228   9.571
  111POPC   PO4 6852  27.354  14.638   9.437
  111POPC   GL1 6853  27.625  14.451   9.141
  111POPC   GL2 6854  27.777  14.107   9.087
  111POPC   C1A 6855  27.795  14.496   8.748
  111POPC   D2A 6856  27.642  14.707   8.430
  111POPC   C3A 6857  27.703  14.533   8.053
  111POPC   C4A 6858  27.599  14.836   7.763
  111POPC   C1B 6859  27.448  14.120   8.772
  111POPC   C2B 6860  27.542  14.070   8.332
  111POPC   C3B 6861  27.346  14.177   7.962
  111POPC   C4B 6862  27.472  14.355   7.605
  112POPC   NC3 6863  14.156  43.811   9.479
  112POPC   PO4 6864  14.707  43.545   9.285
  112POPC   GL1 6865  14.578  43.992   9.118
  112POPC   GL2 6866  14.218  44.085   9.073
  112POPC   C1A 6867  14.516  44.211   8.708
  112POPC   D2A 6868  14.424  44.036   8.355
  112POPC   C3A 6869  14.479  44.279   8.016
  112POPC   C4A 6870  14.582  44.031   7.692
  112POPC   C1B 6871  14.020  43.995   8.698
  112POPC   C2B 6872  13.958  43.841   8.328
  112POPC   C3B 6873  14.136  43.892   7.940
  112POPC   C4B 6874  14.202  43.605   7.603
  113POPC   NC3 6875  16.713  41.338   9.537
  113POPC   PO4 6876  16.662  42.069   9.577
  113POPC   GL1 6877  16.704  41.732   9.234
  113POPC   GL2 6878  17.011  41.514   9.123
  113POPC   C1A 6879  16.654  41.677   8.804
  113POPC   D2A 6880  16.645  41.382   8.457
  113POPC   C3A 6881  16.739  41.538   8.041
  113POPC   C4A 6882  16.506  41.600   7.677
  113POPC   C1B 6883  17.130  41.431   8.691
  113POPC   C2B 6884  17.272  41.404   8.254
  113POPC   C3B 6885  17.139  41.274   7.834
  113POPC   C4B 6886  16.971  41.528   7.515
  114POPC   NC3 6887  43.625   1.527   9.448
  114POPC   PO4 6888  44.119   1.015   9.601
  114POPC   GL1 6889  44.024   1.157   9.206
  114POPC   GL2 6890  44.311   0.952   9.099
  114POPC   C1A 6891  43.933   1.350   8.794
  114POPC   D2A 6892  43.660   1.478   8.442
  114POPC   C3A 6893  43.825   1.330   8.053
  114POPC   C4A 6894  43.714   1.009   7.807
  114POPC   C1B 6895  44.386   1.091   8.684
  114POPC   C2B 6896  44.286   1.177   8.245
  114POPC   C3B 6897  44.212   1.051   7.787
  114POPC   C4B 6898  44.181   0.961   7.307
  115POPC   NC3 6899  30.366   3.574   9.493
  115POPC   PO4 6900  30.792   3.126   9.681
  115POPC   GL1 6901  30.772   3.366   9.259
  115POPC   GL2 6902  30.836   3.688   9.319
  115POPC   C1A 6903  30.591   3.691   8.884
  115POPC   D2A 6904  30.667   3.881   8.489
  115POPC   C3A 6905  30.360   3.794   8.161
  115POPC   C4A 6906  30.451   3.567   7.801
  115POPC   C1B 6907  31.069   3.575   8.920
  115POPC   C2B 6908  31.082   3.551   8.490
  115POPC   C3B 6909  30.882   3.630   8.109
  115POPC   C4B 6910  30.992   3.548   7.713
  116POPC   NC3 6911   4.243  11.614   9.521
  116POPC   PO4 6912   4.328  10.996   9.667
  116POPC   GL1 6913   4.434  11.207   9.256
  116POPC   GL2 6914   4.143  11.373   9.089
  116POPC   C1A 6915   4.586  11.485   8.896
  116POPC   D2A 6916   4.545  11.443   8.448
  116POPC   C3A 6917   4.329  11.437   8.054
  116POPC   C4A 6918   4.525  11.425   7.652
  116POPC   C1B 6919   4.097  11.261   8.699
  116POPC   C2B 6920   4.119  11.022   8.340
  116POPC   C3B 6921   3.977  11.050   7.932
  116POPC   C4B 6922   3.971  11.290   7.553
  117POPC   NC3 6923  17.711  41.397   9.538
  117POPC   PO4 6924  17.116  41.706   9.574
  117POPC   GL1 6925  17.452  41.805   9.249
  117POPC   GL2 6926  17.688  41.547   9.067
  117POPC   C1A 6927  17.403  41.861   8.802
  117POPC   D2A 6928  17.669  41.623   8.538
  117POPC   C3A 6929  17.728  41.756   8.130
  117POPC   C4A 6930  17.537  41.572   7.801
  117POPC   C1B 6931  18.021  41.356   8.821
  117POPC   C2B 6932  18.168  41.495   8.428
  117POPC   C3B 6933  18.072  41.351   8.011
  117POPC   C4B 6934  17.892  41.274   7.614
  118POPC   NC3 6935  29.016   6.443   9.421
  118POPC   PO4 6936  29.552   6.947   9.489
  118POPC   GL1 6937  29.398   6.682   9.141
  118POPC   GL2 6938  29.475   6.324   9.164
  118POPC   C1A 6939  29.112   6.570   8.792
  118POPC   D2A 6940  28.876   6.713   8.433
  118POPC   C3A 6941  29.076   6.633   8.042
  118POPC   C4A 6942  29.116   6.730   7.632
  118POPC   C1B 6943  29.598   6.261   8.755
  118POPC   C2B 6944  29.415   6.413   8.392
  118POPC   C3B 6945  29.417   6.260   7.990
  118POPC   C4B 6946  29.518   6.421   7.617
  119POPC   NC3 6947   7.126  13.056   9.646
  119POPC   PO4 6948   7.129  12.370   9.740
  119POPC   GL1 6949   7.098  12.708   9.293
  119POPC   GL2 6950   7.300  13.080   9.181
  119POPC   C1A 6951   7.103  12.787   8.827
  119POPC   D2A 6952   7.074  12.804   8.373
  119POPC   C3A 6953   7.428  12.719   8.118
  119POPC   C4A 6954   7.668  12.980   7.847
  119POPC   C1B 6955   7.321  13.297   8.766
  119POPC   C2B 6956   7.163  13.406   8.340
  119POPC   C3B 6957   7.202  13.178   7.929
  119POPC   C4B 6958   7.261  13.209   7.445
  120POPC   NC3 6959  19.921  27.999   9.604
  120POPC   PO4 6960  19.854  28.637   9.565
  120POPC   GL1 6961  19.693  28.333   9.271
  120POPC   GL2 6962  19.984  28.276   9.097
  120POPC   C1A 6963  19.536  28.349   8.869
  120POPC   D2A 6964  19.818  28.237   8.560
  120POPC   C3A 6965  19.711  28.311   8.150
  120POPC   C4A 6966  19.836  28.301   7.740
  120POPC   C1B 6967  19.920  28.674   8.874
  120POPC   C2B 6968  19.958  28.729   8.428
  120POPC   C3B 6969  20.133  28.585   8.028
  120POPC   C4B 6970  20.299  28.495   7.613
  121POPC   NC3 6971  21.870  42.187   9.249
  121POPC   PO4 6972  22.451  42.413   9.540
  121POPC   GL1 6973  22.322  42.379   9.100
  121POPC   GL2 6974  22.080  42.571   8.976
  121POPC   C1A 6975  22.289  42.144   8.698
  121POPC   D2A 6976  22.210  42.223   8.261
  121POPC   C3A 6977  22.266  42.000   7.871
  121POPC   C4A 6978  22.170  42.027   7.380
  121POPC   C1B 6979  22.465  42.620   8.657
  121POPC   C2B 6980  22.371  42.815   8.280
  121POPC   C3B 6981  22.002  42.645   8.076
  121POPC   C4B 6982  21.942  42.367   7.725
  122POPC   NC3 6983  34.391  10.978   9.543
  122POPC   PO4 6984  34.569  10.291   9.626
  122POPC   GL1 6985  34.507  10.391   9.197
  122POPC   GL2 6986  34.378  10.712   9.120
  122POPC   C1A 6987  34.736  10.493   8.816
  122POPC   D2A 6988  34.929  10.507   8.405
  122POPC   C3A 6989  34.701  10.623   8.053
  122POPC   C4A 6990  34.717  10.429   7.672
  122POPC   C1B 6991  34.531  10.970   8.795
  122POPC   C2B 6992  34.689  11.099   8.389
  122POPC   C3B 6993  34.758  11.105   7.935
  122POPC   C4B 6994  34.626  10.938   7.483
  123POPC   NC3 6995  10.014  36.931   9.766
  123POPC   PO4 6996   9.440  36.685   9.561
  123POPC   GL1 6997   9.696  36.842   9.216
  123POPC   GL2 6998   9.516  37.101   9.104
  123POPC   C1A 6999   9.831  36.937   8.751
  123POPC   D2A 7000   9.714  36.994   8.350
  123POPC   C3A 7001   9.871  37.034   7.942
  123POPC   C4A 7002   9.850  36.728   7.622
  123POPC   C1B 7003   9.330  36.786   8.832
  123POPC   C2B 7004   9.235  36.788   8.391
  123POPC   C3B 7005   9.426  36.771   7.992
  123POPC   C4B 7006   9.415  36.998   7.661
  124POPC   NC3 7007   0.378  41.941   9.856
  124POPC   PO4 7008   0.542  41.442   9.451
  124POPC   GL1 7009   0.665  41.557   9.079
  124POPC   GL2 7010   0.764  41.892   9.120
  124POPC   C1A 7011   0.659  41.317   8.707
  124POPC   D2A 7012   0.953  41.273   8.377
  124POPC   C3A 7013   0.759  41.419   7.980
  124POPC   C4A 7014   0.404  41.365   7.718
  124POPC   C1B 7015   0.453  41.862   8.737
  124POPC   C2B 7016   0.258  41.690   8.384
  124POPC   C3B 7017   0.335  41.814   7.981
  124POPC   C4B 7018   0.626  41.996   7.728
  125POPC   NC3 7019  26.536  30.416   9.482
  125POPC   PO4 7020  27.134  30.719   9.536
  125POPC   GL1 7021  26.933  30.547   9.190
  125POPC   GL2 7022  26.641  30.749   9.125
  125POPC   C1A 7023  27.036  30.573   8.763
  125POPC   D2A 7024  26.856  30.534   8.364
  125POPC   C3A 7025  27.161  30.513   8.073
  125POPC   C4A 7026  26.963  30.672   7.774
  125POPC   C1B 7027  26.492  30.614   8.730
  125POPC   C2B 7028  26.450  30.852   8.351
  125POPC   C3B 7029  26.486  30.684   7.943
  125POPC   C4B 7030  26.561  30.919   7.558
  126POPC   NC3 7031  26.114  27.993   9.481
  126POPC   PO4 7032  26.397  27.468   9.739
  126POPC   GL1 7033  26.344  27.591   9.215
  126POPC   GL2 7034  26.436  27.926   9.070
  126POPC   C1A 7035  26.036  27.694   8.823
  126POPC   D2A 7036  26.014  27.804   8.385
  126POPC   C3A 7037  25.980  27.456   8.078
  126POPC   C4A 7038  25.842  27.663   7.705
  126POPC   C1B 7039  26.475  27.797   8.630
  126POPC   C2B 7040  26.462  27.575   8.248
  126POPC   C3B 7041  26.320  27.786   7.871
  126POPC   C4B 7042  26.306  27.537   7.489
  127POPC   NC3 7043  33.106   9.063   9.253
  127POPC   PO4 7044  33.158   8.426   9.413
  127POPC   GL1 7045  33.207   8.620   9.024
  127POPC   GL2 7046  32.830   8.750   8.972
  127POPC   C1A 7047  33.174   8.785   8.609
  127POPC   D2A 7048  32.807   8.806   8.358
  127POPC   C3A 7049  33.060   8.802   7.998
  127POPC   C4A 7050  33.159   8.816   7.579
  127POPC   C1B 7051  32.844   9.186   8.689
  127POPC   C2B 7052  32.913   9.289   8.214
  127POPC   C3B 7053  32.737   9.122   7.798
  127POPC   C4B 7054  32.815   9.061   7.316
  128POPC   NC3 7055   6.466  17.319   9.578
  128POPC   PO4 7056   6.862  17.809   9.457
  128POPC   GL1 7057   6.795  17.462   9.199
  128POPC   GL2 7058   6.479  17.632   9.172
  128POPC   C1A 7059   6.800  17.314   8.773
  128POPC   D2A 7060   6.997  17.545   8.422
  128POPC   C3A 7061   6.765  17.574   8.027
  128POPC   C4A 7062   6.711  17.611   7.580
  128POPC   C1B 7063   6.320  17.474   8.844
  128POPC   C2B 7064   6.479  17.615   8.474
  128POPC   C3B 7065   6.246  17.564   8.168
  128POPC   C4B 7066   6.332  17.384   7.840
  129POPC   NC3 7067  30.943  31.618   9.461
  129POPC   PO4 7068  30.202  31.409   9.447
  129POPC   GL1 7069  30.285  31.670   9.098
  129POPC   GL2 7070  30.657  31.737   9.048
  129POPC   C1A 7071  30.338  31.615   8.646
  129POPC   D2A 7072  30.709  31.592   8.427
  129POPC   C3A 7073  30.765  31.388   8.059
  129POPC   C4A 7074  30.535  31.475   7.710
  129POPC   C1B 7075  31.017  31.861   8.747
  129POPC   C2B 7076  31.146  31.818   8.270
  129POPC   C3B 7077  30.855  31.867   7.871
  129POPC   C4B 7078  30.914  31.666   7.427
  130POPC   NC3 7079  43.797  24.930   9.555
  130POPC   PO4 7080  43.866  24.263   9.467
  130POPC   GL1 7081  43.967  24.399   9.069
  130POPC   GL2 7082  43.900  24.748   9.043
  130POPC   C1A 7083  43.805  24.411   8.641
  130POPC   D2A 7084  43.870  24.614   8.233
  130POPC   C3A 7085  43.884  24.319   7.876
  130POPC   C4A 7086  44.098  24.260   7.494
  130POPC   C1B 7087  44.232  24.695   8.687
  130POPC   C2B 7088  44.398  24.785   8.241
  130POPC   C3B 7089  44.211  24.736   7.835
  130POPC   C4B 7090  43.798  24.832   7.753
  131POPC   NC3 7091  38.030  28.898   9.414
  131POPC   PO4 7092  38.539  29.396   9.502
  131POPC   GL1 7093  38.502  29.234   9.103
  131POPC   GL2 7094  38.483  28.884   9.147
  131POPC   C1A 7095  38.186  29.235   8.785
  131POPC   D2A 7096  38.210  29.046   8.378
  131POPC   C3A 7097  38.351  29.288   8.051
  131POPC   C4A 7098  38.055  29.382   7.759
  131POPC   C1B 7099  38.538  28.835   8.735
  131POPC   C2B 7100  38.745  28.924   8.370
  131POPC   C3B 7101  38.574  28.828   7.987
  131POPC   C4B 7102  38.428  28.985   7.642
  132POPC   NC3 7103   5.392  34.409   9.424
  132POPC   PO4 7104   4.796  34.691   9.517
  132POPC   GL1 7105   5.052  34.630   9.140
  132POPC   GL2 7106   5.366  34.817   9.099
  132POPC   C1A 7107   5.130  34.410   8.756
  132POPC   D2A 7108   4.808  34.296   8.444
  132POPC   C3A 7109   4.852  34.398   8.012
  132POPC   C4A 7110   4.753  34.584   7.610
  132POPC   C1B 7111   5.220  34.936   8.737
  132POPC   C2B 7112   5.043  34.777   8.366
  132POPC   C3B 7113   5.107  34.849   7.941
  132POPC   C4B 7114   5.179  34.815   7.494
  133POPC   NC3 7115  29.129  10.217   9.573
  133POPC   PO4 7116  28.831  10.822   9.483
  133POPC   GL1 7117  28.968  10.495   9.171
  133POPC   GL2 7118  28.971  10.089   9.110
  133POPC   C1A 7119  29.305  10.397   8.892
  133POPC   D2A 7120  29.177  10.485   8.493
  133POPC   C3A 7121  29.439  10.461   8.138
  133POPC   C4A 7122  29.404  10.742   7.795
  133POPC   C1B 7123  28.800  10.215   8.727
  133POPC   C2B 7124  28.650  10.429   8.346
  133POPC   C3B 7125  28.938  10.565   8.048
  133POPC   C4B 7126  28.967  10.506   7.645
  134POPC   NC3 7127  43.072  32.587   9.791
  134POPC   PO4 7128  43.112  33.295   9.566
  134POPC   GL1 7129  43.080  33.262   9.120
  134POPC   GL2 7130  43.270  32.955   8.964
  134POPC   C1A 7131  42.832  33.119   8.773
  134POPC   D2A 7132  42.971  32.814   8.534
  134POPC   C3A 7133  42.933  32.883   8.096
  134POPC   C4A 7134  43.037  33.179   7.774
  134POPC   C1B 7135  43.349  33.269   8.700
  134POPC   C2B 7136  43.148  33.269   8.349
  134POPC   C3B 7137  43.428  33.392   8.065
  134POPC   C4B 7138  43.545  33.214   7.713
  135POPC   NC3 7139  19.417  27.200   9.932
  135POPC   PO4 7140  19.370  27.810   9.553
  135POPC   GL1 7141  19.151  27.596   9.160
  135POPC   GL2 7142  18.940  27.282   9.107
  135POPC   C1A 7143  19.050  27.628   8.714
  135POPC   D2A 7144  19.011  27.832   8.305
  135POPC   C3A 7145  19.197  27.714   7.920
  135POPC   C4A 7146  19.244  27.706   7.476
  135POPC   C1B 7147  19.313  27.201   8.830
  135POPC   C2B 7148  19.410  27.380   8.444
  135POPC   C3B 7149  19.327  27.252   8.038
  135POPC   C4B 7150  19.060  27.254   7.650
  136POPC   NC3 7151  26.994  25.549   9.481
  136POPC   PO4 7152  26.581  24.937   9.544
  136POPC   GL1 7153  26.647  25.125   9.165
  136POPC   GL2 7154  26.405  25.356   9.155
  136POPC   C1A 7155  26.684  24.942   8.735
  136POPC   D2A 7156  26.731  25.091   8.295
  136POPC   C3A 7157  27.021  25.457   8.121
  136POPC   C4A 7158  27.060  25.515   7.660
  136POPC   C1B 7159  26.478  25.394   8.721
  136POPC   C2B 7160  26.574  25.584   8.332
  136POPC   C3B 7161  26.590  25.508   7.871
  136POPC   C4B 7162  26.391  25.703   7.498
  137POPC   NC3 7163  39.047  36.274   9.451
  137POPC   PO4 7164  39.656  36.053   9.530
  137POPC   GL1 7165  39.385  35.927   9.133
  137POPC   GL2 7166  39.003  35.986   9.052
  137POPC   C1A 7167  39.297  35.854   8.672
  137POPC   D2A 7168  39.466  36.053   8.312
  137POPC   C3A 7169  39.673  35.877   7.917
  137POPC   C4A 7170  39.575  35.888   7.471
  137POPC   C1B 7171  38.790  36.018   8.686
  137POPC   C2B 7172  38.961  36.045   8.280
  137POPC   C3B 7173  39.182  36.112   7.905
  137POPC   C4B 7174  39.122  36.491   7.777
  138POPC   NC3 7175   7.744  12.120   9.328
  138POPC   PO4 7176   8.493  12.022   9.262
  138POPC   GL1 7177   8.147  12.066   8.999
  138POPC   GL2 7178   7.927  12.340   8.893
  138POPC   C1A 7179   8.188  11.979   8.569
  138POPC   D2A 7180   8.527  11.921   8.277
  138POPC   C3A 7181   8.288  12.035   7.912
  138POPC   C4A 7182   7.818  12.056   7.872
  138POPC   C1B 7183   8.320  12.460   8.693
  138POPC   C2B 7184   8.355  12.415   8.249
  138POPC   C3B 7185   8.516  12.523   7.833
  138POPC   C4B 7186   8.563  12.526   7.364
  139POPC   NC3 7187   2.640  38.664   9.553
  139POPC   PO4 7188   2.868  38.088   9.406
  139POPC   GL1 7189   3.000  38.384   9.126
  139POPC   GL2 7190   2.787  38.521   9.089
  139POPC   C1A 7191   3.177  38.418   8.720
  139POPC   D2A 7192   2.968  38.485   8.332
  139POPC   C3A 7193   3.170  38.392   7.978
  139POPC   C4A 7194   2.910  38.363   7.647
  139POPC   C1B 7195   2.618  38.384   8.708
  139POPC   C2B 7196   2.404  38.419   8.311
  139POPC   C3B 7197   2.457  38.508   7.854
  139POPC   C4B 7198   2.485  38.419   7.373
  140POPC   NC3 7199  43.451  24.052   9.397
  140POPC   PO4 7200  43.034  24.568   9.616
  140POPC   GL1 7201  43.060  24.659   9.181
  140POPC   GL2 7202  43.375  24.873   9.228
  140POPC   C1A 7203  43.020  24.363   8.780
  140POPC   D2A 7204  43.150  24.075   8.403
  140POPC   C3A 7205  42.988  24.224   7.984
  140POPC   C4A 7206  42.758  24.211   7.578
  140POPC   C1B 7207  43.420  24.720   8.809
  140POPC   C2B 7208  43.368  24.550   8.390
  140POPC   C3B 7209  43.423  24.539   7.944
  140POPC   C4B 7210  43.129  24.562   7.602
  141POPC   NC3 7211   1.621  31.542   9.424
  141POPC   PO4 7212   0.968  31.625   9.523
  141POPC   GL1 7213   1.099  31.321   9.251
  141POPC   GL2 7214   1.296  31.440   9.038
  141POPC   C1A 7215   0.955  31.134   8.855
  141POPC   D2A 7216   1.233  31.039   8.490
  141POPC   C3A 7217   1.229  31.276   8.123
  141POPC   C4A 7218   1.273  31.111   7.704
  141POPC   C1B 7219   1.345  31.723   8.679
  141POPC   C2B 7220   1.194  31.786   8.266
  141POPC   C3B 7221   1.329  31.714   7.838
  141POPC   C4B 7222   1.279  31.484   7.376
  142POPC   NC3 7223   3.022   2.058   9.586
  142POPC   PO4 7224   2.476   1.936   9.332
  142POPC   GL1 7225   2.857   1.901   9.106
  142POPC   GL2 7226   3.066   2.213   9.104
  142POPC   C1A 7227   2.709   1.770   8.719
  142POPC   D2A 7228   2.388   1.883   8.405
  142POPC   C3A 7229   2.576   1.780   8.021
  142POPC   C4A 7230   2.850   1.700   7.727
  142POPC   C1B 7231   2.863   2.290   8.735
  142POPC   C2B 7232   2.904   2.077   8.344
  142POPC   C3B 7233   3.080   2.104   7.945
  142POPC   C4B 7234   2.844   2.412   7.738
  143POPC   NC3 7235  32.509  31.904   9.681
  143POPC   PO4 7236  32.184  32.436   9.576
  143POPC   GL1 7237  32.221  32.127   9.267
  143POPC   GL2 7238  32.581  32.076   9.192
  143POPC   C1A 7239  32.020  32.115   8.876
  143POPC   D2A 7240  32.263  32.120   8.504
  143POPC   C3A 7241  32.100  32.292   8.168
  143POPC   C4A 7242  31.938  32.146   7.800
  143POPC   C1B 7243  32.720  32.081   8.769
  143POPC   C2B 7244  32.766  32.145   8.351
  143POPC   C3B 7245  32.540  32.063   8.004
  143POPC   C4B 7246  32.597  32.036   7.586
  144POPC   NC3 7247  42.380  33.625   9.547
  144POPC   PO4 7248  42.165  34.206   9.648
  144POPC   GL1 7249  42.273  34.015   9.250
  144POPC   GL2 7250  42.033  33.770   9.169
  144POPC   C1A 7251  42.471  33.851   8.852
  144POPC   D2A 7252  42.581  33.724   8.406
  144POPC   C3A 7253  42.503  33.960   8.031
  144POPC   C4A 7254  42.243  33.783   7.715
  144POPC   C1B 7255  41.993  34.109   8.844
  144POPC   C2B 7256  42.173  34.099   8.459
  144POPC   C3B 7257  42.151  34.372   8.151
  144POPC   C4B 7258  42.099  34.250   7.753
  145POPC   NC3 7259  40.886  17.684   9.479
  145POPC   PO4 7260  40.408  17.192   9.323
  145POPC   GL1 7261  40.570  17.505   9.127
  145POPC   GL2 7262  40.924  17.379   9.048
  145POPC   C1A 7263  40.652  17.725   8.787
  145POPC   D2A 7264  40.931  17.622   8.479
  145POPC   C3A 7265  40.808  17.840   8.116
  145POPC   C4A 7266  40.581  17.737   7.761
  145POPC   C1B 7267  40.643  17.207   8.714
  145POPC   C2B 7268  40.709  17.063   8.307
  145POPC   C3B 7269  40.749  17.315   8.001
  145POPC   C4B 7270  40.951  17.410   7.662
  146POPC   NC3 7271   3.145  40.156   9.583
  146POPC   PO4 7272   2.498  40.037   9.611
  146POPC   GL1 7273   2.773  40.033   9.227
  146POPC   GL2 7274   3.019  39.733   9.296
  146POPC   C1A 7275   2.869  40.233   8.806
  146POPC   D2A 7276   3.154  40.160   8.419
  146POPC   C3A 7277   2.951  40.287   8.011
  146POPC   C4A 7278   2.569  40.226   7.792
  146POPC   C1B 7279   3.051  39.756   8.856
  146POPC   C2B 7280   2.995  39.625   8.447
  146POPC   C3B 7281   3.075  39.771   8.072
  146POPC   C4B 7282   2.858  39.822   7.721
  147POPC   NC3 7283  23.681  23.222   9.746
  147POPC   PO4 7284  23.767  22.590   9.713
  147POPC   GL1 7285  23.594  22.643   9.290
  147POPC   GL2 7286  23.384  22.936   9.319
  147POPC   C1A 7287  23.721  22.767   8.884
  147POPC   D2A 7288  23.630  22.843   8.453
  147POPC   C3A 7289  23.701  22.647   8.049
  147POPC   C4A 7290  23.896  22.940   7.758
  147POPC   C1B 7291  23.235  22.948   8.872
  147POPC   C2B 7292  23.160  23.002   8.415
  147POPC   C3B 7293  23.391  23.050   8.005
  147POPC   C4B 7294  23.433  22.761   7.619
  148POPC   NC3 7295  33.676   5.325   9.617
  148POPC   PO4 7296  33.472   4.784   9.181
  148POPC   GL1 7297  33.516   5.211   9.137
  148POPC   GL2 7298  33.844   5.188   9.146
  148POPC   C1A 7299  33.636   5.418   8.747
  148POPC   D2A 7300  33.463   5.381   8.352
  148POPC   C3A 7301  33.672   5.118   8.100
  148POPC   C4A 7302  33.748   4.868   7.748
  148POPC   C1B 7303  33.934   4.983   8.751
  148POPC   C2B 7304  34.006   4.813   8.366
  148POPC   C3B 7305  34.202   4.908   7.999
  148POPC   C4B 7306  34.080   5.278   7.831
  149POPC   NC3 7307  39.892  27.806   9.468
  149POPC   PO4 7308  40.522  27.769   9.527
  149POPC   GL1 7309  40.328  27.701   9.155
  149POPC   GL2 7310  40.076  27.449   9.135
  149POPC   C1A 7311  40.219  27.772   8.743
  149POPC   D2A 7312  39.935  27.739   8.428
  149POPC   C3A 7313  40.111  27.757   8.036
  149POPC   C4A 7314  40.220  27.922   7.641
  149POPC   C1B 7315  39.857  27.240   8.790
  149POPC   C2B 7316  39.616  27.348   8.425
  149POPC   C3B 7317  39.711  27.424   8.054
  149POPC   C4B 7318  39.962  27.390   7.735
  150POPC   NC3 7319   8.707  42.630   9.346
  150POPC   PO4 7320   8.908  43.285   9.497
  150POPC   GL1 7321   8.814  43.116   9.122
  150POPC   GL2 7322   8.635  43.393   9.051
  150POPC   C1A 7323   8.972  43.082   8.717
  150POPC   D2A 7324   9.271  43.257   8.415
  150POPC   C3A 7325   9.269  43.141   8.022
  150POPC   C4A 7326   9.205  43.156   7.575
  150POPC   C1B 7327   8.482  43.307   8.684
  150POPC   C2B 7328   8.622  43.135   8.336
  150POPC   C3B 7329   8.779  43.159   7.959
  150POPC   C4B 7330   8.875  42.808   7.770
  151POPC   NC3 7331  40.802   6.893   9.523
  151POPC   PO4 7332  40.450   6.354   9.560
  151POPC   GL1 7333  40.640   6.570   9.165
  151POPC   GL2 7334  40.996   6.492   9.198
  151POPC   C1A 7335  40.843   6.745   8.763
  151POPC   D2A 7336  41.087   6.864   8.361
  151POPC   C3A 7337  40.881   6.745   7.952
  151POPC   C4A 7338  40.628   6.502   7.634
  151POPC   C1B 7339  41.021   6.202   8.841
  151POPC   C2B 7340  40.976   6.353   8.415
  151POPC   C3B 7341  40.892   6.229   8.001
  151POPC   C4B 7342  41.107   6.317   7.667
  152POPC   NC3 7343  18.254  11.497   9.734
  152POPC   PO4 7344  18.291  11.038   9.351
  152POPC   GL1 7345  18.350  11.356   9.094
  152POPC   GL2 7346  17.968  11.366   9.138
  152POPC   C1A 7347  18.502  11.357   8.643
  152POPC   D2A 7348  18.619  11.442   8.195
  152POPC   C3A 7349  18.484  11.332   7.766
  152POPC   C4A 7350  18.467  11.645   7.445
  152POPC   C1B 7351  18.001  11.227   8.729
  152POPC   C2B 7352  18.150  11.182   8.310
  152POPC   C3B 7353  17.979  11.139   7.890
  152POPC   C4B 7354  18.075  11.095   7.424
  153POPC   NC3 7355  12.464  16.478   9.357
  153POPC   PO4 7356  12.874  16.961   9.433
  153POPC   GL1 7357  12.909  16.882   8.988
  153POPC   GL2 7358  12.837  16.553   9.005
  153POPC   C1A 7359  12.681  16.838   8.612
  153POPC   D2A 7360  12.636  16.621   8.255
  153POPC   C3A 7361  12.776  16.799   7.875
  153POPC   C4A 7362  13.232  16.866   7.753
  153POPC   C1B 7363  12.599  16.309   8.719
  153POPC   C2B 7364  12.409  16.187   8.351
  153POPC   C3B 7365  12.639  16.231   7.936
  153POPC   C4B 7366  12.531  16.446   7.554
  154POPC   NC3 7367  19.322  13.929   9.330
  154POPC   PO4 7368  19.252  14.560   9.578
  154POPC   GL1 7369  19.205  14.405   9.168
  154POPC   GL2 7370  19.460  14.636   9.103
  154POPC   C1A 7371  18.936  14.499   8.801
  154POPC   D2A 7372  18.987  14.649   8.380
  154POPC   C3A 7373  18.970  14.305   8.072
  154POPC   C4A 7374  18.905  14.387   7.651
  154POPC   C1B 7375  19.462  14.461   8.711
  154POPC   C2B 7376  19.493  14.565   8.289
  154POPC   C3B 7377  19.373  14.518   7.849
  154POPC   C4B 7378  19.382  14.401   7.424
  155POPC   NC3 7379  37.244  29.515   9.382
  155POPC   PO4 7380  37.544  30.061   9.422
  155POPC   GL1 7381  37.621  29.745   9.087
  155POPC   GL2 7382  37.995  29.680   9.031
  155POPC   C1A 7383  37.681  29.593   8.653
  155POPC   D2A 7384  37.886  29.856   8.339
  155POPC   C3A 7385  37.762  29.777   7.914
  155POPC   C4A 7386  37.968  30.081   7.696
  155POPC   C1B 7387  37.866  30.091   8.820
  155POPC   C2B 7388  37.725  30.347   8.482
  155POPC   C3B 7389  37.629  30.257   8.074
  155POPC   C4B 7390  37.527  30.352   7.656
  156POPC   NC3 7391  26.414   2.854   9.636
  156POPC   PO4 7392  26.803   3.329   9.584
  156POPC   GL1 7393  26.864   3.527   9.109
  156POPC   GL2 7394  27.019   3.287   8.889
  156POPC   C1A 7395  26.835   3.691   8.631
  156POPC   D2A 7396  26.770   3.465   8.210
  156POPC   C3A 7397  26.860   3.665   7.803
  156POPC   C4A 7398  26.807   4.113   7.667
  156POPC   C1B 7399  26.566   3.270   8.689
  156POPC   C2B 7400  26.281   3.389   8.313
  156POPC   C3B 7401  26.365   3.366   7.854
  156POPC   C4B 7402  26.642   3.321   7.491
  157POPC   NC3 7403  31.706  32.965   9.410
  157POPC   PO4 7404  31.038  33.203   9.506
  157POPC   GL1 7405  31.221  32.992   9.170
  157POPC   GL2 7406  31.413  33.231   9.056
  157POPC   C1A 7407  31.369  32.726   8.803
  157POPC   D2A 7408  31.234  32.780   8.382
  157POPC   C3A 7409  31.539  32.860   8.091
  157POPC   C4A 7410  31.875  32.674   7.896
  157POPC   C1B 7411  31.319  33.236   8.620
  157POPC   C2B 7412  31.574  33.375   8.261
  157POPC   C3B 7413  31.648  33.310   7.834
  157POPC   C4B 7414  31.410  33.005   7.603
  158POPC   NC3 7415   2.234   5.414   9.581
  158POPC   PO4 7416   1.575   5.503   9.430
  158POPC   GL1 7417   1.755   5.148   9.151
  158POPC   GL2 7418   2.115   5.165   9.161
  158POPC   C1A 7419   1.726   4.948   8.695
  158POPC   D2A 7420   1.654   4.928   8.194
  158POPC   C3A 7421   1.744   5.221   7.825
  158POPC   C4A 7422   2.087   5.302   7.533
  158POPC   C1B 7423   2.248   4.940   8.821
  158POPC   C2B 7424   2.132   4.983   8.402
  158POPC   C3B 7425   2.196   5.198   8.047
  158POPC   C4B 7426   2.480   5.066   7.760
  159POPC   NC3 7427  16.165  15.658   9.509
  159POPC   PO4 7428  15.761  16.178   9.556
  159POPC   GL1 7429  15.776  15.871   9.220
  159POPC   GL2 7430  16.087  16.026   9.145
  159POPC   C1A 7431  15.937  15.695   8.803
  159POPC   D2A 7432  15.969  15.972   8.456
  159POPC   C3A 7433  15.861  15.837   8.062
  159POPC   C4A 7434  15.889  15.470   7.795
  159POPC   C1B 7435  16.226  16.352   8.887
  159POPC   C2B 7436  16.201  16.456   8.463
  159POPC   C3B 7437  16.166  16.270   8.084
  159POPC   C4B 7438  16.133  16.333   7.682
  160POPC   NC3 7439  44.901  42.781   9.450
  160POPC   PO4 7440  44.498  43.299   9.509
  160POPC   GL1 7441  44.613  43.133   9.173
  160POPC   GL2 7442  44.426  42.877   9.223
  160POPC   C1A 7443  44.753  43.216   8.794
  160POPC   D2A 7444  44.789  43.004   8.413
  160POPC   C3A 7445  44.697  43.249   8.084
  160POPC   C4A 7446  44.882  43.281   7.728
  160POPC   C1B 7447  44.472  42.797   8.805
  160POPC   C2B 7448  44.370  42.674   8.406
  160POPC   C3B 7449  44.429  42.825   8.012
  160POPC   C4B 7450  44.254  42.728   7.636
  161POPC   NC3 7451   0.138  32.613   9.307
  161POPC   PO4 7452  44.482  32.374   9.608
  161POPC   GL1 7453  44.598  32.204   9.226
  161POPC   GL2 7454  44.912  32.163   9.196
  161POPC   C1A 7455  44.515  32.288   8.810
  161POPC   D2A 7456  44.217  32.364   8.478
  161POPC   C3A 7457  44.462  32.477   8.118
  161POPC   C4A 7458  44.645  32.256   7.748
  161POPC   C1B 7459   0.036  32.204   8.785
  161POPC   C2B 7460  44.889  32.336   8.405
  161POPC   C3B 7461   0.082  32.264   8.038
  161POPC   C4B 7462   0.152  32.416   7.647
  162POPC   NC3 7463   5.941  38.085   9.608
  162POPC   PO4 7464   5.711  38.725   9.525
  162POPC   GL1 7465   5.836  38.462   9.198
  162POPC   GL2 7466   6.164  38.326   9.202
  162POPC   C1A 7467   5.649  38.447   8.796
  162POPC   D2A 7468   5.706  38.665   8.415
  162POPC   C3A 7469   5.629  38.413   8.061
  162POPC   C4A 7470   5.626  38.615   7.679
  162POPC   C1B 7471   6.170  38.343   8.758
  162POPC   C2B 7472   6.030  38.171   8.349
  162POPC   C3B 7473   6.118  38.341   7.932
  162POPC   C4B 7474   6.138  38.605   7.568
  163POPC   NC3 7475  15.929   4.312   9.536
  163POPC   PO4 7476  15.692   4.750   9.075
  163POPC   GL1 7477  15.873   4.359   9.035
  163POPC   GL2 7478  16.203   4.477   9.125
  163POPC   C1A 7479  15.762   4.123   8.703
  163POPC   D2A 7480  15.727   4.365   8.331
  163POPC   C3A 7481  15.759   4.161   7.938
  163POPC   C4A 7482  16.035   4.188   7.599
  163POPC   C1B 7483  16.291   4.724   8.779
  163POPC   C2B 7484  16.059   4.749   8.392
  163POPC   C3B 7485  16.059   4.565   7.985
  163POPC   C4B 7486  16.426   4.481   7.765
  164POPC   NC3 7487  38.773  10.337   9.824
  164POPC   PO4 7488  38.657  10.863   9.430
  164POPC   GL1 7489  38.364  10.705   9.160
  164POPC   GL2 7490  38.152  10.468   9.328
  164POPC   C1A 7491  38.518  10.668   8.744
  164POPC   D2A 7492  38.631  10.484   8.363
  164POPC   C3A 7493  38.524  10.783   8.055
  164POPC   C4A 7494  38.626  10.622   7.686
  164POPC   C1B 7495  38.230  10.275   8.914
  164POPC   C2B 7496  38.132  10.386   8.505
  164POPC   C3B 7497  38.207  10.363   8.094
  164POPC   C4B 7498  38.166  10.445   7.687
  165POPC   NC3 7499  30.260  18.258   9.457
  165POPC   PO4 7500  29.671  18.493   9.313
  165POPC   GL1 7501  30.040  18.470   9.036
  165POPC   GL2 7502  30.336  18.247   8.960
  165POPC   C1A 7503  29.917  18.408   8.638
  165POPC   D2A 7504  29.962  18.482   8.252
  165POPC   C3A 7505  29.735  18.327   7.926
  165POPC   C4A 7506  29.746  18.568   7.571
  165POPC   C1B 7507  29.962  17.973   8.878
  165POPC   C2B 7508  29.912  17.916   8.457
  165POPC   C3B 7509  29.665  17.842   8.120
  165POPC   C4B 7510  29.875  17.742   7.758
  166POPC   NC3 7511  24.772  10.844   9.315
  166POPC   PO4 7512  24.728  10.195   9.476
  166POPC   GL1 7513  24.558  10.418   9.119
  166POPC   GL2 7514  24.360  10.713   9.067
  166POPC   C1A 7515  24.685  10.506   8.714
  166POPC   D2A 7516  24.450  10.485   8.351
  166POPC   C3A 7517  24.658  10.323   8.042
  166POPC   C4A 7518  24.818  10.479   7.691
  166POPC   C1B 7519  24.370  10.908   8.677
  166POPC   C2B 7520  24.252  10.986   8.273
  166POPC   C3B 7521  24.405  10.776   7.908
  166POPC   C4B 7522  24.152  10.654   7.568
  167POPC   NC3 7523  44.188  37.174   9.509
  167POPC   PO4 7524  43.687  36.745   9.534
  167POPC   GL1 7525  43.815  36.863   9.165
  167POPC   GL2 7526  43.732  37.211   9.245
  167POPC   C1A 7527  43.901  36.736   8.725
  167POPC   D2A 7528  44.097  36.738   8.312
  167POPC   C3A 7529  43.875  36.609   7.969
  167POPC   C4A 7530  44.157  36.806   7.715
  167POPC   C1B 7531  43.841  37.226   8.807
  167POPC   C2B 7532  43.750  37.111   8.398
  167POPC   C3B 7533  43.843  37.130   7.980
  167POPC   C4B 7534  43.992  37.288   7.594
  168POPC   NC3 7535  39.329  37.950   9.608
  168POPC   PO4 7536  39.118  38.575   9.524
  168POPC   GL1 7537  39.274  38.330   9.210
  168POPC   GL2 7538  39.419  38.612   9.049
  168POPC   C1A 7539  39.186  38.259   8.762
  168POPC   D2A 7540  39.325  38.302   8.335
  168POPC   C3A 7541  39.028  38.349   7.982
  168POPC   C4A 7542  38.871  38.321   7.548
  168POPC   C1B 7543  39.197  38.802   8.703
  168POPC   C2B 7544  39.181  38.794   8.253
  168POPC   C3B 7545  39.434  38.665   7.929
  168POPC   C4B 7546  39.515  38.934   7.608
  169POPC   NC3 7547   1.367  33.160   9.783
  169POPC   PO4 7548   1.079  32.533   9.787
  169POPC   GL1 7549   1.184  32.892   9.382
  169POPC   GL2 7550   0.969  33.004   9.097
  169POPC   C1A 7551   1.394  32.814   8.932
  169POPC   D2A 7552   1.309  32.740   8.476
  169POPC   C3A 7553   1.399  33.092   8.178
  169POPC   C4A 7554   1.274  33.234   7.769
  169POPC   C1B 7555   1.023  33.154   8.678
  169POPC   C2B 7556   0.871  33.111   8.253
  169POPC   C3B 7557   0.952  32.814   7.923
  169POPC   C4B 7558   1.038  32.816   7.488
  170POPC   NC3 7559  27.574  23.476   9.565
  170POPC   PO4 7560  27.937  24.196   9.455
  170POPC   GL1 7561  27.905  23.942   9.094
  170POPC   GL2 7562  27.692  23.661   9.099
  170POPC   C1A 7563  27.738  24.017   8.674
  170POPC   D2A 7564  27.651  23.713   8.347
  170POPC   C3A 7565  27.792  23.718   7.930
  170POPC   C4A 7566  27.936  23.327   7.776
  170POPC   C1B 7567  27.366  23.689   8.783
  170POPC   C2B 7568  27.162  23.572   8.383
  170POPC   C3B 7569  27.291  23.530   7.972
  170POPC   C4B 7570  27.381  23.722   7.612
  171POPC   NC3 7571   6.561  23.377   9.560
  171POPC   PO4 7572   6.464  23.990   9.402
  171POPC   GL1 7573   6.633  23.658   9.128
  171POPC   GL2 7574   6.837  23.886   8.950
  171POPC   C1A 7575   6.747  23.425   8.744
  171POPC   D2A 7576   6.839  23.621   8.406
  171POPC   C3A 7577   6.765  23.419   8.023
  171POPC   C4A 7578   6.469  23.524   7.723
  171POPC   C1B 7579   6.550  23.994   8.649
  171POPC   C2B 7580   6.646  24.103   8.241
  171POPC   C3B 7581   6.766  23.933   7.844
  171POPC   C4B 7582   6.883  24.170   7.453
  172POPC   NC3 7583   6.374   4.622   9.376
  172POPC   PO4 7584   6.581   4.048   9.557
  172POPC   GL1 7585   6.849   4.091   9.202
  172POPC   GL2 7586   6.787   4.448   9.071
  172POPC   C1A 7587   6.915   3.967   8.781
  172POPC   D2A 7588   6.698   4.171   8.459
  172POPC   C3A 7589   6.688   4.067   8.028
  172POPC   C4A 7590   6.368   4.239   7.736
  172POPC   C1B 7591   7.054   4.497   8.709
  172POPC   C2B 7592   7.001   4.549   8.279
  172POPC   C3B 7593   6.646   4.564   8.033
  172POPC   C4B 7594   6.864   4.417   7.692
  173POPC   NC3 7595  28.117  39.069   9.642
  173POPC   PO4 7596  28.692  39.443   9.543
  173POPC   GL1 7597  28.466  39.119   9.279
  173POPC   GL2 7598  28.230  39.383   9.208
  173POPC   C1A 7599  28.139  38.979   8.927
  173POPC   D2A 7600  27.886  39.126   8.558
  173POPC   C3A 7601  28.083  39.059   8.127
  173POPC   C4A 7602  28.176  38.977   7.659
  173POPC   C1B 7603  28.525  39.348   8.841
  173POPC   C2B 7604  28.617  39.444   8.428
  173POPC   C3B 7605  28.647  39.685   8.055
  173POPC   C4B 7606  28.423  39.363   7.851
  174POPC   NC3 7607  35.905  10.316   9.409
  174POPC   PO4 7608  36.575  10.572   9.435
  174POPC   GL1 7609  36.242  10.615   9.122
  174POPC   GL2 7610  35.875  10.677   9.039
  174POPC   C1A 7611  36.366  10.527   8.721
  174POPC   D2A 7612  36.517  10.815   8.419
  174POPC   C3A 7613  36.334  10.695   8.076
  174POPC   C4A 7614  36.295  10.422   7.720
  174POPC   C1B 7615  35.852  10.374   8.736
  174POPC   C2B 7616  36.007  10.371   8.340
  174POPC   C3B 7617  35.796  10.304   7.967
  174POPC   C4B 7618  35.829  10.385   7.538
  175POPC   NC3 7619  23.513  42.554   9.600
  175POPC   PO4 7620  23.930  42.018   9.510
  175POPC   GL1 7621  23.845  42.302   9.188
  175POPC   GL2 7622  23.577  42.437   9.129
  175POPC   C1A 7623  24.013  42.478   8.840
  175POPC   D2A 7624  24.207  42.453   8.440
  175POPC   C3A 7625  23.964  42.301   8.103
  175POPC   C4A 7626  24.058  42.477   7.701
  175POPC   C1B 7627  23.500  42.270   8.743
  175POPC   C2B 7628  23.371  42.529   8.401
  175POPC   C3B 7629  23.292  42.588   7.957
  175POPC   C4B 7630  23.574  42.274   7.754
  176POPC   NC3 7631  36.214  35.331   9.528
  176POPC   PO4 7632  36.191  35.851   9.135
  176POPC   GL1 7633  36.017  35.411   9.045
  176POPC   GL2 7634  36.205  35.100   9.090
  176POPC   C1A 7635  35.916  35.183   8.685
  176POPC   D2A 7636  35.966  35.383   8.301
  176POPC   C3A 7637  36.318  35.483   8.048
  176POPC   C4A 7638  36.240  35.562   7.608
  176POPC   C1B 7639  36.389  34.943   8.722
  176POPC   C2B 7640  36.547  35.091   8.319
  176POPC   C3B 7641  36.472  35.041   7.842
  176POPC   C4B 7642  36.386  34.802   7.425
  177POPC   NC3 7643   8.453  44.532   9.459
  177POPC   PO4 7644   8.250   0.122   9.547
  177POPC   GL1 7645   8.145  44.875   9.207
  177POPC   GL2 7646   7.893  44.657   9.186
  177POPC   C1A 7647   8.327  44.768   8.826
  177POPC   D2A 7648   8.399  44.679   8.412
  177POPC   C3A 7649   8.415  44.974   8.088
  177POPC   C4A 7650   8.417  44.663   7.774
  177POPC   C1B 7651   7.841  44.658   8.792
  177POPC   C2B 7652   7.935  44.875   8.442
  177POPC   C3B 7653   7.961  44.705   8.063
  177POPC   C4B 7654   7.786  44.581   7.663
  178POPC   NC3 7655   4.103  14.343   9.616
  178POPC   PO4 7656   4.448  14.842   9.424
  178POPC   GL1 7657   4.201  14.574   9.156
  178POPC   GL2 7658   4.379  14.235   9.171
  178POPC   C1A 7659   4.273  14.492   8.723
  178POPC   D2A 7660   4.624  14.424   8.472
  178POPC   C3A 7661   4.441  14.569   8.119
  178POPC   C4A 7662   4.519  14.525   7.701
  178POPC   C1B 7663   3.981  14.137   8.941
  178POPC   C2B 7664   3.891  14.076   8.535
  178POPC   C3B 7665   3.948  14.366   8.215
  178POPC   C4B 7666   4.103  14.271   7.836
  179POPC   NC3 7667   3.248  37.953   9.200
  179POPC   PO4 7668   3.798  37.773   9.505
  179POPC   GL1 7669   3.687  37.551   9.145
  179POPC   GL2 7670   3.463  37.274   9.223
  179POPC   C1A 7671   3.630  37.673   8.742
  179POPC   D2A 7672   3.425  37.941   8.504
  179POPC   C3A 7673   3.458  37.749   8.118
  179POPC   C4A 7674   3.382  37.971   7.780
  179POPC   C1B 7675   3.207  37.368   8.860
  179POPC   C2B 7676   3.139  37.454   8.440
  179POPC   C3B 7677   3.237  37.251   8.059
  179POPC   C4B 7678   3.277  37.480   7.693
  180POPC   NC3 7679  38.866  37.132   9.267
  180POPC   PO4 7680  38.402  36.800   9.596
  180POPC   GL1 7681  38.354  37.021   9.215
  180POPC   GL2 7682  38.042  37.209   9.246
  180POPC   C1A 7683  38.512  36.905   8.777
  180POPC   D2A 7684  38.682  36.950   8.389
  180POPC   C3A 7685  38.360  36.756   8.222
  180POPC   C4A 7686  38.262  36.782   7.820
  180POPC   C1B 7687  38.086  37.252   8.792
  180POPC   C2B 7688  38.371  37.343   8.434
  180POPC   C3B 7689  38.443  37.237   8.012
  180POPC   C4B 7690  38.140  37.263   7.706
  181POPC   NC3 7691  39.701  25.709   9.592
  181POPC   PO4 7692  39.811  26.347   9.473
  181POPC   GL1 7693  40.128  26.103   9.245
  181POPC   GL2 7694  39.949  25.807   9.161
  181POPC   C1A 7695  40.289  25.940   8.833
  181POPC   D2A 7696  40.495  25.914   8.467
  181POPC   C3A 7697  40.391  26.088   8.065
  181POPC   C4A 7698  40.377  25.822   7.719
  181POPC   C1B 7699  39.812  26.171   8.846
  181POPC   C2B 7700  39.712  26.078   8.420
  181POPC   C3B 7701  39.913  25.920   8.050
  181POPC   C4B 7702  39.951  26.132   7.680
  182POPC   NC3 7703   5.505  13.568   9.408
  182POPC   PO4 7704   6.198  13.787   9.411
  182POPC   GL1 7705   6.150  13.614   9.077
  182POPC   GL2 7706   5.893  13.396   9.062
  182POPC   C1A 7707   6.081  13.713   8.683
  182POPC   D2A 7708   5.776  13.596   8.396
  182POPC   C3A 7709   5.978  13.661   8.032
  182POPC   C4A 7710   5.925  13.668   7.602
  182POPC   C1B 7711   5.550  13.299   8.772
  182POPC   C2B 7712   5.484  13.114   8.352
  182POPC   C3B 7713   5.569  13.340   7.975
  182POPC   C4B 7714   5.516  13.293   7.513
  183POPC   NC3 7715  33.027  30.597   9.634
  183POPC   PO4 7716  33.293  31.064   9.799
  183POPC   GL1 7717  33.204  30.989   9.303
  183POPC   GL2 7718  32.897  31.110   9.153
  183POPC   C1A 7719  33.297  31.086   8.815
  183POPC   D2A 7720  33.349  30.839   8.401
  183POPC   C3A 7721  33.154  30.866   7.966
  183POPC   C4A 7722  33.309  30.902   7.537
  183POPC   C1B 7723  32.832  30.863   8.790
  183POPC   C2B 7724  32.803  30.895   8.350
  183POPC   C3B 7725  32.615  30.918   7.926
  183POPC   C4B 7726  32.692  30.577   7.651
  184POPC   NC3 7727  37.816  16.035   9.516
  184POPC   PO4 7728  37.163  15.857   9.477
  184POPC   GL1 7729  37.491  15.807   9.184
  184POPC   GL2 7730  37.802  15.622   9.218
  184POPC   C1A 7731  37.490  15.767   8.773
  184POPC   D2A 7732  37.543  15.984   8.349
  184POPC   C3A 7733  37.594  15.766   7.996
  184POPC   C4A 7734  37.565  15.863   7.571
  184POPC   C1B 7735  37.993  15.744   8.858
  184POPC   C2B 7736  38.113  15.861   8.452
  184POPC   C3B 7737  38.107  15.923   8.013
  184POPC   C4B 7738  38.034  16.062   7.576
  185POPC   NC3 7739  20.613   6.654   9.562
  185POPC   PO4 7740  20.699   6.213   9.447
  185POPC   GL1 7741  20.500   6.427   9.101
  185POPC   GL2 7742  20.702   6.718   9.047
  185POPC   C1A 7743  20.423   6.458   8.648
  185POPC   D2A 7744  20.676   6.547   8.273
  185POPC   C3A 7745  20.617   6.339   7.863
  185POPC   C4A 7746  20.779   6.476   7.455
  185POPC   C1B 7747  20.632   6.942   8.655
  185POPC   C2B 7748  20.608   7.058   8.215
  185POPC   C3B 7749  20.607   6.844   7.825
  185POPC   C4B 7750  20.362   6.794   7.492
  186POPC   NC3 7751  32.074   1.803   9.575
  186POPC   PO4 7752  32.518   2.326   9.500
  186POPC   GL1 7753  32.249   2.080   9.200
  186POPC   GL2 7754  32.422   1.752   9.213
  186POPC   C1A 7755  32.007   2.029   8.779
  186POPC   D2A 7756  31.922   2.191   8.333
  186POPC   C3A 7757  31.946   1.922   7.973
  186POPC   C4A 7758  32.188   2.022   7.567
  186POPC   C1B 7759  32.488   1.856   8.775
  186POPC   C2B 7760  32.292   1.772   8.393
  186POPC   C3B 7761  32.432   1.779   7.989
  186POPC   C4B 7762  32.688   1.834   7.642
  187POPC   NC3 7763  12.684  43.402   9.448
  187POPC   PO4 7764  12.496  42.728   9.440
  187POPC   GL1 7765  12.720  43.015   9.116
  187POPC   GL2 7766  13.099  43.031   9.107
  187POPC   C1A 7767  12.775  43.267   8.767
  187POPC   D2A 7768  12.554  43.337   8.406
  187POPC   C3A 7769  12.767  43.633   8.157
  187POPC   C4A 7770  12.801  43.453   7.747
  187POPC   C1B 7771  13.069  42.797   8.702
  187POPC   C2B 7772  12.981  43.014   8.320
  187POPC   C3B 7773  12.890  42.936   7.902
  187POPC   C4B 7774  12.988  42.921   7.464
  188POPC   NC3 7775  18.514   6.079   9.561
  188POPC   PO4 7776  18.259   6.750   9.452
  188POPC   GL1 7777  18.375   6.677   9.080
  188POPC   GL2 7778  18.401   6.324   9.094
  188POPC   C1A 7779  18.373   6.874   8.698
  188POPC   D2A 7780  18.494   6.641   8.344
  188POPC   C3A 7781  18.446   6.774   7.949
  188POPC   C4A 7782  18.069   6.907   7.805
  188POPC   C1B 7783  18.195   6.377   8.691
  188POPC   C2B 7784  17.901   6.389   8.372
  188POPC   C3B 7785  18.057   6.436   7.969
  188POPC   C4B 7786  18.440   6.339   7.686
  189POPC   NC3 7787  20.132  13.686   9.489
  189POPC   PO4 7788  19.393  13.517   9.542
  189POPC   GL1 7789  19.562  13.535   9.103
  189POPC   GL2 7790  19.902  13.433   9.117
  189POPC   C1A 7791  19.735  13.730   8.699
  189POPC   D2A 7792  19.798  13.617   8.272
  189POPC   C3A 7793  19.648  13.681   7.851
  189POPC   C4A 7794  19.891  13.565   7.501
  189POPC   C1B 7795  19.897  13.226   8.727
  189POPC   C2B 7796  20.114  13.209   8.321
  189POPC   C3B 7797  19.903  13.252   7.919
  189POPC   C4B 7798  19.529  13.222   7.620
  190POPC   NC3 7799   2.441   6.471   9.618
  190POPC   PO4 7800   1.893   6.779   9.748
  190POPC   GL1 7801   1.972   6.801   9.269
  190POPC   GL2 7802   2.059   6.507   9.118
  190POPC   C1A 7803   1.814   6.855   8.828
  190POPC   D2A 7804   1.905   6.634   8.453
  190POPC   C3A 7805   2.121   6.738   8.100
  190POPC   C4A 7806   1.779   6.852   7.817
  190POPC   C1B 7807   1.829   6.261   8.789
  190POPC   C2B 7808   1.778   6.105   8.368
  190POPC   C3B 7809   1.789   6.324   7.980
  190POPC   C4B 7810   2.116   6.450   7.690
  191POPC   NC3 7811  34.259  33.253   9.322
  191POPC   PO4 7812  33.819  32.831   9.622
  191POPC   GL1 7813  33.858  32.974   9.143
  191POPC   GL2 7814  34.103  33.165   8.869
  191POPC   C1A 7815  33.659  32.991   8.727
  191POPC   D2A 7816  33.790  33.048   8.305
  191POPC   C3A 7817  33.576  33.371   8.052
  191POPC   C4A 7818  33.482  33.342   7.617
  191POPC   C1B 7819  34.132  32.726   8.785
  191POPC   C2B 7820  33.975  32.580   8.409
  191POPC   C3B 7821  34.091  32.704   8.012
  191POPC   C4B 7822  33.942  33.087   7.822
  192POPC   NC3 7823  33.037  37.270   9.807
  192POPC   PO4 7824  32.751  37.798   9.449
  192POPC   GL1 7825  33.079  37.760   9.163
  192POPC   GL2 7826  33.155  37.438   9.096
  192POPC   C1A 7827  33.325  37.858   8.822
  192POPC   D2A 7828  33.258  37.517   8.569
  192POPC   C3A 7829  33.231  37.560   8.142
  192POPC   C4A 7830  33.225  37.750   7.758
  192POPC   C1B 7831  32.803  37.505   8.802
  192POPC   C2B 7832  32.758  37.537   8.395
  192POPC   C3B 7833  32.725  37.785   8.071
  192POPC   C4B 7834  32.723  37.697   7.676
  193POPC   NC3 7835  40.505   1.431   9.633
  193POPC   PO4 7836  39.941   1.416   9.579
  193POPC   GL1 7837  40.014   1.266   9.152
  193POPC   GL2 7838  40.385   1.261   9.096
  193POPC   C1A 7839  40.027   1.385   8.700
  193POPC   D2A 7840  40.271   1.411   8.305
  193POPC   C3A 7841  39.996   1.326   7.957
  193POPC   C4A 7842  39.820   1.480   7.546
  193POPC   C1B 7843  40.302   0.968   8.734
  193POPC   C2B 7844  40.096   0.927   8.322
  193POPC   C3B 7845  40.237   0.879   7.902
  193POPC   C4B 7846  40.162   0.719   7.493
  194POPC   NC3 7847  16.989   1.249   9.441
  194POPC   PO4 7848  16.586   0.690   9.441
  194POPC   GL1 7849  16.626   1.002   9.128
  194POPC   GL2 7850  16.320   1.183   9.100
  194POPC   C1A 7851  16.939   1.104   8.812
  194POPC   D2A 7852  17.083   1.069   8.410
  194POPC   C3A 7853  16.983   1.309   8.078
  194POPC   C4A 7854  16.658   1.159   7.823
  194POPC   C1B 7855  16.571   1.458   8.827
  194POPC   C2B 7856  16.585   1.454   8.391
  194POPC   C3B 7857  16.564   1.627   7.997
  194POPC   C4B 7858  16.900   1.583   7.670
  195POPC   NC3 7859   9.218   2.873   9.519
  195POPC   PO4 7860   8.626   3.088   9.309
  195POPC   GL1 7861   8.944   2.965   9.089
  195POPC   GL2 7862   8.956   2.655   9.108
  195POPC   C1A 7863   8.835   2.964   8.701
  195POPC   D2A 7864   8.899   2.783   8.360
  195POPC   C3A 7865   9.088   2.965   8.045
  195POPC   C4A 7866   8.926   2.866   7.692
  195POPC   C1B 7867   9.211   2.605   8.775
  195POPC   C2B 7868   9.412   2.695   8.421
  195POPC   C3B 7869   9.481   2.615   8.016
  195POPC   C4B 7870   9.358   2.502   7.610
  196POPC   NC3 7871   5.114   6.131   9.480
  196POPC   PO4 7872   4.968   6.747   9.449
  196POPC   GL1 7873   4.943   6.609   9.039
  196POPC   GL2 7874   4.777   6.325   9.123
  196POPC   C1A 7875   5.221   6.595   8.631
  196POPC   D2A 7876   5.503   6.416   8.306
  196POPC   C3A 7877   5.446   6.654   7.938
  196POPC   C4A 7878   5.047   6.702   7.761
  196POPC   C1B 7879   5.111   6.158   8.846
  196POPC   C2B 7880   5.063   6.111   8.427
  196POPC   C3B 7881   5.051   6.277   8.036
  196POPC   C4B 7882   4.659   6.404   7.890
  197POPC   NC3 7883  29.241  35.255   9.462
  197POPC   PO4 7884  29.356  35.928   9.478
  197POPC   GL1 7885  29.335  35.634   9.140
  197POPC   GL2 7886  28.977  35.636   8.989
  197POPC   C1A 7887  29.344  35.297   8.814
  197POPC   D2A 7888  29.163  35.171   8.425
  197POPC   C3A 7889  29.367  35.196   8.066
  197POPC   C4A 7890  29.343  35.460   7.771
  197POPC   C1B 7891  28.822  35.189   8.816
  197POPC   C2B 7892  28.678  35.033   8.396
  197POPC   C3B 7893  28.814  35.237   7.990
  197POPC   C4B 7894  28.880  35.465   7.585
  198POPC   NC3 7895  12.376  35.880   9.439
  198POPC   PO4 7896  11.812  36.089   9.394
  198POPC   GL1 7897  11.936  36.394   9.081
  198POPC   GL2 7898  12.264  36.273   9.103
  198POPC   C1A 7899  12.132  36.409   8.649
  198POPC   D2A 7900  12.024  36.079   8.365
  198POPC   C3A 7901  11.920  36.334   8.034
  198POPC   C4A 7902  11.955  36.495   7.653
  198POPC   C1B 7903  12.360  35.935   8.775
  198POPC   C2B 7904  12.469  35.769   8.347
  198POPC   C3B 7905  12.453  35.794   7.925
  198POPC   C4B 7906  12.274  36.089   7.637
  199POPC   NC3 7907  10.807  43.758   9.283
  199POPC   PO4 7908  11.446  44.092   9.442
  199POPC   GL1 7909  11.232  44.008   9.068
  199POPC   GL2 7910  10.905  44.166   9.013
  199POPC   C1A 7911  11.263  43.835   8.644
  199POPC   D2A 7912  11.122  43.802   8.212
  199POPC   C3A 7913  11.426  44.029   7.982
  199POPC   C4A 7914  11.541  43.848   7.626
  199POPC   C1B 7915  11.145  44.353   8.704
  199POPC   C2B 7916  11.108  44.321   8.277
  199POPC   C3B 7917  10.948  44.197   7.893
  199POPC   C4B 7918  11.039  43.937   7.594
  200POPC   NC3 7919  33.563  31.438   9.703
  200POPC   PO4 7920  32.944  31.751   9.670
  200POPC   GL1 7921  32.862  31.608   9.306
  200POPC   GL2 7922  33.214  31.499   9.295
  200POPC   C1A 7923  32.814  31.572   8.886
  200POPC   D2A 7924  32.941  31.376   8.511
  200POPC   C3A 7925  32.931  31.655   8.125
  200POPC   C4A 7926  32.620  31.552   7.816
  200POPC   C1B 7927  33.309  31.599   8.874
  200POPC   C2B 7928  33.361  31.667   8.427
  200POPC   C3B 7929  33.341  31.315   8.186
  200POPC   C4B 7930  33.229  31.353   7.793
  201POPC   NC3 7931  25.579   1.327   9.576
  201POPC   PO4 7932  24.956   1.490   9.714
  201POPC   GL1 7933  25.221   1.389   9.222
  201POPC   GL2 7934  25.587   1.471   9.071
  201POPC   C1A 7935  25.349   1.112   8.813
  201POPC   D2A 7936  25.354   1.116   8.335
  201POPC   C3A 7937  25.081   1.136   7.958
  201POPC   C4A 7938  25.112   0.940   7.537
  201POPC   C1B 7939  25.707   1.397   8.610
  201POPC   C2B 7940  25.792   1.380   8.191
  201POPC   C3B 7941  25.560   1.287   7.877
  201POPC   C4B 7942  25.603   1.024   7.562
  202POPC   NC3 7943  15.083  22.973   9.692
  202POPC   PO4 7944  14.819  22.508   9.493
  202POPC   GL1 7945  15.041  22.851   9.174
  202POPC   GL2 7946  15.287  23.147   9.253
  202POPC   C1A 7947  15.167  22.927   8.702
  202POPC   D2A 7948  15.093  22.746   8.261
  202POPC   C3A 7949  15.411  22.770   7.920
  202POPC   C4A 7950  15.508  23.033   7.551
  202POPC   C1B 7951  15.092  23.382   8.920
  202POPC   C2B 7952  15.095  23.503   8.493
  202POPC   C3B 7953  15.140  23.245   8.134
  202POPC   C4B 7954  15.007  23.024   7.768
  203POPC   NC3 7955  35.688  20.558   9.368
  203POPC   PO4 7956  36.334  20.729   9.421
  203POPC   GL1 7957  36.131  20.468   9.096
  203POPC   GL2 7958  35.810  20.239   9.000
  203POPC   C1A 7959  36.004  20.649   8.738
  203POPC   D2A 7960  36.275  20.763   8.431
  203POPC   C3A 7961  36.074  20.945   8.082
  203POPC   C4A 7962  36.280  21.015   7.698
  203POPC   C1B 7963  36.085  20.161   8.646
  203POPC   C2B 7964  36.044  20.347   8.251
  203POPC   C3B 7965  36.150  20.486   7.840
  203POPC   C4B 7966  35.922  20.353   7.475
  204POPC   NC3 7967  38.025  15.288   9.659
  204POPC   PO4 7968  37.405  15.056   9.645
  204POPC   GL1 7969  37.653  15.142   9.276
  204POPC   GL2 7970  37.943  14.962   9.216
  204POPC   C1A 7971  37.740  15.280   8.844
  204POPC   D2A 7972  37.748  15.504   8.449
  204POPC   C3A 7973  37.962  15.447   8.104
  204POPC   C4A 7974  37.731  15.387   7.677
  204POPC   C1B 7975  38.018  14.856   8.778
  204POPC   C2B 7976  37.917  14.993   8.343
  204POPC   C3B 7977  38.013  15.020   7.873
  204POPC   C4B 7978  38.054  15.132   7.356
  205POPC   NC3 7979   3.213  21.978   9.374
  205POPC   PO4 7980   3.882  21.913   9.375
  205POPC   GL1 7981   3.652  22.007   9.058
  205POPC   GL2 7982   3.568  22.291   9.168
  205POPC   C1A 7983   3.319  22.133   8.743
  205POPC   D2A 7984   3.216  22.062   8.326
  205POPC   C3A 7985   3.612  21.978   8.175
  205POPC   C4A 7986   3.772  21.915   7.790
  205POPC   C1B 7987   3.793  22.370   8.769
  205POPC   C2B 7988   3.585  22.441   8.410
  205POPC   C3B 7989   3.513  22.494   8.005
  205POPC   C4B 7990   3.676  22.583   7.590
  206POPC   NC3 7991  18.791  33.263   9.280
  206POPC   PO4 7992  19.109  33.836   9.651
  206POPC   GL1 7993  19.123  33.691   9.184
  206POPC   GL2 7994  19.201  33.351   9.019
  206POPC   C1A 7995  18.967  33.944   8.796
  206POPC   D2A 7996  18.631  34.026   8.454
  206POPC   C3A 7997  18.811  34.042   8.019
  206POPC   C4A 7998  19.243  33.896   7.891
  206POPC   C1B 7999  19.320  33.558   8.667
  206POPC   C2B 8000  19.053  33.703   8.341
  206POPC   C3B 8001  18.917  33.529   7.967
  206POPC   C4B 8002  19.233  33.410   7.697
  207POPC   NC3 8003  36.510  42.294   9.342
  207POPC   PO4 8004  35.868  42.230   9.511
  207POPC   GL1 8005  35.991  42.163   9.123
  207POPC   GL2 8006  36.099  41.825   9.202
  207POPC   C1A 8007  36.198  42.368   8.749
  207POPC   D2A 8008  36.493  42.263   8.384
  207POPC   C3A 8009  36.258  42.387   7.997
  207POPC   C4A 8010  35.908  42.515   7.730
  207POPC   C1B 8011  36.196  41.868   8.769
  207POPC   C2B 8012  36.030  42.036   8.382
  207POPC   C3B 8013  36.230  41.865   8.048
  207POPC   C4B 8014  36.421  42.019   7.683
  208POPC   NC3 8015  12.308  20.945   9.388
  208POPC   PO4 8016  12.131  20.324   9.404
  208POPC   GL1 8017  12.031  20.614   9.116
  208POPC   GL2 8018  11.700  20.721   9.253
  208POPC   C1A 8019  12.228  20.683   8.718
  208POPC   D2A 8020  12.388  20.446   8.388
  208POPC   C3A 8021  12.398  20.676   8.053
  208POPC   C4A 8022  12.201  20.674   7.710
  208POPC   C1B 8023  11.607  20.493   8.887
  208POPC   C2B 8024  11.744  20.610   8.488
  208POPC   C3B 8025  11.817  20.594   8.038
  208POPC   C4B 8026  11.713  20.628   7.589
  209POPC   NC3 8027  31.198  33.603   9.348
  209POPC   PO4 8028  31.544  34.046   9.688
  209POPC   GL1 8029  31.541  34.010   9.218
  209POPC   GL2 8030  31.202  34.105   9.199
  209POPC   C1A 8031  31.759  33.985   8.757
  209POPC   D2A 8032  31.766  34.103   8.276
  209POPC   C3A 8033  31.519  33.811   7.982
  209POPC   C4A 8034  31.167  33.577   7.769
  209POPC   C1B 8035  31.293  34.175   8.790
  209POPC   C2B 8036  31.270  34.046   8.376
  209POPC   C3B 8037  31.169  34.186   7.969
  209POPC   C4B 8038  31.153  34.288   7.540
  210POPC   NC3 8039   1.180  41.960   9.424
  210POPC   PO4 8040   1.433  42.535   9.604
  210POPC   GL1 8041   1.401  42.350   9.190
  210POPC   GL2 8042   1.029  42.364   9.168
  210POPC   C1A 8043   1.318  42.272   8.744
  210POPC   D2A 8044   1.444  42.491   8.388
  210POPC   C3A 8045   1.380  42.404   7.967
  210POPC   C4A 8046   1.706  42.616   7.790
  210POPC   C1B 8047   0.812  42.268   8.799
  210POPC   C2B 8048   0.934  42.358   8.414
  210POPC   C3B 8049   0.800  42.354   8.043
  210POPC   C4B 8050   0.938  42.470   7.671
  211POPC   NC3 8051  36.234  36.639   9.515
  211POPC   PO4 8052  36.504  37.267   9.405
  211POPC   GL1 8053  36.336  36.976   9.124
  211POPC   GL2 8054  36.509  36.649   9.100
  211POPC   C1A 8055  36.131  37.128   8.756
  211POPC   D2A 8056  36.264  37.283   8.354
  211POPC   C3A 8057  35.964  37.184   8.052
  211POPC   C4A 8058  35.913  36.831   7.823
  211POPC   C1B 8059  36.460  36.750   8.683
  211POPC   C2B 8060  36.694  36.855   8.348
  211POPC   C3B 8061  36.621  36.634   7.975
  211POPC   C4B 8062  36.446  36.717   7.616
  212POPC   NC3 8063  36.323  14.622   9.498
  212POPC   PO4 8064  36.428  14.019   9.219
  212POPC   GL1 8065  36.312  14.368   9.043
  212POPC   GL2 8066  36.001  14.435   9.110
  212POPC   C1A 8067  36.236  14.497   8.656
  212POPC   D2A 8068  36.014  14.439   8.312
  212POPC   C3A 8069  36.346  14.348   8.028
  212POPC   C4A 8070  36.381  14.733   7.848
  212POPC   C1B 8071  35.767  14.654   8.788
  212POPC   C2B 8072  35.658  14.850   8.407
  212POPC   C3B 8073  35.755  14.789   7.987
  212POPC   C4B 8074  35.890  14.380   7.811
  213POPC   NC3 8075  26.668  10.191   9.516
  213POPC   PO4 8076  27.214  10.610   9.620
  213POPC   GL1 8077  26.910  10.706   9.222
  213POPC   GL2 8078  26.776  10.403   9.099
  213POPC   C1A 8079  26.682  10.749   8.773
  213POPC   D2A 8080  26.642  10.552   8.351
  213POPC   C3A 8081  26.851  10.685   7.986
  213POPC   C4A 8082  26.709  10.791   7.619
  213POPC   C1B 8083  26.672  10.221   8.721
  213POPC   C2B 8084  26.955  10.123   8.400
  213POPC   C3B 8085  26.760  10.171   8.010
  213POPC   C4B 8086  26.921  10.286   7.624
  214POPC   NC3 8087  26.333  11.059   9.320
  214POPC   PO4 8088  25.920  11.486   9.525
  214POPC   GL1 8089  25.905  11.292   9.112
  214POPC   GL2 8090  25.858  10.914   9.149
  214POPC   C1A 8091  25.917  11.411   8.650
  214POPC   D2A 8092  26.179  11.407   8.269
  214POPC   C3A 8093  26.020  11.388   7.822
  214POPC   C4A 8094  25.727  11.515   7.455
  214POPC   C1B 8095  26.069  10.934   8.761
  214POPC   C2B 8096  26.264  10.897   8.411
  214POPC   C3B 8097  26.031  10.932   8.048
  214POPC   C4B 8098  26.186  10.877   7.647
  215POPC   NC3 8099   3.986  41.228   9.307
  215POPC   PO4 8100   4.458  41.717   9.599
  215POPC   GL1 8101   4.265  41.659   9.217
  215POPC   GL2 8102   4.389  41.366   9.050
  215POPC   C1A 8103   4.126  41.741   8.804
  215POPC   D2A 8104   4.276  41.660   8.397
  215POPC   C3A 8105   4.150  41.936   8.079
  215POPC   C4A 8106   4.367  41.804   7.763
  215POPC   C1B 8107   4.218  41.193   8.639
  215POPC   C2B 8108   4.023  41.250   8.235
  215POPC   C3B 8109   4.359  41.319   7.916
  215POPC   C4B 8110   4.471  41.039   7.549
  216POPC   NC3 8111  33.422  33.059   9.438
  216POPC   PO4 8112  32.819  33.206   9.650
  216POPC   GL1 8113  32.889  33.047   9.233
  216POPC   GL2 8114  32.702  32.699   9.218
  216POPC   C1A 8115  33.134  33.009   8.795
  216POPC   D2A 8116  33.283  33.107   8.374
  216POPC   C3A 8117  33.144  33.066   7.925
  216POPC   C4A 8118  33.045  33.181   7.470
  216POPC   C1B 8119  32.652  32.894   8.836
  216POPC   C2B 8120  32.706  33.063   8.461
  216POPC   C3B 8121  32.638  33.146   8.030
  216POPC   C4B 8122  32.676  32.889   7.664
  217POPC   NC3 8123  37.997  36.653   9.386
  217POPC   PO4 8124  37.471  37.029   9.311
  217POPC   GL1 8125  37.708  36.927   8.940
  217POPC   GL2 8126  38.050  36.749   8.905
  217POPC   C1A 8127  37.677  37.112   8.532
  217POPC   D2A 8128  37.954  37.065   8.180
  217POPC   C3A 8129  37.695  36.956   7.856
  217POPC   C4A 8130  37.470  36.773   7.533
  217POPC   C1B 8131  37.934  36.648   8.515
  217POPC   C2B 8132  37.541  36.665   8.316
  217POPC   C3B 8133  37.506  36.475   7.956
  217POPC   C4B 8134  37.858  36.462   7.746
  218POPC   NC3 8135  27.421  37.115   9.610
  218POPC   PO4 8136  27.632  37.788   9.542
  218POPC   GL1 8137  27.617  37.725   9.136
  218POPC   GL2 8138  27.826  37.456   9.154
  218POPC   C1A 8139  27.602  37.971   8.733
  218POPC   D2A 8140  27.839  38.062   8.344
  218POPC   C3A 8141  27.537  38.037   7.983
  218POPC   C4A 8142  27.526  37.844   7.567
  218POPC   C1B 8143  27.658  37.436   8.736
  218POPC   C2B 8144  27.439  37.629   8.373
  218POPC   C3B 8145  27.654  37.547   8.001
  218POPC   C4B 8146  27.821  37.354   7.674
  219POPC   NC3 8147  41.871  18.689   9.604
  219POPC   PO4 8148  41.323  18.250   9.455
  219POPC   GL1 8149  41.494  18.256   9.077
  219POPC   GL2 8150  41.578  18.530   9.099
  219POPC   C1A 8151  41.714  18.315   8.677
  219POPC   D2A 8152  41.696  18.120   8.320
  219POPC   C3A 8153  41.702  18.308   7.959
  219POPC   C4A 8154  41.824  17.980   7.712
  219POPC   C1B 8155  41.250  18.499   8.710
  219POPC   C2B 8156  41.401  18.576   8.317
  219POPC   C3B 8157  41.309  18.644   7.957
  219POPC   C4B 8158  41.285  18.464   7.634
  220POPC   NC3 8159  31.777   1.335   9.953
  220POPC   PO4 8160  31.340   1.219   9.553
  220POPC   GL1 8161  31.414   1.288   9.137
  220POPC   GL2 8162  31.073   1.405   9.090
  220POPC   C1A 8163  31.687   1.264   8.746
  220POPC   D2A 8164  31.806   1.596   8.427
  220POPC   C3A 8165  31.671   1.459   8.012
  220POPC   C4A 8166  31.676   1.005   7.854
  220POPC   C1B 8167  31.190   1.113   8.727
  220POPC   C2B 8168  31.386   1.148   8.318
  220POPC   C3B 8169  31.187   1.172   7.911
  220POPC   C4B 8170  31.168   1.106   7.485
  221POPC   NC3 8171  10.945  36.094   9.504
  221POPC   PO4 8172  10.351  35.812   9.728
  221POPC   GL1 8173  10.379  35.898   9.269
  221POPC   GL2 8174  10.508  36.241   9.238
  221POPC   C1A 8175  10.565  35.930   8.836
  221POPC   D2A 8176  10.405  35.828   8.454
  221POPC   C3A 8177  10.468  36.107   8.133
  221POPC   C4A 8178  10.635  35.980   7.759
  221POPC   C1B 8179  10.662  36.429   8.836
  221POPC   C2B 8180  10.727  36.492   8.396
  221POPC   C3B 8181  10.771  36.601   7.955
  221POPC   C4B 8182  10.701  36.429   7.534
  222POPC   NC3 8183  34.879  34.566   9.794
  222POPC   PO4 8184  34.324  34.739   9.441
  222POPC   GL1 8185  34.447  34.771   9.036
  222POPC   GL2 8186  34.495  34.431   9.008
  222POPC   C1A 8187  34.587  34.719   8.592
  222POPC   D2A 8188  34.389  34.450   8.331
  222POPC   C3A 8189  34.512  34.298   8.030
  222POPC   C4A 8190  34.524  34.579   7.701
  222POPC   C1B 8191  34.750  34.216   8.677
  222POPC   C2B 8192  34.959  34.195   8.281
  222POPC   C3B 8193  34.965  34.312   7.831
  222POPC   C4B 8194  34.998  34.328   7.385
  223POPC   NC3 8195  10.596  34.367   9.474
  223POPC   PO4 8196  10.160  34.924   9.531
  223POPC   GL1 8197  10.410  34.784   9.197
  223POPC   GL2 8198  10.341  34.457   9.066
  223POPC   C1A 8199  10.448  34.884   8.770
  223POPC   D2A 8200  10.715  34.988   8.418
  223POPC   C3A 8201  10.545  34.850   8.011
  223POPC   C4A 8202  10.159  34.620   7.914
  223POPC   C1B 8203  10.440  34.298   8.683
  223POPC   C2B 8204  10.322  34.285   8.265
  223POPC   C3B 8205  10.520  34.263   7.871
  223POPC   C4B 8206  10.730  34.478   7.543
  224POPC   NC3 8207   9.493  13.376   9.418
  224POPC   PO4 8208   9.924  13.961   9.560
  224POPC   GL1 8209   9.929  13.709   9.189
  224POPC   GL2 8210   9.855  13.340   9.061
  224POPC   C1A 8211   9.796  13.788   8.782
  224POPC   D2A 8212   9.540  13.734   8.447
  224POPC   C3A 8213   9.745  13.895   8.098
  224POPC   C4A 8214   9.892  13.979   7.710
  224POPC   C1B 8215   9.465  13.312   8.774
  224POPC   C2B 8216   9.329  13.291   8.340
  224POPC   C3B 8217   9.645  13.370   8.039
  224POPC   C4B 8218   9.726  13.495   7.634
  225POPC   NC3 8219  38.340   8.081   9.671
  225POPC   PO4 8220  38.874   8.336   9.333
  225POPC   GL1 8221  38.634   8.051   9.070
  225POPC   GL2 8222  38.280   8.078   9.156
  225POPC   C1A 8223  38.500   8.146   8.639
  225POPC   D2A 8224  38.515   8.559   8.429
  225POPC   C3A 8225  38.599   8.523   8.000
  225POPC   C4A 8226  38.617   8.075   7.860
  225POPC   C1B 8227  38.020   8.041   8.792
  225POPC   C2B 8228  37.965   7.848   8.404
  225POPC   C3B 8229  38.119   8.009   8.030
  225POPC   C4B 8230  38.168   8.352   7.788
  226POPC   NC3 8231  34.739  38.609   9.478
  226POPC   PO4 8232  34.344  37.984   9.496
  226POPC   GL1 8233  34.478  38.282   9.197
  226POPC   GL2 8234  34.834  38.280   9.077
  226POPC   C1A 8235  34.404  38.493   8.819
  226POPC   D2A 8236  34.596  38.325   8.451
  226POPC   C3A 8237  34.408  38.375   8.047
  226POPC   C4A 8238  34.582  38.316   7.618
  226POPC   C1B 8239  34.858  38.686   8.830
  226POPC   C2B 8240  34.689  38.837   8.421
  226POPC   C3B 8241  34.819  38.682   7.999
  226POPC   C4B 8242  34.949  38.818   7.580
  227POPC   NC3 8243  16.690  14.785   9.402
  227POPC   PO4 8244  16.775  15.427   9.521
  227POPC   GL1 8245  16.523  15.357   9.160
  227POPC   GL2 8246  16.764  15.148   9.044
  227POPC   C1A 8247  16.619  15.461   8.687
  227POPC   D2A 8248  16.652  15.285   8.288
  227POPC   C3A 8249  16.776  15.358   7.909
  227POPC   C4A 8250  16.708  15.094   7.565
  227POPC   C1B 8251  16.892  15.012   8.636
  227POPC   C2B 8252  17.250  14.905   8.441
  227POPC   C3B 8253  17.095  14.941   8.045
  227POPC   C4B 8254  16.950  14.669   7.730
  228POPC   NC3 8255  37.407  12.452   9.535
  228POPC   PO4 8256  37.425  11.805   9.494
  228POPC   GL1 8257  37.612  11.873   9.106
  228POPC   GL2 8258  37.477  12.206   9.087
  228POPC   C1A 8259  37.859  12.041   8.763
  228POPC   D2A 8260  37.856  12.271   8.377
  228POPC   C3A 8261  37.792  12.029   8.016
  228POPC   C4A 8262  37.945  12.180   7.624
  228POPC   C1B 8263  37.455  12.414   8.684
  228POPC   C2B 8264  37.329  12.378   8.227
  228POPC   C3B 8265  37.519  12.423   7.825
  228POPC   C4B 8266  37.580  12.430   7.361
  229POPC   NC3 8267  26.994   8.597   9.559
  229POPC   PO4 8268  26.369   8.328   9.451
  229POPC   GL1 8269  26.716   8.355   9.144
  229POPC   GL2 8270  26.774   8.032   9.045
  229POPC   C1A 8271  27.015   8.460   8.799
  229POPC   D2A 8272  27.099   8.724   8.433
  229POPC   C3A 8273  26.958   8.542   8.054
  229POPC   C4A 8274  26.702   8.373   7.723
  229POPC   C1B 8275  26.613   8.203   8.629
  229POPC   C2B 8276  26.702   8.106   8.178
  229POPC   C3B 8277  26.592   7.881   7.769
  229POPC   C4B 8278  26.450   8.075   7.381
  230POPC   NC3 8279  33.529  43.359   9.617
  230POPC   PO4 8280  33.995  42.968   9.784
  230POPC   GL1 8281  33.828  43.043   9.284
  230POPC   GL2 8282  33.579  42.803   9.109
  230POPC   C1A 8283  33.869  43.123   8.802
  230POPC   D2A 8284  33.842  43.392   8.413
  230POPC   C3A 8285  34.058  43.291   8.029
  230POPC   C4A 8286  33.950  43.310   7.583
  230POPC   C1B 8287  33.422  42.890   8.699
  230POPC   C2B 8288  33.647  42.931   8.296
  230POPC   C3B 8289  33.591  43.092   7.878
  230POPC   C4B 8290  33.662  42.893   7.458
  231POPC   NC3 8291   1.346  34.070   9.528
  231POPC   PO4 8292   1.373  33.399   9.385
  231POPC   GL1 8293   1.346  33.759   9.126
  231POPC   GL2 8294   1.012  33.922   9.164
  231POPC   C1A 8295   1.356  33.825   8.699
  231POPC   D2A 8296   1.048  33.831   8.345
  231POPC   C3A 8297   1.263  33.758   7.949
  231POPC   C4A 8298   1.049  33.680   7.585
  231POPC   C1B 8299   0.943  34.135   8.775
  231POPC   C2B 8300   1.267  34.271   8.478
  231POPC   C3B 8301   1.294  34.272   8.024
  231POPC   C4B 8302   1.238  34.152   7.566
  232POPC   NC3 8303  36.491  25.711   9.410
  232POPC   PO4 8304  35.852  25.802   9.244
  232POPC   GL1 8305  36.210  25.867   8.999
  232POPC   GL2 8306  36.389  26.185   9.076
  232POPC   C1A 8307  36.171  26.086   8.613
  232POPC   D2A 8308  36.155  26.242   8.181
  232POPC   C3A 8309  36.139  25.838   7.943
  232POPC   C4A 8310  35.740  25.670   7.912
  232POPC   C1B 8311  36.568  26.431   8.676
  232POPC   C2B 8312  36.595  26.601   8.230
  232POPC   C3B 8313  36.380  26.606   7.831
  232POPC   C4B 8314  36.102  26.283   7.653
  233POPC   NC3 8315  18.432  10.298   9.542
  233POPC   PO4 8316  17.737  10.479   9.654
  233POPC   GL1 8317  18.141  10.494   9.182
  233POPC   GL2 8318  18.462  10.621   9.139
  233POPC   C1A 8319  18.257  10.362   8.751
  233POPC   D2A 8320  18.140  10.550   8.348
  233POPC   C3A 8321  18.274  10.396   7.928
  233POPC   C4A 8322  17.998  10.633   7.607
  233POPC   C1B 8323  18.378  10.858   8.743
  233POPC   C2B 8324  18.615  10.917   8.382
  233POPC   C3B 8325  18.408  10.878   8.001
  233POPC   C4B 8326  18.488  10.785   7.597
  234POPC   NC3 8327  33.403   9.572   9.590
  234POPC   PO4 8328  32.857   9.410   9.412
  234POPC   GL1 8329  33.153   9.563   9.124
  234POPC   GL2 8330  33.194   9.903   9.201
  234POPC   C1A 8331  33.195   9.665   8.693
  234POPC   D2A 8332  33.296   9.901   8.322
  234POPC   C3A 8333  33.265   9.627   7.982
  234POPC   C4A 8334  33.051   9.461   7.654
  234POPC   C1B 8335  32.821   9.930   8.928
  234POPC   C2B 8336  32.787   9.942   8.468
  234POPC   C3B 8337  32.860   9.931   8.018
  234POPC   C4B 8338  32.925   9.938   7.571
  235POPC   NC3 8339  33.470  18.605   9.665
  235POPC   PO4 8340  32.949  18.281   9.505
  235POPC   GL1 8341  33.002  18.284   9.115
  235POPC   GL2 8342  32.964  18.633   9.091
  235POPC   C1A 8343  33.094  18.045   8.763
  235POPC   D2A 8344  33.325  17.762   8.494
  235POPC   C3A 8345  33.322  17.840   8.069
  235POPC   C4A 8346  33.047  17.981   7.783
  235POPC   C1B 8347  33.107  18.536   8.686
  235POPC   C2B 8348  33.193  18.295   8.322
  235POPC   C3B 8349  33.061  18.448   7.934
  235POPC   C4B 8350  33.195  18.377   7.511
  236POPC   NC3 8351  14.381   5.016   9.620
  236POPC   PO4 8352  14.982   4.936   9.562
  236POPC   GL1 8353  14.686   4.949   9.203
  236POPC   GL2 8354  14.318   4.999   9.114
  236POPC   C1A 8355  14.628   4.771   8.781
  236POPC   D2A 8356  14.456   4.685   8.401
  236POPC   C3A 8357  14.584   4.918   8.062
  236POPC   C4A 8358  14.404   4.793   7.736
  236POPC   C1B 8359  14.111   4.930   8.698
  236POPC   C2B 8360  14.118   5.055   8.243
  236POPC   C3B 8361  14.141   5.223   7.797
  236POPC   C4B 8362  13.860   5.385   7.454
  237POPC   NC3 8363   4.002  32.448   9.308
  237POPC   PO4 8364   4.214  31.913   9.685
  237POPC   GL1 8365   4.378  32.033   9.247
  237POPC   GL2 8366   4.390  32.375   9.011
  237POPC   C1A 8367   4.571  31.961   8.824
  237POPC   D2A 8368   4.408  32.241   8.492
  237POPC   C3A 8369   4.486  32.177   8.058
  237POPC   C4A 8370   4.689  31.918   7.778
  237POPC   C1B 8371   4.169  32.627   8.699
  237POPC   C2B 8372   3.819  32.649   8.370
  237POPC   C3B 8373   3.791  32.465   7.949
  237POPC   C4B 8374   4.118  32.310   7.671
  238POPC   NC3 8375   3.017  22.958   9.476
  238POPC   PO4 8376   3.053  22.408   9.319
  238POPC   GL1 8377   3.390  22.759   9.156
  238POPC   GL2 8378   3.776  22.750   9.225
  238POPC   C1A 8379   3.618  22.851   8.741
  238POPC   D2A 8380   3.451  22.934   8.326
  238POPC   C3A 8381   3.686  22.972   7.925
  238POPC   C4A 8382   3.854  23.243   7.576
  238POPC   C1B 8383   4.106  22.751   8.884
  238POPC   C2B 8384   4.051  22.681   8.436
  238POPC   C3B 8385   4.027  22.538   8.001
  238POPC   C4B 8386   4.129  22.814   7.656
  239POPC   NC3 8387  31.319  19.103   9.472
  239POPC   PO4 8388  31.872  19.291   9.354
  239POPC   GL1 8389  31.538  19.204   9.015
  239POPC   GL2 8390  31.131  19.197   9.029
  239POPC   C1A 8391  31.360  19.376   8.635
  239POPC   D2A 8392  31.209  19.134   8.333
  239POPC   C3A 8393  31.341  19.194   7.936
  239POPC   C4A 8394  31.527  18.831   7.750
  239POPC   C1B 8395  31.251  18.832   8.758
  239POPC   C2B 8396  31.319  18.626   8.341
  239POPC   C3B 8397  31.045  18.766   8.009
  239POPC   C4B 8398  31.056  18.914   7.596
  240POPC   NC3 8399  36.103   7.236   9.421
  240POPC   PO4 8400  35.711   7.761   9.331
  240POPC   GL1 8401  35.897   7.509   9.038
  240POPC   GL2 8402  35.803   7.149   9.020
  240POPC   C1A 8403  36.022   7.613   8.626
  240POPC   D2A 8404  35.893   7.453   8.257
  240POPC   C3A 8405  36.230   7.528   7.977
  240POPC   C4A 8406  35.933   7.696   7.742
  240POPC   C1B 8407  36.166   7.154   8.769
  240POPC   C2B 8408  36.304   7.162   8.380
  240POPC   C3B 8409  36.078   7.042   8.005
  240POPC   C4B 8410  36.036   7.205   7.609
  241POPC   NC3 8411   2.659  35.275   9.532
  241POPC   PO4 8412   3.213  34.919   9.317
  241POPC   GL1 8413   2.951  35.222   9.109
  241POPC   GL2 8414   2.915  35.585   9.201
  241POPC   C1A 8415   2.884  35.315   8.687
  241POPC   D2A 8416   2.717  35.114   8.331
  241POPC   C3A 8417   2.856  35.277   7.963
  241POPC   C4A 8418   3.131  35.589   7.835
  241POPC   C1B 8419   2.553  35.624   8.911
  241POPC   C2B 8420   2.485  35.573   8.461
  241POPC   C3B 8421   2.368  35.586   8.016
  241POPC   C4B 8422   2.664  35.665   7.692
  242POPC   NC3 8423  30.187   8.879   9.393
  242POPC   PO4 8424  29.540   8.844   9.482
  242POPC   GL1 8425  29.707   8.915   9.079
  242POPC   GL2 8426  29.947   9.202   9.054
  242POPC   C1A 8427  29.676   8.958   8.630
  242POPC   D2A 8428  29.767   8.835   8.181
  242POPC   C3A 8429  29.585   9.039   7.803
  242POPC   C4A 8430  29.624   8.885   7.374
  242POPC   C1B 8431  30.224   9.040   8.725
  242POPC   C2B 8432  30.407   9.121   8.315
  242POPC   C3B 8433  30.238   8.993   7.936
  242POPC   C4B 8434  30.058   9.182   7.602
  243POPC   NC3 8435   0.552  32.652   9.746
  243POPC   PO4 8436   0.222  32.046   9.579
  243POPC   GL1 8437   0.440  32.205   9.252
  243POPC   GL2 8438   0.379  31.951   9.055
  243POPC   C1A 8439   0.547  32.347   8.798
  243POPC   D2A 8440   0.390  32.503   8.418
  243POPC   C3A 8441   0.573  32.458   7.974
  243POPC   C4A 8442   0.634  32.500   7.494
  243POPC   C1B 8443   0.473  31.841   8.652
  243POPC   C2B 8444   0.491  32.017   8.268
  243POPC   C3B 8445   0.463  31.972   7.841
  243POPC   C4B 8446   0.208  31.906   7.524
  244POPC   NC3 8447  28.713  11.305   9.464
  244POPC   PO4 8448  28.061  11.001   9.474
  244POPC   GL1 8449  28.208  11.240   9.159
  244POPC   GL2 8450  28.464  11.009   9.128
  244POPC   C1A 8451  28.277  11.372   8.741
  244POPC   D2A 8452  28.583  11.365   8.390
  244POPC   C3A 8453  28.292  11.408   8.050
  244POPC   C4A 8454  28.038  11.433   7.697
  244POPC   C1B 8455  28.719  11.081   8.801
  244POPC   C2B 8456  28.859  10.908   8.441
  244POPC   C3B 8457  28.689  11.000   8.047
  244POPC   C4B 8458  28.507  11.124   7.695
  245POPC   NC3 8459  31.537  36.380   9.361
  245POPC   PO4 8460  31.282  35.738   9.478
  245POPC   GL1 8461  31.419  35.936   9.113
  245POPC   GL2 8462  31.076  36.006   9.031
  245POPC   C1A 8463  31.582  36.143   8.707
  245POPC   D2A 8464  31.746  36.111   8.261
  245POPC   C3A 8465  31.579  36.252   7.862
  245POPC   C4A 8466  31.732  36.080   7.465
  245POPC   C1B 8467  31.202  35.777   8.678
  245POPC   C2B 8468  31.264  35.894   8.232
  245POPC   C3B 8469  31.433  35.760   7.835
  245POPC   C4B 8470  31.286  35.877   7.425
  246POPC   NC3 8471  33.547   7.035   9.301
  246POPC   PO4 8472  33.593   7.705   9.447
  246POPC   GL1 8473  33.503   7.544   9.068
  246POPC   GL2 8474  33.852   7.382   9.046
  246POPC   C1A 8475  33.548   7.382   8.655
  246POPC   D2A 8476  33.835   7.143   8.391
  246POPC   C3A 8477  33.786   7.233   7.963
  246POPC   C4A 8478  33.517   7.565   7.832
  246POPC   C1B 8479  34.043   7.571   8.667
  246POPC   C2B 8480  33.838   7.679   8.265
  246POPC   C3B 8481  33.978   7.767   7.861
  246POPC   C4B 8482  34.055   7.459   7.564
  247POPC   NC3 8483  17.535  32.969   9.494
  247POPC   PO4 8484  18.020  32.528   9.270
  247POPC   GL1 8485  17.775  32.871   9.015
  247POPC   GL2 8486  17.472  33.134   9.026
  247POPC   C1A 8487  17.626  32.869   8.587
  247POPC   D2A 8488  17.258  32.974   8.345
  247POPC   C3A 8489  17.423  32.954   7.965
  247POPC   C4A 8490  17.612  32.681   7.741
  247POPC   C1B 8491  17.505  33.356   8.654
  247POPC   C2B 8492  17.623  33.320   8.257
  247POPC   C3B 8493  17.540  33.533   7.916
  247POPC   C4B 8494  17.345  33.473   7.509
  248POPC   NC3 8495  23.172  24.354   9.419
  248POPC   PO4 8496  22.657  24.724   9.541
  248POPC   GL1 8497  22.772  24.622   9.150
  248POPC   GL2 8498  22.672  24.297   9.182
  248POPC   C1A 8499  22.993  24.465   8.773
  248POPC   D2A 8500  23.155  24.618   8.376
  248POPC   C3A 8501  22.966  24.466   8.002
  248POPC   C4A 8502  22.815  24.648   7.663
  248POPC   C1B 8503  22.453  24.427   8.796
  248POPC   C2B 8504  22.625  24.518   8.410
  248POPC   C3B 8505  22.488  24.279   8.045
  248POPC   C4B 8506  22.589  24.190   7.609
  249POPC   NC3 8507  41.868  24.186   9.530
  249POPC   PO4 8508  41.253  24.496   9.437
  249POPC   GL1 8509  41.549  24.459   9.124
  249POPC   GL2 8510  41.635  24.803   9.081
  249POPC   C1A 8511  41.480  24.541   8.680
  249POPC   D2A 8512  41.672  24.358   8.340
  249POPC   C3A 8513  41.555  24.471   7.958
  249POPC   C4A 8514  41.702  24.166   7.695
  249POPC   C1B 8515  41.917  24.839   8.815
  249POPC   C2B 8516  41.937  24.779   8.433
  249POPC   C3B 8517  42.077  24.696   8.049
  249POPC   C4B 8518  41.972  24.618   7.653
  250POPC   NC3 8519  19.109  29.596   9.392
  250POPC   PO4 8520  18.795  30.211   9.639
  250POPC   GL1 8521  18.801  30.075   9.195
  250POPC   GL2 8522  19.059  30.275   8.999
  250POPC   C1A 8523  18.789  29.923   8.766
  250POPC   D2A 8524  18.964  30.088   8.396
  250POPC   C3A 8525  18.905  29.812   8.064
  250POPC   C4A 8526  19.006  29.809   7.610
  250POPC   C1B 8527  19.317  29.976   8.774
  250POPC   C2B 8528  19.386  29.763   8.399
  250POPC   C3B 8529  19.429  29.895   8.007
  250POPC   C4B 8530  19.430  30.088   7.635
  251POPC   NC3 8531   1.063  37.466   9.548
  251POPC   PO4 8532   1.368  38.026   9.913
  251POPC   GL1 8533   1.358  38.017   9.402
  251POPC   GL2 8534   1.509  37.693   9.274
  251POPC   C1A 8535   1.161  37.917   8.959
  251POPC   D2A 8536   1.122  37.719   8.526
  251POPC   C3A 8537   1.033  37.839   8.099
  251POPC   C4A 8538   0.796  37.643   7.783
  251POPC   C1B 8539   1.544  37.590   8.804
  251POPC   C2B 8540   1.613  37.643   8.334
  251POPC   C3B 8541   1.479  37.620   7.884
  251POPC   C4B 8542   1.209  37.750   7.507
  252POPC   NC3 8543  30.003  20.233   9.151
  252POPC   PO4 8544  30.191  20.727   9.575
  252POPC   GL1 8545  30.223  20.754   9.132
  252POPC   GL2 8546  29.865  20.732   9.105
  252POPC   C1A 8547  30.186  20.649   8.683
  252POPC   D2A 8548  29.854  20.500   8.390
  252POPC   C3A 8549  29.959  20.582   7.959
  252POPC   C4A 8550  29.956  20.329   7.606
  252POPC   C1B 8551  29.758  20.931   8.711
  252POPC   C2B 8552  29.977  20.985   8.308
  252POPC   C3B 8553  29.690  21.029   7.971
  252POPC   C4B 8554  29.623  20.812   7.628
  253POPC   NC3 8555  19.173   4.760   9.815
  253POPC   PO4 8556  18.837   5.346   9.773
  253POPC   GL1 8557  19.001   5.336   9.347
  253POPC   GL2 8558  19.025   4.979   9.286
  253POPC   C1A 8559  18.895   5.317   8.917
  253POPC   D2A 8560  18.724   5.228   8.498
  253POPC   C3A 8561  19.049   5.155   8.187
  253POPC   C4A 8562  19.090   5.296   7.801
  253POPC   C1B 8563  18.804   4.823   8.902
  253POPC   C2B 8564  18.966   4.747   8.489
  253POPC   C3B 8565  18.865   4.674   8.073
  253POPC   C4B 8566  18.780   4.889   7.713
  254POPC   NC3 8567  11.603  18.314   9.538
  254POPC   PO4 8568  12.326  18.184   9.502
  254POPC   GL1 8569  11.999  18.225   9.188
  254POPC   GL2 8570  11.891  17.844   9.176
  254POPC   C1A 8571  11.986  18.486   8.778
  254POPC   D2A 8572  12.176  18.409   8.377
  254POPC   C3A 8573  11.992  18.408   7.981
  254POPC   C4A 8574  12.114  18.583   7.590
  254POPC   C1B 8575  11.914  17.984   8.746
  254POPC   C2B 8576  12.081  17.902   8.353
  254POPC   C3B 8577  12.355  18.023   8.006
  254POPC   C4B 8578  12.097  18.047   7.632
  255POPC   NC3 8579   9.308  40.895   9.438
  255POPC   PO4 8580   8.717  40.462   9.457
  255POPC   GL1 8581   8.854  40.640   9.118
  255POPC   GL2 8582   8.849  40.986   9.212
  255POPC   C1A 8583   9.038  40.534   8.724
  255POPC   D2A 8584   8.924  40.438   8.303
  255POPC   C3A 8585   9.220  40.598   7.973
  255POPC   C4A 8586   9.302  40.926   7.677
  255POPC   C1B 8587   8.924  41.023   8.773
  255POPC   C2B 8588   8.689  40.925   8.394
  255POPC   C3B 8589   8.733  40.783   7.987
  255POPC   C4B 8590   8.779  41.004   7.648
  256POPC   NC3 8591  26.897  24.592   9.576
  256POPC   PO4 8592  26.582  24.118   9.240
  256POPC   GL1 8593  26.658  24.530   9.109
  256POPC   GL2 8594  26.945  24.701   9.097
  256POPC   C1A 8595  26.802  24.440   8.684
  256POPC   D2A 8596  26.765  24.174   8.349
  256POPC   C3A 8597  26.836  24.274   7.948
  256POPC   C4A 8598  27.258  24.165   7.853
  256POPC   C1B 8599  27.182  24.766   8.739
  256POPC   C2B 8600  27.182  24.543   8.353
  256POPC   C3B 8601  27.160  24.667   7.961
  256POPC   C4B 8602  26.810  24.905   7.802
  257POPC   NC3 8603  18.440  31.459   9.526
  257POPC   PO4 8604  17.858  31.749   9.739
  257POPC   GL1 8605  17.850  31.659   9.286
  257POPC   GL2 8606  18.078  31.399   9.142
  257POPC   C1A 8607  17.873  31.751   8.819
  257POPC   D2A 8608  18.004  31.481   8.434
  257POPC   C3A 8609  18.289  31.627   8.073
  257POPC   C4A 8610  18.082  31.451   7.699
  257POPC   C1B 8611  18.409  31.238   8.854
  257POPC   C2B 8612  18.502  31.283   8.412
  257POPC   C3B 8613  18.284  31.125   8.068
  257POPC   C4B 8614  18.470  31.131   7.683
  258POPC   NC3 8615  23.195  13.705   9.574
  258POPC   PO4 8616  22.772  14.117   9.486
  258POPC   GL1 8617  22.835  13.719   9.208
  258POPC   GL2 8618  23.122  13.569   9.107
  258POPC   C1A 8619  22.736  13.513   8.792
  258POPC   D2A 8620  22.713  13.691   8.400
  258POPC   C3A 8621  22.793  13.518   8.023
  258POPC   C4A 8622  22.873  13.654   7.630
  258POPC   C1B 8623  23.268  13.684   8.710
  258POPC   C2B 8624  23.222  13.550   8.329
  258POPC   C3B 8625  23.327  13.545   7.942
  258POPC   C4B 8626  23.322  13.455   7.534
  259POPC   NC3 8627  34.831  16.099   9.619
  259POPC   PO4 8628  34.320  15.681   9.644
  259POPC   GL1 8629  34.522  15.861   9.248
  259POPC   GL2 8630  34.602  16.236   9.203
  259POPC   C1A 8631  34.513  15.919   8.787
  259POPC   D2A 8632  34.681  15.671   8.414
  259POPC   C3A 8633  34.648  15.764   7.934
  259POPC   C4A 8634  34.598  15.791   7.447
  259POPC   C1B 8635  34.860  16.270   8.846
  259POPC   C2B 8636  34.715  16.195   8.418
  259POPC   C3B 8637  34.864  16.218   8.040
  259POPC   C4B 8638  34.658  16.228   7.665
  260POPC   NC3 8639  32.818   6.091   9.496
  260POPC   PO4 8640  33.291   5.681   9.584
  260POPC   GL1 8641  33.287   5.731   9.128
  260POPC   GL2 8642  33.150   6.088   9.084
  260POPC   C1A 8643  33.313   5.833   8.675
  260POPC   D2A 8644  32.980   6.012   8.410
  260POPC   C3A 8645  33.091   5.895   8.001
  260POPC   C4A 8646  33.162   6.064   7.591
  260POPC   C1B 8647  32.818   5.797   8.860
  260POPC   C2B 8648  32.538   5.741   8.481
  260POPC   C3B 8649  32.611   5.660   8.057
  260POPC   C4B 8650  32.746   5.781   7.642
  261POPC   NC3 8651  24.140  22.353   9.559
  261POPC   PO4 8652  23.433  22.111   9.463
  261POPC   GL1 8653  23.716  22.159   9.141
  261POPC   GL2 8654  23.501  21.947   8.991
  261POPC   C1A 8655  23.785  22.281   8.706
  261POPC   D2A 8656  24.018  22.385   8.336
  261POPC   C3A 8657  23.949  22.171   7.935
  261POPC   C4A 8658  23.656  22.312   7.633
  261POPC   C1B 8659  23.335  22.008   8.608
  261POPC   C2B 8660  23.564  22.112   8.265
  261POPC   C3B 8661  23.451  21.934   7.896
  261POPC   C4B 8662  23.415  21.528   7.703
  262POPC   NC3 8663  38.780  33.762   9.525
  262POPC   PO4 8664  38.139  33.485   9.506
  262POPC   GL1 8665  38.407  33.706   9.171
  262POPC   GL2 8666  38.710  33.455   9.148
  262POPC   C1A 8667  38.401  34.038   8.798
  262POPC   D2A 8668  38.197  34.022   8.379
  262POPC   C3A 8669  38.364  33.928   7.958
  262POPC   C4A 8670  38.152  33.963   7.568
  262POPC   C1B 8671  38.792  33.723   8.790
  262POPC   C2B 8672  38.697  33.781   8.355
  262POPC   C3B 8673  38.625  33.500   8.002
  262POPC   C4B 8674  38.618  33.664   7.587
  263POPC   NC3 8675  22.591  40.258   9.368
  263POPC   PO4 8676  22.093  40.145   9.850
  263POPC   GL1 8677  22.025  40.329   9.330
  263POPC   GL2 8678  22.260  40.433   9.058
  263POPC   C1A 8679  21.831  40.151   8.900
  263POPC   D2A 8680  21.938  39.864   8.530
  263POPC   C3A 8681  22.119  39.773   8.105
  263POPC   C4A 8682  21.948  39.848   7.671
  263POPC   C1B 8683  22.229  40.311   8.647
  263POPC   C2B 8684  21.867  40.351   8.378
  263POPC   C3B 8685  22.049  40.262   8.002
  263POPC   C4B 8686  22.465  40.099   7.869
  264POPC   NC3 8687  27.421   1.675   9.557
  264POPC   PO4 8688  27.610   2.319   9.528
  264POPC   GL1 8689  27.652   2.180   9.107
  264POPC   GL2 8690  27.502   1.828   9.061
  264POPC   C1A 8691  27.876   2.027   8.751
  264POPC   D2A 8692  27.722   1.704   8.458
  264POPC   C3A 8693  27.724   1.774   8.024
  264POPC   C4A 8694  27.880   2.126   7.838
  264POPC   C1B 8695  27.380   2.044   8.665
  264POPC   C2B 8696  27.611   2.201   8.296
  264POPC   C3B 8697  27.432   2.339   7.902
  264POPC   C4B 8698  27.365   2.166   7.499
  265POPC   NC3 8699  41.566  16.952   9.433
  265POPC   PO4 8700  41.336  16.358   9.653
  265POPC   GL1 8701  41.515  16.465   9.203
  265POPC   GL2 8702  41.831  16.331   9.067
  265POPC   C1A 8703  41.533  16.732   8.800
  265POPC   D2A 8704  41.602  16.686   8.346
  265POPC   C3A 8705  41.659  16.897   7.984
  265POPC   C4A 8706  41.332  17.120   7.825
  265POPC   C1B 8707  41.812  16.329   8.619
  265POPC   C2B 8708  41.833  16.284   8.161
  265POPC   C3B 8709  41.628  16.423   7.802
  265POPC   C4B 8710  41.719  16.362   7.383
  266POPC   NC3 8711  15.292  40.615   9.484
  266POPC   PO4 8712  14.959  41.114   9.477
  266POPC   GL1 8713  15.080  40.897   9.106
  266POPC   GL2 8714  15.045  40.507   9.064
  266POPC   C1A 8715  15.095  41.053   8.690
  266POPC   D2A 8716  14.953  41.013   8.286
  266POPC   C3A 8717  15.251  41.010   8.001
  266POPC   C4A 8718  15.382  41.066   7.610
  266POPC   C1B 8719  15.395  40.646   8.808
  266POPC   C2B 8720  15.230  40.567   8.415
  266POPC   C3B 8721  15.158  40.510   8.003
  266POPC   C4B 8722  15.390  40.522   7.658
  267POPC   NC3 8723  10.698   2.858   9.586
  267POPC   PO4 8724  10.090   2.939   9.243
  267POPC   GL1 8725  10.501   2.874   9.116
  267POPC   GL2 8726  10.708   2.578   9.070
  267POPC   C1A 8727  10.614   2.944   8.717
  267POPC   D2A 8728  10.494   2.780   8.300
  267POPC   C3A 8729  10.590   2.872   7.869
  267POPC   C4A 8730  10.733   3.147   7.537
  267POPC   C1B 8731  10.381   2.497   8.751
  267POPC   C2B 8732  10.375   2.273   8.353
  267POPC   C3B 8733  10.374   2.400   7.930
  267POPC   C4B 8734  10.217   2.502   7.514
  268POPC   NC3 8735  23.443  29.410   9.405
  268POPC   PO4 8736  22.848  29.050   9.434
  268POPC   GL1 8737  23.021  29.257   9.133
  268POPC   GL2 8738  23.268  29.008   9.105
  268POPC   C1A 8739  23.056  29.395   8.734
  268POPC   D2A 8740  22.819  29.285   8.371
  268POPC   C3A 8741  22.970  29.381   7.969
  268POPC   C4A 8742  22.619  29.299   7.712
  268POPC   C1B 8743  23.142  28.889   8.708
  268POPC   C2B 8744  23.245  29.016   8.285
  268POPC   C3B 8745  23.217  28.829   7.879
  268POPC   C4B 8746  23.308  28.815   7.428
  269POPC   NC3 8747  44.422   1.421   9.601
  269POPC   PO4 8748  44.826   0.877   9.434
  269POPC   GL1 8749  44.725   1.279   9.178
  269POPC   GL2 8750  44.436   1.451   9.098
  269POPC   C1A 8751  44.850   1.327   8.752
  269POPC   D2A 8752  44.856   1.004   8.434
  269POPC   C3A 8753  44.868   1.194   8.048
  269POPC   C4A 8754  44.715   1.031   7.689
  269POPC   C1B 8755  44.426   1.623   8.730
  269POPC   C2B 8756  44.590   1.595   8.322
  269POPC   C3B 8757  44.481   1.495   7.887
  269POPC   C4B 8758  44.397   1.410   7.449
  270POPC   NC3 8759  14.118  44.708   9.487
  270POPC   PO4 8760  13.462  44.630   9.653
  270POPC   GL1 8761  13.529  44.685   9.201
  270POPC   GL2 8762  13.857  44.775   9.075
  270POPC   C1A 8763  13.441  44.782   8.770
  270POPC   D2A 8764  13.560  44.524   8.432
  270POPC   C3A 8765  13.451  44.609   8.051
  270POPC   C4A 8766  13.517  44.475   7.675
  270POPC   C1B 8767  13.890  44.979   8.666
  270POPC   C2B 8768  13.912  44.825   8.211
  270POPC   C3B 8769  13.822  44.892   7.749
  270POPC   C4B 8770  13.838   0.111   7.329
  271POPC   NC3 8771  27.901  11.536   9.453
  271POPC   PO4 8772  27.905  12.235   9.354
  271POPC   GL1 8773  27.690  12.004   9.102
  271POPC   GL2 8774  27.443  11.746   9.179
  271POPC   C1A 8775  27.818  11.953   8.690
  271POPC   D2A 8776  27.913  12.114   8.319
  271POPC   C3A 8777  27.707  11.957   7.955
  271POPC   C4A 8778  27.363  12.149   7.663
  271POPC   C1B 8779  27.331  11.939   8.772
  271POPC   C2B 8780  27.398  11.770   8.365
  271POPC   C3B 8781  27.240  11.745   7.933
  271POPC   C4B 8782  27.540  11.667   7.556
  272POPC   NC3 8783  37.565   6.412   9.858
  272POPC   PO4 8784  37.503   5.805   9.628
  272POPC   GL1 8785  37.565   5.723   9.170
  272POPC   GL2 8786  37.911   5.786   9.003
  272POPC   C1A 8787  37.441   5.604   8.756
  272POPC   D2A 8788  37.649   5.482   8.375
  272POPC   C3A 8789  37.409   5.537   7.976
  272POPC   C4A 8790  37.600   5.403   7.607
  272POPC   C1B 8791  37.743   5.988   8.643
  272POPC   C2B 8792  37.457   5.932   8.295
  272POPC   C3B 8793  37.571   6.025   7.885
  272POPC   C4B 8794  37.884   6.311   7.821
  273POPC   NC3 8795  17.911   6.367   9.275
  273POPC   PO4 8796  17.298   6.491   9.543
  273POPC   GL1 8797  17.485   6.633   9.184
  273POPC   GL2 8798  17.202   6.666   8.997
  273POPC   C1A 8799  17.657   6.656   8.759
  273POPC   D2A 8800  17.392   6.631   8.418
  273POPC   C3A 8801  17.608   6.697   8.071
  273POPC   C4A 8802  17.645   6.606   7.686
  273POPC   C1B 8803  16.971   6.431   8.661
  273POPC   C2B 8804  17.022   6.299   8.217
  273POPC   C3B 8805  17.184   6.463   7.832
  273POPC   C4B 8806  17.238   6.514   7.360
  274POPC   NC3 8807  43.983  29.633   9.773
  274POPC   PO4 8808  43.459  30.006   9.828
  274POPC   GL1 8809  43.776  29.974   9.409
  274POPC   GL2 8810  43.584  29.982   9.077
  274POPC   C1A 8811  44.083  30.055   9.017
  274POPC   D2A 8812  44.180  29.907   8.567
  274POPC   C3A 8813  44.001  29.991   8.139
  274POPC   C4A 8814  43.802  29.717   7.829
  274POPC   C1B 8815  43.668  29.686   8.714
  274POPC   C2B 8816  43.538  29.792   8.286
  274POPC   C3B 8817  43.277  29.871   7.899
  274POPC   C4B 8818  43.244  30.023   7.452
  275POPC   NC3 8819  20.634   8.470   9.506
  275POPC   PO4 8820  20.454   7.959   9.702
  275POPC   GL1 8821  20.440   8.051   9.249
  275POPC   GL2 8822  20.256   8.323   9.183
  275POPC   C1A 8823  20.442   8.098   8.758
  275POPC   D2A 8824  20.424   8.294   8.312
  275POPC   C3A 8825  20.512   8.155   7.856
  275POPC   C4A 8826  20.813   8.216   7.483
  275POPC   C1B 8827  20.283   8.593   8.841
  275POPC   C2B 8828  20.193   8.760   8.424
  275POPC   C3B 8829  20.408   8.710   8.026
  275POPC   C4B 8830  20.200   8.534   7.718
  276POPC   NC3 8831  41.249  19.393   9.430
  276POPC   PO4 8832  41.431  18.782   9.584
  276POPC   GL1 8833  41.470  19.004   9.151
  276POPC   GL2 8834  41.835  18.966   9.114
  276POPC   C1A 8835  41.615  18.852   8.677
  276POPC   D2A 8836  41.572  19.169   8.303
  276POPC   C3A 8837  41.369  19.139   7.880
  276POPC   C4A 8838  41.524  18.924   7.495
  276POPC   C1B 8839  41.695  19.314   8.799
  276POPC   C2B 8840  41.885  19.552   8.495
  276POPC   C3B 8841  41.875  19.563   8.053
  276POPC   C4B 8842  41.838  19.273   7.751
  277POPC   NC3 8843  44.017  23.060   9.564
  277POPC   PO4 8844  43.519  22.707   9.529
  277POPC   GL1 8845  43.841  22.683   9.187
  277POPC   GL2 8846  43.902  23.011   9.088
  277POPC   C1A 8847  43.948  22.680   8.733
  277POPC   D2A 8848  43.862  22.965   8.377
  277POPC   C3A 8849  43.935  22.744   8.010
  277POPC   C4A 8850  44.084  22.881   7.638
  277POPC   C1B 8851  43.907  23.305   8.789
  277POPC   C2B 8852  44.141  23.438   8.395
  277POPC   C3B 8853  44.174  23.306   7.962
  277POPC   C4B 8854  43.874  23.346   7.650
  278POPC   NC3 8855  11.190  33.040   9.520
  278POPC   PO4 8856  11.685  33.246   9.209
  278POPC   GL1 8857  11.280  33.336   9.017
  278POPC   GL2 8858  10.940  33.358   9.155
  278POPC   C1A 8859  11.242  33.264   8.573
  278POPC   D2A 8860  11.577  33.005   8.328
  278POPC   C3A 8861  11.539  32.983   7.894
  278POPC   C4A 8862  11.229  33.197   7.703
  278POPC   C1B 8863  10.943  32.950   8.897
  278POPC   C2B 8864  11.140  32.774   8.509
  278POPC   C3B 8865  11.062  32.910   8.106
  278POPC   C4B 8866  11.053  32.719   7.699
  279POPC   NC3 8867  18.974  13.330   9.431
  279POPC   PO4 8868  18.833  13.980   9.339
  279POPC   GL1 8869  18.958  13.698   9.049
  279POPC   GL2 8870  19.028  14.004   8.864
  279POPC   C1A 8871  19.095  13.547   8.678
  279POPC   D2A 8872  19.327  13.485   8.323
  279POPC   C3A 8873  19.164  13.545   7.933
  279POPC   C4A 8874  18.856  13.333   7.679
  279POPC   C1B 8875  19.330  13.998   8.531
  279POPC   C2B 8876  19.454  14.066   8.117
  279POPC   C3B 8877  19.267  14.016   7.734
  279POPC   C4B 8878  18.866  13.868   7.688
  280POPC   NC3 8879  25.360  22.939   9.655
  280POPC   PO4 8880  24.766  22.749   9.524
  280POPC   GL1 8881  25.099  23.096   9.237
  280POPC   GL2 8882  25.510  23.126   9.211
  280POPC   C1A 8883  25.181  23.315   8.805
  280POPC   D2A 8884  24.989  23.338   8.358
  280POPC   C3A 8885  25.067  23.262   7.884
  280POPC   C4A 8886  25.144  22.894   7.551
  280POPC   C1B 8887  25.586  22.990   8.806
  280POPC   C2B 8888  25.503  23.150   8.398
  280POPC   C3B 8889  25.531  23.024   7.982
  280POPC   C4B 8890  25.494  23.236   7.611
  281POPC   NC3 8891  14.137  14.965   9.535
  281POPC   PO4 8892  14.824  15.090   9.479
  281POPC   GL1 8893  14.485  15.184   9.163
  281POPC   GL2 8894  14.423  15.542   9.047
  281POPC   C1A 8895  14.464  15.139   8.714
  281POPC   D2A 8896  14.418  14.888   8.345
  281POPC   C3A 8897  14.569  15.054   7.980
  281POPC   C4A 8898  14.704  15.356   7.695
  281POPC   C1B 8899  14.120  15.527   8.730
  281POPC   C2B 8900  14.116  15.316   8.332
  281POPC   C3B 8901  14.168  15.365   7.872
  281POPC   C4B 8902  13.995  15.647   7.565
  282POPC   NC3 8903  25.607  36.059   9.760
  282POPC   PO4 8904  26.131  35.905   9.646
  282POPC   GL1 8905  26.187  36.126   9.238
  282POPC   GL2 8906  25.907  36.352   9.162
  282POPC   C1A 8907  26.254  36.264   8.776
  282POPC   D2A 8908  26.111  36.504   8.380
  282POPC   C3A 8909  26.110  36.282   7.987
  282POPC   C4A 8910  26.377  35.977   7.790
  282POPC   C1B 8911  25.740  36.336   8.711
  282POPC   C2B 8912  25.634  36.340   8.248
  282POPC   C3B 8913  25.634  36.081   7.882
  282POPC   C4B 8914  25.798  36.118   7.476
  283POPC   NC3 8915  41.219   7.364   9.532
  283POPC   PO4 8916  41.651   7.823   9.566
  283POPC   GL1 8917  41.642   7.573   9.191
  283POPC   GL2 8918  41.905   7.313   9.195
  283POPC   C1A 8919  41.540   7.586   8.762
  283POPC   D2A 8920  41.340   7.332   8.454
  283POPC   C3A 8921  41.565   7.358   8.115
  283POPC   C4A 8922  41.592   7.517   7.720
  283POPC   C1B 8923  42.046   7.467   8.796
  283POPC   C2B 8924  41.929   7.623   8.402
  283POPC   C3B 8925  41.895   7.792   8.014
  283POPC   C4B 8926  42.076   7.685   7.645
  284POPC   NC3 8927  27.286  30.170   9.534
  284POPC   PO4 8928  27.430  29.510   9.685
  284POPC   GL1 8929  27.555  29.750   9.271
  284POPC   GL2 8930  27.199  29.717   9.220
  284POPC   C1A 8931  27.740  29.802   8.804
  284POPC   D2A 8932  27.808  30.101   8.435
  284POPC   C3A 8933  27.729  29.967   8.028
  284POPC   C4A 8934  27.341  30.097   7.849
  284POPC   C1B 8935  27.171  29.839   8.780
  284POPC   C2B 8936  27.399  29.757   8.377
  284POPC   C3B 8937  27.308  29.606   7.942
  284POPC   C4B 8938  27.286  29.676   7.445
  285POPC   NC3 8939  30.921  32.651   9.480
  285POPC   PO4 8940  30.622  31.982   9.540
  285POPC   GL1 8941  30.377  32.154   9.219
  285POPC   GL2 8942  30.542  32.443   9.182
  285POPC   C1A 8943  30.492  32.126   8.775
  285POPC   D2A 8944  30.719  32.101   8.396
  285POPC   C3A 8945  30.592  32.290   8.034
  285POPC   C4A 8946  30.468  32.198   7.659
  285POPC   C1B 8947  30.478  32.653   8.804
  285POPC   C2B 8948  30.726  32.619   8.429
  285POPC   C3B 8949  30.863  32.727   8.041
  285POPC   C4B 8950  30.712  32.640   7.652
  286POPC   NC3 8951   5.026  36.460   9.411
  286POPC   PO4 8952   5.215  37.026   9.631
  286POPC   GL1 8953   5.087  36.915   9.193
  286POPC   GL2 8954   4.826  36.760   9.063
  286POPC   C1A 8955   5.235  36.784   8.763
  286POPC   D2A 8956   5.173  37.006   8.382
  286POPC   C3A 8957   5.351  36.797   8.031
  286POPC   C4A 8958   5.196  36.916   7.648
  286POPC   C1B 8959   4.829  37.114   8.785
  286POPC   C2B 8960   4.652  37.065   8.400
  286POPC   C3B 8961   4.812  36.821   8.058
  286POPC   C4B 8962   4.701  36.957   7.677
  287POPC   NC3 8963   4.005   9.951   9.546
  287POPC   PO4 8964   4.687   9.810   9.477
  287POPC   GL1 8965   4.333   9.766   9.190
  287POPC   GL2 8966   4.235  10.139   9.140
  287POPC   C1A 8967   4.359   9.545   8.795
  287POPC   D2A 8968   4.597   9.655   8.416
  287POPC   C3A 8969   4.362   9.501   8.081
  287POPC   C4A 8970   4.155   9.550   7.709
  287POPC   C1B 8971   4.458  10.045   8.775
  287POPC   C2B 8972   4.260  10.034   8.411
  287POPC   C3B 8973   4.430   9.995   8.020
  287POPC   C4B 8974   4.290  10.033   7.607
  288POPC   NC3 8975   3.616   8.437   9.613
  288POPC   PO4 8976   3.878   7.946   9.202
  288POPC   GL1 8977   3.628   8.263   9.078
  288POPC   GL2 8978   3.334   8.134   9.128
  288POPC   C1A 8979   3.594   8.469   8.671
  288POPC   D2A 8980   3.757   8.464   8.247
  288POPC   C3A 8981   3.672   8.092   8.040
  288POPC   C4A 8982   3.830   7.827   7.758
  288POPC   C1B 8983   3.155   8.225   8.743
  288POPC   C2B 8984   3.259   8.229   8.331
  288POPC   C3B 8985   3.253   8.378   7.913
  288POPC   C4B 8986   3.367   8.059   7.614
  289POPC   NC3 8987  41.818  35.978   9.498
  289POPC   PO4 8988  42.443  35.833   9.508
  289POPC   GL1 8989  42.476  36.072   9.151
  289POPC   GL2 8990  42.138  36.133   9.132
  289POPC   C1A 8991  42.403  36.026   8.707
  289POPC   D2A 8992  42.247  35.886   8.340
  289POPC   C3A 8993  42.476  35.782   7.994
  289POPC   C4A 8994  42.296  35.996   7.655
  289POPC   C1B 8995  41.976  36.275   8.748
  289POPC   C2B 8996  42.074  36.384   8.345
  289POPC   C3B 8997  41.942  36.149   7.988
  289POPC   C4B 8998  41.659  36.267   7.660
  290POPC   NC3 8999  37.268  23.117   9.466
  290POPC   PO4 9000  37.885  22.962   9.548
  290POPC   GL1 9001  37.724  22.821   9.167
  290POPC   GL2 9002  38.069  22.646   9.139
  290POPC   C1A 9003  37.469  22.970   8.813
  290POPC   D2A 9004  37.307  23.090   8.412
  290POPC   C3A 9005  37.435  22.917   8.041
  290POPC   C4A 9006  37.566  23.157   7.748
  290POPC   C1B 9007  37.972  22.869   8.751
  290POPC   C2B 9008  37.769  22.796   8.389
  290POPC   C3B 9009  37.946  22.899   7.977
  290POPC   C4B 9010  38.127  22.739   7.616
  291POPC   NC3 9011  11.763  40.891   9.630
  291POPC   PO4 9012  11.286  40.330   9.556
  291POPC   GL1 9013  11.601  40.491   9.257
  291POPC   GL2 9014  11.515  40.831   9.206
  291POPC   C1A 9015  11.507  40.498   8.802
  291POPC   D2A 9016  11.225  40.648   8.472
  291POPC   C3A 9017  11.373  40.505   8.070
  291POPC   C4A 9018  11.170  40.710   7.727
  291POPC   C1B 9019  11.410  40.997   8.840
  291POPC   C2B 9020  11.599  40.999   8.457
  291POPC   C3B 9021  11.437  41.017   8.070
  291POPC   C4B 9022  11.556  41.049   7.661
  292POPC   NC3 9023  34.132  13.437   9.374
  292POPC   PO4 9024  33.522  13.176   9.528
  292POPC   GL1 9025  33.658  13.432   9.142
  292POPC   GL2 9026  33.780  13.773   9.147
  292POPC   C1A 9027  33.889  13.510   8.704
  292POPC   D2A 9028  33.859  13.292   8.277
  292POPC   C3A 9029  34.135  13.351   7.903
  292POPC   C4A 9030  34.004  13.347   7.446
  292POPC   C1B 9031  33.370  13.771   8.879
  292POPC   C2B 9032  33.320  13.909   8.469
  292POPC   C3B 9033  33.597  13.759   8.170
  292POPC   C4B 9034  33.801  13.700   7.771
  293POPC   NC3 9035  19.142   2.455   9.411
  293POPC   PO4 9036  18.808   1.906   9.654
  293POPC   GL1 9037  18.880   1.940   9.255
  293POPC   GL2 9038  18.725   2.222   9.207
  293POPC   C1A 9039  19.077   2.071   8.864
  293POPC   D2A 9040  19.241   1.957   8.482
  293POPC   C3A 9041  19.001   1.928   8.120
  293POPC   C4A 9042  19.181   1.724   7.808
  293POPC   C1B 9043  18.612   2.368   8.826
  293POPC   C2B 9044  18.754   2.256   8.449
  293POPC   C3B 9045  18.763   2.386   8.050
  293POPC   C4B 9046  18.962   2.234   7.687
  294POPC   NC3 9047  28.268  18.122   9.482
  294POPC   PO4 9048  28.221  18.877   9.453
  294POPC   GL1 9049  28.432  18.616   9.100
  294POPC   GL2 9050  28.453  18.243   9.027
  294POPC   C1A 9051  28.417  18.549   8.628
  294POPC   D2A 9052  28.220  18.340   8.266
  294POPC   C3A 9053  28.353  18.548   7.901
  294POPC   C4A 9054  28.267  18.844   7.540
  294POPC   C1B 9055  28.706  18.114   8.636
  294POPC   C2B 9056  28.725  18.134   8.171
  294POPC   C3B 9057  28.601  17.968   7.774
  294POPC   C4B 9058  28.333  17.819   7.436
  295POPC   NC3 9059  13.391  40.111   9.265
  295POPC   PO4 9060  13.987  40.017   9.611
  295POPC   GL1 9061  13.985  40.048   9.143
  295POPC   GL2 9062  13.792  40.297   8.963
  295POPC   C1A 9063  13.947  39.868   8.731
  295POPC   D2A 9064  13.687  39.664   8.452
  295POPC   C3A 9065  13.878  39.742   8.068
  295POPC   C4A 9066  13.617  39.807   7.715
  295POPC   C1B 9067  13.555  40.186   8.592
  295POPC   C2B 9068  13.604  40.167   8.148
  295POPC   C3B 9069  13.688  40.332   7.742
  295POPC   C4B 9070  13.368  40.253   7.453
  296POPC   NC3 9071  11.536  22.403   9.583
  296POPC   PO4 9072  11.527  21.758   9.628
  296POPC   GL1 9073  11.286  21.972   9.261
  296POPC   GL2 9074  11.208  22.324   9.216
  296POPC   C1A 9075  11.500  22.130   8.869
  296POPC   D2A 9076  11.642  22.026   8.488
  296POPC   C3A 9077  11.486  22.108   8.136
  296POPC   C4A 9078  11.388  21.849   7.854
  296POPC   C1B 9079  11.107  22.486   8.812
  296POPC   C2B 9080  10.991  22.595   8.403
  296POPC   C3B 9081  11.115  22.423   8.019
  296POPC   C4B 9082  11.200  22.334   7.594
  297POPC   NC3 9083   0.115  17.898   9.589
  297POPC   PO4 9084  44.704  17.277   9.614
  297POPC   GL1 9085  44.696  17.555   9.271
  297POPC   GL2 9086  44.359  17.542   9.165
  297POPC   C1A 9087  44.724  17.460   8.817
  297POPC   D2A 9088  44.792  17.687   8.438
  297POPC   C3A 9089  44.680  17.501   8.030
  297POPC   C4A 9090  44.912  17.267   7.738
  297POPC   C1B 9091  44.203  17.338   8.826
  297POPC   C2B 9092  44.361  17.342   8.404
  297POPC   C3B 9093  44.162  17.400   8.022
  297POPC   C4B 9094  44.338  17.465   7.648
  298POPC   NC3 9095  12.445  29.928   9.696
  298POPC   PO4 9096  13.029  29.953   9.730
  298POPC   GL1 9097  12.857  30.014   9.326
  298POPC   GL2 9098  12.912  29.687   9.216
  298POPC   C1A 9099  13.053  30.126   8.917
  298POPC   D2A 9100  12.970  29.927   8.506
  298POPC   C3A 9101  12.784  30.095   8.137
  298POPC   C4A 9102  12.928  29.974   7.725
  298POPC   C1B 9103  12.627  29.806   8.871
  298POPC   C2B 9104  12.496  29.738   8.415
  298POPC   C3B 9105  12.683  29.608   8.005
  298POPC   C4B 9106  13.089  29.470   7.845
  299POPC   NC3 9107  43.911  36.342   9.460
  299POPC   PO4 9108  44.048  35.677   9.452
  299POPC   GL1 9109  44.154  36.033   9.132
  299POPC   GL2 9110  44.156  36.435   9.034
  299POPC   C1A 9111  43.890  36.074   8.778
  299POPC   D2A 9112  43.803  35.743   8.528
  299POPC   C3A 9113  43.773  35.790   8.117
  299POPC   C4A 9114  43.808  36.115   7.831
  299POPC   C1B 9115  44.262  36.384   8.635
  299POPC   C2B 9116  44.102  36.204   8.260
  299POPC   C3B 9117  44.264  36.304   7.840
  299POPC   C4B 9118  43.996  36.430   7.424
  300POPC   NC3 9119  29.755  20.904   9.584
  300POPC   PO4 9120  30.161  21.605   9.511
  300POPC   GL1 9121  29.915  21.542   9.161
  300POPC   GL2 9122  29.909  21.238   9.079
  300POPC   C1A 9123  29.691  21.553   8.759
  300POPC   D2A 9124  29.655  21.347   8.405
  300POPC   C3A 9125  29.825  21.499   8.020
  300POPC   C4A 9126  29.702  21.788   7.721
  300POPC   C1B 9127  30.204  21.170   8.768
  300POPC   C2B 9128  30.302  21.383   8.425
  300POPC   C3B 9129  30.323  21.255   8.021
  300POPC   C4B 9130  30.123  21.017   7.701
  301POPC   NC3 9131  13.555  29.251   9.282
  301POPC   PO4 9132  14.010  29.030   9.697
  301POPC   GL1 9133  14.029  29.035   9.192
  301POPC   GL2 9134  14.056  29.375   9.073
  301POPC   C1A 9135  13.924  29.050   8.698
  301POPC   D2A 9136  13.792  28.762   8.354
  301POPC   C3A 9137  13.827  28.922   7.926
  301POPC   C4A 9138  13.553  28.932   7.551
  301POPC   C1B 9139  13.801  29.545   8.716
  301POPC   C2B 9140  13.620  29.314   8.349
  301POPC   C3B 9141  13.606  29.391   7.900
  301POPC   C4B 9142  13.894  29.593   7.625
  302POPC   NC3 9143  16.588  38.068   9.401
  302POPC   PO4 9144  17.014  38.579   9.568
  302POPC   GL1 9145  16.934  38.386   9.171
  302POPC   GL2 9146  16.577  38.485   9.100
  302POPC   C1A 9147  16.907  38.293   8.731
  302POPC   D2A 9148  16.709  38.435   8.381
  302POPC   C3A 9149  16.840  38.298   7.985
  302POPC   C4A 9150  17.053  38.653   7.868
  302POPC   C1B 9151  16.420  38.174   8.789
  302POPC   C2B 9152  16.242  38.241   8.392
  302POPC   C3B 9153  16.366  38.450   7.993
  302POPC   C4B 9154  16.587  38.509   7.563
  303POPC   NC3 9155   8.212  21.739   9.519
  303POPC   PO4 9156   8.366  22.325   9.438
  303POPC   GL1 9157   8.044  22.250   9.141
  303POPC   GL2 9158   8.227  21.968   9.075
  303POPC   C1A 9159   7.980  22.163   8.698
  303POPC   D2A 9160   8.117  21.967   8.344
  303POPC   C3A 9161   8.130  22.142   7.946
  303POPC   C4A 9162   7.802  22.370   7.781
  303POPC   C1B 9163   8.465  21.820   8.747
  303POPC   C2B 9164   8.580  21.806   8.344
  303POPC   C3B 9165   8.656  21.912   7.910
  303POPC   C4B 9166   8.485  22.112   7.538
  304POPC   NC3 9167  15.146  31.107   9.487
  304POPC   PO4 9168  15.413  31.689   9.353
  304POPC   GL1 9169  15.144  31.441   9.114
  304POPC   GL2 9170  15.445  31.210   9.071
  304POPC   C1A 9171  15.029  31.250   8.741
  304POPC   D2A 9172  15.221  31.308   8.350
  304POPC   C3A 9173  14.963  31.204   8.003
  304POPC   C4A 9174  15.049  31.504   7.704
  304POPC   C1B 9175  15.668  31.175   8.660
  304POPC   C2B 9176  15.615  31.006   8.264
  304POPC   C3B 9177  15.466  31.190   7.858
  304POPC   C4B 9178  15.496  31.051   7.405
  305POPC   NC3 9179  10.982  42.276   9.580
  305POPC   PO4 9180  11.334  41.810   9.447
  305POPC   GL1 9181  11.303  42.185   9.179
  305POPC   GL2 9182  10.997  42.053   9.123
  305POPC   C1A 9183  11.243  42.219   8.722
  305POPC   D2A 9184  11.274  41.908   8.444
  305POPC   C3A 9185  11.194  41.999   8.031
  305POPC   C4A 9186  11.250  42.206   7.667
  305POPC   C1B 9187  10.896  42.495   8.942
  305POPC   C2B 9188  10.765  42.575   8.521
  305POPC   C3B 9189  10.893  42.456   8.095
  305POPC   C4B 9190  10.918  42.596   7.660
  306POPC   NC3 9191  42.935  41.114   9.575
  306POPC   PO4 9192  43.095  40.485   9.428
  306POPC   GL1 9193  43.068  40.829   9.165
  306POPC   GL2 9194  43.344  41.071   9.195
  306POPC   C1A 9195  43.043  40.812   8.752
  306POPC   D2A 9196  42.887  41.066   8.440
  306POPC   C3A 9197  42.990  40.835   8.101
  306POPC   C4A 9198  42.788  40.921   7.737
  306POPC   C1B 9199  43.291  41.243   8.765
  306POPC   C2B 9200  43.396  41.173   8.314
  306POPC   C3B 9201  43.301  41.141   7.838
  306POPC   C4B 9202  43.422  41.187   7.401
  307POPC   NC3 9203  26.481   4.964   9.432
  307POPC   PO4 9204  26.121   5.296   9.750
  307POPC   GL1 9205  26.126   5.284   9.273
  307POPC   GL2 9206  26.418   5.455   9.109
  307POPC   C1A 9207  26.185   5.065   8.843
  307POPC   D2A 9208  26.035   5.168   8.415
  307POPC   C3A 9209  25.989   5.037   7.965
  307POPC   C4A 9210  25.638   4.982   7.623
  307POPC   C1B 9211  26.431   5.451   8.619
  307POPC   C2B 9212  26.535   5.199   8.251
  307POPC   C3B 9213  26.439   5.309   7.827
  307POPC   C4B 9214  26.221   5.702   7.640
  308POPC   NC3 9215   8.991  43.712   9.652
  308POPC   PO4 9216   8.566  44.103   9.328
  308POPC   GL1 9217   8.798  43.889   9.036
  308POPC   GL2 9218   9.068  43.657   9.125
  308POPC   C1A 9219   8.894  44.079   8.619
  308POPC   D2A 9220   8.625  44.244   8.303
  308POPC   C3A 9221   8.550  44.035   7.909
  308POPC   C4A 9222   8.782  43.915   7.552
  308POPC   C1B 9223   8.974  43.584   8.678
  308POPC   C2B 9224   9.143  43.755   8.283
  308POPC   C3B 9225   9.049  43.617   7.873
  308POPC   C4B 9226   9.204  43.651   7.455
  309POPC   NC3 9227  22.657  23.508   9.560
  309POPC   PO4 9228  23.240  23.891   9.422
  309POPC   GL1 9229  23.104  23.866   9.034
  309POPC   GL2 9230  22.768  23.694   9.079
  309POPC   C1A 9231  23.195  23.782   8.612
  309POPC   D2A 9232  23.112  23.504   8.286
  309POPC   C3A 9233  23.235  23.533   7.865
  309POPC   C4A 9234  22.883  23.509   7.618
  309POPC   C1B 9235  22.736  24.015   8.744
  309POPC   C2B 9236  22.898  24.097   8.351
  309POPC   C3B 9237  22.873  23.912   7.954
  309POPC   C4B 9238  23.124  23.958   7.590
  310POPC   NC3 9239  30.831  18.735   9.489
  310POPC   PO4 9240  30.582  18.160   9.768
  310POPC   GL1 9241  30.754  18.260   9.311
  310POPC   GL2 9242  30.771  17.998   9.105
  310POPC   C1A 9243  30.908  18.454   8.891
  310POPC   D2A 9244  30.816  18.629   8.464
  310POPC   C3A 9245  30.647  18.441   8.069
  310POPC   C4A 9246  30.780  18.483   7.629
  310POPC   C1B 9247  30.726  18.052   8.650
  310POPC   C2B 9248  30.355  18.195   8.434
  310POPC   C3B 9249  30.218  18.094   8.014
  310POPC   C4B 9250  30.594  18.018   7.782
  311POPC   NC3 9251  21.977  25.657   9.507
  311POPC   PO4 9252  22.102  25.002   9.522
  311POPC   GL1 9253  22.226  25.274   9.170
  311POPC   GL2 9254  21.943  25.388   9.076
  311POPC   C1A 9255  22.374  25.419   8.749
  311POPC   D2A 9256  22.122  25.443   8.376
  311POPC   C3A 9257  22.346  25.306   8.021
  311POPC   C4A 9258  22.275  25.137   7.615
  311POPC   C1B 9259  22.011  25.081   8.750
  311POPC   C2B 9260  21.848  24.975   8.394
  311POPC   C3B 9261  21.975  24.952   8.007
  311POPC   C4B 9262  21.846  24.809   7.632
  312POPC   NC3 9263  25.586  42.112   9.541
  312POPC   PO4 9264  26.190  42.473   9.652
  312POPC   GL1 9265  26.007  42.236   9.236
  312POPC   GL2 9266  25.810  42.464   9.125
  312POPC   C1A 9267  25.902  42.119   8.751
  312POPC   D2A 9268  25.918  42.278   8.331
  312POPC   C3A 9269  26.256  42.105   8.083
  312POPC   C4A 9270  26.247  42.132   7.646
  312POPC   C1B 9271  25.908  42.634   8.714
  312POPC   C2B 9272  25.968  42.878   8.376
  312POPC   C3B 9273  26.109  42.810   7.982
  312POPC   C4B 9274  25.895  42.484   7.757
  313POPC   NC3 9275  32.626  36.351   9.281
  313POPC   PO4 9276  31.966  36.194   9.316
  313POPC   GL1 9277  32.244  36.310   8.954
  313POPC   GL2 9278  32.458  36.024   8.892
  313POPC   C1A 9279  32.492  36.461   8.593
  313POPC   D2A 9280  32.625  36.272   8.194
  313POPC   C3A 9281  32.221  36.222   7.996
  313POPC   C4A 9282  32.032  36.446   7.644
  313POPC   C1B 9283  32.177  36.031   8.526
  313POPC   C2B 9284  32.054  35.690   8.230
  313POPC   C3B 9285  31.970  35.728   7.789
  313POPC   C4B 9286  32.224  35.993   7.530
  314POPC   NC3 9287  31.572  42.187   9.551
  314POPC   PO4 9288  31.344  42.810   9.455
  314POPC   GL1 9289  31.498  42.492   9.120
  314POPC   GL2 9290  31.657  42.136   9.058
  314POPC   C1A 9291  31.380  42.343   8.701
  314POPC   D2A 9292  31.596  42.349   8.317
  314POPC   C3A 9293  31.303  42.493   8.047
  314POPC   C4A 9294  31.391  42.571   7.659
  314POPC   C1B 9295  31.760  41.951   8.657
  314POPC   C2B 9296  31.693  41.848   8.214
  314POPC   C3B 9297  31.568  42.075   7.864
  314POPC   C4B 9298  31.643  42.023   7.430
  315POPC   NC3 9299  41.525  21.787   9.475
  315POPC   PO4 9300  41.651  21.273   9.758
  315POPC   GL1 9301  41.623  21.268   9.290
  315POPC   GL2 9302  41.354  21.029   9.242
  315POPC   C1A 9303  41.499  21.455   8.874
  315POPC   D2A 9304  41.614  21.305   8.464
  315POPC   C3A 9305  41.524  21.455   8.071
  315POPC   C4A 9306  41.227  21.606   7.761
  315POPC   C1B 9307  41.428  20.954   8.820
  315POPC   C2B 9308  41.210  21.016   8.439
  315POPC   C3B 9309  41.323  21.000   8.017
  315POPC   C4B 9310  41.304  21.117   7.585
  316POPC   NC3 9311  32.527  15.633   9.227
  316POPC   PO4 9312  32.613  16.213   9.566
  316POPC   GL1 9313  32.466  16.152   9.143
  316POPC   GL2 9314  32.131  16.030   9.111
  316POPC   C1A 9315  32.585  16.014   8.705
  316POPC   D2A 9316  32.671  15.712   8.347
  316POPC   C3A 9317  32.582  15.886   7.924
  316POPC   C4A 9318  32.328  15.909   7.547
  316POPC   C1B 9319  31.887  16.167   8.728
  316POPC   C2B 9320  31.853  15.972   8.354
  316POPC   C3B 9321  32.027  15.914   7.953
  316POPC   C4B 9322  31.842  16.043   7.564
  317POPC   NC3 9323   1.772   0.230   9.428
  317POPC   PO4 9324   2.273   0.459   9.795
  317POPC   GL1 9325   2.213   0.472   9.279
  317POPC   GL2 9326   2.318   0.255   8.995
  317POPC   C1A 9327   1.943   0.572   8.867
  317POPC   D2A 9328   2.003   0.468   8.414
  317POPC   C3A 9329   1.672   0.575   8.097
  317POPC   C4A 9330   1.787   0.768   7.695
  317POPC   C1B 9331   1.906   0.088   8.779
  317POPC   C2B 9332   1.726  44.947   8.428
  317POPC   C3B 9333   1.845   0.098   8.080
  317POPC   C4B 9334   2.079   0.365   7.851
  318POPC   NC3 9335  28.183  33.968   9.431
  318POPC   PO4 9336  28.793  33.667   9.407
  318POPC   GL1 9337  28.525  33.735   9.085
  318POPC   GL2 9338  28.152  33.681   9.011
  318POPC   C1A 9339  28.518  33.561   8.695
  318POPC   D2A 9340  28.466  33.720   8.299
  318POPC   C3A 9341  28.596  33.532   7.934
  318POPC   C4A 9342  28.540  33.635   7.499
  318POPC   C1B 9343  28.315  34.025   8.719
  318POPC   C2B 9344  28.248  34.188   8.310
  318POPC   C3B 9345  28.194  34.150   7.856
  318POPC   C4B 9346  28.229  34.060   7.419
  319POPC   NC3 9347  15.456   7.396   9.605
  319POPC   PO4 9348  14.927   7.330   9.321
  319POPC   GL1 9349  15.350   7.378   9.084
  319POPC   GL2 9350  15.575   7.106   9.196
  319POPC   C1A 9351  15.422   7.586   8.638
  319POPC   D2A 9352  15.305   7.583   8.147
  319POPC   C3A 9353  15.489   7.789   7.765
  319POPC   C4A 9354  15.522   7.634   7.335
  319POPC   C1B 9355  15.552   7.012   8.765
  319POPC   C2B 9356  15.529   7.175   8.355
  319POPC   C3B 9357  15.287   7.019   8.015
  319POPC   C4B 9358  15.356   6.926   7.585
  320POPC   NC3 9359  32.434   0.828   9.585
  320POPC   PO4 9360  32.189   1.399   9.769
  320POPC   GL1 9361  32.087   1.366   9.316
  320POPC   GL2 9362  32.228   1.086   9.174
  320POPC   C1A 9363  32.110   1.515   8.874
  320POPC   D2A 9364  32.267   1.250   8.540
  320POPC   C3A 9365  32.158   1.325   8.113
  320POPC   C4A 9366  32.113   1.500   7.698
  320POPC   C1B 9367  32.365   0.815   8.864
  320POPC   C2B 9368  32.189   0.713   8.466
  320POPC   C3B 9369  32.333   0.768   8.047
  320POPC   C4B 9370  32.162   0.975   7.712
  321POPC   NC3 9371  14.683  10.843   9.650
  321POPC   PO4 9372  15.363  10.650   9.632
  321POPC   GL1 9373  15.480  10.662   9.203
  321POPC   GL2 9374  15.211  10.432   9.103
  321POPC   C1A 9375  15.364  10.798   8.790
  321POPC   D2A 9376  15.057  10.720   8.465
  321POPC   C3A 9377  15.094  10.676   8.012
  321POPC   C4A 9378  15.179  10.744   7.579
  321POPC   C1B 9379  15.142  10.237   8.681
  321POPC   C2B 9380  15.253  10.252   8.245
  321POPC   C3B 9381  15.210  10.189   7.808
  321POPC   C4B 9382  14.896  10.318   7.493
  322POPC   NC3 9383  44.601  22.383   9.241
  322POPC   PO4 9384  44.507  21.827   9.619
  322POPC   GL1 9385  44.566  21.886   9.189
  322POPC   GL2 9386  44.211  21.961   9.166
  322POPC   C1A 9387  44.787  21.892   8.790
  322POPC   D2A 9388  44.906  21.734   8.388
  322POPC   C3A 9389  44.851  22.029   8.029
  322POPC   C4A 9390  44.773  22.269   7.641
  322POPC   C1B 9391  44.316  22.092   8.742
  322POPC   C2B 9392  44.430  21.928   8.338
  322POPC   C3B 9393  44.339  22.000   7.902
  322POPC   C4B 9394  44.243  22.399   7.719
  323POPC   NC3 9395  37.048  40.496   9.347
  323POPC   PO4 9396  36.907  41.102   9.604
  323POPC   GL1 9397  37.030  40.992   9.185
  323POPC   GL2 9398  36.814  40.811   9.026
  323POPC   C1A 9399  37.179  41.051   8.767
  323POPC   D2A 9400  37.107  40.834   8.388
  323POPC   C3A 9401  37.127  41.026   8.027
  323POPC   C4A 9402  37.210  40.873   7.660
  323POPC   C1B 9403  36.798  40.555   8.691
  323POPC   C2B 9404  36.594  40.545   8.344
  323POPC   C3B 9405  36.851  40.469   8.028
  323POPC   C4B 9406  36.778  40.607   7.640
  324POPC   NC3 9407  14.530   9.698  10.073
  324POPC   PO4 9408  14.156   9.887   9.654
  324POPC   GL1 9409  14.347   9.906   9.183
  324POPC   GL2 9410  14.526   9.606   8.999
  324POPC   C1A 9411  14.452  10.009   8.713
  324POPC   D2A 9412  14.525   9.804   8.292
  324POPC   C3A 9413  14.273   9.942   7.913
  324POPC   C4A 9414  14.002  10.188   7.586
  324POPC   C1B 9415  14.892   9.728   8.682
  324POPC   C2B 9416  15.043   9.794   8.235
  324POPC   C3B 9417  14.799   9.871   7.843
  324POPC   C4B 9418  14.622   9.536   7.558
  325POPC   NC3 9419  43.767  39.652   9.418
  325POPC   PO4 9420  43.814  38.958   9.591
  325POPC   GL1 9421  44.061  39.228   9.303
  325POPC   GL2 9422  44.202  38.984   9.125
  325POPC   C1A 9423  44.078  39.414   8.875
  325POPC   D2A 9424  44.135  39.346   8.439
  325POPC   C3A 9425  43.829  39.402   8.125
  325POPC   C4A 9426  44.129  39.443   7.770
  325POPC   C1B 9427  43.866  38.945   8.834
  325POPC   C2B 9428  43.788  38.952   8.391
  325POPC   C3B 9429  43.998  38.951   8.006
  325POPC   C4B 9430  43.737  39.075   7.711
  326POPC   NC3 9431  33.235  20.910   9.420
  326POPC   PO4 9432  32.778  21.346   9.504
  326POPC   GL1 9433  32.963  21.426   9.113
  326POPC   GL2 9434  32.805  21.097   9.043
  326POPC   C1A 9435  32.953  21.524   8.666
  326POPC   D2A 9436  33.203  21.700   8.308
  326POPC   C3A 9437  32.983  21.613   7.927
  326POPC   C4A 9438  32.830  21.304   7.661
  326POPC   C1B 9439  33.189  21.082   8.801
  326POPC   C2B 9440  33.229  21.184   8.381
  326POPC   C3B 9441  33.253  21.204   7.974
  326POPC   C4B 9442  33.262  20.998   7.606
  327POPC   NC3 9443  29.284   4.740   9.549
  327POPC   PO4 9444  29.327   5.406   9.464
  327POPC   GL1 9445  29.223   5.114   9.182
  327POPC   GL2 9446  28.879   5.134   9.287
  327POPC   C1A 9447  29.395   5.116   8.775
  327POPC   D2A 9448  29.485   5.341   8.385
  327POPC   C3A 9449  29.412   5.096   8.013
  327POPC   C4A 9450  29.288   5.050   7.591
  327POPC   C1B 9451  28.831   5.228   8.829
  327POPC   C2B 9452  29.018   5.089   8.424
  327POPC   C3B 9453  28.896   5.050   7.994
  327POPC   C4B 9454  28.685   4.760   7.790
  328POPC   NC3 9455   9.547  41.630   9.564
  328POPC   PO4 9456   9.763  41.017   9.442
  328POPC   GL1 9457   9.948  41.360   9.208
  328POPC   GL2 9458  10.053  41.722   9.270
  328POPC   C1A 9459   9.731  41.582   8.893
  328POPC   D2A 9460   9.761  41.532   8.475
  328POPC   C3A 9461   9.415  41.548   8.190
  328POPC   C4A 9462   9.559  41.373   7.820
  328POPC   C1B 9463  10.208  41.781   8.823
  328POPC   C2B 9464  10.120  41.926   8.398
  328POPC   C3B 9465   9.881  41.743   8.028
  328POPC   C4B 9466  10.037  41.619   7.608
  329POPC   NC3 9467   4.464  13.270   9.610
  329POPC   PO4 9468   4.164  13.888   9.521
  329POPC   GL1 9469   4.281  13.731   9.104
  329POPC   GL2 9470   4.521  13.446   9.096
  329POPC   C1A 9471   4.398  13.941   8.706
  329POPC   D2A 9472   4.338  14.053   8.281
  329POPC   C3A 9473   4.359  13.790   7.951
  329POPC   C4A 9474   4.378  13.910   7.568
  329POPC   C1B 9475   4.316  13.433   8.692
  329POPC   C2B 9476   4.460  13.386   8.277
  329POPC   C3B 9477   4.286  13.290   7.913
  329POPC   C4B 9478   3.941  13.518   7.724
  330POPC   NC3 9479  34.080   7.586   9.450
  330POPC   PO4 9480  34.750   7.723   9.443
  330POPC   GL1 9481  34.473   7.571   9.117
  330POPC   GL2 9482  34.430   7.204   9.175
  330POPC   C1A 9483  34.593   7.522   8.708
  330POPC   D2A 9484  34.888   7.287   8.438
  330POPC   C3A 9485  34.680   7.088   8.114
  330POPC   C4A 9486  34.486   7.260   7.730
  330POPC   C1B 9487  34.209   7.114   8.803
  330POPC   C2B 9488  34.321   7.214   8.429
  330POPC   C3B 9489  34.254   7.435   8.134
  330POPC   C4B 9490  34.483   7.724   7.927
  331POPC   NC3 9491  24.724  30.379   9.569
  331POPC   PO4 9492  24.577  30.971   9.450
  331POPC   GL1 9493  24.591  30.773   9.079
  331POPC   GL2 9494  24.758  30.428   9.073
  331POPC   C1A 9495  24.335  30.907   8.754
  331POPC   D2A 9496  24.351  30.721   8.390
  331POPC   C3A 9497  24.364  30.964   8.102
  331POPC   C4A 9498  24.566  30.909   7.781
  331POPC   C1B 9499  24.486  30.347   8.716
  331POPC   C2B 9500  24.505  30.247   8.255
  331POPC   C3B 9501  24.657  30.394   7.853
  331POPC   C4B 9502  24.866  30.617   7.506
  332POPC   NC3 9503  42.990  31.163   9.430
  332POPC   PO4 9504  42.772  31.836   9.584
  332POPC   GL1 9505  42.929  31.742   9.174
  332POPC   GL2 9506  43.264  31.672   9.243
  332POPC   C1A 9507  43.001  31.461   8.809
  332POPC   D2A 9508  42.967  31.545   8.387
  332POPC   C3A 9509  42.944  31.300   8.005
  332POPC   C4A 9510  42.972  31.511   7.626
  332POPC   C1B 9511  43.336  31.922   8.847
  332POPC   C2B 9512  43.314  31.954   8.391
  332POPC   C3B 9513  43.321  31.688   8.021
  332POPC   C4B 9514  43.409  31.311   7.783
  333POPC   NC3 9515   1.294   7.764   9.318
  333POPC   PO4 9516   1.670   7.238   9.353
  333POPC   GL1 9517   1.313   7.287   9.068
  333POPC   GL2 9518   0.960   7.329   9.197
  333POPC   C1A 9519   1.348   7.383   8.637
  333POPC   D2A 9520   1.355   7.691   8.312
  333POPC   C3A 9521   1.543   7.457   7.990
  333POPC   C4A 9522   1.318   7.083   7.793
  333POPC   C1B 9523   0.908   7.561   8.797
  333POPC   C2B 9524   0.833   7.594   8.371
  333POPC   C3B 9525   1.018   7.470   7.979
  333POPC   C4B 9526   0.848   7.290   7.621
  334POPC   NC3 9527  29.545  11.717   9.289
  334POPC   PO4 9528  30.173  11.831   9.518
  334POPC   GL1 9529  29.953  11.988   9.126
  334POPC   GL2 9530  29.666  12.194   9.116
  334POPC   C1A 9531  29.796  11.856   8.709
  334POPC   D2A 9532  29.959  11.604   8.421
  334POPC   C3A 9533  29.867  11.731   8.021
  334POPC   C4A 9534  30.079  11.730   7.639
  334POPC   C1B 9535  29.824  12.360   8.761
  334POPC   C2B 9536  29.714  12.281   8.370
  334POPC   C3B 9537  29.907  12.246   8.014
  334POPC   C4B 9538  29.829  12.164   7.657
  335POPC   NC3 9539  21.500  14.428   9.351
  335POPC   PO4 9540  21.162  13.950   9.534
  335POPC   GL1 9541  21.071  14.202   9.163
  335POPC   GL2 9542  20.932  14.547   9.214
  335POPC   C1A 9543  21.244  14.172   8.725
  335POPC   D2A 9544  21.025  14.085   8.337
  335POPC   C3A 9545  21.279  14.141   7.944
  335POPC   C4A 9546  21.655  14.370   7.813
  335POPC   C1B 9547  21.131  14.675   8.822
  335POPC   C2B 9548  21.195  14.811   8.407
  335POPC   C3B 9549  21.005  14.840   8.018
  335POPC   C4B 9550  21.239  14.654   7.745
  336POPC   NC3 9551  31.802  14.232   9.473
  336POPC   PO4 9552  32.522  14.315   9.556
  336POPC   GL1 9553  32.216  14.432   9.207
  336POPC   GL2 9554  31.998  14.180   9.032
  336POPC   C1A 9555  32.233  14.523   8.749
  336POPC   D2A 9556  32.073  14.414   8.341
  336POPC   C3A 9557  32.205  14.617   7.971
  336POPC   C4A 9558  32.049  14.618   7.556
  336POPC   C1B 9559  32.138  14.018   8.673
  336POPC   C2B 9560  32.509  14.169   8.485
  336POPC   C3B 9561  32.528  14.199   8.064
  336POPC   C4B 9562  32.153  14.113   7.796
  337POPC   NC3 9563  16.989   5.641   9.382
  337POPC   PO4 9564  16.572   5.973   9.738
  337POPC   GL1 9565  16.581   5.977   9.270
  337POPC   GL2 9566  16.905   6.026   9.045
  337POPC   C1A 9567  16.470   5.883   8.856
  337POPC   D2A 9568  16.685   6.026   8.508
  337POPC   C3A 9569  16.730   5.761   8.163
  337POPC   C4A 9570  16.533   5.871   7.789
  337POPC   C1B 9571  16.916   5.634   8.735
  337POPC   C2B 9572  17.191   5.599   8.395
  337POPC   C3B 9573  17.218   5.827   8.037
  337POPC   C4B 9574  17.002   5.732   7.700
  338POPC   NC3 9575   8.063  22.689   9.425
  338POPC   PO4 9576   8.719  22.948   9.557
  338POPC   GL1 9577   8.470  22.934   9.178
  338POPC   GL2 9578   8.470  22.627   9.044
  338POPC   C1A 9579   8.296  23.108   8.769
  338POPC   D2A 9580   8.085  23.006   8.333
  338POPC   C3A 9581   8.149  23.161   7.891
  338POPC   C4A 9582   7.997  23.327   7.458
  338POPC   C1B 9583   8.117  22.635   8.756
  338POPC   C2B 9584   8.049  22.496   8.323
  338POPC   C3B 9585   8.194  22.645   7.951
  338POPC   C4B 9586   8.433  22.686   7.585
  339POPC   NC3 9587   3.511  10.311   9.551
  339POPC   PO4 9588   3.712   9.586   9.495
  339POPC   GL1 9589   3.466   9.856   9.255
  339POPC   GL2 9590   3.707  10.073   9.153
  339POPC   C1A 9591   3.384   9.821   8.823
  339POPC   D2A 9592   3.484   9.550   8.475
  339POPC   C3A 9593   3.428   9.730   8.063
  339POPC   C4A 9594   3.426   9.515   7.639
  339POPC   C1B 9595   3.897   9.950   8.796
  339POPC   C2B 9596   3.731  10.016   8.404
  339POPC   C3B 9597   3.920   9.938   8.040
  339POPC   C4B 9598   3.794   9.946   7.673
  340POPC   NC3 9599  39.501  30.181   9.558
  340POPC   PO4 9600  40.212  30.106   9.516
  340POPC   GL1 9601  39.949  29.887   9.260
  340POPC   GL2 9602  40.134  29.576   9.200
  340POPC   C1A 9603  39.852  29.915   8.840
  340POPC   D2A 9604  40.005  30.002   8.435
  340POPC   C3A 9605  39.688  30.054   8.124
  340POPC   C4A 9606  39.816  30.098   7.717
  340POPC   C1B 9607  40.291  29.648   8.791
  340POPC   C2B 9608  40.446  29.731   8.371
  340POPC   C3B 9609  40.233  29.756   7.946
  340POPC   C4B 9610  40.227  29.861   7.490
  341POPC   NC3 9611  28.240  32.427   9.493
  341POPC   PO4 9612  28.515  31.787   9.479
  341POPC   GL1 9613  28.416  32.039   9.099
  341POPC   GL2 9614  28.553  32.364   9.091
  341POPC   C1A 9615  28.136  32.273   8.778
  341POPC   D2A 9616  28.191  32.588   8.437
  341POPC   C3A 9617  28.379  32.358   8.114
  341POPC   C4A 9618  28.223  32.147   7.764
  341POPC   C1B 9619  28.630  32.367   8.645
  341POPC   C2B 9620  28.753  32.674   8.320
  341POPC   C3B 9621  28.737  32.604   7.864
  341POPC   C4B 9622  28.675  32.244   7.569
  342POPC   NC3 9623  43.307  27.669   9.853
  342POPC   PO4 9624  42.828  28.116   9.727
  342POPC   GL1 9625  43.065  27.830   9.418
  342POPC   GL2 9626  43.252  28.003   9.199
  342POPC   C1A 9627  43.125  27.580   8.969
  342POPC   D2A 9628  42.945  27.708   8.531
  342POPC   C3A 9629  43.011  27.591   8.076
  342POPC   C4A 9630  43.374  27.505   7.791
  342POPC   C1B 9631  43.276  28.037   8.740
  342POPC   C2B 9632  43.398  27.832   8.319
  342POPC   C3B 9633  43.278  27.990   7.910
  342POPC   C4B 9634  42.906  27.982   7.652
  343POPC   NC3 9635   0.309  41.875   9.346
  343POPC   PO4 9636   0.805  42.304   9.616
  343POPC   GL1 9637   0.498  42.358   9.224
  343POPC   GL2 9638   0.337  42.697   9.165
  343POPC   C1A 9639   0.302  42.356   8.782
  343POPC   D2A 9640   0.425  42.201   8.358
  343POPC   C3A 9641   0.296  42.332   7.933
  343POPC   C4A 9642   0.450  42.445   7.535
  343POPC   C1B 9643   0.636  42.748   8.794
  343POPC   C2B 9644   0.610  42.761   8.342
  343POPC   C3B 9645   0.584  42.777   7.888
  343POPC   C4B 9646   0.739  42.897   7.454
  344POPC   NC3 9647  28.507  41.838   9.551
  344POPC   PO4 9648  27.879  41.756   9.369
  344POPC   GL1 9649  28.153  41.579   9.078
  344POPC   GL2 9650  28.488  41.485   9.192
  344POPC   C1A 9651  28.161  41.599   8.627
  344POPC   D2A 9652  28.197  41.323   8.285
  344POPC   C3A 9653  28.282  41.595   7.954
  344POPC   C4A 9654  28.252  41.582   7.525
  344POPC   C1B 9655  28.641  41.465   8.776
  344POPC   C2B 9656  28.660  41.627   8.373
  344POPC   C3B 9657  28.729  41.855   8.003
  344POPC   C4B 9658  28.716  41.612   7.678
  345POPC   NC3 9659  37.105   5.936   9.452
  345POPC   PO4 9660  36.447   5.917   9.445
  345POPC   GL1 9661  36.678   5.936   9.095
  345POPC   GL2 9662  36.576   5.601   9.004
  345POPC   C1A 9663  36.999   5.880   8.792
  345POPC   D2A 9664  36.938   5.992   8.392
  345POPC   C3A 9665  37.077   5.968   7.955
  345POPC   C4A 9666  36.965   6.154   7.559
  345POPC   C1B 9667  36.518   5.755   8.602
  345POPC   C2B 9668  36.660   5.645   8.183
  345POPC   C3B 9669  36.825   5.569   7.776
  345POPC   C4B 9670  37.089   5.343   7.496
  346POPC   NC3 9671  35.510   9.436   9.618
  346POPC   PO4 9672  35.214  10.036   9.432
  346POPC   GL1 9673  35.592   9.881   9.240
  346POPC   GL2 9674  35.450   9.572   9.118
  346POPC   C1A 9675  35.753   9.850   8.808
  346POPC   D2A 9676  35.575  10.034   8.432
  346POPC   C3A 9677  35.550   9.829   8.045
  346POPC   C4A 9678  35.381   9.958   7.639
  346POPC   C1B 9679  35.335   9.554   8.676
  346POPC   C2B 9680  35.100   9.689   8.302
  346POPC   C3B 9681  35.140   9.522   7.870
  346POPC   C4B 9682  35.096   9.589   7.418
  347POPC   NC3 9683  14.170  39.615   9.403
  347POPC   PO4 9684  14.593  39.174   9.659
  347POPC   GL1 9685  14.427  39.149   9.206
  347POPC   GL2 9686  14.051  39.153   9.183
  347POPC   C1A 9687  14.557  39.313   8.764
  347POPC   D2A 9688  14.729  39.512   8.368
  347POPC   C3A 9689  14.639  39.347   7.936
  347POPC   C4A 9690  14.605  39.409   7.459
  347POPC   C1B 9691  14.019  39.330   8.770
  347POPC   C2B 9692  14.179  39.469   8.410
  347POPC   C3B 9693  14.139  39.287   8.021
  347POPC   C4B 9694  14.168  39.542   7.696
  348POPC   NC3 9695   3.689  13.053   9.479
  348POPC   PO4 9696   3.649  12.412   9.387
  348POPC   GL1 9697   3.624  12.784   9.056
  348POPC   GL2 9698   3.365  13.056   9.087
  348POPC   C1A 9699   3.752  13.123   8.750
  348POPC   D2A 9700   3.631  12.979   8.339
  348POPC   C3A 9701   3.666  13.165   7.952
  348POPC   C4A 9702   3.544  12.958   7.550
  348POPC   C1B 9703   3.235  13.028   8.661
  348POPC   C2B 9704   3.211  13.276   8.268
  348POPC   C3B 9705   3.161  13.183   7.842
  348POPC   C4B 9706   3.033  12.791   7.657
  349POPC   NC3 9707  17.385  28.482   9.454
  349POPC   PO4 9708  17.806  28.036   9.379
  349POPC   GL1 9709  17.657  28.340   9.039
  349POPC   GL2 9710  17.726  28.685   9.120
  349POPC   C1A 9711  17.481  28.258   8.620
  349POPC   D2A 9712  17.631  27.947   8.311
  349POPC   C3A 9713  17.435  28.076   7.956
  349POPC   C4A 9714  17.337  28.461   7.784
  349POPC   C1B 9715  17.871  28.884   8.746
  349POPC   C2B 9716  17.698  29.005   8.349
  349POPC   C3B 9717  17.648  28.803   7.957
  349POPC   C4B 9718  17.732  28.640   7.529
  350POPC   NC3 9719  21.495  44.307   9.334
  350POPC   PO4 9720  21.024  44.812   9.458
  350POPC   GL1 9721  21.036  44.640   9.096
  350POPC   GL2 9722  21.370  44.700   9.046
  350POPC   C1A 9723  21.044  44.673   8.646
  350POPC   D2A 9724  21.266  44.551   8.275
  350POPC   C3A 9725  21.075  44.405   7.919
  350POPC   C4A 9726  21.146  44.457   7.433
  350POPC   C1B 9727  21.611  44.676   8.666
  350POPC   C2B 9728  21.743  44.753   8.235
  350POPC   C3B 9729  21.830  44.845   7.781
  350POPC   C4B 9730  21.643   0.153   7.500
  351POPC   NC3 9731  30.253  40.293   9.587
  351POPC   PO4 9732  29.616  39.943   9.482
  351POPC   GL1 9733  29.867  39.862   9.133
  351POPC   GL2 9734  29.988  40.185   9.169
  351POPC   C1A 9735  29.753  39.872   8.679
  351POPC   D2A 9736  29.515  39.887   8.287
  351POPC   C3A 9737  29.762  39.970   7.914
  351POPC   C4A 9738  30.004  39.844   7.554
  351POPC   C1B 9739  30.195  40.123   8.787
  351POPC   C2B 9740  30.075  40.127   8.333
  351POPC   C3B 9741  30.284  40.072   7.932
  351POPC   C4B 9742  30.313  40.247   7.494
  352POPC   NC3 9743  17.604  14.416   9.438
  352POPC   PO4 9744  17.104  14.794   9.181
  352POPC   GL1 9745  17.396  14.552   8.984
  352POPC   GL2 9746  17.351  14.178   9.017
  352POPC   C1A 9747  17.727  14.386   8.733
  352POPC   D2A 9748  17.706  14.165   8.346
  352POPC   C3A 9749  17.711  14.406   7.989
  352POPC   C4A 9750  17.480  14.705   7.774
  352POPC   C1B 9751  17.261  14.232   8.573
  352POPC   C2B 9752  17.180  14.063   8.155
  352POPC   C3B 9753  17.229  14.245   7.724
  352POPC   C4B 9754  17.181  14.086   7.255
  353POPC   NC3 9755  44.447  40.393   9.471
  353POPC   PO4 9756  44.257  39.737   9.472
  353POPC   GL1 9757  44.391  39.998   9.130
  353POPC   GL2 9758  44.500  39.702   9.005
  353POPC   C1A 9759  44.359  40.328   8.768
  353POPC   D2A 9760  44.453  40.164   8.338
  353POPC   C3A 9761  44.325  40.164   7.884
  353POPC   C4A 9762  44.530  39.828   7.657
  353POPC   C1B 9763  44.739  40.010   8.743
  353POPC   C2B 9764  44.976  39.975   8.370
  353POPC   C3B 9765  44.842  40.157   7.988
  353POPC   C4B 9766  44.860  40.202   7.546
  354POPC   NC3 9767  16.137   9.086   9.707
  354POPC   PO4 9768  16.683   9.214   9.609
  354POPC   GL1 9769  16.585   9.079   9.211
  354POPC   GL2 9770  16.452   8.739   9.270
  354POPC   C1A 9771  16.731   9.249   8.804
  354POPC   D2A 9772  16.929   9.406   8.409
  354POPC   C3A 9773  16.714   9.287   8.018
  354POPC   C4A 9774  16.406   8.977   7.864
  354POPC   C1B 9775  16.680   8.714   8.888
  354POPC   C2B 9776  16.679   8.843   8.478
  354POPC   C3B 9777  16.609   8.598   8.138
  354POPC   C4B 9778  16.827   8.695   7.780
  355POPC   NC3 9779  30.734  17.748   9.622
  355POPC   PO4 9780  30.914  17.093   9.467
  355POPC   GL1 9781  30.933  17.508   9.225
  355POPC   GL2 9782  30.642  17.525   9.007
  355POPC   C1A 9783  31.079  17.675   8.810
  355POPC   D2A 9784  31.209  17.407   8.482
  355POPC   C3A 9785  30.940  17.446   8.102
  355POPC   C4A 9786  31.053  17.358   7.667
  355POPC   C1B 9787  30.361  17.704   8.690
  355POPC   C2B 9788  30.457  17.700   8.274
  355POPC   C3B 9789  30.344  17.561   7.887
  355POPC   C4B 9790  30.341  17.720   7.475
  356POPC   NC3 9791  24.327  24.821   9.342
  356POPC   PO4 9792  23.610  24.618   9.466
  356POPC   GL1 9793  23.808  24.537   9.088
  356POPC   GL2 9794  23.753  24.182   9.098
  356POPC   C1A 9795  23.610  24.410   8.668
  356POPC   D2A 9796  23.431  24.177   8.321
  356POPC   C3A 9797  23.473  24.445   7.948
  356POPC   C4A 9798  23.480  24.317   7.534
  356POPC   C1B 9799  24.091  24.226   8.765
  356POPC   C2B 9800  24.127  24.454   8.372
  356POPC   C3B 9801  23.982  24.376   7.952
  356POPC   C4B 9802  23.879  24.635   7.578
  357POPC   NC3 9803  38.839   7.216   9.724
  357POPC   PO4 9804  38.278   7.627   9.709
  357POPC   GL1 9805  38.445   7.581   9.244
  357POPC   GL2 9806  38.801   7.436   9.248
  357POPC   C1A 9807  38.225   7.553   8.801
  357POPC   D2A 9808  37.995   7.297   8.443
  357POPC   C3A 9809  38.229   7.236   8.044
  357POPC   C4A 9810  38.456   7.596   7.873
  357POPC   C1B 9811  38.674   7.285   8.839
  357POPC   C2B 9812  38.616   7.418   8.422
  357POPC   C3B 9813  38.796   7.242   8.070
  357POPC   C4B 9814  38.661   7.169   7.690
  358POPC   NC3 9815  14.800  28.340   9.433
  358POPC   PO4 9816  14.175  28.144   9.532
  358POPC   GL1 9817  14.356  28.315   9.165
  358POPC   GL2 9818  14.382  28.647   9.044
  358POPC   C1A 9819  14.429  28.157   8.789
  358POPC   D2A 9820  14.564  28.322   8.443
  358POPC   C3A 9821  14.532  28.104   8.102
  358POPC   C4A 9822  14.382  28.267   7.729
  358POPC   C1B 9823  14.266  28.696   8.632
  358POPC   C2B 9824  14.266  28.923   8.254
  358POPC   C3B 9825  14.324  28.751   7.844
  358POPC   C4B 9826  14.057  28.712   7.492
  359POPC   NC3 9827  14.893  23.755   9.892
  359POPC   PO4 9828  14.371  23.818   9.399
  359POPC   GL1 9829  14.215  23.875   8.972
  359POPC   GL2 9830  14.057  24.212   8.885
  359POPC   C1A 9831  14.054  23.859   8.519
  359POPC   D2A 9832  13.945  23.829   8.084
  359POPC   C3A 9833  14.251  23.547   7.856
  359POPC   C4A 9834  14.746  23.474   7.788
  359POPC   C1B 9835  14.480  24.158   8.658
  359POPC   C2B 9836  14.694  24.101   8.259
  359POPC   C3B 9837  14.563  23.947   7.883
  359POPC   C4B 9838  14.171  24.043   7.683
  360POPC   NC3 9839  35.909  13.472   9.589
  360POPC   PO4 9840  35.243  13.325   9.483
  360POPC   GL1 9841  35.305  13.666   9.227
  360POPC   GL2 9842  35.572  13.488   9.139
  360POPC   C1A 9843  35.380  13.781   8.778
  360POPC   D2A 9844  35.474  13.594   8.387
  360POPC   C3A 9845  35.294  13.820   8.081
  360POPC   C4A 9846  34.976  13.661   7.842
  360POPC   C1B 9847  35.513  13.154   8.813
  360POPC   C2B 9848  35.715  13.105   8.408
  360POPC   C3B 9849  35.602  13.243   8.008
  360POPC   C4B 9850  35.461  13.523   7.705
  361POPC   NC3 9851   1.512  29.301   9.464
  361POPC   PO4 9852   0.949  29.590   9.543
  361POPC   GL1 9853   1.079  29.306   9.193
  361POPC   GL2 9854   1.173  29.571   9.014
  361POPC   C1A 9855   1.113  28.975   8.870
  361POPC   D2A 9856   0.838  28.934   8.495
  361POPC   C3A 9857   0.943  29.065   8.067
  361POPC   C4A 9858   1.061  29.372   7.752
  361POPC   C1B 9859   1.031  29.406   8.611
  361POPC   C2B 9860   1.291  29.398   8.231
  361POPC   C3B 9861   1.468  29.621   7.871
  361POPC   C4B 9862   1.282  29.781   7.468
  362POPC   NC3 9863   9.905  18.527   9.537
  362POPC   PO4 9864   9.602  17.951   9.585
  362POPC   GL1 9865   9.821  18.112   9.218
  362POPC   GL2 9866   9.531  18.216   9.122
  362POPC   C1A 9867   9.904  18.315   8.782
  362POPC   D2A 9868  10.138  18.242   8.388
  362POPC   C3A 9869   9.942  18.437   8.082
  362POPC   C4A 9870   9.883  18.653   7.720
  362POPC   C1B 9871   9.393  18.397   8.744
  362POPC   C2B 9872   9.484  18.272   8.341
  362POPC   C3B 9873   9.722  17.960   8.126
  362POPC   C4B 9874   9.884  18.073   7.726
  363POPC   NC3 9875   5.178  22.337   9.536
  363POPC   PO4 9876   4.541  22.590   9.367
  363POPC   GL1 9877   4.813  22.299   9.101
  363POPC   GL2 9878   5.110  22.045   9.125
  363POPC   C1A 9879   5.054  22.388   8.730
  363POPC   D2A 9880   5.182  22.390   8.338
  363POPC   C3A 9881   5.378  22.089   8.123
  363POPC   C4A 9882   5.375  22.277   7.729
  363POPC   C1B 9883   4.886  21.903   8.744
  363POPC   C2B 9884   4.742  22.108   8.353
  363POPC   C3B 9885   4.903  22.143   7.937
  363POPC   C4B 9886   5.149  21.848   7.683
  364POPC   NC3 9887  44.260  24.026   9.477
  364POPC   PO4 9888  44.346  23.389   9.538
  364POPC   GL1 9889  44.572  23.655   9.243
  364POPC   GL2 9890  44.836  23.470   9.106
  364POPC   C1A 9891  44.680  23.906   8.843
  364POPC   D2A 9892  44.511  23.825   8.413
  364POPC   C3A 9893  44.656  24.040   8.032
  364POPC   C4A 9894  44.539  24.047   7.591
  364POPC   C1B 9895  44.657  23.412   8.688
  364POPC   C2B 9896  44.633  23.363   8.224
  364POPC   C3B 9897  44.631  23.562   7.805
  364POPC   C4B 9898  44.766  23.661   7.354
  365POPC   NC3 9899   0.777  29.157   9.578
  365POPC   PO4 9900   0.083  29.183   9.495
  365POPC   GL1 9901   0.381  29.212   9.147
  365POPC   GL2 9902   0.596  29.495   9.184
  365POPC   C1A 9903   0.325  29.068   8.708
  365POPC   D2A 9904   0.078  29.231   8.355
  365POPC   C3A 9905   0.217  29.179   7.883
  365POPC   C4A 9906   0.625  29.024   7.654
  365POPC   C1B 9907   0.532  29.535   8.736
  365POPC   C2B 9908   0.590  29.350   8.338
  365POPC   C3B 9909   0.622  29.472   7.943
  365POPC   C4B 9910   0.491  29.495   7.518
  366POPC   NC3 9911  20.165  17.077   9.582
  366POPC   PO4 9912  19.460  17.050   9.442
  366POPC   GL1 9913  19.676  16.812   9.092
  366POPC   GL2 9914  20.026  16.778   9.141
  366POPC   C1A 9915  19.827  16.737   8.646
  366POPC   D2A 9916  19.844  16.611   8.181
  366POPC   C3A 9917  19.766  16.665   7.741
  366POPC   C4A 9918  19.845  16.421   7.366
  366POPC   C1B 9919  20.285  16.883   8.771
  366POPC   C2B 9920  20.206  16.995   8.337
  366POPC   C3B 9921  20.114  16.991   7.886
  366POPC   C4B 9922  19.944  17.263   7.508
  367POPC   NC3 9923   8.595   2.658   9.489
  367POPC   PO4 9924   8.096   3.126   9.642
  367POPC   GL1 9925   8.141   2.842   9.234
  367POPC   GL2 9926   8.450   2.701   9.014
  367POPC   C1A 9927   7.997   2.628   8.830
  367POPC   D2A 9928   8.302   2.612   8.463
  367POPC   C3A 9929   8.055   2.746   8.089
  367POPC   C4A 9930   8.067   2.580   7.679
  367POPC   C1B 9931   8.304   3.044   8.756
  367POPC   C2B 9932   8.469   3.098   8.358
  367POPC   C3B 9933   8.536   2.870   8.014
  367POPC   C4B 9934   8.338   3.001   7.661
  368POPC   NC3 9935   2.331  32.956   9.611
  368POPC   PO4 9936   2.992  33.056   9.610
  368POPC   GL1 9937   2.729  32.794   9.298
  368POPC   GL2 9938   2.676  33.089   9.175
  368POPC   C1A 9939   2.558  32.807   8.809
  368POPC   D2A 9940   2.907  32.890   8.499
  368POPC   C3A 9941   2.984  32.602   8.125
  368POPC   C4A 9942   2.818  32.673   7.695
  368POPC   C1B 9943   2.677  33.328   8.804
  368POPC   C2B 9944   2.610  33.311   8.385
  368POPC   C3B 9945   2.692  33.049   8.039
  368POPC   C4B 9946   2.418  33.110   7.692
  369POPC   NC3 9947  35.143  21.349   9.609
  369POPC   PO4 9948  35.601  21.021   9.224
  369POPC   GL1 9949  35.271  21.245   9.104
  369POPC   GL2 9950  35.386  21.572   9.216
  369POPC   C1A 9951  35.332  21.169   8.658
  369POPC   D2A 9952  35.629  21.198   8.316
  369POPC   C3A 9953  35.402  20.993   7.981
  369POPC   C4A 9954  35.221  21.338   7.761
  369POPC   C1B 9955  35.282  21.671   8.811
  369POPC   C2B 9956  35.094  21.541   8.436
  369POPC   C3B 9957  35.111  21.695   8.082
  369POPC   C4B 9958  35.294  21.883   7.762
  370POPC   NC3 9959  26.218  27.135   9.486
  370POPC   PO4 9960  26.018  26.508   9.497
  370POPC   GL1 9961  26.223  26.647   9.110
  370POPC   GL2 9962  26.242  27.006   9.007
  370POPC   C1A 9963  26.057  26.614   8.679
  370POPC   D2A 9964  25.834  26.839   8.371
  370POPC   C3A 9965  26.011  26.774   7.984
  370POPC   C4A 9966  25.842  26.620   7.614
  370POPC   C1B 9967  26.208  27.225   8.628
  370POPC   C2B 9968  26.353  27.057   8.276
  370POPC   C3B 9969  26.379  27.147   7.880
  370POPC   C4B 9970  26.025  27.129   7.609
  371POPC   NC3 9971  35.655  41.800   9.504
  371POPC   PO4 9972  36.125  41.271   9.627
  371POPC   GL1 9973  36.105  41.313   9.204
  371POPC   GL2 9974  35.751  41.326   9.250
  371POPC   C1A 9975  36.233  41.366   8.785
  371POPC   D2A 9976  36.370  41.526   8.415
  371POPC   C3A 9977  36.318  41.359   8.063
  371POPC   C4A 9978  36.498  41.531   7.695
  371POPC   C1B 9979  35.784  41.550   8.886
  371POPC   C2B 9980  35.857  41.574   8.467
  371POPC   C3B 9981  35.745  41.624   8.059
  371POPC   C4B 9982  35.987  41.514   7.702
  372POPC   NC3 9983  23.260  26.691   9.461
  372POPC   PO4 9984  23.820  27.113   9.430
  372POPC   GL1 9985  23.587  26.916   9.115
  372POPC   GL2 9986  23.678  26.568   9.029
  372POPC   C1A 9987  23.486  26.940   8.680
  372POPC   D2A 9988  23.452  26.596   8.381
  372POPC   C3A 9989  23.538  26.734   7.970
  372POPC   C4A 9990  23.589  27.155   7.817
  372POPC   C1B 9991  23.932  26.678   8.665
  372POPC   C2B 9992  23.900  26.939   8.307
  372POPC   C3B 9993  24.040  26.840   7.905
  372POPC   C4B 9994  23.841  26.822   7.529
  373POPC   NC3 9995   9.739   1.582   9.364
  373POPC   PO4 9996  10.071   1.010   9.437
  373POPC   GL1 9997   9.751   1.091   9.160
  373POPC   GL2 9998   9.906   0.924   8.898
  373POPC   C1A 9999   9.544   1.282   8.793
  373POPC   D2A10000   9.623   1.160   8.368
  373POPC   C3A10001   9.430   1.458   8.087
  373POPC   C4A10002   9.478   1.483   7.657
  373POPC   C1B10003  10.052   1.284   8.650
  373POPC   C2B10004  10.051   1.379   8.206
  373POPC   C3B10005   9.865   1.213   7.901
  373POPC   C4B10006  10.078   0.864   7.693
  374POPC   NC310007  24.723  44.780   9.291
  374POPC   PO410008  24.310  44.343   9.596
  374POPC   GL110009  24.346  44.493   9.128
  374POPC   GL210010  24.682  44.540   8.862
  374POPC   C1A10011  24.234  44.788   8.792
  374POPC   D2A10012  24.360  44.732   8.370
  374POPC   C3A10013  24.118  44.877   8.029
  374POPC   C4A10014  24.371  44.735   7.682
  374POPC   C1B10015  24.711  44.967   8.682
  374POPC   C2B10016  24.668   0.144   8.294
  374POPC   C3B10017  24.808  44.987   7.906
  374POPC   C4B10018  24.820  44.968   7.472
  375POPC   NC310019  18.014  32.109   9.484
  375POPC   PO410020  18.585  32.295   9.720
  375POPC   GL110021  18.453  32.235   9.259
  375POPC   GL210022  18.354  31.855   9.164
  375POPC   C1A10023  18.339  32.211   8.802
  375POPC   D2A10024  18.600  32.145   8.423
  375POPC   C3A10025  18.418  32.254   8.020
  375POPC   C4A10026  18.065  32.441   7.795
  375POPC   C1B10027  18.374  31.729   8.699
  375POPC   C2B10028  18.104  31.992   8.394
  375POPC   C3B10029  17.947  31.989   7.972
  375POPC   C4B10030  18.224  31.952   7.643
  376POPC   NC310031  30.199  21.163   9.460
  376POPC   PO410032  30.835  21.242   9.422
  376POPC   GL110033  30.599  21.134   9.113
  376POPC   GL210034  30.445  21.459   9.093
  376POPC   C1A10035  30.749  21.203   8.720
  376POPC   D2A10036  30.810  21.385   8.328
  376POPC   C3A10037  30.822  21.214   7.948
  376POPC   C4A10038  30.613  21.316   7.530
  376POPC   C1B10039  30.611  21.684   8.718
  376POPC   C2B10040  30.538  21.819   8.300
  376POPC   C3B10041  30.602  21.680   7.897
  376POPC   C4B10042  30.833  21.773   7.511
  377POPC   NC310043  21.148  30.290   9.485
  377POPC   PO410044  21.718  30.642   9.490
  377POPC   GL110045  21.429  30.564   9.178
  377POPC   GL210046  21.564  30.234   9.145
  377POPC   C1A10047  21.148  30.625   8.819
  377POPC   D2A10048  21.087  30.916   8.483
  377POPC   C3A10049  21.152  30.716   8.106
  377POPC   C4A10050  21.111  30.866   7.701
  377POPC   C1B10051  21.656  30.499   8.744
  377POPC   C2B10052  21.604  30.773   8.378
  377POPC   C3B10053  21.623  30.601   7.957
  377POPC   C4B10054  21.462  30.552   7.550
  378POPC   NC310055   5.701  23.068   9.597
  378POPC   PO410056   6.197  22.626   9.509
  378POPC   GL110057   6.071  22.944   9.198
  378POPC   GL210058   5.769  22.811   9.119
  378POPC   C1A10059   5.926  23.109   8.757
  378POPC   D2A10060   6.001  22.888   8.357
  378POPC   C3A10061   5.736  23.014   8.004
  378POPC   C4A10062   5.872  23.063   7.559
  378POPC   C1B10063   5.786  22.531   8.681
  378POPC   C2B10064   5.688  22.500   8.208
  378POPC   C3B10065   5.767  22.581   7.738
  378POPC   C4B10066   5.568  22.499   7.311
  379POPC   NC310067  12.849  34.103   9.414
  379POPC   PO410068  12.916  33.515   9.696
  379POPC   GL110069  12.973  33.612   9.197
  379POPC   GL210070  12.797  33.906   8.960
  379POPC   C1A10071  12.948  33.485   8.729
  379POPC   D2A10072  12.905  33.660   8.276
  379POPC   C3A10073  12.667  34.021   8.074
  379POPC   C4A10074  12.643  34.016   7.636
  379POPC   C1B10075  13.050  34.015   8.610
  379POPC   C2B10076  13.149  34.127   8.189
  379POPC   C3B10077  13.131  34.073   7.727
  379POPC   C4B10078  13.234  34.096   7.244
  380POPC   NC310079   3.450  33.034   9.654
  380POPC   PO410080   3.916  32.551   9.750
  380POPC   GL110081   3.796  32.896   9.320
  380POPC   GL210082   3.490  33.149   9.159
  380POPC   C1A10083   3.772  32.889   8.843
  380POPC   D2A10084   3.450  32.992   8.545
  380POPC   C3A10085   3.496  32.987   8.089
  380POPC   C4A10086   3.352  32.704   7.780
  380POPC   C1B10087   3.697  33.386   8.800
  380POPC   C2B10088   3.839  33.297   8.359
  380POPC   C3B10089   3.775  33.416   7.938
  380POPC   C4B10090   3.555  33.249   7.589
  381POPC   NC310091  25.297  31.794   9.903
  381POPC   PO410092  25.679  31.486   9.449
  381POPC   GL110093  25.346  31.379   9.165
  381POPC   GL210094  25.139  31.662   9.210
  381POPC   C1A10095  25.174  31.204   8.755
  381POPC   D2A10096  25.254  31.056   8.348
  381POPC   C3A10097  25.220  31.411   8.088
  381POPC   C4A10098  25.030  31.778   7.923
  381POPC   C1B10099  25.254  31.716   8.782
  381POPC   C2B10100  25.279  31.812   8.384
  381POPC   C3B10101  25.595  31.793   8.060
  381POPC   C4B10102  25.471  31.721   7.664
  382POPC   NC310103  21.121   1.096   9.541
  382POPC   PO410104  21.725   1.363   9.472
  382POPC   GL110105  21.428   1.210   9.127
  382POPC   GL210106  21.045   1.317   9.095
  382POPC   C1A10107  21.558   1.163   8.677
  382POPC   D2A10108  21.400   0.990   8.287
  382POPC   C3A10109  21.628   1.045   7.891
  382POPC   C4A10110  21.518   1.279   7.543
  382POPC   C1B10111  21.060   1.160   8.717
  382POPC   C2B10112  21.053   1.357   8.328
  382POPC   C3B10113  21.143   1.236   7.907
  382POPC   C4B10114  21.170   0.877   7.665
  383POPC   NC310115   6.417  19.625   9.631
  383POPC   PO410116   6.844  20.155   9.501
  383POPC   GL110117   6.631  19.855   9.235
  383POPC   GL210118   6.695  20.055   8.958
  383POPC   C1A10119   6.493  19.617   8.854
  383POPC   D2A10120   6.643  19.778   8.472
  383POPC   C3A10121   6.580  19.613   8.072
  383POPC   C4A10122   6.578  19.760   7.677
  383POPC   C1B10123   7.056  20.075   8.714
  383POPC   C2B10124   7.106  19.923   8.316
  383POPC   C3B10125   6.851  20.068   8.005
  383POPC   C4B10126   7.001  20.323   7.698
  384POPC   NC310127  28.045   2.143   9.449
  384POPC   PO410128  28.621   1.939   9.348
  384POPC   GL110129  28.530   2.156   9.022
  384POPC   GL210130  28.224   2.317   9.007
  384POPC   C1A10131  28.383   1.910   8.675
  384POPC   D2A10132  28.109   1.994   8.299
  384POPC   C3A10133  28.270   1.827   7.976
  384POPC   C4A10134  28.652   1.759   7.743
  384POPC   C1B10135  28.230   2.382   8.584
  384POPC   C2B10136  28.573   2.245   8.337
  384POPC   C3B10137  28.568   2.243   7.923
  384POPC   C4B10138  28.256   2.430   7.690
  385POPC   NC310139  13.580  16.341   9.521
  385POPC   PO410140  13.493  16.996   9.503
  385POPC   GL110141  13.800  16.743   9.211
  385POPC   GL210142  13.782  16.388   9.067
  385POPC   C1A10143  13.764  16.791   8.755
  385POPC   D2A10144  13.443  16.800   8.430
  385POPC   C3A10145  13.635  16.777   8.052
  385POPC   C4A10146  13.867  16.640   7.718
  385POPC   C1B10147  13.354  16.488   8.891
  385POPC   C2B10148  13.062  16.455   8.525
  385POPC   C3B10149  13.125  16.457   8.077
  385POPC   C4B10150  13.414  16.368   7.734
  386POPC   NC310151  28.464   7.209   9.419
  386POPC   PO410152  27.913   7.582   9.509
  386POPC   GL110153  28.184   7.527   9.124
  386POPC   GL210154  28.446   7.719   9.153
  386POPC   C1A10155  28.457   7.292   8.765
  386POPC   D2A10156  28.320   7.158   8.309
  386POPC   C3A10157  28.302   7.474   7.944
  386POPC   C4A10158  28.568   7.378   7.607
  386POPC   C1B10159  28.603   7.779   8.769
  386POPC   C2B10160  28.524   7.637   8.370
  386POPC   C3B10161  28.803   7.529   8.031
  386POPC   C4B10162  28.880   7.783   7.642
  387POPC   NC310163   9.354   2.092   9.601
  387POPC   PO410164  10.012   1.964   9.452
  387POPC   GL110165   9.836   2.112   9.134
  387POPC   GL210166   9.505   1.976   9.129
  387POPC   C1A10167   9.806   1.930   8.734
  387POPC   D2A10168   9.719   1.648   8.474
  387POPC   C3A10169   9.774   1.807   8.077
  387POPC   C4A10170   9.900   1.807   7.662
  387POPC   C1B10171   9.326   2.103   8.751
  387POPC   C2B10172   9.295   1.883   8.376
  387POPC   C3B10173   9.354   2.080   7.977
  387POPC   C4B10174   9.406   1.978   7.569
  388POPC   NC310175  24.247   9.101   9.714
  388POPC   PO410176  24.853   9.231   9.472
  388POPC   GL110177  24.605   9.100   9.152
  388POPC   GL210178  24.570   8.751   9.185
  388POPC   C1A10179  24.465   9.150   8.725
  388POPC   D2A10180  24.676   9.300   8.342
  388POPC   C3A10181  24.467   9.191   7.960
  388POPC   C4A10182  24.112   8.957   7.798
  388POPC   C1B10183  24.648   8.670   8.741
  388POPC   C2B10184  24.465   8.799   8.325
  388POPC   C3B10185  24.534   8.648   7.909
  388POPC   C4B10186  24.876   8.574   7.588
  389POPC   NC310187   7.203  38.950   9.504
  389POPC   PO410188   7.671  39.380   9.473
  389POPC   GL110189   7.393  39.224   9.077
  389POPC   GL210190   7.023  39.287   9.147
  389POPC   C1A10191   7.320  39.244   8.583
  389POPC   D2A10192   7.589  39.462   8.226
  389POPC   C3A10193   7.533  39.333   7.797
  389POPC   C4A10194   7.469  38.993   7.475
  389POPC   C1B10195   6.823  39.292   8.751
  389POPC   C2B10196   6.858  39.384   8.334
  389POPC   C3B10197   7.105  39.157   8.008
  389POPC   C4B10198   7.069  39.294   7.562
  390POPC   NC310199   4.465   4.404   9.864
  390POPC   PO410200   3.899   4.028   9.485
  390POPC   GL110201   4.328   4.141   9.292
  390POPC   GL210202   4.412   4.477   9.290
  390POPC   C1A10203   4.495   4.082   8.869
  390POPC   D2A10204   4.270   4.135   8.488
  390POPC   C3A10205   4.435   4.050   8.110
  390POPC   C4A10206   4.439   4.152   7.722
  390POPC   C1B10207   4.285   4.539   8.844
  390POPC   C2B10208   4.439   4.604   8.389
  390POPC   C3B10209   4.195   4.523   8.009
  390POPC   C4B10210   4.110   4.477   7.560
  391POPC   NC310211  38.083  25.306   9.719
  391POPC   PO410212  37.709  24.784   9.510
  391POPC   GL110213  37.661  25.085   9.230
  391POPC   GL210214  37.372  25.157   9.172
  391POPC   C1A10215  37.689  25.126   8.783
  391POPC   D2A10216  37.624  24.922   8.423
  391POPC   C3A10217  37.629  25.203   8.104
  391POPC   C4A10218  37.689  25.183   7.708
  391POPC   C1B10219  37.322  25.442   8.888
  391POPC   C2B10220  37.313  25.343   8.486
  391POPC   C3B10221  37.182  25.406   8.083
  391POPC   C4B10222  37.270  25.575   7.673
  392POPC   NC310223  39.600   9.879   9.497
  392POPC   PO410224  40.136   9.402   9.483
  392POPC   GL110225  39.940   9.453   9.124
  392POPC   GL210226  39.948   9.779   9.121
  392POPC   C1A10227  39.873   9.535   8.683
  392POPC   D2A10228  40.056   9.593   8.310
  392POPC   C3A10229  39.703   9.662   8.047
  392POPC   C4A10230  39.712   9.647   7.627
  392POPC   C1B10231  40.073  10.015   8.774
  392POPC   C2B10232  40.186  10.081   8.349
  392POPC   C3B10233  39.993  10.052   7.934
  392POPC   C4B10234  40.203  10.012   7.554
  393POPC   NC310235  41.261  24.035   9.334
  393POPC   PO410236  41.854  23.705   9.553
  393POPC   GL110237  41.750  23.515   9.198
  393POPC   GL210238  41.723  23.907   9.087
  393POPC   C1A10239  41.728  23.524   8.760
  393POPC   D2A10240  41.906  23.865   8.531
  393POPC   C3A10241  41.712  23.864   8.157
  393POPC   C4A10242  41.983  23.700   7.832
  393POPC   C1B10243  41.458  24.016   8.726
  393POPC   C2B10244  41.251  24.101   8.361
  393POPC   C3B10245  41.249  24.016   7.965
  393POPC   C4B10246  41.449  23.713   7.753
  394POPC   NC310247  17.634  30.166   9.618
  394POPC   PO410248  17.532  29.507   9.415
  394POPC   GL110249  17.579  29.782   9.058
  394POPC   GL210250  17.537  30.150   9.112
  394POPC   C1A10251  17.612  29.806   8.606
  394POPC   D2A10252  17.771  29.648   8.225
  394POPC   C3A10253  17.507  29.797   7.882
  394POPC   C4A10254  17.278  30.179   7.751
  394POPC   C1B10255  17.895  30.357   8.937
  394POPC   C2B10256  17.989  30.290   8.503
  394POPC   C3B10257  17.715  30.165   8.173
  394POPC   C4B10258  17.806  30.227   7.739
  395POPC   NC310259  13.827  15.710   9.661
  395POPC   PO410260  13.223  16.037   9.590
  395POPC   GL110261  13.513  15.936   9.193
  395POPC   GL210262  13.886  15.851   9.179
  395POPC   C1A10263  13.612  15.730   8.763
  395POPC   D2A10264  13.865  15.798   8.363
  395POPC   C3A10265  13.657  15.757   7.961
  395POPC   C4A10266  13.494  15.764   7.541
  395POPC   C1B10267  14.012  16.019   8.815
  395POPC   C2B10268  13.747  16.298   8.547
  395POPC   C3B10269  13.752  16.272   8.092
  395POPC   C4B10270  13.865  16.122   7.654
  396POPC   NC310271  13.000  11.119   9.977
  396POPC   PO410272  12.867  11.406   9.458
  396POPC   GL110273  13.148  11.539   9.090
  396POPC   GL210274  12.894  11.661   8.990
  396POPC   C1A10275  13.214  11.460   8.646
  396POPC   D2A10276  13.001  11.230   8.295
  396POPC   C3A10277  13.099  11.183   7.856
  396POPC   C4A10278  12.891  11.400   7.496
  396POPC   C1B10279  12.734  11.614   8.582
  396POPC   C2B10280  12.671  11.617   8.131
  396POPC   C3B10281  12.580  11.265   7.867
  396POPC   C4B10282  12.723  10.907   7.611
  397POPC   NC310283  30.301  36.580   9.428
  397POPC   PO410284  29.625  36.634   9.336
  397POPC   GL110285  29.868  36.931   9.108
  397POPC   GL210286  30.203  36.890   9.052
  397POPC   C1A10287  29.922  37.165   8.725
  397POPC   D2A10288  29.857  36.974   8.332
  397POPC   C3A10289  29.689  37.075   7.943
  397POPC   C4A10290  29.859  36.827   7.591
  397POPC   C1B10291  30.056  36.661   8.702
  397POPC   C2B10292  30.241  36.554   8.278
  397POPC   C3B10293  30.152  36.481   7.825
  397POPC   C4B10294  30.418  36.424   7.449
  398POPC   NC310295   6.139  22.169   9.588
  398POPC   PO410296   5.467  21.945   9.554
  398POPC   GL110297   5.656  22.048   9.164
  398POPC   GL210298   5.921  22.330   9.143
  398POPC   C1A10299   5.501  22.088   8.740
  398POPC   D2A10300   5.821  22.045   8.447
  398POPC   C3A10301   5.826  21.856   8.069
  398POPC   C4A10302   5.855  22.076   7.738
  398POPC   C1B10303   6.265  22.494   8.825
  398POPC   C2B10304   6.287  22.257   8.430
  398POPC   C3B10305   6.156  22.362   8.047
  398POPC   C4B10306   6.272  22.643   7.751
  399POPC   NC310307  27.453  21.703   9.435
  399POPC   PO410308  27.318  22.330   9.674
  399POPC   GL110309  27.397  22.195   9.278
  399POPC   GL210310  27.091  21.983   9.232
  399POPC   C1A10311  27.688  22.267   8.909
  399POPC   D2A10312  27.851  22.092   8.469
  399POPC   C3A10313  27.810  22.248   8.026
  399POPC   C4A10314  27.805  22.138   7.579
  399POPC   C1B10315  27.250  22.049   8.804
  399POPC   C2B10316  27.350  22.247   8.399
  399POPC   C3B10317  27.144  22.255   8.019
  399POPC   C4B10318  27.320  22.093   7.702
  400POPC   NC310319  31.235   2.426   9.427
  400POPC   PO410320  31.701   2.901   9.455
  400POPC   GL110321  31.457   2.742   9.117
  400POPC   GL210322  31.687   2.866   8.937
  400POPC   C1A10323  31.306   2.612   8.703
  400POPC   D2A10324  31.539   2.548   8.323
  400POPC   C3A10325  31.337   2.721   7.992
  400POPC   C4A10326  31.345   2.588   7.583
  400POPC   C1B10327  31.898   3.215   8.769
  400POPC   C2B10328  32.017   3.199   8.349
  400POPC   C3B10329  31.766   3.115   8.005
  400POPC   C4B10330  31.743   2.854   7.685
  401POPC   NC310331  27.019  22.704   9.603
  401POPC   PO410332  26.530  23.219   9.490
  401POPC   GL110333  26.796  22.999   9.248
  401POPC   GL210334  26.562  22.785   9.150
  401POPC   C1A10335  26.912  22.977   8.830
  401POPC   D2A10336  26.847  23.186   8.471
  401POPC   C3A10337  27.123  23.072   8.145
  401POPC   C4A10338  27.122  22.734   7.840
  401POPC   C1B10339  26.543  22.598   8.782
  401POPC   C2B10340  26.493  22.819   8.417
  401POPC   C3B10341  26.628  23.006   8.032
  401POPC   C4B10342  26.462  22.936   7.639
  402POPC   NC310343  41.127  25.668   9.514
  402POPC   PO410344  40.709  26.122   9.792
  402POPC   GL110345  40.673  26.029   9.306
  402POPC   GL210346  40.468  25.702   9.259
  402POPC   C1A10347  40.787  26.136   8.848
  402POPC   D2A10348  40.678  26.404   8.454
  402POPC   C3A10349  40.852  26.301   8.039
  402POPC   C4A10350  40.693  26.245   7.649
  402POPC   C1B10351  40.704  25.615   8.878
  402POPC   C2B10352  40.976  25.742   8.528
  402POPC   C3B10353  40.836  25.791   8.122
  402POPC   C4B10354  40.912  25.789   7.742
  403POPC   NC310355  44.222  33.767   9.585
  403POPC   PO410356  43.673  33.607   9.330
  403POPC   GL110357  43.803  33.917   9.040
  403POPC   GL210358  44.157  33.960   9.098
  403POPC   C1A10359  43.633  33.979   8.615
  403POPC   D2A10360  43.507  34.044   8.163
  403POPC   C3A10361  43.699  33.880   7.763
  403POPC   C4A10362  43.769  33.547   7.428
  403POPC   C1B10363  44.150  33.840   8.670
  403POPC   C2B10364  43.965  33.803   8.265
  403POPC   C3B10365  44.054  33.583   7.913
  403POPC   C4B10366  44.238  33.986   7.800
  404POPC   NC310367  41.260   9.192   9.435
  404POPC   PO410368  41.861   9.465   9.399
  404POPC   GL110369  41.621   9.252   9.069
  404POPC   GL210370  41.573   8.894   9.144
  404POPC   C1A10371  41.636   9.087   8.638
  404POPC   D2A10372  41.396   9.038   8.234
  404POPC   C3A10373  41.572   9.133   7.803
  404POPC   C4A10374  41.522   9.331   7.358
  404POPC   C1B10375  41.502   8.566   8.850
  404POPC   C2B10376  41.463   8.531   8.414
  404POPC   C3B10377  41.345   8.599   7.981
  404POPC   C4B10378  41.642   8.610   7.667
  405POPC   NC310379  43.484  25.835   9.585
  405POPC   PO410380  43.044  26.182   9.701
  405POPC   GL110381  43.047  26.013   9.227
  405POPC   GL210382  43.325  26.169   9.160
  405POPC   C1A10383  43.082  26.089   8.729
  405POPC   D2A10384  43.398  26.350   8.491
  405POPC   C3A10385  43.361  26.387   8.044
  405POPC   C4A10386  42.954  26.224   7.757
  405POPC   C1B10387  43.413  25.766   8.927
  405POPC   C2B10388  43.487  25.836   8.488
  405POPC   C3B10389  43.157  25.972   8.185
  405POPC   C4B10390  43.345  25.924   7.734
  406POPC   NC310391  39.710  10.624   9.626
  406POPC   PO410392  40.009  10.099   9.507
  406POPC   GL110393  39.828  10.317   9.143
  406POPC   GL210394  39.689  10.684   9.130
  406POPC   C1A10395  39.981  10.521   8.742
  406POPC   D2A10396  39.919  10.502   8.307
  406POPC   C3A10397  40.237  10.491   8.000
  406POPC   C4A10398  40.017  10.475   7.639
  406POPC   C1B10399  39.515  10.905   8.750
  406POPC   C2B10400  39.737  10.980   8.336
  406POPC   C3B10401  39.994  10.945   7.923
  406POPC   C4B10402  40.006  11.240   7.558
  407POPC   NC310403   0.255  22.240   9.669
  407POPC   PO410404  44.925  22.679   9.368
  407POPC   GL110405   0.065  22.328   9.040
  407POPC   GL210406   0.078  22.010   9.217
  407POPC   C1A10407   0.195  22.150   8.603
  407POPC   D2A10408   0.458  22.270   8.236
  407POPC   C3A10409   0.260  22.290   7.837
  407POPC   C4A10410   0.252  22.416   7.410
  407POPC   C1B10411   0.267  21.729   8.909
  407POPC   C2B10412   0.401  21.644   8.481
  407POPC   C3B10413   0.333  21.807   8.071
  407POPC   C4B10414   0.601  21.788   7.694
  408POPC   NC310415   3.726  29.905   9.607
  408POPC   PO410416   4.373  30.075   9.699
  408POPC   GL110417   4.393  29.882   9.272
  408POPC   GL210418   4.089  29.738   9.238
  408POPC   C1A10419   4.519  30.004   8.839
  408POPC   D2A10420   4.355  30.167   8.440
  408POPC   C3A10421   4.482  29.957   8.066
  408POPC   C4A10422   4.741  29.781   7.736
  408POPC   C1B10423   4.020  29.891   8.822
  408POPC   C2B10424   3.902  29.941   8.406
  408POPC   C3B10425   4.015  29.760   8.039
  408POPC   C4B10426   4.229  29.831   7.663
  409POPC   NC310427  12.494  40.168   9.404
  409POPC   PO410428  12.046  40.519   9.614
  409POPC   GL110429  12.083  40.748   9.245
  409POPC   GL210430  12.418  40.646   9.205
  409POPC   C1A10431  11.920  40.847   8.851
  409POPC   D2A10432  12.012  40.702   8.439
  409POPC   C3A10433  11.937  40.909   8.057
  409POPC   C4A10434  12.036  40.858   7.643
  409POPC   C1B10435  12.329  40.516   8.806
  409POPC   C2B10436  12.496  40.568   8.380
  409POPC   C3B10437  12.369  40.627   7.975
  409POPC   C4B10438  12.471  40.614   7.521
  410POPC   NC310439  34.934  41.721   9.297
  410POPC   PO410440  34.367  41.417   9.519
  410POPC   GL110441  34.507  41.380   9.116
  410POPC   GL210442  34.822  41.234   9.223
  410POPC   C1A10443  34.556  41.677   8.753
  410POPC   D2A10444  34.908  41.731   8.460
  410POPC   C3A10445  34.763  41.606   8.065
  410POPC   C4A10446  34.632  41.662   7.622
  410POPC   C1B10447  34.895  41.307   8.782
  410POPC   C2B10448  34.761  41.205   8.396
  410POPC   C3B10449  34.871  41.128   7.972
  410POPC   C4B10450  35.055  41.415   7.683
  411POPC   NC310451  25.507   8.347  10.057
  411POPC   PO410452  25.159   8.570   9.662
  411POPC   GL110453  25.304   8.399   9.236
  411POPC   GL210454  25.584   8.603   9.146
  411POPC   C1A10455  25.313   8.236   8.788
  411POPC   D2A10456  25.234   8.413   8.348
  411POPC   C3A10457  25.280   8.188   7.955
  411POPC   C4A10458  25.256   8.230   7.504
  411POPC   C1B10459  25.388   8.734   8.734
  411POPC   C2B10460  25.466   8.878   8.289
  411POPC   C3B10461  25.356   8.718   7.890
  411POPC   C4B10462  25.653   8.469   7.745
  412POPC   NC310463  12.805  19.439   9.542
  412POPC   PO410464  13.066  20.070   9.353
  412POPC   GL110465  12.873  19.779   9.075
  412POPC   GL210466  12.598  19.617   9.132
  412POPC   C1A10467  12.798  19.594   8.657
  412POPC   D2A10468  12.953  19.771   8.304
  412POPC   C3A10469  12.918  19.660   7.896
  412POPC   C4A10470  13.010  19.999   7.642
  412POPC   C1B10471  12.392  19.828   8.840
  412POPC   C2B10472  12.410  19.946   8.449
  412POPC   C3B10473  12.490  19.846   8.072
  412POPC   C4B10474  12.497  20.018   7.696
  413POPC   NC310475  27.934  28.847   9.303
  413POPC   PO410476  28.387  29.229   9.618
  413POPC   GL110477  28.369  29.112   9.097
  413POPC   GL210478  28.275  29.464   8.889
  413POPC   C1A10479  28.289  28.977   8.654
  413POPC   D2A10480  28.225  29.185   8.227
  413POPC   C3A10481  28.417  29.030   7.839
  413POPC   C4A10482  28.533  29.201   7.430
  413POPC   C1B10483  27.891  29.297   8.625
  413POPC   C2B10484  27.833  28.925   8.364
  413POPC   C3B10485  27.913  28.863   7.898
  413POPC   C4B10486  28.000  29.209   7.594
  414POPC   NC310487  14.124  41.453   9.536
  414POPC   PO410488  14.583  41.283   9.872
  414POPC   GL110489  14.583  41.406   9.357
  414POPC   GL210490  14.871  41.607   9.236
  414POPC   C1A10491  14.400  41.343   8.913
  414POPC   D2A10492  14.058  41.352   8.585
  414POPC   C3A10493  14.024  41.711   8.277
  414POPC   C4A10494  14.200  41.731   7.866
  414POPC   C1B10495  14.744  41.723   8.833
  414POPC   C2B10496  14.827  41.511   8.451
  414POPC   C3B10497  14.717  41.582   8.025
  414POPC   C4B10498  14.809  41.489   7.631
  415POPC   NC310499  41.445  24.918   9.520
  415POPC   PO410500  41.639  25.572   9.491
  415POPC   GL110501  41.463  25.328   9.157
  415POPC   GL210502  41.788  25.309   8.992
  415POPC   C1A10503  41.383  25.098   8.750
  415POPC   D2A10504  41.470  25.088   8.311
  415POPC   C3A10505  41.206  25.407   8.056
  415POPC   C4A10506  41.395  25.645   7.715
  415POPC   C1B10507  41.895  25.298   8.555
  415POPC   C2B10508  41.977  25.191   8.153
  415POPC   C3B10509  41.706  25.001   7.847
  415POPC   C4B10510  41.777  25.041   7.361
  416POPC   NC310511  11.748  40.097   9.580
  416POPC   PO410512  12.358  39.782   9.618
  416POPC   GL110513  12.247  39.901   9.098
  416POPC   GL210514  12.044  40.224   9.166
  416POPC   C1A10515  12.132  39.746   8.695
  416POPC   D2A10516  11.786  39.819   8.418
  416POPC   C3A10517  12.011  39.807   8.055
  416POPC   C4A10518  12.168  39.845   7.679
  416POPC   C1B10519  11.926  40.212   8.759
  416POPC   C2B10520  12.123  40.204   8.377
  416POPC   C3B10521  11.916  40.362   8.040
  416POPC   C4B10522  12.079  40.341   7.666
  417POPC   NC310523  18.076  12.911   9.474
  417POPC   PO410524  18.593  12.376   9.357
  417POPC   GL110525  18.325  12.657   9.104
  417POPC   GL210526  18.412  13.040   9.095
  417POPC   C1A10527  18.230  12.818   8.694
  417POPC   D2A10528  18.454  13.010   8.404
  417POPC   C3A10529  18.362  12.679   8.143
  417POPC   C4A10530  18.312  12.658   7.712
  417POPC   C1B10531  18.084  13.256   8.899
  417POPC   C2B10532  17.873  13.222   8.542
  417POPC   C3B10533  18.031  13.153   8.130
  417POPC   C4B10534  18.214  13.186   7.701
  418POPC   NC310535  17.891  39.839   9.467
  418POPC   PO410536  18.588  39.949   9.497
  418POPC   GL110537  18.349  39.993   9.106
  418POPC   GL210538  18.019  40.172   9.069
  418POPC   C1A10539  18.280  39.831   8.696
  418POPC   D2A10540  18.225  39.831   8.268
  418POPC   C3A10541  18.554  39.826   8.009
  418POPC   C4A10542  18.560  39.961   7.611
  418POPC   C1B10543  17.959  40.257   8.638
  418POPC   C2B10544  17.839  40.154   8.221
  418POPC   C3B10545  18.084  40.183   7.848
  418POPC   C4B10546  17.838  40.345   7.472
  419POPC   NC310547  21.505   0.090   9.471
  419POPC   PO410548  21.062   0.624   9.591
  419POPC   GL110549  21.216   0.493   9.205
  419POPC   GL210550  21.129   0.163   9.117
  419POPC   C1A10551  21.381   0.694   8.838
  419POPC   D2A10552  21.484   0.519   8.444
  419POPC   C3A10553  21.212   0.556   8.091
  419POPC   C4A10554  21.538   0.553   7.785
  419POPC   C1B10555  21.431   0.156   8.813
  419POPC   C2B10556  21.336   0.044   8.421
  419POPC   C3B10557  21.437   0.104   8.018
  419POPC   C4B10558  21.324  44.809   7.765
  420POPC   NC310559  16.737  44.466   9.636
  420POPC   PO410560  17.147  44.879   9.278
  420POPC   GL110561  16.807  44.743   9.126
  420POPC   GL210562  16.861  44.437   9.122
  420POPC   C1A10563  16.700  44.628   8.690
  420POPC   D2A10564  16.524  44.702   8.332
  420POPC   C3A10565  16.742  44.707   7.947
  420POPC   C4A10566  16.578  44.590   7.533
  420POPC   C1B10567  16.969  44.197   8.768
  420POPC   C2B10568  17.032  44.335   8.327
  420POPC   C3B10569  17.063  44.318   7.883
  420POPC   C4B10570  17.048  44.477   7.468
  421POPC   NC310571  18.961  33.408   9.738
  421POPC   PO410572  18.963  32.804   9.455
  421POPC   GL110573  19.073  32.794   9.071
  421POPC   GL210574  19.365  32.659   9.139
  421POPC   C1A10575  18.986  32.881   8.664
  421POPC   D2A10576  19.144  33.172   8.358
  421POPC   C3A10577  19.018  33.022   7.971
  421POPC   C4A10578  18.798  33.164   7.605
  421POPC   C1B10579  19.426  32.498   8.743
  421POPC   C2B10580  19.333  32.680   8.327
  421POPC   C3B10581  19.491  32.659   7.927
  421POPC   C4B10582  19.327  32.866   7.577
  422POPC   NC310583  10.096  37.169   9.267
  422POPC   PO410584  10.451  36.807   9.736
  422POPC   GL110585  10.511  36.766   9.244
  422POPC   GL210586  10.186  36.656   9.141
  422POPC   C1A10587  10.547  36.932   8.763
  422POPC   D2A10588  10.781  37.011   8.338
  422POPC   C3A10589  10.604  37.131   7.927
  422POPC   C4A10590  10.621  36.923   7.529
  422POPC   C1B10591  10.181  36.574   8.693
  422POPC   C2B10592  10.259  36.829   8.322
  422POPC   C3B10593  10.284  36.739   7.896
  422POPC   C4B10594  10.206  36.366   7.758
  423POPC   NC310595  38.107  28.148   9.498
  423POPC   PO410596  38.635  27.657   9.479
  423POPC   GL110597  38.433  27.580   9.093
  423POPC   GL210598  38.202  27.833   9.080
  423POPC   C1A10599  38.185  27.401   8.730
  423POPC   D2A10600  38.152  27.577   8.289
  423POPC   C3A10601  38.563  27.497   8.035
  423POPC   C4A10602  38.705  27.325   7.633
  423POPC   C1B10603  38.419  27.859   8.676
  423POPC   C2B10604  38.478  27.970   8.253
  423POPC   C3B10605  38.329  27.903   7.857
  423POPC   C4B10606  38.704  27.913   7.685
  424POPC   NC310607   8.746  33.465   9.397
  424POPC   PO410608   9.213  33.946   9.453
  424POPC   GL110609   8.951  33.840   9.130
  424POPC   GL210610   8.568  33.892   9.167
  424POPC   C1A10611   8.858  33.598   8.752
  424POPC   D2A10612   8.629  33.728   8.388
  424POPC   C3A10613   8.867  33.658   8.051
  424POPC   C4A10614   9.118  33.877   7.803
  424POPC   C1B10615   8.704  34.080   8.774
  424POPC   C2B10616   8.786  34.348   8.458
  424POPC   C3B10617   8.774  34.176   8.059
  424POPC   C4B10618   8.648  34.001   7.650
  425POPC   NC310619  36.771   8.476   9.421
  425POPC   PO410620  37.258   7.995   9.414
  425POPC   GL110621  37.134   8.274   9.117
  425POPC   GL210622  36.790   8.171   8.988
  425POPC   C1A10623  37.152   8.372   8.708
  425POPC   D2A10624  36.808   8.332   8.476
  425POPC   C3A10625  36.887   8.404   8.091
  425POPC   C4A10626  36.629   8.315   7.750
  425POPC   C1B10627  37.009   7.886   8.639
  425POPC   C2B10628  37.103   7.948   8.166
  425POPC   C3B10629  37.066   8.073   7.671
  425POPC   C4B10630  37.198   7.968   7.216
  426POPC   NC310631  19.310  26.406   9.495
  426POPC   PO410632  19.146  27.106   9.560
  426POPC   GL110633  19.154  26.798   9.174
  426POPC   GL210634  18.984  26.445   9.105
  426POPC   C1A10635  19.010  26.806   8.738
  426POPC   D2A10636  18.969  27.059   8.380
  426POPC   C3A10637  19.073  26.820   8.002
  426POPC   C4A10638  18.869  26.779   7.639
  426POPC   C1B10639  19.313  26.396   8.784
  426POPC   C2B10640  19.325  26.564   8.385
  426POPC   C3B10641  19.331  26.368   7.994
  426POPC   C4B10642  19.283  26.497   7.600
  427POPC   NC310643  31.872   3.343   9.425
  427POPC   PO410644  31.279   3.806   9.511
  427POPC   GL110645  31.473   3.558   9.204
  427POPC   GL210646  31.322   3.226   9.226
  427POPC   C1A10647  31.581   3.635   8.764
  427POPC   D2A10648  31.712   4.021   8.511
  427POPC   C3A10649  31.711   3.953   8.063
  427POPC   C4A10650  31.550   3.754   7.681
  427POPC   C1B10651  31.316   3.151   8.799
  427POPC   C2B10652  31.495   3.241   8.426
  427POPC   C3B10653  31.364   3.422   8.044
  427POPC   C4B10654  31.313   3.138   7.695
  428POPC   NC310655  36.628  12.916   9.559
  428POPC   PO410656  37.143  12.688   9.261
  428POPC   GL110657  37.072  12.705   8.911
  428POPC   GL210658  36.833  12.992   8.990
  428POPC   C1A10659  37.081  12.748   8.505
  428POPC   D2A10660  36.846  13.087   8.482
  428POPC   C3A10661  36.783  13.104   8.120
  428POPC   C4A10662  36.839  13.002   7.717
  428POPC   C1B10663  36.590  12.706   8.734
  428POPC   C2B10664  36.596  12.601   8.348
  428POPC   C3B10665  36.867  12.575   8.046
  428POPC   C4B10666  36.643  12.398   7.736
  429POPC   NC310667  14.368  40.236   9.441
  429POPC   PO410668  14.668  39.581   9.328
  429POPC   GL110669  14.479  39.883   9.089
  429POPC   GL210670  14.582  40.241   8.986
  429POPC   C1A10671  14.443  39.818   8.705
  429POPC   D2A10672  14.506  40.045   8.405
  429POPC   C3A10673  14.407  39.797   8.082
  429POPC   C4A10674  14.610  39.828   7.726
  429POPC   C1B10675  14.237  40.346   8.719
  429POPC   C2B10676  14.229  40.522   8.302
  429POPC   C3B10677  14.425  40.297   7.962
  429POPC   C4B10678  14.128  40.060   7.727
  430POPC   NC310679  13.859  30.172   9.466
  430POPC   PO410680  14.437  29.839   9.642
  430POPC   GL110681  14.232  29.842   9.206
  430POPC   GL210682  14.081  30.133   9.022
  430POPC   C1A10683  14.274  29.739   8.748
  430POPC   D2A10684  14.253  29.924   8.322
  430POPC   C3A10685  14.306  29.776   7.888
  430POPC   C4A10686  14.252  29.950   7.462
  430POPC   C1B10687  14.333  30.299   8.710
  430POPC   C2B10688  14.250  30.439   8.319
  430POPC   C3B10689  14.255  30.285   7.927
  430POPC   C4B10690  14.411  30.426   7.576
  431POPC   NC310691  12.395  22.493   9.190
  431POPC   PO410692  12.147  23.016   9.609
  431POPC   GL110693  12.142  22.932   9.181
  431POPC   GL210694  11.965  23.176   9.101
  431POPC   C1A10695  12.039  22.810   8.734
  431POPC   D2A10696  12.197  22.960   8.339
  431POPC   C3A10697  12.282  22.648   8.070
  431POPC   C4A10698  12.056  22.683   7.738
  431POPC   C1B10699  11.658  23.158   8.779
  431POPC   C2B10700  11.697  22.996   8.397
  431POPC   C3B10701  11.788  23.029   7.979
  431POPC   C4B10702  11.731  23.186   7.549
  432POPC   NC310703  43.476  30.455   9.942
  432POPC   PO410704  42.978  30.527   9.491
  432POPC   GL110705  43.111  30.688   9.127
  432POPC   GL210706  43.394  30.486   9.021
  432POPC   C1A10707  42.883  30.912   8.817
  432POPC   D2A10708  42.940  31.002   8.421
  432POPC   C3A10709  42.828  30.687   8.139
  432POPC   C4A10710  42.736  30.801   7.744
  432POPC   C1B10711  43.379  30.799   8.687
  432POPC   C2B10712  43.328  30.672   8.267
  432POPC   C3B10713  43.304  30.800   7.856
  432POPC   C4B10714  43.585  30.895   7.497
  433POPC   NC310715  34.616  21.813   9.582
  433POPC   PO410716  34.371  22.451   9.387
  433POPC   GL110717  34.679  22.244   9.146
  433POPC   GL210718  34.481  21.965   9.122
  433POPC   C1A10719  34.595  22.268   8.708
  433POPC   D2A10720  34.291  22.192   8.363
  433POPC   C3A10721  34.519  22.273   7.987
  433POPC   C4A10722  34.798  22.574   7.748
  433POPC   C1B10723  34.298  21.826   8.743
  433POPC   C2B10724  34.199  21.691   8.336
  433POPC   C3B10725  34.142  21.883   7.924
  433POPC   C4B10726  34.430  21.993   7.586
  434POPC   NC310727  39.363  33.280   9.488
  434POPC   PO410728  39.195  33.989   9.443
  434POPC   GL110729  39.169  33.726   9.141
  434POPC   GL210730  39.459  33.573   9.102
  434POPC   C1A10731  39.316  33.869   8.741
  434POPC   D2A10732  39.147  34.037   8.390
  434POPC   C3A10733  39.365  33.973   8.032
  434POPC   C4A10734  38.984  33.935   7.799
  434POPC   C1B10735  39.631  33.401   8.744
  434POPC   C2B10736  39.614  33.609   8.361
  434POPC   C3B10737  39.600  33.508   7.938
  434POPC   C4B10738  39.519  33.585   7.507
  435POPC   NC310739  35.770  35.778   9.306
  435POPC   PO410740  36.197  36.199   9.601
  435POPC   GL110741  36.115  36.341   9.119
  435POPC   GL210742  35.944  36.646   9.049
  435POPC   C1A10743  36.232  36.257   8.665
  435POPC   D2A10744  36.143  35.854   8.410
  435POPC   C3A10745  36.022  35.890   7.944
  435POPC   C4A10746  36.092  36.007   7.480
  435POPC   C1B10747  35.933  36.674   8.602
  435POPC   C2B10748  36.175  36.559   8.238
  435POPC   C3B10749  36.136  36.387   7.831
  435POPC   C4B10750  35.859  36.441   7.506
  436POPC   NC310751  21.209  15.980   9.473
  436POPC   PO410752  21.661  15.516   9.644
  436POPC   GL110753  21.465  15.581   9.242
  436POPC   GL210754  21.155  15.543   9.193
  436POPC   C1A10755  21.445  15.647   8.775
  436POPC   D2A10756  21.613  15.910   8.425
  436POPC   C3A10757  21.409  15.945   8.058
  436POPC   C4A10758  21.239  16.277   7.826
  436POPC   C1B10759  20.925  15.696   8.859
  436POPC   C2B10760  21.052  15.849   8.460
  436POPC   C3B10761  20.889  15.869   8.070
  436POPC   C4B10762  21.079  15.828   7.676
  437POPC   NC310763  13.970  27.714   9.518
  437POPC   PO410764  13.302  27.659   9.582
  437POPC   GL110765  13.594  27.650   9.166
  437POPC   GL210766  13.889  27.412   9.108
  437POPC   C1A10767  13.598  27.561   8.701
  437POPC   D2A10768  13.854  27.525   8.360
  437POPC   C3A10769  13.649  27.619   7.967
  437POPC   C4A10770  13.441  27.574   7.499
  437POPC   C1B10771  14.023  27.195   8.746
  437POPC   C2B10772  13.956  26.974   8.371
  437POPC   C3B10773  13.922  27.201   7.988
  437POPC   C4B10774  13.922  27.437   7.604
  438POPC   NC310775  36.618  27.496   9.299
  438POPC   PO410776  37.132  27.798   9.550
  438POPC   GL110777  37.145  27.788   9.114
  438POPC   GL210778  37.336  28.071   9.068
  438POPC   C1A10779  36.930  27.631   8.719
  438POPC   D2A10780  36.814  27.338   8.361
  438POPC   C3A10781  36.694  27.485   7.941
  438POPC   C4A10782  36.932  27.454   7.547
  438POPC   C1B10783  37.388  27.992   8.679
  438POPC   C2B10784  37.144  27.902   8.355
  438POPC   C3B10785  37.155  27.668   8.012
  438POPC   C4B10786  37.400  27.641   7.660
  439POPC   NC310787  17.137  29.580   9.652
  439POPC   PO410788  17.401  28.938   9.534
  439POPC   GL110789  17.384  29.073   9.136
  439POPC   GL210790  17.212  28.770   9.050
  439POPC   C1A10791  17.505  29.294   8.756
  439POPC   D2A10792  17.308  29.440   8.365
  439POPC   C3A10793  17.477  29.290   7.956
  439POPC   C4A10794  17.502  29.414   7.513
  439POPC   C1B10795  17.362  28.776   8.673
  439POPC   C2B10796  17.257  28.649   8.274
  439POPC   C3B10797  17.128  28.894   7.937
  439POPC   C4B10798  17.319  28.953   7.544
  440POPC   NC310799  16.413  11.443   9.493
  440POPC   PO410800  15.835  11.077   9.498
  440POPC   GL110801  15.747  11.307   9.142
  440POPC   GL210802  15.900  11.611   9.237
  440POPC   C1A10803  15.833  11.210   8.707
  440POPC   D2A10804  16.129  11.066   8.381
  440POPC   C3A10805  15.968  10.954   7.980
  440POPC   C4A10806  15.848  11.186   7.612
  440POPC   C1B10807  16.113  11.626   8.842
  440POPC   C2B10808  16.001  11.581   8.397
  440POPC   C3B10809  16.150  11.458   7.986
  440POPC   C4B10810  16.338  11.816   7.823
  441POPC   NC310811   8.965  30.653   9.521
  441POPC   PO410812   8.258  30.828   9.559
  441POPC   GL110813   8.211  30.905   9.125
  441POPC   GL210814   7.902  30.736   9.146
  441POPC   C1A10815   8.271  30.975   8.657
  441POPC   D2A10816   8.514  30.949   8.243
  441POPC   C3A10817   8.247  30.973   7.880
  441POPC   C4A10818   7.826  31.076   7.828
  441POPC   C1B10819   8.135  30.511   8.809
  441POPC   C2B10820   8.321  30.477   8.410
  441POPC   C3B10821   8.373  30.422   7.979
  441POPC   C4B10822   8.244  30.549   7.553
  442POPC   NC310823  13.189  12.907   9.270
  442POPC   PO410824  13.847  12.689   9.556
  442POPC   GL110825  13.785  12.694   9.147
  442POPC   GL210826  13.465  12.520   9.129
  442POPC   C1A10827  13.980  12.884   8.784
  442POPC   D2A10828  13.751  13.159   8.483
  442POPC   C3A10829  13.773  13.042   8.053
  442POPC   C4A10830  13.692  12.831   7.658
  442POPC   C1B10831  13.305  12.534   8.694
  442POPC   C2B10832  13.419  12.806   8.355
  442POPC   C3B10833  13.265  12.941   7.971
  442POPC   C4B10834  13.243  12.574   7.773
  443POPC   NC310835  30.939   0.971   9.422
  443POPC   PO410836  30.681   1.532   9.462
  443POPC   GL110837  30.564   1.310   9.121
  443POPC   GL210838  30.280   1.526   9.101
  443POPC   C1A10839  30.690   1.042   8.744
  443POPC   D2A10840  30.868   1.179   8.328
  443POPC   C3A10841  30.640   1.145   7.925
  443POPC   C4A10842  30.656   1.019   7.475
  443POPC   C1B10843  30.269   1.330   8.715
  443POPC   C2B10844  30.388   1.357   8.317
  443POPC   C3B10845  30.219   1.429   7.898
  443POPC   C4B10846  30.144   1.148   7.569
  444POPC   NC310847  20.000  30.048   9.438
  444POPC   PO410848  19.264  30.039   9.414
  444POPC   GL110849  19.589  30.203   9.173
  444POPC   GL210850  19.670  29.844   9.126
  444POPC   C1A10851  19.855  30.217   8.789
  444POPC   D2A10852  19.822  30.035   8.374
  444POPC   C3A10853  19.986  30.032   7.995
  444POPC   C4A10854  19.916  30.272   7.635
  444POPC   C1B10855  19.753  29.697   8.742
  444POPC   C2B10856  19.968  29.555   8.412
  444POPC   C3B10857  19.822  29.561   8.042
  444POPC   C4B10858  20.122  29.464   7.774
  445POPC   NC310859  15.362  34.262   9.780
  445POPC   PO410860  15.381  34.921   9.508
  445POPC   GL110861  15.207  34.749   9.196
  445POPC   GL210862  15.103  34.432   9.346
  445POPC   C1A10863  15.295  34.796   8.790
  445POPC   D2A10864  15.442  34.503   8.518
  445POPC   C3A10865  15.247  34.524   8.143
  445POPC   C4A10866  15.195  34.771   7.804
  445POPC   C1B10867  15.107  34.319   8.915
  445POPC   C2B10868  14.932  34.344   8.521
  445POPC   C3B10869  14.890  34.139   8.139
  445POPC   C4B10870  15.044  34.263   7.728
  446POPC   NC310871  17.251  40.487   9.924
  446POPC   PO410872  17.743  40.930   9.644
  446POPC   GL110873  17.635  40.952   9.197
  446POPC   GL210874  17.684  40.631   9.034
  446POPC   C1A10875  17.556  41.128   8.775
  446POPC   D2A10876  17.811  41.124   8.398
  446POPC   C3A10877  17.614  41.082   8.005
  446POPC   C4A10878  17.457  40.916   7.622
  446POPC   C1B10879  17.450  40.641   8.686
  446POPC   C2B10880  17.655  40.639   8.328
  446POPC   C3B10881  17.681  40.545   7.931
  446POPC   C4B10882  17.387  40.410   7.710
  447POPC   NC310883   5.732  21.506   9.509
  447POPC   PO410884   6.251  20.959   9.448
  447POPC   GL110885   5.934  21.206   9.144
  447POPC   GL210886   5.949  21.608   9.082
  447POPC   C1A10887   6.032  21.325   8.703
  447POPC   D2A10888   5.785  21.472   8.384
  447POPC   C3A10889   5.762  21.247   7.982
  447POPC   C4A10890   5.998  21.267   7.603
  447POPC   C1B10891   5.543  21.573   8.860
  447POPC   C2B10892   5.288  21.648   8.486
  447POPC   C3B10893   5.382  21.574   8.055
  447POPC   C4B10894   5.604  21.618   7.667
  448POPC   NC310895  20.226  27.136   9.433
  448POPC   PO410896  20.519  26.556   9.592
  448POPC   GL110897  20.645  26.638   9.148
  448POPC   GL210898  20.524  26.908   9.124
  448POPC   C1A10899  20.804  26.836   8.728
  448POPC   D2A10900  20.823  26.819   8.336
  448POPC   C3A10901  20.942  27.020   7.995
  448POPC   C4A10902  20.895  26.762   7.678
  448POPC   C1B10903  20.228  26.783   8.801
  448POPC   C2B10904  20.183  26.921   8.368
  448POPC   C3B10905  20.430  26.878   8.027
  448POPC   C4B10906  20.485  27.039   7.664
  449POPC   NC310907  43.009  29.357   9.462
  449POPC   PO410908  43.447  28.778   9.456
  449POPC   GL110909  43.310  29.065   9.148
  449POPC   GL210910  43.010  28.909   9.159
  449POPC   C1A10911  43.199  29.356   8.796
  449POPC   D2A10912  43.276  29.192   8.412
  449POPC   C3A10913  43.422  29.364   8.046
  449POPC   C4A10914  43.086  29.398   7.769
  449POPC   C1B10915  42.886  28.960   8.751
  449POPC   C2B10916  42.755  29.117   8.337
  449POPC   C3B10917  42.811  28.930   7.929
  449POPC   C4B10918  43.051  28.781   7.569
  450POPC   NC310919  36.079  15.650   9.681
  450POPC   PO410920  36.265  16.295   9.529
  450POPC   GL110921  36.246  15.891   9.251
  450POPC   GL210922  35.925  15.825   9.142
  450POPC   C1A10923  36.329  15.724   8.801
  450POPC   D2A10924  36.164  15.744   8.358
  450POPC   C3A10925  36.167  15.648   7.912
  450POPC   C4A10926  36.280  15.860   7.527
  450POPC   C1B10927  36.049  16.158   8.799
  450POPC   C2B10928  35.896  16.169   8.368
  450POPC   C3B10929  36.110  16.162   7.970
  450POPC   C4B10930  35.882  16.217   7.604
  451POPC   NC310931   4.238  18.387   9.594
  451POPC   PO410932   4.829  18.016   9.409
  451POPC   GL110933   4.468  18.249   9.176
  451POPC   GL210934   4.101  18.120   9.181
  451POPC   C1A10935   4.407  18.441   8.771
  451POPC   D2A10936   4.693  18.433   8.413
  451POPC   C3A10937   4.517  18.428   7.992
  451POPC   C4A10938   4.575  18.367   7.563
  451POPC   C1B10939   3.914  18.364   8.856
  451POPC   C2B10940   3.909  18.308   8.441
  451POPC   C3B10941   3.982  18.370   8.020
  451POPC   C4B10942   4.094  18.536   7.629
  452POPC   NC310943   2.424  31.226   9.243
  452POPC   PO410944   2.719  31.860   9.474
  452POPC   GL110945   2.669  31.626   9.101
  452POPC   GL210946   2.890  31.302   9.067
  452POPC   C1A10947   2.627  31.486   8.676
  452POPC   D2A10948   2.482  31.666   8.308
  452POPC   C3A10949   2.595  31.497   7.934
  452POPC   C4A10950   2.623  31.656   7.545
  452POPC   C1B10951   3.121  31.619   8.851
  452POPC   C2B10952   3.073  31.745   8.443
  452POPC   C3B10953   3.071  31.532   8.088
  452POPC   C4B10954   3.003  31.304   7.715
  453POPC   NC310955  14.944  39.159   9.351
  453POPC   PO410956  15.468  39.580   9.567
  453POPC   GL110957  15.277  39.481   9.149
  453POPC   GL210958  15.321  39.094   9.016
  453POPC   C1A10959  15.094  39.449   8.736
  453POPC   D2A10960  15.237  39.343   8.335
  453POPC   C3A10961  15.105  39.616   7.999
  453POPC   C4A10962  15.068  39.609   7.580
  453POPC   C1B10963  14.951  38.946   8.706
  453POPC   C2B10964  14.929  38.942   8.241
  453POPC   C3B10965  15.089  39.130   7.843
  453POPC   C4B10966  15.003  39.122   7.384
  454POPC   NC310967  43.860  28.580   9.531
  454POPC   PO410968  43.564  27.986   9.620
  454POPC   GL110969  43.730  28.184   9.223
  454POPC   GL210970  44.090  28.211   9.247
  454POPC   C1A10971  43.705  28.303   8.780
  454POPC   D2A10972  43.469  28.353   8.370
  454POPC   C3A10973  43.749  28.562   8.118
  454POPC   C4A10974  43.901  28.623   7.704
  454POPC   C1B10975  44.166  28.502   8.909
  454POPC   C2B10976  44.098  28.482   8.471
  454POPC   C3B10977  44.233  28.404   8.028
  454POPC   C4B10978  44.417  28.715   7.743
  455POPC   NC310979  31.306   6.370   9.222
  455POPC   PO410980  31.469   7.028   9.462
  455POPC   GL110981  31.530   6.863   9.080
  455POPC   GL210982  31.851   7.035   9.050
  455POPC   C1A10983  31.251   6.874   8.724
  455POPC   D2A10984  31.339   7.021   8.316
  455POPC   C3A10985  31.325   6.660   8.020
  455POPC   C4A10986  31.240   6.626   7.578
  455POPC   C1B10987  31.759   6.903   8.619
  455POPC   C2B10988  31.598   6.512   8.452
  455POPC   C3B10989  31.775   6.332   8.094
  455POPC   C4B10990  31.759   6.592   7.727
  456POPC   NC310991  23.624   9.753   9.637
  456POPC   PO410992  23.758  10.389   9.626
  456POPC   GL110993  23.600  10.115   9.268
  456POPC   GL210994  23.874   9.871   9.217
  456POPC   C1A10995  23.484   9.886   8.886
  456POPC   D2A10996  23.708   9.651   8.514
  456POPC   C3A10997  23.504   9.696   8.109
  456POPC   C4A10998  23.458   9.912   7.735
  456POPC   C1B10999  23.970   9.984   8.793
  456POPC   C2B11000  24.132  10.049   8.378
  456POPC   C3B11001  23.948   9.908   7.970
  456POPC   C4B11002  23.920   9.804   7.509
  457POPC   NC311003  21.107  13.461   9.439
  457POPC   PO411004  21.739  13.341   9.383
  457POPC   GL111005  21.477  13.449   9.090
  457POPC   GL211006  21.315  13.760   9.075
  457POPC   C1A11007  21.217  13.350   8.758
  457POPC   D2A11008  21.270  13.660   8.477
  457POPC   C3A11009  21.139  13.641   8.080
  457POPC   C4A11010  21.358  13.667   7.724
  457POPC   C1B11011  21.643  13.847   8.778
  457POPC   C2B11012  21.635  13.999   8.335
  457POPC   C3B11013  21.770  13.896   7.919
  457POPC   C4B11014  21.616  14.015   7.454
  458POPC   NC311015  18.381   7.201   9.563
  458POPC   PO411016  18.040   7.691   9.416
  458POPC   GL111017  18.281   7.514   9.124
  458POPC   GL211018  18.178   7.164   9.113
  458POPC   C1A11019  18.313   7.422   8.692
  458POPC   D2A11020  18.270   7.309   8.268
  458POPC   C3A11021  18.502   7.547   7.955
  458POPC   C4A11022  18.493   7.205   7.684
  458POPC   C1B11023  17.922   7.094   8.781
  458POPC   C2B11024  17.945   6.910   8.393
  458POPC   C3B11025  17.786   7.174   8.103
  458POPC   C4B11026  18.021   7.424   7.797
  459POPC   NC311027  31.280  11.793   9.554
  459POPC   PO411028  31.498  12.426   9.577
  459POPC   GL111029  31.568  12.156   9.257
  459POPC   GL211030  31.283  12.156   9.130
  459POPC   C1A11031  31.711  12.042   8.844
  459POPC   D2A11032  31.567  11.856   8.439
  459POPC   C3A11033  31.718  11.915   8.021
  459POPC   C4A11034  31.463  11.886   7.633
  459POPC   C1B11035  31.188  11.928   8.783
  459POPC   C2B11036  31.181  12.160   8.388
  459POPC   C3B11037  31.294  12.227   7.962
  459POPC   C4B11038  31.148  12.579   7.721
  460POPC   NC311039  13.686  40.398   9.649
  460POPC   PO411040  14.023  41.011   9.505
  460POPC   GL111041  13.818  40.849   9.063
  460POPC   GL211042  13.522  40.637   9.204
  460POPC   C1A11043  13.747  40.928   8.626
  460POPC   D2A11044  13.709  40.658   8.268
  460POPC   C3A11045  13.732  40.848   7.854
  460POPC   C4A11046  13.966  41.024   7.502
  460POPC   C1B11047  13.347  40.639   8.782
  460POPC   C2B11048  13.173  40.485   8.376
  460POPC   C3B11049  13.299  40.570   7.956
  460POPC   C4B11050  13.336  40.736   7.525
  461POPC   NC311051  20.139  36.204   9.555
  461POPC   PO411052  19.654  35.942   9.638
  461POPC   GL111053  19.693  36.244   9.243
  461POPC   GL211054  20.000  36.376   9.085
  461POPC   C1A11055  19.586  36.213   8.784
  461POPC   D2A11056  19.552  36.007   8.359
  461POPC   C3A11057  19.622  36.227   7.964
  461POPC   C4A11058  19.721  36.155   7.514
  461POPC   C1B11059  20.085  36.180   8.675
  461POPC   C2B11060  20.056  36.069   8.234
  461POPC   C3B11061  20.112  36.255   7.853
  461POPC   C4B11062  20.237  36.180   7.452
  462POPC   NC311063  13.957   2.889   9.476
  462POPC   PO411064  13.367   3.134   9.461
  462POPC   GL111065  13.569   2.954   9.101
  462POPC   GL211066  13.858   3.131   9.051
  462POPC   C1A11067  13.591   2.722   8.698
  462POPC   D2A11068  13.628   2.596   8.263
  462POPC   C3A11069  13.423   2.757   7.900
  462POPC   C4A11070  13.603   2.530   7.625
  462POPC   C1B11071  13.981   3.047   8.673
  462POPC   C2B11072  14.084   2.847   8.295
  462POPC   C3B11073  13.877   2.941   7.915
  462POPC   C4B11074  13.993   3.008   7.476
  463POPC   NC311075   6.516  33.352   9.417
  463POPC   PO411076   6.958  33.794   9.343
  463POPC   GL111077   6.809  33.658   8.955
  463POPC   GL211078   6.463  33.676   9.035
  463POPC   C1A11079   6.906  33.903   8.580
  463POPC   D2A11080   6.732  34.052   8.192
  463POPC   C3A11081   6.822  33.938   7.772
  463POPC   C4A11082   6.964  33.553   7.595
  463POPC   C1B11083   6.319  33.496   8.646
  463POPC   C2B11084   6.622  33.545   8.379
  463POPC   C3B11085   6.655  33.527   8.008
  463POPC   C4B11086   6.440  33.560   7.678
  464POPC   NC311087  39.797  19.042   9.542
  464POPC   PO411088  40.444  18.696   9.623
  464POPC   GL111089  40.327  18.827   9.162
  464POPC   GL211090  40.148  19.146   9.138
  464POPC   C1A11091  40.182  18.955   8.690
  464POPC   D2A11092  39.803  18.877   8.398
  464POPC   C3A11093  39.865  18.850   7.929
  464POPC   C4A11094  40.085  19.046   7.541
  464POPC   C1B11095  39.802  19.321   8.882
  464POPC   C2B11096  39.732  19.418   8.453
  464POPC   C3B11097  39.927  19.347   8.048
  464POPC   C4B11098  39.853  19.482   7.639
  465POPC   NC311099  39.963  20.829   9.602
  465POPC   PO411100  39.525  20.277   9.670
  465POPC   GL111101  39.773  20.543   9.247
  465POPC   GL211102  39.788  20.900   9.142
  465POPC   C1A11103  40.055  20.409   8.877
  465POPC   D2A11104  40.205  20.544   8.500
  465POPC   C3A11105  40.144  20.361   8.114
  465POPC   C4A11106  40.042  20.493   7.730
  465POPC   C1B11107  39.959  20.922   8.741
  465POPC   C2B11108  39.771  20.790   8.350
  465POPC   C3B11109  39.979  20.910   8.035
  465POPC   C4B11110  40.042  21.005   7.650
  466POPC   NC311111   9.662  15.891   9.600
  466POPC   PO411112   9.609  16.335   9.126
  466POPC   GL111113   9.844  15.913   9.062
  466POPC   GL211114   9.845  15.567   9.236
  466POPC   C1A11115   9.944  15.746   8.649
  466POPC   D2A11116  10.133  15.900   8.256
  466POPC   C3A11117   9.884  16.039   7.878
  466POPC   C4A11118   9.706  16.127   7.447
  466POPC   C1B11119   9.588  15.435   8.877
  466POPC   C2B11120   9.605  15.409   8.422
  466POPC   C3B11121   9.805  15.523   8.037
  466POPC   C4B11122   9.677  15.648   7.613
  467POPC   NC311123  34.345  12.476   9.199
  467POPC   PO411124  34.454  11.885   9.395
  467POPC   GL111125  34.613  11.918   8.988
  467POPC   GL211126  34.260  11.991   8.916
  467POPC   C1A11127  34.857  11.961   8.581
  467POPC   D2A11128  34.879  12.349   8.301
  467POPC   C3A11129  34.825  12.217   7.874
  467POPC   C4A11130  34.496  11.979   7.670
  467POPC   C1B11131  34.415  12.195   8.583
  467POPC   C2B11132  34.433  12.088   8.186
  467POPC   C3B11133  34.358  12.425   7.955
  467POPC   C4B11134  34.068  12.579   7.652
  468POPC   NC311135   6.158  32.174   9.615
  468POPC   PO411136   6.801  32.145   9.557
  468POPC   GL111137   6.775  32.247   9.124
  468POPC   GL211138   6.420  32.367   9.136
  468POPC   C1A11139   6.630  32.117   8.716
  468POPC   D2A11140   6.544  32.319   8.349
  468POPC   C3A11141   6.907  32.197   8.163
  468POPC   C4A11142   6.831  32.017   7.804
  468POPC   C1B11143   6.155  32.122   8.869
  468POPC   C2B11144   6.140  31.969   8.457
  468POPC   C3B11145   6.360  31.942   8.072
  468POPC   C4B11146   6.361  32.151   7.720
  469POPC   NC311147   3.828   5.167   9.662
  469POPC   PO411148   4.346   4.918   9.575
  469POPC   GL111149   4.295   5.097   9.161
  469POPC   GL211150   4.118   5.415   9.217
  469POPC   C1A11151   4.375   5.018   8.716
  469POPC   D2A11152   4.159   5.204   8.373
  469POPC   C3A11153   4.285   5.040   7.980
  469POPC   C4A11154   4.221   5.046   7.544
  469POPC   C1B11155   4.341   5.508   8.833
  469POPC   C2B11156   4.489   5.596   8.435
  469POPC   C3B11157   4.302   5.593   8.037
  469POPC   C4B11158   4.447   5.536   7.624
  470POPC   NC311159  17.371   5.117   9.562
  470POPC   PO411160  17.320   4.516   9.371
  470POPC   GL111161  17.593   4.860   9.121
  470POPC   GL211162  17.570   5.241   9.110
  470POPC   C1A11163  17.798   5.041   8.710
  470POPC   D2A11164  17.943   5.060   8.258
  470POPC   C3A11165  17.639   5.140   7.879
  470POPC   C4A11166  17.276   4.859   7.779
  470POPC   C1B11167  17.286   5.131   8.769
  470POPC   C2B11168  17.372   5.100   8.311
  470POPC   C3B11169  17.142   5.312   7.949
  470POPC   C4B11170  16.991   5.261   7.478
  471POPC   NC311171  27.179   3.595   9.510
  471POPC   PO411172  27.794   3.284   9.715
  471POPC   GL111173  27.788   3.677   9.319
  471POPC   GL211174  27.444   3.722   9.101
  471POPC   C1A11175  27.833   3.709   8.793
  471POPC   D2A11176  27.797   3.469   8.402
  471POPC   C3A11177  27.744   3.690   8.011
  471POPC   C4A11178  27.573   3.872   7.645
  471POPC   C1B11179  27.346   3.624   8.635
  471POPC   C2B11180  27.263   3.605   8.158
  471POPC   C3B11181  27.342   3.375   7.734
  471POPC   C4B11182  27.149   3.079   7.386
  472POPC   NC311183  18.058  34.893   9.579
  472POPC   PO411184  18.193  34.236   9.677
  472POPC   GL111185  18.089  34.480   9.298
  472POPC   GL211186  18.393  34.584   9.201
  472POPC   C1A11187  18.063  34.757   8.875
  472POPC   D2A11188  18.326  34.865   8.521
  472POPC   C3A11189  18.249  34.666   8.136
  472POPC   C4A11190  18.229  34.644   7.680
  472POPC   C1B11191  18.523  34.449   8.763
  472POPC   C2B11192  18.707  34.524   8.341
  472POPC   C3B11193  18.690  34.532   7.896
  472POPC   C4B11194  18.566  34.259   7.579
  473POPC   NC311195  37.615  37.446   9.441
  473POPC   PO411196  38.189  37.774   9.575
  473POPC   GL111197  37.899  37.775   9.180
  473POPC   GL211198  37.519  37.892   9.194
  473POPC   C1A11199  37.694  37.616   8.770
  473POPC   D2A11200  37.904  37.538   8.361
  473POPC   C3A11201  37.703  37.466   7.956
  473POPC   C4A11202  37.751  37.741   7.612
  473POPC   C1B11203  37.287  38.045   8.820
  473POPC   C2B11204  37.356  38.141   8.383
  473POPC   C3B11205  37.505  37.932   8.030
  473POPC   C4B11206  37.235  37.788   7.700
  474POPC   NC311207  18.935  15.935   9.503
  474POPC   PO411208  19.619  16.066   9.510
  474POPC   GL111209  19.422  15.895   9.147
  474POPC   GL211210  19.114  15.716   9.084
  474POPC   C1A11211  19.344  15.967   8.717
  474POPC   D2A11212  19.131  16.035   8.358
  474POPC   C3A11213  19.263  15.914   7.964
  474POPC   C4A11214  19.023  16.167   7.671
  474POPC   C1B11215  18.805  15.790   8.830
  474POPC   C2B11216  18.694  15.706   8.454
  474POPC   C3B11217  18.755  15.875   8.041
  474POPC   C4B11218  18.699  15.726   7.657
  475POPC   NC311219  30.214  31.820   9.653
  475POPC   PO411220  29.780  31.413   9.821
  475POPC   GL111221  29.748  31.253   9.291
  475POPC   GL211222  29.494  31.430   9.093
  475POPC   C1A11223  29.938  31.364   8.858
  475POPC   D2A11224  29.971  31.172   8.468
  475POPC   C3A11225  30.244  31.291   8.139
  475POPC   C4A11226  30.040  31.405   7.748
  475POPC   C1B11227  29.478  31.183   8.691
  475POPC   C2B11228  29.534  31.294   8.243
  475POPC   C3B11229  29.547  31.316   7.772
  475POPC   C4B11230  29.692  31.154   7.349
  476POPC   NC311231  30.102  20.122   9.659
  476POPC   PO411232  29.792  19.469   9.497
  476POPC   GL111233  29.842  19.754   9.183
  476POPC   GL211234  30.195  19.757   9.180
  476POPC   C1A11235  29.687  19.801   8.740
  476POPC   D2A11236  29.821  19.718   8.297
  476POPC   C3A11237  29.715  20.071   7.985
  476POPC   C4A11238  29.520  20.027   7.563
  476POPC   C1B11239  30.173  19.675   8.720
  476POPC   C2B11240  30.339  19.799   8.309
  476POPC   C3B11241  30.135  19.796   7.895
  476POPC   C4B11242  29.776  19.552   7.781
  477POPC   NC311243  39.683  34.001   9.331
  477POPC   PO411244  39.811  33.369   9.389
  477POPC   GL111245  39.969  33.617   9.101
  477POPC   GL211246  40.274  33.569   9.152
  477POPC   C1A11247  39.911  33.843   8.738
  477POPC   D2A11248  40.102  34.093   8.447
  477POPC   C3A11249  39.871  33.969   8.103
  477POPC   C4A11250  39.893  33.910   7.717
  477POPC   C1B11251  40.432  33.845   8.823
  477POPC   C2B11252  40.591  33.855   8.389
  477POPC   C3B11253  40.382  33.929   7.996
  477POPC   C4B11254  40.410  33.786   7.566
  478POPC   NC311255  31.917  17.886   9.808
  478POPC   PO411256  31.381  17.663   9.486
  478POPC   GL111257  31.530  17.605   9.093
  478POPC   GL211258  31.362  17.310   9.019
  478POPC   C1A11259  31.608  17.786   8.689
  478POPC   D2A11260  31.436  17.846   8.265
  478POPC   C3A11261  31.611  17.881   7.836
  478POPC   C4A11262  31.347  17.725   7.468
  478POPC   C1B11263  31.667  17.216   8.749
  478POPC   C2B11264  31.712  17.404   8.353
  478POPC   C3B11265  31.458  17.420   7.988
  478POPC   C4B11266  31.613  17.334   7.584
  479POPC   NC311267   0.368   8.853   9.529
  479POPC   PO411268   0.060   8.353   9.105
  479POPC   GL111269   0.189   8.787   9.036
  479POPC   GL211270   0.553   8.933   9.051
  479POPC   C1A11271   0.283   8.821   8.606
  479POPC   D2A11272   0.607   8.844   8.308
  479POPC   C3A11273   0.496   8.762   7.911
  479POPC   C4A11274   0.656   8.639   7.553
  479POPC   C1B11275   0.626   9.180   8.685
  479POPC   C2B11276   0.940   9.219   8.362
  479POPC   C3B11277   0.799   9.172   7.926
  479POPC   C4B11278   0.628   9.154   7.485
  480POPC   NC311279   0.405  41.003   9.433
  480POPC   PO411280   0.748  40.465   9.513
  480POPC   GL111281   0.521  40.541   9.130
  480POPC   GL211282   0.156  40.495   9.187
  480POPC   C1A11283   0.338  40.776   8.761
  480POPC   D2A11284   0.207  40.962   8.360
  480POPC   C3A11285   0.476  40.947   7.981
  480POPC   C4A11286   0.359  40.779   7.581
  480POPC   C1B11287   0.152  40.303   8.772
  480POPC   C2B11288   0.287  40.389   8.325
  480POPC   C3B11289   0.081  40.608   7.978
  480POPC   C4B11290  44.897  41.033   7.916
  481POPC   NC311291   0.750  39.108   9.464
  481POPC   PO411292   0.247  39.599   9.505
  481POPC   GL111293   0.432  39.374   9.156
  481POPC   GL211294   0.333  38.999   9.161
  481POPC   C1A11295   0.671  39.196   8.800
  481POPC   D2A11296   0.765  39.337   8.385
  481POPC   C3A11297   0.367  39.437   8.145
  481POPC   C4A11298   0.376  39.356   7.697
  481POPC   C1B11299   0.166  39.146   8.755
  481POPC   C2B11300  44.905  39.166   8.370
  481POPC   C3B11301   0.020  39.061   7.943
  481POPC   C4B11302   0.193  38.902   7.506
  482POPC   NC311303   6.356   5.382   9.789
  482POPC   PO411304   6.746   4.925   9.388
  482POPC   GL111305   6.586   4.937   9.002
  482POPC   GL211306   6.832   5.200   8.922
  482POPC   C1A11307   6.371   5.204   8.696
  482POPC   D2A11308   6.333   5.434   8.359
  482POPC   C3A11309   6.333   5.201   7.992
  482POPC   C4A11310   6.466   5.314   7.579
  482POPC   C1B11311   6.780   4.937   8.537
  482POPC   C2B11312   6.796   5.036   8.111
  482POPC   C3B11313   6.773   4.919   7.671
  482POPC   C4B11314   6.887   4.883   7.233
  483POPC   NC311315  29.134  23.399   9.426
  483POPC   PO411316  28.799  23.890   9.452
  483POPC   GL111317  28.894  23.667   9.067
  483POPC   GL211318  28.715  23.372   9.107
  483POPC   C1A11319  29.067  23.519   8.668
  483POPC   D2A11320  29.265  23.538   8.238
  483POPC   C3A11321  29.211  23.892   7.934
  483POPC   C4A11322  29.335  24.055   7.498
  483POPC   C1B11323  28.553  23.492   8.709
  483POPC   C2B11324  28.663  23.421   8.324
  483POPC   C3B11325  28.831  23.500   7.971
  483POPC   C4B11326  28.726  23.281   7.647
  484POPC   NC311327  20.687  11.041   9.376
  484POPC   PO411328  20.460  10.290   9.497
  484POPC   GL111329  20.507  10.578   9.219
  484POPC   GL211330  20.835  10.574   9.271
  484POPC   C1A11331  20.490  10.718   8.796
  484POPC   D2A11332  20.583  10.471   8.429
  484POPC   C3A11333  20.589  10.644   8.053
  484POPC   C4A11334  20.515  10.398   7.694
  484POPC   C1B11335  21.009  10.797   8.888
  484POPC   C2B11336  20.928  10.856   8.444
  484POPC   C3B11337  21.124  10.704   8.077
  484POPC   C4B11338  20.938  10.687   7.664
  485POPC   NC311339  10.138   2.506   9.385
  485POPC   PO411340   9.660   2.888   9.603
  485POPC   GL111341   9.615   2.778   9.138
  485POPC   GL211342   9.450   2.477   9.196
  485POPC   C1A11343   9.825   2.905   8.681
  485POPC   D2A11344  10.002   2.647   8.352
  485POPC   C3A11345  10.057   2.820   7.943
  485POPC   C4A11346   9.798   2.742   7.624
  485POPC   C1B11347   9.704   2.431   8.773
  485POPC   C2B11348   9.689   2.246   8.338
  485POPC   C3B11349   9.854   2.284   7.879
  485POPC   C4B11350   9.786   2.257   7.399
  486POPC   NC311351  28.071  36.564   9.873
  486POPC   PO411352  27.489  36.643   9.533
  486POPC   GL111353  27.730  36.926   9.248
  486POPC   GL211354  27.466  37.093   9.077
  486POPC   C1A11355  27.888  36.940   8.815
  486POPC   D2A11356  27.904  36.733   8.402
  486POPC   C3A11357  27.839  36.905   7.982
  486POPC   C4A11358  27.525  36.657   7.802
  486POPC   C1B11359  27.263  37.143   8.655
  486POPC   C2B11360  27.463  37.128   8.251
  486POPC   C3B11361  27.359  37.120   7.812
  486POPC   C4B11362  27.126  36.942   7.444
  487POPC   NC311363  34.933  30.977   9.410
  487POPC   PO411364  34.272  30.991   9.610
  487POPC   GL111365  34.486  30.771   9.218
  487POPC   GL211366  34.514  31.077   9.044
  487POPC   C1A11367  34.439  30.740   8.692
  487POPC   D2A11368  34.819  30.627   8.423
  487POPC   C3A11369  34.951  30.609   7.990
  487POPC   C4A11370  34.629  30.590   7.683
  487POPC   C1B11371  34.862  31.034   8.764
  487POPC   C2B11372  34.779  31.131   8.353
  487POPC   C3B11373  34.582  30.980   8.010
  487POPC   C4B11374  34.882  31.032   7.697
  488POPC   NC311375   5.527   9.312   9.925
  488POPC   PO411376   5.848   8.825   9.602
  488POPC   GL111377   5.999   8.981   9.209
  488POPC   GL211378   6.168   9.284   9.280
  488POPC   C1A11379   5.864   8.978   8.767
  488POPC   D2A11380   5.980   8.723   8.400
  488POPC   C3A11381   5.783   8.730   7.986
  488POPC   C4A11382   6.045   8.805   7.624
  488POPC   C1B11383   6.316   9.217   8.848
  488POPC   C2B11384   6.159   9.257   8.429
  488POPC   C3B11385   6.032   9.168   8.023
  488POPC   C4B11386   5.705   9.180   7.707
  489POPC   NC311387   4.975  32.629   9.468
  489POPC   PO411388   5.253  33.223   9.679
  489POPC   GL111389   5.141  33.047   9.246
  489POPC   GL211390   4.795  32.986   9.169
  489POPC   C1A11391   5.138  32.927   8.790
  489POPC   D2A11392   5.294  32.717   8.404
  489POPC   C3A11393   5.472  32.989   8.068
  489POPC   C4A11394   5.230  33.283   7.805
  489POPC   C1B11395   4.605  32.917   8.775
  489POPC   C2B11396   4.756  32.903   8.377
  489POPC   C3B11397   4.783  33.099   7.985
  489POPC   C4B11398   4.893  32.915   7.606
  490POPC   NC311399  27.686  25.882   9.525
  490POPC   PO411400  27.466  26.481   9.618
  490POPC   GL111401  27.616  26.262   9.215
  490POPC   GL211402  27.392  25.946   9.107
  490POPC   C1A11403  27.789  26.115   8.806
  490POPC   D2A11404  27.559  26.013   8.421
  490POPC   C3A11405  27.802  26.069   8.050
  490POPC   C4A11406  27.981  26.248   7.674
  490POPC   C1B11407  27.566  25.634   8.794
  490POPC   C2B11408  27.477  25.492   8.384
  490POPC   C3B11409  27.514  25.621   7.972
  490POPC   C4B11410  27.735  25.813   7.619
  491POPC   NC311411  25.621  31.906   9.283
  491POPC   PO411412  25.259  32.386   9.565
  491POPC   GL111413  25.290  32.284   9.132
  491POPC   GL211414  24.985  32.134   9.063
  491POPC   C1A11415  25.346  32.238   8.678
  491POPC   D2A11416  25.484  32.244   8.248
  491POPC   C3A11417  25.346  32.183   7.865
  491POPC   C4A11418  25.559  32.308   7.538
  491POPC   C1B11419  24.850  32.300   8.671
  491POPC   C2B11420  24.942  32.193   8.250
  491POPC   C3B11421  24.853  32.274   7.839
  491POPC   C4B11422  25.086  32.469   7.510
  492POPC   NC311423  16.167  16.421   9.570
  492POPC   PO411424  16.263  17.038   9.576
  492POPC   GL111425  16.063  16.777   9.186
  492POPC   GL211426  15.820  16.485   9.179
  492POPC   C1A11427  15.863  16.717   8.743
  492POPC   D2A11428  15.888  16.854   8.305
  492POPC   C3A11429  16.064  16.783   7.889
  492POPC   C4A11430  16.418  16.722   7.554
  492POPC   C1B11431  15.723  16.229   8.810
  492POPC   C2B11432  15.687  16.384   8.341
  492POPC   C3B11433  15.682  16.350   7.890
  492POPC   C4B11434  15.710  16.587   7.504
  493POPC   NC311435  34.490  18.887   9.537
  493POPC   PO411436  35.110  19.260   9.421
  493POPC   GL111437  34.864  19.074   9.123
  493POPC   GL211438  34.511  19.151   9.108
  493POPC   C1A11439  34.819  18.985   8.704
  493POPC   D2A11440  35.027  19.091   8.315
  493POPC   C3A11441  34.796  18.981   7.956
  493POPC   C4A11442  34.441  18.872   7.712
  493POPC   C1B11443  34.455  19.356   8.752
  493POPC   C2B11444  34.512  19.210   8.353
  493POPC   C3B11445  34.407  19.326   7.974
  493POPC   C4B11446  34.689  19.425   7.646
  494POPC   NC311447  33.653  12.668   9.546
  494POPC   PO411448  34.343  12.893   9.425
  494POPC   GL111449  33.943  12.987   9.192
  494POPC   GL211450  33.825  12.694   9.053
  494POPC   C1A11451  33.672  13.065   8.787
  494POPC   D2A11452  33.620  12.826   8.417
  494POPC   C3A11453  33.897  12.768   8.098
  494POPC   C4A11454  33.811  13.000   7.744
  494POPC   C1B11455  33.456  12.511   8.775
  494POPC   C2B11456  33.225  12.498   8.361
  494POPC   C3B11457  33.403  12.621   7.982
  494POPC   C4B11458  33.496  12.646   7.565
  495POPC   NC311459  15.826  31.486   9.427
  495POPC   PO411460  16.394  31.875   9.396
  495POPC   GL111461  16.174  31.674   9.104
  495POPC   GL211462  16.208  31.303   9.148
  495POPC   C1A11463  15.917  31.586   8.774
  495POPC   D2A11464  15.574  31.680   8.504
  495POPC   C3A11465  15.679  31.642   8.076
  495POPC   C4A11466  15.928  31.387   7.811
  495POPC   C1B11467  16.201  31.163   8.746
  495POPC   C2B11468  16.084  31.308   8.344
  495POPC   C3B11469  16.335  31.186   8.023
  495POPC   C4B11470  16.426  31.291   7.644
  496POPC   NC311471  41.277  40.616   9.551
  496POPC   PO411472  41.719  41.133   9.522
  496POPC   GL111473  41.542  40.883   9.195
  496POPC   GL211474  41.726  40.562   9.159
  496POPC   C1A11475  41.508  40.769   8.757
  496POPC   D2A11476  41.323  40.578   8.430
  496POPC   C3A11477  41.419  40.826   8.082
  496POPC   C4A11478  41.492  41.024   7.717
  496POPC   C1B11479  41.938  40.545   8.711
  496POPC   C2B11480  41.848  40.610   8.249
  496POPC   C3B11481  41.822  40.616   7.791
  496POPC   C4B11482  41.640  40.634   7.402
  497POPC   NC311483  23.858  28.162   9.626
  497POPC   PO411484  23.566  28.755   9.447
  497POPC   GL111485  23.577  28.368   9.216
  497POPC   GL211486  23.921  28.264   9.137
  497POPC   C1A11487  23.598  28.375   8.777
  497POPC   D2A11488  23.605  28.693   8.494
  497POPC   C3A11489  23.616  28.518   8.110
  497POPC   C4A11490  23.494  28.419   7.703
  497POPC   C1B11491  23.988  28.038   8.781
  497POPC   C2B11492  23.707  28.056   8.401
  497POPC   C3B11493  23.740  28.042   7.955
  497POPC   C4B11494  24.013  28.350   7.712
  498POPC   NC311495  43.045  23.213   9.468
  498POPC   PO411496  42.953  22.600   9.708
  498POPC   GL111497  43.130  22.745   9.226
  498POPC   GL211498  43.389  23.013   9.152
  498POPC   C1A11499  43.025  22.792   8.772
  498POPC   D2A11500  43.038  22.615   8.334
  498POPC   C3A11501  43.021  22.829   7.926
  498POPC   C4A11502  42.897  23.254   7.789
  498POPC   C1B11503  43.514  22.979   8.754
  498POPC   C2B11504  43.301  23.048   8.408
  498POPC   C3B11505  43.337  23.225   8.048
  498POPC   C4B11506  43.501  23.008   7.741
  499POPC   NC311507  39.432  25.173  10.053
  499POPC   PO411508  40.007  25.383   9.721
  499POPC   GL111509  40.134  25.289   9.292
  499POPC   GL211510  40.484  25.133   9.252
  499POPC   C1A11511  40.175  25.448   8.856
  499POPC   D2A11512  40.038  25.658   8.480
  499POPC   C3A11513  40.177  25.475   8.099
  499POPC   C4A11514  40.018  25.443   7.708
  499POPC   C1B11515  40.247  24.956   8.913
  499POPC   C2B11516  40.161  25.060   8.476
  499POPC   C3B11517  40.353  24.979   8.075
  499POPC   C4B11518  40.535  24.879   7.689
  500POPC   NC311519  16.013  20.539   9.504
  500POPC   PO411520  16.526  20.452   9.304
  500POPC   GL111521  16.151  20.571   9.000
  500POPC   GL211522  15.852  20.811   9.106
  500POPC   C1A11523  16.198  20.493   8.532
  500POPC   D2A11524  16.400  20.267   8.177
  500POPC   C3A11525  16.130  20.446   7.878
  500POPC   C4A11526  16.175  20.832   7.687
  500POPC   C1B11527  15.829  20.819   8.650
  500POPC   C2B11528  15.728  20.565   8.255
  500POPC   C3B11529  15.686  20.767   7.835
  500POPC   C4B11530  15.866  21.215   7.780
  501POPC   NC311531  26.923  39.910   9.793
  501POPC   PO411532  26.426  40.301   9.613
  501POPC   GL111533  26.600  40.008   9.280
  501POPC   GL211534  26.945  39.957   9.195
  501POPC   C1A11535  26.534  39.809   8.862
  501POPC   D2A11536  26.682  39.963   8.437
  501POPC   C3A11537  26.822  39.753   8.045
  501POPC   C4A11538  26.482  39.656   7.775
  501POPC   C1B11539  26.835  40.235   8.859
  501POPC   C2B11540  26.987  40.391   8.487
  501POPC   C3B11541  27.063  40.227   8.100
  501POPC   C4B11542  27.090  40.314   7.672
  502POPC   NC311543  18.373  17.545   9.673
  502POPC   PO411544  17.808  17.590   9.675
  502POPC   GL111545  18.029  17.503   9.231
  502POPC   GL211546  18.368  17.343   9.191
  502POPC   C1A11547  18.075  17.443   8.735
  502POPC   D2A11548  18.347  17.372   8.334
  502POPC   C3A11549  18.206  17.395   7.858
  502POPC   C4A11550  18.297  17.254   7.392
  502POPC   C1B11551  18.580  17.568   8.839
  502POPC   C2B11552  18.717  17.720   8.421
  502POPC   C3B11553  18.663  17.614   7.985
  502POPC   C4B11554  18.696  17.236   7.741
  503POPC   NC311555  40.407  39.850   9.469
  503POPC   PO411556  40.933  40.265   9.487
  503POPC   GL111557  40.827  40.033   9.152
  503POPC   GL211558  40.519  40.204   9.132
  503POPC   C1A11559  40.991  39.950   8.722
  503POPC   D2A11560  40.974  39.842   8.265
  503POPC   C3A11561  40.872  40.176   7.950
  503POPC   C4A11562  40.907  40.095   7.498
  503POPC   C1B11563  40.454  39.903   8.805
  503POPC   C2B11564  40.516  40.034   8.405
  503POPC   C3B11565  40.385  39.972   8.008
  503POPC   C4B11566  40.436  40.194   7.625
  504POPC   NC311567  12.732  18.135   9.725
  504POPC   PO411568  13.287  18.431   9.621
  504POPC   GL111569  13.025  18.442   9.231
  504POPC   GL211570  12.721  18.227   9.183
  504POPC   C1A11571  12.998  18.385   8.773
  504POPC   D2A11572  13.091  18.180   8.378
  504POPC   C3A11573  12.980  18.351   7.970
  504POPC   C4A11574  13.082  18.189   7.546
  504POPC   C1B11575  12.498  18.344   8.782
  504POPC   C2B11576  12.664  18.442   8.360
  504POPC   C3B11577  12.485  18.520   7.948
  504POPC   C4B11578  12.582  18.752   7.549
  505POPC   NC311579  12.982  16.022  10.017
  505POPC   PO411580  12.479  16.038   9.544
  505POPC   GL111581  12.635  16.017   9.143
  505POPC   GL211582  12.985  16.086   9.139
  505POPC   C1A11583  12.702  15.809   8.753
  505POPC   D2A11584  12.854  15.946   8.345
  505POPC   C3A11585  12.700  15.729   7.973
  505POPC   C4A11586  12.583  15.900   7.546
  505POPC   C1B11587  13.191  16.012   8.754
  505POPC   C2B11588  13.366  16.005   8.331
  505POPC   C3B11589  13.167  15.961   7.915
  505POPC   C4B11590  13.074  16.027   7.459
  506POPC   NC311591  29.128  42.618   9.629
  506POPC   PO411592  29.365  43.297   9.520
  506POPC   GL111593  29.268  43.098   9.120
  506POPC   GL211594  28.932  43.222   9.043
  506POPC   C1A11595  29.105  42.906   8.705
  506POPC   D2A11596  29.147  42.585   8.387
  506POPC   C3A11597  29.089  42.788   7.988
  506POPC   C4A11598  29.318  42.941   7.650
  506POPC   C1B11599  28.975  43.569   8.717
  506POPC   C2B11600  28.919  43.435   8.288
  506POPC   C3B11601  29.085  43.309   7.895
  506POPC   C4B11602  28.993  43.309   7.424
  507POPC   NC311603  12.565  42.365   9.719
  507POPC   PO411604  11.928  42.210   9.676
  507POPC   GL111605  12.210  42.257   9.327
  507POPC   GL211606  12.094  42.524   9.105
  507POPC   C1A11607  12.187  42.066   8.909
  507POPC   D2A11608  12.127  42.333   8.532
  507POPC   C3A11609  12.123  42.260   8.084
  507POPC   C4A11610  12.435  42.552   7.902
  507POPC   C1B11611  11.730  42.342   8.861
  507POPC   C2B11612  11.632  42.278   8.409
  507POPC   C3B11613  11.611  42.386   7.991
  507POPC   C4B11614  11.772  42.270   7.577
  508POPC   NC311615   6.447   9.919   9.888
  508POPC   PO411616   6.944   9.950   9.485
  508POPC   GL111617   6.756   9.774   9.150
  508POPC   GL211618   6.459   9.656   9.050
  508POPC   C1A11619   6.886   9.638   8.767
  508POPC   D2A11620   6.915   9.393   8.409
  508POPC   C3A11621   6.968   9.568   8.028
  508POPC   C4A11622   6.933   9.445   7.610
  508POPC   C1B11623   6.489   9.993   8.765
  508POPC   C2B11624   6.681   9.932   8.396
  508POPC   C3B11625   6.592   9.996   8.022
  508POPC   C4B11626   6.530   9.705   7.753
  509POPC   NC311627   6.614  22.725   9.375
  509POPC   PO411628   7.034  23.172   9.482
  509POPC   GL111629   6.860  23.028   9.064
  509POPC   GL211630   6.528  23.154   9.112
  509POPC   C1A11631   6.763  22.680   8.733
  509POPC   D2A11632   6.499  22.696   8.358
  509POPC   C3A11633   6.658  22.873   7.997
  509POPC   C4A11634   6.806  22.682   7.676
  509POPC   C1B11635   6.415  23.038   8.733
  509POPC   C2B11636   6.416  23.195   8.328
  509POPC   C3B11637   6.234  23.130   7.918
  509POPC   C4B11638   6.370  23.046   7.464
  510POPC   NC311639  44.493  19.448   9.552
  510POPC   PO411640  44.676  20.111   9.562
  510POPC   GL111641  44.677  19.776   9.191
  510POPC   GL211642  44.398  19.524   9.076
  510POPC   C1A11643  44.713  19.721   8.720
  510POPC   D2A11644  44.767  20.000   8.388
  510POPC   C3A11645  44.962  19.816   8.043
  510POPC   C4A11646  44.907  19.848   7.603
  510POPC   C1B11647  44.287  19.929   8.899
  510POPC   C2B11648  44.248  19.939   8.484
  510POPC   C3B11649  44.440  19.683   8.161
  510POPC   C4B11650  44.393  19.766   7.752
  511POPC   NC311651  12.018  21.788   9.501
  511POPC   PO411652  11.967  22.494   9.419
  511POPC   GL111653  12.047  22.117   9.134
  511POPC   GL211654  12.357  21.854   9.117
  511POPC   C1A11655  12.055  21.974   8.744
  511POPC   D2A11656  12.089  22.282   8.441
  511POPC   C3A11657  12.013  22.067   8.076
  511POPC   C4A11658  11.788  22.158   7.733
  511POPC   C1B11659  12.563  22.007   8.711
  511POPC   C2B11660  12.563  22.221   8.281
  511POPC   C3B11661  12.442  22.224   7.832
  511POPC   C4B11662  12.497  22.568   7.559
  512POPC   NC311663   2.028  41.324   9.442
  512POPC   PO411664   1.585  41.749   9.329
  512POPC   GL111665   1.889  41.595   9.017
  512POPC   GL211666   2.154  41.318   8.957
  512POPC   C1A11667   1.899  41.567   8.586
  512POPC   D2A11668   2.133  41.677   8.295
  512POPC   C3A11669   2.005  41.449   7.982
  512POPC   C4A11670   1.763  41.596   7.687
  512POPC   C1B11671   1.810  41.095   8.733
  512POPC   C2B11672   1.578  41.185   8.344
  512POPC   C3B11673   1.560  41.163   7.889
  512POPC   C4B11674   1.886  41.104   7.578
  513POPC   NC311675  39.545  21.713   9.390
  513POPC   PO411676  39.259  22.227   9.711
  513POPC   GL111677  39.185  22.337   9.209
  513POPC   GL211678  39.242  22.074   8.975
  513POPC   C1A11679  38.916  22.451   8.827
  513POPC   D2A11680  39.102  22.472   8.401
  513POPC   C3A11681  38.929  22.361   7.990
  513POPC   C4A11682  39.199  22.378   7.619
  513POPC   C1B11683  39.335  21.662   8.761
  513POPC   C2B11684  39.374  21.605   8.336
  513POPC   C3B11685  39.346  21.917   8.013
  513POPC   C4B11686  39.701  21.987   7.726
  514POPC   NC311687  13.394  29.847   9.998
  514POPC   PO411688  13.815  29.627   9.439
  514POPC   GL111689  13.675  29.822   9.140
  514POPC   GL211690  13.370  29.923   9.282
  514POPC   C1A11691  13.598  30.092   8.821
  514POPC   D2A11692  13.823  30.181   8.454
  514POPC   C3A11693  13.812  29.908   8.071
  514POPC   C4A11694  13.840  30.091   7.681
  514POPC   C1B11695  13.293  29.682   8.852
  514POPC   C2B11696  13.448  29.794   8.434
  514POPC   C3B11697  13.303  29.983   8.076
  514POPC   C4B11698  13.416  29.820   7.680
  515POPC   NC311699  33.299   4.532   9.523
  515POPC   PO411700  32.782   4.178   9.817
  515POPC   GL111701  32.865   4.430   9.354
  515POPC   GL211702  32.686   4.580   9.175
  515POPC   C1A11703  33.080   4.353   8.899
  515POPC   D2A11704  33.068   4.492   8.444
  515POPC   C3A11705  33.192   4.318   8.021
  515POPC   C4A11706  33.141   4.499   7.599
  515POPC   C1B11707  32.570   4.349   8.820
  515POPC   C2B11708  32.644   4.062   8.488
  515POPC   C3B11709  32.699   4.267   8.093
  515POPC   C4B11710  32.847   4.091   7.698
  516POPC   NC311711   1.043  41.242   9.593
  516POPC   PO411712   1.341  41.779   9.802
  516POPC   GL111713   1.165  41.526   9.220
  516POPC   GL211714   1.253  41.821   8.953
  516POPC   C1A11715   1.286  41.356   8.793
  516POPC   D2A11716   1.407  41.663   8.452
  516POPC   C3A11717   1.259  41.531   8.047
  516POPC   C4A11718   1.274  41.601   7.598
  516POPC   C1B11719   0.941  41.755   8.652
  516POPC   C2B11720   0.826  41.864   8.236
  516POPC   C3B11721   1.093  41.983   7.878
  516POPC   C4B11722   1.023  42.044   7.414
  517POPC   NC311723   6.250  13.255   9.456
  517POPC   PO411724   6.405  12.605   9.419
  517POPC   GL111725   6.537  12.917   9.133
  517POPC   GL211726   6.193  12.946   9.041
  517POPC   C1A11727   6.631  12.890   8.673
  517POPC   D2A11728   6.705  13.137   8.293
  517POPC   C3A11729   6.788  12.855   7.940
  517POPC   C4A11730   6.431  12.924   7.715
  517POPC   C1B11731   6.270  12.538   8.797
  517POPC   C2B11732   6.546  12.441   8.417
  517POPC   C3B11733   6.391  12.516   7.986
  517POPC   C4B11734   6.410  12.459   7.521
  518POPC   NC311735   5.215  44.846   9.377
  518POPC   PO411736   4.746  44.394   9.572
  518POPC   GL111737   4.913  44.452   9.161
  518POPC   GL211738   5.250  44.418   9.062
  518POPC   C1A11739   4.784  44.298   8.761
  518POPC   D2A11740   4.905  44.144   8.360
  518POPC   C3A11741   5.037  44.467   8.073
  518POPC   C4A11742   5.369  44.657   7.876
  518POPC   C1B11743   5.125  44.693   8.743
  518POPC   C2B11744   5.060   0.063   8.534
  518POPC   C3B11745   5.031   0.230   8.160
  518POPC   C4B11746   4.988  44.999   7.794
  519POPC   NC311747  36.272  38.379   9.543
  519POPC   PO411748  35.891  38.839   9.460
  519POPC   GL111749  36.207  38.692   9.130
  519POPC   GL211750  36.399  38.350   9.056
  519POPC   C1A11751  36.195  38.670   8.692
  519POPC   D2A11752  36.282  38.839   8.277
  519POPC   C3A11753  36.108  38.559   7.953
  519POPC   C4A11754  35.805  38.409   7.625
  519POPC   C1B11755  36.181  38.158   8.746
  519POPC   C2B11756  36.001  38.197   8.352
  519POPC   C3B11757  36.251  38.069   8.041
  519POPC   C4B11758  36.305  38.196   7.657
  520POPC   NC311759  41.003  37.679   9.764
  520POPC   PO411760  40.447  37.858   9.502
  520POPC   GL111761  40.805  37.685   9.256
  520POPC   GL211762  41.010  37.940   9.138
  520POPC   C1A11763  40.885  37.533   8.840
  520POPC   D2A11764  40.689  37.654   8.473
  520POPC   C3A11765  40.750  37.568   8.087
  520POPC   C4A11766  40.499  37.600   7.736
  520POPC   C1B11767  40.846  38.068   8.707
  520POPC   C2B11768  40.957  38.049   8.214
  520POPC   C3B11769  40.905  37.930   7.750
  520POPC   C4B11770  41.085  37.893   7.277
  521POPC   NC311771  38.484  26.333   9.563
  521POPC   PO411772  38.247  25.650   9.453
  521POPC   GL111773  38.328  25.789   9.068
  521POPC   GL211774  38.553  26.072   9.106
  521POPC   C1A11775  38.198  25.877   8.660
  521POPC   D2A11776  38.008  26.002   8.277
  521POPC   C3A11777  38.133  25.874   7.901
  521POPC   C4A11778  38.444  25.661   7.701
  521POPC   C1B11779  38.733  25.914   8.727
  521POPC   C2B11780  38.565  26.023   8.333
  521POPC   C3B11781  38.557  26.135   7.930
  521POPC   C4B11782  38.545  26.093   7.448
  522POPC   NC311783  42.546  20.874   9.366
  522POPC   PO411784  42.089  20.389   9.587
  522POPC   GL111785  42.229  20.470   9.181
  522POPC   GL211786  42.540  20.483   9.000
  522POPC   C1A11787  42.083  20.465   8.765
  522POPC   D2A11788  42.143  20.634   8.349
  522POPC   C3A11789  42.133  20.416   7.964
  522POPC   C4A11790  42.486  20.400   7.671
  522POPC   C1B11791  42.450  20.830   8.731
  522POPC   C2B11792  42.497  20.991   8.324
  522POPC   C3B11793  42.373  20.893   7.921
  522POPC   C4B11794  42.739  20.836   7.737
  523POPC   NC311795  27.501  24.096   9.379
  523POPC   PO411796  27.322  24.747   9.462
  523POPC   GL111797  27.424  24.523   9.108
  523POPC   GL211798  27.751  24.436   9.045
  523POPC   C1A11799  27.248  24.227   8.804
  523POPC   D2A11800  27.281  24.058   8.394
  523POPC   C3A11801  27.638  24.237   8.178
  523POPC   C4A11802  27.653  24.522   7.815
  523POPC   C1B11803  27.621  24.526   8.629
  523POPC   C2B11804  27.644  24.758   8.276
  523POPC   C3B11805  28.021  24.757   8.109
  523POPC   C4B11806  28.158  24.753   7.731
  524POPC   NC311807  29.492  13.491   9.493
  524POPC   PO411808  29.004  13.954   9.534
  524POPC   GL111809  29.268  13.872   9.201
  524POPC   GL211810  29.107  13.542   9.148
  524POPC   C1A11811  29.394  13.758   8.779
  524POPC   D2A11812  29.423  13.515   8.369
  524POPC   C3A11813  29.227  13.691   7.966
  524POPC   C4A11814  28.938  13.975   7.725
  524POPC   C1B11815  29.172  13.276   8.791
  524POPC   C2B11816  29.034  13.127   8.401
  524POPC   C3B11817  28.939  13.231   7.990
  524POPC   C4B11818  29.292  13.209   7.707
  525POPC   NC311819  44.353   3.967   9.432
  525POPC   PO411820  44.364   3.250   9.634
  525POPC   GL111821  44.557   3.452   9.217
  525POPC   GL211822  44.922   3.463   9.104
  525POPC   C1A11823  44.520   3.488   8.752
  525POPC   D2A11824  44.627   3.727   8.389
  525POPC   C3A11825  44.582   3.614   7.963
  525POPC   C4A11826  44.950   3.439   7.806
  525POPC   C1B11827  44.958   3.816   8.793
  525POPC   C2B11828   0.004   4.072   8.412
  525POPC   C3B11829   0.010   3.916   7.978
  525POPC   C4B11830   0.338   3.769   7.677
  526POPC   NC311831   8.795  11.704   9.450
  526POPC   PO411832   8.901  12.326   9.646
  526POPC   GL111833   8.972  12.182   9.179
  526POPC   GL211834   9.204  11.880   9.201
  526POPC   C1A11835   8.752  12.142   8.698
  526POPC   D2A11836   8.853  12.378   8.291
  526POPC   C3A11837   8.835  12.130   7.925
  526POPC   C4A11838   8.669  11.722   7.780
  526POPC   C1B11839   9.208  11.947   8.786
  526POPC   C2B11840   9.068  11.912   8.355
  526POPC   C3B11841   9.291  11.927   7.991
  526POPC   C4B11842   9.322  12.144   7.625
  527POPC   NC311843  16.168  24.427   9.659
  527POPC   PO411844  15.711  24.832   9.455
  527POPC   GL111845  15.795  24.620   9.089
  527POPC   GL211846  16.121  24.439   9.075
  527POPC   C1A11847  15.888  24.838   8.726
  527POPC   D2A11848  16.106  24.807   8.342
  527POPC   C3A11849  15.854  24.680   7.989
  527POPC   C4A11850  15.822  24.309   7.715
  527POPC   C1B11851  16.044  24.342   8.619
  527POPC   C2B11852  16.039  24.243   8.170
  527POPC   C3B11853  16.300  24.218   7.774
  527POPC   C4B11854  16.295  24.206   7.312
  528POPC   NC311855  26.874  40.455   9.466
  528POPC   PO411856  26.490  41.016   9.636
  528POPC   GL111857  26.667  40.870   9.228
  528POPC   GL211858  26.497  40.547   9.153
  528POPC   C1A11859  27.002  40.723   8.878
  528POPC   D2A11860  27.252  40.846   8.514
  528POPC   C3A11861  27.080  40.747   8.115
  528POPC   C4A11862  27.130  40.876   7.702
  528POPC   C1B11863  26.507  40.739   8.767
  528POPC   C2B11864  26.703  40.944   8.444
  528POPC   C3B11865  26.582  40.875   8.023
  528POPC   C4B11866  26.678  40.604   7.712
  529POPC   NC311867  18.164  38.830   9.498
  529POPC   PO411868  18.544  38.239   9.554
  529POPC   GL111869  18.252  38.365   9.247
  529POPC   GL211870  18.403  38.631   9.107
  529POPC   C1A11871  18.029  38.419   8.835
  529POPC   D2A11872  18.231  38.487   8.432
  529POPC   C3A11873  18.137  38.299   8.054
  529POPC   C4A11874  17.906  38.575   7.788
  529POPC   C1B11875  18.522  38.280   8.805
  529POPC   C2B11876  18.585  38.121   8.362
  529POPC   C3B11877  18.693  38.311   7.952
  529POPC   C4B11878  18.612  38.600   7.580
  530POPC   NC311879  42.066  26.974   9.565
  530POPC   PO411880  42.687  26.684   9.456
  530POPC   GL111881  42.478  26.848   9.093
  530POPC   GL211882  42.767  27.022   8.936
  530POPC   C1A11883  42.105  26.908   8.798
  530POPC   D2A11884  42.113  26.788   8.357
  530POPC   C3A11885  42.419  26.935   8.059
  530POPC   C4A11886  42.298  26.906   7.627
  530POPC   C1B11887  42.569  26.813   8.578
  530POPC   C2B11888  42.542  26.467   8.270
  530POPC   C3B11889  42.529  26.493   7.813
  530POPC   C4B11890  42.783  26.742   7.540
  531POPC   NC311891  28.950  16.417   9.468
  531POPC   PO411892  29.184  17.015   9.498
  531POPC   GL111893  29.155  16.874   9.147
  531POPC   GL211894  29.286  16.599   9.121
  531POPC   C1A11895  28.946  16.758   8.788
  531POPC   D2A11896  29.073  16.558   8.430
  531POPC   C3A11897  29.040  16.744   8.051
  531POPC   C4A11898  29.038  16.644   7.653
  531POPC   C1B11899  29.479  16.660   8.743
  531POPC   C2B11900  29.542  16.390   8.382
  531POPC   C3B11901  29.353  16.312   7.998
  531POPC   C4B11902  29.522  16.453   7.636
  532POPC   NC311903  37.180   7.540   9.366
  532POPC   PO411904  36.563   7.264   9.497
  532POPC   GL111905  36.737   7.347   9.117
  532POPC   GL211906  36.979   7.069   9.185
  532POPC   C1A11907  36.608   7.478   8.667
  532POPC   D2A11908  36.528   7.806   8.315
  532POPC   C3A11909  36.737   7.730   7.891
  532POPC   C4A11910  37.211   7.612   7.774
  532POPC   C1B11911  36.802   6.991   8.776
  532POPC   C2B11912  36.961   7.161   8.377
  532POPC   C3B11913  36.950   7.235   7.943
  532POPC   C4B11914  36.635   7.290   7.652
  533POPC   NC311915   0.782  18.187   9.670
  533POPC   PO411916   0.232  18.510   9.579
  533POPC   GL111917   0.358  18.227   9.250
  533POPC   GL211918   0.702  18.298   9.175
  533POPC   C1A11919   0.402  18.206   8.789
  533POPC   D2A11920   0.416  18.439   8.415
  533POPC   C3A11921   0.309  18.163   8.077
  533POPC   C4A11922   0.101  18.257   7.701
  533POPC   C1B11923   0.750  18.585   8.803
  533POPC   C2B11924   0.945  18.610   8.401
  533POPC   C3B11925   0.833  18.310   8.094
  533POPC   C4B11926   0.607  18.409   7.717
  534POPC   NC311927  40.257  21.609   9.570
  534POPC   PO411928  39.706  21.257   9.589
  534POPC   GL111929  39.949  21.373   9.230
  534POPC   GL211930  40.236  21.143   9.251
  534POPC   C1A11931  39.919  21.454   8.798
  534POPC   D2A11932  39.801  21.308   8.403
  534POPC   C3A11933  39.880  21.606   8.109
  534POPC   C4A11934  39.876  21.464   7.722
  534POPC   C1B11935  40.383  21.195   8.813
  534POPC   C2B11936  40.297  21.411   8.407
  534POPC   C3B11937  40.321  21.316   7.951
  534POPC   C4B11938  40.473  21.264   7.530
  535POPC   NC311939   4.146   5.880   9.474
  535POPC   PO411940   4.801   5.762   9.491
  535POPC   GL111941   4.569   5.845   9.120
  535POPC   GL211942   4.311   6.125   9.077
  535POPC   C1A11943   4.632   6.011   8.708
  535POPC   D2A11944   4.611   6.322   8.423
  535POPC   C3A11945   4.295   6.164   8.187
  535POPC   C4A11946   4.341   6.030   7.772
  535POPC   C1B11947   4.104   5.962   8.736
  535POPC   C2B11948   3.977   5.755   8.391
  535POPC   C3B11949   3.893   5.929   7.981
  535POPC   C4B11950   3.741   6.284   7.756
  536POPC   NC311951  26.178  14.868   9.487
  536POPC   PO411952  25.894  14.235   9.476
  536POPC   GL111953  26.053  14.408   9.122
  536POPC   GL211954  26.387  14.307   9.117
  536POPC   C1A11955  25.862  14.469   8.711
  536POPC   D2A11956  25.836  14.722   8.343
  536POPC   C3A11957  25.770  14.501   7.966
  536POPC   C4A11958  25.954  14.125   7.851
  536POPC   C1B11959  26.259  14.133   8.715
  536POPC   C2B11960  26.166  14.321   8.294
  536POPC   C3B11961  26.348  14.455   7.912
  536POPC   C4B11962  26.435  14.409   7.495
  537POPC   NC311963   3.004  28.723   9.716
  537POPC   PO411964   3.554  28.495   9.521
  537POPC   GL111965   3.624  28.554   9.098
  537POPC   GL211966   3.293  28.563   9.012
  537POPC   C1A11967   3.701  28.703   8.696
  537POPC   D2A11968   3.414  28.641   8.358
  537POPC   C3A11969   3.606  28.535   7.962
  537POPC   C4A11970   3.402  28.583   7.562
  537POPC   C1B11971   3.409  28.249   8.703
  537POPC   C2B11972   3.499  28.116   8.269
  537POPC   C3B11973   3.398  28.100   7.798
  537POPC   C4B11974   3.495  28.137   7.334
  538POPC   NC311975  39.257  22.658   9.592
  538POPC   PO411976  39.777  23.040   9.445
  538POPC   GL111977  39.465  22.879   9.169
  538POPC   GL211978  39.126  22.999   9.182
  538POPC   C1A11979  39.352  22.760   8.770
  538POPC   D2A11980  39.251  22.956   8.374
  538POPC   C3A11981  39.366  22.709   7.982
  538POPC   C4A11982  39.474  22.798   7.523
  538POPC   C1B11983  38.881  22.982   8.781
  538POPC   C2B11984  38.736  23.039   8.367
  538POPC   C3B11985  38.888  22.917   7.991
  538POPC   C4B11986  39.182  23.151   7.805
  539POPC   NC311987  25.875  30.837   9.547
  539POPC   PO411988  26.110  30.189   9.439
  539POPC   GL111989  26.199  30.396   9.092
  539POPC   GL211990  26.123  30.689   9.128
  539POPC   C1A11991  25.939  30.444   8.705
  539POPC   D2A11992  26.105  30.478   8.296
  539POPC   C3A11993  25.957  30.552   7.898
  539POPC   C4A11994  26.152  30.623   7.511
  539POPC   C1B11995  26.082  30.924   8.734
  539POPC   C2B11996  25.908  30.966   8.342
  539POPC   C3B11997  26.109  31.025   7.945
  539POPC   C4B11998  25.804  30.961   7.634
  540POPC   NC311999   5.720  37.377   9.512
  540POPC   PO412000   6.092  37.766   9.909
  540POPC   GL112001   6.060  37.742   9.300
  540POPC   GL212002   5.830  37.508   9.056
  540POPC   C1A12003   5.886  37.946   8.862
  540POPC   D2A12004   5.758  37.665   8.514
  540POPC   C3A12005   5.745  37.718   8.064
  540POPC   C4A12006   6.080  37.851   7.821
  540POPC   C1B12007   5.973  37.254   8.738
  540POPC   C2B12008   6.142  37.258   8.338
  540POPC   C3B12009   6.196  37.363   7.930
  540POPC   C4B12010   5.890  37.418   7.628
  541POPC   NC312011  40.597  32.202   9.508
  541POPC   PO412012  41.119  31.795   9.220
  541POPC   GL112013  40.842  32.160   9.060
  541POPC   GL212014  40.436  32.168   9.050
  541POPC   C1A12015  40.734  32.372   8.686
  541POPC   D2A12016  40.527  32.303   8.311
  541POPC   C3A12017  40.791  32.162   7.992
  541POPC   C4A12018  40.799  32.516   7.735
  541POPC   C1B12019  40.364  31.969   8.681
  541POPC   C2B12020  40.336  31.827   8.240
  541POPC   C3B12021  40.281  32.091   7.860
  541POPC   C4B12022  40.590  32.079   7.503
  542POPC   NC312023  29.646  33.551   9.649
  542POPC   PO412024  30.284  33.824   9.721
  542POPC   GL112025  29.990  33.850   9.315
  542POPC   GL212026  29.971  33.507   9.192
  542POPC   C1A12027  29.805  34.158   8.926
  542POPC   D2A12028  29.703  34.272   8.442
  542POPC   C3A12029  29.692  33.955   8.057
  542POPC   C4A12030  29.835  33.928   7.596
  542POPC   C1B12031  30.014  33.709   8.791
  542POPC   C2B12032  30.027  33.716   8.357
  542POPC   C3B12033  30.232  33.827   7.961
  542POPC   C4B12034  30.297  33.723   7.525
  543POPC   NC312035  14.657  35.638   9.537
  543POPC   PO412036  14.398  35.053   9.488
  543POPC   GL112037  14.399  35.243   9.111
  543POPC   GL212038  14.403  35.583   9.066
  543POPC   C1A12039  14.208  35.282   8.704
  543POPC   D2A12040  14.406  35.160   8.341
  543POPC   C3A12041  14.396  35.327   7.931
  543POPC   C4A12042  14.409  35.154   7.479
  543POPC   C1B12043  14.570  35.697   8.655
  543POPC   C2B12044  14.806  35.946   8.369
  543POPC   C3B12045  14.767  35.880   7.923
  543POPC   C4B12046  14.686  35.569   7.587
  544POPC   NC312047  38.809   9.504   9.277
  544POPC   PO412048  38.486  10.084   9.524
  544POPC   GL112049  38.350   9.800   9.153
  544POPC   GL212050  38.102   9.522   9.239
  544POPC   C1A12051  38.518   9.685   8.719
  544POPC   D2A12052  38.776   9.473   8.374
  544POPC   C3A12053  38.675   9.664   7.970
  544POPC   C4A12054  38.596  10.120   7.835
  544POPC   C1B12055  38.132   9.356   8.822
  544POPC   C2B12056  38.158   9.505   8.386
  544POPC   C3B12057  38.137   9.570   7.933
  544POPC   C4B12058  38.158   9.220   7.643
  545POPC   NC312059   8.322  43.724   9.288
  545POPC   PO412060   8.013  44.347   9.556
  545POPC   GL112061   8.096  44.169   9.135
  545POPC   GL212062   8.033  43.836   8.911
  545POPC   C1A12063   8.201  44.271   8.693
  545POPC   D2A12064   8.153  44.036   8.283
  545POPC   C3A12065   8.103  44.249   7.874
  545POPC   C4A12066   8.371  44.255   7.461
  545POPC   C1B12067   8.449  43.814   8.646
  545POPC   C2B12068   8.633  43.649   8.238
  545POPC   C3B12069   8.516  43.541   7.768
  545POPC   C4B12070   8.496  43.609   7.278
  546POPC   NC312071  28.236   4.857   9.647
  546POPC   PO412072  28.450   5.427   9.554
  546POPC   GL112073  28.362   5.139   9.243
  546POPC   GL212074  28.026   5.206   9.246
  546POPC   C1A12075  28.307   5.000   8.843
  546POPC   D2A12076  28.549   4.872   8.496
  546POPC   C3A12077  28.340   4.939   8.134
  546POPC   C4A12078  28.348   5.154   7.748
  546POPC   C1B12079  27.914   5.383   8.851
  546POPC   C2B12080  27.988   5.224   8.429
  546POPC   C3B12081  28.124   5.460   8.098
  546POPC   C4B12082  28.117   5.608   7.713
  547POPC   NC312083  27.876  13.483   9.765
  547POPC   PO412084  27.468  13.925   9.492
  547POPC   GL112085  27.496  13.677   9.096
  547POPC   GL212086  27.759  13.411   9.134
  547POPC   C1A12087  27.625  13.661   8.656
  547POPC   D2A12088  27.657  13.408   8.292
  547POPC   C3A12089  27.551  13.677   7.961
  547POPC   C4A12090  27.803  14.009   7.831
  547POPC   C1B12091  27.445  13.221   8.823
  547POPC   C2B12092  27.182  13.378   8.476
  547POPC   C3B12093  27.163  13.325   8.043
  547POPC   C4B12094  27.188  13.339   7.608
  548POPC   NC312095  29.623  18.940   9.414
  548POPC   PO412096  30.345  18.776   9.470
  548POPC   GL112097  30.067  18.951   9.178
  548POPC   GL212098  29.994  19.277   9.074
  548POPC   C1A12099  29.825  18.885   8.781
  548POPC   D2A12100  29.934  19.037   8.393
  548POPC   C3A12101  29.807  18.893   7.992
  548POPC   C4A12102  29.610  19.063   7.599
  548POPC   C1B12103  30.269  19.170   8.779
  548POPC   C2B12104  30.391  19.289   8.403
  548POPC   C3B12105  30.227  19.318   8.022
  548POPC   C4B12106  30.131  19.101   7.676
  549POPC   NC312107  20.987  19.697   9.881
  549POPC   PO412108  20.433  19.839   9.771
  549POPC   GL112109  20.600  19.792   9.333
  549POPC   GL212110  20.507  20.091   9.170
  549POPC   C1A12111  20.618  19.728   8.828
  549POPC   D2A12112  20.513  19.744   8.339
  549POPC   C3A12113  20.698  19.736   7.905
  549POPC   C4A12114  20.728  19.473   7.535
  549POPC   C1B12115  20.402  20.198   8.731
  549POPC   C2B12116  20.481  20.278   8.292
  549POPC   C3B12117  20.412  20.151   7.887
  549POPC   C4B12118  20.301  20.342   7.531
  550POPC   NC312119  18.051  36.187   9.360
  550POPC   PO412120  17.385  36.075   9.568
  550POPC   GL112121  17.326  36.172   9.151
  550POPC   GL212122  17.653  36.337   9.075
  550POPC   C1A12123  17.411  36.033   8.731
  550POPC   D2A12124  17.610  36.083   8.339
  550POPC   C3A12125  17.272  36.108   8.066
  550POPC   C4A12126  17.094  35.815   7.794
  550POPC   C1B12127  17.927  36.366   8.677
  550POPC   C2B12128  17.975  36.430   8.214
  550POPC   C3B12129  17.687  36.408   7.894
  550POPC   C4B12130  17.470  36.147   7.595
  551POPC   NC312131  13.752  42.936   9.523
  551POPC   PO412132  13.739  43.620   9.522
  551POPC   GL112133  13.497  43.373   9.156
  551POPC   GL212134  13.624  43.033   9.061
  551POPC   C1A12135  13.370  43.205   8.683
  551POPC   D2A12136  13.499  42.957   8.293
  551POPC   C3A12137  13.368  43.157   7.872
  551POPC   C4A12138  13.502  43.019   7.432
  551POPC   C1B12139  13.911  43.102   8.738
  551POPC   C2B12140  14.055  42.984   8.340
  551POPC   C3B12141  13.989  42.670   8.045
  551POPC   C4B12142  14.071  42.711   7.618
  552POPC   NC312143   1.044  38.497   9.539
  552POPC   PO412144   1.719  38.505   9.419
  552POPC   GL112145   1.559  38.413   9.043
  552POPC   GL212146   1.195  38.418   9.070
  552POPC   C1A12147   1.411  38.619   8.664
  552POPC   D2A12148   1.245  38.413   8.299
  552POPC   C3A12149   1.426  38.534   7.903
  552POPC   C4A12150   1.399  38.251   7.521
  552POPC   C1B12151   0.881  38.648   8.815
  552POPC   C2B12152   0.764  38.605   8.363
  552POPC   C3B12153   0.922  38.619   7.920
  552POPC   C4B12154   1.042  38.593   7.479
  553POPC   NC312155  40.395  24.236   9.429
  553POPC   PO412156  40.190  23.618   9.520
  553POPC   GL112157  39.966  23.735   9.171
  553POPC   GL212158  39.704  23.946   9.196
  553POPC   C1A12159  39.850  23.667   8.749
  553POPC   D2A12160  40.080  23.507   8.407
  553POPC   C3A12161  39.924  23.583   8.009
  553POPC   C4A12162  40.113  23.548   7.628
  553POPC   C1B12163  40.027  24.131   8.872
  553POPC   C2B12164  40.172  24.060   8.444
  553POPC   C3B12165  40.116  24.084   8.028
  553POPC   C4B12166  39.863  24.044   7.695
  554POPC   NC312167  29.768   5.358   9.310
  554POPC   PO412168  29.670   4.879   9.772
  554POPC   GL112169  29.846   4.804   9.323
  554POPC   GL212170  30.219   4.887   9.223
  554POPC   C1A12171  29.838   4.782   8.848
  554POPC   D2A12172  29.611   4.797   8.435
  554POPC   C3A12173  29.890   4.821   8.089
  554POPC   C4A12174  29.825   4.896   7.688
  554POPC   C1B12175  30.234   5.130   8.821
  554POPC   C2B12176  29.961   5.185   8.465
  554POPC   C3B12177  29.872   5.318   8.031
  554POPC   C4B12178  30.041   5.343   7.592
  555POPC   NC312179   0.091   6.026   9.342
  555POPC   PO412180   0.726   5.842   9.566
  555POPC   GL112181   0.576   5.869   9.200
  555POPC   GL212182   0.608   6.235   9.182
  555POPC   C1A12183   0.487   5.678   8.826
  555POPC   D2A12184   0.670   5.779   8.453
  555POPC   C3A12185   0.530   5.668   8.102
  555POPC   C4A12186   0.644   5.628   7.718
  555POPC   C1B12187   0.437   6.197   8.779
  555POPC   C2B12188   0.545   6.262   8.360
  555POPC   C3B12189   0.423   6.149   7.950
  555POPC   C4B12190   0.089   6.185   7.615
  556POPC   NC312191   1.465  18.404   9.352
  556POPC   PO412192   0.999  17.892   9.409
  556POPC   GL112193   1.162  18.113   9.077
  556POPC   GL212194   1.508  18.044   8.952
  556POPC   C1A12195   1.101  18.221   8.676
  556POPC   D2A12196   1.350  18.031   8.380
  556POPC   C3A12197   1.386  18.112   7.981
  556POPC   C4A12198   1.225  18.455   7.807
  556POPC   C1B12199   1.589  18.422   8.665
  556POPC   C2B12200   1.565  18.546   8.200
  556POPC   C3B12201   1.733  18.400   7.754
  556POPC   C4B12202   1.801  18.285   7.280
  557POPC   NC312203   8.705  32.606   9.421
  557POPC   PO412204   9.120  32.073   9.634
  557POPC   GL112205   9.137  32.088   9.158
  557POPC   GL212206   8.909  32.334   9.082
  557POPC   C1A12207   9.015  32.143   8.668
  557POPC   D2A12208   8.770  32.143   8.304
  557POPC   C3A12209   9.049  32.226   7.948
  557POPC   C4A12210   9.075  32.115   7.531
  557POPC   C1B12211   8.674  32.538   8.726
  557POPC   C2B12212   8.649  32.783   8.336
  557POPC   C3B12213   8.660  32.570   7.931
  557POPC   C4B12214   8.869  32.596   7.521
  558POPC   NC312215   3.323  42.404   9.450
  558POPC   PO412216   3.877  41.935   9.482
  558POPC   GL112217   3.667  42.151   9.150
  558POPC   GL212218   3.334  42.047   9.095
  558POPC   C1A12219   3.583  42.420   8.779
  558POPC   D2A12220   3.791  42.643   8.438
  558POPC   C3A12221   3.666  42.575   8.022
  558POPC   C4A12222   3.659  42.360   7.654
  558POPC   C1B12223   3.175  42.122   8.676
  558POPC   C2B12224   3.324  42.254   8.256
  558POPC   C3B12225   3.185  42.233   7.784
  558POPC   C4B12226   3.238  42.468   7.353
  559POPC   NC312227  12.528  33.322   9.469
  559POPC   PO412228  12.955  32.705   9.550
  559POPC   GL112229  13.054  32.822   9.147
  559POPC   GL212230  12.834  33.098   9.107
  559POPC   C1A12231  13.103  32.816   8.724
  559POPC   D2A12232  12.888  32.652   8.359
  559POPC   C3A12233  13.009  32.916   8.009
  559POPC   C4A12234  12.906  33.205   7.687
  559POPC   C1B12235  12.631  33.037   8.726
  559POPC   C2B12236  12.702  33.195   8.322
  559POPC   C3B12237  12.492  33.346   7.947
  559POPC   C4B12238  12.416  33.095   7.564
  560POPC   NC312239  19.641  38.829   9.405
  560POPC   PO412240  19.407  39.441   9.466
  560POPC   GL112241  19.273  39.224   9.148
  560POPC   GL212242  18.920  39.148   9.183
  560POPC   C1A12243  19.216  39.040   8.764
  560POPC   D2A12244  18.954  39.082   8.426
  560POPC   C3A12245  19.226  39.068   8.078
  560POPC   C4A12246  19.242  39.221   7.672
  560POPC   C1B12247  18.898  39.446   8.821
  560POPC   C2B12248  18.664  39.512   8.434
  560POPC   C3B12249  18.834  39.393   8.035
  560POPC   C4B12250  18.872  39.556   7.641
  561POPC   NC312251  43.109  32.134   9.461
  561POPC   PO412252  43.247  32.790   9.427
  561POPC   GL112253  43.306  32.467   9.129
  561POPC   GL212254  42.962  32.519   9.083
  561POPC   C1A12255  43.282  32.429   8.675
  561POPC   D2A12256  43.087  32.415   8.252
  561POPC   C3A12257  43.234  32.196   7.917
  561POPC   C4A12258  43.621  32.261   7.734
  561POPC   C1B12259  42.858  32.164   8.823
  561POPC   C2B12260  42.788  32.024   8.406
  561POPC   C3B12261  42.806  31.848   8.002
  561POPC   C4B12262  42.863  32.009   7.598
  562POPC   NC312263   7.791  15.229   9.453
  562POPC   PO412264   8.417  15.049   9.488
  562POPC   GL112265   8.149  15.061   9.145
  562POPC   GL212266   7.849  14.830   9.136
  562POPC   C1A12267   8.278  15.067   8.731
  562POPC   D2A12268   8.458  15.381   8.485
  562POPC   C3A12269   8.379  15.259   8.075
  562POPC   C4A12270   8.482  14.908   7.792
  562POPC   C1B12271   7.772  15.160   8.812
  562POPC   C2B12272   7.876  15.235   8.409
  562POPC   C3B12273   7.888  15.107   7.993
  562POPC   C4B12274   8.107  15.305   7.655
  563POPC   NC312275  44.249  38.827   9.615
  563POPC   PO412276  43.850  38.290   9.520
  563POPC   GL112277  44.097  38.500   9.235
  563POPC   GL212278  43.821  38.480   9.022
  563POPC   C1A12279  44.274  38.600   8.817
  563POPC   D2A12280  43.997  38.518   8.531
  563POPC   C3A12281  44.070  38.482   8.124
  563POPC   C4A12282  44.321  38.505   7.807
  563POPC   C1B12283  43.663  38.180   8.738
  563POPC   C2B12284  43.459  37.940   8.398
  563POPC   C3B12285  43.512  38.007   7.965
  563POPC   C4B12286  43.891  38.168   7.762
  564POPC   NC312287  37.398  16.927   9.394
  564POPC   PO412288  37.995  16.468   9.517
  564POPC   GL112289  37.894  16.607   9.113
  564POPC   GL212290  37.628  16.361   9.127
  564POPC   C1A12291  37.720  16.684   8.681
  564POPC   D2A12292  37.463  16.534   8.294
  564POPC   C3A12293  37.627  16.785   7.915
  564POPC   C4A12294  37.344  17.124   7.790
  564POPC   C1B12295  37.788  16.192   8.752
  564POPC   C2B12296  37.931  16.325   8.342
  564POPC   C3B12297  37.747  16.279   7.938
  564POPC   C4B12298  37.612  16.390   7.528
  565POPC   NC312299  21.974   8.930   9.491
  565POPC   PO412300  22.260   9.418   9.536
  565POPC   GL112301  22.351   9.142   9.164
  565POPC   GL212302  22.221   8.781   9.075
  565POPC   C1A12303  22.338   9.162   8.709
  565POPC   D2A12304  22.110   9.129   8.318
  565POPC   C3A12305  22.175   8.932   7.908
  565POPC   C4A12306  22.148   8.984   7.468
  565POPC   C1B12307  22.387   8.664   8.662
  565POPC   C2B12308  22.538   8.839   8.236
  565POPC   C3B12309  22.617   8.761   7.747
  565POPC   C4B12310  22.491   8.671   7.297
  566POPC   NC312311   6.460   3.602   9.626
  566POPC   PO412312   6.330   3.023   9.254
  566POPC   GL112313   6.537   3.436   9.141
  566POPC   GL212314   6.313   3.758   9.164
  566POPC   C1A12315   6.808   3.437   8.769
  566POPC   D2A12316   6.650   3.166   8.433
  566POPC   C3A12317   6.604   3.325   8.025
  566POPC   C4A12318   6.772   3.630   7.796
  566POPC   C1B12319   6.404   3.772   8.730
  566POPC   C2B12320   6.472   3.708   8.311
  566POPC   C3B12321   6.267   3.750   7.895
  566POPC   C4B12322   6.234   3.803   7.427
  567POPC   NC312323  37.235  24.864   9.551
  567POPC   PO412324  37.440  25.468   9.556
  567POPC   GL112325  36.986  25.442   9.342
  567POPC   GL212326  36.868  25.087   9.252
  567POPC   C1A12327  36.821  25.465   8.896
  567POPC   D2A12328  36.866  25.573   8.463
  567POPC   C3A12329  36.587  25.474   8.124
  567POPC   C4A12330  36.790  25.368   7.776
  567POPC   C1B12331  37.051  24.985   8.825
  567POPC   C2B12332  36.907  25.041   8.400
  567POPC   C3B12333  36.972  24.945   7.988
  567POPC   C4B12334  37.197  25.088   7.639
  568POPC   NC312335  44.094  25.877   9.679
  568POPC   PO412336  43.597  26.288   9.574
  568POPC   GL112337  43.817  26.042   9.247
  568POPC   GL212338  44.189  26.028   9.182
  568POPC   C1A12339  43.745  26.140   8.823
  568POPC   D2A12340  43.916  26.171   8.414
  568POPC   C3A12341  43.722  26.015   8.053
  568POPC   C4A12342  43.720  26.284   7.688
  568POPC   C1B12343  44.149  25.828   8.749
  568POPC   C2B12344  44.019  25.675   8.315
  568POPC   C3B12345  44.176  25.808   7.906
  568POPC   C4B12346  44.178  26.114   7.542
  569POPC   NC312347  38.086  32.092   9.271
  569POPC   PO412348  37.667  32.292   9.727
  569POPC   GL112349  37.573  32.326   9.267
  569POPC   GL212350  37.454  32.016   9.138
  569POPC   C1A12351  37.728  32.471   8.861
  569POPC   D2A12352  37.968  32.316   8.502
  569POPC   C3A12353  37.896  32.498   8.090
  569POPC   C4A12354  37.685  32.332   7.750
  569POPC   C1B12355  37.585  31.986   8.694
  569POPC   C2B12356  37.671  32.002   8.245
  569POPC   C3B12357  37.478  31.868   7.889
  569POPC   C4B12358  37.527  31.948   7.441
  570POPC   NC312359  42.491  15.109   9.448
  570POPC   PO412360  42.273  15.704   9.483
  570POPC   GL112361  42.221  15.436   9.156
  570POPC   GL212362  42.555  15.443   9.041
  570POPC   C1A12363  42.110  15.419   8.721
  570POPC   D2A12364  42.194  15.585   8.303
  570POPC   C3A12365  42.220  15.340   7.919
  570POPC   C4A12366  42.069  14.996   7.610
  570POPC   C1B12367  42.603  15.421   8.594
  570POPC   C2B12368  42.676  15.483   8.159
  570POPC   C3B12369  42.754  15.236   7.815
  570POPC   C4B12370  42.718  14.931   7.472
  571POPC   NC312371  36.599  22.807   9.550
  571POPC   PO412372  37.291  22.649   9.444
  571POPC   GL112373  36.962  22.847   9.170
  571POPC   GL212374  36.687  22.645   9.074
  571POPC   C1A12375  36.969  23.138   8.832
  571POPC   D2A12376  36.809  23.113   8.410
  571POPC   C3A12377  36.956  22.787   8.149
  571POPC   C4A12378  37.026  23.143   7.857
  571POPC   C1B12379  36.911  22.657   8.676
  571POPC   C2B12380  37.312  22.552   8.505
  571POPC   C3B12381  37.373  22.411   8.094
  571POPC   C4B12382  37.154  22.456   7.696
  572POPC   NC312383  32.645   2.815   9.564
  572POPC   PO412384  33.256   2.496   9.710
  572POPC   GL112385  33.098   2.773   9.330
  572POPC   GL212386  33.327   2.880   9.069
  572POPC   C1A12387  32.839   2.900   8.950
  572POPC   D2A12388  32.680   2.705   8.613
  572POPC   C3A12389  32.756   2.599   8.176
  572POPC   C4A12390  32.921   2.763   7.774
  572POPC   C1B12391  33.194   2.636   8.674
  572POPC   C2B12392  33.209   2.364   8.296
  572POPC   C3B12393  33.388   2.473   7.896
  572POPC   C4B12394  33.490   2.558   7.446
  573POPC   NC312395  19.628   9.078   9.573
  573POPC   PO412396  20.189   8.646   9.558
  573POPC   GL112397  19.946   8.804   9.231
  573POPC   GL212398  19.560   8.732   9.212
  573POPC   C1A12399  19.862   8.907   8.810
  573POPC   D2A12400  19.596   9.020   8.466
  573POPC   C3A12401  19.808   8.856   8.090
  573POPC   C4A12402  19.846   8.895   7.672
  573POPC   C1B12403  19.399   8.626   8.795
  573POPC   C2B12404  19.567   8.524   8.400
  573POPC   C3B12405  19.447   8.492   7.959
  573POPC   C4B12406  19.359   8.769   7.594
  574POPC   NC312407  22.818  15.320   9.417
  574POPC   PO412408  23.400  15.566   9.313
  574POPC   GL112409  23.195  15.172   9.069
  574POPC   GL212410  22.838  15.158   8.943
  574POPC   C1A12411  23.160  14.868   8.700
  574POPC   D2A12412  22.934  14.860   8.284
  574POPC   C3A12413  23.104  15.106   7.963
  574POPC   C4A12414  23.200  15.467   7.688
  574POPC   C1B12415  22.637  15.213   8.549
  574POPC   C2B12416  22.565  15.440   8.154
  574POPC   C3B12417  22.711  15.346   7.733
  574POPC   C4B12418  22.802  15.005   7.474
  575POPC   NC312419  17.706   8.719   9.504
  575POPC   PO412420  18.288   9.070   9.490
  575POPC   GL112421  18.396   8.988   9.096
  575POPC   GL212422  18.433   9.350   9.063
  575POPC   C1A12423  18.543   9.014   8.690
  575POPC   D2A12424  18.267   8.997   8.377
  575POPC   C3A12425  18.529   9.012   8.062
  575POPC   C4A12426  18.456   8.685   7.765
  575POPC   C1B12427  18.130   9.357   8.744
  575POPC   C2B12428  17.985   9.446   8.315
  575POPC   C3B12429  18.109   9.287   7.936
  575POPC   C4B12430  18.377   9.166   7.613
  576POPC   NC312431  38.634  13.862   9.557
  576POPC   PO412432  38.012  13.569   9.381
  576POPC   GL112433  38.433  13.466   9.205
  576POPC   GL212434  38.432  13.785   9.107
  576POPC   C1A12435  38.700  13.519   8.774
  576POPC   D2A12436  38.800  13.582   8.323
  576POPC   C3A12437  38.597  13.325   7.979
  576POPC   C4A12438  38.539  13.399   7.541
  576POPC   C1B12439  38.176  13.724   8.745
  576POPC   C2B12440  38.282  13.588   8.334
  576POPC   C3B12441  38.248  13.679   7.894
  576POPC   C4B12442  37.930  13.645   7.591
  577POPC   NC312443  17.011   8.545   9.443
  577POPC   PO412444  17.115   7.931   9.120
  577POPC   GL112445  16.818   8.197   8.942
  577POPC   GL212446  16.646   7.952   8.765
  577POPC   C1A12447  16.889   8.378   8.578
  577POPC   D2A12448  17.090   8.467   8.243
  577POPC   C3A12449  17.031   8.229   7.875
  577POPC   C4A12450  16.788   8.189   7.543
  577POPC   C1B12451  16.378   8.316   8.690
  577POPC   C2B12452  16.186   8.328   8.313
  577POPC   C3B12453  16.391   8.167   7.960
  577POPC   C4B12454  16.376   8.474   7.663
  578POPC   NC312455   3.250  14.911   9.498
  578POPC   PO412456   3.652  14.393   9.551
  578POPC   GL112457   3.546  14.314   9.141
  578POPC   GL212458   3.503  14.669   9.065
  578POPC   C1A12459   3.446  14.057   8.773
  578POPC   D2A12460   3.241  14.148   8.384
  578POPC   C3A12461   3.488  14.244   8.052
  578POPC   C4A12462   3.663  14.555   7.777
  578POPC   C1B12463   3.666  14.511   8.664
  578POPC   C2B12464   3.554  14.694   8.289
  578POPC   C3B12465   3.209  14.686   8.001
  578POPC   C4B12466   3.218  14.846   7.615
  579POPC   NC312467   7.546  37.236   9.427
  579POPC   PO412468   7.368  37.905   9.357
  579POPC   GL112469   7.455  37.883   8.969
  579POPC   GL212470   7.507  37.530   9.001
  579POPC   C1A12471   7.612  38.140   8.652
  579POPC   D2A12472   7.843  38.006   8.341
  579POPC   C3A12473   7.534  37.913   8.052
  579POPC   C4A12474   7.547  37.601   7.770
  579POPC   C1B12475   7.633  37.579   8.578
  579POPC   C2B12476   7.476  37.377   8.239
  579POPC   C3B12477   7.320  37.165   7.879
  579POPC   C4B12478   7.492  37.226   7.427
  580POPC   NC312479  27.931  30.913   9.710
  580POPC   PO412480  27.558  31.500   9.570
  580POPC   GL112481  27.294  31.532   9.211
  580POPC   GL212482  27.579  31.410   9.037
  580POPC   C1A12483  27.139  31.484   8.796
  580POPC   D2A12484  27.384  31.385   8.453
  580POPC   C3A12485  27.187  31.440   8.080
  580POPC   C4A12486  27.428  31.464   7.722
  580POPC   C1B12487  27.842  31.321   8.683
  580POPC   C2B12488  28.108  31.375   8.345
  580POPC   C3B12489  27.837  31.292   8.015
  580POPC   C4B12490  27.890  31.253   7.607
  581POPC   NC312491  27.479  44.368   9.645
  581POPC   PO412492  27.848  44.923   9.458
  581POPC   GL112493  27.588  44.695   9.235
  581POPC   GL212494  27.692  44.361   9.182
  581POPC   C1A12495  27.406  44.728   8.853
  581POPC   D2A12496  27.504  44.663   8.443
  581POPC   C3A12497  27.249  44.444   8.139
  581POPC   C4A12498  27.419  44.537   7.745
  581POPC   C1B12499  27.694  44.309   8.758
  581POPC   C2B12500  27.562  44.110   8.379
  581POPC   C3B12501  27.640  44.127   7.940
  581POPC   C4B12502  27.695  44.229   7.463
  582POPC   NC312503  10.306  42.070   9.645
  582POPC   PO412504  10.701  42.641   9.644
  582POPC   GL112505  10.566  42.308   9.255
  582POPC   GL212506  10.227  42.199   9.144
  582POPC   C1A12507  10.641  42.090   8.782
  582POPC   D2A12508  10.768  41.944   8.358
  582POPC   C3A12509  10.576  42.072   8.001
  582POPC   C4A12510  10.449  42.485   7.784
  582POPC   C1B12511  10.275  42.410   8.734
  582POPC   C2B12512  10.328  42.401   8.297
  582POPC   C3B12513  10.100  42.187   7.951
  582POPC   C4B12514  10.185  42.128   7.477
  583POPC   NC312515  42.762  40.158   9.348
  583POPC   PO412516  43.265  39.794   9.571
  583POPC   GL112517  43.213  40.093   9.091
  583POPC   GL212518  43.358  40.429   9.004
  583POPC   C1A12519  43.483  40.138   8.628
  583POPC   D2A12520  43.541  39.835   8.316
  583POPC   C3A12521  43.200  40.024   8.139
  583POPC   C4A12522  42.951  39.904   7.849
  583POPC   C1B12523  42.990  40.308   8.692
  583POPC   C2B12524  42.738  40.239   8.310
  583POPC   C3B12525  42.822  40.383   7.889
  583POPC   C4B12526  43.271  40.459   7.823
  584POPC   NC312527  41.055  16.087   9.402
  584POPC   PO412528  40.375  16.110   9.527
  584POPC   GL112529  40.572  16.147   9.125
  584POPC   GL212530  40.477  15.808   9.090
  584POPC   C1A12531  40.693  16.177   8.656
  584POPC   D2A12532  40.929  15.948   8.370
  584POPC   C3A12533  40.925  16.170   7.992
  584POPC   C4A12534  40.827  16.279   7.576
  584POPC   C1B12535  40.688  15.653   8.762
  584POPC   C2B12536  40.539  15.582   8.364
  584POPC   C3B12537  40.752  15.617   7.996
  584POPC   C4B12538  40.961  15.770   7.674
  585POPC   NC312539  27.719  40.455   9.497
  585POPC   PO412540  27.297  39.989   9.552
  585POPC   GL112541  27.504  40.097   9.156
  585POPC   GL212542  27.886  40.125   9.144
  585POPC   C1A12543  27.327  40.089   8.744
  585POPC   D2A12544  27.183  39.816   8.426
  585POPC   C3A12545  27.383  39.829   8.019
  585POPC   C4A12546  27.433  39.946   7.582
  585POPC   C1B12547  27.916  40.189   8.715
  585POPC   C2B12548  27.833  40.012   8.322
  585POPC   C3B12549  27.809  40.094   7.882
  585POPC   C4B12550  27.889  39.744   7.552
  586POPC   NC312551  37.328  27.391   9.438
  586POPC   PO412552  37.933  27.700   9.507
  586POPC   GL112553  37.706  27.703   9.146
  586POPC   GL212554  37.782  27.384   9.063
  586POPC   C1A12555  37.848  27.787   8.685
  586POPC   D2A12556  37.639  27.740   8.245
  586POPC   C3A12557  37.877  27.645   7.831
  586POPC   C4A12558  37.807  27.566   7.354
  586POPC   C1B12559  37.431  27.498   8.781
  586POPC   C2B12560  37.320  27.350   8.395
  586POPC   C3B12561  37.486  27.263   8.013
  586POPC   C4B12562  37.277  27.108   7.672
  587POPC   NC312563  37.191  35.253   9.343
  587POPC   PO412564  36.526  34.997   9.533
  587POPC   GL112565  36.705  35.203   9.154
  587POPC   GL212566  36.543  35.489   9.142
  587POPC   C1A12567  36.908  35.431   8.775
  587POPC   D2A12568  37.123  35.516   8.403
  587POPC   C3A12569  36.888  35.356   8.066
  587POPC   C4A12570  36.943  35.212   7.662
  587POPC   C1B12571  36.404  35.453   8.683
  587POPC   C2B12572  36.636  35.700   8.386
  587POPC   C3B12573  36.895  35.861   8.046
  587POPC   C4B12574  36.705  35.663   7.706
  588POPC   NC312575  35.019  18.156   9.396
  588POPC   PO412576  35.625  18.507   9.453
  588POPC   GL112577  35.677  18.290   9.115
  588POPC   GL212578  35.594  17.958   9.195
  588POPC   C1A12579  35.585  18.395   8.727
  588POPC   D2A12580  35.802  18.442   8.368
  588POPC   C3A12581  35.709  18.512   7.926
  588POPC   C4A12582  35.489  18.427   7.540
  588POPC   C1B12583  35.294  17.955   8.823
  588POPC   C2B12584  35.194  18.160   8.429
  588POPC   C3B12585  35.248  18.277   8.005
  588POPC   C4B12586  34.896  18.481   7.808
  589POPC   NC312587   2.093  23.173   9.781
  589POPC   PO412588   2.575  22.842   9.537
  589POPC   GL112589   2.748  22.757   9.085
  589POPC   GL212590   2.982  23.008   8.961
  589POPC   C1A12591   2.663  22.757   8.629
  589POPC   D2A12592   2.573  22.549   8.236
  589POPC   C3A12593   2.621  22.759   7.837
  589POPC   C4A12594   2.416  22.827   7.403
  589POPC   C1B12595   3.159  22.655   8.717
  589POPC   C2B12596   3.083  22.570   8.312
  589POPC   C3B12597   3.122  22.812   7.935
  589POPC   C4B12598   3.171  22.568   7.608
  590POPC   NC312599  25.724  44.434   9.519
  590POPC   PO412600  26.347  44.789   9.435
  590POPC   GL112601  26.059  44.627   9.158
  590POPC   GL212602  25.939  44.973   9.127
  590POPC   C1A12603  26.171  44.404   8.769
  590POPC   D2A12604  26.301  44.575   8.361
  590POPC   C3A12605  26.115  44.449   7.980
  590POPC   C4A12606  26.337  44.373   7.581
  590POPC   C1B12607  26.088  44.907   8.688
  590POPC   C2B12608  26.098   0.046   8.266
  590POPC   C3B12609  25.914  44.928   7.922
  590POPC   C4B12610  25.672  44.715   7.702
  591POPC   NC312611  11.376  20.696   9.653
  591POPC   PO412612  11.380  20.128   9.637
  591POPC   GL112613  11.223  20.419   9.253
  591POPC   GL212614  11.177  20.818   9.219
  591POPC   C1A12615  11.107  20.519   8.823
  591POPC   D2A12616  11.003  20.438   8.437
  591POPC   C3A12617  11.346  20.430   8.194
  591POPC   C4A12618  11.241  20.565   7.811
  591POPC   C1B12619  11.360  20.983   8.847
  591POPC   C2B12620  11.297  20.902   8.403
  591POPC   C3B12621  11.470  20.964   7.971
  591POPC   C4B12622  11.315  20.918   7.466
  592POPC   NC312623  34.378  19.870   9.685
  592POPC   PO412624  33.665  19.976   9.773
  592POPC   GL112625  33.777  19.899   9.350
  592POPC   GL212626  34.109  19.755   9.264
  592POPC   C1A12627  33.883  20.083   8.939
  592POPC   D2A12628  34.018  20.029   8.498
  592POPC   C3A12629  33.752  20.027   8.139
  592POPC   C4A12630  33.868  19.985   7.721
  592POPC   C1B12631  33.997  19.574   8.857
  592POPC   C2B12632  34.014  19.386   8.428
  592POPC   C3B12633  33.940  19.547   7.997
  592POPC   C4B12634  34.249  19.662   7.631
  593POPC   NC312635  11.146  37.946   9.533
  593POPC   PO412636  11.064  38.694   9.525
  593POPC   GL112637  11.189  38.343   9.218
  593POPC   GL212638  10.982  38.117   9.045
  593POPC   C1A12639  11.455  38.207   8.877
  593POPC   D2A12640  11.583  38.533   8.646
  593POPC   C3A12641  11.556  38.514   8.230
  593POPC   C4A12642  11.387  38.613   7.856
  593POPC   C1B12643  11.015  38.377   8.650
  593POPC   C2B12644  11.051  38.375   8.196
  593POPC   C3B12645  11.022  38.247   7.725
  593POPC   C4B12646  11.121  38.077   7.265
  594POPC   NC312647  36.444  13.580   9.322
  594POPC   PO412648  36.024  13.907   9.641
  594POPC   GL112649  36.017  13.735   9.143
  594POPC   GL212650  36.050  13.347   9.095
  594POPC   C1A12651  36.308  13.683   8.701
  594POPC   D2A12652  36.481  13.504   8.319
  594POPC   C3A12653  36.327  13.785   7.985
  594POPC   C4A12654  36.519  14.014   7.682
  594POPC   C1B12655  35.846  13.517   8.722
  594POPC   C2B12656  35.976  13.546   8.322
  594POPC   C3B12657  36.111  13.324   7.995
  594POPC   C4B12658  35.961  13.474   7.643
  595POPC   NC312659  25.077   8.847   9.315
  595POPC   PO412660  25.708   9.075   9.529
  595POPC   GL112661  25.495   9.099   9.103
  595POPC   GL212662  25.165   9.301   9.078
  595POPC   C1A12663  25.444   9.222   8.668
  595POPC   D2A12664  25.200   9.319   8.309
  595POPC   C3A12665  25.395   9.234   7.898
  595POPC   C4A12666  25.501   9.193   7.458
  595POPC   C1B12667  24.966   9.085   8.734
  595POPC   C2B12668  24.969   8.852   8.382
  595POPC   C3B12669  24.923   8.958   7.985
  595POPC   C4B12670  25.034   9.056   7.583
  596POPC   NC312671   9.957  35.954   9.562
  596POPC   PO412672   9.280  36.059   9.665
  596POPC   GL112673   9.533  36.042   9.268
  596POPC   GL212674   9.787  36.327   9.254
  596POPC   C1A12675   9.578  36.159   8.825
  596POPC   D2A12676   9.647  36.504   8.530
  596POPC   C3A12677   9.843  36.490   8.123
  596POPC   C4A12678   9.669  36.275   7.766
  596POPC   C1B12679  10.073  36.118   8.923
  596POPC   C2B12680  10.004  36.137   8.478
  596POPC   C3B12681   9.823  35.922   8.137
  596POPC   C4B12682  10.068  35.889   7.766
  597POPC   NC312683   4.764  37.090   9.577
  597POPC   PO412684   4.177  36.877   9.545
  597POPC   GL112685   4.354  36.798   9.206
  597POPC   GL212686   4.473  37.150   9.166
  597POPC   C1A12687   4.358  36.850   8.774
  597POPC   D2A12688   4.108  37.016   8.432
  597POPC   C3A12689   4.304  36.949   8.045
  597POPC   C4A12690   4.151  36.839   7.676
  597POPC   C1B12691   4.188  37.325   8.877
  597POPC   C2B12692   4.218  37.530   8.483
  597POPC   C3B12693   4.381  37.445   8.089
  597POPC   C4B12694   4.364  37.307   7.660
  598POPC   NC312695   2.955   8.638   9.650
  598POPC   PO412696   2.771   9.198   9.480
  598POPC   GL112697   2.801   8.859   9.198
  598POPC   GL212698   3.135   8.746   9.181
  598POPC   C1A12699   2.646   8.935   8.783
  598POPC   D2A12700   2.765   9.112   8.408
  598POPC   C3A12701   2.471   9.135   8.077
  598POPC   C4A12702   2.587   8.986   7.705
  598POPC   C1B12703   3.167   8.775   8.766
  598POPC   C2B12704   2.935   8.626   8.437
  598POPC   C3B12705   2.908   8.769   8.030
  598POPC   C4B12706   2.983   8.701   7.598
  599POPC   NC312707  39.981   8.337   9.604
  599POPC   PO412708  39.719   7.815   9.307
  599POPC   GL112709  40.033   8.092   9.154
  599POPC   GL212710  39.944   8.474   9.128
  599POPC   C1A12711  40.133   8.180   8.746
  599POPC   D2A12712  40.168   7.967   8.373
  599POPC   C3A12713  40.272   8.232   8.011
  599POPC   C4A12714  40.305   7.903   7.737
  599POPC   C1B12715  39.787   8.566   8.718
  599POPC   C2B12716  39.888   8.392   8.325
  599POPC   C3B12717  39.798   8.024   8.040
  599POPC   C4B12718  39.833   8.105   7.636
  600POPC   NC312719  35.586  42.608   9.561
  600POPC   PO412720  35.077  42.120   9.480
  600POPC   GL112721  35.094  42.242   9.112
  600POPC   GL212722  35.464  42.306   9.173
  600POPC   C1A12723  35.236  42.323   8.723
  600POPC   D2A12724  35.151  42.540   8.401
  600POPC   C3A12725  35.135  42.251   8.143
  600POPC   C4A12726  35.196  42.262   7.729
  600POPC   C1B12727  35.691  42.524   8.863
  600POPC   C2B12728  35.695  42.465   8.412
  600POPC   C3B12729  35.488  42.626   8.032
  600POPC   C4B12730  35.451  42.705   7.613
  601POPC   NC312731  30.204  10.690   9.609
  601POPC   PO412732  29.569  10.461   9.565
  601POPC   GL112733  29.896  10.455   9.238
  601POPC   GL212734  30.235  10.573   9.113
  601POPC   C1A12735  29.849  10.329   8.809
  601POPC   D2A12736  29.948  10.295   8.361
  601POPC   C3A12737  29.911  10.680   8.115
  601POPC   C4A12738  29.909  10.767   7.691
  601POPC   C1B12739  30.479  10.622   8.717
  601POPC   C2B12740  30.406  10.596   8.261
  601POPC   C3B12741  30.382  10.649   7.806
  601POPC   C4B12742  30.318  10.835   7.374
  602POPC   NC312743  41.607  27.619   9.598
  602POPC   PO412744  41.242  27.824   9.133
  602POPC   GL112745  41.595  27.816   8.941
  602POPC   GL212746  41.735  27.492   8.848
  602POPC   C1A12747  41.580  28.032   8.572
  602POPC   D2A12748  41.680  27.996   8.171
  602POPC   C3A12749  41.556  27.596   8.036
  602POPC   C4A12750  41.541  27.470   7.645
  602POPC   C1B12751  41.404  27.539   8.528
  602POPC   C2B12752  41.165  27.265   8.228
  602POPC   C3B12753  41.089  27.181   7.771
  602POPC   C4B12754  41.126  27.387   7.352
  603POPC   NC312755  12.062   5.198   9.682
  603POPC   PO412756  11.824   4.889   9.450
  603POPC   GL112757  11.890   5.188   9.114
  603POPC   GL212758  12.200   5.367   9.212
  603POPC   C1A12759  11.836   5.184   8.631
  603POPC   D2A12760  12.138   5.049   8.296
  603POPC   C3A12761  12.011   4.954   7.865
  603POPC   C4A12762  11.839   4.830   7.442
  603POPC   C1B12763  12.296   5.346   8.762
  603POPC   C2B12764  12.134   5.550   8.379
  603POPC   C3B12765  12.176   5.464   7.919
  603POPC   C4B12766  12.251   5.237   7.512
  604POPC   NC312767  11.900  31.878   9.417
  604POPC   PO412768  12.287  31.309   9.411
  604POPC   GL112769  11.938  31.358   9.167
  604POPC   GL212770  12.124  31.646   9.019
  604POPC   C1A12771  11.825  31.326   8.739
  604POPC   D2A12772  12.030  31.600   8.470
  604POPC   C3A12773  12.058  31.454   8.033
  604POPC   C4A12774  11.859  31.445   7.630
  604POPC   C1B12775  12.369  31.366   8.780
  604POPC   C2B12776  12.334  31.190   8.401
  604POPC   C3B12777  12.464  31.093   8.005
  604POPC   C4B12778  12.315  31.198   7.625
  605POPC   NC312779  35.894  16.519   9.370
  605POPC   PO412780  36.265  17.100   9.633
  605POPC   GL112781  36.192  16.908   9.199
  605POPC   GL212782  35.812  16.946   9.135
  605POPC   C1A12783  36.365  16.646   8.824
  605POPC   D2A12784  36.559  16.743   8.376
  605POPC   C3A12785  36.389  16.607   8.010
  605POPC   C4A12786  36.164  16.830   7.716
  605POPC   C1B12787  35.845  16.681   8.754
  605POPC   C2B12788  36.064  16.627   8.406
  605POPC   C3B12789  35.848  16.592   8.037
  605POPC   C4B12790  35.603  16.658   7.698
  606POPC   NC312791   2.616   3.811   9.623
  606POPC   PO412792   3.057   3.576   9.191
  606POPC   GL112793   2.669   3.661   8.971
  606POPC   GL212794   2.563   3.310   8.897
  606POPC   C1A12795   2.542   3.679   8.524
  606POPC   D2A12796   2.794   3.556   8.158
  606POPC   C3A12797   2.718   3.647   7.759
  606POPC   C4A12798   2.489   3.876   7.458
  606POPC   C1B12799   2.944   3.322   8.623
  606POPC   C2B12800   3.153   3.198   8.262
  606POPC   C3B12801   3.170   3.407   7.838
  606POPC   C4B12802   3.047   3.417   7.403
  607POPC   NC312803  34.049  10.253   9.697
  607POPC   PO412804  33.690  10.706   9.399
  607POPC   GL112805  33.958  10.407   9.198
  607POPC   GL212806  33.732  10.388   8.970
  607POPC   C1A12807  34.198  10.354   8.781
  607POPC   D2A12808  34.373  10.628   8.454
  607POPC   C3A12809  34.187  10.541   8.062
  607POPC   C4A12810  33.810  10.354   7.908
  607POPC   C1B12811  33.494  10.631   8.736
  607POPC   C2B12812  33.527  10.390   8.378
  607POPC   C3B12813  33.383  10.624   8.077
  607POPC   C4B12814  33.422  10.636   7.704
  608POPC   NC312815  18.848  43.463   9.563
  608POPC   PO412816  19.319  43.081   9.737
  608POPC   GL112817  19.067  43.036   9.286
  608POPC   GL212818  19.084  42.747   9.184
  608POPC   C1A12819  18.940  43.164   8.855
  608POPC   D2A12820  19.188  43.215   8.446
  608POPC   C3A12821  18.936  43.342   8.065
  608POPC   C4A12822  19.000  43.433   7.593
  608POPC   C1B12823  19.338  42.849   8.826
  608POPC   C2B12824  19.287  42.704   8.407
  608POPC   C3B12825  19.420  42.767   8.018
  608POPC   C4B12826  19.211  43.003   7.758
  609POPC   NC312827  30.533   0.302   9.568
  609POPC   PO412828  30.450   0.873   9.331
  609POPC   GL112829  30.587   0.502   9.093
  609POPC   GL212830  30.890   0.303   9.159
  609POPC   C1A12831  30.619   0.437   8.648
  609POPC   D2A12832  30.602   0.757   8.321
  609POPC   C3A12833  30.884   0.721   7.974
  609POPC   C4A12834  30.719   0.507   7.660
  609POPC   C1B12835  31.041   0.613   8.831
  609POPC   C2B12836  31.042   0.470   8.388
  609POPC   C3B12837  30.994   0.220   7.989
  609POPC   C4B12838  31.080   0.194   7.510
  610POPC   NC312839  14.025  20.721   9.583
  610POPC   PO412840  14.593  20.561   9.446
  610POPC   GL112841  14.224  20.628   9.122
  610POPC   GL212842  14.111  20.983   9.094
  610POPC   C1A12843  14.156  20.642   8.654
  610POPC   D2A12844  14.363  20.415   8.305
  610POPC   C3A12845  14.191  20.493   7.894
  610POPC   C4A12846  14.073  20.879   7.699
  610POPC   C1B12847  14.550  20.927   8.870
  610POPC   C2B12848  14.691  20.809   8.459
  610POPC   C3B12849  14.446  20.900   8.097
  610POPC   C4B12850  14.580  20.979   7.689
  611POPC   NC312851  12.476  25.135   9.473
  611POPC   PO412852  13.129  25.153   9.519
  611POPC   GL112853  13.079  25.081   9.078
  611POPC   GL212854  12.768  24.894   9.109
  611POPC   C1A12855  13.013  25.150   8.641
  611POPC   D2A12856  12.740  25.065   8.292
  611POPC   C3A12857  13.016  25.111   7.959
  611POPC   C4A12858  13.120  25.478   7.741
  611POPC   C1B12859  12.729  24.725   8.703
  611POPC   C2B12860  12.874  24.573   8.301
  611POPC   C3B12861  12.682  24.724   7.881
  611POPC   C4B12862  12.500  25.131   7.831
  612POPC   NC312863   2.675   5.717   9.769
  612POPC   PO412864   2.339   6.139   9.317
  612POPC   GL112865   2.581   5.933   8.968
  612POPC   GL212866   2.947   5.888   8.953
  612POPC   C1A12867   2.664   5.766   8.564
  612POPC   D2A12868   2.612   5.968   8.243
  612POPC   C3A12869   2.848   5.926   7.948
  612POPC   C4A12870   3.093   6.142   7.668
  612POPC   C1B12871   3.069   5.502   8.797
  612POPC   C2B12872   3.037   5.323   8.408
  612POPC   C3B12873   3.159   5.531   8.042
  612POPC   C4B12874   3.031   5.609   7.614
  613POPC   NC312875  13.970  35.248   9.374
  613POPC   PO412876  13.351  35.511   9.586
  613POPC   GL112877  13.504  35.443   9.185
  613POPC   GL212878  13.841  35.568   9.019
  613POPC   C1A12879  13.212  35.366   8.838
  613POPC   D2A12880  13.232  35.146   8.456
  613POPC   C3A12881  13.365  35.342   8.100
  613POPC   C4A12882  13.474  35.284   7.732
  613POPC   C1B12883  13.700  35.231   8.767
  613POPC   C2B12884  13.766  35.170   8.369
  613POPC   C3B12885  13.913  35.111   7.991
  613POPC   C4B12886  13.970  35.373   7.668
  614POPC   NC312887  18.174  13.929   9.440
  614POPC   PO412888  18.358  13.277   9.538
  614POPC   GL112889  18.489  13.552   9.193
  614POPC   GL212890  18.211  13.717   8.999
  614POPC   C1A12891  18.579  13.427   8.769
  614POPC   D2A12892  18.296  13.510   8.436
  614POPC   C3A12893  18.485  13.445   8.035
  614POPC   C4A12894  18.432  13.636   7.620
  614POPC   C1B12895  18.007  13.923   8.693
  614POPC   C2B12896  18.169  13.991   8.303
  614POPC   C3B12897  18.087  13.742   7.972
  614POPC   C4B12898  18.012  13.938   7.599
  615POPC   NC312899  28.233  19.685   9.565
  615POPC   PO412900  28.810  19.631   9.600
  615POPC   GL112901  28.601  19.594   9.201
  615POPC   GL212902  28.432  19.922   9.138
  615POPC   C1A12903  28.520  19.619   8.732
  615POPC   D2A12904  28.382  19.810   8.323
  615POPC   C3A12905  28.485  19.575   7.935
  615POPC   C4A12906  28.560  19.278   7.596
  615POPC   C1B12907  28.472  20.160   8.726
  615POPC   C2B12908  28.480  20.324   8.283
  615POPC   C3B12909  28.475  20.109   7.883
  615POPC   C4B12910  28.663  20.242   7.521
  616POPC   NC312911   2.293  31.978   9.331
  616POPC   PO412912   1.617  32.070   9.473
  616POPC   GL112913   1.925  32.179   9.061
  616POPC   GL212914   2.176  31.896   8.863
  616POPC   C1A12915   2.267  32.358   8.742
  616POPC   D2A12916   2.251  32.124   8.348
  616POPC   C3A12917   1.996  32.286   8.026
  616POPC   C4A12918   2.088  32.666   7.812
  616POPC   C1B12919   1.821  31.984   8.598
  616POPC   C2B12920   1.694  31.722   8.285
  616POPC   C3B12921   1.931  31.784   7.960
  616POPC   C4B12922   2.320  31.901   7.869
  617POPC   NC312923  11.252  15.532   9.217
  617POPC   PO412924  11.250  14.904   9.567
  617POPC   GL112925  11.270  15.018   9.141
  617POPC   GL212926  10.993  15.164   8.973
  617POPC   C1A12927  11.428  15.073   8.696
  617POPC   D2A12928  11.307  15.155   8.262
  617POPC   C3A12929  11.626  15.172   7.929
  617POPC   C4A12930  11.686  14.830   7.657
  617POPC   C1B12931  10.797  14.953   8.624
  617POPC   C2B12932  10.837  14.884   8.157
  617POPC   C3B12933  11.088  14.993   7.800
  617POPC   C4B12934  11.230  15.225   7.453
  618POPC   NC312935   9.832   0.594   9.492
  618POPC   PO412936   9.839  44.819   9.622
  618POPC   GL112937   9.983   0.121   9.223
  618POPC   GL212938  10.118   0.468   9.072
  618POPC   C1A12939   9.810   0.176   8.778
  618POPC   D2A12940   9.668   0.364   8.368
  618POPC   C3A12941   9.907   0.252   7.969
  618POPC   C4A12942   9.884   0.040   7.567
  618POPC   C1B12943  10.161   0.561   8.626
  618POPC   C2B12944  10.038   0.843   8.299
  618POPC   C3B12945   9.724   0.731   8.008
  618POPC   C4B12946   9.380   0.476   7.875
  619POPC   NC312947  41.942  32.727   9.506
  619POPC   PO412948  41.392  33.125   9.451
  619POPC   GL112949  41.591  32.901   9.132
  619POPC   GL212950  41.391  33.117   8.938
  619POPC   C1A12951  41.557  32.743   8.677
  619POPC   D2A12952  41.551  33.074   8.358
  619POPC   C3A12953  41.449  32.970   7.940
  619POPC   C4A12954  41.670  32.662   7.693
  619POPC   C1B12955  41.813  33.211   8.791
  619POPC   C2B12956  41.967  33.392   8.404
  619POPC   C3B12957  41.794  33.386   7.987
  619POPC   C4B12958  41.910  33.435   7.573
  620POPC   NC312959  42.696  18.349   9.357
  620POPC   PO412960  43.230  18.565   9.809
  620POPC   GL112961  43.192  18.352   9.314
  620POPC   GL212962  43.021  18.096   9.080
  620POPC   C1A12963  43.206  18.480   8.853
  620POPC   D2A12964  42.985  18.584   8.479
  620POPC   C3A12965  43.115  18.329   8.149
  620POPC   C4A12966  43.258  18.481   7.779
  620POPC   C1B12967  42.782  18.181   8.717
  620POPC   C2B12968  42.713  18.000   8.353
  620POPC   C3B12969  42.750  18.000   7.966
  620POPC   C4B12970  43.044  18.039   7.671
  621POPC   NC312971   2.112   1.664   9.457
  621POPC   PO412972   1.862   2.244   9.484
  621POPC   GL112973   2.029   2.019   9.086
  621POPC   GL212974   2.228   1.694   8.964
  621POPC   C1A12975   1.814   1.885   8.706
  621POPC   D2A12976   1.718   1.733   8.278
  621POPC   C3A12977   1.870   2.070   8.031
  621POPC   C4A12978   2.286   2.192   7.901
  621POPC   C1B12979   2.128   1.462   8.598
  621POPC   C2B12980   2.172   1.456   8.162
  621POPC   C3B12981   2.111   1.689   7.834
  621POPC   C4B12982   1.699   1.687   7.687
  622POPC   NC312983  40.070  37.681   9.696
  622POPC   PO412984  39.908  37.255   9.280
  622POPC   GL112985  40.102  37.649   9.153
  622POPC   GL212986  39.816  37.779   9.155
  622POPC   C1A12987  40.310  37.824   8.776
  622POPC   D2A12988  40.208  37.633   8.336
  622POPC   C3A12989  40.068  37.837   7.938
  622POPC   C4A12990  40.040  37.679   7.498
  622POPC   C1B12991  39.839  37.653   8.697
  622POPC   C2B12992  39.709  37.929   8.349
  622POPC   C3B12993  39.594  38.115   7.951
  622POPC   C4B12994  39.385  38.290   7.582
  623POPC   NC312995  26.850   9.457   9.286
  623POPC   PO412996  26.555   9.013   9.724
  623POPC   GL112997  26.636   8.834   9.279
  623POPC   GL212998  26.502   9.060   9.157
  623POPC   C1A12999  26.854   8.923   8.835
  623POPC   D2A13000  26.934   9.217   8.501
  623POPC   C3A13001  26.839   9.084   8.066
  623POPC   C4A13002  26.882   8.849   7.666
  623POPC   C1B13003  26.438   9.194   8.756
  623POPC   C2B13004  26.449   9.298   8.372
  623POPC   C3B13005  26.279   9.286   8.033
  623POPC   C4B13006  26.481   9.186   7.680
  624POPC   NC313007  35.347  14.823   9.421
  624POPC   PO413008  35.815  15.346   9.467
  624POPC   GL113009  35.573  15.165   9.096
  624POPC   GL213010  35.527  15.504   9.020
  624POPC   C1A13011  35.308  14.894   8.789
  624POPC   D2A13012  35.067  14.968   8.423
  624POPC   C3A13013  35.227  14.825   8.033
  624POPC   C4A13014  35.120  14.950   7.625
  624POPC   C1B13015  35.340  15.395   8.666
  624POPC   C2B13016  35.420  15.282   8.271
  624POPC   C3B13017  35.179  15.331   7.964
  624POPC   C4B13018  35.242  15.466   7.587
  625POPC   NC313019  42.586  24.553   9.423
  625POPC   PO413020  41.856  24.650   9.512
  625POPC   GL113021  42.124  24.561   9.184
  625POPC   GL213022  42.194  24.208   9.146
  625POPC   C1A13023  42.379  24.575   8.789
  625POPC   D2A13024  42.513  24.715   8.368
  625POPC   C3A13025  42.532  24.482   7.990
  625POPC   C4A13026  42.547  24.678   7.594
  625POPC   C1B13027  41.939  24.303   8.792
  625POPC   C2B13028  42.161  24.320   8.404
  625POPC   C3B13029  42.087  24.185   8.030
  625POPC   C4B13030  42.247  24.210   7.649
  626POPC   NC313031  44.256  22.221   9.695
  626POPC   PO413032  43.653  21.886   9.682
  626POPC   GL113033  43.677  21.932   9.222
  626POPC   GL213034  43.544  22.255   9.228
  626POPC   C1A13035  43.817  22.168   8.806
  626POPC   D2A13036  44.022  22.316   8.382
  626POPC   C3A13037  43.849  22.186   7.996
  626POPC   C4A13038  43.451  22.046   7.891
  626POPC   C1B13039  43.438  22.497   8.880
  626POPC   C2B13040  43.540  22.545   8.443
  626POPC   C3B13041  43.455  22.555   8.008
  626POPC   C4B13042  43.677  22.509   7.597
  627POPC   NC313043  39.067   8.733   9.513
  627POPC   PO413044  39.219   9.404   9.502
  627POPC   GL113045  39.273   9.111   9.155
  627POPC   GL213046  38.942   9.035   9.105
  627POPC   C1A13047  39.254   9.192   8.673
  627POPC   D2A13048  39.214   9.193   8.176
  627POPC   C3A13049  39.448   9.009   7.782
  627POPC   C4A13050  39.556   9.248   7.366
  627POPC   C1B13051  39.049   8.744   8.823
  627POPC   C2B13052  39.303   8.704   8.471
  627POPC   C3B13053  39.111   8.671   8.080
  627POPC   C4B13054  38.995   8.599   7.680
  628POPC   NC313055   0.092   7.965   9.336
  628POPC   PO413056   0.406   8.417   9.710
  628POPC   GL113057   0.536   8.455   9.204
  628POPC   GL213058   0.531   8.111   9.117
  628POPC   C1A13059   0.636   8.444   8.730
  628POPC   D2A13060   0.395   8.374   8.313
  628POPC   C3A13061   0.420   8.263   7.835
  628POPC   C4A13062   0.230   8.359   7.398
  628POPC   C1B13063   0.570   7.932   8.704
  628POPC   C2B13064   0.359   7.826   8.318
  628POPC   C3B13065   0.176   7.803   7.905
  628POPC   C4B13066   0.351   7.876   7.463
  629POPC   NC313067  27.668   2.761   9.645
  629POPC   PO413068  27.653   3.230   9.167
  629POPC   GL113069  27.626   2.770   9.110
  629POPC   GL213070  27.898   2.636   9.209
  629POPC   C1A13071  27.635   2.521   8.710
  629POPC   D2A13072  27.434   2.688   8.293
  629POPC   C3A13073  27.466   2.865   7.845
  629POPC   C4A13074  27.491   2.646   7.459
  629POPC   C1B13075  28.061   2.790   8.818
  629POPC   C2B13076  27.947   2.783   8.387
  629POPC   C3B13077  27.888   2.619   7.997
  629POPC   C4B13078  27.941   2.802   7.592
  630POPC   NC313079  27.620   7.194   9.543
  630POPC   PO413080  27.321   7.798   9.425
  630POPC   GL113081  27.590   7.508   9.116
  630POPC   GL213082  27.798   7.167   9.073
  630POPC   C1A13083  27.475   7.408   8.695
  630POPC   D2A13084  27.430   7.750   8.418
  630POPC   C3A13085  27.563   7.747   8.031
  630POPC   C4A13086  27.412   7.475   7.736
  630POPC   C1B13087  27.972   7.371   8.701
  630POPC   C2B13088  27.935   7.517   8.304
  630POPC   C3B13089  27.844   7.266   7.929
  630POPC   C4B13090  27.819   7.303   7.467
  631POPC   NC313091  33.931  32.367   9.659
  631POPC   PO413092  34.326  31.913   9.461
  631POPC   GL113093  33.962  32.100   9.213
  631POPC   GL213094  33.866  32.462   9.171
  631POPC   C1A13095  33.994  32.209   8.756
  631POPC   D2A13096  33.690  32.163   8.435
  631POPC   C3A13097  33.788  32.264   8.037
  631POPC   C4A13098  33.828  31.963   7.743
  631POPC   C1B13099  33.560  32.493   8.821
  631POPC   C2B13100  33.450  32.624   8.400
  631POPC   C3B13101  33.537  32.707   7.955
  631POPC   C4B13102  33.563  32.394   7.591
  632POPC   NC313103  32.728  35.381   9.503
  632POPC   PO413104  32.091  35.219   9.501
  632POPC   GL113105  32.227  35.171   9.107
  632POPC   GL213106  32.495  35.406   9.055
  632POPC   C1A13107  32.356  35.011   8.717
  632POPC   D2A13108  32.125  35.189   8.392
  632POPC   C3A13109  32.192  35.186   7.979
  632POPC   C4A13110  31.995  35.240   7.607
  632POPC   C1B13111  32.335  35.562   8.684
  632POPC   C2B13112  32.578  35.773   8.355
  632POPC   C3B13113  32.468  35.777   7.939
  632POPC   C4B13114  32.451  35.467   7.630
  633POPC   NC313115   7.593  21.172   9.358
  633POPC   PO413116   7.049  21.561   9.466
  633POPC   GL113117   7.398  21.600   9.128
  633POPC   GL213118   7.773  21.696   9.197
  633POPC   C1A13119   7.547  21.379   8.749
  633POPC   D2A13120   7.691  21.135   8.375
  633POPC   C3A13121   7.402  21.125   8.024
  633POPC   C4A13122   7.251  21.512   7.854
  633POPC   C1B13123   7.961  21.655   8.769
  633POPC   C2B13124   7.723  21.655   8.365
  633POPC   C3B13125   7.772  21.447   7.975
  633POPC   C4B13126   7.662  21.528   7.552
  634POPC   NC313127   7.623  36.640   9.788
  634POPC   PO413128   7.085  36.970   9.572
  634POPC   GL113129   7.172  37.046   9.130
  634POPC   GL213130   7.327  36.752   8.994
  634POPC   C1A13131   7.271  37.180   8.705
  634POPC   D2A13132   7.100  37.014   8.340
  634POPC   C3A13133   7.364  36.690   8.206
  634POPC   C4A13134   7.602  36.747   7.833
  634POPC   C1B13135   7.679  36.804   8.677
  634POPC   C2B13136   7.889  36.736   8.273
  634POPC   C3B13137   8.099  36.660   7.884
  634POPC   C4B13138   7.889  36.434   7.530
  635POPC   NC313139  44.568  44.638   9.609
  635POPC   PO413140   0.008  44.077   9.510
  635POPC   GL113141  44.874  44.439   9.226
  635POPC   GL213142  44.644  44.757   9.123
  635POPC   C1A13143  44.951  44.506   8.802
  635POPC   D2A13144   0.036  44.459   8.381
  635POPC   C3A13145  44.715  44.528   8.096
  635POPC   C4A13146  44.931  44.572   7.706
  635POPC   C1B13147  44.507  44.738   8.681
  635POPC   C2B13148  44.392  44.964   8.277
  635POPC   C3B13149  44.398  44.941   7.853
  635POPC   C4B13150  44.418  44.519   7.660
  636POPC   NC313151  40.942  27.979   9.447
  636POPC   PO413152  40.736  28.653   9.391
  636POPC   GL113153  40.664  28.503   9.031
  636POPC   GL213154  40.986  28.663   8.919
  636POPC   C1A13155  40.474  28.239   8.718
  636POPC   D2A13156  40.350  28.082   8.341
  636POPC   C3A13157  40.514  28.314   7.998
  636POPC   C4A13158  40.644  28.194   7.606
  636POPC   C1B13159  40.986  28.243   8.735
  636POPC   C2B13160  40.956  27.972   8.368
  636POPC   C3B13161  41.020  28.139   7.946
  636POPC   C4B13162  40.937  28.576   7.770
  637POPC   NC313163  26.543  33.496   9.537
  637POPC   PO413164  27.014  34.011   9.364
  637POPC   GL113165  26.836  33.685   9.151
  637POPC   GL213166  26.537  33.825   9.129
  637POPC   C1A13167  26.820  33.493   8.771
  637POPC   D2A13168  26.737  33.600   8.361
  637POPC   C3A13169  27.093  33.714   8.123
  637POPC   C4A13170  27.035  33.753   7.667
  637POPC   C1B13171  26.732  33.996   8.747
  637POPC   C2B13172  26.882  34.118   8.347
  637POPC   C3B13173  26.724  34.048   7.941
  637POPC   C4B13174  26.795  34.351   7.612
  638POPC   NC313175  42.656   0.093   9.287
  638POPC   PO413176  42.637  44.507   9.624
  638POPC   GL113177  42.456  44.574   9.208
  638POPC   GL213178  42.146  44.764   9.270
  638POPC   C1A13179  42.515  44.588   8.736
  638POPC   D2A13180  42.537  44.686   8.281
  638POPC   C3A13181  42.239  44.564   7.951
  638POPC   C4A13182  42.296  44.559   7.485
  638POPC   C1B13183  42.119  44.919   8.846
  638POPC   C2B13184  42.049  44.823   8.404
  638POPC   C3B13185  42.173   0.073   8.049
  638POPC   C4B13186  42.081   0.315   7.669
  639POPC   NC313187  42.599  34.384   9.627
  639POPC   PO413188  43.221  34.620   9.510
  639POPC   GL113189  43.086  34.315   9.249
  639POPC   GL213190  43.421  34.163   9.275
  639POPC   C1A13191  42.975  34.519   8.857
  639POPC   D2A13192  42.936  34.826   8.550
  639POPC   C3A13193  42.899  34.643   8.166
  639POPC   C4A13194  43.046  34.616   7.756
  639POPC   C1B13195  43.499  34.435   8.926
  639POPC   C2B13196  43.367  34.473   8.510
  639POPC   C3B13197  43.414  34.537   8.092
  639POPC   C4B13198  43.452  34.305   7.705
  640POPC   NC313199  16.986  27.121   9.550
  640POPC   PO413200  16.554  27.599   9.485
  640POPC   GL113201  16.721  27.664   9.096
  640POPC   GL213202  16.856  27.313   9.090
  640POPC   C1A13203  16.814  27.908   8.711
  640POPC   D2A13204  16.753  27.729   8.294
  640POPC   C3A13205  16.836  27.892   7.898
  640POPC   C4A13206  16.777  27.749   7.506
  640POPC   C1B13207  16.830  27.379   8.652
  640POPC   C2B13208  16.598  27.239   8.287
  640POPC   C3B13209  16.811  27.359   7.902
  640POPC   C4B13210  16.981  27.297   7.503
  641POPC   NC313211  41.786  26.016   9.493
  641POPC   PO413212  41.175  26.151   9.515
  641POPC   GL113213  41.353  25.886   9.134
  641POPC   GL213214  41.705  25.838   9.054
  641POPC   C1A13215  41.345  26.056   8.734
  641POPC   D2A13216  41.584  26.076   8.370
  641POPC   C3A13217  41.310  25.983   8.085
  641POPC   C4A13218  41.235  26.175   7.712
  641POPC   C1B13219  41.778  25.761   8.710
  641POPC   C2B13220  41.469  25.578   8.487
  641POPC   C3B13221  41.674  25.597   8.136
  641POPC   C4B13222  41.852  25.953   7.924
  642POPC   NC313223  21.697  18.783   9.326
  642POPC   PO413224  22.084  19.030   9.841
  642POPC   GL113225  22.177  19.010   9.350
  642POPC   GL213226  21.935  19.210   9.139
  642POPC   C1A13227  22.299  18.987   8.852
  642POPC   D2A13228  22.154  18.850   8.404
  642POPC   C3A13229  22.304  19.044   7.973
  642POPC   C4A13230  22.319  19.314   7.577
  642POPC   C1B13231  21.871  19.214   8.659
  642POPC   C2B13232  21.847  19.189   8.182
  642POPC   C3B13233  21.822  19.317   7.736
  642POPC   C4B13234  21.844  19.430   7.263
  643POPC   NC313235   6.781  30.081   9.654
  643POPC   PO413236   7.017  29.566   9.441
  643POPC   GL113237   6.824  29.921   9.158
  643POPC   GL213238   7.086  30.176   9.232
  643POPC   C1A13239   6.498  29.991   8.786
  643POPC   D2A13240   6.533  29.854   8.333
  643POPC   C3A13241   6.273  29.923   7.965
  643POPC   C4A13242   6.540  30.200   7.794
  643POPC   C1B13243   7.215  30.060   8.789
  643POPC   C2B13244   7.234  30.108   8.322
  643POPC   C3B13245   7.061  30.019   7.897
  643POPC   C4B13246   6.724  29.724   7.789
  644POPC   NC313247  34.857  36.112   9.473
  644POPC   PO413248  34.224  36.305   9.597
  644POPC   GL113249  34.186  36.178   9.188
  644POPC   GL213250  34.298  35.816   9.167
  644POPC   C1A13251  34.243  36.478   8.864
  644POPC   D2A13252  34.443  36.593   8.490
  644POPC   C3A13253  34.327  36.334   8.153
  644POPC   C4A13254  34.429  36.466   7.769
  644POPC   C1B13255  34.512  36.031   8.828
  644POPC   C2B13256  34.764  36.186   8.502
  644POPC   C3B13257  34.757  36.013   8.109
  644POPC   C4B13258  34.580  35.935   7.718
  645POPC   NC313259  12.354  22.608   9.697
  645POPC   PO413260  12.959  22.600   9.361
  645POPC   GL113261  12.696  22.925   9.199
  645POPC   GL213262  12.962  23.007   8.980
  645POPC   C1A13263  12.509  22.986   8.779
  645POPC   D2A13264  12.635  22.724   8.438
  645POPC   C3A13265  12.687  22.997   8.104
  645POPC   C4A13266  12.444  23.058   7.739
  645POPC   C1B13267  13.035  23.036   8.522
  645POPC   C2B13268  13.375  23.173   8.251
  645POPC   C3B13269  13.377  23.200   7.797
  645POPC   C4B13270  12.956  23.072   7.670
  646POPC   NC313271  33.612  23.278   9.510
  646POPC   PO413272  33.609  22.687   9.716
  646POPC   GL113273  33.698  22.655   9.231
  646POPC   GL213274  33.552  22.917   9.140
  646POPC   C1A13275  33.909  22.776   8.802
  646POPC   D2A13276  33.761  22.964   8.368
  646POPC   C3A13277  33.976  22.921   7.958
  646POPC   C4A13278  33.899  22.704   7.564
  646POPC   C1B13279  33.421  22.803   8.713
  646POPC   C2B13280  33.365  22.613   8.331
  646POPC   C3B13281  33.554  22.649   7.984
  646POPC   C4B13282  33.481  22.949   7.729
  647POPC   NC313283  33.255  44.155   9.388
  647POPC   PO413284  32.716  43.800   9.506
  647POPC   GL113285  32.837  43.966   9.150
  647POPC   GL213286  32.852  44.317   9.109
  647POPC   C1A13287  32.881  43.713   8.818
  647POPC   D2A13288  33.213  43.723   8.537
  647POPC   C3A13289  33.136  43.733   8.081
  647POPC   C4A13290  32.855  43.714   7.717
  647POPC   C1B13291  33.011  44.204   8.716
  647POPC   C2B13292  33.134  44.189   8.321
  647POPC   C3B13293  32.987  44.231   7.939
  647POPC   C4B13294  33.255  44.034   7.661
  648POPC   NC313295   7.081  32.528   9.460
  648POPC   PO413296   7.532  33.085   9.589
  648POPC   GL113297   7.551  32.961   9.163
  648POPC   GL213298   7.246  32.839   9.091
  648POPC   C1A13299   7.535  33.198   8.761
  648POPC   D2A13300   7.785  33.243   8.371
  648POPC   C3A13301   7.529  33.027   8.078
  648POPC   C4A13302   7.467  33.206   7.701
  648POPC   C1B13303   7.132  32.899   8.681
  648POPC   C2B13304   7.028  33.222   8.400
  648POPC   C3B13305   7.038  33.208   7.991
  648POPC   C4B13306   7.085  32.864   7.805
  649POPC   NC313307   5.786  11.764   9.401
  649POPC   PO413308   5.868  11.160   9.562
  649POPC   GL113309   5.961  11.318   9.151
  649POPC   GL213310   6.201  11.558   9.117
  649POPC   C1A13311   5.876  11.143   8.755
  649POPC   D2A13312   5.732  11.283   8.344
  649POPC   C3A13313   5.931  11.177   7.979
  649POPC   C4A13314   5.804  11.215   7.544
  649POPC   C1B13315   6.156  11.562   8.666
  649POPC   C2B13316   6.080  11.661   8.254
  649POPC   C3B13317   5.884  11.662   7.845
  649POPC   C4B13318   6.172  11.606   7.554
  650POPC   NC313319  16.379  42.427   9.446
  650POPC   PO413320  15.758  42.253   9.385
  650POPC   GL113321  16.025  42.230   9.114
  650POPC   GL213322  16.104  42.535   9.041
  650POPC   C1A13323  16.019  42.094   8.722
  650POPC   D2A13324  15.785  42.190   8.386
  650POPC   C3A13325  15.905  42.171   8.019
  650POPC   C4A13326  15.807  42.313   7.685
  650POPC   C1B13327  15.819  42.590   8.730
  650POPC   C2B13328  15.976  42.664   8.342
  650POPC   C3B13329  15.938  42.935   8.026
  650POPC   C4B13330  15.842  42.809   7.648
  651POPC   NC313331  28.755  22.598   9.536
  651POPC   PO413332  29.215  22.111   9.559
  651POPC   GL113333  29.012  22.058   9.203
  651POPC   GL213334  29.055  22.411   9.157
  651POPC   C1A13335  29.171  22.080   8.774
  651POPC   D2A13336  29.327  22.226   8.390
  651POPC   C3A13337  29.242  21.965   8.027
  651POPC   C4A13338  29.173  22.160   7.641
  651POPC   C1B13339  29.046  22.569   8.761
  651POPC   C2B13340  28.946  22.605   8.384
  651POPC   C3B13341  29.108  22.528   8.013
  651POPC   C4B13342  28.836  22.546   7.663
  652POPC   NC313343  24.354  31.683   9.591
  652POPC   PO413344  25.003  31.515   9.698
  652POPC   GL113345  24.694  31.435   9.290
  652POPC   GL213346  24.313  31.338   9.224
  652POPC   C1A13347  24.689  31.301   8.863
  652POPC   D2A13348  24.715  31.112   8.471
  652POPC   C3A13349  24.727  31.331   8.124
  652POPC   C4A13350  24.741  31.392   7.728
  652POPC   C1B13351  24.213  31.459   8.825
  652POPC   C2B13352  24.183  31.318   8.417
  652POPC   C3B13353  24.246  31.451   7.981
  652POPC   C4B13354  24.269  31.538   7.545
  653POPC   NC313355  28.551  39.912   9.607
  653POPC   PO413356  28.187  40.435   9.451
  653POPC   GL113357  28.421  40.249   9.160
  653POPC   GL213358  28.357  39.893   9.132
  653POPC   C1A13359  28.431  40.253   8.734
  653POPC   D2A13360  28.379  40.000   8.390
  653POPC   C3A13361  28.517  40.190   8.022
  653POPC   C4A13362  28.228  40.353   7.728
  653POPC   C1B13363  28.181  39.719   8.775
  653POPC   C2B13364  28.126  39.553   8.359
  653POPC   C3B13365  28.160  39.768   7.984
  653POPC   C4B13366  28.406  39.880   7.622
  654POPC   NC313367  11.710  12.280   9.601
  654POPC   PO413368  11.050  11.960   9.520
  654POPC   GL113369  11.226  12.226   9.200
  654POPC   GL213370  10.902  12.347   9.042
  654POPC   C1A13371  11.376  12.382   8.810
  654POPC   D2A13372  11.253  12.273   8.388
  654POPC   C3A13373  11.515  12.301   8.027
  654POPC   C4A13374  11.634  12.072   7.649
  654POPC   C1B13375  11.029  11.982   8.773
  654POPC   C2B13376  11.027  11.796   8.325
  654POPC   C3B13377  11.193  11.882   7.916
  654POPC   C4B13378  11.101  12.191   7.618
  655POPC   NC313379  44.497  35.727   9.374
  655POPC   PO413380  44.453  36.419   9.421
  655POPC   GL113381  44.647  36.205   9.059
  655POPC   GL213382  44.712  35.840   8.950
  655POPC   C1A13383  44.832  36.235   8.648
  655POPC   D2A13384   0.033  36.231   8.229
  655POPC   C3A13385  44.765  36.360   7.874
  655POPC   C4A13386  44.518  36.528   7.464
  655POPC   C1B13387  44.403  35.921   8.681
  655POPC   C2B13388  44.566  36.014   8.272
  655POPC   C3B13389  44.755  35.827   7.916
  655POPC   C4B13390  44.649  36.009   7.531
  656POPC   NC313391  44.557  18.735   9.344
  656POPC   PO413392  44.709  18.111   9.716
  656POPC   GL113393  44.796  18.241   9.305
  656POPC   GL213394  44.604  18.023   9.066
  656POPC   C1A13395  44.927  18.390   8.888
  656POPC   D2A13396  44.945  18.204   8.475
  656POPC   C3A13397  44.904  18.500   8.131
  656POPC   C4A13398  44.629  18.452   7.774
  656POPC   C1B13399  44.365  17.820   8.697
  656POPC   C2B13400  44.351  17.851   8.255
  656POPC   C3B13401  44.699  18.017   8.043
  656POPC   C4B13402  44.534  17.937   7.686
  657POPC   NC313403  39.524   1.262   9.533
  657POPC   PO413404  39.065   0.939   9.639
  657POPC   GL113405  39.238   0.998   9.191
  657POPC   GL213406  39.166   1.329   9.066
  657POPC   C1A13407  39.589   1.110   8.876
  657POPC   D2A13408  39.648   1.164   8.422
  657POPC   C3A13409  39.464   1.381   8.080
  657POPC   C4A13410  39.569   1.075   7.810
  657POPC   C1B13411  39.137   1.110   8.636
  657POPC   C2B13412  39.170   0.966   8.185
  657POPC   C3B13413  39.043   1.176   7.819
  657POPC   C4B13414  38.798   1.253   7.452
  658POPC   NC313415  10.464  39.598   9.239
  658POPC   PO413416  10.445  40.286   9.405
  658POPC   GL113417  10.615  40.061   9.055
  658POPC   GL213418  10.914  39.787   9.082
  658POPC   C1A13419  10.460  40.162   8.632
  658POPC   D2A13420  10.556  40.459   8.324
  658POPC   C3A13421  10.414  40.298   7.934
  658POPC   C4A13422  10.187  39.934   7.718
  658POPC   C1B13423  10.795  39.774   8.656
  658POPC   C2B13424  10.460  39.651   8.388
  658POPC   C3B13425  10.599  39.816   8.017
  658POPC   C4B13426  10.981  39.797   7.800
  659POPC   NC313427  30.170   1.229   9.474
  659POPC   PO413428  29.539   1.194   9.241
  659POPC   GL113429  29.892   1.131   9.038
  659POPC   GL213430  30.000   0.806   9.117
  659POPC   C1A13431  29.815   1.118   8.616
  659POPC   D2A13432  29.868   1.403   8.282
  659POPC   C3A13433  29.728   1.255   7.872
  659POPC   C4A13434  29.558   1.185   7.450
  659POPC   C1B13435  30.216   0.828   8.701
  659POPC   C2B13436  30.117   0.923   8.233
  659POPC   C3B13437  30.317   0.757   7.859
  659POPC   C4B13438  30.314   0.650   7.383
  660POPC   NC313439  31.980  12.167   9.551
  660POPC   PO413440  32.572  11.761   9.594
  660POPC   GL113441  32.345  11.932   9.251
  660POPC   GL213442  32.406  12.315   9.258
  660POPC   C1A13443  32.192  11.809   8.834
  660POPC   D2A13444  32.044  11.727   8.437
  660POPC   C3A13445  32.224  11.875   8.084
  660POPC   C4A13446  32.269  12.096   7.721
  660POPC   C1B13447  32.170  12.327   8.861
  660POPC   C2B13448  31.953  12.220   8.437
  660POPC   C3B13449  32.003  12.353   8.046
  660POPC   C4B13450  31.791  12.287   7.637
  661POPC   NC313451  32.003   2.523   9.426
  661POPC   PO413452  32.317   3.144   9.466
  661POPC   GL113453  32.160   2.929   9.132
  661POPC   GL213454  32.411   2.678   9.123
  661POPC   C1A13455  32.107   2.743   8.711
  661POPC   D2A13456  32.273   2.754   8.341
  661POPC   C3A13457  32.058   2.693   8.040
  661POPC   C4A13458  32.148   2.562   7.620
  661POPC   C1B13459  32.406   2.358   8.834
  661POPC   C2B13460  32.407   2.273   8.427
  661POPC   C3B13461  32.350   2.279   8.007
  661POPC   C4B13462  32.606   2.363   7.655
  662POPC   NC313463  18.273  32.658   9.641
  662POPC   PO413464  18.525  33.292   9.673
  662POPC   GL113465  18.299  33.073   9.277
  662POPC   GL213466  18.520  32.786   9.205
  662POPC   C1A13467  18.193  33.052   8.791
  662POPC   D2A13468  18.510  32.997   8.413
  662POPC   C3A13469  18.506  33.251   8.047
  662POPC   C4A13470  18.225  33.204   7.728
  662POPC   C1B13471  18.520  32.667   8.797
  662POPC   C2B13472  18.133  32.627   8.512
  662POPC   C3B13473  18.072  32.849   8.116
  662POPC   C4B13474  18.466  32.775   7.875
  663POPC   NC313475  26.734  38.774   9.551
  663POPC   PO413476  26.811  39.556   9.512
  663POPC   GL113477  26.867  39.453   9.085
  663POPC   GL213478  26.543  39.340   9.080
  663POPC   C1A13479  26.835  39.482   8.622
  663POPC   D2A13480  26.510  39.441   8.302
  663POPC   C3A13481  26.702  39.219   7.959
  663POPC   C4A13482  27.112  39.005   7.900
  663POPC   C1B13483  26.712  39.012   8.775
  663POPC   C2B13484  26.822  38.869   8.333
  663POPC   C3B13485  26.687  38.705   7.911
  663POPC   C4B13486  26.416  38.738   7.538
  664POPC   NC313487  18.923  44.069   9.367
  664POPC   PO413488  19.267  43.469   9.351
  664POPC   GL113489  18.959  43.649   9.043
  664POPC   GL213490  18.963  44.021   8.877
  664POPC   C1A13491  18.878  43.621   8.589
  664POPC   D2A13492  18.910  43.974   8.300
  664POPC   C3A13493  18.850  43.850   7.872
  664POPC   C4A13494  18.608  43.800   7.495
  664POPC   C1B13495  19.298  44.199   8.602
  664POPC   C2B13496  19.366  44.197   8.152
  664POPC   C3B13497  19.078  44.350   7.889
  664POPC   C4B13498  18.896  44.220   7.487
  665POPC   NC313499   7.987  33.047   9.627
  665POPC   PO413500   8.459  32.639   9.813
  665POPC   GL113501   8.400  32.982   9.354
  665POPC   GL213502   8.092  32.955   9.156
  665POPC   C1A13503   8.535  33.042   8.867
  665POPC   D2A13504   8.413  33.242   8.424
  665POPC   C3A13505   8.282  33.048   8.032
  665POPC   C4A13506   8.513  32.983   7.665
  665POPC   C1B13507   8.042  33.135   8.796
  665POPC   C2B13508   8.110  32.826   8.478
  665POPC   C3B13509   7.908  32.677   8.106
  665POPC   C4B13510   7.889  32.841   7.679
  666POPC   NC313511   7.679  35.664   9.577
  666POPC   PO413512   7.599  34.987   9.420
  666POPC   GL113513   7.467  35.181   9.033
  666POPC   GL213514   7.556  35.508   9.101
  666POPC   C1A13515   7.293  35.173   8.615
  666POPC   D2A13516   6.964  34.985   8.397
  666POPC   C3A13517   7.106  34.875   7.973
  666POPC   C4A13518   7.421  35.182   7.823
  666POPC   C1B13519   7.718  35.487   8.703
  666POPC   C2B13520   7.518  35.467   8.284
  666POPC   C3B13521   7.570  35.702   7.964
  666POPC   C4B13522   7.694  35.526   7.559
  667POPC   NC313523   5.116   1.408   9.602
  667POPC   PO413524   4.759   0.903   9.620
  667POPC   GL113525   4.889   1.051   9.214
  667POPC   GL213526   5.256   1.047   9.256
  667POPC   C1A13527   4.880   1.230   8.757
  667POPC   D2A13528   5.099   1.498   8.434
  667POPC   C3A13529   4.889   1.575   8.030
  667POPC   C4A13530   4.593   1.333   7.775
  667POPC   C1B13531   5.390   1.203   8.837
  667POPC   C2B13532   5.318   1.043   8.427
  667POPC   C3B13533   5.379   1.207   8.024
  667POPC   C4B13534   5.087   1.155   7.706
  668POPC   NC313535  29.194   8.563   9.573
  668POPC   PO413536  28.784   9.157   9.475
  668POPC   GL113537  28.975   9.112   9.048
  668POPC   GL213538  29.134   8.805   9.128
  668POPC   C1A13539  29.132   8.991   8.636
  668POPC   D2A13540  29.351   9.129   8.267
  668POPC   C3A13541  29.050   9.193   7.946
  668POPC   C4A13542  28.763   9.514   7.823
  668POPC   C1B13543  29.333   8.549   8.835
  668POPC   C2B13544  29.354   8.594   8.392
  668POPC   C3B13545  29.182   8.705   8.006
  668POPC   C4B13546  29.295   8.581   7.634
  669POPC   NC313547  33.258  19.971   9.556
  669POPC   PO413548  32.651  19.757   9.445
  669POPC   GL113549  32.825  19.764   9.086
  669POPC   GL213550  33.131  19.886   9.085
  669POPC   C1A13551  32.770  19.876   8.687
  669POPC   D2A13552  33.000  19.847   8.315
  669POPC   C3A13553  33.199  20.084   8.014
  669POPC   C4A13554  32.971  19.965   7.699
  669POPC   C1B13555  33.503  19.749   8.944
  669POPC   C2B13556  33.612  19.704   8.523
  669POPC   C3B13557  33.434  19.637   8.114
  669POPC   C4B13558  33.434  19.744   7.685
  670POPC   NC313559  17.936  25.260   9.562
  670POPC   PO413560  18.376  24.798   9.693
  670POPC   GL113561  18.388  25.201   9.351
  670POPC   GL213562  18.278  25.080   9.109
  670POPC   C1A13563  18.278  25.510   8.896
  670POPC   D2A13564  18.369  25.437   8.442
  670POPC   C3A13565  18.126  25.479   8.041
  670POPC   C4A13566  18.312  25.398   7.669
  670POPC   C1B13567  18.591  25.125   8.816
  670POPC   C2B13568  18.722  25.061   8.395
  670POPC   C3B13569  18.492  25.086   8.021
  670POPC   C4B13570  18.357  24.891   7.620
  671POPC   NC313571  28.756   4.094   9.433
  671POPC   PO413572  28.243   4.410   9.786
  671POPC   GL113573  28.418   4.497   9.333
  671POPC   GL213574  28.213   4.250   9.226
  671POPC   C1A13575  28.465   4.486   8.838
  671POPC   D2A13576  28.373   4.347   8.390
  671POPC   C3A13577  28.539   4.307   7.971
  671POPC   C4A13578  28.514   3.968   7.665
  671POPC   C1B13579  27.987   4.605   8.963
  671POPC   C2B13580  28.039   4.705   8.519
  671POPC   C3B13581  27.995   4.561   8.098
  671POPC   C4B13582  28.178   4.667   7.724
  672POPC   NC313583  40.823   6.081   9.520
  672POPC   PO413584  40.952   5.394   9.475
  672POPC   GL113585  40.827   5.745   9.129
  672POPC   GL213586  40.562   6.076   9.108
  672POPC   C1A13587  40.656   5.804   8.708
  672POPC   D2A13588  40.847   5.865   8.361
  672POPC   C3A13589  40.796   5.715   7.978
  672POPC   C4A13590  41.081   5.778   7.647
  672POPC   C1B13591  40.533   6.314   8.718
  672POPC   C2B13592  40.464   6.199   8.290
  672POPC   C3B13593  40.368   6.087   7.873
  672POPC   C4B13594  40.602   5.895   7.528
  673POPC   NC313595  23.051  21.963   9.251
  673POPC   PO413596  22.688  22.308   9.694
  673POPC   GL113597  22.762  22.392   9.233
  673POPC   GL213598  23.047  22.571   9.199
  673POPC   C1A13599  22.831  22.310   8.749
  673POPC   D2A13600  22.779  22.151   8.316
  673POPC   C3A13601  22.918  21.980   7.894
  673POPC   C4A13602  22.723  22.114   7.467
  673POPC   C1B13603  23.318  22.447   8.876
  673POPC   C2B13604  23.250  22.491   8.445
  673POPC   C3B13605  23.238  22.413   8.013
  673POPC   C4B13606  23.138  22.346   7.607
  674POPC   NC313607  44.601  32.944   9.642
  674POPC   PO413608   0.028  33.038   9.149
  674POPC   GL113609  44.720  32.708   9.020
  674POPC   GL213610  44.413  32.696   9.220
  674POPC   C1A13611  44.628  32.747   8.575
  674POPC   D2A13612  44.738  33.148   8.381
  674POPC   C3A13613  44.890  33.166   7.960
  674POPC   C4A13614  44.931  32.953   7.585
  674POPC   C1B13615  44.181  32.712   8.847
  674POPC   C2B13616  44.163  32.921   8.441
  674POPC   C3B13617  44.387  32.992   8.042
  674POPC   C4B13618  44.477  32.757   7.680
  675POPC   NC313619   7.112   1.346   9.513
  675POPC   PO413620   7.646   0.898   9.585
  675POPC   GL113621   7.473   1.171   9.217
  675POPC   GL213622   7.197   1.005   9.133
  675POPC   C1A13623   7.384   1.398   8.805
  675POPC   D2A13624   7.277   1.480   8.331
  675POPC   C3A13625   7.661   1.441   8.085
  675POPC   C4A13626   7.788   1.194   7.711
  675POPC   C1B13627   7.282   0.908   8.744
  675POPC   C2B13628   7.512   1.034   8.384
  675POPC   C3B13629   7.336   1.037   7.971
  675POPC   C4B13630   7.436   0.848   7.569
  676POPC   NC313631  33.998  11.756   9.325
  676POPC   PO413632  33.698  11.326   9.835
  676POPC   GL113633  33.738  11.307   9.344
  676POPC   GL213634  34.001  11.082   9.207
  676POPC   C1A13635  33.655  11.442   8.876
  676POPC   D2A13636  33.879  11.627   8.497
  676POPC   C3A13637  33.814  11.377   8.119
  676POPC   C4A13638  34.004  11.394   7.699
  676POPC   C1B13639  33.989  10.831   8.809
  676POPC   C2B13640  33.857  10.776   8.381
  676POPC   C3B13641  33.799  10.890   7.964
  676POPC   C4B13642  33.499  11.149   7.756
  677POPC   NC313643  41.230  32.192   9.432
  677POPC   PO413644  41.866  32.259   9.582
  677POPC   GL113645  41.704  32.055   9.210
  677POPC   GL213646  41.566  32.392   9.109
  677POPC   C1A13647  41.813  32.146   8.769
  677POPC   D2A13648  41.642  32.322   8.398
  677POPC   C3A13649  41.773  32.104   8.055
  677POPC   C4A13650  41.698  32.150   7.678
  677POPC   C1B13651  41.264  32.313   8.755
  677POPC   C2B13652  41.137  32.523   8.356
  677POPC   C3B13653  41.262  32.473   7.915
  677POPC   C4B13654  41.195  32.728   7.496
  678POPC   NC313655  31.868  19.706   9.578
  678POPC   PO413656  31.367  20.148   9.456
  678POPC   GL113657  31.433  20.033   9.051
  678POPC   GL213658  31.581  19.710   9.110
  678POPC   C1A13659  31.498  20.233   8.667
  678POPC   D2A13660  31.619  20.136   8.245
  678POPC   C3A13661  31.281  20.033   7.983
  678POPC   C4A13662  31.203  19.676   7.729
  678POPC   C1B13663  31.700  19.760   8.661
  678POPC   C2B13664  31.614  19.604   8.209
  678POPC   C3B13665  31.690  19.522   7.753
  678POPC   C4B13666  31.635  19.716   7.352
  679POPC   NC313667  20.375  16.130   9.669
  679POPC   PO413668  20.857  15.652   9.591
  679POPC   GL113669  20.586  15.790   9.270
  679POPC   GL213670  20.689  16.122   9.224
  679POPC   C1A13671  20.431  15.870   8.853
  679POPC   D2A13672  20.555  16.066   8.449
  679POPC   C3A13673  20.338  16.021   8.069
  679POPC   C4A13674  20.530  15.868   7.692
  679POPC   C1B13675  20.887  16.204   8.808
  679POPC   C2B13676  20.950  16.351   8.334
  679POPC   C3B13677  20.744  16.321   7.911
  679POPC   C4B13678  20.749  16.270   7.468
  680POPC   NC313679  21.242  40.727   9.477
  680POPC   PO413680  21.695  41.119   9.236
  680POPC   GL113681  21.491  40.861   9.034
  680POPC   GL213682  21.587  40.533   9.147
  680POPC   C1A13683  21.389  40.973   8.639
  680POPC   D2A13684  21.338  41.213   8.271
  680POPC   C3A13685  21.401  40.995   7.927
  680POPC   C4A13686  21.477  40.808   7.542
  680POPC   C1B13687  21.464  40.457   8.705
  680POPC   C2B13688  21.432  40.625   8.290
  680POPC   C3B13689  21.399  40.461   7.909
  680POPC   C4B13690  21.706  40.345   7.655
  681POPC   NC313691   8.813  10.180  10.231
  681POPC   PO413692   8.928  10.497   9.705
  681POPC   GL113693   9.035  10.591   9.235
  681POPC   GL213694   8.885  10.879   9.082
  681POPC   C1A13695   9.048  10.554   8.742
  681POPC   D2A13696   9.115  10.445   8.300
  681POPC   C3A13697   8.878  10.433   7.921
  681POPC   C4A13698   9.027  10.250   7.533
  681POPC   C1B13699   9.148  11.063   8.707
  681POPC   C2B13700   9.305  10.933   8.276
  681POPC   C3B13701   9.326  10.672   7.872
  681POPC   C4B13702   9.052  10.766   7.524
  682POPC   NC313703  16.375  13.351   9.521
  682POPC   PO413704  16.890  13.762   9.472
  682POPC   GL113705  16.871  13.569   9.071
  682POPC   GL213706  16.591  13.332   9.054
  682POPC   C1A13707  16.965  13.831   8.725
  682POPC   D2A13708  16.709  13.958   8.382
  682POPC   C3A13709  16.743  13.734   8.016
  682POPC   C4A13710  16.998  13.814   7.700
  682POPC   C1B13711  16.721  13.367   8.616
  682POPC   C2B13712  16.714  13.233   8.195
  682POPC   C3B13713  16.466  13.344   7.832
  682POPC   C4B13714  16.402  13.361   7.386
  683POPC   NC313715   5.125  31.047   9.389
  683POPC   PO413716   4.907  30.476   9.621
  683POPC   GL113717   4.898  30.623   9.201
  683POPC   GL213718   4.647  30.897   9.203
  683POPC   C1A13719   5.069  30.596   8.767
  683POPC   D2A13720   5.134  30.402   8.361
  683POPC   C3A13721   5.178  30.642   7.990
  683POPC   C4A13722   5.199  31.068   7.847
  683POPC   C1B13723   4.841  31.044   8.797
  683POPC   C2B13724   4.983  30.935   8.364
  683POPC   C3B13725   4.722  30.890   7.983
  683POPC   C4B13726   4.698  30.909   7.520
  684POPC   NC313727  34.324  39.325   9.462
  684POPC   PO413728  34.955  39.055   9.451
  684POPC   GL113729  34.717  39.244   9.147
  684POPC   GL213730  34.495  38.986   9.061
  684POPC   C1A13731  34.548  39.473   8.799
  684POPC   D2A13732  34.430  39.301   8.407
  684POPC   C3A13733  34.560  39.460   8.007
  684POPC   C4A13734  34.594  39.235   7.582
  684POPC   C1B13735  34.191  38.950   8.731
  684POPC   C2B13736  33.989  38.981   8.361
  684POPC   C3B13737  34.209  39.084   7.976
  684POPC   C4B13738  34.412  38.787   7.713
  685POPC   NC313739  27.096  28.244   9.330
  685POPC   PO413740  27.642  28.586   9.559
  685POPC   GL113741  27.671  28.480   9.094
  685POPC   GL213742  27.370  28.477   8.986
  685POPC   C1A13743  27.682  28.323   8.644
  685POPC   D2A13744  27.798  28.444   8.252
  685POPC   C3A13745  27.623  28.352   7.923
  685POPC   C4A13746  27.757  28.486   7.541
  685POPC   C1B13747  27.153  28.323   8.671
  685POPC   C2B13748  27.259  28.240   8.284
  685POPC   C3B13749  27.114  28.361   7.899
  685POPC   C4B13750  27.306  28.229   7.484
  686POPC   NC313751  33.297  32.076   9.571
  686POPC   PO413752  33.201  32.655   9.355
  686POPC   GL113753  33.060  32.371   9.053
  686POPC   GL213754  33.105  32.008   9.101
  686POPC   C1A13755  32.971  32.529   8.646
  686POPC   D2A13756  32.963  32.700   8.236
  686POPC   C3A13757  32.837  32.463   7.916
  686POPC   C4A13758  33.064  32.196   7.677
  686POPC   C1B13759  33.235  32.097   8.662
  686POPC   C2B13760  33.246  32.163   8.196
  686POPC   C3B13761  33.360  31.852   7.888
  686POPC   C4B13762  33.414  31.937   7.428
  687POPC   NC313763   6.604  10.248   9.390
  687POPC   PO413764   7.060  10.594   9.522
  687POPC   GL113765   6.835  10.818   9.219
  687POPC   GL213766   6.530  10.634   9.089
  687POPC   C1A13767   6.888  10.785   8.791
  687POPC   D2A13768   6.705  10.891   8.421
  687POPC   C3A13769   6.642  10.603   8.083
  687POPC   C4A13770   6.649  10.758   7.638
  687POPC   C1B13771   6.414  10.516   8.665
  687POPC   C2B13772   6.252  10.304   8.285
  687POPC   C3B13773   6.282  10.362   7.826
  687POPC   C4B13774   6.641  10.264   7.587
  688POPC   NC313775  20.841  25.315   9.474
  688POPC   PO413776  20.238  25.028   9.559
  688POPC   GL113777  20.269  25.229   9.179
  688POPC   GL213778  20.520  25.435   9.112
  688POPC   C1A13779  20.468  25.049   8.799
  688POPC   D2A13780  20.423  24.846   8.420
  688POPC   C3A13781  20.392  25.161   8.076
  688POPC   C4A13782  20.294  25.181   7.651
  688POPC   C1B13783  20.740  25.546   8.767
  688POPC   C2B13784  20.520  25.571   8.391
  688POPC   C3B13785  20.740  25.545   8.030
  688POPC   C4B13786  20.758  25.363   7.648
  689POPC   NC313787  38.057  13.143   9.531
  689POPC   PO413788  38.613  12.784   9.417
  689POPC   GL113789  38.452  12.816   9.061
  689POPC   GL213790  38.122  12.929   9.087
  689POPC   C1A13791  38.473  12.689   8.648
  689POPC   D2A13792  38.866  12.689   8.393
  689POPC   C3A13793  38.864  12.870   8.007
  689POPC   C4A13794  38.561  12.872   7.728
  689POPC   C1B13795  38.310  13.206   8.791
  689POPC   C2B13796  38.522  13.140   8.435
  689POPC   C3B13797  38.272  12.961   8.122
  689POPC   C4B13798  38.144  13.158   7.715
  690POPC   NC313799  16.275   3.611   9.453
  690POPC   PO413800  16.945   3.516   9.496
  690POPC   GL113801  16.962   3.493   9.077
  690POPC   GL213802  17.168   3.769   9.045
  690POPC   C1A13803  16.624   3.599   8.790
  690POPC   D2A13804  16.608   3.932   8.482
  690POPC   C3A13805  16.686   3.720   8.110
  690POPC   C4A13806  16.509   3.422   7.817
  690POPC   C1B13807  17.092   3.726   8.588
  690POPC   C2B13808  17.143   3.989   8.205
  690POPC   C3B13809  17.014   3.930   7.772
  690POPC   C4B13810  17.042   3.483   7.681
  691POPC   NC313811  13.286  32.425   9.391
  691POPC   PO413812  13.817  32.051   9.567
  691POPC   GL113813  13.850  32.177   9.131
  691POPC   GL213814  13.681  32.440   9.009
  691POPC   C1A13815  14.014  32.132   8.720
  691POPC   D2A13816  13.847  31.969   8.349
  691POPC   C3A13817  13.818  32.192   7.974
  691POPC   C4A13818  13.463  32.183   7.744
  691POPC   C1B13819  13.375  32.365   8.701
  691POPC   C2B13820  13.217  32.214   8.287
  691POPC   C3B13821  13.056  32.425   7.904
  691POPC   C4B13822  13.156  32.735   7.547
  692POPC   NC313823   4.556   8.394   9.490
  692POPC   PO413824   3.956   8.075   9.701
  692POPC   GL113825   4.095   8.378   9.288
  692POPC   GL213826   4.338   8.126   9.120
  692POPC   C1A13827   4.102   8.420   8.777
  692POPC   D2A13828   4.229   8.222   8.333
  692POPC   C3A13829   4.113   8.275   7.860
  692POPC   C4A13830   4.361   8.371   7.450
  692POPC   C1B13831   4.358   7.882   8.747
  692POPC   C2B13832   4.535   7.796   8.355
  692POPC   C3B13833   4.366   7.827   7.931
  692POPC   C4B13834   4.260   7.868   7.500
  693POPC   NC313835  15.689  42.745   9.376
  693POPC   PO413836  15.256  43.255   9.448
  693POPC   GL113837  15.464  43.116   9.096
  693POPC   GL213838  15.571  43.455   9.037
  693POPC   C1A13839  15.325  42.872   8.692
  693POPC   D2A13840  14.944  42.715   8.389
  693POPC   C3A13841  15.034  42.836   7.960
  693POPC   C4A13842  15.394  43.000   7.738
  693POPC   C1B13843  15.260  43.378   8.712
  693POPC   C2B13844  15.235  43.218   8.287
  693POPC   C3B13845  15.187  43.423   7.885
  693POPC   C4B13846  15.305  43.410   7.404
  694POPC   NC313847   2.370  18.804   9.498
  694POPC   PO413848   1.814  19.206   9.469
  694POPC   GL113849   2.013  19.029   9.136
  694POPC   GL213850   2.307  19.197   9.122
  694POPC   C1A13851   1.873  18.953   8.726
  694POPC   D2A13852   2.036  18.923   8.333
  694POPC   C3A13853   1.770  18.963   7.993
  694POPC   C4A13854   1.891  18.865   7.608
  694POPC   C1B13855   2.357  19.144   8.713
  694POPC   C2B13856   2.385  19.291   8.300
  694POPC   C3B13857   2.253  19.143   7.895
  694POPC   C4B13858   2.263  19.344   7.486
  695POPC   NC313859  39.637  12.149   9.556
  695POPC   PO413860  40.290  11.930   9.467
  695POPC   GL113861  39.981  12.130   9.165
  695POPC   GL213862  39.610  11.984   9.073
  695POPC   C1A13863  39.856  12.358   8.784
  695POPC   D2A13864  39.763  12.403   8.330
  695POPC   C3A13865  40.002  12.186   8.028
  695POPC   C4A13866  40.120  12.129   7.589
  695POPC   C1B13867  39.426  11.881   8.658
  695POPC   C2B13868  39.572  11.903   8.206
  695POPC   C3B13869  39.878  11.708   7.882
  695POPC   C4B13870  39.771  11.695   7.444
  696POPC   NC313871  12.721  21.372   9.631
  696POPC   PO413872  13.259  21.652   9.467
  696POPC   GL113873  12.998  21.309   9.198
  696POPC   GL213874  12.622  21.373   9.134
  696POPC   C1A13875  12.821  21.011   8.848
  696POPC   D2A13876  12.570  20.998   8.450
  696POPC   C3A13877  12.803  20.994   8.049
  696POPC   C4A13878  12.927  21.268   7.735
  696POPC   C1B13879  12.800  21.512   8.731
  696POPC   C2B13880  13.019  21.378   8.356
  696POPC   C3B13881  13.205  21.604   8.025
  696POPC   C4B13882  13.249  21.650   7.617
  697POPC   NC313883  33.779  42.638   9.567
  697POPC   PO413884  33.516  42.103   9.469
  697POPC   GL113885  33.725  42.298   9.131
  697POPC   GL213886  34.009  42.540   9.079
  697POPC   C1A13887  33.871  42.090   8.774
  697POPC   D2A13888  34.173  41.919   8.492
  697POPC   C3A13889  34.095  42.084   8.067
  697POPC   C4A13890  33.676  42.055   7.907
  697POPC   C1B13891  33.844  42.608   8.690
  697POPC   C2B13892  33.727  42.387   8.331
  697POPC   C3B13893  33.745  42.555   7.941
  697POPC   C4B13894  34.005  42.824   7.819
  698POPC   NC313895  37.252   9.281   9.592
  698POPC   PO413896  36.655   8.990   9.401
  698POPC   GL113897  36.958   8.849   9.140
  698POPC   GL213898  37.173   9.108   9.123
  698POPC   C1A13899  36.821   8.766   8.757
  698POPC   D2A13900  36.821   9.064   8.473
  698POPC   C3A13901  36.903   8.937   8.096
  698POPC   C4A13902  36.844   9.094   7.691
  698POPC   C1B13903  37.219   9.323   8.757
  698POPC   C2B13904  37.323   9.201   8.328
  698POPC   C3B13905  37.214   9.348   7.924
  698POPC   C4B13906  37.230   9.355   7.445
  699POPC   NC313907  31.708  20.406   9.280
  699POPC   PO413908  31.228  20.740   9.627
  699POPC   GL113909  31.380  20.793   9.213
  699POPC   GL213910  31.701  20.834   9.029
  699POPC   C1A13911  31.237  20.726   8.781
  699POPC   D2A13912  31.049  20.925   8.404
  699POPC   C3A13913  31.191  20.856   7.992
  699POPC   C4A13914  31.239  20.524   7.719
  699POPC   C1B13915  31.746  20.683   8.645
  699POPC   C2B13916  31.495  20.610   8.332
  699POPC   C3B13917  31.680  20.593   7.967
  699POPC   C4B13918  31.633  20.927   7.714
  700POPC   NC313919  23.510  41.559   9.502
  700POPC   PO413920  24.000  41.240   9.302
  700POPC   GL113921  23.778  41.526   9.063
  700POPC   GL213922  23.952  41.822   9.022
  700POPC   C1A13923  23.609  41.673   8.666
  700POPC   D2A13924  23.458  41.502   8.273
  700POPC   C3A13925  23.515  41.747   7.888
  700POPC   C4A13926  23.596  41.533   7.512
  700POPC   C1B13927  23.976  42.020   8.616
  700POPC   C2B13928  23.930  41.777   8.228
  700POPC   C3B13929  24.013  41.593   7.798
  700POPC   C4B13930  23.936  41.903   7.426
  701POPC   NC313931  41.323  37.251   9.515
  701POPC   PO413932  41.762  36.776   9.473
  701POPC   GL113933  41.752  37.108   9.200
  701POPC   GL213934  41.439  36.994   9.078
  701POPC   C1A13935  41.810  37.124   8.763
  701POPC   D2A13936  41.611  36.957   8.405
  701POPC   C3A13937  41.845  36.989   8.033
  701POPC   C4A13938  41.708  36.841   7.681
  701POPC   C1B13939  41.318  37.277   8.764
  701POPC   C2B13940  41.130  37.182   8.365
  701POPC   C3B13941  41.328  37.055   7.970
  701POPC   C4B13942  41.260  37.038   7.495
  702POPC   NC313943   3.148  34.472   9.378
  702POPC   PO413944   2.595  34.810   9.683
  702POPC   GL113945   2.706  34.772   9.265
  702POPC   GL213946   2.392  34.635   9.105
  702POPC   C1A13947   2.756  34.807   8.798
  702POPC   D2A13948   2.488  34.679   8.457
  702POPC   C3A13949   2.652  34.661   8.064
  702POPC   C4A13950   2.774  34.796   7.682
  702POPC   C1B13951   2.518  34.288   8.788
  702POPC   C2B13952   2.642  34.191   8.330
  702POPC   C3B13953   2.512  34.197   7.868
  702POPC   C4B13954   2.618  34.371   7.432
  703POPC   NC313955   7.778   2.086   9.420
  703POPC   PO413956   8.457   2.204   9.494
  703POPC   GL113957   8.223   2.020   9.157
  703POPC   GL213958   8.106   1.685   9.222
  703POPC   C1A13959   8.256   2.143   8.738
  703POPC   D2A13960   8.510   2.109   8.368
  703POPC   C3A13961   8.272   2.258   8.047
  703POPC   C4A13962   8.234   2.098   7.651
  703POPC   C1B13963   7.918   1.720   8.799
  703POPC   C2B13964   8.074   1.805   8.374
  703POPC   C3B13965   7.918   1.870   7.964
  703POPC   C4B13966   7.693   1.671   7.613
  704POPC   NC313967  40.856  43.322   9.470
  704POPC   PO413968  40.518  42.774   9.602
  704POPC   GL113969  40.788  42.869   9.169
  704POPC   GL213970  40.821  43.235   8.993
  704POPC   C1A13971  40.917  42.881   8.690
  704POPC   D2A13972  40.657  43.192   8.447
  704POPC   C3A13973  40.689  42.946   8.098
  704POPC   C4A13974  40.904  42.865   7.698
  704POPC   C1B13975  41.008  43.541   8.689
  704POPC   C2B13976  41.159  43.694   8.292
  704POPC   C3B13977  41.057  43.516   7.879
  704POPC   C4B13978  40.670  43.317   7.740
  705POPC   NC313979   4.525  20.047   9.506
  705POPC   PO413980   4.229  19.420   9.565
  705POPC   GL113981   4.202  19.739   9.217
  705POPC   GL213982   4.518  19.772   9.073
  705POPC   C1A13983   4.116  19.979   8.808
  705POPC   D2A13984   4.104  19.797   8.384
  705POPC   C3A13985   4.008  20.107   8.059
  705POPC   C4A13986   4.138  19.876   7.723
  705POPC   C1B13987   4.570  19.813   8.633
  705POPC   C2B13988   4.730  19.900   8.232
  705POPC   C3B13989   4.645  19.934   7.786
  705POPC   C4B13990   4.491  19.745   7.379
  706POPC   NC313991  41.946  38.147   9.867
  706POPC   PO413992  41.434  37.717   9.571
  706POPC   GL113993  41.498  37.607   9.147
  706POPC   GL213994  41.533  37.968   9.113
  706POPC   C1A13995  41.759  37.636   8.758
  706POPC   D2A13996  41.648  37.454   8.380
  706POPC   C3A13997  41.777  37.540   7.991
  706POPC   C4A13998  41.613  37.338   7.676
  706POPC   C1B13999  41.328  37.906   8.738
  706POPC   C2B14000  41.195  37.670   8.436
  706POPC   C3B14001  41.251  37.562   8.018
  706POPC   C4B14002  41.379  37.785   7.692
  707POPC   NC314003   1.737  35.619   9.356
  707POPC   PO414004   2.207  35.176   9.465
  707POPC   GL114005   2.168  35.343   9.093
  707POPC   GL214006   2.456  35.150   9.023
  707POPC   C1A14007   2.022  35.536   8.700
  707POPC   D2A14008   1.701  35.774   8.456
  707POPC   C3A14009   1.790  35.660   8.045
  707POPC   C4A14010   1.910  35.285   7.843
  707POPC   C1B14011   2.258  35.069   8.669
  707POPC   C2B14012   2.210  35.161   8.260
  707POPC   C3B14013   2.391  35.089   7.877
  707POPC   C4B14014   2.239  35.064   7.481
  708POPC   NC314015   7.167   5.230   9.338
  708POPC   PO414016   7.332   4.705   9.512
  708POPC   GL114017   7.177   4.808   9.099
  708POPC   GL214018   7.531   4.962   9.130
  708POPC   C1A14019   7.239   4.996   8.709
  708POPC   D2A14020   7.299   4.955   8.318
  708POPC   C3A14021   7.202   5.324   8.094
  708POPC   C4A14022   7.263   5.056   7.790
  708POPC   C1B14023   7.708   5.115   8.794
  708POPC   C2B14024   7.619   5.321   8.438
  708POPC   C3B14025   7.688   5.200   8.035
  708POPC   C4B14026   7.677   5.385   7.654
  709POPC   NC314027   0.252   0.248   9.458
  709POPC   PO414028   0.789   0.610   9.451
  709POPC   GL114029   0.564   0.520   9.125
  709POPC   GL214030   0.636   0.183   9.104
  709POPC   C1A14031   0.283   0.443   8.809
  709POPC   D2A14032   0.337   0.159   8.484
  709POPC   C3A14033   0.272   0.297   8.087
  709POPC   C4A14034   0.299   0.504   7.686
  709POPC   C1B14035   0.796   0.037   8.709
  709POPC   C2B14036   0.759  44.998   8.224
  709POPC   C3B14037   0.637   0.093   7.781
  709POPC   C4B14038   0.527   0.214   7.338
  710POPC   NC314039  10.973  19.863   9.589
  710POPC   PO414040  11.563  19.542   9.416
  710POPC   GL114041  11.477  19.884   9.151
  710POPC   GL214042  11.161  19.926   9.134
  710POPC   C1A14043  11.534  19.995   8.721
  710POPC   D2A14044  11.487  19.741   8.332
  710POPC   C3A14045  11.265  19.954   8.029
  710POPC   C4A14046  11.571  20.171   7.798
  710POPC   C1B14047  11.008  20.016   8.760
  710POPC   C2B14048  10.755  19.965   8.415
  710POPC   C3B14049  10.714  20.218   8.075
  710POPC   C4B14050  10.923  20.211   7.709
  711POPC   NC314051  38.952  39.718   9.690
  711POPC   PO414052  39.249  40.281   9.597
  711POPC   GL114053  39.149  40.027   9.275
  711POPC   GL214054  39.459  39.863   9.311
  711POPC   C1A14055  39.241  39.989   8.817
  711POPC   D2A14056  39.516  40.091   8.443
  711POPC   C3A14057  39.292  40.281   8.098
  711POPC   C4A14058  39.208  40.350   7.651
  711POPC   C1B14059  39.603  39.640   8.960
  711POPC   C2B14060  39.593  39.552   8.510
  711POPC   C3B14061  39.328  39.688   8.169
  711POPC   C4B14062  39.421  39.894   7.797
  712POPC   NC314063  41.619   8.280   9.538
  712POPC   PO414064  41.007   7.898   9.392
  712POPC   GL114065  41.283   8.162   9.143
  712POPC   GL214066  41.669   8.078   9.097
  712POPC   C1A14067  41.352   8.079   8.709
  712POPC   D2A14068  41.547   7.948   8.364
  712POPC   C3A14069  41.338   7.869   8.000
  712POPC   C4A14070  41.292   8.181   7.697
  712POPC   C1B14071  41.911   7.980   8.770
  712POPC   C2B14072  42.030   8.148   8.379
  712POPC   C3B14073  41.820   8.290   8.014
  712POPC   C4B14074  41.773   8.100   7.586
  713POPC   NC314075  32.161   5.384   9.436
  713POPC   PO414076  32.554   4.903   9.560
  713POPC   GL114077  32.530   5.064   9.159
  713POPC   GL214078  32.487   5.415   9.046
  713POPC   C1A14079  32.406   4.841   8.801
  713POPC   D2A14080  32.125   5.007   8.522
  713POPC   C3A14081  32.154   4.939   8.064
  713POPC   C4A14082  32.207   4.988   7.602
  713POPC   C1B14083  32.638   5.280   8.683
  713POPC   C2B14084  32.592   5.155   8.280
  713POPC   C3B14085  32.589   5.205   7.853
  713POPC   C4B14086  32.407   5.452   7.524
  714POPC   NC314087   4.066  15.095   9.379
  714POPC   PO414088   3.458  15.361   9.468
  714POPC   GL114089   3.575  15.187   9.120
  714POPC   GL214090   3.864  15.354   9.006
  714POPC   C1A14091   3.382  15.114   8.718
  714POPC   D2A14092   3.631  15.213   8.362
  714POPC   C3A14093   3.591  15.068   7.934
  714POPC   C4A14094   3.512  15.356   7.621
  714POPC   C1B14095   3.862  14.955   8.768
  714POPC   C2B14096   4.049  14.829   8.396
  714POPC   C3B14097   4.040  14.837   7.954
  714POPC   C4B14098   4.017  15.219   7.700
  715POPC   NC314099  12.580  37.551   9.430
  715POPC   PO414100  13.237  37.797   9.407
  715POPC   GL114101  12.991  37.699   9.102
  715POPC   GL214102  13.060  37.380   9.182
  715POPC   C1A14103  12.714  37.845   8.799
  715POPC   D2A14104  12.531  37.698   8.433
  715POPC   C3A14105  12.716  37.692   8.072
  715POPC   C4A14106  12.622  37.701   7.650
  715POPC   C1B14107  13.147  37.343   8.753
  715POPC   C2B14108  13.186  37.516   8.327
  715POPC   C3B14109  13.082  37.411   7.882
  715POPC   C4B14110  13.084  37.528   7.434
  716POPC   NC314111  30.400   2.794   9.595
  716POPC   PO414112  30.849   2.460   9.175
  716POPC   GL114113  30.913   2.885   9.100
  716POPC   GL214114  30.561   2.922   9.136
  716POPC   C1A14115  30.835   3.093   8.696
  716POPC   D2A14116  31.048   2.978   8.338
  716POPC   C3A14117  30.769   2.693   8.135
  716POPC   C4A14118  30.889   2.541   7.759
  716POPC   C1B14119  30.393   3.224   8.889
  716POPC   C2B14120  30.416   3.390   8.487
  716POPC   C3B14121  30.624   3.202   8.158
  716POPC   C4B14122  30.829   3.056   7.786
  717POPC   NC314123   7.120  20.331   9.840
  717POPC   PO414124   7.590  20.720   9.479
  717POPC   GL114125   7.555  20.713   9.085
  717POPC   GL214126   7.675  20.392   9.079
  717POPC   C1A14127   7.411  20.870   8.721
  717POPC   D2A14128   7.407  20.700   8.345
  717POPC   C3A14129   7.095  20.457   8.225
  717POPC   C4A14130   7.086  20.760   7.908
  717POPC   C1B14131   7.495  20.343   8.725
  717POPC   C2B14132   7.542  20.162   8.375
  717POPC   C3B14133   7.563  20.335   8.014
  717POPC   C4B14134   7.491  20.497   7.651
  718POPC   NC314135   9.244  37.150   9.523
  718POPC   PO414136   8.958  37.884   9.468
  718POPC   GL114137   8.907  37.672   9.101
  718POPC   GL214138   8.992  37.311   9.068
  718POPC   C1A14139   9.030  37.733   8.692
  718POPC   D2A14140   8.789  37.729   8.332
  718POPC   C3A14141   9.026  37.908   8.038
  718POPC   C4A14142   8.993  37.799   7.635
  718POPC   C1B14143   9.284  37.274   8.688
  718POPC   C2B14144   9.431  37.414   8.290
  718POPC   C3B14145   9.279  37.442   7.875
  718POPC   C4B14146   9.225  37.398   7.405
  719POPC   NC314147  23.139  14.374   9.357
  719POPC   PO414148  22.670  14.884   9.354
  719POPC   GL114149  22.822  14.631   9.022
  719POPC   GL214150  22.696  14.295   9.024
  719POPC   C1A14151  22.848  14.470   8.590
  719POPC   D2A14152  22.598  14.193   8.343
  719POPC   C3A14153  22.667  14.320   7.956
  719POPC   C4A14154  22.983  14.617   7.802
  719POPC   C1B14155  22.902  14.012   8.791
  719POPC   C2B14156  23.086  14.033   8.392
  719POPC   C3B14157  23.029  13.971   7.996
  719POPC   C4B14158  23.288  13.957   7.646
  720POPC   NC314159  13.685  36.698   9.494
  720POPC   PO414160  13.997  37.343   9.436
  720POPC   GL114161  13.817  37.066   9.135
  720POPC   GL214162  13.501  37.102   9.067
  720POPC   C1A14163  13.866  36.749   8.795
  720POPC   D2A14164  13.594  36.576   8.414
  720POPC   C3A14165  13.643  36.704   8.007
  720POPC   C4A14166  13.786  36.782   7.597
  720POPC   C1B14167  13.376  36.847   8.790
  720POPC   C2B14168  13.298  37.004   8.399
  720POPC   C3B14169  13.473  37.161   8.076
  720POPC   C4B14170  13.306  36.972   7.681
  721POPC   NC314171   6.362   6.321   9.444
  721POPC   PO414172   6.340   7.083   9.473
  721POPC   GL114173   6.486   6.771   9.185
  721POPC   GL214174   6.804   6.785   9.105
  721POPC   C1A14175   6.535   6.583   8.745
  721POPC   D2A14176   6.687   6.355   8.422
  721POPC   C3A14177   6.519   6.505   8.052
  721POPC   C4A14178   6.793   6.653   7.724
  721POPC   C1B14179   6.666   7.066   8.758
  721POPC   C2B14180   6.567   6.936   8.356
  721POPC   C3B14181   6.533   7.126   7.970
  721POPC   C4B14182   6.557   7.085   7.542
  722POPC   NC314183  36.349  31.898   9.631
  722POPC   PO414184  36.372  31.244   9.507
  722POPC   GL114185  36.198  31.568   9.224
  722POPC   GL214186  36.385  31.862   9.115
  722POPC   C1A14187  36.163  31.470   8.786
  722POPC   D2A14188  36.000  31.614   8.410
  722POPC   C3A14189  36.094  31.385   8.075
  722POPC   C4A14190  36.065  31.519   7.653
  722POPC   C1B14191  36.653  31.606   8.844
  722POPC   C2B14192  36.613  31.340   8.487
  722POPC   C3B14193  36.513  31.619   8.178
  722POPC   C4B14194  36.494  31.764   7.792
  723POPC   NC314195  14.448  15.529   9.544
  723POPC   PO414196  14.027  16.153   9.578
  723POPC   GL114197  14.358  16.005   9.298
  723POPC   GL214198  14.285  16.321   9.135
  723POPC   C1A14199  14.598  15.995   8.902
  723POPC   D2A14200  14.531  15.797   8.506
  723POPC   C3A14201  14.609  16.021   8.117
  723POPC   C4A14202  14.436  15.827   7.744
  723POPC   C1B14203  14.302  16.394   8.703
  723POPC   C2B14204  14.199  16.194   8.337
  723POPC   C3B14205  14.248  16.330   7.908
  723POPC   C4B14206  14.418  16.263   7.483
  724POPC   NC314207  43.728  27.565   9.454
  724POPC   PO414208  44.290  27.352   9.514
  724POPC   GL114209  44.025  27.319   9.129
  724POPC   GL214210  43.645  27.344   8.990
  724POPC   C1A14211  44.086  27.343   8.704
  724POPC   D2A14212  44.111  27.585   8.369
  724POPC   C3A14213  43.840  27.502   8.018
  724POPC   C4A14214  43.726  27.126   7.759
  724POPC   C1B14215  43.726  27.744   8.727
  724POPC   C2B14216  43.856  28.030   8.360
  724POPC   C3B14217  43.773  28.094   7.919
  724POPC   C4B14218  43.788  27.770   7.601
  725POPC   NC314219  32.957  40.231   9.861
  725POPC   PO414220  32.984  40.707   9.381
  725POPC   GL114221  33.129  40.876   9.013
  725POPC   GL214222  33.343  40.584   9.018
  725POPC   C1A14223  33.324  40.795   8.573
  725POPC   D2A14224  33.028  40.696   8.248
  725POPC   C3A14225  33.062  41.047   7.990
  725POPC   C4A14226  32.997  40.948   7.577
  725POPC   C1B14227  32.912  40.525   8.737
  725POPC   C2B14228  32.675  40.311   8.424
  725POPC   C3B14229  32.558  40.338   7.972
  725POPC   C4B14230  32.763  40.461   7.580
  726POPC   NC314231  38.830  22.181   9.521
  726POPC   PO414232  38.136  22.196   9.544
  726POPC   GL114233  38.426  22.268   9.205
  726POPC   GL214234  38.524  21.910   9.156
  726POPC   C1A14235  38.366  22.213   8.770
  726POPC   D2A14236  38.413  21.974   8.398
  726POPC   C3A14237  38.418  22.202   8.027
  726POPC   C4A14238  38.530  22.122   7.621
  726POPC   C1B14239  38.796  21.943   8.766
  726POPC   C2B14240  38.931  21.977   8.359
  726POPC   C3B14241  38.775  21.839   7.980
  726POPC   C4B14242  39.001  21.900   7.621
  727POPC   NC314243  21.554  10.622   9.644
  727POPC   PO414244  20.959  10.374   9.809
  727POPC   GL114245  21.291  10.376   9.327
  727POPC   GL214246  21.621  10.182   9.317
  727POPC   C1A14247  21.543  10.620   8.987
  727POPC   D2A14248  21.431  10.830   8.613
  727POPC   C3A14249  21.652  10.783   8.235
  727POPC   C4A14250  21.562  10.729   7.802
  727POPC   C1B14251  21.431  10.131   8.893
  727POPC   C2B14252  21.597  10.338   8.533
  727POPC   C3B14253  21.513  10.289   8.103
  727POPC   C4B14254  21.573  10.083   7.727
  728POPC   NC314255  11.190  31.244   9.723
  728POPC   PO414256  11.443  31.829   9.538
  728POPC   GL114257  11.426  31.602   9.158
  728POPC   GL214258  11.107  31.436   9.223
  728POPC   C1A14259  11.273  31.610   8.725
  728POPC   D2A14260  11.181  31.685   8.287
  728POPC   C3A14261  11.477  31.555   7.973
  728POPC   C4A14262  11.436  31.721   7.551
  728POPC   C1B14263  11.241  31.134   8.905
  728POPC   C2B14264  11.249  31.155   8.427
  728POPC   C3B14265  11.049  31.263   7.989
  728POPC   C4B14266  10.734  31.121   7.676
  729POPC   NC314267  42.455  20.100   9.614
  729POPC   PO414268  42.000  19.802   9.191
  729POPC   GL114269  42.374  19.960   9.128
  729POPC   GL214270  42.520  19.657   9.037
  729POPC   C1A14271  42.492  20.069   8.736
  729POPC   D2A14272  42.274  20.144   8.410
  729POPC   C3A14273  42.542  20.134   8.125
  729POPC   C4A14274  42.325  19.944   7.831
  729POPC   C1B14275  42.385  19.507   8.663
  729POPC   C2B14276  42.331  19.651   8.245
  729POPC   C3B14277  42.375  19.435   7.849
  729POPC   C4B14278  42.789  19.263   7.820
  730POPC   NC314279  33.564  38.967   9.509
  730POPC   PO414280  34.272  38.787   9.490
  730POPC   GL114281  33.971  39.016   9.179
  730POPC   GL214282  34.079  39.349   9.036
  730POPC   C1A14283  33.682  39.142   8.792
  730POPC   D2A14284  33.525  39.350   8.386
  730POPC   C3A14285  33.669  39.103   7.980
  730POPC   C4A14286  33.891  38.720   7.813
  730POPC   C1B14287  34.019  39.498   8.643
  730POPC   C2B14288  33.984  39.469   8.225
  730POPC   C3B14289  33.889  39.546   7.853
  730POPC   C4B14290  34.228  39.577   7.604
  731POPC   NC314291  11.772  41.767   9.609
  731POPC   PO414292  12.335  41.309   9.527
  731POPC   GL114293  12.171  41.268   9.135
  731POPC   GL214294  11.955  41.549   9.173
  731POPC   C1A14295  12.275  41.528   8.769
  731POPC   D2A14296  12.283  41.848   8.456
  731POPC   C3A14297  12.264  41.686   8.059
  731POPC   C4A14298  12.075  41.860   7.718
  731POPC   C1B14299  11.795  41.353   8.782
  731POPC   C2B14300  11.975  41.368   8.366
  731POPC   C3B14301  11.834  41.400   7.932
  731POPC   C4B14302  12.084  41.376   7.576
  732POPC   NC314303   9.387  44.290   9.260
  732POPC   PO414304   8.946  44.732   9.575
  732POPC   GL114305   9.031  44.699   9.160
  732POPC   GL214306   8.923  44.384   9.051
  732POPC   C1A14307   8.829  44.810   8.797
  732POPC   D2A14308   8.811  44.977   8.436
  732POPC   C3A14309   8.873  44.714   8.072
  732POPC   C4A14310   8.970  44.873   7.663
  732POPC   C1B14311   9.208  44.492   8.674
  732POPC   C2B14312   9.263  44.420   8.249
  732POPC   C3B14313   9.018  44.206   7.978
  732POPC   C4B14314   8.840  44.393   7.646
  733POPC   NC314315  31.169   7.467   9.408
  733POPC   PO414316  30.522   7.184   9.444
  733POPC   GL114317  30.671   7.425   9.076
  733POPC   GL214318  31.026   7.357   8.934
  733POPC   C1A14319  30.646   7.450   8.628
  733POPC   D2A14320  30.873   7.335   8.310
  733POPC   C3A14321  30.636   7.512   8.041
  733POPC   C4A14322  30.555   7.437   7.643
  733POPC   C1B14323  30.969   7.803   8.750
  733POPC   C2B14324  30.785   7.900   8.399
  733POPC   C3B14325  31.034   7.807   8.108
  733POPC   C4B14326  31.014   7.691   7.714
  734POPC   NC314327   1.803   3.227   9.413
  734POPC   PO414328   2.174   3.713   9.646
  734POPC   GL114329   2.003   3.777   9.233
  734POPC   GL214330   1.650   3.673   9.195
  734POPC   C1A14331   2.082   3.581   8.836
  734POPC   D2A14332   1.931   3.415   8.447
  734POPC   C3A14333   2.258   3.477   8.143
  734POPC   C4A14334   2.222   3.518   7.717
  734POPC   C1B14335   1.690   3.939   8.818
  734POPC   C2B14336   1.940   3.933   8.423
  734POPC   C3B14337   1.864   3.758   7.994
  734POPC   C4B14338   1.945   3.935   7.576
  735POPC   NC314339  28.931  38.999   9.540
  735POPC   PO414340  29.084  38.323   9.629
  735POPC   GL114341  29.221  38.367   9.235
  735POPC   GL214342  29.202  38.732   9.169
  735POPC   C1A14343  29.367  38.325   8.838
  735POPC   D2A14344  29.269  38.508   8.428
  735POPC   C3A14345  29.284  38.263   8.069
  735POPC   C4A14346  29.376  38.366   7.647
  735POPC   C1B14347  29.116  38.890   8.770
  735POPC   C2B14348  28.980  38.941   8.345
  735POPC   C3B14349  29.202  38.798   7.950
  735POPC   C4B14350  29.082  38.766   7.504
  736POPC   NC314351  36.472  24.793   9.601
  736POPC   PO414352  37.047  24.432   9.538
  736POPC   GL114353  37.165  24.384   9.138
  736POPC   GL214354  37.386  24.648   9.103
  736POPC   C1A14355  36.968  24.462   8.755
  736POPC   D2A14356  36.746  24.307   8.410
  736POPC   C3A14357  36.768  24.480   7.995
  736POPC   C4A14358  36.511  24.489   7.619
  736POPC   C1B14359  37.467  24.488   8.699
  736POPC   C2B14360  37.238  24.615   8.330
  736POPC   C3B14361  37.440  24.754   7.948
  736POPC   C4B14362  37.163  24.590   7.654
  737POPC   NC314363  33.955  29.604   9.610
  737POPC   PO414364  34.134  30.227   9.546
  737POPC   GL114365  34.026  29.932   9.191
  737POPC   GL214366  33.681  29.778   9.210
  737POPC   C1A14367  33.862  29.953   8.751
  737POPC   D2A14368  33.624  30.097   8.373
  737POPC   C3A14369  33.867  29.985   8.027
  737POPC   C4A14370  34.181  30.205   7.855
  737POPC   C1B14371  33.533  29.568   8.819
  737POPC   C2B14372  33.698  29.599   8.402
  737POPC   C3B14373  33.523  29.612   7.996
  737POPC   C4B14374  33.355  30.028   7.889
  738POPC   NC314375   6.768   3.005   9.369
  738POPC   PO414376   6.629   2.391   9.598
  738POPC   GL114377   6.626   2.532   9.180
  738POPC   GL214378   6.970   2.567   9.104
  738POPC   C1A14379   6.547   2.619   8.756
  738POPC   D2A14380   6.610   2.531   8.326
  738POPC   C3A14381   6.551   2.827   8.051
  738POPC   C4A14382   6.407   2.762   7.676
  738POPC   C1B14383   6.976   2.890   8.738
  738POPC   C2B14384   7.050   2.861   8.283
  738POPC   C3B14385   6.995   2.609   7.899
  738POPC   C4B14386   6.907   2.566   7.464
  739POPC   NC314387  44.733  31.085   9.297
  739POPC   PO414388  44.194  31.424   9.490
  739POPC   GL114389  44.458  31.688   9.212
  739POPC   GL214390  44.835  31.660   9.275
  739POPC   C1A14391  44.536  31.572   8.777
  739POPC   D2A14392  44.698  31.209   8.523
  739POPC   C3A14393  44.739  31.330   8.090
  739POPC   C4A14394  44.710  31.185   7.667
  739POPC   C1B14395   0.037  31.639   8.855
  739POPC   C2B14396   0.017  31.829   8.421
  739POPC   C3B14397   0.001  31.761   7.982
  739POPC   C4B14398  44.675  31.723   7.696
  740POPC   NC314399   5.195  15.614   9.946
  740POPC   PO414400   5.189  15.005   9.633
  740POPC   GL114401   5.137  14.974   9.204
  740POPC   GL214402   5.114  15.351   9.170
  740POPC   C1A14403   5.283  15.042   8.791
  740POPC   D2A14404   5.150  15.316   8.468
  740POPC   C3A14405   4.897  15.160   8.138
  740POPC   C4A14406   4.975  15.043   7.724
  740POPC   C1B14407   4.974  15.681   8.850
  740POPC   C2B14408   5.013  15.836   8.420
  740POPC   C3B14409   5.125  15.600   8.040
  740POPC   C4B14410   5.357  15.354   7.721
  741POPC   NC314411  36.706   6.831   9.565
  741POPC   PO414412  37.228   6.385   9.503
  741POPC   GL114413  37.083   6.573   9.064
  741POPC   GL214414  36.718   6.490   9.129
  741POPC   C1A14415  37.171   6.721   8.572
  741POPC   D2A14416  37.041   6.425   8.191
  741POPC   C3A14417  36.818   6.544   7.843
  741POPC   C4A14418  36.942   6.850   7.592
  741POPC   C1B14419  36.791   6.401   8.686
  741POPC   C2B14420  36.683   6.714   8.356
  741POPC   C3B14421  36.565   6.934   8.017
  741POPC   C4B14422  36.402   6.849   7.617
  742POPC   NC314423  42.806  32.963   9.414
  742POPC   PO414424  42.119  33.221   9.483
  742POPC   GL114425  42.393  33.196   9.163
  742POPC   GL214426  42.363  32.837   9.169
  742POPC   C1A14427  42.317  33.121   8.730
  742POPC   D2A14428  42.479  32.968   8.358
  742POPC   C3A14429  42.212  33.072   8.027
  742POPC   C4A14430  42.384  33.302   7.718
  742POPC   C1B14431  42.563  32.669   8.806
  742POPC   C2B14432  42.594  32.481   8.423
  742POPC   C3B14433  42.620  32.470   8.000
  742POPC   C4B14434  42.544  32.827   7.724
  743POPC   NC314435  11.552  30.379   9.694
  743POPC   PO414436  11.370  29.839   9.705
  743POPC   GL114437  11.293  29.907   9.265
  743POPC   GL214438  11.443  30.227   9.201
  743POPC   C1A14439  11.283  29.878   8.784
  743POPC   D2A14440  11.133  29.761   8.340
  743POPC   C3A14441  11.314  29.964   7.943
  743POPC   C4A14442  11.480  29.878   7.499
  743POPC   C1B14443  11.575  30.316   8.786
  743POPC   C2B14444  11.432  30.249   8.368
  743POPC   C3B14445  11.498  30.440   7.953
  743POPC   C4B14446  11.308  30.339   7.574
  744POPC   NC314447  27.687  10.720   9.519
  744POPC   PO414448  27.477  11.347   9.522
  744POPC   GL114449  27.622  11.170   9.154
  744POPC   GL214450  27.392  10.861   9.132
  744POPC   C1A14451  27.655  11.454   8.774
  744POPC   D2A14452  27.878  11.560   8.374
  744POPC   C3A14453  27.633  11.432   8.037
  744POPC   C4A14454  27.609  11.180   7.697
  744POPC   C1B14455  27.157  10.982   8.768
  744POPC   C2B14456  27.301  11.157   8.376
  744POPC   C3B14457  27.331  10.901   8.015
  744POPC   C4B14458  27.170  10.971   7.614
  745POPC   NC314459  42.133  31.216   9.391
  745POPC   PO414460  42.033  30.568   9.449
  745POPC   GL114461  42.248  30.781   9.138
  745POPC   GL214462  42.595  30.839   9.238
  745POPC   C1A14463  42.186  30.774   8.706
  745POPC   D2A14464  42.354  30.814   8.288
  745POPC   C3A14465  42.155  30.669   7.919
  745POPC   C4A14466  42.278  30.828   7.519
  745POPC   C1B14467  42.602  30.484   8.920
  745POPC   C2B14468  42.558  30.394   8.492
  745POPC   C3B14469  42.499  30.223   8.100
  745POPC   C4B14470  42.507  30.337   7.679
  746POPC   NC314471   5.281  13.020   9.530
  746POPC   PO414472   4.872  12.528   9.427
  746POPC   GL114473   5.194  12.670   9.125
  746POPC   GL214474   5.184  13.028   9.041
  746POPC   C1A14475   5.323  12.717   8.680
  746POPC   D2A14476   5.073  12.638   8.312
  746POPC   C3A14477   5.131  12.835   7.918
  746POPC   C4A14478   5.550  12.864   7.815
  746POPC   C1B14479   5.060  13.177   8.672
  746POPC   C2B14480   4.952  13.182   8.260
  746POPC   C3B14481   5.043  13.412   7.903
  746POPC   C4B14482   4.701  13.482   7.646
  747POPC   NC314483  32.455  11.310   9.509
  747POPC   PO414484  31.825  11.663   9.495
  747POPC   GL114485  32.086  11.411   9.137
  747POPC   GL214486  32.361  11.131   9.062
  747POPC   C1A14487  32.117  11.296   8.669
  747POPC   D2A14488  32.249  11.033   8.383
  747POPC   C3A14489  32.397  11.199   8.049
  747POPC   C4A14490  32.183  11.114   7.664
  747POPC   C1B14491  32.588  11.393   8.783
  747POPC   C2B14492  32.540  11.590   8.393
  747POPC   C3B14493  32.650  11.638   7.940
  747POPC   C4B14494  32.273  11.599   7.649
  748POPC   NC314495  19.202   8.282   9.997
  748POPC   PO414496  18.817   8.222   9.467
  748POPC   GL114497  18.861   8.099   9.090
  748POPC   GL214498  18.752   7.757   9.084
  748POPC   C1A14499  19.014   8.040   8.697
  748POPC   D2A14500  19.106   8.312   8.377
  748POPC   C3A14501  19.042   8.125   8.006
  748POPC   C4A14502  19.139   8.241   7.610
  748POPC   C1B14503  18.519   8.003   8.751
  748POPC   C2B14504  18.619   8.114   8.344
  748POPC   C3B14505  18.532   8.196   7.919
  748POPC   C4B14506  18.697   7.924   7.605
  749POPC   NC314507  16.172  37.593   9.631
  749POPC   PO414508  15.455  37.789   9.608
  749POPC   GL114509  15.807  37.539   9.286
  749POPC   GL214510  16.158  37.722   9.149
  749POPC   C1A14511  15.933  37.368   8.865
  749POPC   D2A14512  15.704  37.339   8.467
  749POPC   C3A14513  15.889  37.287   8.069
  749POPC   C4A14514  15.985  37.578   7.754
  749POPC   C1B14515  16.009  37.879   8.762
  749POPC   C2B14516  16.001  37.779   8.344
  749POPC   C3B14517  16.090  38.011   7.971
  749POPC   C4B14518  16.429  38.050   7.688
  750POPC   NC314519  17.362  38.236   9.562
  750POPC   PO414520  17.713  38.793   9.489
  750POPC   GL114521  17.644  38.486   9.186
  750POPC   GL214522  17.788  38.170   9.274
  750POPC   C1A14523  17.378  38.416   8.847
  750POPC   D2A14524  17.281  38.599   8.431
  750POPC   C3A14525  17.479  38.448   8.058
  750POPC   C4A14526  17.426  38.416   7.623
  750POPC   C1B14527  17.723  38.023   8.879
  750POPC   C2B14528  17.687  38.218   8.481
  750POPC   C3B14529  17.693  38.003   8.114
  750POPC   C4B14530  17.786  38.092   7.715
  751POPC   NC314531  31.061  29.764   9.357
  751POPC   PO414532  31.282  29.181   9.410
  751POPC   GL114533  31.479  29.249   9.053
  751POPC   GL214534  31.441  29.581   9.062
  751POPC   C1A14535  31.273  29.224   8.659
  751POPC   D2A14536  31.436  29.145   8.276
  751POPC   C3A14537  31.198  29.063   7.929
  751POPC   C4A14538  31.339  29.224   7.536
  751POPC   C1B14539  31.245  29.726   8.687
  751POPC   C2B14540  31.473  29.692   8.309
  751POPC   C3B14541  31.480  29.547   7.902
  751POPC   C4B14542  31.368  29.743   7.511
  752POPC   NC314543   7.326  30.836   9.763
  752POPC   PO414544   7.510  31.102   9.164
  752POPC   GL114545   7.272  30.765   8.993
  752POPC   GL214546   7.460  30.487   9.059
  752POPC   C1A14547   7.224  30.555   8.611
  752POPC   D2A14548   7.450  30.556   8.260
  752POPC   C3A14549   7.399  30.851   8.007
  752POPC   C4A14550   7.264  30.745   7.602
  752POPC   C1B14551   7.695  30.728   8.682
  752POPC   C2B14552   7.920  30.786   8.301
  752POPC   C3B14553   7.893  30.585   7.930
  752POPC   C4B14554   7.733  30.610   7.545
  753POPC   NC314555  41.207  39.750   9.459
  753POPC   PO414556  41.621  40.289   9.591
  753POPC   GL114557  41.530  40.089   9.224
  753POPC   GL214558  41.763  39.829   9.173
  753POPC   C1A14559  41.525  40.217   8.798
  753POPC   D2A14560  41.732  40.139   8.412
  753POPC   C3A14561  41.490  40.279   8.021
  753POPC   C4A14562  41.230  40.501   7.709
  753POPC   C1B14563  41.466  39.704   8.865
  753POPC   C2B14564  41.430  39.713   8.460
  753POPC   C3B14565  41.591  39.773   8.072
  753POPC   C4B14566  41.754  39.663   7.723
  754POPC   NC314567   7.211  11.791   9.607
  754POPC   PO414568   7.299  12.250   9.187
  754POPC   GL114569   7.488  11.999   8.912
  754POPC   GL214570   7.359  11.730   9.104
  754POPC   C1A14571   7.401  12.045   8.498
  754POPC   D2A14572   7.062  12.279   8.321
  754POPC   C3A14573   7.233  12.243   7.931
  754POPC   C4A14574   7.424  12.229   7.532
  754POPC   C1B14575   7.503  11.530   8.746
  754POPC   C2B14576   7.766  11.683   8.436
  754POPC   C3B14577   7.653  11.551   8.035
  754POPC   C4B14578   7.495  11.712   7.646
  755POPC   NC314579   3.700  17.855   9.457
  755POPC   PO414580   3.820  18.532   9.467
  755POPC   GL114581   3.496  18.471   9.155
  755POPC   GL214582   3.495  18.113   9.069
  755POPC   C1A14583   3.385  18.456   8.708
  755POPC   D2A14584   3.395  18.211   8.354
  755POPC   C3A14585   3.411  18.476   8.023
  755POPC   C4A14586   3.656  18.776   7.812
  755POPC   C1B14587   3.786  17.877   8.808
  755POPC   C2B14588   3.749  17.810   8.386
  755POPC   C3B14589   3.842  17.842   7.960
  755POPC   C4B14590   3.657  18.133   7.693
  756POPC   NC314591  33.973  14.299   9.426
  756POPC   PO414592  33.436  13.913   9.509
  756POPC   GL114593  33.500  14.208   9.162
  756POPC   GL214594  33.590  14.589   9.135
  756POPC   C1A14595  33.667  14.163   8.742
  756POPC   D2A14596  33.534  14.411   8.371
  756POPC   C3A14597  33.693  14.245   7.967
  756POPC   C4A14598  33.972  14.160   7.598
  756POPC   C1B14599  33.944  14.565   8.799
  756POPC   C2B14600  34.040  14.350   8.378
  756POPC   C3B14601  34.121  14.530   7.949
  756POPC   C4B14602  34.259  14.570   7.501
  757POPC   NC314603  28.384  10.663   9.515
  757POPC   PO414604  28.666  10.069   9.512
  757POPC   GL114605  28.466  10.332   9.147
  757POPC   GL214606  28.102  10.574   9.121
  757POPC   C1A14607  28.484  10.609   8.799
  757POPC   D2A14608  28.135  10.629   8.519
  757POPC   C3A14609  28.228  10.807   8.119
  757POPC   C4A14610  28.469  10.623   7.779
  757POPC   C1B14611  28.032  10.214   8.874
  757POPC   C2B14612  28.008  10.101   8.469
  757POPC   C3B14613  28.173  10.293   8.117
  757POPC   C4B14614  28.148  10.244   7.713
  758POPC   NC314615  44.670   9.558   9.654
  758POPC   PO414616   0.086   9.245   9.556
  758POPC   GL114617  44.898   9.460   9.173
  758POPC   GL214618  44.794   9.816   9.165
  758POPC   C1A14619  44.765   9.552   8.720
  758POPC   D2A14620  44.828   9.812   8.340
  758POPC   C3A14621  44.564   9.739   7.954
  758POPC   C4A14622  44.268   9.865   7.596
  758POPC   C1B14623  44.657  10.061   8.775
  758POPC   C2B14624  44.475  10.184   8.350
  758POPC   C3B14625  44.580  10.253   7.893
  758POPC   C4B14626  44.455  10.317   7.432
  759POPC   NC314627   4.043  41.572   9.723
  759POPC   PO414628   3.498  41.277   9.463
  759POPC   GL114629   3.652  41.572   9.150
  759POPC   GL214630   3.347  41.559   8.987
  759POPC   C1A14631   3.752  41.377   8.720
  759POPC   D2A14632   3.514  41.160   8.427
  759POPC   C3A14633   3.520  41.385   8.048
  759POPC   C4A14634   3.878  41.542   7.833
  759POPC   C1B14635   3.614  41.858   8.729
  759POPC   C2B14636   3.739  41.761   8.334
  759POPC   C3B14637   3.611  41.949   7.954
  759POPC   C4B14638   3.454  41.810   7.568
  760POPC   NC314639  13.569  41.082   9.427
  760POPC   PO414640  13.803  41.784   9.488
  760POPC   GL114641  13.591  41.655   9.107
  760POPC   GL214642  13.730  41.348   9.012
  760POPC   C1A14643  13.638  41.674   8.630
  760POPC   D2A14644  13.618  41.356   8.306
  760POPC   C3A14645  13.802  41.382   7.918
  760POPC   C4A14646  13.699  41.741   7.707
  760POPC   C1B14647  13.349  41.230   8.754
  760POPC   C2B14648  13.301  40.979   8.356
  760POPC   C3B14649  13.273  41.083   7.928
  760POPC   C4B14650  13.487  41.208   7.554
  761POPC   NC314651   4.989  26.425   9.934
  761POPC   PO414652   5.113  25.885   9.650
  761POPC   GL114653   4.979  25.799   9.221
  761POPC   GL214654   5.245  25.965   9.054
  761POPC   C1A14655   4.899  25.758   8.742
  761POPC   D2A14656   4.838  25.927   8.297
  761POPC   C3A14657   5.086  25.820   7.942
  761POPC   C4A14658   5.402  25.837   7.624
  761POPC   C1B14659   5.273  26.087   8.585
  761POPC   C2B14660   5.484  26.055   8.150
  761POPC   C3B14661   5.577  26.292   7.771
  761POPC   C4B14662   5.480  26.616   7.446
  762POPC   NC314663  36.280  15.183   9.438
  762POPC   PO414664  35.810  14.763   9.472
  762POPC   GL114665  36.034  14.950   9.085
  762POPC   GL214666  36.065  15.340   9.023
  762POPC   C1A14667  36.170  14.996   8.658
  762POPC   D2A14668  36.510  14.955   8.376
  762POPC   C3A14669  36.400  15.216   8.064
  762POPC   C4A14670  36.220  15.182   7.671
  762POPC   C1B14671  35.873  15.419   8.658
  762POPC   C2B14672  35.924  15.285   8.239
  762POPC   C3B14673  35.730  15.360   7.847
  762POPC   C4B14674  35.912  15.508   7.448
  763POPC   NC314675  29.417  22.594   9.526
  763POPC   PO414676  28.841  23.036   9.484
  763POPC   GL114677  28.817  22.873   9.111
  763POPC   GL214678  29.168  22.928   9.100
  763POPC   C1A14679  28.834  23.042   8.724
  763POPC   D2A14680  29.113  23.079   8.408
  763POPC   C3A14681  28.882  22.994   8.056
  763POPC   C4A14682  29.114  22.957   7.709
  763POPC   C1B14683  29.458  22.892   8.789
  763POPC   C2B14684  29.517  22.716   8.424
  763POPC   C3B14685  29.514  22.883   8.026
  763POPC   C4B14686  29.542  22.542   7.753
  764POPC   NC314687  29.096  12.585   9.521
  764POPC   PO414688  29.564  13.058   9.629
  764POPC   GL114689  29.412  13.032   9.206
  764POPC   GL214690  29.046  12.997   9.200
  764POPC   C1A14691  29.338  12.753   8.837
  764POPC   D2A14692  29.449  12.803   8.397
  764POPC   C3A14693  29.151  12.748   8.018
  764POPC   C4A14694  29.057  12.465   7.628
  764POPC   C1B14695  28.812  12.870   8.799
  764POPC   C2B14696  28.770  12.670   8.388
  764POPC   C3B14697  28.643  12.707   7.939
  764POPC   C4B14698  28.850  12.926   7.563
  765POPC   NC314699  17.875  24.201   9.263
  765POPC   PO414700  17.493  24.649   9.589
  765POPC   GL114701  17.481  24.595   9.109
  765POPC   GL214702  17.313  24.285   9.047
  765POPC   C1A14703  17.453  24.894   8.737
  765POPC   D2A14704  17.665  24.781   8.368
  765POPC   C3A14705  17.527  24.794   7.957
  765POPC   C4A14706  17.450  24.469   7.700
  765POPC   C1B14707  17.254  24.437   8.614
  765POPC   C2B14708  17.262  24.353   8.172
  765POPC   C3B14709  17.254  24.004   7.866
  765POPC   C4B14710  17.268  24.095   7.421
  766POPC   NC314711  34.608  30.293   9.515
  766POPC   PO414712  35.018  29.801   9.353
  766POPC   GL114713  34.658  29.971   9.124
  766POPC   GL214714  34.781  30.348   9.054
  766POPC   C1A14715  34.347  29.819   8.809
  766POPC   D2A14716  34.197  29.672   8.396
  766POPC   C3A14717  34.364  29.762   7.992
  766POPC   C4A14718  34.747  29.673   7.756
  766POPC   C1B14719  34.595  30.254   8.703
  766POPC   C2B14720  34.551  30.080   8.339
  766POPC   C3B14721  34.736  30.144   7.961
  766POPC   C4B14722  34.572  30.112   7.556
  767POPC   NC314723  16.076   5.463   9.915
  767POPC   PO414724  15.823   6.024   9.554
  767POPC   GL114725  16.045   5.992   9.160
  767POPC   GL214726  16.142   5.653   9.211
  767POPC   C1A14727  16.081   6.158   8.701
  767POPC   D2A14728  15.930   6.293   8.293
  767POPC   C3A14729  16.068   5.989   7.988
  767POPC   C4A14730  15.903   5.619   7.801
  767POPC   C1B14731  16.031   5.642   8.763
  767POPC   C2B14732  16.269   5.696   8.374
  767POPC   C3B14733  16.343   5.436   7.963
  767POPC   C4B14734  16.237   5.414   7.483
  768POPC   NC314735   4.892  18.476   9.479
  768POPC   PO414736   5.547  18.341   9.516
  768POPC   GL114737   5.278  18.453   9.128
  768POPC   GL214738   4.947  18.312   9.014
  768POPC   C1A14739   5.192  18.613   8.719
  768POPC   D2A14740   5.229  18.418   8.340
  768POPC   C3A14741   5.030  18.581   8.007
  768POPC   C4A14742   5.095  18.424   7.574
  768POPC   C1B14743   5.099  18.059   8.708
  768POPC   C2B14744   4.894  17.978   8.342
  768POPC   C3B14745   4.910  18.092   7.936
  768POPC   C4B14746   5.125  17.900   7.612
  769POPC   NC314747   5.792   1.704   9.459
  769POPC   PO414748   5.919   1.058   9.466
  769POPC   GL114749   5.937   0.921   9.075
  769POPC   GL214750   5.624   0.793   9.009
  769POPC   C1A14751   5.918   1.240   8.752
  769POPC   D2A14752   5.668   1.445   8.432
  769POPC   C3A14753   5.887   1.403   8.037
  769POPC   C4A14754   5.719   1.370   7.643
  769POPC   C1B14755   5.698   0.794   8.635
  769POPC   C2B14756   5.832   0.963   8.294
  769POPC   C3B14757   5.799   0.917   7.874
  769POPC   C4B14758   5.526   0.934   7.510
  770POPC   NC314759  38.525   4.787   9.465
  770POPC   PO414760  38.430   4.161   9.563
  770POPC   GL114761  38.490   4.241   9.132
  770POPC   GL214762  38.396   4.581   9.011
  770POPC   C1A14763  38.445   4.169   8.688
  770POPC   D2A14764  38.547   4.403   8.313
  770POPC   C3A14765  38.612   4.247   7.920
  770POPC   C4A14766  38.274   4.040   7.752
  770POPC   C1B14767  38.573   4.782   8.641
  770POPC   C2B14768  38.369   4.876   8.229
  770POPC   C3B14769  38.194   4.539   7.936
  770POPC   C4B14770  38.235   4.464   7.468
  771POPC   NC314771  19.625  24.118   9.532
  771POPC   PO414772  20.090  23.518   9.593
  771POPC   GL114773  19.924  23.608   9.200
  771POPC   GL214774  19.587  23.611   9.332
  771POPC   C1A14775  19.956  23.891   8.811
  771POPC   D2A14776  19.938  24.106   8.381
  771POPC   C3A14777  19.799  23.911   7.988
  771POPC   C4A14778  20.052  23.672   7.707
  771POPC   C1B14779  19.513  23.631   8.874
  771POPC   C2B14780  19.654  23.665   8.424
  771POPC   C3B14781  19.589  23.455   8.002
  771POPC   C4B14782  19.536  23.170   7.652
  772POPC   NC314783  26.113  32.648   9.401
  772POPC   PO414784  26.130  32.002   9.380
  772POPC   GL114785  25.951  32.264   9.085
  772POPC   GL214786  26.164  32.532   8.910
  772POPC   C1A14787  25.851  32.186   8.676
  772POPC   D2A14788  26.074  32.331   8.357
  772POPC   C3A14789  25.959  32.163   7.999
  772POPC   C4A14790  26.142  32.402   7.688
  772POPC   C1B14791  26.386  32.168   8.763
  772POPC   C2B14792  26.582  32.208   8.367
  772POPC   C3B14793  26.487  32.155   7.981
  772POPC   C4B14794  26.420  31.888   7.674
  773POPC   NC314795  31.049  12.509   9.421
  773POPC   PO414796  30.478  12.693   9.729
  773POPC   GL114797  30.588  12.662   9.214
  773POPC   GL214798  30.566  13.024   9.021
  773POPC   C1A14799  30.802  12.681   8.779
  773POPC   D2A14800  30.840  12.991   8.415
  773POPC   C3A14801  30.768  12.814   7.984
  773POPC   C4A14802  30.629  12.613   7.609
  773POPC   C1B14803  30.353  12.970   8.651
  773POPC   C2B14804  30.364  13.023   8.205
  773POPC   C3B14805  30.366  13.029   7.739
  773POPC   C4B14806  30.189  13.194   7.322
  774POPC   NC314807  10.758  18.347   9.269
  774POPC   PO414808  11.239  18.037   9.665
  774POPC   GL114809  11.401  18.000   9.212
  774POPC   GL214810  11.177  18.141   9.095
  774POPC   C1A14811  11.507  18.302   8.788
  774POPC   D2A14812  11.680  18.282   8.376
  774POPC   C3A14813  11.493  18.420   7.980
  774POPC   C4A14814  11.675  18.361   7.546
  774POPC   C1B14815  11.010  18.080   8.692
  774POPC   C2B14816  11.172  18.148   8.337
  774POPC   C3B14817  11.247  17.974   7.991
  774POPC   C4B14818  11.197  18.209   7.623
  775POPC   NC314819  30.403  34.121   9.331
  775POPC   PO414820  30.741  34.643   9.674
  775POPC   GL114821  30.810  34.425   9.332
  775POPC   GL214822  30.638  34.694   9.169
  775POPC   C1A14823  30.828  34.328   8.877
  775POPC   D2A14824  30.977  34.444   8.476
  775POPC   C3A14825  30.710  34.315   8.174
  775POPC   C4A14826  30.746  34.429   7.789
  775POPC   C1B14827  30.775  34.816   8.764
  775POPC   C2B14828  30.512  34.692   8.449
  775POPC   C3B14829  30.513  34.804   8.043
  775POPC   C4B14830  30.786  34.950   7.719
  776POPC   NC314831  23.921  44.782   9.414
  776POPC   PO414832  23.415  44.358   9.594
  776POPC   GL114833  23.619  44.402   9.231
  776POPC   GL214834  23.455  44.724   9.182
  776POPC   C1A14835  23.875  44.395   8.858
  776POPC   D2A14836  23.851  44.651   8.478
  776POPC   C3A14837  23.727  44.477   8.098
  776POPC   C4A14838  23.940  44.467   7.709
  776POPC   C1B14839  23.404  44.577   8.779
  776POPC   C2B14840  23.344  44.730   8.383
  776POPC   C3B14841  23.582  44.986   8.121
  776POPC   C4B14842  23.600  44.846   7.734
  777POPC   NC314843  31.809   7.309   9.602
  777POPC   PO414844  31.498   7.822   9.501
  777POPC   GL114845  31.632   7.532   9.170
  777POPC   GL214846  31.375   7.736   9.016
  777POPC   C1A14847  31.518   7.318   8.782
  777POPC   D2A14848  31.307   7.550   8.457
  777POPC   C3A14849  31.403   7.451   8.022
  777POPC   C4A14850  31.601   7.062   7.854
  777POPC   C1B14851  31.670   7.801   8.716
  777POPC   C2B14852  31.629   7.973   8.335
  777POPC   C3B14853  31.784   7.805   7.998
  777POPC   C4B14854  31.627   7.761   7.596
  778POPC   NC314855  21.534  41.417   9.555
  778POPC   PO414856  20.928  41.480   9.545
  778POPC   GL114857  21.207  41.481   9.148
  778POPC   GL214858  21.574  41.573   9.078
  778POPC   C1A14859  21.223  41.469   8.689
  778POPC   D2A14860  21.322  41.752   8.309
  778POPC   C3A14861  21.497  41.540   7.909
  778POPC   C4A14862  21.768  41.251   7.656
  778POPC   C1B14863  21.588  41.819   8.758
  778POPC   C2B14864  21.712  42.108   8.458
  778POPC   C3B14865  21.792  41.963   8.075
  778POPC   C4B14866  21.821  41.832   7.670
  779POPC   NC314867  35.775  39.884   9.910
  779POPC   PO414868  35.497  39.425   9.467
  779POPC   GL114869  35.482  39.258   9.060
  779POPC   GL214870  35.239  38.992   9.010
  779POPC   C1A14871  35.489  39.252   8.632
  779POPC   D2A14872  35.404  39.054   8.284
  779POPC   C3A14873  35.478  39.369   8.023
  779POPC   C4A14874  35.719  39.370   7.680
  779POPC   C1B14875  34.978  39.168   8.726
  779POPC   C2B14876  34.941  39.297   8.352
  779POPC   C3B14877  34.983  39.158   7.984
  779POPC   C4B14878  35.084  39.313   7.634
  780POPC   NC314879  14.844  25.818   9.386
  780POPC   PO414880  15.160  25.229   9.615
  780POPC   GL114881  15.088  25.377   9.217
  780POPC   GL214882  15.133  25.047   9.129
  780POPC   C1A14883  15.059  25.389   8.757
  780POPC   D2A14884  15.312  25.510   8.413
  780POPC   C3A14885  15.159  25.325   8.077
  780POPC   C4A14886  15.256  25.362   7.695
  780POPC   C1B14887  15.326  24.841   8.845
  780POPC   C2B14888  15.328  24.991   8.466
  780POPC   C3B14889  15.354  24.852   8.083
  780POPC   C4B14890  15.083  24.905   7.742
  781POPC   NC314891  37.494  43.748   9.675
  781POPC   PO414892  37.818  43.331   9.516
  781POPC   GL114893  37.777  43.662   9.202
  781POPC   GL214894  37.439  43.637   9.089
  781POPC   C1A14895  37.791  43.914   8.789
  781POPC   D2A14896  37.502  44.058   8.440
  781POPC   C3A14897  37.588  43.995   7.983
  781POPC   C4A14898  37.323  43.785   7.660
  781POPC   C1B14899  37.605  43.444   8.690
  781POPC   C2B14900  37.770  43.613   8.305
  781POPC   C3B14901  37.714  43.507   7.871
  781POPC   C4B14902  37.618  43.392   7.438
  782POPC   NC314903  14.232  29.422   9.585
  782POPC   PO414904  14.615  28.775   9.474
  782POPC   GL114905  14.545  29.115   9.198
  782POPC   GL214906  14.847  29.059   9.001
  782POPC   C1A14907  14.417  29.184   8.754
  782POPC   D2A14908  14.422  29.418   8.363
  782POPC   C3A14909  14.076  29.386   8.116
  782POPC   C4A14910  14.204  29.225   7.735
  782POPC   C1B14911  14.769  28.736   8.676
  782POPC   C2B14912  14.736  28.740   8.201
  782POPC   C3B14913  14.667  29.127   7.947
  782POPC   C4B14914  14.776  29.567   7.958
  783POPC   NC314915  30.318  12.274   9.592
  783POPC   PO414916  30.885  11.989   9.399
  783POPC   GL114917  30.762  12.203   9.101
  783POPC   GL214918  30.449  12.107   9.131
  783POPC   C1A14919  30.753  12.187   8.695
  783POPC   D2A14920  30.708  11.997   8.338
  783POPC   C3A14921  30.781  12.281   8.003
  783POPC   C4A14922  30.891  12.171   7.597
  783POPC   C1B14923  30.320  11.905   8.763
  783POPC   C2B14924  30.198  12.088   8.404
  783POPC   C3B14925  30.337  11.998   7.999
  783POPC   C4B14926  30.344  12.179   7.623
  784POPC   NC314927  37.017  37.107   9.417
  784POPC   PO414928  36.861  36.431   9.413
  784POPC   GL114929  37.024  36.702   9.087
  784POPC   GL214930  36.831  37.023   8.962
  784POPC   C1A14931  37.119  36.719   8.661
  784POPC   D2A14932  37.175  37.051   8.388
  784POPC   C3A14933  37.151  36.852   8.007
  784POPC   C4A14934  36.959  36.821   7.642
  784POPC   C1B14935  36.622  37.345   8.734
  784POPC   C2B14936  36.764  37.382   8.310
  784POPC   C3B14937  36.638  37.152   7.931
  784POPC   C4B14938  36.410  37.217   7.532
  785POPC   NC314939   2.430  36.319   9.529
  785POPC   PO414940   1.778  36.079   9.439
  785POPC   GL114941   2.090  36.123   9.144
  785POPC   GL214942   2.296  36.382   9.031
  785POPC   C1A14943   2.055  36.050   8.726
  785POPC   D2A14944   2.183  35.963   8.321
  785POPC   C3A14945   2.014  36.139   7.943
  785POPC   C4A14946   2.034  36.044   7.483
  785POPC   C1B14947   2.408  36.572   8.644
  785POPC   C2B14948   2.342  36.459   8.218
  785POPC   C3B14949   2.492  36.585   7.819
  785POPC   C4B14950   2.352  36.429   7.356
  786POPC   NC314951  22.626   9.676   9.627
  786POPC   PO414952  23.202   9.971   9.594
  786POPC   GL114953  22.850   9.988   9.269
  786POPC   GL214954  22.611   9.701   9.127
  786POPC   C1A14955  22.899   9.971   8.813
  786POPC   D2A14956  23.183   9.873   8.484
  786POPC   C3A14957  23.099  10.037   8.113
  786POPC   C4A14958  22.882   9.822   7.805
  786POPC   C1B14959  22.462   9.677   8.681
  786POPC   C2B14960  22.559   9.402   8.295
  786POPC   C3B14961  22.640   9.264   7.860
  786POPC   C4B14962  22.526   9.366   7.438
  787POPC   NC314963   5.705  33.155   9.573
  787POPC   PO414964   5.437  32.563   9.354
  787POPC   GL114965   5.619  32.920   9.109
  787POPC   GL214966   5.556  33.307   9.103
  787POPC   C1A14967   5.641  33.028   8.675
  787POPC   D2A14968   6.027  33.052   8.487
  787POPC   C3A14969   6.029  32.831   8.090
  787POPC   C4A14970   5.788  32.789   7.683
  787POPC   C1B14971   5.691  33.541   8.726
  787POPC   C2B14972   5.900  33.561   8.346
  787POPC   C3B14973   6.198  33.342   8.107
  787POPC   C4B14974   6.159  33.142   7.694
  788POPC   NC314975  40.615  27.315   9.599
  788POPC   PO414976  41.160  27.663   9.717
  788POPC   GL114977  40.876  27.513   9.233
  788POPC   GL214978  40.599  27.261   9.102
  788POPC   C1A14979  40.717  27.682   8.796
  788POPC   D2A14980  40.555  27.606   8.368
  788POPC   C3A14981  40.626  27.805   7.978
  788POPC   C4A14982  40.739  27.674   7.566
  788POPC   C1B14983  40.347  27.286   8.719
  788POPC   C2B14984  40.183  27.283   8.271
  788POPC   C3B14985  40.456  27.318   7.863
  788POPC   C4B14986  40.668  27.181   7.444
  789POPC   NC314987  13.734  21.740   9.587
  789POPC   PO414988  13.742  21.078   9.540
  789POPC   GL114989  13.536  21.281   9.197
  789POPC   GL214990  13.814  21.498   9.136
  789POPC   C1A14991  13.301  21.242   8.792
  789POPC   D2A14992  13.518  21.185   8.410
  789POPC   C3A14993  13.386  21.134   8.006
  789POPC   C4A14994  13.759  21.294   7.773
  789POPC   C1B14995  13.519  21.714   8.884
  789POPC   C2B14996  13.430  21.695   8.485
  789POPC   C3B14997  13.699  21.669   8.148
  789POPC   C4B14998  13.693  21.837   7.753
  790POPC   NC314999  18.018  37.157   9.602
  790POPC   PO415000  17.644  37.803   9.586
  790POPC   GL115001  17.347  37.695   9.279
  790POPC   GL215002  17.284  37.996   9.121
  790POPC   C1A15003  17.481  37.541   8.882
  790POPC   D2A15004  17.722  37.657   8.502
  790POPC   C3A15005  17.627  37.500   8.077
  790POPC   C4A15006  17.791  37.593   7.679
  790POPC   C1B15007  17.265  37.940   8.670
  790POPC   C2B15008  17.183  38.105   8.305
  790POPC   C3B15009  17.229  37.981   7.888
  790POPC   C4B15010  17.361  37.850   7.507
  791POPC   NC315011   3.067  39.168   9.497
  791POPC   PO415012   2.445  39.058   9.411
  791POPC   GL115013   2.743  39.051   9.118
  791POPC   GL215014   3.083  38.924   9.070
  791POPC   C1A15015   2.761  39.328   8.790
  791POPC   D2A15016   2.467  39.484   8.488
  791POPC   C3A15017   2.625  39.476   8.088
  791POPC   C4A15018   2.811  39.303   7.740
  791POPC   C1B15019   2.889  38.843   8.690
  791POPC   C2B15020   2.808  39.031   8.301
  791POPC   C3B15021   2.914  38.837   7.914
  791POPC   C4B15022   2.742  38.831   7.497
  792POPC   NC315023  26.943  41.321   9.609
  792POPC   PO415024  26.510  41.715   9.442
  792POPC   GL115025  26.707  41.563   9.148
  792POPC   GL215026  26.514  41.311   8.981
  792POPC   C1A15027  26.820  41.655   8.716
  792POPC   D2A15028  26.711  41.455   8.340
  792POPC   C3A15029  26.907  41.617   7.969
  792POPC   C4A15030  27.064  41.800   7.565
  792POPC   C1B15031  26.978  41.212   8.949
  792POPC   C2B15032  27.235  41.339   8.651
  792POPC   C3B15033  27.175  41.265   8.220
  792POPC   C4B15034  27.336  41.404   7.828
  793POPC   NC315035  42.859  42.471   9.461
  793POPC   PO415036  43.385  42.154   9.542
  793POPC   GL115037  43.215  42.303   9.142
  793POPC   GL215038  42.962  42.051   9.128
  793POPC   C1A15039  43.041  42.590   8.815
  793POPC   D2A15040  42.740  42.635   8.491
  793POPC   C3A15041  42.979  42.580   8.114
  793POPC   C4A15042  43.036  42.408   7.717
  793POPC   C1B15043  42.983  42.117   8.659
  793POPC   C2B15044  42.748  42.110   8.251
  793POPC   C3B15045  42.801  41.990   7.803
  793POPC   C4B15046  42.855  41.796   7.381
  794POPC   NC315047  35.081  37.095   9.441
  794POPC   PO415048  35.812  36.872   9.490
  794POPC   GL115049  35.513  36.952   9.141
  794POPC   GL215050  35.298  36.693   9.058
  794POPC   C1A15051  35.256  37.124   8.765
  794POPC   D2A15052  34.989  37.105   8.380
  794POPC   C3A15053  35.115  37.083   7.940
  794POPC   C4A15054  35.504  37.083   7.694
  794POPC   C1B15055  35.414  36.625   8.603
  794POPC   C2B15056  35.481  36.771   8.165
  794POPC   C3B15057  35.420  36.590   7.749
  794POPC   C4B15058  35.281  36.322   7.410
  795POPC   NC315059  42.245  44.249   9.630
  795POPC   PO415060  42.701  43.799   9.686
  795POPC   GL115061  42.528  44.039   9.259
  795POPC   GL215062  42.141  44.148   9.146
  795POPC   C1A15063  42.501  44.073   8.782
  795POPC   D2A15064  42.662  44.204   8.363
  795POPC   C3A15065  42.475  44.071   7.980
  795POPC   C4A15066  42.174  44.091   7.678
  795POPC   C1B15067  42.034  44.405   8.771
  795POPC   C2B15068  42.126  44.263   8.353
  795POPC   C3B15069  42.043  43.852   8.160
  795POPC   C4B15070  42.028  43.598   7.820
  796POPC   NC315071  20.812  13.850   9.800
  796POPC   PO415072  20.657  13.385   9.408
  796POPC   GL115073  20.763  13.756   9.221
  796POPC   GL215074  20.436  13.742   9.083
  796POPC   C1A15075  20.877  13.809   8.797
  796POPC   D2A15076  20.728  13.615   8.424
  796POPC   C3A15077  20.671  13.847   8.031
  796POPC   C4A15078  20.834  13.597   7.656
  796POPC   C1B15079  20.256  13.598   8.733
  796POPC   C2B15080  20.248  13.793   8.362
  796POPC   C3B15081  20.118  13.894   7.968
  796POPC   C4B15082  20.316  13.562   7.802
  797POPC   NC315083  20.108  42.114   9.420
  797POPC   PO415084  20.662  42.443   9.558
  797POPC   GL115085  20.534  42.326   9.158
  797POPC   GL215086  20.869  42.289   9.055
  797POPC   C1A15087  20.458  42.047   8.780
  797POPC   D2A15088  20.397  42.194   8.346
  797POPC   C3A15089  20.455  42.144   7.918
  797POPC   C4A15090  20.276  42.426   7.615
  797POPC   C1B15091  20.773  42.452   8.678
  797POPC   C2B15092  20.770  42.515   8.269
  797POPC   C3B15093  20.475  42.669   8.019
  797POPC   C4B15094  20.584  42.831   7.629
  798POPC   NC315095   6.398   0.911   9.507
  798POPC   PO415096   6.695   1.495   9.727
  798POPC   GL115097   6.658   1.339   9.261
  798POPC   GL215098   6.296   1.304   9.164
  798POPC   C1A15099   6.850   1.222   8.821
  798POPC   D2A15100   6.954   1.054   8.367
  798POPC   C3A15101   6.837   1.229   7.948
  798POPC   C4A15102   7.004   1.108   7.545
  798POPC   C1B15103   6.378   0.977   8.832
  798POPC   C2B15104   6.327   0.838   8.381
  798POPC   C3B15105   6.299   1.034   7.942
  798POPC   C4B15106   6.113   1.002   7.502
  799POPC   NC315107  24.418  43.887   9.446
  799POPC   PO415108  24.854  44.320   9.286
  799POPC   GL115109  24.607  44.036   8.996
  799POPC   GL215110  24.200  44.014   9.005
  799POPC   C1A15111  24.461  43.800   8.634
  799POPC   D2A15112  24.158  43.924   8.314
  799POPC   C3A15113  24.374  43.751   7.967
  799POPC   C4A15114  24.822  43.696   7.949
  799POPC   C1B15115  24.324  44.284   8.642
  799POPC   C2B15116  24.728  44.321   8.394
  799POPC   C3B15117  24.706  44.444   7.959
  799POPC   C4B15118  24.396  44.219   7.705
  800POPC   NC315119   8.565  32.185   9.783
  800POPC   PO415120   8.266  32.480   9.310
  800POPC   GL115121   8.412  32.191   9.060
  800POPC   GL215122   8.631  31.910   9.202
  800POPC   C1A15123   8.196  32.251   8.670
  800POPC   D2A15124   8.328  32.397   8.281
  800POPC   C3A15125   8.200  32.333   7.865
  800POPC   C4A15126   8.321  32.544   7.524
  800POPC   C1B15127   8.539  31.847   8.725
  800POPC   C2B15128   8.284  31.877   8.347
  800POPC   C3B15129   8.450  31.890   7.949
  800POPC   C4B15130   8.278  31.872   7.561
  801POPC   NC315131  18.147  41.102   9.819
  801POPC   PO415132  18.058  41.723   9.580
  801POPC   GL115133  18.229  41.640   9.179
  801POPC   GL215134  18.408  41.321   9.182
  801POPC   C1A15135  18.484  41.676   8.789
  801POPC   D2A15136  18.618  41.877   8.395
  801POPC   C3A15137  18.375  41.772   8.056
  801POPC   C4A15138  18.090  41.764   7.712
  801POPC   C1B15139  18.470  41.099   8.775
  801POPC   C2B15140  18.360  41.041   8.354
  801POPC   C3B15141  18.580  41.263   8.059
  801POPC   C4B15142  18.521  41.468   7.691
  802POPC   NC315143  41.647  42.787   9.345
  802POPC   PO415144  41.269  43.335   9.253
  802POPC   GL115145  41.639  43.203   9.059
  802POPC   GL215146  41.415  42.913   8.921
  802POPC   C1A15147  41.846  43.040   8.688
  802POPC   D2A15148  41.652  42.949   8.282
  802POPC   C3A15149  41.848  43.128   7.906
  802POPC   C4A15150  41.705  43.299   7.477
  802POPC   C1B15151  41.390  43.245   8.618
  802POPC   C2B15152  41.142  43.172   8.297
  802POPC   C3B15153  41.175  42.789   8.112
  802POPC   C4B15154  41.379  43.012   7.796
  803POPC   NC315155  22.312  31.888   9.395
  803POPC   PO415156  22.347  31.247   9.379
  803POPC   GL115157  22.154  31.492   9.072
  803POPC   GL215158  21.784  31.447   9.019
  803POPC   C1A15159  22.253  31.350   8.668
  803POPC   D2A15160  22.586  31.176   8.390
  803POPC   C3A15161  22.424  31.402   8.024
  803POPC   C4A15162  22.125  31.300   7.729
  803POPC   C1B15163  21.663  31.764   8.692
  803POPC   C2B15164  21.876  31.926   8.318
  803POPC   C3B15165  21.946  31.728   7.939
  803POPC   C4B15166  21.933  31.707   7.485
  804POPC   NC315167  26.265  40.663   9.847
  804POPC   PO415168  25.874  40.974   9.389
  804POPC   GL115169  26.143  40.955   9.080
  804POPC   GL215170  26.029  40.662   8.973
  804POPC   C1A15171  26.165  41.090   8.658
  804POPC   D2A15172  26.129  40.871   8.273
  804POPC   C3A15173  26.068  41.051   7.904
  804POPC   C4A15174  26.295  40.942   7.575
  804POPC   C1B15175  25.954  40.534   8.586
  804POPC   C2B15176  26.030  40.352   8.209
  804POPC   C3B15177  26.168  40.525   7.836
  804POPC   C4B15178  25.882  40.430   7.504
  805POPC   NC315179  33.563  34.834   9.851
  805POPC   PO415180  33.820  34.419   9.366
  805POPC   GL115181  33.982  34.447   9.025
  805POPC   GL215182  33.649  34.475   8.882
  805POPC   C1A15183  34.090  34.615   8.692
  805POPC   D2A15184  33.875  34.495   8.351
  805POPC   C3A15185  34.055  34.524   7.913
  805POPC   C4A15186  34.097  34.386   7.462
  805POPC   C1B15187  33.646  34.883   8.689
  805POPC   C2B15188  33.627  35.059   8.353
  805POPC   C3B15189  33.692  34.852   8.042
  805POPC   C4B15190  33.730  34.856   7.638
  806POPC   NC315191  34.155  37.470   9.486
  806POPC   PO415192  33.386  37.471   9.589
  806POPC   GL115193  33.624  37.678   9.230
  806POPC   GL215194  33.999  37.813   9.146
  806POPC   C1A15195  33.714  37.516   8.833
  806POPC   D2A15196  33.696  37.721   8.460
  806POPC   C3A15197  33.738  37.538   8.075
  806POPC   C4A15198  33.823  37.832   7.757
  806POPC   C1B15199  34.225  37.494   8.844
  806POPC   C2B15200  34.063  37.373   8.461
  806POPC   C3B15201  34.233  37.352   8.078
  806POPC   C4B15202  34.075  37.408   7.705
  807POPC   NC315203  40.261  38.295   9.498
  807POPC   PO415204  40.916  38.668   9.533
  807POPC   GL115205  40.741  38.475   9.183
  807POPC   GL215206  40.451  38.661   9.153
  807POPC   C1A15207  40.900  38.572   8.779
  807POPC   D2A15208  41.131  38.881   8.534
  807POPC   C3A15209  41.124  38.726   8.121
  807POPC   C4A15210  40.881  38.727   7.750
  807POPC   C1B15211  40.387  38.430   8.774
  807POPC   C2B15212  40.629  38.409   8.369
  807POPC   C3B15213  40.616  38.319   7.930
  807POPC   C4B15214  40.401  38.377   7.554
  808POPC   NC315215   8.270   8.413   9.561
  808POPC   PO415216   7.720   8.143   9.499
  808POPC   GL115217   8.009   8.189   9.184
  808POPC   GL215218   7.911   8.522   9.124
  808POPC   C1A15219   8.210   8.172   8.789
  808POPC   D2A15220   8.316   7.875   8.439
  808POPC   C3A15221   8.281   8.010   8.017
  808POPC   C4A15222   8.392   8.405   7.829
  808POPC   C1B15223   7.712   8.305   8.784
  808POPC   C2B15224   7.903   8.216   8.384
  808POPC   C3B15225   7.918   8.402   8.031
  808POPC   C4B15226   7.887   8.115   7.712
  809POPC   NC315227  12.235   0.959   9.570
  809POPC   PO415228  11.680   1.340   9.484
  809POPC   GL115229  11.914   1.128   9.173
  809POPC   GL215230  12.259   1.282   9.145
  809POPC   C1A15231  11.922   0.940   8.765
  809POPC   D2A15232  12.155   0.758   8.397
  809POPC   C3A15233  11.944   0.944   8.075
  809POPC   C4A15234  12.049   1.052   7.670
  809POPC   C1B15235  12.095   1.447   8.769
  809POPC   C2B15236  11.964   1.396   8.348
  809POPC   C3B15237  12.083   1.507   7.937
  809POPC   C4B15238  11.896   1.834   7.735
  810POPC   NC315239   1.506   6.805   9.503
  810POPC   PO415240   0.888   6.826   9.647
  810POPC   GL115241   1.095   6.845   9.231
  810POPC   GL215242   1.050   6.553   9.145
  810POPC   C1A15243   1.286   6.826   8.789
  810POPC   D2A15244   1.404   6.483   8.490
  810POPC   C3A15245   1.343   6.598   8.030
  810POPC   C4A15246   1.393   6.631   7.552
  810POPC   C1B15247   0.857   6.506   8.766
  810POPC   C2B15248   0.903   6.615   8.354
  810POPC   C3B15249   0.868   6.404   7.948
  810POPC   C4B15250   0.985   6.317   7.523
  811POPC   NC315251  24.745  33.505   9.449
  811POPC   PO415252  24.802  32.898   9.610
  811POPC   GL115253  24.767  32.942   9.122
  811POPC   GL215254  24.419  32.954   9.060
  811POPC   C1A15255  24.696  32.799   8.648
  811POPC   D2A15256  24.689  32.671   8.190
  811POPC   C3A15257  24.505  33.026   7.932
  811POPC   C4A15258  24.627  33.369   7.623
  811POPC   C1B15259  24.165  32.887   8.674
  811POPC   C2B15260  24.172  32.729   8.251
  811POPC   C3B15261  24.040  32.755   7.797
  811POPC   C4B15262  23.815  33.054   7.495
  812POPC   NC315263  15.508  33.682   9.428
  812POPC   PO415264  15.006  34.005   9.648
  812POPC   GL115265  15.094  33.898   9.214
  812POPC   GL215266  14.761  33.835   9.138
  812POPC   C1A15267  15.405  33.910   8.837
  812POPC   D2A15268  15.308  34.006   8.424
  812POPC   C3A15269  15.405  33.707   8.088
  812POPC   C4A15270  15.416  33.893   7.696
  812POPC   C1B15271  14.888  33.876   8.715
  812POPC   C2B15272  14.938  33.654   8.313
  812POPC   C3B15273  14.954  33.728   7.838
  812POPC   C4B15274  14.849  33.811   7.394
  813POPC   NC315275  36.466  20.276   9.466
  813POPC   PO415276  37.055  20.706   9.415
  813POPC   GL115277  36.724  20.577   9.109
  813POPC   GL215278  36.504  20.808   8.924
  813POPC   C1A15279  36.543  20.269   8.837
  813POPC   D2A15280  36.617  20.057   8.473
  813POPC   C3A15281  36.851  20.278   8.169
  813POPC   C4A15282  36.694  20.501   7.792
  813POPC   C1B15283  36.791  20.632   8.576
  813POPC   C2B15284  37.100  20.766   8.258
  813POPC   C3B15285  37.108  20.810   7.801
  813POPC   C4B15286  37.279  21.009   7.425
  814POPC   NC315287  41.554   2.840   9.771
  814POPC   PO415288  41.698   2.185   9.701
  814POPC   GL115289  41.656   2.512   9.313
  814POPC   GL215290  41.636   2.886   9.216
  814POPC   C1A15291  41.498   2.574   8.846
  814POPC   D2A15292  41.452   2.841   8.461
  814POPC   C3A15293  41.542   2.697   8.048
  814POPC   C4A15294  41.296   2.488   7.767
  814POPC   C1B15295  41.821   2.981   8.771
  814POPC   C2B15296  41.885   3.056   8.284
  814POPC   C3B15297  41.600   3.164   7.906
  814POPC   C4B15298  41.449   2.954   7.531
  815POPC   NC315299   8.769  38.321   9.397
  815POPC   PO415300   9.305  38.822   9.452
  815POPC   GL115301   9.088  38.644   9.132
  815POPC   GL215302   8.755  38.769   9.122
  815POPC   C1A15303   9.126  38.306   8.829
  815POPC   D2A15304   8.890  38.207   8.481
  815POPC   C3A15305   9.048  38.421   8.147
  815POPC   C4A15306   9.074  38.331   7.732
  815POPC   C1B15307   8.588  38.526   8.775
  815POPC   C2B15308   8.534  38.567   8.334
  815POPC   C3B15309   8.630  38.546   7.878
  815POPC   C4B15310   8.788  38.725   7.485
  816POPC   NC315311   9.332  31.680   9.472
  816POPC   PO415312   8.983  31.115   9.575
  816POPC   GL115313   8.943  31.422   9.245
  816POPC   GL215314   9.277  31.318   9.128
  816POPC   C1A15315   9.002  31.675   8.858
  816POPC   D2A15316   9.137  31.753   8.408
  816POPC   C3A15317   8.933  31.720   8.032
  816POPC   C4A15318   9.129  31.484   7.751
  816POPC   C1B15319   9.147  31.209   8.710
  816POPC   C2B15320   9.002  31.267   8.291
  816POPC   C3B15321   8.957  31.027   7.938
  816POPC   C4B15322   8.691  30.737   7.738
  817POPC   NC315323  10.612  38.784   9.497
  817POPC   PO415324  10.690  38.104   9.514
  817POPC   GL115325  10.576  38.360   9.189
  817POPC   GL215326  10.784  38.616   9.063
  817POPC   C1A15327  10.519  38.275   8.747
  817POPC   D2A15328  10.498  38.443   8.353
  817POPC   C3A15329  10.586  38.217   8.011
  817POPC   C4A15330  10.454  38.498   7.724
  817POPC   C1B15331  10.639  38.786   8.706
  817POPC   C2B15332  10.838  38.831   8.305
  817POPC   C3B15333  10.862  38.721   7.884
  817POPC   C4B15334  10.752  38.783   7.424
  818POPC   NC315335  33.454  10.320   9.385
  818POPC   PO415336  33.044  10.678   9.763
  818POPC   GL115337  33.131  10.694   9.269
  818POPC   GL215338  32.976  10.380   9.161
  818POPC   C1A15339  32.940  10.737   8.809
  818POPC   D2A15340  32.760  10.992   8.460
  818POPC   C3A15341  32.638  10.734   8.095
  818POPC   C4A15342  32.868  10.435   7.822
  818POPC   C1B15343  33.143  10.257   8.726
  818POPC   C2B15344  33.040  10.332   8.278
  818POPC   C3B15345  33.296  10.162   7.864
  818POPC   C4B15346  33.273  10.276   7.377
  819POPC   NC315347   0.883   6.364   9.603
  819POPC   PO415348   0.294   6.698   9.512
  819POPC   GL115349   0.340   6.666   9.106
  819POPC   GL215350   0.616   6.825   9.109
  819POPC   C1A15351   0.397   6.734   8.677
  819POPC   D2A15352   0.504   6.963   8.364
  819POPC   C3A15353   0.413   6.667   8.085
  819POPC   C4A15354   0.426   6.599   7.689
  819POPC   C1B15355   0.822   7.049   8.781
  819POPC   C2B15356   0.998   7.112   8.360
  819POPC   C3B15357   0.845   6.930   7.960
  819POPC   C4B15358   0.885   6.800   7.516
  820POPC   NC315359  17.888   0.904   9.811
  820POPC   PO415360  17.447   1.194   9.368
  820POPC   GL115361  17.381   1.330   9.004
  820POPC   GL215362  17.413   1.642   9.104
  820POPC   C1A15363  17.604   1.230   8.656
  820POPC   D2A15364  17.568   0.944   8.369
  820POPC   C3A15365  17.486   1.196   8.077
  820POPC   C4A15366  17.429   1.249   7.700
  820POPC   C1B15367  17.682   1.740   8.764
  820POPC   C2B15368  17.912   1.646   8.361
  820POPC   C3B15369  17.796   1.652   7.921
  820POPC   C4B15370  17.808   1.525   7.483
  821POPC   NC315371  15.952   9.562   9.632
  821POPC   PO415372  15.830   8.737   9.821
  821POPC   GL115373  15.947   8.805   9.312
  821POPC   GL215374  16.079   9.135   9.208
  821POPC   C1A15375  16.150   8.802   8.828
  821POPC   D2A15376  16.187   8.902   8.350
  821POPC   C3A15377  15.865   8.944   8.002
  821POPC   C4A15378  15.902   8.693   7.611
  821POPC   C1B15379  16.140   9.319   8.821
  821POPC   C2B15380  16.377   9.367   8.436
  821POPC   C3B15381  16.145   9.392   8.058
  821POPC   C4B15382  16.070   9.262   7.626
  822POPC   NC315383   2.835  20.318   9.479
  822POPC   PO415384   2.951  20.943   9.182
  822POPC   GL115385   2.825  20.559   9.025
  822POPC   GL215386   3.123  20.331   9.058
  822POPC   C1A15387   2.603  20.588   8.640
  822POPC   D2A15388   2.764  20.767   8.272
  822POPC   C3A15389   2.576  20.812   7.881
  822POPC   C4A15390   2.514  20.622   7.476
  822POPC   C1B15391   3.103  20.348   8.636
  822POPC   C2B15392   3.177  20.478   8.263
  822POPC   C3B15393   2.950  20.465   7.891
  822POPC   C4B15394   3.002  20.308   7.493
  823POPC   NC315395  25.202  32.783   9.789
  823POPC   PO415396  25.277  33.384   9.502
  823POPC   GL115397  25.257  33.130   9.135
  823POPC   GL215398  25.253  32.802   9.265
  823POPC   C1A15399  25.477  33.070   8.723
  823POPC   D2A15400  25.581  33.075   8.261
  823POPC   C3A15401  25.224  33.161   8.003
  823POPC   C4A15402  25.150  33.428   7.655
  823POPC   C1B15403  25.151  32.691   8.848
  823POPC   C2B15404  25.161  32.654   8.410
  823POPC   C3B15405  25.183  32.653   7.977
  823POPC   C4B15406  25.396  32.864   7.620
  824POPC   NC315407  33.161  13.258   9.262
  824POPC   PO415408  33.077  12.619   9.505
  824POPC   GL115409  33.180  12.760   9.113
  824POPC   GL215410  32.857  12.904   9.069
  824POPC   C1A15411  33.176  12.950   8.676
  824POPC   D2A15412  33.374  13.305   8.430
  824POPC   C3A15413  33.406  13.132   8.034
  824POPC   C4A15414  33.311  13.122   7.599
  824POPC   C1B15415  32.606  12.621   8.878
  824POPC   C2B15416  32.729  12.554   8.490
  824POPC   C3B15417  32.667  12.774   8.132
  824POPC   C4B15418  32.901  12.955   7.832
  825POPC   NC315419  34.157  17.932   9.390
  825POPC   PO415420  33.630  18.175   9.677
  825POPC   GL115421  33.568  18.368   9.220
  825POPC   GL215422  33.924  18.363   9.126
  825POPC   C1A15423  33.548  18.303   8.747
  825POPC   D2A15424  33.677  18.111   8.356
  825POPC   C3A15425  33.553  18.293   7.941
  825POPC   C4A15426  33.557  18.026   7.578
  825POPC   C1B15427  34.064  18.377   8.682
  825POPC   C2B15428  34.054  18.414   8.218
  825POPC   C3B15429  33.979  18.569   7.783
  825POPC   C4B15430  34.132  18.698   7.339
  826POPC   NC315431  24.711   0.603   9.460
  826POPC   PO415432  24.295   0.044   9.413
  826POPC   GL115433  24.352   0.363   9.126
  826POPC   GL215434  24.669   0.301   9.050
  826POPC   C1A15435  24.319   0.300   8.672
  826POPC   D2A15436  24.378   0.565   8.321
  826POPC   C3A15437  24.418   0.385   7.916
  826POPC   C4A15438  24.466   0.643   7.556
  826POPC   C1B15439  24.753   0.543   8.678
  826POPC   C2B15440  24.926   0.590   8.291
  826POPC   C3B15441  24.828   0.697   7.917
  826POPC   C4B15442  24.944   0.454   7.599
  827POPC   NC315443  39.693   7.364   9.425
  827POPC   PO415444  40.369   7.128   9.422
  827POPC   GL115445  40.135   7.455   9.152
  827POPC   GL215446  39.807   7.479   8.938
  827POPC   C1A15447  40.254   7.690   8.802
  827POPC   D2A15448  40.475   7.557   8.408
  827POPC   C3A15449  40.176   7.528   8.057
  827POPC   C4A15450  39.862   7.608   7.733
  827POPC   C1B15451  40.075   7.253   8.651
  827POPC   C2B15452  40.075   7.070   8.263
  827POPC   C3B15453  39.834   7.100   7.893
  827POPC   C4B15454  39.879   7.181   7.468
  828POPC   NC315455   3.653  38.784   9.584
  828POPC   PO415456   3.415  39.474   9.527
  828POPC   GL115457   3.464  39.277   9.158
  828POPC   GL215458   3.746  39.069   9.192
  828POPC   C1A15459   3.298  39.320   8.760
  828POPC   D2A15460   3.478  39.424   8.384
  828POPC   C3A15461   3.228  39.282   8.054
  828POPC   C4A15462   3.471  39.254   7.701
  828POPC   C1B15463   3.959  38.821   8.858
  828POPC   C2B15464   3.874  38.905   8.427
  828POPC   C3B15465   4.011  38.783   8.029
  828POPC   C4B15466   3.841  38.869   7.663
  829POPC   NC315467  28.061  21.522   9.923
  829POPC   PO415468  28.640  21.613   9.700
  829POPC   GL115469  28.651  21.541   9.204
  829POPC   GL215470  28.904  21.320   9.074
  829POPC   C1A15471  28.489  21.311   8.768
  829POPC   D2A15472  28.274  21.457   8.363
  829POPC   C3A15473  28.360  21.417   7.908
  829POPC   C4A15474  28.046  21.403   7.523
  829POPC   C1B15475  28.810  21.683   8.723
  829POPC   C2B15476  28.733  21.661   8.245
  829POPC   C3B15477  28.821  21.633   7.820
  829POPC   C4B15478  28.894  21.279   7.492
  830POPC   NC315479  27.493  15.677   9.635
  830POPC   PO415480  27.743  16.199   9.607
  830POPC   GL115481  27.690  15.878   9.202
  830POPC   GL215482  27.333  15.767   9.129
  830POPC   C1A15483  27.618  15.902   8.719
  830POPC   D2A15484  27.820  15.806   8.305
  830POPC   C3A15485  27.699  15.857   7.859
  830POPC   C4A15486  27.714  16.003   7.418
  830POPC   C1B15487  27.147  15.686   8.686
  830POPC   C2B15488  27.309  15.810   8.239
  830POPC   C3B15489  27.201  15.986   7.796
  830POPC   C4B15490  27.182  16.023   7.327
  831POPC   NC315491  35.341  41.004   9.459
  831POPC   PO415492  35.377  40.396   9.331
  831POPC   GL115493  35.438  40.696   9.064
  831POPC   GL215494  35.138  40.894   9.025
  831POPC   C1A15495  35.595  40.622   8.694
  831POPC   D2A15496  35.435  40.470   8.385
  831POPC   C3A15497  35.618  40.610   8.076
  831POPC   C4A15498  35.402  40.569   7.683
  831POPC   C1B15499  35.310  41.046   8.714
  831POPC   C2B15500  35.214  40.926   8.324
  831POPC   C3B15501  35.363  41.014   7.938
  831POPC   C4B15502  35.539  41.304   7.701
  832POPC   NC315503  11.816  19.968   9.528
  832POPC   PO415504  12.477  19.782   9.599
  832POPC   GL115505  12.122  19.659   9.286
  832POPC   GL215506  11.979  19.947   9.066
  832POPC   C1A15507  12.002  19.455   8.902
  832POPC   D2A15508  11.939  19.711   8.575
  832POPC   C3A15509  12.018  19.674   8.151
  832POPC   C4A15510  12.138  19.652   7.722
  832POPC   C1B15511  12.022  20.206   8.721
  832POPC   C2B15512  11.858  20.147   8.318
  832POPC   C3B15513  12.112  20.181   7.996
  832POPC   C4B15514  12.033  20.205   7.595
  833POPC   NC315515  37.965  14.603   9.581
  833POPC   PO415516  37.426  14.306   9.445
  833POPC   GL115517  37.556  14.633   9.244
  833POPC   GL215518  37.816  14.464   9.094
  833POPC   C1A15519  37.513  14.805   8.856
  833POPC   D2A15520  37.555  14.619   8.442
  833POPC   C3A15521  37.811  14.540   8.076
  833POPC   C4A15522  37.566  14.806   7.811
  833POPC   C1B15523  37.869  14.262   8.684
  833POPC   C2B15524  38.084  14.067   8.345
  833POPC   C3B15525  37.862  13.997   7.984
  833POPC   C4B15526  37.999  14.177   7.624
  834POPC   NC315527  37.198  25.833   9.676
  834POPC   PO415528  36.690  26.127   9.498
  834POPC   GL115529  36.968  25.947   9.197
  834POPC   GL215530  36.905  26.230   9.028
  834POPC   C1A15531  37.169  25.893   8.766
  834POPC   D2A15532  37.304  25.873   8.336
  834POPC   C3A15533  36.959  25.849   8.029
  834POPC   C4A15534  36.850  25.836   7.594
  834POPC   C1B15535  36.670  25.944   8.744
  834POPC   C2B15536  36.542  25.940   8.311
  834POPC   C3B15537  36.554  26.125   7.898
  834POPC   C4B15538  36.649  26.303   7.501
  835POPC   NC315539  44.291  30.178   9.666
  835POPC   PO415540  44.687  30.676   9.492
  835POPC   GL115541  44.450  30.651   9.143
  835POPC   GL215542  44.821  30.620   9.000
  835POPC   C1A15543  44.402  30.474   8.747
  835POPC   D2A15544  44.802  30.599   8.498
  835POPC   C3A15545  44.769  30.815   8.151
  835POPC   C4A15546  44.654  30.654   7.775
  835POPC   C1B15547   0.171  30.382   8.784
  835POPC   C2B15548   0.245  30.333   8.338
  835POPC   C3B15549   0.119  30.508   7.939
  835POPC   C4B15550   0.100  30.597   7.513
  836POPC   NC315551  38.766   5.430   9.412
  836POPC   PO415552  38.206   5.125   9.420
  836POPC   GL115553  38.357   5.107   9.026
  836POPC   GL215554  38.675   5.064   9.050
  836POPC   C1A15555  38.380   5.248   8.611
  836POPC   D2A15556  38.157   5.498   8.320
  836POPC   C3A15557  38.320   5.376   7.933
  836POPC   C4A15558  38.293   4.982   7.724
  836POPC   C1B15559  38.891   5.195   8.712
  836POPC   C2B15560  38.830   5.116   8.296
  836POPC   C3B15561  38.824   5.330   7.931
  836POPC   C4B15562  38.656   5.269   7.511
  837POPC   NC315563  10.671  17.102   9.777
  837POPC   PO415564  10.709  16.593   9.337
  837POPC   GL115565  10.478  16.584   8.964
  837POPC   GL215566  10.229  16.844   8.904
  837POPC   C1A15567  10.701  16.788   8.627
  837POPC   D2A15568  10.937  17.069   8.357
  837POPC   C3A15569  10.649  16.976   8.064
  837POPC   C4A15570  10.635  16.635   7.768
  837POPC   C1B15571  10.068  16.503   8.627
  837POPC   C2B15572  10.034  16.414   8.206
  837POPC   C3B15573  10.195  16.732   7.965
  837POPC   C4B15574  10.127  16.934   7.576
  838POPC   NC315575   2.145  30.073   9.412
  838POPC   PO415576   1.889  29.562   9.380
  838POPC   GL115577   1.794  29.892   9.073
  838POPC   GL215578   2.160  29.896   8.940
  838POPC   C1A15579   1.817  30.189   8.718
  838POPC   D2A15580   2.093  30.228   8.377
  838POPC   C3A15581   1.907  30.326   7.994
  838POPC   C4A15582   1.686  30.042   7.712
  838POPC   C1B15583   1.933  29.682   8.623
  838POPC   C2B15584   1.817  29.796   8.211
  838POPC   C3B15585   1.985  29.652   7.812
  838POPC   C4B15586   1.825  29.655   7.382
  839POPC   NC315587  39.714   9.051   9.496
  839POPC   PO415588  40.287   8.682   9.489
  839POPC   GL115589  40.099   8.961   9.195
  839POPC   GL215590  40.209   8.868   8.917
  839POPC   C1A15591  39.761   9.063   8.844
  839POPC   D2A15592  40.005   9.062   8.451
  839POPC   C3A15593  39.871   9.188   8.030
  839POPC   C4A15594  39.991   9.114   7.600
  839POPC   C1B15595  40.449   8.568   8.726
  839POPC   C2B15596  40.448   8.685   8.299
  839POPC   C3B15597  40.112   8.745   8.050
  839POPC   C4B15598  40.016   8.572   7.708
  840POPC   NC315599  22.280  44.557   9.578
  840POPC   PO415600  21.517  44.654   9.636
  840POPC   GL115601  21.847  44.689   9.254
  840POPC   GL215602  22.180  44.861   9.180
  840POPC   C1A15603  22.030  44.448   8.890
  840POPC   D2A15604  22.254  44.462   8.498
  840POPC   C3A15605  22.137  44.479   8.049
  840POPC   C4A15606  22.245  44.219   7.693
  840POPC   C1B15607  22.040  44.933   8.760
  840POPC   C2B15608  22.187  44.955   8.361
  840POPC   C3B15609  22.274  44.991   7.963
  840POPC   C4B15610  22.488  44.948   7.612
  841POPC   NC315611  20.171   0.962   9.489
  841POPC   PO415612  20.725   1.366   9.480
  841POPC   GL115613  20.520   1.436   9.088
  841POPC   GL215614  20.393   1.111   9.070
  841POPC   C1A15615  20.576   1.295   8.639
  841POPC   D2A15616  20.714   0.951   8.399
  841POPC   C3A15617  20.658   1.184   8.037
  841POPC   C4A15618  20.695   1.054   7.657
  841POPC   C1B15619  20.234   0.921   8.685
  841POPC   C2B15620  20.234   1.028   8.263
  841POPC   C3B15621  20.270   0.867   7.854
  841POPC   C4B15622  20.332   0.749   7.417
  842POPC   NC315623  25.592  30.195   9.412
  842POPC   PO415624  24.921  30.001   9.378
  842POPC   GL115625  25.284  29.991   9.058
  842POPC   GL215626  25.314  30.345   8.984
  842POPC   C1A15627  25.381  29.846   8.605
  842POPC   D2A15628  25.201  29.652   8.192
  842POPC   C3A15629  25.332  29.910   7.868
  842POPC   C4A15630  25.609  30.219   8.019
  842POPC   C1B15631  24.984  30.169   8.681
  842POPC   C2B15632  25.019  30.166   8.237
  842POPC   C3B15633  25.153  30.391   7.876
  842POPC   C4B15634  25.185  30.227   7.469
  843POPC   NC315635   2.424   4.731   9.466
  843POPC   PO415636   2.689   5.276   9.634
  843POPC   GL115637   2.643   5.154   9.245
  843POPC   GL215638   2.706   5.478   9.166
  843POPC   C1A15639   2.803   5.046   8.838
  843POPC   D2A15640   2.640   4.792   8.507
  843POPC   C3A15641   2.813   4.914   8.129
  843POPC   C4A15642   2.977   5.134   7.784
  843POPC   C1B15643   2.439   5.424   8.857
  843POPC   C2B15644   2.521   5.289   8.458
  843POPC   C3B15645   2.653   5.450   8.081
  843POPC   C4B15646   2.447   5.608   7.745
  844POPC   NC315647  25.857  40.515   9.431
  844POPC   PO415648  25.837  39.781   9.458
  844POPC   GL115649  26.030  39.893   9.089
  844POPC   GL215650  26.134  40.189   9.150
  844POPC   C1A15651  25.869  40.041   8.714
  844POPC   D2A15652  25.823  39.886   8.333
  844POPC   C3A15653  26.212  39.865   8.165
  844POPC   C4A15654  26.126  40.028   7.774
  844POPC   C1B15655  26.339  40.258   8.741
  844POPC   C2B15656  26.500  40.449   8.345
  844POPC   C3B15657  26.561  40.202   7.987
  844POPC   C4B15658  26.568  40.124   7.552
  845POPC   NC315659  33.743  22.278   9.551
  845POPC   PO415660  34.142  21.769   9.559
  845POPC   GL115661  33.972  21.999   9.169
  845POPC   GL215662  33.627  22.126   9.073
  845POPC   C1A15663  34.058  22.288   8.813
  845POPC   D2A15664  33.834  22.449   8.421
  845POPC   C3A15665  34.003  22.395   7.991
  845POPC   C4A15666  33.922  22.191   7.611
  845POPC   C1B15667  33.782  21.884   8.698
  845POPC   C2B15668  33.794  21.973   8.272
  845POPC   C3B15669  33.548  22.146   7.989
  845POPC   C4B15670  33.256  21.987   7.744
  846POPC   NC315671  17.188   6.079   9.764
  846POPC   PO415672  17.444   5.569   9.463
  846POPC   GL115673  17.394   5.979   9.240
  846POPC   GL215674  17.335   5.734   8.974
  846POPC   C1A15675  17.419   6.202   8.809
  846POPC   D2A15676  17.541   6.007   8.399
  846POPC   C3A15677  17.564   6.191   7.985
  846POPC   C4A15678  17.379   6.051   7.582
  846POPC   C1B15679  17.606   5.533   8.677
  846POPC   C2B15680  17.717   5.525   8.251
  846POPC   C3B15681  17.648   5.664   7.829
  846POPC   C4B15682  17.422   5.497   7.552
  847POPC   NC315683  34.081  38.360   9.561
  847POPC   PO415684  33.460  38.468   9.581
  847POPC   GL115685  33.693  38.565   9.188
  847POPC   GL215686  33.990  38.367   9.076
  847POPC   C1A15687  33.745  38.636   8.729
  847POPC   D2A15688  34.049  38.460   8.450
  847POPC   C3A15689  33.902  38.282   8.065
  847POPC   C4A15690  34.070  38.258   7.660
  847POPC   C1B15691  33.786  38.116   8.796
  847POPC   C2B15692  33.549  38.212   8.461
  847POPC   C3B15693  33.485  38.014   8.103
  847POPC   C4B15694  33.475  38.216   7.740
  848POPC   NC315695  29.046  44.863   9.474
  848POPC   PO415696  28.541  44.469   9.272
  848POPC   GL115697  28.835  44.677   9.060
  848POPC   GL215698  29.139  44.466   9.112
  848POPC   C1A15699  29.049  44.824   8.712
  848POPC   D2A15700  29.146  44.496   8.417
  848POPC   C3A15701  28.985  44.513   7.991
  848POPC   C4A15702  29.000  44.937   7.842
  848POPC   C1B15703  29.490  44.585   8.819
  848POPC   C2B15704  29.518  44.865   8.432
  848POPC   C3B15705  29.462  44.713   8.028
  848POPC   C4B15706  29.373  44.631   7.605
  849POPC   NC315707  10.170  12.776   9.504
  849POPC   PO415708  10.771  12.806   9.393
  849POPC   GL115709  10.486  12.877   9.100
  849POPC   GL215710  10.407  12.512   9.130
  849POPC   C1A15711  10.466  13.146   8.712
  849POPC   D2A15712  10.575  13.354   8.297
  849POPC   C3A15713  10.665  13.005   8.018
  849POPC   C4A15714  10.296  12.900   7.817
  849POPC   C1B15715  10.500  12.586   8.702
  849POPC   C2B15716  10.357  12.740   8.354
  849POPC   C3B15717  10.511  12.514   8.048
  849POPC   C4B15718  10.630  12.454   7.651
  850POPC   NC315719  33.490  34.057   9.416
  850POPC   PO415720  33.808  33.420   9.394
  850POPC   GL115721  34.047  33.663   9.136
  850POPC   GL215722  33.949  33.964   9.136
  850POPC   C1A15723  34.148  33.648   8.738
  850POPC   D2A15724  33.882  33.543   8.445
  850POPC   C3A15725  34.093  33.539   8.072
  850POPC   C4A15726  33.891  33.609   7.702
  850POPC   C1B15727  33.784  34.008   8.716
  850POPC   C2B15728  33.565  33.958   8.335
  850POPC   C3B15729  33.660  34.199   7.997
  850POPC   C4B15730  33.427  34.494   7.800
  851POPC   NC315731  10.222  19.864   9.439
  851POPC   PO415732  10.774  20.283   9.530
  851POPC   GL115733  10.629  20.028   9.155
  851POPC   GL215734  10.255  20.055   8.977
  851POPC   C1A15735  10.588  19.682   8.840
  851POPC   D2A15736  10.387  19.549   8.437
  851POPC   C3A15737  10.400  19.802   8.075
  851POPC   C4A15738  10.806  19.757   7.883
  851POPC   C1B15739  10.031  19.684   8.762
  851POPC   C2B15740   9.888  19.628   8.316
  851POPC   C3B15741   9.997  19.588   7.840
  851POPC   C4B15742  10.320  19.815   7.556
  852POPC   NC315743  29.277  18.261   9.428
  852POPC   PO415744  28.672  17.871   9.424
  852POPC   GL115745  28.948  18.082   9.086
  852POPC   GL215746  28.955  18.461   9.039
  852POPC   C1A15747  29.346  18.081   8.812
  852POPC   D2A15748  29.507  18.229   8.412
  852POPC   C3A15749  29.222  18.262   8.074
  852POPC   C4A15750  29.088  18.151   7.665
  852POPC   C1B15751  29.326  18.586   8.754
  852POPC   C2B15752  29.436  18.729   8.332
  852POPC   C3B15753  29.344  18.716   7.898
  852POPC   C4B15754  29.173  18.637   7.526
  853POPC   NC315755   4.496  38.674   9.652
  853POPC   PO415756   3.804  38.338   9.654
  853POPC   GL115757   3.994  38.468   9.242
  853POPC   GL215758   4.359  38.503   9.206
  853POPC   C1A15759   4.138  38.343   8.796
  853POPC   D2A15760   4.181  38.478   8.389
  853POPC   C3A15761   4.136  38.249   7.986
  853POPC   C4A15762   4.021  38.168   7.516
  853POPC   C1B15763   4.514  38.678   8.795
  853POPC   C2B15764   4.693  38.517   8.414
  853POPC   C3B15765   4.536  38.601   8.002
  853POPC   C4B15766   4.300  38.585   7.627
  854POPC   NC315767  22.759  27.900   9.585
  854POPC   PO415768  23.102  27.228   9.473
  854POPC   GL115769  23.014  27.452   9.137
  854POPC   GL215770  22.769  27.655   9.151
  854POPC   C1A15771  22.879  27.325   8.746
  854POPC   D2A15772  23.209  27.381   8.479
  854POPC   C3A15773  23.133  27.268   8.076
  854POPC   C4A15774  22.853  27.436   7.795
  854POPC   C1B15775  22.842  27.832   8.773
  854POPC   C2B15776  22.762  27.674   8.376
  854POPC   C3B15777  22.821  27.889   8.026
  854POPC   C4B15778  22.608  27.931   7.698
  855POPC   NC315779  19.111  12.376   9.166
  855POPC   PO415780  19.268  13.090   9.169
  855POPC   GL115781  18.919  13.094   8.984
  855POPC   GL215782  18.836  12.801   9.181
  855POPC   C1A15783  18.963  13.084   8.573
  855POPC   D2A15784  18.896  13.214   8.203
  855POPC   C3A15785  19.206  13.027   7.975
  855POPC   C4A15786  19.209  12.574   7.852
  855POPC   C1B15787  18.716  12.679   8.739
  855POPC   C2B15788  18.869  12.690   8.284
  855POPC   C3B15789  18.764  12.821   7.868
  855POPC   C4B15790  18.793  12.532   7.512
  856POPC   NC315791   4.468  35.747   9.471
  856POPC   PO415792   4.082  35.231   9.458
  856POPC   GL115793   4.319  35.292   9.139
  856POPC   GL215794   4.219  35.631   9.065
  856POPC   C1A15795   4.311  35.026   8.770
  856POPC   D2A15796   4.013  34.904   8.457
  856POPC   C3A15797   4.016  35.044   8.020
  856POPC   C4A15798   4.309  35.266   7.758
  856POPC   C1B15799   4.422  35.550   8.726
  856POPC   C2B15800   4.237  35.645   8.399
  856POPC   C3B15801   4.421  35.665   8.077
  856POPC   C4B15802   4.411  35.758   7.692
  857POPC   NC315803  37.352  21.447   9.512
  857POPC   PO415804  37.908  21.224   9.477
  857POPC   GL115805  37.700  21.242   9.108
  857POPC   GL215806  37.665  21.567   9.075
  857POPC   C1A15807  37.851  21.273   8.686
  857POPC   D2A15808  37.642  21.292   8.281
  857POPC   C3A15809  37.862  21.353   7.911
  857POPC   C4A15810  37.742  21.251   7.501
  857POPC   C1B15811  37.387  21.497   8.689
  857POPC   C2B15812  37.123  21.301   8.362
  857POPC   C3B15813  37.233  21.288   7.937
  857POPC   C4B15814  37.397  21.595   7.692
  858POPC   NC315815  23.904  14.406   9.504
  858POPC   PO415816  23.375  14.770   9.344
  858POPC   GL115817  23.589  14.376   9.094
  858POPC   GL215818  23.939  14.128   9.100
  858POPC   C1A15819  23.431  14.234   8.716
  858POPC   D2A15820  23.296  14.476   8.364
  858POPC   C3A15821  23.408  14.316   7.990
  858POPC   C4A15822  23.454  14.531   7.618
  858POPC   C1B15823  23.945  14.342   8.726
  858POPC   C2B15824  23.795  14.378   8.330
  858POPC   C3B15825  23.872  14.524   7.925
  858POPC   C4B15826  24.178  14.347   7.674
  859POPC   NC315827  14.858  26.371   9.700
  859POPC   PO415828  15.291  25.968   9.418
  859POPC   GL115829  15.220  26.241   9.131
  859POPC   GL215830  14.966  26.093   8.972
  859POPC   C1A15831  15.401  26.256   8.752
  859POPC   D2A15832  15.217  26.017   8.401
  859POPC   C3A15833  15.249  26.234   8.011
  859POPC   C4A15834  15.176  26.203   7.579
  859POPC   C1B15835  14.769  25.817   8.671
  859POPC   C2B15836  14.812  25.635   8.289
  859POPC   C3B15837  15.000  25.788   7.901
  859POPC   C4B15838  14.898  25.739   7.460
  860POPC   NC315839  17.945  24.636   9.775
  860POPC   PO415840  18.314  24.235   9.365
  860POPC   GL115841  18.201  24.601   9.209
  860POPC   GL215842  17.903  24.804   9.285
  860POPC   C1A15843  18.391  24.672   8.802
  860POPC   D2A15844  18.253  24.885   8.446
  860POPC   C3A15845  18.280  24.619   8.073
  860POPC   C4A15846  18.413  24.211   8.012
  860POPC   C1B15847  17.893  24.669   8.821
  860POPC   C2B15848  18.028  24.421   8.473
  860POPC   C3B15849  17.817  24.354   8.076
  860POPC   C4B15850  17.800  24.097   7.691
  861POPC   NC315851  42.316  30.205   9.445
  861POPC   PO415852  42.631  29.627   9.399
  861POPC   GL115853  42.555  29.893   9.082
  861POPC   GL215854  42.231  29.788   8.997
  861POPC   C1A15855  42.646  29.914   8.648
  861POPC   D2A15856  42.270  29.813   8.461
  861POPC   C3A15857  42.083  29.650   8.102
  861POPC   C4A15858  42.265  29.754   7.742
  861POPC   C1B15859  42.159  30.216   8.784
  861POPC   C2B15860  42.049  30.396   8.375
  861POPC   C3B15861  42.002  30.166   8.005
  861POPC   C4B15862  42.035  30.175   7.582
  862POPC   NC315863  27.286  39.561   9.381
  862POPC   PO415864  27.684  39.069   9.502
  862POPC   GL115865  27.694  39.294   9.109
  862POPC   GL215866  27.778  39.632   9.211
  862POPC   C1A15867  27.351  39.328   8.775
  862POPC   D2A15868  27.213  39.222   8.364
  862POPC   C3A15869  27.540  38.960   8.199
  862POPC   C4A15870  27.694  38.928   7.816
  862POPC   C1B15871  27.677  39.725   8.783
  862POPC   C2B15872  27.624  39.541   8.386
  862POPC   C3B15873  27.751  39.440   7.983
  862POPC   C4B15874  27.411  39.378   7.740
  863POPC   NC315875   5.149   9.835   9.598
  863POPC   PO415876   5.590  10.229   9.326
  863POPC   GL115877   5.216   9.971   9.107
  863POPC   GL215878   5.067   9.603   9.155
  863POPC   C1A15879   4.986   9.792   8.722
  863POPC   D2A15880   5.133   9.478   8.425
  863POPC   C3A15881   5.209   9.722   8.094
  863POPC   C4A15882   5.073   9.913   7.700
  863POPC   C1B15883   4.824   9.311   8.801
  863POPC   C2B15884   4.716   9.172   8.360
  863POPC   C3B15885   4.846   9.402   7.971
  863POPC   C4B15886   4.656   9.578   7.574
  864POPC   NC315887  19.504  39.866   9.570
  864POPC   PO415888  19.946  40.260   9.677
  864POPC   GL115889  19.722  40.163   9.222
  864POPC   GL215890  19.761  39.797   9.143
  864POPC   C1A15891  19.512  40.207   8.797
  864POPC   D2A15892  19.581  40.374   8.335
  864POPC   C3A15893  19.991  40.256   8.151
  864POPC   C4A15894  20.059  40.187   7.706
  864POPC   C1B15895  19.874  39.818   8.720
  864POPC   C2B15896  19.615  39.880   8.364
  864POPC   C3B15897  19.722  39.871   7.967
  864POPC   C4B15898  19.821  39.648   7.666
  865POPC   NC315899   6.039  27.479   9.575
  865POPC   PO415900   5.587  27.859   9.500
  865POPC   GL115901   5.823  27.683   9.137
  865POPC   GL215902   6.148  27.827   9.161
  865POPC   C1A15903   5.724  27.589   8.685
  865POPC   D2A15904   5.546  27.751   8.270
  865POPC   C3A15905   5.715  27.615   7.869
  865POPC   C4A15906   5.617  27.476   7.465
  865POPC   C1B15907   6.203  27.773   8.694
  865POPC   C2B15908   6.047  27.617   8.279
  865POPC   C3B15909   6.245  27.691   7.863
  865POPC   C4B15910   6.428  27.925   7.508
  866POPC   NC315911  35.097  43.330   9.407
  866POPC   PO415912  35.697  43.070   9.582
  866POPC   GL115913  35.430  42.987   9.172
  866POPC   GL215914  35.164  42.742   9.154
  866POPC   C1A15915  35.241  43.059   8.718
  866POPC   D2A15916  35.214  43.285   8.281
  866POPC   C3A15917  35.540  43.145   8.000
  866POPC   C4A15918  35.845  43.064   7.671
  866POPC   C1B15919  34.873  42.712   8.785
  866POPC   C2B15920  34.855  42.943   8.344
  866POPC   C3B15921  35.068  42.943   7.912
  866POPC   C4B15922  35.232  43.318   7.644
  867POPC   NC315923   9.322  21.466   9.516
  867POPC   PO415924   8.683  21.685   9.456
  867POPC   GL115925   8.865  21.647   9.053
  867POPC   GL215926   9.231  21.650   9.034
  867POPC   C1A15927   8.906  21.489   8.633
  867POPC   D2A15928   8.999  21.606   8.212
  867POPC   C3A15929   8.677  21.392   8.012
  867POPC   C4A15930   8.783  21.083   7.712
  867POPC   C1B15931   9.301  21.246   8.848
  867POPC   C2B15932   9.281  21.177   8.423
  867POPC   C3B15933   9.176  21.195   8.012
  867POPC   C4B15934   9.295  21.073   7.617
  868POPC   NC315935  40.465  35.008   9.659
  868POPC   PO415936  40.546  35.636   9.714
  868POPC   GL115937  40.669  35.446   9.314
  868POPC   GL215938  40.981  35.599   9.222
  868POPC   C1A15939  40.674  35.317   8.861
  868POPC   D2A15940  40.543  35.082   8.497
  868POPC   C3A15941  40.568  35.351   8.161
  868POPC   C4A15942  40.783  35.292   7.800
  868POPC   C1B15943  41.062  35.783   8.833
  868POPC   C2B15944  40.935  35.603   8.480
  868POPC   C3B15945  41.089  35.572   8.091
  868POPC   C4B15946  41.015  35.754   7.722
  869POPC   NC315947   5.698   8.378   9.610
  869POPC   PO415948   6.151   7.907   9.377
  869POPC   GL115949   5.861   8.113   9.121
  869POPC   GL215950   5.567   7.923   9.208
  869POPC   C1A15951   5.813   8.295   8.691
  869POPC   D2A15952   6.056   8.218   8.307
  869POPC   C3A15953   5.877   8.242   7.911
  869POPC   C4A15954   5.703   8.412   7.533
  869POPC   C1B15955   5.662   7.792   8.755
  869POPC   C2B15956   5.645   7.941   8.300
  869POPC   C3B15957   5.447   7.998   7.893
  869POPC   C4B15958   5.532   7.923   7.431
  870POPC   NC315959   4.013  16.730   9.585
  870POPC   PO415960   4.651  16.816   9.568
  870POPC   GL115961   4.350  16.807   9.186
  870POPC   GL215962   4.081  17.095   9.261
  870POPC   C1A15963   4.390  16.653   8.728
  870POPC   D2A15964   4.209  16.464   8.306
  870POPC   C3A15965   4.381  16.539   7.898
  870POPC   C4A15966   4.626  16.944   7.767
  870POPC   C1B15967   4.059  17.084   8.841
  870POPC   C2B15968   4.317  17.113   8.495
  870POPC   C3B15969   4.248  16.960   8.122
  870POPC   C4B15970   4.111  16.945   7.712
  871POPC   NC315971   6.482  43.006   9.623
  871POPC   PO415972   6.983  43.422   9.590
  871POPC   GL115973   6.760  43.225   9.253
  871POPC   GL215974   6.399  43.322   9.213
  871POPC   C1A15975   6.841  43.040   8.861
  871POPC   D2A15976   6.815  43.222   8.471
  871POPC   C3A15977   6.905  43.097   8.071
  871POPC   C4A15978   6.805  43.349   7.718
  871POPC   C1B15979   6.311  43.022   8.906
  871POPC   C2B15980   6.312  43.031   8.482
  871POPC   C3B15981   6.409  42.790   8.121
  871POPC   C4B15982   6.593  42.889   7.720
  872POPC   NC315983   8.250  16.114   9.527
  872POPC   PO415984   7.728  15.754   9.892
  872POPC   GL115985   8.073  15.655   9.455
  872POPC   GL215986   7.973  15.941   9.154
  872POPC   C1A15987   8.179  15.537   8.953
  872POPC   D2A15988   8.119  15.834   8.592
  872POPC   C3A15989   8.309  15.759   8.174
  872POPC   C4A15990   8.309  15.780   7.738
  872POPC   C1B15991   8.023  16.274   8.850
  872POPC   C2B15992   8.004  16.371   8.423
  872POPC   C3B15993   7.979  16.141   8.055
  872POPC   C4B15994   8.033  16.211   7.637
  873POPC   NC315995  19.305  36.236   9.582
  873POPC   PO415996  18.694  35.919   9.457
  873POPC   GL115997  18.967  36.134   9.195
  873POPC   GL215998  18.887  36.471   9.111
  873POPC   C1A15999  18.937  36.143   8.744
  873POPC   D2A16000  18.931  36.396   8.387
  873POPC   C3A16001  18.945  36.048   8.100
  873POPC   C4A16002  19.139  35.884   7.727
  873POPC   C1B16003  19.216  36.562   8.800
  873POPC   C2B16004  19.417  36.495   8.378
  873POPC   C3B16005  19.236  36.563   7.972
  873POPC   C4B16006  19.286  36.374   7.596
  874POPC   NC316007  31.302  13.714   9.402
  874POPC   PO416008  31.873  13.350   9.647
  874POPC   GL116009  31.813  13.254   9.173
  874POPC   GL216010  31.605  13.519   8.929
  874POPC   C1A16011  31.652  13.048   8.782
  874POPC   D2A16012  31.377  13.158   8.432
  874POPC   C3A16013  31.481  13.525   8.157
  874POPC   C4A16014  31.618  13.883   7.874
  874POPC   C1B16015  31.323  13.817   8.651
  874POPC   C2B16016  31.165  13.928   8.223
  874POPC   C3B16017  31.124  13.749   7.828
  874POPC   C4B16018  31.341  13.436   7.669
  875POPC   NC316019  22.109  43.643   9.444
  875POPC   PO416020  21.886  44.288   9.589
  875POPC   GL116021  21.951  44.078   9.220
  875POPC   GL216022  22.303  44.012   9.123
  875POPC   C1A16023  21.834  43.968   8.813
  875POPC   D2A16024  21.930  43.741   8.469
  875POPC   C3A16025  22.104  43.969   8.162
  875POPC   C4A16026  21.829  43.944   7.826
  875POPC   C1B16027  22.318  43.664   8.802
  875POPC   C2B16028  22.545  43.698   8.386
  875POPC   C3B16029  22.525  43.770   7.951
  875POPC   C4B16030  22.181  43.586   7.804
  876POPC   NC316031   3.295  44.786   9.281
  876POPC   PO416032   3.885  44.857   9.578
  876POPC   GL116033   3.892  44.732   9.125
  876POPC   GL216034   3.619  44.524   9.021
  876POPC   C1A16035   3.806  44.848   8.683
  876POPC   D2A16036   3.569  44.781   8.295
  876POPC   C3A16037   3.785  44.680   7.935
  876POPC   C4A16038   3.871  44.534   7.542
  876POPC   C1B16039   3.293  44.554   8.667
  876POPC   C2B16040   3.311  44.344   8.267
  876POPC   C3B16041   3.328  44.469   7.840
  876POPC   C4B16042   3.043  44.407   7.485
  877POPC   NC316043   4.955   5.351   9.648
  877POPC   PO416044   5.452   5.841   9.576
  877POPC   GL116045   5.226   5.651   9.208
  877POPC   GL216046   5.445   5.458   8.971
  877POPC   C1A16047   4.998   5.673   8.810
  877POPC   D2A16048   5.002   5.585   8.358
  877POPC   C3A16049   4.755   5.852   8.064
  877POPC   C4A16050   4.822   5.949   7.628
  877POPC   C1B16051   5.496   5.805   8.765
  877POPC   C2B16052   5.478   5.881   8.353
  877POPC   C3B16053   5.276   5.814   7.969
  877POPC   C4B16054   5.320   6.067   7.617
  878POPC   NC316055   8.796  41.847   9.383
  878POPC   PO416056   9.169  41.353   9.499
  878POPC   GL116057   9.075  41.443   9.085
  878POPC   GL216058   9.019  41.776   8.945
  878POPC   C1A16059   9.262  41.399   8.684
  878POPC   D2A16060   8.923  41.396   8.403
  878POPC   C3A16061   9.042  41.221   8.018
  878POPC   C4A16062   9.127  41.385   7.577
  878POPC   C1B16063   8.617  41.803   8.734
  878POPC   C2B16064   8.683  41.938   8.320
  878POPC   C3B16065   8.895  41.725   8.014
  878POPC   C4B16066   8.676  41.494   7.775
  879POPC   NC316067  38.158  39.649   9.522
  879POPC   PO416068  38.657  40.075   9.691
  879POPC   GL116069  38.475  40.119   9.261
  879POPC   GL216070  38.721  40.199   9.030
  879POPC   C1A16071  38.242  39.985   8.904
  879POPC   D2A16072  38.109  40.083   8.514
  879POPC   C3A16073  38.358  40.163   8.126
  879POPC   C4A16074  38.161  40.201   7.704
  879POPC   C1B16075  38.622  40.194   8.612
  879POPC   C2B16076  38.885  39.941   8.329
  879POPC   C3B16077  38.903  39.989   7.899
  879POPC   C4B16078  38.669  40.309   7.707
  880POPC   NC316079   5.336  24.717   9.687
  880POPC   PO416080   5.667  24.253   9.665
  880POPC   GL116081   5.688  24.333   9.209
  880POPC   GL216082   5.475  24.638   9.186
  880POPC   C1A16083   5.911  24.216   8.791
  880POPC   D2A16084   6.149  24.245   8.383
  880POPC   C3A16085   5.835  24.250   8.033
  880POPC   C4A16086   5.467  24.099   7.800
  880POPC   C1B16087   5.585  24.660   8.739
  880POPC   C2B16088   5.830  24.672   8.348
  880POPC   C3B16089   5.800  24.742   7.898
  880POPC   C4B16090   5.467  24.587   7.592
  881POPC   NC316091  37.714  31.154   9.318
  881POPC   PO416092  37.787  30.571   9.748
  881POPC   GL116093  37.715  30.523   9.259
  881POPC   GL216094  37.462  30.366   9.029
  881POPC   C1A16095  37.776  30.728   8.832
  881POPC   D2A16096  38.022  30.817   8.435
  881POPC   C3A16097  37.922  31.073   8.090
  881POPC   C4A16098  37.778  30.944   7.690
  881POPC   C1B16099  37.303  30.553   8.674
  881POPC   C2B16100  37.485  30.877   8.446
  881POPC   C3B16101  37.505  30.758   8.069
  881POPC   C4B16102  37.270  30.795   7.726
  882POPC   NC316103  18.278   9.539   9.514
  882POPC   PO416104  18.004  10.081   9.385
  882POPC   GL116105  18.248   9.889   9.121
  882POPC   GL216106  18.524  10.090   9.072
  882POPC   C1A16107  18.099   9.867   8.708
  882POPC   D2A16108  18.270  10.006   8.318
  882POPC   C3A16109  18.076   9.831   7.952
  882POPC   C4A16110  18.168   9.645   7.561
  882POPC   C1B16111  18.572   9.720   8.761
  882POPC   C2B16112  18.492   9.488   8.374
  882POPC   C3B16113  18.590   9.542   7.933
  882POPC   C4B16114  18.686   9.535   7.478
  883POPC   NC316115   0.932  21.801   9.405
  883POPC   PO416116   1.061  21.262   9.759
  883POPC   GL116117   1.116  21.152   9.291
  883POPC   GL216118   1.458  21.215   9.183
  883POPC   C1A16119   1.137  21.072   8.812
  883POPC   D2A16120   1.332  21.213   8.398
  883POPC   C3A16121   1.148  21.192   7.975
  883POPC   C4A16122   1.262  21.144   7.539
  883POPC   C1B16123   1.620  21.341   8.798
  883POPC   C2B16124   1.749  21.539   8.418
  883POPC   C3B16125   1.575  21.505   8.032
  883POPC   C4B16126   1.585  21.800   7.699
  884POPC   NC316127  26.828   0.312   9.800
  884POPC   PO416128  27.209   0.603   9.400
  884POPC   GL116129  26.973   0.350   9.105
  884POPC   GL216130  26.649   0.386   9.140
  884POPC   C1A16131  26.841   0.427   8.646
  884POPC   D2A16132  26.972   0.727   8.342
  884POPC   C3A16133  27.185   0.637   7.948
  884POPC   C4A16134  27.258   0.320   7.670
  884POPC   C1B16135  26.508   0.112   8.839
  884POPC   C2B16136  26.584   0.052   8.396
  884POPC   C3B16137  26.721   0.350   8.076
  884POPC   C4B16138  26.707   0.781   7.922
  885POPC   NC316139  38.278  11.135   9.480
  885POPC   PO416140  38.695  11.567   9.338
  885POPC   GL116141  38.444  11.498   9.058
  885POPC   GL216142  38.554  11.164   9.039
  885POPC   C1A16143  38.498  11.473   8.640
  885POPC   D2A16144  38.304  11.358   8.290
  885POPC   C3A16145  38.458  11.451   7.894
  885POPC   C4A16146  38.323  11.465   7.464
  885POPC   C1B16147  38.219  11.076   8.823
  885POPC   C2B16148  38.139  10.898   8.457
  885POPC   C3B16149  37.938  11.057   8.112
  885POPC   C4B16150  38.131  11.066   7.734
  886POPC   NC316151  23.096  25.943   9.777
  886POPC   PO416152  22.476  25.704   9.457
  886POPC   GL116153  22.796  25.951   9.157
  886POPC   GL216154  23.146  25.813   9.176
  886POPC   C1A16155  22.697  26.260   8.791
  886POPC   D2A16156  22.650  26.550   8.463
  886POPC   C3A16157  22.631  26.375   8.054
  886POPC   C4A16158  22.785  25.950   7.929
  886POPC   C1B16159  23.166  26.092   8.788
  886POPC   C2B16160  23.065  26.256   8.351
  886POPC   C3B16161  23.278  26.122   7.953
  886POPC   C4B16162  23.162  25.846   7.576
  887POPC   NC316163  30.528  16.597   9.492
  887POPC   PO416164  30.656  15.906   9.590
  887POPC   GL116165  30.862  16.033   9.199
  887POPC   GL216166  30.919  15.724   9.075
  887POPC   C1A16167  30.732  16.077   8.736
  887POPC   D2A16168  30.448  15.917   8.374
  887POPC   C3A16169  30.655  15.949   7.974
  887POPC   C4A16170  31.072  16.019   7.954
  887POPC   C1B16171  30.996  15.640   8.679
  887POPC   C2B16172  30.880  15.609   8.283
  887POPC   C3B16173  31.003  15.532   7.884
  887POPC   C4B16174  30.689  15.579   7.586
  888POPC   NC316175  37.543  10.684   9.894
  888POPC   PO416176  37.514  10.241   9.350
  888POPC   GL116177  37.570  10.636   9.110
  888POPC   GL216178  37.892  10.660   8.908
  888POPC   C1A16179  37.380  10.741   8.691
  888POPC   D2A16180  37.692  10.684   8.373
  888POPC   C3A16181  37.770  10.614   7.931
  888POPC   C4A16182  37.772  10.759   7.496
  888POPC   C1B16183  37.696  10.291   8.738
  888POPC   C2B16184  37.483  10.219   8.383
  888POPC   C3B16185  37.356  10.352   7.991
  888POPC   C4B16186  37.521  10.316   7.539
  889POPC   NC316187  16.040  17.413   9.491
  889POPC   PO416188  15.769  17.883   9.369
  889POPC   GL116189  15.964  17.619   9.023
  889POPC   GL216190  15.890  17.239   9.013
  889POPC   C1A16191  15.939  17.529   8.572
  889POPC   D2A16192  15.663  17.302   8.290
  889POPC   C3A16193  15.861  17.278   7.882
  889POPC   C4A16194  16.201  17.537   7.686
  889POPC   C1B16195  16.185  17.101   8.673
  889POPC   C2B16196  16.225  17.230   8.230
  889POPC   C3B16197  16.444  17.133   7.842
  889POPC   C4B16198  16.573  17.202   7.398
  890POPC   NC316199  20.709   1.790   9.645
  890POPC   PO416200  20.265   2.254   9.504
  890POPC   GL116201  20.497   1.966   9.161
  890POPC   GL216202  20.849   1.834   9.163
  890POPC   C1A16203  20.361   1.849   8.727
  890POPC   D2A16204  20.151   2.025   8.325
  890POPC   C3A16205  20.328   1.903   7.901
  890POPC   C4A16206  20.435   2.047   7.442
  890POPC   C1B16207  20.859   1.686   8.755
  890POPC   C2B16208  20.711   1.729   8.326
  890POPC   C3B16209  20.855   1.666   7.900
  890POPC   C4B16210  20.581   1.556   7.584
  891POPC   NC316211  26.929   9.303   9.785
  891POPC   PO416212  27.008   9.881   9.386
  891POPC   GL116213  26.722   9.892   9.083
  891POPC   GL216214  27.046   9.962   8.896
  891POPC   C1A16215  26.641   9.677   8.695
  891POPC   D2A16216  26.603   9.782   8.301
  891POPC   C3A16217  26.657   9.635   7.886
  891POPC   C4A16218  26.544   9.956   7.599
  891POPC   C1B16219  27.165   9.676   8.607
  891POPC   C2B16220  27.079   9.611   8.190
  891POPC   C3B16221  27.137   9.850   7.826
  891POPC   C4B16222  26.979   9.810   7.392
  892POPC   NC316223  43.529  35.655   9.477
  892POPC   PO416224  43.848  35.087   9.577
  892POPC   GL116225  43.900  35.280   9.145
  892POPC   GL216226  43.787  35.624   9.034
  892POPC   C1A16227  44.048  35.299   8.722
  892POPC   D2A16228  43.845  35.267   8.340
  892POPC   C3A16229  44.067  35.297   7.967
  892POPC   C4A16230  44.064  35.107   7.584
  892POPC   C1B16231  43.536  35.388   8.768
  892POPC   C2B16232  43.384  35.482   8.331
  892POPC   C3B16233  43.548  35.393   7.906
  892POPC   C4B16234  43.824  35.575   7.597
  893POPC   NC316235   4.242  20.766   9.560
  893POPC   PO416236   3.935  20.124   9.432
  893POPC   GL116237   4.298  20.322   9.158
  893POPC   GL216238   4.433  20.659   9.094
  893POPC   C1A16239   4.552  20.315   8.768
  893POPC   D2A16240   4.354  20.236   8.409
  893POPC   C3A16241   4.468  20.362   8.028
  893POPC   C4A16242   4.555  20.715   7.786
  893POPC   C1B16243   4.476  20.890   8.690
  893POPC   C2B16244   4.523  20.992   8.248
  893POPC   C3B16245   4.668  21.197   7.885
  893POPC   C4B16246   4.627  21.078   7.439
  894POPC   NC316247  28.599  44.207   9.638
  894POPC   PO416248  27.896  44.135   9.627
  894POPC   GL116249  28.144  44.036   9.202
  894POPC   GL216250  28.544  43.968   9.194
  894POPC   C1A16251  28.294  43.819   8.798
  894POPC   D2A16252  28.578  43.779   8.459
  894POPC   C3A16253  28.452  43.600   8.106
  894POPC   C4A16254  28.333  43.736   7.747
  894POPC   C1B16255  28.780  44.106   8.798
  894POPC   C2B16256  28.682  44.279   8.380
  894POPC   C3B16257  28.605  44.151   7.939
  894POPC   C4B16258  28.666  44.134   7.480
  895POPC   NC316259  27.706  38.612   9.447
  895POPC   PO416260  27.059  38.402   9.481
  895POPC   GL116261  27.398  38.280   9.158
  895POPC   GL216262  27.756  38.201   9.169
  895POPC   C1A16263  27.531  38.495   8.771
  895POPC   D2A16264  27.441  38.394   8.340
  895POPC   C3A16265  27.328  38.543   7.929
  895POPC   C4A16266  27.471  38.359   7.564
  895POPC   C1B16267  28.011  38.321   8.798
  895POPC   C2B16268  27.916  38.604   8.415
  895POPC   C3B16269  27.841  38.468   7.978
  895POPC   C4B16270  27.952  38.133   7.687
  896POPC   NC316271   6.676  21.733   9.267
  896POPC   PO416272   6.924  22.373   9.455
  896POPC   GL116273   6.698  22.320   9.093
  896POPC   GL216274   6.418  22.171   9.179
  896POPC   C1A16275   6.671  22.100   8.728
  896POPC   D2A16276   6.745  21.954   8.334
  896POPC   C3A16277   6.714  22.304   8.074
  896POPC   C4A16278   6.543  22.191   7.728
  896POPC   C1B16279   6.167  21.984   8.846
  896POPC   C2B16280   6.255  21.742   8.477
  896POPC   C3B16281   6.323  21.876   8.056
  896POPC   C4B16282   6.242  21.726   7.634
  897POPC   NC316283   1.045  40.265   9.225
  897POPC   PO416284   1.248  40.817   9.543
  897POPC   GL116285   1.172  40.930   9.145
  897POPC   GL216286   0.840  41.068   9.141
  897POPC   C1A16287   1.357  40.842   8.730
  897POPC   D2A16288   1.388  40.711   8.314
  897POPC   C3A16289   1.098  40.905   8.040
  897POPC   C4A16290   1.056  41.138   7.669
  897POPC   C1B16291   0.850  40.784   8.780
  897POPC   C2B16292   0.699  40.716   8.372
  897POPC   C3B16293   0.674  40.476   7.980
  897POPC   C4B16294   0.853  40.665   7.635
  898POPC   NC316295  39.354  26.421   9.388
  898POPC   PO416296  38.854  26.061   9.509
  898POPC   GL116297  39.085  25.983   9.143
  898POPC   GL216298  39.444  25.914   9.189
  898POPC   C1A16299  39.250  26.076   8.737
  898POPC   D2A16300  39.069  26.132   8.344
  898POPC   C3A16301  38.928  25.783   8.074
  898POPC   C4A16302  38.984  26.019   7.694
  898POPC   C1B16303  39.601  25.717   8.786
  898POPC   C2B16304  39.359  25.708   8.387
  898POPC   C3B16305  39.412  25.936   7.986
  898POPC   C4B16306  39.637  25.772   7.622
  899POPC   NC316307  33.383  40.974   9.442
  899POPC   PO416308  33.983  40.569   9.429
  899POPC   GL116309  33.827  40.840   9.132
  899POPC   GL216310  33.600  41.055   8.990
  899POPC   C1A16311  33.899  40.644   8.773
  899POPC   D2A16312  34.015  40.311   8.509
  899POPC   C3A16313  33.874  40.407   8.104
  899POPC   C4A16314  33.999  40.763   7.872
  899POPC   C1B16315  33.813  41.150   8.645
  899POPC   C2B16316  33.802  40.860   8.335
  899POPC   C3B16317  33.505  40.777   8.040
  899POPC   C4B16318  33.249  40.535   7.791
  900POPC   NC316319   3.477  40.755   9.614
  900POPC   PO416320   4.114  40.991   9.696
  900POPC   GL116321   3.826  40.752   9.263
  900POPC   GL216322   3.556  40.548   9.170
  900POPC   C1A16323   3.765  40.810   8.793
  900POPC   D2A16324   3.954  40.759   8.408
  900POPC   C3A16325   3.683  40.836   8.067
  900POPC   C4A16326   3.746  41.041   7.693
  900POPC   C1B16327   3.259  40.641   8.865
  900POPC   C2B16328   3.298  40.682   8.428
  900POPC   C3B16329   3.133  40.802   8.036
  900POPC   C4B16330   3.267  40.755   7.610
  901POPC   NC316331   5.189  40.730   9.346
  901POPC   PO416332   4.632  40.507   9.714
  901POPC   GL116333   4.713  40.659   9.281
  901POPC   GL216334   4.784  41.029   9.203
  901POPC   C1A16335   4.833  40.550   8.821
  901POPC   D2A16336   4.898  40.688   8.370
  901POPC   C3A16337   5.184  40.603   8.038
  901POPC   C4A16338   5.312  40.738   7.639
  901POPC   C1B16339   4.979  41.068   8.755
  901POPC   C2B16340   4.975  41.213   8.285
  901POPC   C3B16341   4.873  40.992   7.873
  901POPC   C4B16342   4.833  40.703   7.489
  902POPC   NC316343  41.325  29.810   9.464
  902POPC   PO416344  41.998  29.862   9.475
  902POPC   GL116345  41.835  30.124   9.175
  902POPC   GL216346  41.470  30.167   9.119
  902POPC   C1A16347  41.758  29.878   8.817
  902POPC   D2A16348  41.792  29.962   8.423
  902POPC   C3A16349  41.533  29.906   8.118
  902POPC   C4A16350  41.719  29.800   7.750
  902POPC   C1B16351  41.264  29.992   8.780
  902POPC   C2B16352  41.092  30.142   8.431
  902POPC   C3B16353  41.084  30.114   8.008
  902POPC   C4B16354  41.229  29.917   7.682
  903POPC   NC316355  44.664  29.033   9.644
  903POPC   PO416356  44.179  29.458   9.403
  903POPC   GL116357  44.545  29.271   9.197
  903POPC   GL216358  44.585  28.894   9.175
  903POPC   C1A16359  44.670  29.207   8.761
  903POPC   D2A16360  44.470  29.215   8.340
  903POPC   C3A16361  44.729  29.335   8.020
  903POPC   C4A16362  44.727  29.158   7.660
  903POPC   C1B16363  44.886  28.758   8.894
  903POPC   C2B16364  44.774  28.791   8.463
  903POPC   C3B16365  44.845  28.832   8.032
  903POPC   C4B16366  44.953  28.710   7.593
  904POPC   NC316367  23.973  34.013   9.833
  904POPC   PO416368  24.347  33.745   9.447
  904POPC   GL116369  24.002  33.722   9.112
  904POPC   GL216370  23.965  34.048   8.952
  904POPC   C1A16371  23.664  33.683   8.755
  904POPC   D2A16372  23.680  33.949   8.368
  904POPC   C3A16373  23.617  33.766   7.941
  904POPC   C4A16374  23.370  33.924   7.574
  904POPC   C1B16375  24.134  33.797   8.593
  904POPC   C2B16376  24.103  33.746   8.129
  904POPC   C3B16377  24.047  33.908   7.687
  904POPC   C4B16378  24.072  33.942   7.223
  905POPC   NC316379  42.030  40.067   9.537
  905POPC   PO416380  42.546  39.739   9.376
  905POPC   GL116381  42.325  39.941   9.070
  905POPC   GL216382  42.116  40.229   9.063
  905POPC   C1A16383  42.369  39.910   8.646
  905POPC   D2A16384  42.157  39.838   8.299
  905POPC   C3A16385  42.443  39.934   7.995
  905POPC   C4A16386  42.572  39.585   7.815
  905POPC   C1B16387  42.426  40.405   8.768
  905POPC   C2B16388  42.241  40.324   8.357
  905POPC   C3B16389  42.009  40.190   7.978
  905POPC   C4B16390  42.282  40.292   7.667
  906POPC   NC316391  41.009   0.064   9.564
  906POPC   PO416392  40.879  44.400   9.448
  906POPC   GL116393  41.171  44.530   9.103
  906POPC   GL216394  41.135  44.881   9.083
  906POPC   C1A16395  41.120  44.610   8.633
  906POPC   D2A16396  40.679  44.638   8.442
  906POPC   C3A16397  40.683  44.532   8.008
  906POPC   C4A16398  41.095  44.550   7.878
  906POPC   C1B16399  40.867   0.037   8.740
  906POPC   C2B16400  40.957   0.052   8.289
  906POPC   C3B16401  40.853   0.069   7.855
  906POPC   C4B16402  40.548   0.250   7.526
  907POPC   NC316403  19.578  40.528   9.546
  907POPC   PO416404  20.097  40.971   9.448
  907POPC   GL116405  19.838  40.768   9.160
  907POPC   GL216406  19.595  41.016   9.121
  907POPC   C1A16407  19.719  40.679   8.726
  907POPC   D2A16408  19.932  40.758   8.312
  907POPC   C3A16409  19.987  40.683   7.871
  907POPC   C4A16410  19.739  40.561   7.514
  907POPC   C1B16411  19.408  41.121   8.728
  907POPC   C2B16412  19.376  40.849   8.366
  907POPC   C3B16413  19.486  40.786   7.925
  907POPC   C4B16414  19.328  40.891   7.495
  908POPC   NC316415  24.837  28.123   9.423
  908POPC   PO416416  24.246  28.448   9.709
  908POPC   GL116417  24.391  28.348   9.260
  908POPC   GL216418  24.417  28.033   9.138
  908POPC   C1A16419  24.409  28.456   8.822
  908POPC   D2A16420  24.160  28.358   8.437
  908POPC   C3A16421  24.129  28.637   8.128
  908POPC   C4A16422  24.396  28.716   7.818
  908POPC   C1B16423  24.739  28.086   8.799
  908POPC   C2B16424  24.695  28.305   8.400
  908POPC   C3B16425  24.500  28.232   8.007
  908POPC   C4B16426  24.722  28.030   7.682
  909POPC   NC316427  14.952  14.724   9.233
  909POPC   PO416428  15.359  14.256   9.608
  909POPC   GL116429  15.284  14.325   9.152
  909POPC   GL216430  15.086  14.114   9.129
  909POPC   C1A16431  15.293  14.585   8.712
  909POPC   D2A16432  15.381  14.776   8.318
  909POPC   C3A16433  15.239  14.590   7.925
  909POPC   C4A16434  15.402  14.623   7.490
  909POPC   C1B16435  15.361  14.075   8.739
  909POPC   C2B16436  15.304  14.225   8.306
  909POPC   C3B16437  14.999  14.128   7.969
  909POPC   C4B16438  14.804  13.886   7.614
  910POPC   NC316439   6.515   5.343   9.301
  910POPC   PO416440   6.352   5.920   9.696
  910POPC   GL116441   6.428   5.860   9.205
  910POPC   GL216442   6.607   6.158   9.036
  910POPC   C1A16443   6.574   5.700   8.759
  910POPC   D2A16444   6.831   5.448   8.445
  910POPC   C3A16445   6.727   5.606   8.011
  910POPC   C4A16446   6.773   6.082   7.899
  910POPC   C1B16447   6.308   6.135   8.673
  910POPC   C2B16448   6.386   5.974   8.225
  910POPC   C3B16449   6.262   6.089   7.763
  910POPC   C4B16450   6.223   5.963   7.276
  911POPC   NC316451  34.763  42.478   9.491
  911POPC   PO416452  34.104  42.321   9.510
  911POPC   GL116453  34.430  42.177   9.158
  911POPC   GL216454  34.522  42.470   9.052
  911POPC   C1A16455  34.742  42.152   8.730
  911POPC   D2A16456  34.590  42.068   8.269
  911POPC   C3A16457  34.747  42.071   7.872
  911POPC   C4A16458  34.749  42.193   7.469
  911POPC   C1B16459  34.302  42.384   8.675
  911POPC   C2B16460  34.574  42.545   8.405
  911POPC   C3B16461  34.743  42.547   8.021
  911POPC   C4B16462  34.384  42.450   7.782
  912POPC   NC316463  19.036  32.332   9.550
  912POPC   PO416464  18.791  31.712   9.381
  912POPC   GL116465  18.908  32.051   9.131
  912POPC   GL216466  19.254  32.133   9.142
  912POPC   C1A16467  18.921  32.338   8.802
  912POPC   D2A16468  19.119  32.240   8.422
  912POPC   C3A16469  18.960  32.269   8.034
  912POPC   C4A16470  18.924  32.583   7.734
  912POPC   C1B16471  19.361  31.960   8.766
  912POPC   C2B16472  19.469  31.886   8.327
  912POPC   C3B16473  19.536  32.159   8.003
  912POPC   C4B16474  19.312  32.249   7.650
  913POPC   NC316475  17.190  33.903   9.408
  913POPC   PO416476  17.599  33.441   9.442
  913POPC   GL116477  17.602  33.676   9.079
  913POPC   GL216478  17.259  33.650   8.972
  913POPC   C1A16479  17.697  33.947   8.741
  913POPC   D2A16480  17.711  33.824   8.336
  913POPC   C3A16481  17.747  34.120   8.024
  913POPC   C4A16482  17.649  33.917   7.621
  913POPC   C1B16483  17.213  34.052   8.789
  913POPC   C2B16484  17.360  34.207   8.441
  913POPC   C3B16485  17.261  34.011   8.085
  913POPC   C4B16486  17.283  34.231   7.713
  914POPC   NC316487   9.968  16.601   9.272
  914POPC   PO416488   9.367  16.478   9.614
  914POPC   GL116489   9.310  16.731   9.140
  914POPC   GL216490   9.595  16.838   9.020
  914POPC   C1A16491   9.301  16.616   8.663
  914POPC   D2A16492   9.582  16.341   8.471
  914POPC   C3A16493   9.526  16.375   8.047
  914POPC   C4A16494   9.779  16.561   7.753
  914POPC   C1B16495   9.754  16.916   8.640
  914POPC   C2B16496   9.765  16.850   8.217
  914POPC   C3B16497   9.742  17.099   7.857
  914POPC   C4B16498   9.729  17.307   7.476
  915POPC   NC316499   4.541  34.229   9.492
  915POPC   PO416500   4.532  33.591   9.757
  915POPC   GL116501   4.347  33.785   9.361
  915POPC   GL216502   4.025  33.784   9.431
  915POPC   C1A16503   4.444  33.934   8.905
  915POPC   D2A16504   4.589  33.849   8.473
  915POPC   C3A16505   4.553  33.941   8.050
  915POPC   C4A16506   4.316  33.789   7.691
  915POPC   C1B16507   3.966  33.786   8.986
  915POPC   C2B16508   4.108  33.678   8.579
  915POPC   C3B16509   4.063  33.785   8.150
  915POPC   C4B16510   3.933  34.104   7.842
  916POPC   NC316511  21.630  24.933   9.612
  916POPC   PO416512  21.493  25.584   9.596
  916POPC   GL116513  21.440  25.431   9.170
  916POPC   GL216514  21.139  25.288   9.082
  916POPC   C1A16515  21.349  25.590   8.734
  916POPC   D2A16516  21.225  25.459   8.313
  916POPC   C3A16517  21.581  25.280   8.074
  916POPC   C4A16518  21.817  25.333   7.690
  916POPC   C1B16519  20.981  25.070   8.756
  916POPC   C2B16520  20.825  25.146   8.369
  916POPC   C3B16521  21.035  25.095   7.981
  916POPC   C4B16522  21.226  25.470   7.779
  917POPC   NC316523  27.193  37.953   9.509
  917POPC   PO416524  27.035  37.372   9.675
  917POPC   GL116525  27.196  37.475   9.277
  917POPC   GL216526  26.976  37.262   9.081
  917POPC   C1A16527  27.194  37.657   8.844
  917POPC   D2A16528  26.890  37.875   8.567
  917POPC   C3A16529  26.948  37.833   8.132
  917POPC   C4A16530  27.174  37.585   7.857
  917POPC   C1B16531  26.793  37.369   8.652
  917POPC   C2B16532  26.562  37.536   8.285
  917POPC   C3B16533  26.642  37.505   7.841
  917POPC   C4B16534  26.675  37.228   7.471
  918POPC   NC316535  23.528  25.067   9.564
  918POPC   PO416536  24.216  25.342   9.497
  918POPC   GL116537  23.899  25.148   9.232
  918POPC   GL216538  23.664  25.458   9.229
  918POPC   C1A16539  23.570  25.131   8.866
  918POPC   D2A16540  23.401  25.445   8.549
  918POPC   C3A16541  23.592  25.438   8.124
  918POPC   C4A16542  23.672  25.032   7.879
  918POPC   C1B16543  23.961  25.485   8.867
  918POPC   C2B16544  23.949  25.669   8.504
  918POPC   C3B16545  24.162  25.540   8.167
  918POPC   C4B16546  23.995  25.458   7.784
  919POPC   NC316547   1.346  28.346   9.710
  919POPC   PO416548   1.195  28.944   9.577
  919POPC   GL116549   1.344  28.652   9.262
  919POPC   GL216550   1.078  28.392   9.209
  919POPC   C1A16551   1.399  28.521   8.824
  919POPC   D2A16552   1.088  28.501   8.509
  919POPC   C3A16553   1.158  28.602   8.089
  919POPC   C4A16554   0.964  28.462   7.716
  919POPC   C1B16555   1.060  28.105   8.830
  919POPC   C2B16556   1.254  28.031   8.394
  919POPC   C3B16557   1.351  28.138   7.939
  919POPC   C4B16558   1.295  28.153   7.458
  920POPC   NC316559  25.972   9.475   9.554
  920POPC   PO416560  26.349   9.990   9.782
  920POPC   GL116561  26.243   9.997   9.313
  920POPC   GL216562  25.907   9.897   9.266
  920POPC   C1A16563  26.212   9.962   8.851
  920POPC   D2A16564  26.126   9.690   8.487
  920POPC   C3A16565  26.180   9.819   8.043
  920POPC   C4A16566  26.184   9.628   7.657
  920POPC   C1B16567  25.685  10.078   8.925
  920POPC   C2B16568  25.777  10.095   8.510
  920POPC   C3B16569  25.706  10.023   8.067
  920POPC   C4B16570  25.952  10.098   7.681
  921POPC   NC316571  18.298   0.071   9.437
  921POPC   PO416572  18.645  44.457   9.408
  921POPC   GL116573  18.348  44.651   9.133
  921POPC   GL216574  18.038  44.504   9.033
  921POPC   C1A16575  18.364  44.752   8.713
  921POPC   D2A16576  18.614  44.612   8.393
  921POPC   C3A16577  18.430  44.782   8.080
  921POPC   C4A16578  18.171  44.703   7.779
  921POPC   C1B16579  17.957  44.303   8.681
  921POPC   C2B16580  18.086  44.508   8.346
  921POPC   C3B16581  18.085  44.300   8.036
  921POPC   C4B16582  17.926  44.153   7.750
  922POPC   NC316583  25.835  29.323   9.483
  922POPC   PO416584  26.478  29.306   9.456
  922POPC   GL116585  26.160  29.083   9.174
  922POPC   GL216586  25.939  28.830   9.355
  922POPC   C1A16587  25.906  29.182   8.812
  922POPC   D2A16588  26.066  29.214   8.395
  922POPC   C3A16589  26.057  28.996   8.030
  922POPC   C4A16590  26.101  29.389   7.848
  922POPC   C1B16591  25.812  28.715   8.941
  922POPC   C2B16592  25.859  28.756   8.498
  922POPC   C3B16593  25.580  28.876   8.195
  922POPC   C4B16594  25.575  28.995   7.780
  923POPC   NC316595   9.469  42.565   9.556
  923POPC   PO416596   9.852  41.990   9.656
  923POPC   GL116597   9.701  42.132   9.231
  923POPC   GL216598   9.480  42.421   9.069
  923POPC   C1A16599   9.809  42.104   8.794
  923POPC   D2A16600   9.827  42.345   8.420
  923POPC   C3A16601   9.617  42.276   8.036
  923POPC   C4A16602   9.710  42.053   7.660
  923POPC   C1B16603   9.860  42.623   8.911
  923POPC   C2B16604  10.023  42.790   8.505
  923POPC   C3B16605   9.984  42.697   8.052
  923POPC   C4B16606   9.902  42.546   7.642
  924POPC   NC316607   1.477  12.105   9.691
  924POPC   PO416608   2.034  12.039   9.697
  924POPC   GL116609   2.122  12.021   9.237
  924POPC   GL216610   1.917  12.304   9.202
  924POPC   C1A16611   2.278  12.049   8.763
  924POPC   D2A16612   2.256  12.364   8.390
  924POPC   C3A16613   2.240  12.252   7.932
  924POPC   C4A16614   2.069  11.987   7.559
  924POPC   C1B16615   1.788  12.190   8.774
  924POPC   C2B16616   1.751  12.250   8.320
  924POPC   C3B16617   1.732  12.198   7.884
  924POPC   C4B16618   1.887  12.465   7.550
  925POPC   NC316619  16.371  35.772   9.370
  925POPC   PO416620  15.756  35.857   9.514
  925POPC   GL116621  15.963  36.001   9.142
  925POPC   GL216622  15.670  36.167   9.104
  925POPC   C1A16623  15.981  36.041   8.690
  925POPC   D2A16624  15.755  35.987   8.313
  925POPC   C3A16625  15.940  36.087   7.928
  925POPC   C4A16626  16.251  36.032   7.579
  925POPC   C1B16627  15.617  36.410   8.788
  925POPC   C2B16628  15.693  36.496   8.406
  925POPC   C3B16629  15.511  36.419   8.033
  925POPC   C4B16630  15.693  36.435   7.642
  926POPC   NC316631  16.157  33.591   9.591
  926POPC   PO416632  15.731  34.106   9.526
  926POPC   GL116633  15.946  33.874   9.206
  926POPC   GL216634  16.287  33.927   9.197
  926POPC   C1A16635  15.932  33.697   8.799
  926POPC   D2A16636  15.780  33.808   8.414
  926POPC   C3A16637  15.956  33.610   8.045
  926POPC   C4A16638  15.809  33.579   7.610
  926POPC   C1B16639  16.354  34.006   8.782
  926POPC   C2B16640  16.276  33.894   8.367
  926POPC   C3B16641  16.099  34.088   8.000
  926POPC   C4B16642  16.033  34.360   7.654
  927POPC   NC316643  35.598  28.826   9.274
  927POPC   PO416644  35.336  29.365   9.675
  927POPC   GL116645  35.337  29.395   9.205
  927POPC   GL216646  35.629  29.323   9.161
  927POPC   C1A16647  35.135  29.394   8.806
  927POPC   D2A16648  35.295  29.430   8.399
  927POPC   C3A16649  35.482  29.053   8.249
  927POPC   C4A16650  35.457  28.892   7.839
  927POPC   C1B16651  35.664  29.284   8.727
  927POPC   C2B16652  35.826  29.404   8.335
  927POPC   C3B16653  35.774  29.297   7.891
  927POPC   C4B16654  35.634  29.481   7.469
  928POPC   NC316655   9.640  35.069   9.427
  928POPC   PO416656   9.574  34.422   9.626
  928POPC   GL116657   9.835  34.547   9.270
  928POPC   GL216658   9.896  34.231   9.159
  928POPC   C1A16659   9.926  34.647   8.842
  928POPC   D2A16660   9.614  34.846   8.535
  928POPC   C3A16661   9.675  34.725   8.094
  928POPC   C4A16662   9.463  34.700   7.722
  928POPC   C1B16663   9.639  34.246   8.807
  928POPC   C2B16664   9.821  34.354   8.409
  928POPC   C3B16665   9.845  34.217   7.982
  928POPC   C4B16666   9.549  34.169   7.672
  929POPC   NC316667  32.763   0.255   9.487
  929POPC   PO416668  32.061   0.410   9.545
  929POPC   GL116669  32.181   0.363   9.136
  929POPC   GL216670  32.435   0.122   9.097
  929POPC   C1A16671  31.908   0.415   8.801
  929POPC   D2A16672  31.812   0.244   8.410
  929POPC   C3A16673  31.876   0.510   8.085
  929POPC   C4A16674  32.058   0.450   7.745
  929POPC   C1B16675  32.248   0.040   8.667
  929POPC   C2B16676  32.305   0.255   8.263
  929POPC   C3B16677  32.488   0.204   7.851
  929POPC   C4B16678  32.600   0.126   7.409
  930POPC   NC316679  21.873  27.436   9.585
  930POPC   PO416680  22.507  27.509   9.575
  930POPC   GL116681  22.295  27.475   9.207
  930POPC   GL216682  21.987  27.665   9.159
  930POPC   C1A16683  22.398  27.561   8.796
  930POPC   D2A16684  22.330  27.390   8.401
  930POPC   C3A16685  22.401  27.571   8.003
  930POPC   C4A16686  22.402  27.412   7.580
  930POPC   C1B16687  21.675  27.658   8.848
  930POPC   C2B16688  21.738  27.845   8.476
  930POPC   C3B16689  21.922  27.642   8.149
  930POPC   C4B16690  21.932  27.578   7.710
  931POPC   NC316691  26.294  39.641   9.464
  931POPC   PO416692  26.308  38.957   9.570
  931POPC   GL116693  26.135  39.049   9.158
  931POPC   GL216694  25.991  39.374   9.142
  931POPC   C1A16695  26.235  39.192   8.700
  931POPC   D2A16696  26.320  38.955   8.300
  931POPC   C3A16697  26.201  39.107   7.883
  931POPC   C4A16698  26.010  39.074   7.458
  931POPC   C1B16699  25.861  39.529   8.726
  931POPC   C2B16700  25.987  39.402   8.286
  931POPC   C3B16701  25.922  39.555   7.856
  931POPC   C4B16702  26.088  39.587   7.442
  932POPC   NC316703  36.295  12.408   9.471
  932POPC   PO416704  36.193  13.108   9.538
  932POPC   GL116705  36.009  12.848   9.264
  932POPC   GL216706  36.345  12.841   9.135
  932POPC   C1A16707  35.951  12.878   8.823
  932POPC   D2A16708  36.080  12.608   8.514
  932POPC   C3A16709  35.886  12.715   8.112
  932POPC   C4A16710  35.921  12.951   7.708
  932POPC   C1B16711  36.392  13.165   8.778
  932POPC   C2B16712  36.305  13.031   8.364
  932POPC   C3B16713  36.377  12.876   7.935
  932POPC   C4B16714  36.385  13.145   7.537
  933POPC   NC316715  44.953  20.484   9.478
  933POPC   PO416716  44.560  20.999   9.295
  933POPC   GL116717  44.679  20.654   9.041
  933POPC   GL216718  44.483  20.360   9.126
  933POPC   C1A16719  44.859  20.401   8.710
  933POPC   D2A16720  44.999  20.435   8.279
  933POPC   C3A16721  44.868  20.656   7.935
  933POPC   C4A16722  44.537  20.685   7.620
  933POPC   C1B16723  44.340  20.425   8.678
  933POPC   C2B16724  44.484  20.406   8.238
  933POPC   C3B16725  44.644  20.204   7.869
  933POPC   C4B16726  44.559  20.193   7.395
  934POPC   NC316727  11.503  34.667   9.494
  934POPC   PO416728  10.825  34.793   9.529
  934POPC   GL116729  11.087  34.699   9.186
  934POPC   GL216730  10.971  34.387   9.136
  934POPC   C1A16731  11.411  34.565   8.837
  934POPC   D2A16732  11.521  34.271   8.485
  934POPC   C3A16733  11.606  34.479   8.096
  934POPC   C4A16734  11.450  34.801   7.843
  934POPC   C1B16735  10.886  34.616   8.741
  934POPC   C2B16736  11.146  34.695   8.380
  934POPC   C3B16737  10.998  34.575   7.986
  934POPC   C4B16738  11.228  34.356   7.717
  935POPC   NC316739  13.181  11.729   9.570
  935POPC   PO416740  12.942  12.342   9.802
  935POPC   GL116741  12.841  12.043   9.360
  935POPC   GL216742  13.179  12.058   9.154
  935POPC   C1A16743  12.650  12.072   8.888
  935POPC   D2A16744  12.612  12.070   8.407
  935POPC   C3A16745  12.872  12.269   8.102
  935POPC   C4A16746  12.946  12.181   7.663
  935POPC   C1B16747  13.115  12.023   8.692
  935POPC   C2B16748  13.128  11.811   8.282
  935POPC   C3B16749  13.110  11.696   7.852
  935POPC   C4B16750  13.216  11.806   7.419
  936POPC   NC316751  42.419  27.932   9.516
  936POPC   PO416752  42.035  27.429   9.597
  936POPC   GL116753  42.094  27.589   9.207
  936POPC   GL216754  42.038  27.934   9.171
  936POPC   C1A16755  42.270  27.429   8.826
  936POPC   D2A16756  42.450  27.677   8.497
  936POPC   C3A16757  42.502  27.463   8.133
  936POPC   C4A16758  42.588  27.568   7.733
  936POPC   C1B16759  42.051  27.883   8.740
  936POPC   C2B16760  41.957  27.618   8.371
  936POPC   C3B16761  42.069  27.653   7.898
  936POPC   C4B16762  42.184  27.392   7.489
  937POPC   NC316763   0.631  34.206   9.431
  937POPC   PO416764   0.070  34.545   9.382
  937POPC   GL116765   0.164  34.683   8.964
  937POPC   GL216766   0.155  34.328   8.893
  937POPC   C1A16767   0.368  34.958   8.640
  937POPC   D2A16768   0.706  34.871   8.343
  937POPC   C3A16769   0.493  34.651   8.011
  937POPC   C4A16770   0.171  34.804   7.722
  937POPC   C1B16771   0.510  34.462   8.616
  937POPC   C2B16772   0.804  34.332   8.291
  937POPC   C3B16773   0.787  34.222   7.855
  937POPC   C4B16774   0.428  34.355   7.594
  938POPC   NC316775  44.050  43.446   9.556
  938POPC   PO416776  43.549  42.984   9.518
  938POPC   GL116777  43.860  43.063   9.232
  938POPC   GL216778  43.939  42.734   9.202
  938POPC   C1A16779  44.123  43.137   8.881
  938POPC   D2A16780  44.315  43.216   8.466
  938POPC   C3A16781  44.071  43.234   8.071
  938POPC   C4A16782  44.322  43.235   7.698
  938POPC   C1B16783  43.983  42.656   8.809
  938POPC   C2B16784  43.886  42.893   8.457
  938POPC   C3B16785  43.921  42.743   8.054
  938POPC   C4B16786  43.803  42.917   7.666
  939POPC   NC316787  16.267   2.611   9.475
  939POPC   PO416788  15.999   3.235   9.524
  939POPC   GL116789  15.954   3.010   9.138
  939POPC   GL216790  16.285   2.947   9.064
  939POPC   C1A16791  15.900   2.736   8.764
  939POPC   D2A16792  15.657   2.721   8.384
  939POPC   C3A16793  15.816   2.643   7.970
  939POPC   C4A16794  15.764   2.854   7.611
  939POPC   C1B16795  16.395   2.849   8.655
  939POPC   C2B16796  16.172   2.807   8.305
  939POPC   C3B16797  16.324   2.659   7.932
  939POPC   C4B16798  16.153   2.530   7.547
  940POPC   NC316799  15.320  16.187   9.417
  940POPC   PO416800  14.874  15.721   9.618
  940POPC   GL116801  14.999  15.791   9.193
  940POPC   GL216802  14.936  15.458   9.149
  940POPC   C1A16803  15.102  16.003   8.769
  940POPC   D2A16804  15.445  15.962   8.458
  940POPC   C3A16805  15.357  15.988   8.035
  940POPC   C4A16806  15.528  15.853   7.675
  940POPC   C1B16807  14.877  15.503   8.754
  940POPC   C2B16808  15.087  15.585   8.389
  940POPC   C3B16809  14.951  15.694   7.988
  940POPC   C4B16810  14.913  16.059   7.686
  941POPC   NC316811  39.609   5.068   9.773
  941POPC   PO416812  38.950   5.008   9.462
  941POPC   GL116813  39.200   5.285   9.182
  941POPC   GL216814  39.545   5.147   9.199
  941POPC   C1A16815  39.347   5.399   8.773
  941POPC   D2A16816  39.335   5.142   8.386
  941POPC   C3A16817  39.336   5.198   7.935
  941POPC   C4A16818  39.093   5.015   7.580
  941POPC   C1B16819  39.486   4.872   8.800
  941POPC   C2B16820  39.514   4.655   8.349
  941POPC   C3B16821  39.402   4.688   7.873
  941POPC   C4B16822  39.509   4.745   7.386
  942POPC   NC316823  22.494  14.473   9.443
  942POPC   PO416824  21.910  14.183   9.322
  942POPC   GL116825  22.175  14.384   9.060
  942POPC   GL216826  22.138  14.732   9.151
  942POPC   C1A16827  22.361  14.519   8.705
  942POPC   D2A16828  22.306  14.627   8.286
  942POPC   C3A16829  22.157  14.274   8.021
  942POPC   C4A16830  22.100  14.172   7.595
  942POPC   C1B16831  21.845  14.632   8.758
  942POPC   C2B16832  21.798  14.484   8.310
  942POPC   C3B16833  21.938  14.756   7.929
  942POPC   C4B16834  22.012  14.706   7.458
  943POPC   NC316835  43.492   7.134   9.567
  943POPC   PO416836  43.958   7.627   9.562
  943POPC   GL116837  43.944   7.368   9.163
  943POPC   GL216838  43.665   7.137   9.083
  943POPC   C1A16839  44.124   7.356   8.732
  943POPC   D2A16840  43.980   7.531   8.350
  943POPC   C3A16841  44.202   7.458   8.000
  943POPC   C4A16842  44.003   7.514   7.558
  943POPC   C1B16843  43.632   7.271   8.664
  943POPC   C2B16844  43.723   7.101   8.276
  943POPC   C3B16845  43.695   7.382   7.939
  943POPC   C4B16846  43.532   7.332   7.528
  944POPC   NC316847  27.675   9.015   9.638
  944POPC   PO416848  27.065   9.045   9.418
  944POPC   GL116849  27.443   8.999   9.167
  944POPC   GL216850  27.824   8.902   9.172
  944POPC   C1A16851  27.507   8.866   8.748
  944POPC   D2A16852  27.591   8.613   8.391
  944POPC   C3A16853  27.399   8.823   8.021
  944POPC   C4A16854  27.381   8.940   7.589
  944POPC   C1B16855  27.976   9.127   8.820
  944POPC   C2B16856  27.905   9.019   8.410
  944POPC   C3B16857  27.917   8.819   8.025
  944POPC   C4B16858  27.785   9.149   7.777
  945POPC   NC316859  21.189  15.281   9.640
  945POPC   PO416860  21.671  14.864   9.363
  945POPC   GL116861  21.453  15.091   9.116
  945POPC   GL216862  21.154  15.019   9.192
  945POPC   C1A16863  21.503  15.054   8.720
  945POPC   D2A16864  21.699  14.955   8.370
  945POPC   C3A16865  21.452  15.080   8.045
  945POPC   C4A16866  21.470  15.490   7.842
  945POPC   C1B16867  21.030  15.200   8.800
  945POPC   C2B16868  21.184  15.350   8.421
  945POPC   C3B16869  21.017  15.375   8.030
  945POPC   C4B16870  21.105  15.157   7.632
  946POPC   NC316871  25.617  23.890   9.629
  946POPC   PO416872  26.263  23.999   9.681
  946POPC   GL116873  26.092  23.849   9.275
  946POPC   GL216874  25.854  23.547   9.258
  946POPC   C1A16875  25.943  24.045   8.884
  946POPC   D2A16876  25.758  23.988   8.491
  946POPC   C3A16877  25.950  23.987   8.107
  946POPC   C4A16878  25.788  24.062   7.733
  946POPC   C1B16879  25.938  23.358   8.824
  946POPC   C2B16880  25.893  23.503   8.407
  946POPC   C3B16881  25.730  23.514   7.995
  946POPC   C4B16882  25.831  23.584   7.550
  947POPC   NC316883   7.202  18.046   9.720
  947POPC   PO416884   7.493  17.436   9.562
  947POPC   GL116885   7.344  17.272   9.191
  947POPC   GL216886   7.693  17.240   9.101
  947POPC   C1A16887   7.320  17.278   8.753
  947POPC   D2A16888   7.488  17.139   8.366
  947POPC   C3A16889   7.227  17.303   8.030
  947POPC   C4A16890   7.240  17.737   7.886
  947POPC   C1B16891   7.755  17.560   8.753
  947POPC   C2B16892   7.940  17.480   8.366
  947POPC   C3B16893   7.730  17.433   8.005
  947POPC   C4B16894   7.786  17.769   7.749
  948POPC   NC316895  40.161   6.654   9.365
  948POPC   PO416896  39.526   6.876   9.336
  948POPC   GL116897  39.893   6.974   9.065
  948POPC   GL216898  39.827   6.673   8.876
  948POPC   C1A16899  40.299   6.827   8.786
  948POPC   D2A16900  40.205   6.608   8.442
  948POPC   C3A16901  40.375   6.695   8.038
  948POPC   C4A16902  40.256   6.869   7.610
  948POPC   C1B16903  39.710   6.307   8.591
  948POPC   C2B16904  39.942   6.238   8.217
  948POPC   C3B16905  39.924   6.545   7.859
  948POPC   C4B16906  40.018   6.435   7.435
  949POPC   NC316907  24.992  28.896   9.429
  949POPC   PO416908  25.227  28.257   9.659
  949POPC   GL116909  25.250  28.473   9.277
  949POPC   GL216910  24.941  28.473   9.094
  949POPC   C1A16911  25.402  28.417   8.861
  949POPC   D2A16912  25.182  28.210   8.563
  949POPC   C3A16913  25.154  28.196   8.104
  949POPC   C4A16914  25.230  28.151   7.655
  949POPC   C1B16915  24.939  28.668   8.731
  949POPC   C2B16916  25.100  28.659   8.320
  949POPC   C3B16917  24.880  28.595   7.967
  949POPC   C4B16918  24.814  28.531   7.563
  950POPC   NC316919   3.094   4.034   9.210
  950POPC   PO416920   2.498   4.274   9.499
  950POPC   GL116921   2.671   4.389   9.105
  950POPC   GL216922   2.898   4.677   9.205
  950POPC   C1A16923   2.731   4.161   8.690
  950POPC   D2A16924   2.985   3.957   8.387
  950POPC   C3A16925   2.893   4.106   7.955
  950POPC   C4A16926   2.711   4.498   7.805
  950POPC   C1B16927   3.036   4.580   8.783
  950POPC   C2B16928   3.011   4.464   8.337
  950POPC   C3B16929   3.192   4.582   7.946
  950POPC   C4B16930   3.117   4.405   7.517
  951POPC   NC316931  13.137  44.903   9.468
  951POPC   PO416932  12.478  44.691   9.484
  951POPC   GL116933  12.685  44.423   9.182
  951POPC   GL216934  13.040  44.343   9.344
  951POPC   C1A16935  12.636  44.584   8.753
  951POPC   D2A16936  12.520  44.867   8.401
  951POPC   C3A16937  12.527  44.640   8.027
  951POPC   C4A16938  12.866  44.553   7.729
  951POPC   C1B16939  13.120  44.434   8.911
  951POPC   C2B16940  13.050  44.571   8.457
  951POPC   C3B16941  13.016  44.886   8.130
  951POPC   C4B16942  13.224  44.922   7.711
  952POPC   NC316943  34.815  13.177   9.415
  952POPC   PO416944  34.408  13.814   9.398
  952POPC   GL116945  34.577  13.544   9.117
  952POPC   GL216946  34.865  13.672   8.957
  952POPC   C1A16947  34.432  13.444   8.720
  952POPC   D2A16948  34.318  13.571   8.338
  952POPC   C3A16949  34.619  13.369   8.083
  952POPC   C4A16950  34.621  13.322   7.670
  952POPC   C1B16951  34.562  13.967   8.752
  952POPC   C2B16952  34.495  14.100   8.324
  952POPC   C3B16953  34.512  13.863   7.943
  952POPC   C4B16954  34.286  13.741   7.591
  953POPC   NC316955   6.659  42.075   9.304
  953POPC   PO416956   6.314  42.629   9.425
  953POPC   GL116957   6.631  42.625   9.074
  953POPC   GL216958   6.953  42.419   9.026
  953POPC   C1A16959   6.695  42.619   8.609
  953POPC   D2A16960   6.611  42.320   8.294
  953POPC   C3A16961   6.762  42.443   7.918
  953POPC   C4A16962   6.373  42.450   7.682
  953POPC   C1B16963   6.839  42.098   8.698
  953POPC   C2B16964   6.801  41.837   8.324
  953POPC   C3B16965   6.640  41.946   7.910
  953POPC   C4B16966   6.710  42.122   7.517
  954POPC   NC316967  33.778  27.888   9.450
  954POPC   PO416968  33.883  28.412   9.577
  954POPC   GL116969  33.849  28.538   9.161
  954POPC   GL216970  33.688  28.241   9.065
  954POPC   C1A16971  33.826  28.596   8.690
  954POPC   D2A16972  33.685  28.431   8.262
  954POPC   C3A16973  33.928  28.373   7.868
  954POPC   C4A16974  33.880  28.160   7.453
  954POPC   C1B16975  33.530  28.133   8.660
  954POPC   C2B16976  33.677  27.920   8.295
  954POPC   C3B16977  33.583  27.985   7.858
  954POPC   C4B16978  33.382  28.260   7.548
  955POPC   NC316979   8.248  40.481   9.657
  955POPC   PO416980   7.827  40.012   9.265
  955POPC   GL116981   8.030  39.849   8.951
  955POPC   GL216982   8.132  40.124   8.784
  955POPC   C1A16983   7.793  39.732   8.641
  955POPC   D2A16984   7.875  40.016   8.366
  955POPC   C3A16985   8.105  39.955   8.025
  955POPC   C4A16986   8.124  40.245   7.706
  955POPC   C1B16987   8.363  39.873   8.533
  955POPC   C2B16988   8.671  39.889   8.245
  955POPC   C3B16989   8.589  40.156   7.917
  955POPC   C4B16990   8.529  40.088   7.465
  956POPC   NC316991  16.520  35.028   9.807
  956POPC   PO416992  16.792  35.515   9.374
  956POPC   GL116993  16.813  35.393   8.979
  956POPC   GL216994  16.470  35.513   8.935
  956POPC   C1A16995  16.804  35.299   8.567
  956POPC   D2A16996  16.763  35.598   8.302
  956POPC   C3A16997  16.864  35.391   7.940
  956POPC   C4A16998  16.981  35.086   7.659
  956POPC   C1B16999  16.292  35.210   8.653
  956POPC   C2B17000  16.375  35.263   8.206
  956POPC   C3B17001  16.451  35.117   7.805
  956POPC   C4B17002  16.540  35.467   7.517
  957POPC   NC317003   7.939   4.398   9.547
  957POPC   PO417004   8.563   3.992   9.462
  957POPC   GL117005   8.194   4.106   9.196
  957POPC   GL217006   8.291   4.431   9.140
  957POPC   C1A17007   7.970   4.286   8.797
  957POPC   D2A17008   8.124   4.421   8.403
  957POPC   C3A17009   8.037   4.205   8.036
  957POPC   C4A17010   7.933   4.398   7.689
  957POPC   C1B17011   8.515   4.361   8.754
  957POPC   C2B17012   8.656   4.439   8.327
  957POPC   C3B17013   8.426   4.531   7.941
  957POPC   C4B17014   8.398   4.439   7.503
  958POPC   NC317015  43.357   3.358   9.393
  958POPC   PO417016  42.702   3.607   9.442
  958POPC   GL117017  42.986   3.594   9.093
  958POPC   GL217018  43.279   3.810   9.119
  958POPC   C1A17019  42.950   3.651   8.656
  958POPC   D2A17020  42.647   3.684   8.323
  958POPC   C3A17021  42.928   3.597   8.036
  958POPC   C4A17022  43.100   3.184   7.895
  958POPC   C1B17023  43.463   3.699   8.714
  958POPC   C2B17024  43.362   3.747   8.288
  958POPC   C3B17025  43.398   3.609   7.879
  958POPC   C4B17026  43.383   3.798   7.515
  959POPC   NC317027  21.055  26.934   9.302
  959POPC   PO417028  21.624  27.048   9.663
  959POPC   GL117029  21.549  26.943   9.198
  959POPC   GL217030  21.613  26.598   9.038
  959POPC   C1A17031  21.522  27.026   8.769
  959POPC   D2A17032  21.297  26.943   8.412
  959POPC   C3A17033  21.479  27.032   8.032
  959POPC   C4A17034  21.335  27.042   7.620
  959POPC   C1B17035  21.233  26.558   8.790
  959POPC   C2B17036  21.121  26.403   8.404
  959POPC   C3B17037  21.236  26.573   8.022
  959POPC   C4B17038  21.566  26.593   7.697
  960POPC   NC317039   3.223   9.354   9.538
  960POPC   PO417040   3.142  10.054   9.610
  960POPC   GL117041   2.840   9.860   9.330
  960POPC   GL217042   3.011   9.611   9.163
  960POPC   C1A17043   2.728   9.882   8.846
  960POPC   D2A17044   2.661   9.995   8.378
  960POPC   C3A17045   3.009  10.032   8.099
  960POPC   C4A17046   3.028   9.786   7.768
  960POPC   C1B17047   3.030   9.433   8.756
  960POPC   C2B17048   2.988   9.570   8.327
  960POPC   C3B17049   2.943   9.319   7.959
  960POPC   C4B17050   2.918   9.351   7.527
  961POPC   NC317051  18.003  33.852   9.460
  961POPC   PO417052  18.508  33.537   9.037
  961POPC   GL117053  18.173  33.760   8.993
  961POPC   GL217054  18.364  34.057   9.161
  961POPC   C1A17055  17.962  33.528   8.696
  961POPC   D2A17056  18.104  33.332   8.345
  961POPC   C3A17057  18.081  33.627   8.002
  961POPC   C4A17058  18.467  33.705   7.764
  961POPC   C1B17059  18.086  34.237   8.870
  961POPC   C2B17060  18.061  34.275   8.436
  961POPC   C3B17061  18.290  34.152   8.062
  961POPC   C4B17062  18.120  34.064   7.682
  962POPC   NC317063  29.463  11.701   9.812
  962POPC   PO417064  29.474  12.307   9.555
  962POPC   GL117065  29.141  12.224   9.178
  962POPC   GL217066  29.154  11.903   9.026
  962POPC   C1A17067  28.840  12.239   8.770
  962POPC   D2A17068  28.865  11.960   8.377
  962POPC   C3A17069  28.905  12.132   7.995
  962POPC   C4A17070  28.863  11.913   7.634
  962POPC   C1B17071  29.344  12.167   8.717
  962POPC   C2B17072  29.200  12.360   8.361
  962POPC   C3B17073  29.395  12.281   7.970
  962POPC   C4B17074  29.364  11.999   7.650
  963POPC   NC317075   0.810   8.266   9.546
  963POPC   PO417076   1.455   8.192   9.411
  963POPC   GL117077   1.371   8.151   8.980
  963POPC   GL217078   1.026   8.164   9.023
  963POPC   C1A17079   1.388   8.456   8.635
  963POPC   D2A17080   1.459   8.432   8.182
  963POPC   C3A17081   1.243   8.129   7.974
  963POPC   C4A17082   0.928   8.246   7.739
  963POPC   C1B17083   1.063   8.053   8.574
  963POPC   C2B17084   0.795   8.073   8.219
  963POPC   C3B17085   0.677   7.826   7.891
  963POPC   C4B17086   0.857   7.773   7.523
  964POPC   NC317087  19.457   4.299   9.466
  964POPC   PO417088  18.831   4.593   9.554
  964POPC   GL117089  19.041   4.435   9.165
  964POPC   GL217090  18.953   4.101   9.000
  964POPC   C1A17091  19.251   4.416   8.751
  964POPC   D2A17092  19.150   4.294   8.307
  964POPC   C3A17093  19.385   4.540   7.976
  964POPC   C4A17094  19.481   4.384   7.521
  964POPC   C1B17095  18.730   4.356   8.730
  964POPC   C2B17096  18.591   4.308   8.351
  964POPC   C3B17097  18.744   4.188   8.010
  964POPC   C4B17098  19.053   4.235   7.762
  965POPC   NC317099  22.469   0.353   9.428
  965POPC   PO417100  21.912   0.255   9.332
  965POPC   GL117101  22.114   0.382   8.987
  965POPC   GL217102  22.435   0.260   8.930
  965POPC   C1A17103  21.996   0.404   8.555
  965POPC   D2A17104  22.218   0.466   8.181
  965POPC   C3A17105  22.040   0.421   7.797
  965POPC   C4A17106  22.065   0.715   7.474
  965POPC   C1B17107  22.427   0.671   8.682
  965POPC   C2B17108  22.514   0.876   8.280
  965POPC   C3B17109  22.486   0.777   7.829
  965POPC   C4B17110  22.513   0.440   7.518
  966POPC   NC317111  35.569  30.491   9.438
  966POPC   PO417112  35.384  31.109   9.427
  966POPC   GL117113  35.292  30.820   9.063
  966POPC   GL217114  35.566  30.566   8.935
  966POPC   C1A17115  35.351  30.881   8.598
  966POPC   D2A17116  35.652  30.587   8.383
  966POPC   C3A17117  35.713  30.766   7.984
  966POPC   C4A17118  35.371  30.936   7.758
  966POPC   C1B17119  35.167  30.437   8.742
  966POPC   C2B17120  35.054  30.173   8.396
  966POPC   C3B17121  35.329  30.230   8.052
  966POPC   C4B17122  35.464  30.432   7.685
  967POPC   NC317123  33.166   7.721   9.653
  967POPC   PO417124  33.156   7.037   9.546
  967POPC   GL117125  33.023   7.231   9.155
  967POPC   GL217126  32.780   6.997   9.007
  967POPC   C1A17127  32.916   7.475   8.768
  967POPC   D2A17128  32.797   7.635   8.337
  967POPC   C3A17129  33.018   7.544   7.931
  967POPC   C4A17130  33.147   7.853   7.593
  967POPC   C1B17131  33.129   7.034   8.659
  967POPC   C2B17132  33.331   7.174   8.251
  967POPC   C3B17133  33.268   7.109   7.838
  967POPC   C4B17134  32.872   7.113   7.616
  968POPC   NC317135  40.173  14.761   9.407
  968POPC   PO417136  39.690  14.281   9.391
  968POPC   GL117137  39.852  14.497   9.080
  968POPC   GL217138  40.161  14.371   8.993
  968POPC   C1A17139  39.791  14.573   8.670
  968POPC   D2A17140  39.499  14.632   8.369
  968POPC   C3A17141  39.697  14.673   7.971
  968POPC   C4A17142  39.912  14.329   7.736
  968POPC   C1B17143  40.043  14.113   8.603
  968POPC   C2B17144  40.099  14.035   8.135
  968POPC   C3B17145  40.321  14.011   7.730
  968POPC   C4B17146  40.471  14.370   7.443
  969POPC   NC317147  22.676  42.020   9.761
  969POPC   PO417148  23.063  42.519   9.496
  969POPC   GL117149  23.086  42.367   9.090
  969POPC   GL217150  23.236  42.033   9.201
  969POPC   C1A17151  22.955  42.315   8.667
  969POPC   D2A17152  22.712  42.123   8.367
  969POPC   C3A17153  22.658  42.310   7.966
  969POPC   C4A17154  22.582  42.294   7.491
  969POPC   C1B17155  23.146  41.873   8.797
  969POPC   C2B17156  23.242  41.959   8.388
  969POPC   C3B17157  23.040  41.931   8.016
  969POPC   C4B17158  23.065  42.189   7.687
  970POPC   NC317159   8.793  22.205   9.527
  970POPC   PO417160   9.364  22.364   9.501
  970POPC   GL117161   9.093  22.136   9.126
  970POPC   GL217162   8.715  22.165   9.045
  970POPC   C1A17163   8.990  21.984   8.668
  970POPC   D2A17164   8.994  22.128   8.242
  970POPC   C3A17165   9.169  21.939   7.868
  970POPC   C4A17166   8.989  21.554   7.645
  970POPC   C1B17167   8.523  22.304   8.663
  970POPC   C2B17168   8.512  22.308   8.245
  970POPC   C3B17169   8.710  22.420   7.908
  970POPC   C4B17170   8.900  22.408   7.515
  971POPC   NC317171  16.573  42.932   9.622
  971POPC   PO417172  17.025  43.314   9.407
  971POPC   GL117173  16.852  43.041   9.115
  971POPC   GL217174  16.517  42.889   9.081
  971POPC   C1A17175  16.843  43.240   8.714
  971POPC   D2A17176  16.978  43.092   8.307
  971POPC   C3A17177  16.730  43.306   7.990
  971POPC   C4A17178  16.895  43.598   7.710
  971POPC   C1B17179  16.766  42.745   8.678
  971POPC   C2B17180  16.769  42.531   8.268
  971POPC   C3B17181  16.765  42.806   7.916
  971POPC   C4B17182  16.368  42.956   7.722
  972POPC   NC317183  15.335  36.034   9.508
  972POPC   PO417184  14.763  35.945   9.222
  972POPC   GL117185  15.172  35.870   9.070
  972POPC   GL217186  15.176  36.226   9.037
  972POPC   C1A17187  15.473  35.858   8.758
  972POPC   D2A17188  15.304  36.145   8.478
  972POPC   C3A17189  15.250  35.967   8.105
  972POPC   C4A17190  15.334  36.062   7.707
  972POPC   C1B17191  14.967  36.468   8.715
  972POPC   C2B17192  15.080  36.565   8.282
  972POPC   C3B17193  14.974  36.380   7.900
  972POPC   C4B17194  15.075  36.488   7.486
  973POPC   NC317195  39.102  24.226   9.929
  973POPC   PO417196  39.386  24.831   9.754
  973POPC   GL117197  39.307  24.560   9.319
  973POPC   GL217198  39.248  24.201   9.236
  973POPC   C1A17199  39.071  24.581   8.896
  973POPC   D2A17200  39.085  24.815   8.465
  973POPC   C3A17201  39.209  24.556   8.080
  973POPC   C4A17202  38.897  24.354   7.816
  973POPC   C1B17203  39.532  24.320   8.892
  973POPC   C2B17204  39.688  24.242   8.484
  973POPC   C3B17205  39.622  23.987   8.152
  973POPC   C4B17206  39.367  24.111   7.795
  974POPC   NC317207   2.534  44.723   9.579
  974POPC   PO417208   3.061  44.380   9.274
  974POPC   GL117209   2.672  44.503   9.078
  974POPC   GL217210   2.634  44.850   9.102
  974POPC   C1A17211   2.680  44.468   8.664
  974POPC   D2A17212   2.759  44.835   8.475
  974POPC   C3A17213   2.971  44.724   8.131
  974POPC   C4A17214   2.760  44.702   7.768
  974POPC   C1B17215   2.317  44.791   8.777
  974POPC   C2B17216   2.251  44.984   8.383
  974POPC   C3B17217   2.337  44.931   7.963
  974POPC   C4B17218   2.410  44.972   7.506
  975POPC   NC317219  24.265  27.308   9.410
  975POPC   PO417220  24.892  27.670   9.449
  975POPC   GL117221  24.670  27.577   9.051
  975POPC   GL217222  24.326  27.563   8.975
  975POPC   C1A17223  24.655  27.280   8.694
  975POPC   D2A17224  24.798  27.348   8.278
  975POPC   C3A17225  24.562  27.646   8.054
  975POPC   C4A17226  24.555  27.548   7.633
  975POPC   C1B17227  24.404  27.764   8.591
  975POPC   C2B17228  24.156  27.877   8.246
  975POPC   C3B17229  24.192  27.880   7.785
  975POPC   C4B17230  24.152  27.757   7.381
  976POPC   NC317231  18.448  26.177   9.500
  976POPC   PO417232  18.010  25.704   9.480
  976POPC   GL117233  18.163  25.949   9.145
  976POPC   GL217234  18.529  25.875   9.117
  976POPC   C1A17235  18.031  26.264   8.825
  976POPC   D2A17236  18.201  26.518   8.515
  976POPC   C3A17237  18.264  26.242   8.170
  976POPC   C4A17238  18.330  26.144   7.751
  976POPC   C1B17239  18.428  25.970   8.720
  976POPC   C2B17240  18.579  25.923   8.397
  976POPC   C3B17241  18.522  25.766   8.019
  976POPC   C4B17242  18.666  25.777   7.613
  977POPC   NC317243  22.044  15.796   9.703
  977POPC   PO417244  21.622  16.152   9.388
  977POPC   GL117245  21.894  15.833   9.201
  977POPC   GL217246  22.230  15.923   9.225
  977POPC   C1A17247  21.977  15.866   8.764
  977POPC   D2A17248  22.135  15.692   8.369
  977POPC   C3A17249  21.927  15.764   7.960
  977POPC   C4A17250  22.275  15.594   7.729
  977POPC   C1B17251  22.333  16.203   8.885
  977POPC   C2B17252  22.258  16.188   8.430
  977POPC   C3B17253  22.355  16.036   8.003
  977POPC   C4B17254  22.422  16.158   7.561
  978POPC   NC317255  15.853  44.148   9.579
  978POPC   PO417256  16.203  43.509   9.645
  978POPC   GL117257  16.136  43.824   9.251
  978POPC   GL217258  16.022  44.214   9.120
  978POPC   C1A17259  15.985  43.781   8.842
  978POPC   D2A17260  16.040  44.035   8.494
  978POPC   C3A17261  15.933  43.831   8.142
  978POPC   C4A17262  16.071  43.811   7.757
  978POPC   C1B17263  15.722  44.298   8.801
  978POPC   C2B17264  15.549  44.243   8.360
  978POPC   C3B17265  15.733  44.238   7.920
  978POPC   C4B17266  15.809  44.130   7.447
  979POPC   NC317267   6.384  37.470   9.710
  979POPC   PO417268   6.735  37.995   9.811
  979POPC   GL117269   6.521  37.959   9.406
  979POPC   GL217270   6.600  37.609   9.266
  979POPC   C1A17271   6.383  37.932   8.965
  979POPC   D2A17272   6.332  37.610   8.676
  979POPC   C3A17273   6.337  37.755   8.252
  979POPC   C4A17274   6.600  37.837   7.881
  979POPC   C1B17275   6.880  37.837   8.939
  979POPC   C2B17276   7.147  37.736   8.572
  979POPC   C3B17277   7.072  37.687   8.112
  979POPC   C4B17278   7.011  37.550   7.682
  980POPC   NC317279  44.913  29.629   9.405
  980POPC   PO417280  44.414  29.773   9.837
  980POPC   GL117281  44.471  29.857   9.327
  980POPC   GL217282  44.619  30.180   9.258
  980POPC   C1A17283  44.499  29.682   8.886
  980POPC   D2A17284  44.722  29.638   8.492
  980POPC   C3A17285  44.453  29.733   8.155
  980POPC   C4A17286  44.607  29.737   7.751
  980POPC   C1B17287  44.746  30.115   8.841
  980POPC   C2B17288  44.638  30.131   8.429
  980POPC   C3B17289  44.850  30.086   8.063
  980POPC   C4B17290  44.810  30.185   7.627
  981POPC   NC317291  22.534  18.947   9.754
  981POPC   PO417292  23.030  18.851   9.572
  981POPC   GL117293  22.892  19.111   9.180
  981POPC   GL217294  23.126  19.352   9.016
  981POPC   C1A17295  22.787  19.113   8.703
  981POPC   D2A17296  22.658  18.825   8.367
  981POPC   C3A17297  22.781  18.845   7.933
  981POPC   C4A17298  22.842  19.193   7.647
  981POPC   C1B17299  23.276  19.241   8.587
  981POPC   C2B17300  23.183  18.941   8.257
  981POPC   C3B17301  23.278  18.937   7.816
  981POPC   C4B17302  23.483  18.893   7.404
  982POPC   NC317303  31.744  15.205   9.423
  982POPC   PO417304  31.072  15.075   9.619
  982POPC   GL117305  31.236  15.163   9.162
  982POPC   GL217306  31.520  14.966   9.035
  982POPC   C1A17307  31.402  15.334   8.714
  982POPC   D2A17308  31.233  15.235   8.284
  982POPC   C3A17309  31.379  15.182   7.850
  982POPC   C4A17310  31.618  15.221   7.470
  982POPC   C1B17311  31.380  14.832   8.619
  982POPC   C2B17312  31.353  14.684   8.208
  982POPC   C3B17313  31.113  14.751   7.860
  982POPC   C4B17314  31.219  14.903   7.397
  983POPC   NC317315  16.984   6.891   9.455
  983POPC   PO417316  16.322   6.683   9.439
  983POPC   GL117317  16.576   6.840   9.140
  983POPC   GL217318  16.735   6.512   9.135
  983POPC   C1A17319  16.815   6.909   8.775
  983POPC   D2A17320  16.649   6.876   8.383
  983POPC   C3A17321  16.849   6.790   8.034
  983POPC   C4A17322  16.824   6.700   7.599
  983POPC   C1B17323  16.456   6.513   8.758
  983POPC   C2B17324  16.422   6.417   8.320
  983POPC   C3B17325  16.566   6.363   7.913
  983POPC   C4B17326  16.418   6.416   7.487
  984POPC   NC317327  30.016  23.026   9.715
  984POPC   PO417328  29.424  23.060   9.516
  984POPC   GL117329  29.723  22.851   9.210
  984POPC   GL217330  30.056  22.968   9.215
  984POPC   C1A17331  29.972  22.597   8.900
  984POPC   D2A17332  30.145  22.686   8.524
  984POPC   C3A17333  29.950  22.629   8.137
  984POPC   C4A17334  29.982  22.799   7.747
  984POPC   C1B17335  29.966  23.091   8.768
  984POPC   C2B17336  30.034  23.123   8.283
  984POPC   C3B17337  29.916  23.284   7.849
  984POPC   C4B17338  29.997  23.213   7.384
  985POPC   NC317339  41.905  34.493   9.402
  985POPC   PO417340  42.491  34.842   9.629
  985POPC   GL117341  42.381  34.497   9.206
  985POPC   GL217342  42.121  34.603   8.959
  985POPC   C1A17343  42.500  34.361   8.752
  985POPC   D2A17344  42.445  34.722   8.453
  985POPC   C3A17345  42.436  34.761   7.997
  985POPC   C4A17346  42.583  34.415   7.786
  985POPC   C1B17347  42.014  34.926   8.661
  985POPC   C2B17348  42.010  34.900   8.252
  985POPC   C3B17349  42.082  35.141   7.931
  985POPC   C4B17350  42.294  34.986   7.548
  986POPC   NC317351  32.719  37.279   9.394
  986POPC   PO417352  33.135  36.820   9.745
  986POPC   GL117353  33.107  36.611   9.296
  986POPC   GL217354  33.107  36.941   9.199
  986POPC   C1A17355  33.224  36.579   8.838
  986POPC   D2A17356  32.967  36.583   8.449
  986POPC   C3A17357  32.918  36.740   8.038
  986POPC   C4A17358  32.915  36.847   7.608
  986POPC   C1B17359  32.926  37.005   8.778
  986POPC   C2B17360  33.072  37.104   8.354
  986POPC   C3B17361  32.876  37.254   7.955
  986POPC   C4B17362  33.036  37.330   7.527
  987POPC   NC317363  16.014  30.347   9.439
  987POPC   PO417364  15.676  30.996   9.511
  987POPC   GL117365  16.023  30.826   9.266
  987POPC   GL217366  15.810  30.839   9.003
  987POPC   C1A17367  16.271  30.668   8.878
  987POPC   D2A17368  16.055  30.748   8.485
  987POPC   C3A17369  16.213  30.646   8.102
  987POPC   C4A17370  15.915  30.873   7.882
  987POPC   C1B17371  15.820  30.430   8.810
  987POPC   C2B17372  15.863  30.243   8.424
  987POPC   C3B17373  15.828  30.308   8.006
  987POPC   C4B17374  15.647  30.455   7.674
  988POPC   NC317375  13.791  34.120   9.330
  988POPC   PO417376  13.720  34.859   9.448
  988POPC   GL117377  13.757  34.774   9.021
  988POPC   GL217378  13.636  34.433   8.975
  988POPC   C1A17379  13.532  34.761   8.620
  988POPC   D2A17380  13.525  34.423   8.352
  988POPC   C3A17381  13.388  34.553   7.961
  988POPC   C4A17382  13.651  34.788   7.675
  988POPC   C1B17383  14.004  34.278   8.752
  988POPC   C2B17384  13.967  34.146   8.356
  988POPC   C3B17385  13.899  34.391   7.991
  988POPC   C4B17386  14.076  34.259   7.627
  989POPC   NC317387  10.107  23.237   9.291
  989POPC   PO417388  10.752  23.545   9.428
  989POPC   GL117389  10.474  23.599   9.109
  989POPC   GL217390  10.455  23.943   9.070
  989POPC   C1A17391  10.366  23.599   8.678
  989POPC   D2A17392  10.351  23.409   8.268
  989POPC   C3A17393  10.521  23.688   7.971
  989POPC   C4A17394  10.892  23.762   7.815
  989POPC   C1B17395  10.726  23.967   8.699
  989POPC   C2B17396  10.818  24.068   8.259
  989POPC   C3B17397  10.647  24.194   7.837
  989POPC   C4B17398  10.562  23.931   7.455
  990POPC   NC317399  39.746  41.898   9.566
  990POPC   PO417400  40.190  42.379   9.355
  990POPC   GL117401  39.856  42.266   9.140
  990POPC   GL217402  39.877  41.883   9.085
  990POPC   C1A17403  39.831  42.529   8.769
  990POPC   D2A17404  40.226  42.519   8.515
  990POPC   C3A17405  40.138  42.597   8.080
  990POPC   C4A17406  39.819  42.431   7.819
  990POPC   C1B17407  40.027  42.063   8.711
  990POPC   C2B17408  39.863  42.211   8.344
  990POPC   C3B17409  39.965  41.987   8.031
  990POPC   C4B17410  39.827  41.965   7.619
  991POPC   NC317411   5.032  31.745   9.594
  991POPC   PO417412   5.445  31.366   9.323
  991POPC   GL117413   5.332  31.688   9.101
  991POPC   GL217414   4.957  31.657   9.090
  991POPC   C1A17415   5.330  31.599   8.669
  991POPC   D2A17416   5.265  31.358   8.318
  991POPC   C3A17417   5.192  31.611   7.975
  991POPC   C4A17418   5.071  31.723   7.542
  991POPC   C1B17419   4.812  31.538   8.664
  991POPC   C2B17420   4.733  31.363   8.248
  991POPC   C3B17421   4.784  31.365   7.812
  991POPC   C4B17422   4.642  31.469   7.452
  992POPC   NC317423  22.491  26.224   9.421
  992POPC   PO417424  21.897  26.117   9.612
  992POPC   GL117425  22.007  26.258   9.216
  992POPC   GL217426  22.159  25.952   9.139
  992POPC   C1A17427  21.985  26.273   8.776
  992POPC   D2A17428  22.164  26.384   8.377
  992POPC   C3A17429  21.997  26.235   7.991
  992POPC   C4A17430  22.315  26.172   7.709
  992POPC   C1B17431  22.345  25.912   8.766
  992POPC   C2B17432  22.540  25.979   8.391
  992POPC   C3B17433  22.319  25.823   8.078
  992POPC   C4B17434  22.253  25.670   7.680
  993POPC   NC317435  29.191   1.430   9.455
  993POPC   PO417436  29.197   2.085   9.619
  993POPC   GL117437  29.089   1.998   9.155
  993POPC   GL217438  29.249   1.706   9.018
  993POPC   C1A17439  28.921   2.053   8.720
  993POPC   D2A17440  29.210   1.951   8.389
  993POPC   C3A17441  29.028   2.003   8.003
  993POPC   C4A17442  29.051   2.335   7.747
  993POPC   C1B17443  28.919   1.528   8.722
  993POPC   C2B17444  28.952   1.510   8.241
  993POPC   C3B17445  29.362   1.605   8.015
  993POPC   C4B17446  29.446   1.908   7.685
  994POPC   NC317447  32.439  32.944   9.578
  994POPC   PO417448  31.915  33.339   9.243
  994POPC   GL117449  32.261  33.104   9.110
  994POPC   GL217450  32.173  32.753   9.175
  994POPC   C1A17451  32.187  32.936   8.695
  994POPC   D2A17452  31.972  32.783   8.382
  994POPC   C3A17453  32.049  33.118   8.104
  994POPC   C4A17454  32.198  33.022   7.728
  994POPC   C1B17455  32.382  32.471   8.880
  994POPC   C2B17456  32.494  32.573   8.460
  994POPC   C3B17457  32.401  32.700   8.079
  994POPC   C4B17458  32.333  32.467   7.720
  995POPC   NC317459  29.779  12.631   9.621
  995POPC   PO417460  30.214  12.954   9.371
  995POPC   GL117461  29.899  12.800   9.154
  995POPC   GL217462  30.083  12.492   9.176
  995POPC   C1A17463  29.850  12.860   8.737
  995POPC   D2A17464  30.027  12.677   8.393
  995POPC   C3A17465  29.803  12.725   8.053
  995POPC   C4A17466  29.558  12.687   7.721
  995POPC   C1B17467  30.327  12.468   8.790
  995POPC   C2B17468  30.521  12.530   8.379
  995POPC   C3B17469  30.321  12.541   7.999
  995POPC   C4B17470  30.078  12.616   7.641
  996POPC   NC317471   5.634   5.435   9.430
  996POPC   PO417472   6.159   4.954   9.609
  996POPC   GL117473   6.003   5.032   9.165
  996POPC   GL217474   5.642   5.008   9.117
  996POPC   C1A17475   5.877   5.251   8.756
  996POPC   D2A17476   5.896   5.063   8.345
  996POPC   C3A17477   5.747   5.207   7.956
  996POPC   C4A17478   5.983   5.114   7.620
  996POPC   C1B17479   5.641   4.788   8.743
  996POPC   C2B17480   5.771   4.571   8.385
  996POPC   C3B17481   5.630   4.672   7.966
  996POPC   C4B17482   5.498   4.895   7.595
  997POPC   NC317483  38.206  16.952   9.459
  997POPC   PO417484  38.832  16.563   9.547
  997POPC   GL117485  38.665  16.843   9.230
  997POPC   GL217486  38.418  16.571   9.168
  997POPC   C1A17487  38.393  16.922   8.833
  997POPC   D2A17488  38.256  16.715   8.477
  997POPC   C3A17489  38.451  16.846   8.099
  997POPC   C4A17490  38.286  17.044   7.767
  997POPC   C1B17491  38.744  16.534   8.829
  997POPC   C2B17492  38.816  16.630   8.399
  997POPC   C3B17493  38.780  16.476   7.964
  997POPC   C4B17494  38.693  16.767   7.615
  998POPC   NC317495  31.965   8.603   9.397
  998POPC   PO417496  32.603   8.835   9.443
  998POPC   GL117497  32.329   8.832   9.128
  998POPC   GL217498  32.082   9.100   9.243
  998POPC   C1A17499  32.402   8.891   8.715
  998POPC   D2A17500  32.415   9.141   8.392
  998POPC   C3A17501  32.366   8.918   8.057
  998POPC   C4A17502  32.182   8.603   7.840
  998POPC   C1B17503  32.135   9.315   8.846
  998POPC   C2B17504  32.027   9.465   8.386
  998POPC   C3B17505  32.102   9.348   7.897
  998POPC   C4B17506  31.989   9.331   7.421
  999POPC   NC317507  14.907  14.332   9.622
  999POPC   PO417508  14.259  14.465   9.469
  999POPC   GL117509  14.299  14.332   9.084
  999POPC   GL217510  14.644  14.351   9.102
  999POPC   C1A17511  14.398  14.519   8.693
  999POPC   D2A17512  14.305  14.385   8.297
  999POPC   C3A17513  14.246  14.626   7.935
  999POPC   C4A17514  14.348  14.480   7.533
  999POPC   C1B17515  14.870  14.291   8.703
  999POPC   C2B17516  14.870  14.549   8.335
  999POPC   C3B17517  14.738  14.579   7.919
  999POPC   C4B17518  14.840  14.403   7.542
 1000POPC   NC317519  18.604  36.364   9.527
 1000POPC   PO417520  18.134  35.764   9.493
 1000POPC   GL117521  18.335  35.832   9.097
 1000POPC   GL217522  18.461  36.179   9.056
 1000POPC   C1A17523  18.144  35.852   8.695
 1000POPC   D2A17524  17.990  35.640   8.315
 1000POPC   C3A17525  18.259  35.786   8.011
 1000POPC   C4A17526  18.176  36.151   7.820
 1000POPC   C1B17527  18.457  36.386   8.657
 1000POPC   C2B17528  18.481  36.389   8.190
 1000POPC   C3B17529  18.754  36.404   7.819
 1000POPC   C4B17530  18.629  35.984   7.663
 1001POPC   NC317531  33.731  19.494   9.774
 1001POPC   PO417532  34.372  19.396   9.549
 1001POPC   GL117533  34.024  19.244   9.281
 1001POPC   GL217534  33.677  19.386   9.267
 1001POPC   C1A17535  34.047  19.048   8.870
 1001POPC   D2A17536  34.187  18.847   8.494
 1001POPC   C3A17537  33.883  18.908   8.176
 1001POPC   C4A17538  33.954  19.078   7.793
 1001POPC   C1B17539  33.566  19.247   8.845
 1001POPC   C2B17540  33.522  19.216   8.404
 1001POPC   C3B17541  33.460  19.158   7.957
 1001POPC   C4B17542  33.457  18.774   7.758
 1002POPC   NC317543  39.512  37.157   9.501
 1002POPC   PO417544  38.988  37.602   9.714
 1002POPC   GL117545  39.361  37.577   9.292
 1002POPC   GL217546  39.294  37.296   9.034
 1002POPC   C1A17547  39.389  37.776   8.866
 1002POPC   D2A17548  39.376  37.517   8.485
 1002POPC   C3A17549  39.261  37.756   8.115
 1002POPC   C4A17550  39.083  37.897   7.725
 1002POPC   C1B17551  39.574  37.075   8.752
 1002POPC   C2B17552  39.903  37.195   8.470
 1002POPC   C3B17553  39.754  37.472   8.137
 1002POPC   C4B17554  39.583  37.630   7.733
 1003POPC   NC317555  26.580  32.013   9.530
 1003POPC   PO417556  27.059  32.365   9.448
 1003POPC   GL117557  26.750  32.322   9.143
 1003POPC   GL217558  26.767  31.951   9.065
 1003POPC   C1A17559  26.817  32.469   8.742
 1003POPC   D2A17560  27.076  32.342   8.397
 1003POPC   C3A17561  26.947  32.429   7.982
 1003POPC   C4A17562  26.656  32.521   7.662
 1003POPC   C1B17563  27.113  32.008   8.804
 1003POPC   C2B17564  27.229  31.859   8.396
 1003POPC   C3B17565  27.111  31.944   7.996
 1003POPC   C4B17566  26.901  32.077   7.633
 1004POPC   NC317567  28.654  19.043   9.429
 1004POPC   PO417568  29.194  18.723   9.458
 1004POPC   GL117569  29.180  18.953   9.078
 1004POPC   GL217570  28.879  19.140   8.973
 1004POPC   C1A17571  29.360  19.109   8.677
 1004POPC   D2A17572  29.496  19.247   8.236
 1004POPC   C3A17573  29.188  19.202   7.897
 1004POPC   C4A17574  29.119  19.134   7.466
 1004POPC   C1B17575  28.883  18.815   8.630
 1004POPC   C2B17576  28.842  18.651   8.189
 1004POPC   C3B17577  28.776  18.848   7.774
 1004POPC   C4B17578  28.718  18.865   7.300
 1005POPC   NC317579  41.321  44.207   9.496
 1005POPC   PO417580  41.423  44.887   9.528
 1005POPC   GL117581  41.635  44.782   9.159
 1005POPC   GL217582  41.690  44.445   9.164
 1005POPC   C1A17583  41.625  44.817   8.732
 1005POPC   D2A17584  41.453  44.968   8.341
 1005POPC   C3A17585  41.546  44.813   7.947
 1005POPC   C4A17586  41.891  44.827   7.660
 1005POPC   C1B17587  41.522  44.318   8.770
 1005POPC   C2B17588  41.656  44.474   8.350
 1005POPC   C3B17589  41.769  44.344   7.919
 1005POPC   C4B17590  41.537  44.473   7.536
 1006POPC   NC317591  27.151   4.581   9.569
 1006POPC   PO417592  27.757   4.911   9.563
 1006POPC   GL117593  27.604   4.892   9.163
 1006POPC   GL217594  27.260   4.885   9.147
 1006POPC   C1A17595  27.658   4.963   8.727
 1006POPC   D2A17596  27.595   4.857   8.285
 1006POPC   C3A17597  27.863   5.036   7.956
 1006POPC   C4A17598  27.824   5.217   7.557
 1006POPC   C1B17599  27.269   5.267   8.855
 1006POPC   C2B17600  27.494   5.397   8.498
 1006POPC   C3B17601  27.589   5.446   8.087
 1006POPC   C4B17602  27.361   5.303   7.746
 1007POPC   NC317603  37.707  19.385   9.655
 1007POPC   PO417604  37.515  19.987   9.439
 1007POPC   GL117605  37.735  19.800   9.153
 1007POPC   GL217606  37.672  19.456   9.154
 1007POPC   C1A17607  37.653  19.852   8.739
 1007POPC   D2A17608  37.920  19.875   8.415
 1007POPC   C3A17609  37.678  19.936   8.070
 1007POPC   C4A17610  37.538  19.994   7.660
 1007POPC   C1B17611  37.984  19.431   8.826
 1007POPC   C2B17612  38.129  19.341   8.416
 1007POPC   C3B17613  38.065  19.554   8.034
 1007POPC   C4B17614  37.751  19.540   7.738
 1008POPC   NC317615  39.160  18.761   9.525
 1008POPC   PO417616  38.956  18.167   9.516
 1008POPC   GL117617  39.200  18.312   9.151
 1008POPC   GL217618  39.544  18.173   9.063
 1008POPC   C1A17619  39.068  18.307   8.703
 1008POPC   D2A17620  38.846  18.073   8.365
 1008POPC   C3A17621  38.804  18.232   7.930
 1008POPC   C4A17622  39.026  18.382   7.560
 1008POPC   C1B17623  39.511  18.554   8.832
 1008POPC   C2B17624  39.363  18.603   8.417
 1008POPC   C3B17625  39.265  18.433   8.037
 1008POPC   C4B17626  39.487  18.564   7.697
 1009POPC   NC317627  39.796  36.581   9.530
 1009POPC   PO417628  39.116  36.758   9.433
 1009POPC   GL117629  39.312  36.747   9.076
 1009POPC   GL217630  39.480  36.434   9.129
 1009POPC   C1A17631  39.099  36.842   8.701
 1009POPC   D2A17632  39.215  37.024   8.354
 1009POPC   C3A17633  38.978  36.958   7.967
 1009POPC   C4A17634  39.271  37.217   7.767
 1009POPC   C1B17635  39.243  36.353   8.722
 1009POPC   C2B17636  39.221  36.509   8.288
 1009POPC   C3B17637  39.461  36.763   8.004
 1009POPC   C4B17638  39.673  36.770   7.641
 1010POPC   NC317639  35.347  15.433   9.476
 1010POPC   PO417640  35.300  16.069   9.659
 1010POPC   GL117641  35.128  15.862   9.272
 1010POPC   GL217642  35.425  15.998   9.139
 1010POPC   C1A17643  35.069  15.810   8.813
 1010POPC   D2A17644  35.205  16.052   8.442
 1010POPC   C3A17645  35.193  15.827   8.051
 1010POPC   C4A17646  35.068  15.941   7.641
 1010POPC   C1B17647  35.601  15.916   8.739
 1010POPC   C2B17648  35.623  15.736   8.351
 1010POPC   C3B17649  35.705  15.865   7.975
 1010POPC   C4B17650  35.557  15.838   7.603
 1011POPC   NC317651  11.076  13.173   9.358
 1011POPC   PO417652  11.425  12.703   9.681
 1011POPC   GL117653  11.477  12.819   9.237
 1011POPC   GL217654  11.191  12.740   9.132
 1011POPC   C1A17655  11.445  12.879   8.739
 1011POPC   D2A17656  11.543  13.118   8.381
 1011POPC   C3A17657  11.402  12.903   8.042
 1011POPC   C4A17658  11.527  12.675   7.691
 1011POPC   C1B17659  10.931  12.874   8.768
 1011POPC   C2B17660  10.898  12.684   8.380
 1011POPC   C3B17661  11.025  12.529   8.002
 1011POPC   C4B17662  11.035  12.817   7.685
 1012POPC   NC317663  30.978   8.447   9.366
 1012POPC   PO417664  30.850   7.809   9.375
 1012POPC   GL117665  30.700   8.093   9.067
 1012POPC   GL217666  30.492   8.365   9.126
 1012POPC   C1A17667  30.830   8.329   8.707
 1012POPC   D2A17668  30.626   8.375   8.328
 1012POPC   C3A17669  30.779   8.225   7.947
 1012POPC   C4A17670  30.521   7.936   7.768
 1012POPC   C1B17671  30.313   8.502   8.745
 1012POPC   C2B17672  30.208   8.646   8.335
 1012POPC   C3B17673  30.333   8.487   7.918
 1012POPC   C4B17674  30.466   8.359   7.466
 1013POPC   NC317675  14.855  29.997   9.525
 1013POPC   PO417676  15.565  30.119   9.494
 1013POPC   GL117677  15.282  30.012   9.150
 1013POPC   GL217678  15.012  30.244   9.123
 1013POPC   C1A17679  15.189  29.817   8.757
 1013POPC   D2A17680  15.171  29.998   8.353
 1013POPC   C3A17681  15.260  29.768   8.020
 1013POPC   C4A17682  15.157  29.695   7.597
 1013POPC   C1B17683  14.720  29.994   8.874
 1013POPC   C2B17684  14.723  29.820   8.467
 1013POPC   C3B17685  14.716  30.062   8.078
 1013POPC   C4B17686  14.736  30.002   7.642
 1014POPC   NC317687   8.400  34.984   9.759
 1014POPC   PO417688   7.987  34.500   9.712
 1014POPC   GL117689   8.138  34.304   9.262
 1014POPC   GL217690   7.813  34.246   9.126
 1014POPC   C1A17691   8.391  34.455   8.867
 1014POPC   D2A17692   8.344  34.710   8.528
 1014POPC   C3A17693   8.465  34.591   8.132
 1014POPC   C4A17694   8.587  34.518   7.708
 1014POPC   C1B17695   7.901  34.419   8.755
 1014POPC   C2B17696   7.879  34.539   8.357
 1014POPC   C3B17697   8.028  34.868   8.121
 1014POPC   C4B17698   8.101  34.622   7.761
 1015POPC   NC317699  32.527  42.471   9.643
 1015POPC   PO417700  32.018  42.108   9.457
 1015POPC   GL117701  32.102  42.370   9.110
 1015POPC   GL217702  32.443  42.314   9.163
 1015POPC   C1A17703  31.999  42.395   8.646
 1015POPC   D2A17704  32.133  42.090   8.291
 1015POPC   C3A17705  32.065  42.150   7.855
 1015POPC   C4A17706  31.891  42.561   7.870
 1015POPC   C1B17707  32.462  42.534   8.778
 1015POPC   C2B17708  32.538  42.404   8.352
 1015POPC   C3B17709  32.422  42.489   7.916
 1015POPC   C4B17710  32.515  42.201   7.549
 1016POPC   NC317711  28.675   9.611   9.466
 1016POPC   PO417712  28.028   9.304   9.486
 1016POPC   GL117713  28.123   9.536   9.129
 1016POPC   GL217714  28.309   9.840   9.169
 1016POPC   C1A17715  27.932   9.703   8.793
 1016POPC   D2A17716  27.889   9.542   8.398
 1016POPC   C3A17717  28.022   9.795   8.064
 1016POPC   C4A17718  28.337   9.785   7.774
 1016POPC   C1B17719  28.417   9.882   8.724
 1016POPC   C2B17720  28.510   9.922   8.266
 1016POPC   C3B17721  28.645  10.162   7.882
 1016POPC   C4B17722  28.614  10.246   7.398
 1017POPC   NC317723  21.709   1.784   9.627
 1017POPC   PO417724  21.137   1.849   9.780
 1017POPC   GL117725  21.298   1.681   9.343
 1017POPC   GL217726  21.370   1.993   9.168
 1017POPC   C1A17727  21.355   1.617   8.841
 1017POPC   D2A17728  21.245   1.823   8.437
 1017POPC   C3A17729  21.393   1.659   8.042
 1017POPC   C4A17730  21.334   1.740   7.608
 1017POPC   C1B17731  21.605   2.057   8.746
 1017POPC   C2B17732  21.726   2.001   8.285
 1017POPC   C3B17733  21.664   2.069   7.820
 1017POPC   C4B17734  21.611   2.134   7.354
 1018POPC   NC317735   6.232  38.792   9.508
 1018POPC   PO417736   5.857  39.455   9.534
 1018POPC   GL117737   5.648  39.331   9.167
 1018POPC   GL217738   5.633  38.959   9.069
 1018POPC   C1A17739   5.791  39.343   8.760
 1018POPC   D2A17740   5.947  39.155   8.420
 1018POPC   C3A17741   5.779  39.459   8.168
 1018POPC   C4A17742   5.690  39.435   7.753
 1018POPC   C1B17743   6.017  38.828   8.815
 1018POPC   C2B17744   6.213  38.655   8.379
 1018POPC   C3B17745   6.080  38.841   8.026
 1018POPC   C4B17746   5.688  38.990   7.999
 1019POPC   NC317747  23.875  11.153   9.384
 1019POPC   PO417748  23.706  11.761   9.364
 1019POPC   GL117749  23.500  11.440   9.107
 1019POPC   GL217750  23.836  11.428   8.953
 1019POPC   C1A17751  23.451  11.296   8.659
 1019POPC   D2A17752  23.799  11.453   8.411
 1019POPC   C3A17753  23.680  11.440   7.993
 1019POPC   C4A17754  23.415  11.134   7.839
 1019POPC   C1B17755  23.869  11.011   8.730
 1019POPC   C2B17756  23.633  10.930   8.340
 1019POPC   C3B17757  23.839  10.855   7.976
 1019POPC   C4B17758  23.978  11.123   7.705
 1020POPC   NC317759  44.734  41.327   9.713
 1020POPC   PO417760  44.485  40.838   9.622
 1020POPC   GL117761  44.625  40.933   9.234
 1020POPC   GL217762  44.523  41.272   9.232
 1020POPC   C1A17763  44.732  40.724   8.841
 1020POPC   D2A17764  44.810  40.507   8.462
 1020POPC   C3A17765  44.569  40.607   8.134
 1020POPC   C4A17766  44.599  40.606   7.732
 1020POPC   C1B17767  44.473  41.196   8.799
 1020POPC   C2B17768  44.552  41.056   8.374
 1020POPC   C3B17769  44.367  41.045   7.947
 1020POPC   C4B17770  44.545  41.072   7.524
 1021POPC   NC317771  39.775   3.360   9.473
 1021POPC   PO417772  39.990   3.849   9.588
 1021POPC   GL117773  40.096   3.911   9.162
 1021POPC   GL217774  39.928   3.624   9.035
 1021POPC   C1A17775  40.099   3.997   8.689
 1021POPC   D2A17776  40.025   3.929   8.213
 1021POPC   C3A17777  40.188   3.579   7.921
 1021POPC   C4A17778  40.319   3.621   7.477
 1021POPC   C1B17779  39.737   3.640   8.614
 1021POPC   C2B17780  39.739   3.489   8.179
 1021POPC   C3B17781  39.727   3.357   7.745
 1021POPC   C4B17782  39.853   3.391   7.310
 1022POPC   NC317783  41.384  35.345   9.450
 1022POPC   PO417784  41.948  35.560   9.617
 1022POPC   GL117785  41.805  35.459   9.181
 1022POPC   GL217786  41.502  35.645   9.047
 1022POPC   C1A17787  41.686  35.289   8.756
 1022POPC   D2A17788  41.445  35.510   8.449
 1022POPC   C3A17789  41.571  35.413   8.021
 1022POPC   C4A17790  41.773  35.316   7.582
 1022POPC   C1B17791  41.191  35.297   8.848
 1022POPC   C2B17792  41.070  35.131   8.466
 1022POPC   C3B17793  41.140  35.053   8.065
 1022POPC   C4B17794  41.270  35.243   7.677
 1023POPC   NC317795  39.221  16.282   9.494
 1023POPC   PO417796  39.058  15.694   9.470
 1023POPC   GL117797  39.391  15.844   9.161
 1023POPC   GL217798  39.585  16.136   9.163
 1023POPC   C1A17799  39.284  16.009   8.755
 1023POPC   D2A17800  39.169  16.262   8.412
 1023POPC   C3A17801  39.113  16.022   8.019
 1023POPC   C4A17802  39.293  15.665   7.770
 1023POPC   C1B17803  39.656  16.412   8.824
 1023POPC   C2B17804  39.635  16.584   8.410
 1023POPC   C3B17805  39.561  16.263   8.076
 1023POPC   C4B17806  39.447  16.157   7.661
 1024POPC   NC317807  29.728   8.132   9.415
 1024POPC   PO417808  29.154   8.108   9.657
 1024POPC   GL117809  29.140   8.190   9.218
 1024POPC   GL217810  28.939   7.925   9.115
 1024POPC   C1A17811  29.364   8.030   8.854
 1024POPC   D2A17812  29.447   8.084   8.434
 1024POPC   C3A17813  29.249   8.202   8.073
 1024POPC   C4A17814  29.321   8.064   7.659
 1024POPC   C1B17815  28.897   8.205   8.754
 1024POPC   C2B17816  28.944   7.943   8.409
 1024POPC   C3B17817  28.719   8.034   8.073
 1024POPC   C4B17818  28.854   8.306   7.781
 1025POPC   NC317819  11.929  42.782   9.525
 1025POPC   PO417820  12.219  43.458   9.462
 1025POPC   GL117821  12.325  43.364   9.073
 1025POPC   GL217822  12.200  43.034   9.111
 1025POPC   C1A17823  12.115  43.390   8.698
 1025POPC   D2A17824  11.966  43.254   8.320
 1025POPC   C3A17825  12.226  43.016   8.056
 1025POPC   C4A17826  12.015  43.208   7.707
 1025POPC   C1B17827  11.854  42.921   8.828
 1025POPC   C2B17828  11.808  42.751   8.414
 1025POPC   C3B17829  11.730  42.894   8.002
 1025POPC   C4B17830  11.987  42.711   7.688
 1026POPC   NC317831   8.422  42.193   9.798
 1026POPC   PO417832   9.020  42.292   9.466
 1026POPC   GL117833   8.975  42.289   9.056
 1026POPC   GL217834   8.638  42.204   9.089
 1026POPC   C1A17835   9.052  42.586   8.710
 1026POPC   D2A17836   9.002  42.783   8.289
 1026POPC   C3A17837   9.113  42.437   8.021
 1026POPC   C4A17838   9.216  42.048   7.818
 1026POPC   C1B17839   8.613  42.309   8.704
 1026POPC   C2B17840   8.584  42.505   8.358
 1026POPC   C3B17841   8.607  42.345   7.981
 1026POPC   C4B17842   8.483  41.963   7.821
 1027POPC   NC317843  35.805  43.504   9.686
 1027POPC   PO417844  35.273  43.742   9.485
 1027POPC   GL117845  35.412  43.650   9.098
 1027POPC   GL217846  35.451  44.003   9.009
 1027POPC   C1A17847  35.258  43.575   8.699
 1027POPC   D2A17848  35.107  43.843   8.378
 1027POPC   C3A17849  35.165  43.714   7.950
 1027POPC   C4A17850  35.312  43.812   7.521
 1027POPC   C1B17851  35.587  43.948   8.585
 1027POPC   C2B17852  35.579  43.636   8.253
 1027POPC   C3B17853  35.691  43.623   7.826
 1027POPC   C4B17854  36.112  43.693   7.648
 1028POPC   NC317855  44.204  17.014   9.520
 1028POPC   PO417856  43.542  17.020   9.522
 1028POPC   GL117857  43.827  16.850   9.130
 1028POPC   GL217858  43.790  17.015   8.813
 1028POPC   C1A17859  44.118  16.657   8.748
 1028POPC   D2A17860  44.167  16.857   8.307
 1028POPC   C3A17861  44.187  16.567   7.943
 1028POPC   C4A17862  43.943  16.467   7.553
 1028POPC   C1B17863  43.594  16.555   8.721
 1028POPC   C2B17864  43.463  16.364   8.292
 1028POPC   C3B17865  43.511  16.385   7.823
 1028POPC   C4B17866  43.440  16.499   7.363
 1029POPC   NC317867  35.432  19.631   9.494
 1029POPC   PO417868  35.353  20.207   9.273
 1029POPC   GL117869  35.410  19.880   9.024
 1029POPC   GL217870  35.195  19.599   9.037
 1029POPC   C1A17871  35.497  20.000   8.648
 1029POPC   D2A17872  35.310  19.847   8.316
 1029POPC   C3A17873  35.299  20.109   8.029
 1029POPC   C4A17874  35.351  20.005   7.640
 1029POPC   C1B17875  34.964  19.467   8.692
 1029POPC   C2B17876  34.875  19.576   8.277
 1029POPC   C3B17877  35.073  19.624   7.912
 1029POPC   C4B17878  35.161  19.238   7.728
 1030POPC   NC317879  13.396  24.810   9.357
 1030POPC   PO417880  13.747  25.222   9.778
 1030POPC   GL117881  13.619  25.259   9.283
 1030POPC   GL217882  13.916  25.134   9.139
 1030POPC   C1A17883  13.542  25.171   8.778
 1030POPC   D2A17884  13.763  25.132   8.328
 1030POPC   C3A17885  13.534  25.195   7.892
 1030POPC   C4A17886  13.353  24.956   7.556
 1030POPC   C1B17887  14.043  25.338   8.756
 1030POPC   C2B17888  14.092  25.543   8.342
 1030POPC   C3B17889  13.977  25.471   7.900
 1030POPC   C4B17890  13.953  25.439   7.418
 1031POPC   NC317891  42.149   5.164   9.530
 1031POPC   PO417892  42.768   5.252   9.648
 1031POPC   GL117893  42.569   5.067   9.232
 1031POPC   GL217894  42.247   4.851   9.152
 1031POPC   C1A17895  42.379   5.331   8.867
 1031POPC   D2A17896  42.189   5.412   8.429
 1031POPC   C3A17897  42.458   5.404   8.079
 1031POPC   C4A17898  42.429   5.256   7.684
 1031POPC   C1B17899  42.461   4.849   8.751
 1031POPC   C2B17900  42.418   4.923   8.314
 1031POPC   C3B17901  42.617   4.857   7.937
 1031POPC   C4B17902  42.494   4.526   7.658
 1032POPC   NC317903   0.578  43.416   9.608
 1032POPC   PO417904   0.805  43.988   9.399
 1032POPC   GL117905   0.589  43.760   9.123
 1032POPC   GL217906   0.260  43.677   9.261
 1032POPC   C1A17907   0.458  43.992   8.767
 1032POPC   D2A17908   0.184  43.975   8.453
 1032POPC   C3A17909   0.299  44.148   8.068
 1032POPC   C4A17910   0.500  43.976   7.757
 1032POPC   C1B17911   0.186  43.550   8.815
 1032POPC   C2B17912  44.920  43.540   8.446
 1032POPC   C3B17913   0.113  43.610   8.062
 1032POPC   C4B17914   0.073  43.742   7.649
 1033POPC   NC317915   5.822  18.574   9.787
 1033POPC   PO417916   5.871  17.933   9.493
 1033POPC   GL117917   5.974  18.253   9.203
 1033POPC   GL217918   5.787  18.564   9.112
 1033POPC   C1A17919   5.978  18.242   8.756
 1033POPC   D2A17920   5.699  18.175   8.400
 1033POPC   C3A17921   5.940  18.179   7.986
 1033POPC   C4A17922   6.017  18.582   7.773
 1033POPC   C1B17923   5.692  18.665   8.659
 1033POPC   C2B17924   5.697  18.634   8.198
 1033POPC   C3B17925   5.497  18.382   7.882
 1033POPC   C4B17926   5.590  18.447   7.453
 1034POPC   NC317927  17.378   3.417   9.370
 1034POPC   PO417928  17.961   3.190   9.260
 1034POPC   GL117929  17.712   3.312   8.994
 1034POPC   GL217930  17.709   3.640   9.077
 1034POPC   C1A17931  17.640   3.356   8.588
 1034POPC   D2A17932  17.535   3.615   8.261
 1034POPC   C3A17933  17.523   3.332   7.942
 1034POPC   C4A17934  17.591   3.404   7.485
 1034POPC   C1B17935  17.562   3.853   8.717
 1034POPC   C2B17936  17.595   4.149   8.399
 1034POPC   C3B17937  17.798   4.023   8.048
 1034POPC   C4B17938  17.508   3.805   7.766
 1035POPC   NC317939  18.871  37.239   9.933
 1035POPC   PO417940  19.030  36.660   9.555
 1035POPC   GL117941  19.201  36.920   9.180
 1035POPC   GL217942  18.903  36.951   8.978
 1035POPC   C1A17943  19.315  37.045   8.734
 1035POPC   D2A17944  19.141  36.897   8.357
 1035POPC   C3A17945  19.337  37.074   7.974
 1035POPC   C4A17946  19.411  36.899   7.596
 1035POPC   C1B17947  18.705  36.843   8.658
 1035POPC   C2B17948  18.682  37.095   8.315
 1035POPC   C3B17949  18.839  36.925   7.933
 1035POPC   C4B17950  18.598  37.004   7.616
 1036POPC   NC317951  12.600  20.197   9.429
 1036POPC   PO417952  12.770  20.923   9.496
 1036POPC   GL117953  12.913  20.615   9.212
 1036POPC   GL217954  12.566  20.597   9.098
 1036POPC   C1A17955  13.159  20.617   8.825
 1036POPC   D2A17956  13.104  20.861   8.444
 1036POPC   C3A17957  13.195  20.642   8.050
 1036POPC   C4A17958  13.077  20.788   7.639
 1036POPC   C1B17959  12.677  20.291   8.795
 1036POPC   C2B17960  12.944  20.276   8.458
 1036POPC   C3B17961  12.804  20.258   8.052
 1036POPC   C4B17962  12.692  20.471   7.681
 1037POPC   NC317963  21.067  28.708   9.309
 1037POPC   PO417964  20.691  29.171   9.690
 1037POPC   GL117965  20.561  28.889   9.278
 1037POPC   GL217966  20.278  29.017   9.073
 1037POPC   C1A17967  20.691  28.889   8.793
 1037POPC   D2A17968  20.842  29.208   8.480
 1037POPC   C3A17969  20.823  29.064   8.045
 1037POPC   C4A17970  20.852  29.153   7.584
 1037POPC   C1B17971  20.343  29.280   8.676
 1037POPC   C2B17972  20.397  29.320   8.230
 1037POPC   C3B17973  20.601  29.495   7.872
 1037POPC   C4B17974  20.481  29.456   7.401
 1038POPC   NC317975  13.139  17.167   9.758
 1038POPC   PO417976  12.782  17.691   9.616
 1038POPC   GL117977  12.778  17.702   9.167
 1038POPC   GL217978  12.678  17.370   9.177
 1038POPC   C1A17979  12.873  17.853   8.743
 1038POPC   D2A17980  13.033  17.652   8.355
 1038POPC   C3A17981  12.872  17.850   8.030
 1038POPC   C4A17982  12.748  17.802   7.654
 1038POPC   C1B17983  12.744  17.348   8.756
 1038POPC   C2B17984  13.058  17.169   8.544
 1038POPC   C3B17985  13.080  17.130   8.147
 1038POPC   C4B17986  13.038  17.373   7.756
 1039POPC   NC317987   7.604  14.099   9.326
 1039POPC   PO417988   7.604  13.356   9.537
 1039POPC   GL117989   7.678  13.575   9.169
 1039POPC   GL217990   7.314  13.648   9.165
 1039POPC   C1A17991   7.609  13.736   8.744
 1039POPC   D2A17992   7.479  13.849   8.336
 1039POPC   C3A17993   7.579  13.539   8.043
 1039POPC   C4A17994   7.690  13.431   7.641
 1039POPC   C1B17995   7.102  13.781   8.791
 1039POPC   C2B17996   7.003  14.086   8.486
 1039POPC   C3B17997   7.012  13.905   8.083
 1039POPC   C4B17998   7.190  13.660   7.734
 1040POPC   NC317999  34.756  14.174   9.421
 1040POPC   PO418000  34.222  14.704   9.456
 1040POPC   GL118001  34.449  14.652   9.069
 1040POPC   GL218002  34.827  14.699   9.114
 1040POPC   C1A18003  34.462  14.510   8.652
 1040POPC   D2A18004  34.733  14.607   8.299
 1040POPC   C3A18005  34.638  14.551   7.854
 1040POPC   C4A18006  34.570  14.191   7.561
 1040POPC   C1B18007  34.932  14.356   8.806
 1040POPC   C2B18008  35.005  14.042   8.480
 1040POPC   C3B18009  34.930  14.174   8.061
 1040POPC   C4B18010  35.061  14.123   7.663
 1041POPC   NC318011  16.950  35.939   9.476
 1041POPC   PO418012  16.358  36.289   9.380
 1041POPC   GL118013  16.500  36.098   8.995
 1041POPC   GL218014  16.834  35.917   8.974
 1041POPC   C1A18015  16.486  35.983   8.573
 1041POPC   D2A18016  16.288  35.828   8.208
 1041POPC   C3A18017  16.573  35.831   7.900
 1041POPC   C4A18018  16.777  36.228   7.878
 1041POPC   C1B18019  16.965  36.342   8.773
 1041POPC   C2B18020  17.050  36.584   8.349
 1041POPC   C3B18021  17.161  36.577   7.894
 1041POPC   C4B18022  17.036  36.391   7.482
 1042POPC   NC318023  29.522  40.369   9.286
 1042POPC   PO418024  28.994  40.076   9.631
 1042POPC   GL118025  28.867  39.965   9.193
 1042POPC   GL218026  28.921  40.267   8.997
 1042POPC   C1A18027  28.741  39.830   8.773
 1042POPC   D2A18028  28.867  40.117   8.464
 1042POPC   C3A18029  29.054  40.077   8.085
 1042POPC   C4A18030  28.905  39.999   7.689
 1042POPC   C1B18031  29.283  40.093   8.754
 1042POPC   C2B18032  29.616  40.336   8.523
 1042POPC   C3B18033  29.525  40.386   8.101
 1042POPC   C4B18034  29.359  40.225   7.699
 1043POPC   NC318035  20.865  29.624   9.657
 1043POPC   PO418036  21.456  29.924   9.570
 1043POPC   GL118037  21.231  29.701   9.212
 1043POPC   GL218038  21.059  29.982   9.086
 1043POPC   C1A18039  21.243  29.582   8.737
 1043POPC   D2A18040  21.423  29.788   8.334
 1043POPC   C3A18041  21.426  29.676   7.890
 1043POPC   C4A18042  21.262  29.835   7.530
 1043POPC   C1B18043  21.308  30.109   8.736
 1043POPC   C2B18044  21.372  30.307   8.341
 1043POPC   C3B18045  21.348  30.186   7.911
 1043POPC   C4B18046  21.750  30.150   7.687
 1044POPC   NC318047  29.807   3.892   9.461
 1044POPC   PO418048  30.130   3.185   9.488
 1044POPC   GL118049  30.007   3.433   9.131
 1044POPC   GL218050  30.129   3.785   9.076
 1044POPC   C1A18051  29.913   3.264   8.728
 1044POPC   D2A18052  29.755   3.441   8.372
 1044POPC   C3A18053  29.651   3.229   8.003
 1044POPC   C4A18054  29.913   3.383   7.715
 1044POPC   C1B18055  29.771   3.772   8.780
 1044POPC   C2B18056  29.656   3.951   8.358
 1044POPC   C3B18057  29.836   3.861   7.938
 1044POPC   C4B18058  29.852   3.825   7.457
 1045POPC   NC318059  14.010  25.955   9.426
 1045POPC   PO418060  14.575  26.012   9.724
 1045POPC   GL118061  14.564  26.249   9.281
 1045POPC   GL218062  14.220  26.364   9.184
 1045POPC   C1A18063  14.536  26.257   8.784
 1045POPC   D2A18064  14.313  26.019   8.423
 1045POPC   C3A18065  14.443  25.884   8.023
 1045POPC   C4A18066  14.654  26.141   7.719
 1045POPC   C1B18067  14.037  26.256   8.771
 1045POPC   C2B18068  13.942  26.390   8.343
 1045POPC   C3B18069  14.140  26.292   7.913
 1045POPC   C4B18070  13.971  26.499   7.565
 1046POPC   NC318071  22.905  32.422   9.397
 1046POPC   PO418072  22.395  32.143   9.792
 1046POPC   GL118073  22.792  31.940   9.448
 1046POPC   GL218074  23.144  31.978   9.300
 1046POPC   C1A18075  22.817  31.893   8.928
 1046POPC   D2A18076  23.000  31.980   8.490
 1046POPC   C3A18077  22.824  32.196   8.131
 1046POPC   C4A18078  22.882  32.091   7.684
 1046POPC   C1B18079  23.235  32.223   8.860
 1046POPC   C2B18080  23.410  32.287   8.406
 1046POPC   C3B18081  23.298  32.304   7.958
 1046POPC   C4B18082  23.240  32.418   7.513
 1047POPC   NC318083  24.976  23.863   9.647
 1047POPC   PO418084  25.427  23.452   9.644
 1047POPC   GL118085  25.326  23.589   9.249
 1047POPC   GL218086  25.297  23.892   9.218
 1047POPC   C1A18087  25.558  23.675   8.847
 1047POPC   D2A18088  25.390  23.645   8.432
 1047POPC   C3A18089  25.415  23.945   8.109
 1047POPC   C4A18090  25.345  23.745   7.734
 1047POPC   C1B18091  25.084  23.827   8.844
 1047POPC   C2B18092  24.947  23.897   8.444
 1047POPC   C3B18093  24.943  23.738   8.051
 1047POPC   C4B18094  24.794  23.731   7.669
 1048POPC   NC318095  28.565  27.430   9.607
 1048POPC   PO418096  28.018  27.673   9.600
 1048POPC   GL118097  28.172  27.583   9.189
 1048POPC   GL218098  28.428  27.819   9.148
 1048POPC   C1A18099  28.282  27.543   8.731
 1048POPC   D2A18100  28.409  27.704   8.308
 1048POPC   C3A18101  28.426  27.444   7.926
 1048POPC   C4A18102  28.232  27.157   7.602
 1048POPC   C1B18103  28.488  28.044   8.751
 1048POPC   C2B18104  28.551  28.202   8.330
 1048POPC   C3B18105  28.567  28.035   7.921
 1048POPC   C4B18106  28.265  27.863   7.671
 1049POPC   NC318107  29.472  38.631   9.593
 1049POPC   PO418108  29.986  38.284   9.321
 1049POPC   GL118109  30.002  38.521   8.997
 1049POPC   GL218110  29.704  38.700   9.125
 1049POPC   C1A18111  29.845  38.262   8.667
 1049POPC   D2A18112  29.950  38.008   8.377
 1049POPC   C3A18113  29.800  38.164   8.019
 1049POPC   C4A18114  29.770  37.987   7.645
 1049POPC   C1B18115  29.630  38.721   8.701
 1049POPC   C2B18116  29.807  38.632   8.278
 1049POPC   C3B18117  29.775  38.635   7.807
 1049POPC   C4B18118  29.814  38.893   7.401
 1050POPC   NC318119  15.394  12.462  10.008
 1050POPC   PO418120  15.189  12.894   9.544
 1050POPC   GL118121  15.283  12.921   9.118
 1050POPC   GL218122  15.585  13.143   9.080
 1050POPC   C1A18123  15.065  12.761   8.731
 1050POPC   D2A18124  14.883  12.650   8.333
 1050POPC   C3A18125  15.135  12.626   7.987
 1050POPC   C4A18126  15.337  12.612   7.632
 1050POPC   C1B18127  15.544  12.925   8.698
 1050POPC   C2B18128  15.338  12.975   8.309
 1050POPC   C3B18129  15.494  13.034   7.905
 1050POPC   C4B18130  15.423  13.298   7.546
 1051POPC   NC318131  11.162  39.867   9.554
 1051POPC   PO418132  11.800  39.768   9.265
 1051POPC   GL118133  11.517  40.010   9.051
 1051POPC   GL218134  11.200  40.194   9.093
 1051POPC   C1A18135  11.294  39.876   8.689
 1051POPC   D2A18136  11.185  39.755   8.275
 1051POPC   C3A18137  11.447  39.943   8.029
 1051POPC   C4A18138  11.689  40.025   7.713
 1051POPC   C1B18139  10.945  40.315   8.761
 1051POPC   C2B18140  10.979  40.200   8.353
 1051POPC   C3B18141  10.920  40.290   7.936
 1051POPC   C4B18142  11.226  40.215   7.651
 1052POPC   NC318143  36.474  40.104   9.555
 1052POPC   PO418144  37.096  39.955   9.517
 1052POPC   GL118145  37.029  39.976   9.116
 1052POPC   GL218146  36.702  39.825   9.165
 1052POPC   C1A18147  37.227  39.821   8.739
 1052POPC   D2A18148  37.196  39.670   8.311
 1052POPC   C3A18149  37.196  39.984   7.997
 1052POPC   C4A18150  36.959  39.872   7.633
 1052POPC   C1B18151  36.634  40.059   8.803
 1052POPC   C2B18152  36.850  40.081   8.426
 1052POPC   C3B18153  36.674  39.961   8.064
 1052POPC   C4B18154  36.562  40.166   7.723
 1053POPC   NC318155  10.928  41.345   9.941
 1053POPC   PO418156  10.728  41.884   9.557
 1053POPC   GL118157  10.571  41.768   9.162
 1053POPC   GL218158  10.467  41.436   9.155
 1053POPC   C1A18159  10.705  41.583   8.719
 1053POPC   D2A18160  10.823  41.423   8.270
 1053POPC   C3A18161  10.815  41.646   7.839
 1053POPC   C4A18162  10.799  41.393   7.414
 1053POPC   C1B18163  10.328  41.224   8.795
 1053POPC   C2B18164  10.282  41.450   8.432
 1053POPC   C3B18165  10.366  41.594   8.053
 1053POPC   C4B18166  10.475  41.253   7.802
 1054POPC   NC318167  19.766  14.617   9.512
 1054POPC   PO418168  19.832  14.001   9.289
 1054POPC   GL118169  19.900  14.389   9.038
 1054POPC   GL218170  19.968  14.755   9.069
 1054POPC   C1A18171  19.966  14.513   8.615
 1054POPC   D2A18172  19.880  14.181   8.371
 1054POPC   C3A18173  19.862  14.374   7.988
 1054POPC   C4A18174  19.764  14.147   7.665
 1054POPC   C1B18175  19.719  14.937   8.757
 1054POPC   C2B18176  19.807  14.993   8.334
 1054POPC   C3B18177  19.662  14.923   7.923
 1054POPC   C4B18178  19.748  14.735   7.536
 1055POPC   NC318179  10.297  37.859   9.523
 1055POPC   PO418180  10.542  37.258   9.361
 1055POPC   GL118181  10.328  37.567   9.072
 1055POPC   GL218182  10.383  37.910   9.055
 1055POPC   C1A18183  10.287  37.490   8.636
 1055POPC   D2A18184  10.569  37.484   8.302
 1055POPC   C3A18185  10.520  37.676   7.897
 1055POPC   C4A18186  10.783  37.827   7.554
 1055POPC   C1B18187  10.100  37.954   8.745
 1055POPC   C2B18188  10.295  37.946   8.357
 1055POPC   C3B18189  10.105  37.999   7.973
 1055POPC   C4B18190  10.310  38.050   7.604
 1056POPC   NC318191  37.873  11.687   9.584
 1056POPC   PO418192  37.741  11.037   9.648
 1056POPC   GL118193  37.841  11.077   9.201
 1056POPC   GL218194  37.945  11.408   9.156
 1056POPC   C1A18195  37.726  11.110   8.740
 1056POPC   D2A18196  37.451  11.158   8.396
 1056POPC   C3A18197  37.441  10.996   8.007
 1056POPC   C4A18198  37.598  11.230   7.657
 1056POPC   C1B18199  37.992  11.548   8.744
 1056POPC   C2B18200  37.792  11.527   8.343
 1056POPC   C3B18201  37.955  11.543   7.932
 1056POPC   C4B18202  37.899  11.685   7.541
 1057POPC   NC318203  20.312   9.845   9.469
 1057POPC   PO418204  19.710   9.519   9.470
 1057POPC   GL118205  19.786   9.917   9.219
 1057POPC   GL218206  20.084   9.872   9.006
 1057POPC   C1A18207  19.653  10.090   8.790
 1057POPC   D2A18208  19.402   9.933   8.381
 1057POPC   C3A18209  19.628   9.863   7.952
 1057POPC   C4A18210  19.644   9.734   7.486
 1057POPC   C1B18211  20.079   9.442   8.905
 1057POPC   C2B18212  20.022   9.287   8.488
 1057POPC   C3B18213  19.755   9.365   8.105
 1057POPC   C4B18214  19.972   9.474   7.748
 1058POPC   NC318215  38.604  31.404   9.494
 1058POPC   PO418216  38.090  31.821   9.643
 1058POPC   GL118217  38.355  31.696   9.170
 1058POPC   GL218218  38.744  31.720   9.134
 1058POPC   C1A18219  38.451  31.472   8.774
 1058POPC   D2A18220  38.364  31.219   8.434
 1058POPC   C3A18221  38.392  31.380   8.030
 1058POPC   C4A18222  38.137  31.323   7.657
 1058POPC   C1B18223  38.813  31.803   8.708
 1058POPC   C2B18224  38.797  31.588   8.316
 1058POPC   C3B18225  38.911  31.682   7.892
 1058POPC   C4B18226  38.597  31.568   7.616
 1059POPC   NC318227   9.098   3.864   9.455
 1059POPC   PO418228   9.084   3.279   9.682
 1059POPC   GL118229   8.980   3.442   9.231
 1059POPC   GL218230   8.713   3.642   9.121
 1059POPC   C1A18231   9.098   3.522   8.801
 1059POPC   D2A18232   9.094   3.294   8.432
 1059POPC   C3A18233   9.198   3.490   8.086
 1059POPC   C4A18234   9.034   3.755   7.794
 1059POPC   C1B18235   8.599   3.464   8.724
 1059POPC   C2B18236   8.690   3.553   8.307
 1059POPC   C3B18237   8.708   3.350   7.915
 1059POPC   C4B18238   8.599   3.583   7.559
 1060POPC   NC318239  11.654  37.409   9.532
 1060POPC   PO418240  12.340  37.146   9.521
 1060POPC   GL118241  12.226  37.348   9.128
 1060POPC   GL218242  12.025  37.631   9.212
 1060POPC   C1A18243  12.181  37.502   8.721
 1060POPC   D2A18244  12.003  37.671   8.330
 1060POPC   C3A18245  12.212  37.599   7.926
 1060POPC   C4A18246  12.253  37.266   7.574
 1060POPC   C1B18247  11.789  37.789   8.839
 1060POPC   C2B18248  11.893  38.131   8.550
 1060POPC   C3B18249  11.851  38.119   8.127
 1060POPC   C4B18250  11.814  37.905   7.788
 1061POPC   NC318251  27.388  36.189   9.453
 1061POPC   PO418252  27.770  35.712   9.302
 1061POPC   GL118253  27.653  36.070   9.010
 1061POPC   GL218254  27.758  36.422   9.097
 1061POPC   C1A18255  27.712  36.224   8.557
 1061POPC   D2A18256  27.434  36.344   8.208
 1061POPC   C3A18257  27.422  36.111   7.813
 1061POPC   C4A18258  27.199  36.056   7.406
 1061POPC   C1B18259  28.131  36.434   8.787
 1061POPC   C2B18260  28.229  36.348   8.327
 1061POPC   C3B18261  27.913  36.383   7.972
 1061POPC   C4B18262  27.818  36.178   7.519
 1062POPC   NC318263  42.140  41.920   9.425
 1062POPC   PO418264  42.549  41.321   9.399
 1062POPC   GL118265  42.369  41.543   9.124
 1062POPC   GL218266  42.040  41.439   9.220
 1062POPC   C1A18267  42.419  41.427   8.711
 1062POPC   D2A18268  42.205  41.326   8.354
 1062POPC   C3A18269  42.452  41.210   8.022
 1062POPC   C4A18270  42.649  41.521   7.791
 1062POPC   C1B18271  41.961  41.654   8.835
 1062POPC   C2B18272  41.758  41.578   8.490
 1062POPC   C3B18273  41.897  41.650   8.100
 1062POPC   C4B18274  42.089  41.490   7.738
 1063POPC   NC318275   2.438  43.211   9.443
 1063POPC   PO418276   2.977  42.765   9.448
 1063POPC   GL118277   2.865  42.980   9.084
 1063POPC   GL218278   3.050  43.287   9.014
 1063POPC   C1A18279   2.619  42.840   8.708
 1063POPC   D2A18280   2.556  42.831   8.246
 1063POPC   C3A18281   2.483  43.232   7.985
 1063POPC   C4A18282   2.617  43.283   7.559
 1063POPC   C1B18283   3.021  43.165   8.597
 1063POPC   C2B18284   2.957  43.180   8.169
 1063POPC   C3B18285   3.095  43.199   7.767
 1063POPC   C4B18286   2.999  42.944   7.397
 1064POPC   NC318287   3.520   7.865   9.507
 1064POPC   PO418288   3.514   7.195   9.526
 1064POPC   GL118289   3.493   7.296   9.108
 1064POPC   GL218290   3.492   7.645   9.060
 1064POPC   C1A18291   3.375   7.345   8.670
 1064POPC   D2A18292   3.576   7.171   8.310
 1064POPC   C3A18293   3.254   7.020   8.022
 1064POPC   C4A18294   3.255   7.109   7.605
 1064POPC   C1B18295   3.507   7.873   8.672
 1064POPC   C2B18296   3.458   7.698   8.288
 1064POPC   C3B18297   3.489   7.484   7.914
 1064POPC   C4B18298   3.418   7.581   7.484
 1065POPC   NC318299   8.882  39.070   9.523
 1065POPC   PO418300   9.220  39.628   9.411
 1065POPC   GL118301   9.139  39.266   9.128
 1065POPC   GL218302   8.776  39.277   9.077
 1065POPC   C1A18303   9.147  38.993   8.774
 1065POPC   D2A18304   8.969  38.872   8.370
 1065POPC   C3A18305   9.112  39.069   7.990
 1065POPC   C4A18306   9.038  39.193   7.561
 1065POPC   C1B18307   8.634  39.065   8.706
 1065POPC   C2B18308   8.606  39.261   8.283
 1065POPC   C3B18309   8.628  39.111   7.872
 1065POPC   C4B18310   8.504  39.241   7.487
 1066POPC   NC318311  30.363   7.783   9.361
 1066POPC   PO418312  30.069   8.429   9.413
 1066POPC   GL118313  29.908   8.425   9.038
 1066POPC   GL218314  30.070   8.089   8.997
 1066POPC   C1A18315  29.800   8.435   8.625
 1066POPC   D2A18316  29.911   8.210   8.274
 1066POPC   C3A18317  29.717   8.371   7.919
 1066POPC   C4A18318  30.021   8.180   7.702
 1066POPC   C1B18319  29.833   7.852   8.706
 1066POPC   C2B18320  29.743   7.697   8.299
 1066POPC   C3B18321  29.730   7.811   7.858
 1066POPC   C4B18322  29.672   7.821   7.373
 1067POPC   NC318323  34.412  36.782   9.528
 1067POPC   PO418324  35.053  36.599   9.510
 1067POPC   GL118325  34.791  36.751   9.190
 1067POPC   GL218326  34.719  36.438   9.066
 1067POPC   C1A18327  34.499  36.942   8.882
 1067POPC   D2A18328  34.496  37.122   8.487
 1067POPC   C3A18329  34.589  36.944   8.079
 1067POPC   C4A18330  34.312  36.961   7.721
 1067POPC   C1B18331  34.904  36.676   8.704
 1067POPC   C2B18332  34.982  36.604   8.277
 1067POPC   C3B18333  34.919  36.609   7.845
 1067POPC   C4B18334  34.807  36.474   7.442
 1068POPC   NC318335  17.835   6.834   9.656
 1068POPC   PO418336  17.585   7.409   9.785
 1068POPC   GL118337  17.502   7.426   9.314
 1068POPC   GL218338  17.628   7.124   9.183
 1068POPC   C1A18339  17.629   7.562   8.886
 1068POPC   D2A18340  17.812   7.506   8.489
 1068POPC   C3A18341  17.516   7.585   8.166
 1068POPC   C4A18342  17.578   7.703   7.742
 1068POPC   C1B18343  17.383   7.094   8.767
 1068POPC   C2B18344  17.146   7.103   8.358
 1068POPC   C3B18345  17.272   7.045   7.908
 1068POPC   C4B18346  17.616   7.153   7.630
 1069POPC   NC318347  20.543  38.944   9.613
 1069POPC   PO418348  20.643  39.551   9.575
 1069POPC   GL118349  20.664  39.453   9.161
 1069POPC   GL218350  20.526  39.137   9.098
 1069POPC   C1A18351  20.873  39.626   8.804
 1069POPC   D2A18352  20.795  39.567   8.377
 1069POPC   C3A18353  20.618  39.219   8.177
 1069POPC   C4A18354  20.658  39.384   7.786
 1069POPC   C1B18355  20.790  39.140   8.690
 1069POPC   C2B18356  21.098  39.141   8.314
 1069POPC   C3B18357  21.027  39.045   7.851
 1069POPC   C4B18358  20.970  39.242   7.406
 1070POPC   NC318359  29.796  17.423   9.500
 1070POPC   PO418360  30.377  17.785   9.340
 1070POPC   GL118361  30.154  17.456   9.111
 1070POPC   GL218362  29.829  17.490   8.998
 1070POPC   C1A18363  30.172  17.234   8.700
 1070POPC   D2A18364  29.982  17.426   8.327
 1070POPC   C3A18365  29.950  17.224   7.934
 1070POPC   C4A18366  30.049  17.323   7.494
 1070POPC   C1B18367  29.552  17.621   8.690
 1070POPC   C2B18368  29.412  17.435   8.325
 1070POPC   C3B18369  29.481  17.414   7.906
 1070POPC   C4B18370  29.553  17.304   7.504
 1071POPC   NC318371  43.318   6.349   9.411
 1071POPC   PO418372  43.005   6.994   9.620
 1071POPC   GL118373  42.896   6.715   9.249
 1071POPC   GL218374  43.178   6.832   9.096
 1071POPC   C1A18375  42.997   6.456   8.829
 1071POPC   D2A18376  42.998   6.591   8.393
 1071POPC   C3A18377  43.302   6.566   8.075
 1071POPC   C4A18378  43.063   6.510   7.729
 1071POPC   C1B18379  43.375   6.818   8.691
 1071POPC   C2B18380  43.219   7.054   8.339
 1071POPC   C3B18381  43.348   7.027   7.900
 1071POPC   C4B18382  43.364   6.847   7.509
 1072POPC   NC318383  27.643   0.741   9.413
 1072POPC   PO418384  27.800   1.399   9.535
 1072POPC   GL118385  27.466   1.313   9.210
 1072POPC   GL218386  27.343   1.000   9.093
 1072POPC   C1A18387  27.577   1.363   8.798
 1072POPC   D2A18388  27.832   1.204   8.448
 1072POPC   C3A18389  27.556   1.298   8.155
 1072POPC   C4A18390  27.466   1.413   7.762
 1072POPC   C1B18391  27.616   0.856   8.743
 1072POPC   C2B18392  27.514   0.797   8.317
 1072POPC   C3B18393  27.623   0.888   7.879
 1072POPC   C4B18394  27.815   1.083   7.519
 1073POPC   NC318395  29.194  33.455   9.324
 1073POPC   PO418396  29.330  34.099   9.522
 1073POPC   GL118397  29.207  33.930   9.153
 1073POPC   GL218398  29.526  33.771   9.149
 1073POPC   C1A18399  28.976  33.822   8.778
 1073POPC   D2A18400  28.949  33.567   8.419
 1073POPC   C3A18401  29.052  33.693   8.033
 1073POPC   C4A18402  28.975  33.888   7.598
 1073POPC   C1B18403  29.503  33.758   8.751
 1073POPC   C2B18404  29.531  33.547   8.413
 1073POPC   C3B18405  29.491  33.414   8.025
 1073POPC   C4B18406  29.416  33.669   7.699
 1074POPC   NC318407   6.405  14.952   9.751
 1074POPC   PO418408   6.569  14.410   9.466
 1074POPC   GL118409   6.690  14.253   9.092
 1074POPC   GL218410   6.800  14.550   9.011
 1074POPC   C1A18411   6.509  14.238   8.696
 1074POPC   D2A18412   6.468  14.470   8.367
 1074POPC   C3A18413   6.750  14.363   8.102
 1074POPC   C4A18414   6.659  14.208   7.748
 1074POPC   C1B18415   6.941  14.842   8.759
 1074POPC   C2B18416   7.028  14.709   8.384
 1074POPC   C3B18417   7.046  14.764   7.962
 1074POPC   C4B18418   7.092  14.434   7.692
 1075POPC   NC318419   3.709  17.361   9.934
 1075POPC   PO418420   3.260  17.712   9.578
 1075POPC   GL118421   3.380  17.603   9.154
 1075POPC   GL218422   3.663  17.395   9.232
 1075POPC   C1A18423   3.354  17.626   8.734
 1075POPC   D2A18424   3.243  17.733   8.359
 1075POPC   C3A18425   3.391  17.492   8.036
 1075POPC   C4A18426   3.362  17.660   7.637
 1075POPC   C1B18427   3.564  17.194   8.853
 1075POPC   C2B18428   3.682  17.306   8.481
 1075POPC   C3B18429   3.803  17.197   8.122
 1075POPC   C4B18430   3.842  17.366   7.760
 1076POPC   NC318431   2.103  31.046   9.640
 1076POPC   PO418432   2.425  30.426   9.451
 1076POPC   GL118433   2.144  30.749   9.211
 1076POPC   GL218434   1.830  30.586   9.081
 1076POPC   C1A18435   2.047  30.951   8.792
 1076POPC   D2A18436   2.030  30.743   8.395
 1076POPC   C3A18437   2.221  30.808   7.999
 1076POPC   C4A18438   2.339  30.494   7.719
 1076POPC   C1B18439   1.592  30.673   8.669
 1076POPC   C2B18440   1.560  30.729   8.212
 1076POPC   C3B18441   1.738  30.823   7.813
 1076POPC   C4B18442   1.853  30.492   7.519
 1077POPC   NC318443   6.790  16.427   9.310
 1077POPC   PO418444   6.328  16.888   9.454
 1077POPC   GL118445   6.545  16.908   9.089
 1077POPC   GL218446   6.377  16.569   9.040
 1077POPC   C1A18447   6.695  16.769   8.672
 1077POPC   D2A18448   6.659  16.517   8.288
 1077POPC   C3A18449   6.774  16.673   7.873
 1077POPC   C4A18450   6.783  17.117   7.750
 1077POPC   C1B18451   6.192  16.462   8.683
 1077POPC   C2B18452   6.137  16.571   8.288
 1077POPC   C3B18453   6.301  16.415   7.946
 1077POPC   C4B18454   6.435  16.486   7.560
 1078POPC   NC318455  42.384  21.741   9.471
 1078POPC   PO418456  42.166  21.149   9.350
 1078POPC   GL118457  42.259  21.421   9.073
 1078POPC   GL218458  42.635  21.410   9.146
 1078POPC   C1A18459  41.995  21.525   8.719
 1078POPC   D2A18460  41.881  21.765   8.346
 1078POPC   C3A18461  42.025  21.550   7.971
 1078POPC   C4A18462  42.165  21.275   7.600
 1078POPC   C1B18463  42.585  21.339   8.712
 1078POPC   C2B18464  42.364  21.464   8.362
 1078POPC   C3B18465  42.526  21.406   7.950
 1078POPC   C4B18466  42.937  21.337   7.784
 1079POPC   NC318467   4.912   2.378   9.470
 1079POPC   PO418468   5.333   1.814   9.577
 1079POPC   GL118469   5.093   2.001   9.180
 1079POPC   GL218470   4.750   2.144   9.060
 1079POPC   C1A18471   5.168   2.134   8.752
 1079POPC   D2A18472   5.412   1.901   8.483
 1079POPC   C3A18473   5.288   1.934   8.067
 1079POPC   C4A18474   5.401   1.763   7.686
 1079POPC   C1B18475   4.786   1.790   8.798
 1079POPC   C2B18476   4.820   1.924   8.406
 1079POPC   C3B18477   4.670   2.089   8.077
 1079POPC   C4B18478   4.902   2.076   7.734
 1080POPC   NC318479  42.868   0.929   9.445
 1080POPC   PO418480  42.961   0.291   9.567
 1080POPC   GL118481  43.108   0.488   9.177
 1080POPC   GL218482  43.347   0.733   9.176
 1080POPC   C1A18483  43.094   0.678   8.756
 1080POPC   D2A18484  43.164   0.436   8.414
 1080POPC   C3A18485  42.965   0.557   8.082
 1080POPC   C4A18486  42.922   0.401   7.702
 1080POPC   C1B18487  43.548   0.979   8.841
 1080POPC   C2B18488  43.502   0.978   8.399
 1080POPC   C3B18489  43.452   0.680   8.079
 1080POPC   C4B18490  43.289   0.757   7.675
 1081POPC   NC318491   7.961  20.859   9.722
 1081POPC   PO418492   8.413  20.450   9.477
 1081POPC   GL118493   8.388  20.822   9.208
 1081POPC   GL218494   8.041  20.791   9.217
 1081POPC   C1A18495   8.522  20.822   8.766
 1081POPC   D2A18496   8.446  20.500   8.422
 1081POPC   C3A18497   8.301  20.558   8.002
 1081POPC   C4A18498   8.425  20.769   7.616
 1081POPC   C1B18499   8.086  20.554   8.826
 1081POPC   C2B18500   7.884  20.554   8.429
 1081POPC   C3B18501   7.820  20.781   8.035
 1081POPC   C4B18502   7.944  20.685   7.652
 1082POPC   NC318503  15.704  28.678   9.375
 1082POPC   PO418504  16.018  28.120   9.464
 1082POPC   GL118505  15.955  28.220   9.065
 1082POPC   GL218506  16.241  28.071   8.973
 1082POPC   C1A18507  15.860  28.283   8.634
 1082POPC   D2A18508  16.053  28.269   8.214
 1082POPC   C3A18509  15.893  28.464   7.856
 1082POPC   C4A18510  15.603  28.837   7.839
 1082POPC   C1B18511  16.387  28.171   8.610
 1082POPC   C2B18512  16.550  28.187   8.228
 1082POPC   C3B18513  16.376  28.138   7.819
 1082POPC   C4B18514  16.130  28.264   7.440
 1083POPC   NC318515  39.155  20.300   9.342
 1083POPC   PO418516  38.805  20.834   9.495
 1083POPC   GL118517  39.003  20.884   9.101
 1083POPC   GL218518  39.310  20.743   9.138
 1083POPC   C1A18519  39.108  20.748   8.678
 1083POPC   D2A18520  39.283  20.544   8.361
 1083POPC   C3A18521  39.117  20.707   8.025
 1083POPC   C4A18522  39.115  20.458   7.691
 1083POPC   C1B18523  39.576  20.592   8.780
 1083POPC   C2B18524  39.732  20.290   8.468
 1083POPC   C3B18525  39.617  20.336   8.024
 1083POPC   C4B18526  39.575  20.704   7.756
 1084POPC   NC318527  20.008  31.830   9.498
 1084POPC   PO418528  19.534  32.357   9.533
 1084POPC   GL118529  19.741  32.322   9.145
 1084POPC   GL218530  19.750  31.988   9.089
 1084POPC   C1A18531  19.953  32.447   8.766
 1084POPC   D2A18532  19.794  32.447   8.355
 1084POPC   C3A18533  20.012  32.432   7.964
 1084POPC   C4A18534  19.783  32.423   7.566
 1084POPC   C1B18535  19.859  31.961   8.646
 1084POPC   C2B18536  19.988  31.943   8.210
 1084POPC   C3B18537  19.839  31.796   7.820
 1084POPC   C4B18538  19.671  31.936   7.429
 1085POPC   NC318539  20.520  23.671   9.542
 1085POPC   PO418540  20.812  24.226   9.552
 1085POPC   GL118541  20.806  23.946   9.180
 1085POPC   GL218542  20.438  23.897   9.065
 1085POPC   C1A18543  20.912  23.782   8.753
 1085POPC   D2A18544  20.976  23.784   8.288
 1085POPC   C3A18545  20.787  23.449   8.044
 1085POPC   C4A18546  20.481  23.300   7.738
 1085POPC   C1B18547  20.426  23.924   8.590
 1085POPC   C2B18548  20.320  23.795   8.155
 1085POPC   C3B18549  20.545  23.823   7.755
 1085POPC   C4B18550  20.722  23.961   7.356
 1086POPC   NC318551  13.073  23.868   9.452
 1086POPC   PO418552  12.403  23.934   9.433
 1086POPC   GL118553  12.662  23.774   9.136
 1086POPC   GL218554  12.799  23.446   9.228
 1086POPC   C1A18555  12.833  23.919   8.758
 1086POPC   D2A18556  12.632  23.857   8.365
 1086POPC   C3A18557  12.794  23.895   7.962
 1086POPC   C4A18558  12.595  23.553   7.718
 1086POPC   C1B18559  12.765  23.426   8.771
 1086POPC   C2B18560  13.039  23.550   8.443
 1086POPC   C3B18561  12.986  23.433   8.040
 1086POPC   C4B18562  13.085  23.594   7.635
 1087POPC   NC318563  38.208  24.699   9.390
 1087POPC   PO418564  38.852  24.380   9.526
 1087POPC   GL118565  38.614  24.451   9.156
 1087POPC   GL218566  38.620  24.802   9.082
 1087POPC   C1A18567  38.403  24.426   8.735
 1087POPC   D2A18568  38.279  24.161   8.375
 1087POPC   C3A18569  38.092  24.313   7.988
 1087POPC   C4A18570  38.334  24.436   7.667
 1087POPC   C1B18571  38.413  24.939   8.673
 1087POPC   C2B18572  38.456  24.852   8.193
 1087POPC   C3B18573  38.668  24.820   7.765
 1087POPC   C4B18574  38.661  25.005   7.313
 1088POPC   NC318575  18.415   7.964   9.407
 1088POPC   PO418576  17.925   8.312   9.521
 1088POPC   GL118577  18.118   8.230   9.106
 1088POPC   GL218578  18.458   8.413   9.133
 1088POPC   C1A18579  18.050   7.871   8.798
 1088POPC   D2A18580  18.203   7.817   8.377
 1088POPC   C3A18581  17.959   7.883   8.037
 1088POPC   C4A18582  18.179   7.894   7.662
 1088POPC   C1B18583  18.323   8.545   8.746
 1088POPC   C2B18584  18.000   8.472   8.480
 1088POPC   C3B18585  18.050   8.394   8.048
 1088POPC   C4B18586  18.062   8.367   7.612
 1089POPC   NC318587  32.445  38.943   9.502
 1089POPC   PO418588  32.006  38.446   9.624
 1089POPC   GL118589  32.184  38.446   9.188
 1089POPC   GL218590  32.489  38.649   9.098
 1089POPC   C1A18591  32.279  38.343   8.745
 1089POPC   D2A18592  32.144  38.395   8.308
 1089POPC   C3A18593  32.291  38.695   7.995
 1089POPC   C4A18594  32.104  38.405   7.692
 1089POPC   C1B18595  32.736  38.562   8.722
 1089POPC   C2B18596  32.649  38.291   8.354
 1089POPC   C3B18597  32.533  38.243   7.925
 1089POPC   C4B18598  32.622  38.470   7.548
 1090POPC   NC318599   5.865   7.048   9.423
 1090POPC   PO418600   5.919   6.439   9.464
 1090POPC   GL118601   5.786   6.625   9.091
 1090POPC   GL218602   6.099   6.511   8.973
 1090POPC   C1A18603   5.752   6.730   8.642
 1090POPC   D2A18604   6.104   6.596   8.381
 1090POPC   C3A18605   5.943   6.495   7.941
 1090POPC   C4A18606   5.809   6.716   7.519
 1090POPC   C1B18607   6.165   6.960   8.821
 1090POPC   C2B18608   6.115   7.158   8.425
 1090POPC   C3B18609   6.067   6.977   8.035
 1090POPC   C4B18610   6.051   7.148   7.650
 1091POPC   NC318611  13.570  18.064   9.589
 1091POPC   PO418612  13.789  18.661   9.469
 1091POPC   GL118613  13.555  18.390   9.158
 1091POPC   GL218614  13.739  18.069   9.121
 1091POPC   C1A18615  13.479  18.249   8.711
 1091POPC   D2A18616  13.531  18.475   8.311
 1091POPC   C3A18617  13.481  18.312   7.887
 1091POPC   C4A18618  13.602  18.041   7.540
 1091POPC   C1B18619  13.962  18.322   8.801
 1091POPC   C2B18620  13.970  18.207   8.347
 1091POPC   C3B18621  13.983  18.177   7.881
 1091POPC   C4B18622  13.934  18.433   7.502
 1092POPC   NC318623   8.804  10.944   9.586
 1092POPC   PO418624   9.258  11.410   9.462
 1092POPC   GL118625   9.016  11.402   9.087
 1092POPC   GL218626   8.686  11.335   9.128
 1092POPC   C1A18627   8.855  11.591   8.698
 1092POPC   D2A18628   8.727  11.441   8.285
 1092POPC   C3A18629   9.049  11.449   7.981
 1092POPC   C4A18630   9.344  11.167   7.819
 1092POPC   C1B18631   8.647  11.134   8.717
 1092POPC   C2B18632   8.803  10.877   8.375
 1092POPC   C3B18633   8.859  10.960   7.963
 1092POPC   C4B18634   8.543  11.230   7.847
 1093POPC   NC318635  36.991  23.951   9.452
 1093POPC   PO418636  36.770  23.288   9.544
 1093POPC   GL118637  36.830  23.517   9.199
 1093POPC   GL218638  37.134  23.531   9.134
 1093POPC   C1A18639  36.789  23.604   8.763
 1093POPC   D2A18640  37.013  23.595   8.380
 1093POPC   C3A18641  36.774  23.555   7.996
 1093POPC   C4A18642  36.815  23.649   7.574
 1093POPC   C1B18643  37.203  23.926   8.837
 1093POPC   C2B18644  37.207  24.093   8.444
 1093POPC   C3B18645  36.993  24.012   8.038
 1093POPC   C4B18646  36.920  24.155   7.612
 1094POPC   NC318647   7.032  38.192   9.527
 1094POPC   PO418648   6.320  38.358   9.686
 1094POPC   GL118649   6.634  38.479   9.357
 1094POPC   GL218650   6.993  38.593   9.223
 1094POPC   C1A18651   6.647  38.371   8.938
 1094POPC   D2A18652   6.714  38.461   8.520
 1094POPC   C3A18653   6.571  38.260   8.179
 1094POPC   C4A18654   6.614  38.442   7.784
 1094POPC   C1B18655   7.078  38.831   8.852
 1094POPC   C2B18656   6.957  38.892   8.433
 1094POPC   C3B18657   7.017  38.646   8.077
 1094POPC   C4B18658   6.975  38.782   7.654
 1095POPC   NC318659  43.674  34.658   9.565
 1095POPC   PO418660  44.143  34.211   9.556
 1095POPC   GL118661  43.941  34.419   9.204
 1095POPC   GL218662  44.077  34.774   9.217
 1095POPC   C1A18663  43.979  34.353   8.763
 1095POPC   D2A18664  44.198  34.295   8.383
 1095POPC   C3A18665  43.913  34.357   8.037
 1095POPC   C4A18666  43.967  34.377   7.617
 1095POPC   C1B18667  43.815  34.849   8.841
 1095POPC   C2B18668  43.863  34.739   8.400
 1095POPC   C3B18669  43.736  34.908   7.996
 1095POPC   C4B18670  43.642  34.756   7.617
 1096POPC   NC318671  13.659  30.932   9.420
 1096POPC   PO418672  13.456  30.330   9.676
 1096POPC   GL118673  13.488  30.419   9.204
 1096POPC   GL218674  13.297  30.680   9.164
 1096POPC   C1A18675  13.619  30.600   8.756
 1096POPC   D2A18676  13.861  30.766   8.397
 1096POPC   C3A18677  13.800  30.497   8.038
 1096POPC   C4A18678  13.875  30.586   7.629
 1096POPC   C1B18679  13.163  30.835   8.778
 1096POPC   C2B18680  13.276  31.071   8.432
 1096POPC   C3B18681  13.430  30.845   8.106
 1096POPC   C4B18682  13.384  30.844   7.696
 1097POPC   NC318683   9.402  44.720   9.711
 1097POPC   PO418684   9.838  44.384   9.288
 1097POPC   GL118685   9.728  44.696   9.071
 1097POPC   GL218686   9.500  44.902   9.229
 1097POPC   C1A18687   9.731  44.675   8.651
 1097POPC   D2A18688   9.885  44.872   8.328
 1097POPC   C3A18689   9.748  44.562   8.058
 1097POPC   C4A18690   9.866  44.484   7.650
 1097POPC   C1B18691   9.343  44.960   8.804
 1097POPC   C2B18692   9.361  44.918   8.349
 1097POPC   C3B18693   9.429  44.935   7.910
 1097POPC   C4B18694   9.355  44.529   7.712
 1098POPC   NC318695   6.841  44.356   9.436
 1098POPC   PO418696   6.464  44.820   9.683
 1098POPC   GL118697   6.441  44.887   9.239
 1098POPC   GL218698   6.245  44.599   9.211
 1098POPC   C1A18699   6.554  44.704   8.810
 1098POPC   D2A18700   6.786  44.614   8.408
 1098POPC   C3A18701   6.707  44.938   8.081
 1098POPC   C4A18702   6.779  44.851   7.638
 1098POPC   C1B18703   6.172  44.343   8.827
 1098POPC   C2B18704   6.299  44.449   8.416
 1098POPC   C3B18705   6.333  44.605   8.003
 1098POPC   C4B18706   6.320  44.391   7.603
 1099POPC   NC318707   8.531  14.591   9.520
 1099POPC   PO418708   8.025  14.129   9.505
 1099POPC   GL118709   8.292  14.299   9.146
 1099POPC   GL218710   8.407  14.649   9.038
 1099POPC   C1A18711   8.474  14.272   8.726
 1099POPC   D2A18712   8.389  14.480   8.330
 1099POPC   C3A18713   8.376  14.213   7.962
 1099POPC   C4A18714   8.086  14.204   7.589
 1099POPC   C1B18715   8.054  14.595   8.752
 1099POPC   C2B18716   7.920  14.687   8.336
 1099POPC   C3B18717   8.050  14.615   7.912
 1099POPC   C4B18718   7.968  14.807   7.515
 1100POPC   NC318719  25.035  31.118   9.473
 1100POPC   PO418720  25.454  30.632   9.540
 1100POPC   GL118721  25.472  30.859   9.157
 1100POPC   GL218722  25.118  30.820   9.065
 1100POPC   C1A18723  25.516  30.765   8.716
 1100POPC   D2A18724  25.365  30.543   8.359
 1100POPC   C3A18725  25.495  30.757   7.979
 1100POPC   C4A18726  25.362  30.722   7.518
 1100POPC   C1B18727  24.934  30.690   8.660
 1100POPC   C2B18728  24.867  30.700   8.205
 1100POPC   C3B18729  25.045  30.961   7.873
 1100POPC   C4B18730  25.343  31.213   7.654
 1101POPC   NC318731  17.965   5.479   9.524
 1101POPC   PO418732  18.055   6.140   9.632
 1101POPC   GL118733  18.115   5.905   9.218
 1101POPC   GL218734  17.824   5.713   9.110
 1101POPC   C1A18735  18.401   5.883   8.838
 1101POPC   D2A18736  18.633   6.160   8.536
 1101POPC   C3A18737  18.443   6.154   8.159
 1101POPC   C4A18738  18.384   5.833   7.867
 1101POPC   C1B18739  17.886   5.957   8.770
 1101POPC   C2B18740  18.096   5.919   8.435
 1101POPC   C3B18741  17.970   5.939   8.084
 1101POPC   C4B18742  17.971   6.070   7.644
 1102POPC   NC318743  26.336  22.829   9.590
 1102POPC   PO418744  25.758  22.617   9.696
 1102POPC   GL118745  25.919  22.804   9.276
 1102POPC   GL218746  26.136  23.098   9.199
 1102POPC   C1A18747  26.062  22.759   8.836
 1102POPC   D2A18748  25.986  22.972   8.460
 1102POPC   C3A18749  26.120  22.835   8.060
 1102POPC   C4A18750  25.939  22.971   7.676
 1102POPC   C1B18751  26.409  23.152   8.800
 1102POPC   C2B18752  26.350  23.299   8.348
 1102POPC   C3B18753  26.224  23.309   7.906
 1102POPC   C4B18754  26.206  23.297   7.384
 1103POPC   NC318755  12.698  36.811   9.565
 1103POPC   PO418756  13.294  36.993   9.503
 1103POPC   GL118757  12.994  36.891   9.143
 1103POPC   GL218758  12.668  37.069   9.136
 1103POPC   C1A18759  12.893  36.880   8.703
 1103POPC   D2A18760  12.989  36.591   8.367
 1103POPC   C3A18761  12.902  36.805   7.969
 1103POPC   C4A18762  12.915  36.693   7.506
 1103POPC   C1B18763  12.652  37.329   8.792
 1103POPC   C2B18764  12.753  37.230   8.361
 1103POPC   C3B18765  12.556  37.192   7.980
 1103POPC   C4B18766  12.754  37.154   7.589
 1104POPC   NC318767  10.443  32.636   9.898
 1104POPC   PO418768  10.596  32.185   9.386
 1104POPC   GL118769  10.596  32.114   9.006
 1104POPC   GL218770  10.747  31.790   9.043
 1104POPC   C1A18771  10.492  32.304   8.622
 1104POPC   D2A18772  10.692  32.566   8.345
 1104POPC   C3A18773  10.528  32.423   7.984
 1104POPC   C4A18774  10.452  32.028   7.764
 1104POPC   C1B18775  10.854  31.905   8.624
 1104POPC   C2B18776  10.741  31.950   8.191
 1104POPC   C3B18777  10.952  31.764   7.811
 1104POPC   C4B18778  11.031  31.979   7.396
 1105POPC   NC318779  34.257  34.247   9.435
 1105POPC   PO418780  34.543  33.539   9.562
 1105POPC   GL118781  34.594  33.601   9.130
 1105POPC   GL218782  34.480  33.926   9.052
 1105POPC   C1A18783  34.636  33.558   8.698
 1105POPC   D2A18784  34.554  33.852   8.381
 1105POPC   C3A18785  34.587  33.782   7.970
 1105POPC   C4A18786  34.397  33.535   7.641
 1105POPC   C1B18787  34.257  34.131   8.698
 1105POPC   C2B18788  34.081  34.028   8.276
 1105POPC   C3B18789  34.147  34.019   7.828
 1105POPC   C4B18790  34.528  34.084   7.562
 1106POPC   NC318791  31.867   6.741   9.456
 1106POPC   PO418792  32.442   6.371   9.555
 1106POPC   GL118793  32.316   6.665   9.233
 1106POPC   GL218794  32.156   6.384   9.138
 1106POPC   C1A18795  32.302   6.863   8.836
 1106POPC   D2A18796  32.626   6.909   8.510
 1106POPC   C3A18797  32.630   6.682   8.107
 1106POPC   C4A18798  32.538   6.760   7.688
 1106POPC   C1B18799  31.975   6.474   8.795
 1106POPC   C2B18800  32.134   6.620   8.413
 1106POPC   C3B18801  32.125   6.783   8.020
 1106POPC   C4B18802  32.229   6.394   7.831
 1107POPC   NC318803   4.079  31.445   9.555
 1107POPC   PO418804   4.796  31.344   9.512
 1107POPC   GL118805   4.477  31.428   9.162
 1107POPC   GL218806   4.220  31.171   9.101
 1107POPC   C1A18807   4.281  31.522   8.740
 1107POPC   D2A18808   4.410  31.752   8.369
 1107POPC   C3A18809   4.333  31.611   7.969
 1107POPC   C4A18810   3.940  31.449   7.896
 1107POPC   C1B18811   4.353  30.998   8.676
 1107POPC   C2B18812   4.250  31.165   8.245
 1107POPC   C3B18813   4.319  31.144   7.776
 1107POPC   C4B18814   4.296  31.137   7.299
 1108POPC   NC318815  18.770   0.625   9.381
 1108POPC   PO418816  18.116   0.619   9.492
 1108POPC   GL118817  18.357   0.508   9.090
 1108POPC   GL218818  18.513   0.186   8.976
 1108POPC   C1A18819  18.420   0.642   8.645
 1108POPC   D2A18820  18.278   0.512   8.226
 1108POPC   C3A18821  18.260   0.694   7.806
 1108POPC   C4A18822  18.461   0.915   7.482
 1108POPC   C1B18823  18.142   0.206   8.699
 1108POPC   C2B18824  18.050   0.053   8.267
 1108POPC   C3B18825  18.200   0.191   7.839
 1108POPC   C4B18826  18.043   0.052   7.412
 1109POPC   NC318827  40.962   4.258   9.997
 1109POPC   PO418828  40.608   4.459   9.387
 1109POPC   GL118829  40.861   4.364   9.081
 1109POPC   GL218830  41.095   4.594   8.954
 1109POPC   C1A18831  40.935   4.181   8.702
 1109POPC   D2A18832  40.977   4.433   8.379
 1109POPC   C3A18833  40.958   4.216   8.003
 1109POPC   C4A18834  40.870   4.187   7.578
 1109POPC   C1B18835  40.750   4.760   8.716
 1109POPC   C2B18836  40.583   4.720   8.278
 1109POPC   C3B18837  40.551   4.526   7.837
 1109POPC   C4B18838  40.589   4.533   7.368
 1110POPC   NC318839  28.806  43.331   9.509
 1110POPC   PO418840  28.080  43.160   9.499
 1110POPC   GL118841  28.315  43.112   9.159
 1110POPC   GL218842  28.441  43.462   9.177
 1110POPC   C1A18843  28.141  42.967   8.751
 1110POPC   D2A18844  27.988  42.934   8.330
 1110POPC   C3A18845  28.148  43.169   7.964
 1110POPC   C4A18846  28.205  42.997   7.550
 1110POPC   C1B18847  28.521  43.351   8.763
 1110POPC   C2B18848  28.440  43.186   8.402
 1110POPC   C3B18849  28.641  43.066   8.067
 1110POPC   C4B18850  28.587  43.286   7.705
 1111POPC   NC318851   4.206  33.294   9.610
 1111POPC   PO418852   4.444  32.646   9.440
 1111POPC   GL118853   4.270  32.996   9.159
 1111POPC   GL218854   4.439  33.338   9.158
 1111POPC   C1A18855   4.177  33.183   8.738
 1111POPC   D2A18856   4.229  32.966   8.332
 1111POPC   C3A18857   4.003  32.951   7.960
 1111POPC   C4A18858   4.381  32.821   7.790
 1111POPC   C1B18859   4.653  33.442   8.788
 1111POPC   C2B18860   4.515  33.372   8.362
 1111POPC   C3B18861   4.333  33.351   7.951
 1111POPC   C4B18862   4.512  33.250   7.532
 1112POPC   NC318863  26.984  14.942   9.455
 1112POPC   PO418864  26.397  15.244   9.662
 1112POPC   GL118865  26.634  15.171   9.184
 1112POPC   GL218866  26.964  15.289   9.040
 1112POPC   C1A18867  26.618  15.092   8.722
 1112POPC   D2A18868  26.818  14.785   8.434
 1112POPC   C3A18869  26.825  15.043   8.079
 1112POPC   C4A18870  26.522  15.217   7.793
 1112POPC   C1B18871  27.137  15.113   8.662
 1112POPC   C2B18872  27.212  15.314   8.299
 1112POPC   C3B18873  27.081  15.472   7.911
 1112POPC   C4B18874  27.054  15.189   7.593
 1113POPC   NC318875  31.126  36.957   9.318
 1113POPC   PO418876  30.446  37.033   9.487
 1113POPC   GL118877  30.649  37.156   9.144
 1113POPC   GL218878  30.724  36.821   9.030
 1113POPC   C1A18879  30.894  37.263   8.780
 1113POPC   D2A18880  31.047  37.073   8.401
 1113POPC   C3A18881  30.798  37.060   8.008
 1113POPC   C4A18882  30.621  36.664   7.876
 1113POPC   C1B18883  30.511  36.952   8.669
 1113POPC   C2B18884  30.369  37.076   8.320
 1113POPC   C3B18885  30.211  36.963   7.942
 1113POPC   C4B18886  30.360  36.936   7.509
 1114POPC   NC318887   9.145  36.456   9.860
 1114POPC   PO418888   8.785  35.930   9.535
 1114POPC   GL118889   8.872  35.997   9.120
 1114POPC   GL218890   8.518  36.002   9.082
 1114POPC   C1A18891   9.071  36.137   8.726
 1114POPC   D2A18892   9.353  36.000   8.403
 1114POPC   C3A18893   9.304  36.303   8.131
 1114POPC   C4A18894   9.119  36.443   7.748
 1114POPC   C1B18895   8.625  35.890   8.668
 1114POPC   C2B18896   8.758  36.074   8.275
 1114POPC   C3B18897   8.790  36.036   7.824
 1114POPC   C4B18898   8.896  35.602   7.707
 1115POPC   NC318899  24.561  14.780   9.446
 1115POPC   PO418900  24.293  14.134   9.509
 1115POPC   GL118901  24.547  14.310   9.203
 1115POPC   GL218902  24.286  14.506   9.092
 1115POPC   C1A18903  24.713  14.218   8.783
 1115POPC   D2A18904  24.840  14.348   8.362
 1115POPC   C3A18905  24.579  14.499   8.027
 1115POPC   C4A18906  24.656  14.428   7.608
 1115POPC   C1B18907  24.384  14.588   8.663
 1115POPC   C2B18908  24.178  14.718   8.290
 1115POPC   C3B18909  24.238  14.882   7.868
 1115POPC   C4B18910  24.304  14.773   7.435
 1116POPC   NC318911  17.399  34.633   9.623
 1116POPC   PO418912  17.607  34.099   9.373
 1116POPC   GL118913  17.345  34.373   9.178
 1116POPC   GL218914  17.619  34.615   9.159
 1116POPC   C1A18915  17.196  34.563   8.820
 1116POPC   D2A18916  17.219  34.790   8.457
 1116POPC   C3A18917  17.329  34.581   8.094
 1116POPC   C4A18918  17.353  34.735   7.670
 1116POPC   C1B18919  17.670  34.481   8.735
 1116POPC   C2B18920  17.756  34.711   8.384
 1116POPC   C3B18921  17.784  34.732   7.933
 1116POPC   C4B18922  17.754  34.415   7.599
 1117POPC   NC318923  43.316  30.217   9.446
 1117POPC   PO418924  43.426  29.568   9.357
 1117POPC   GL118925  43.092  29.797   9.123
 1117POPC   GL218926  42.987  30.167   9.070
 1117POPC   C1A18927  43.163  29.873   8.682
 1117POPC   D2A18928  43.038  29.629   8.331
 1117POPC   C3A18929  42.721  29.757   8.076
 1117POPC   C4A18930  42.793  29.873   7.665
 1117POPC   C1B18931  43.042  30.381   8.659
 1117POPC   C2B18932  43.008  30.196   8.235
 1117POPC   C3B18933  43.020  30.343   7.793
 1117POPC   C4B18934  43.221  30.536   7.408
 1118POPC   NC318935  35.713  34.879   9.661
 1118POPC   PO418936  36.109  34.370   9.542
 1118POPC   GL118937  36.275  34.302   9.140
 1118POPC   GL218938  36.133  34.605   9.085
 1118POPC   C1A18939  36.395  34.400   8.684
 1118POPC   D2A18940  36.279  34.666   8.310
 1118POPC   C3A18941  36.272  34.559   7.868
 1118POPC   C4A18942  35.918  34.308   7.823
 1118POPC   C1B18943  35.933  34.653   8.727
 1118POPC   C2B18944  35.768  34.781   8.367
 1118POPC   C3B18945  35.944  34.939   8.027
 1118POPC   C4B18946  35.882  35.283   7.809
 1119POPC   NC318947  30.257  19.338   9.517
 1119POPC   PO418948  30.884  19.205   9.487
 1119POPC   GL118949  30.621  19.067   9.143
 1119POPC   GL218950  30.524  18.740   9.011
 1119POPC   C1A18951  30.769  19.088   8.708
 1119POPC   D2A18952  30.855  19.461   8.464
 1119POPC   C3A18953  30.801  19.264   8.044
 1119POPC   C4A18954  30.599  18.947   7.784
 1119POPC   C1B18955  30.329  18.698   8.617
 1119POPC   C2B18956  30.335  18.817   8.188
 1119POPC   C3B18957  30.218  18.591   7.799
 1119POPC   C4B18958  30.359  18.591   7.368
 1120POPC   NC318959  17.257  40.528   9.320
 1120POPC   PO418960  16.743  40.862   9.518
 1120POPC   GL118961  16.707  40.979   9.084
 1120POPC   GL218962  17.083  40.944   9.030
 1120POPC   C1A18963  16.557  40.708   8.711
 1120POPC   D2A18964  16.694  40.623   8.268
 1120POPC   C3A18965  16.486  40.776   7.911
 1120POPC   C4A18966  16.667  41.120   7.714
 1120POPC   C1B18967  17.015  40.928   8.586
 1120POPC   C2B18968  17.167  40.890   8.169
 1120POPC   C3B18969  16.999  40.727   7.785
 1120POPC   C4B18970  16.713  40.667   7.437
 1121POPC   NC318971  39.016  41.852   9.367
 1121POPC   PO418972  39.224  42.452   9.603
 1121POPC   GL118973  39.066  42.348   9.220
 1121POPC   GL218974  39.368  42.147   9.172
 1121POPC   C1A18975  38.988  42.169   8.793
 1121POPC   D2A18976  38.846  42.325   8.403
 1121POPC   C3A18977  38.902  42.114   8.007
 1121POPC   C4A18978  39.019  42.317   7.642
 1121POPC   C1B18979  39.507  42.114   8.769
 1121POPC   C2B18980  39.355  42.257   8.393
 1121POPC   C3B18981  39.425  42.163   7.977
 1121POPC   C4B18982  39.304  41.906   7.665
 1122POPC   NC318983  29.484  43.748   9.588
 1122POPC   PO418984  28.838  43.801   9.622
 1122POPC   GL118985  29.072  43.921   9.224
 1122POPC   GL218986  29.230  43.623   9.151
 1122POPC   C1A18987  29.299  44.055   8.816
 1122POPC   D2A18988  29.409  44.078   8.363
 1122POPC   C3A18989  29.015  43.941   8.162
 1122POPC   C4A18990  28.856  43.735   7.778
 1122POPC   C1B18991  29.461  43.453   8.783
 1122POPC   C2B18992  29.399  43.580   8.346
 1122POPC   C3B18993  29.403  43.739   7.917
 1122POPC   C4B18994  29.414  43.556   7.526
 1123POPC   NC318995  25.686  11.096   9.583
 1123POPC   PO418996  25.031  11.146   9.524
 1123POPC   GL118997  25.121  11.395   9.189
 1123POPC   GL218998  25.403  11.204   9.158
 1123POPC   C1A18999  25.197  11.485   8.762
 1123POPC   D2A19000  25.136  11.257   8.380
 1123POPC   C3A19001  25.110  11.449   7.985
 1123POPC   C4A19002  25.272  11.286   7.571
 1123POPC   C1B19003  25.545  11.073   8.786
 1123POPC   C2B19004  25.549  10.960   8.388
 1123POPC   C3B19005  25.534  11.133   8.004
 1123POPC   C4B19006  25.713  11.024   7.621
 1124POPC   NC319007  16.588  43.506   9.400
 1124POPC   PO419008  17.018  44.063   9.475
 1124POPC   GL119009  16.718  43.949   9.184
 1124POPC   GL219010  16.482  44.176   9.307
 1124POPC   C1A19011  16.661  43.741   8.774
 1124POPC   D2A19012  16.819  43.657   8.353
 1124POPC   C3A19013  16.537  43.797   8.014
 1124POPC   C4A19014  16.672  44.063   7.668
 1124POPC   C1B19015  16.436  44.199   8.844
 1124POPC   C2B19016  16.560  44.131   8.433
 1124POPC   C3B19017  16.447  44.297   8.056
 1124POPC   C4B19018  16.206  44.302   7.724
 1125POPC   NC319019  41.356   0.955   9.857
 1125POPC   PO419020  40.936   1.329   9.518
 1125POPC   GL119021  40.911   1.368   9.064
 1125POPC   GL219022  41.108   1.665   9.051
 1125POPC   C1A19023  40.690   1.314   8.647
 1125POPC   D2A19024  40.605   1.019   8.297
 1125POPC   C3A19025  40.634   1.203   7.894
 1125POPC   C4A19026  40.728   1.239   7.467
 1125POPC   C1B19027  41.172   1.560   8.595
 1125POPC   C2B19028  40.949   1.486   8.202
 1125POPC   C3B19029  40.974   1.587   7.751
 1125POPC   C4B19030  41.174   1.433   7.403
 1126POPC   NC319031   7.202  15.530   9.474
 1126POPC   PO419032   7.427  14.925   9.421
 1126POPC   GL119033   7.219  15.154   9.069
 1126POPC   GL219034   7.230  15.535   8.966
 1126POPC   C1A19035   7.302  15.205   8.614
 1126POPC   D2A19036   7.376  15.429   8.244
 1126POPC   C3A19037   7.314  15.197   7.870
 1126POPC   C4A19038   7.596  15.131   7.577
 1126POPC   C1B19039   7.588  15.678   8.646
 1126POPC   C2B19040   7.795  15.702   8.223
 1126POPC   C3B19041   7.682  15.560   7.830
 1126POPC   C4B19042   7.435  15.581   7.428
 1127POPC   NC319043  41.067  26.359   9.934
 1127POPC   PO419044  40.706  26.786   9.560
 1127POPC   GL119045  40.692  26.736   9.135
 1127POPC   GL219046  41.000  26.931   9.030
 1127POPC   C1A19047  40.593  26.847   8.730
 1127POPC   D2A19048  40.665  27.075   8.359
 1127POPC   C3A19049  40.463  26.840   8.062
 1127POPC   C4A19050  40.676  26.752   7.693
 1127POPC   C1B19051  41.096  26.545   8.784
 1127POPC   C2B19052  41.185  26.430   8.400
 1127POPC   C3B19053  41.096  26.744   8.082
 1127POPC   C4B19054  41.164  26.667   7.653
 1128POPC   NC319055  32.777  19.304   9.544
 1128POPC   PO419056  33.411  19.151   9.678
 1128POPC   GL119057  33.210  19.075   9.235
 1128POPC   GL219058  33.136  19.375   9.123
 1128POPC   C1A19059  33.086  19.031   8.741
 1128POPC   D2A19060  33.186  18.839   8.285
 1128POPC   C3A19061  32.961  18.937   7.893
 1128POPC   C4A19062  32.793  18.669   7.525
 1128POPC   C1B19063  33.144  19.520   8.676
 1128POPC   C2B19064  33.044  19.341   8.264
 1128POPC   C3B19065  33.031  19.452   7.815
 1128POPC   C4B19066  32.858  19.176   7.457
 1129POPC   NC319067   3.670  34.988   9.422
 1129POPC   PO419068   3.114  35.345   9.681
 1129POPC   GL119069   3.397  35.397   9.260
 1129POPC   GL219070   3.734  35.519   9.203
 1129POPC   C1A19071   3.397  35.283   8.772
 1129POPC   D2A19072   3.278  35.416   8.313
 1129POPC   C3A19073   3.532  35.303   7.906
 1129POPC   C4A19074   3.503  35.467   7.448
 1129POPC   C1B19075   3.908  35.349   8.782
 1129POPC   C2B19076   3.801  35.397   8.339
 1129POPC   C3B19077   3.953  35.580   7.921
 1129POPC   C4B19078   4.010  35.530   7.446
 1130POPC   NC319079   5.664  18.950   9.412
 1130POPC   PO419080   5.323  19.540   9.471
 1130POPC   GL119081   5.599  19.418   9.129
 1130POPC   GL219082   5.980  19.391   9.156
 1130POPC   C1A19083   5.660  19.165   8.771
 1130POPC   D2A19084   5.920  19.087   8.411
 1130POPC   C3A19085   5.716  19.126   8.044
 1130POPC   C4A19086   5.573  18.866   7.731
 1130POPC   C1B19087   6.014  19.518   8.692
 1130POPC   C2B19088   5.978  19.591   8.250
 1130POPC   C3B19089   6.176  19.338   7.938
 1130POPC   C4B19090   6.043  19.075   7.631
 1131POPC   NC319091  30.722  11.580   9.250
 1131POPC   PO419092  30.465  10.977   9.349
 1131POPC   GL119093  30.623  11.105   9.006
 1131POPC   GL219094  30.944  11.041   9.132
 1131POPC   C1A19095  30.724  11.367   8.638
 1131POPC   D2A19096  30.452  11.559   8.316
 1131POPC   C3A19097  30.500  11.536   7.864
 1131POPC   C4A19098  30.605  11.762   7.483
 1131POPC   C1B19099  30.954  10.844   8.748
 1131POPC   C2B19100  30.797  10.937   8.366
 1131POPC   C3B19101  30.859  11.227   8.060
 1131POPC   C4B19102  30.722  11.134   7.646
 1132POPC   NC319103  19.815  44.398   9.630
 1132POPC   PO419104  19.459   0.031   9.488
 1132POPC   GL119105  19.756  44.731   9.224
 1132POPC   GL219106  20.034  44.469   9.199
 1132POPC   C1A19107  19.673  44.489   8.837
 1132POPC   D2A19108  19.650  44.562   8.395
 1132POPC   C3A19109  19.966  44.753   8.162
 1132POPC   C4A19110  19.941  44.780   7.736
 1132POPC   C1B19111  20.166  44.310   8.829
 1132POPC   C2B19112  20.371  44.432   8.472
 1132POPC   C3B19113  20.140  44.275   8.158
 1132POPC   C4B19114  20.037  44.286   7.765
 1133POPC   NC319115  13.902  10.234   9.510
 1133POPC   PO419116  13.966  10.820   9.470
 1133POPC   GL119117  13.727  10.571   9.132
 1133POPC   GL219118  13.368  10.495   9.221
 1133POPC   C1A19119  13.646  10.577   8.668
 1133POPC   D2A19120  13.430  10.396   8.277
 1133POPC   C3A19121  13.593  10.441   7.842
 1133POPC   C4A19122  13.944  10.714   7.733
 1133POPC   C1B19123  13.161  10.479   8.781
 1133POPC   C2B19124  13.057  10.718   8.384
 1133POPC   C3B19125  13.074  10.663   7.919
 1133POPC   C4B19126  13.153  10.507   7.481
 1134POPC   NC319127  32.694   6.847   9.537
 1134POPC   PO419128  33.245   6.377   9.522
 1134POPC   GL119129  33.112   6.634   9.235
 1134POPC   GL219130  32.802   6.493   9.183
 1134POPC   C1A19131  33.165   6.563   8.831
 1134POPC   D2A19132  32.980   6.525   8.460
 1134POPC   C3A19133  33.160   6.696   8.126
 1134POPC   C4A19134  33.077   6.592   7.726
 1134POPC   C1B19135  32.604   6.459   8.807
 1134POPC   C2B19136  32.516   6.274   8.404
 1134POPC   C3B19137  32.659   6.167   8.018
 1134POPC   C4B19138  32.689   6.275   7.615
 1135POPC   NC319139  11.930  32.877   9.397
 1135POPC   PO419140  11.819  33.491   9.701
 1135POPC   GL119141  12.092  33.523   9.255
 1135POPC   GL219142  12.193  33.194   9.067
 1135POPC   C1A19143  12.114  33.557   8.752
 1135POPC   D2A19144  12.197  33.202   8.407
 1135POPC   C3A19145  12.026  33.108   7.970
 1135POPC   C4A19146  11.929  32.981   7.512
 1135POPC   C1B19147  12.169  32.806   8.775
 1135POPC   C2B19148  12.374  32.701   8.409
 1135POPC   C3B19149  12.464  32.832   8.043
 1135POPC   C4B19150  12.204  32.658   7.749
 1136POPC   NC319151   1.036   0.175   9.460
 1136POPC   PO419152   1.518   0.652   9.415
 1136POPC   GL119153   1.451   0.372   9.068
 1136POPC   GL219154   1.106   0.404   9.021
 1136POPC   C1A19155   1.491   0.404   8.626
 1136POPC   D2A19156   1.231   0.665   8.362
 1136POPC   C3A19157   1.177   0.433   7.988
 1136POPC   C4A19158   1.460   0.179   7.769
 1136POPC   C1B19159   0.895   0.676   8.767
 1136POPC   C2B19160   0.737   0.478   8.429
 1136POPC   C3B19161   0.693   0.559   8.021
 1136POPC   C4B19162   0.838   0.539   7.594
 1137POPC   NC319163  31.781  42.968   9.300
 1137POPC   PO419164  32.484  42.912   9.519
 1137POPC   GL119165  32.280  42.863   9.167
 1137POPC   GL219166  32.249  43.232   9.168
 1137POPC   C1A19167  32.159  42.949   8.740
 1137POPC   D2A19168  32.184  42.772   8.347
 1137POPC   C3A19169  32.092  43.031   8.042
 1137POPC   C4A19170  32.264  42.932   7.683
 1137POPC   C1B19171  32.409  43.446   8.805
 1137POPC   C2B19172  32.395  43.276   8.385
 1137POPC   C3B19173  32.373  43.462   7.966
 1137POPC   C4B19174  32.037  43.405   7.657
 1138POPC   NC319175  15.885  36.352   9.517
 1138POPC   PO419176  16.052  37.057   9.476
 1138POPC   GL119177  15.803  36.908   9.168
 1138POPC   GL219178  15.969  36.605   9.103
 1138POPC   C1A19179  15.797  36.893   8.725
 1138POPC   D2A19180  16.055  36.897   8.382
 1138POPC   C3A19181  15.914  36.746   8.004
 1138POPC   C4A19182  15.716  36.977   7.689
 1138POPC   C1B19183  16.175  36.517   8.725
 1138POPC   C2B19184  16.181  36.350   8.307
 1138POPC   C3B19185  16.308  36.437   7.884
 1138POPC   C4B19186  16.143  36.680   7.539
 1139POPC   NC319187   9.100  34.389   9.540
 1139POPC   PO419188   8.483  34.644   9.460
 1139POPC   GL119189   8.932  34.792   9.231
 1139POPC   GL219190   9.320  34.712   9.227
 1139POPC   C1A19191   9.123  34.900   8.804
 1139POPC   D2A19192   8.854  34.877   8.456
 1139POPC   C3A19193   8.971  34.695   8.083
 1139POPC   C4A19194   8.947  34.864   7.685
 1139POPC   C1B19195   9.152  34.396   8.895
 1139POPC   C2B19196   9.291  34.433   8.474
 1139POPC   C3B19197   9.309  34.310   8.079
 1139POPC   C4B19198   9.077  34.370   7.693
 1140POPC   NC319199  30.944   4.380   9.550
 1140POPC   PO419200  30.308   4.045   9.497
 1140POPC   GL119201  30.578   4.132   9.156
 1140POPC   GL219202  30.601   4.469   9.169
 1140POPC   C1A19203  30.791   4.291   8.748
 1140POPC   D2A19204  30.822   4.592   8.420
 1140POPC   C3A19205  30.824   4.394   8.011
 1140POPC   C4A19206  30.677   4.025   7.807
 1140POPC   C1B19207  30.418   4.650   8.805
 1140POPC   C2B19208  30.308   4.795   8.399
 1140POPC   C3B19209  30.408   4.714   7.965
 1140POPC   C4B19210  30.533   4.475   7.601
 1141POPC   NC319211  43.483  40.232   9.492
 1141POPC   PO419212  43.491  39.698   9.053
 1141POPC   GL119213  43.887  39.874   8.976
 1141POPC   GL219214  43.904  40.097   9.213
 1141POPC   C1A19215  44.153  39.874   8.644
 1141POPC   D2A19216  44.113  39.821   8.200
 1141POPC   C3A19217  43.814  39.835   7.877
 1141POPC   C4A19218  43.439  39.931   7.690
 1141POPC   C1B19219  43.864  40.378   8.878
 1141POPC   C2B19220  43.930  40.352   8.444
 1141POPC   C3B19221  43.686  40.274   8.088
 1141POPC   C4B19222  43.821  40.287   7.657
 1142POPC   NC319223  15.618  35.389   9.570
 1142POPC   PO419224  16.295  35.326   9.537
 1142POPC   GL119225  16.037  35.287   9.169
 1142POPC   GL219226  15.692  35.100   9.103
 1142POPC   C1A19227  15.920  35.548   8.835
 1142POPC   D2A19228  15.954  35.513   8.384
 1142POPC   C3A19229  15.903  35.234   8.023
 1142POPC   C4A19230  16.127  35.555   7.788
 1142POPC   C1B19231  15.677  35.162   8.615
 1142POPC   C2B19232  15.460  35.522   8.332
 1142POPC   C3B19233  15.633  35.669   7.926
 1142POPC   C4B19234  15.703  35.429   7.540
 1143POPC   NC319235  12.081  13.967   9.519
 1143POPC   PO419236  12.304  14.663   9.513
 1143POPC   GL119237  12.218  14.356   9.171
 1143POPC   GL219238  12.246  13.998   9.035
 1143POPC   C1A19239  12.297  14.428   8.742
 1143POPC   D2A19240  12.099  14.469   8.354
 1143POPC   C3A19241  12.299  14.204   8.078
 1143POPC   C4A19242  12.208  14.050   7.690
 1143POPC   C1B19243  11.872  14.152   8.775
 1143POPC   C2B19244  11.709  14.131   8.355
 1143POPC   C3B19245  11.714  14.354   7.988
 1143POPC   C4B19246  11.690  14.085   7.649
 1144POPC   NC319247   6.743  18.929   9.625
 1144POPC   PO419248   6.085  18.904   9.595
 1144POPC   GL119249   6.337  18.993   9.244
 1144POPC   GL219250   6.532  19.295   9.234
 1144POPC   C1A19251   6.249  19.095   8.822
 1144POPC   D2A19252   6.406  19.307   8.447
 1144POPC   C3A19253   6.550  19.019   8.184
 1144POPC   C4A19254   6.467  18.867   7.798
 1144POPC   C1B19255   6.758  19.157   8.808
 1144POPC   C2B19256   7.128  18.981   8.581
 1144POPC   C3B19257   7.064  18.900   8.159
 1144POPC   C4B19258   6.894  19.164   7.833
 1145POPC   NC319259  24.980  12.358   9.479
 1145POPC   PO419260  25.624  12.304   9.354
 1145POPC   GL119261  25.320  11.967   9.227
 1145POPC   GL219262  25.542  11.685   9.210
 1145POPC   C1A19263  25.119  11.997   8.822
 1145POPC   D2A19264  25.358  12.109   8.454
 1145POPC   C3A19265  25.215  12.110   8.046
 1145POPC   C4A19266  25.444  12.300   7.687
 1145POPC   C1B19267  25.610  11.806   8.793
 1145POPC   C2B19268  25.515  11.618   8.376
 1145POPC   C3B19269  25.588  11.646   7.952
 1145POPC   C4B19270  25.337  11.800   7.641
 1146POPC   NC319271  18.775  40.387   9.510
 1146POPC   PO419272  19.226  40.913   9.485
 1146POPC   GL119273  19.093  40.926   9.085
 1146POPC   GL219274  18.769  40.822   9.123
 1146POPC   C1A19275  18.941  40.903   8.662
 1146POPC   D2A19276  18.763  40.743   8.329
 1146POPC   C3A19277  19.012  40.969   8.027
 1146POPC   C4A19278  18.962  41.209   7.675
 1146POPC   C1B19279  19.000  40.459   8.914
 1146POPC   C2B19280  19.087  40.348   8.520
 1146POPC   C3B19281  19.118  40.461   8.127
 1146POPC   C4B19282  19.030  40.558   7.727
 1147POPC   NC319283   7.279  16.073   9.614
 1147POPC   PO419284   7.616  15.611   9.282
 1147POPC   GL119285   7.455  16.000   9.126
 1147POPC   GL219286   7.125  16.108   9.068
 1147POPC   C1A19287   7.515  16.240   8.766
 1147POPC   D2A19288   7.554  16.134   8.367
 1147POPC   C3A19289   7.348  15.937   8.080
 1147POPC   C4A19290   7.568  16.036   7.728
 1147POPC   C1B19291   7.121  15.915   8.659
 1147POPC   C2B19292   6.929  15.720   8.327
 1147POPC   C3B19293   7.008  15.603   7.913
 1147POPC   C4B19294   6.988  15.780   7.543
 1148POPC   NC319295  11.962  39.495   9.589
 1148POPC   PO419296  12.054  38.834   9.521
 1148POPC   GL119297  12.312  39.188   9.313
 1148POPC   GL219298  12.130  39.414   9.108
 1148POPC   C1A19299  12.489  39.156   8.895
 1148POPC   D2A19300  12.304  38.976   8.501
 1148POPC   C3A19301  12.129  39.315   8.248
 1148POPC   C4A19302  12.097  39.292   7.797
 1148POPC   C1B19303  11.981  39.033   8.901
 1148POPC   C2B19304  11.788  38.965   8.499
 1148POPC   C3B19305  11.804  38.942   8.079
 1148POPC   C4B19306  11.659  39.039   7.701
 1149POPC   NC319307  24.017  24.012   9.489
 1149POPC   PO419308  24.640  24.090   9.835
 1149POPC   GL119309  24.553  23.897   9.370
 1149POPC   GL219310  24.801  23.633   9.211
 1149POPC   C1A19311  24.576  23.995   8.891
 1149POPC   D2A19312  24.500  24.122   8.440
 1149POPC   C3A19313  24.479  24.011   7.994
 1149POPC   C4A19314  24.167  23.782   7.755
 1149POPC   C1B19315  24.688  23.525   8.734
 1149POPC   C2B19316  24.517  23.571   8.277
 1149POPC   C3B19317  24.481  23.366   7.834
 1149POPC   C4B19318  24.738  23.189   7.479
 1150POPC   NC319319  30.020  44.914   9.698
 1150POPC   PO419320  29.553  44.487   9.488
 1150POPC   GL119321  29.752  44.828   9.246
 1150POPC   GL219322  30.131  44.789   9.192
 1150POPC   C1A19323  29.807  45.000   8.829
 1150POPC   D2A19324  30.156  44.926   8.537
 1150POPC   C3A19325  30.054   0.008   8.127
 1150POPC   C4A19326  29.796   0.009   7.788
 1150POPC   C1B19327  30.300  44.519   8.847
 1150POPC   C2B19328  30.344  44.435   8.389
 1150POPC   C3B19329  30.266  44.565   7.953
 1150POPC   C4B19330  30.341  44.351   7.577
 1151POPC   NC319331  13.202   2.687   9.404
 1151POPC   PO419332  12.560   2.930   9.416
 1151POPC   GL119333  12.820   2.878   9.083
 1151POPC   GL219334  12.866   2.535   9.044
 1151POPC   C1A19335  13.099   2.847   8.727
 1151POPC   D2A19336  13.178   2.914   8.313
 1151POPC   C3A19337  12.925   2.743   7.997
 1151POPC   C4A19338  12.622   2.939   7.712
 1151POPC   C1B19339  13.228   2.346   8.820
 1151POPC   C2B19340  13.184   2.388   8.396
 1151POPC   C3B19341  13.219   2.311   7.975
 1151POPC   C4B19342  13.090   2.489   7.560
 1152POPC   NC319343  14.205  31.764   9.513
 1152POPC   PO419344  14.735  31.330   9.475
 1152POPC   GL119345  14.464  31.449   9.154
 1152POPC   GL219346  14.196  31.207   9.125
 1152POPC   C1A19347  14.495  31.332   8.720
 1152POPC   D2A19348  14.728  31.488   8.382
 1152POPC   C3A19349  14.575  31.539   7.969
 1152POPC   C4A19350  14.532  31.203   7.666
 1152POPC   C1B19351  14.036  31.569   8.853
 1152POPC   C2B19352  14.190  31.601   8.400
 1152POPC   C3B19353  14.075  31.511   7.968
 1152POPC   C4B19354  14.110  31.468   7.508
 1153POPC   NC319355   3.147   5.269   9.446
 1153POPC   PO419356   3.778   5.617   9.561
 1153POPC   GL119357   3.610   5.285   9.219
 1153POPC   GL219358   3.794   4.961   9.208
 1153POPC   C1A19359   3.379   5.088   8.837
 1153POPC   D2A19360   3.290   4.876   8.437
 1153POPC   C3A19361   3.396   5.058   8.056
 1153POPC   C4A19362   3.437   5.322   7.673
 1153POPC   C1B19363   3.885   5.025   8.801
 1153POPC   C2B19364   3.940   4.716   8.476
 1153POPC   C3B19365   3.689   4.593   8.125
 1153POPC   C4B19366   3.805   4.882   7.795
 1154POPC   NC319367   2.762  16.388   9.453
 1154POPC   PO419368   2.572  15.772   9.523
 1154POPC   GL119369   2.761  15.875   9.119
 1154POPC   GL219370   2.498  15.714   9.001
 1154POPC   C1A19371   3.042  16.010   8.767
 1154POPC   D2A19372   3.209  16.065   8.353
 1154POPC   C3A19373   2.888  16.231   8.088
 1154POPC   C4A19374   2.746  16.267   7.681
 1154POPC   C1B19375   2.638  15.656   8.599
 1154POPC   C2B19376   2.776  15.757   8.200
 1154POPC   C3B19377   2.803  15.753   7.760
 1154POPC   C4B19378   2.685  15.604   7.353
 1155POPC   NC319379  44.347  17.902   9.507
 1155POPC   PO419380  43.800  17.705   9.622
 1155POPC   GL119381  43.852  17.552   9.232
 1155POPC   GL219382  43.627  17.341   9.159
 1155POPC   C1A19383  43.806  17.651   8.801
 1155POPC   D2A19384  43.940  17.616   8.430
 1155POPC   C3A19385  43.734  17.744   8.066
 1155POPC   C4A19386  43.999  17.839   7.718
 1155POPC   C1B19387  43.359  17.425   8.854
 1155POPC   C2B19388  43.472  17.418   8.421
 1155POPC   C3B19389  43.479  17.278   8.004
 1155POPC   C4B19390  43.777  17.341   7.677
 1156POPC   NC319391  40.895  18.504   9.718
 1156POPC   PO419392  40.905  19.081   9.328
 1156POPC   GL119393  40.683  19.140   8.972
 1156POPC   GL219394  40.792  18.799   8.919
 1156POPC   C1A19395  40.641  19.114   8.533
 1156POPC   D2A19396  40.704  19.346   8.172
 1156POPC   C3A19397  40.456  19.180   7.855
 1156POPC   C4A19398  40.568  19.088   7.403
 1156POPC   C1B19399  41.127  19.019   8.706
 1156POPC   C2B19400  41.093  19.008   8.288
 1156POPC   C3B19401  40.886  18.914   7.916
 1156POPC   C4B19402  41.021  18.868   7.482
 1157POPC   NC319403   0.069  38.718   9.508
 1157POPC   PO419404  44.831  38.169   9.367
 1157POPC   GL119405  44.572  38.308   9.117
 1157POPC   GL219406  44.603  38.654   9.206
 1157POPC   C1A19407  44.675  38.303   8.725
 1157POPC   D2A19408  44.481  38.326   8.389
 1157POPC   C3A19409  44.801  38.189   8.167
 1157POPC   C4A19410  44.746  38.224   7.765
 1157POPC   C1B19411  44.809  38.788   8.836
 1157POPC   C2B19412  44.942  38.649   8.429
 1157POPC   C3B19413  44.716  38.672   8.075
 1157POPC   C4B19414  44.747  38.732   7.661
 1158POPC   NC319415  13.894  14.178   9.406
 1158POPC   PO419416  13.263  14.379   9.523
 1158POPC   GL119417  13.507  14.453   9.156
 1158POPC   GL219418  13.831  14.645   9.212
 1158POPC   C1A19419  13.444  14.269   8.752
 1158POPC   D2A19420  13.427  14.447   8.353
 1158POPC   C3A19421  13.319  14.298   7.955
 1158POPC   C4A19422  13.401  14.384   7.528
 1158POPC   C1B19423  13.939  14.763   8.786
 1158POPC   C2B19424  13.899  14.719   8.330
 1158POPC   C3B19425  13.834  14.358   8.037
 1158POPC   C4B19426  13.903  14.291   7.605
 1159POPC   NC319427  29.127  42.185   9.348
 1159POPC   PO419428  28.770  42.848   9.450
 1159POPC   GL119429  28.956  42.629   9.119
 1159POPC   GL219430  29.312  42.585   9.044
 1159POPC   C1A19431  28.826  42.346   8.789
 1159POPC   D2A19432  28.893  42.112   8.418
 1159POPC   C3A19433  28.799  42.359   8.047
 1159POPC   C4A19434  28.995  42.416   7.641
 1159POPC   C1B19435  29.345  42.242   8.730
 1159POPC   C2B19436  29.388  42.041   8.332
 1159POPC   C3B19437  29.230  42.007   7.924
 1159POPC   C4B19438  29.514  41.933   7.566
 1160POPC   NC319439  17.277  13.504   9.374
 1160POPC   PO419440  17.729  13.988   9.309
 1160POPC   GL119441  17.598  13.708   9.004
 1160POPC   GL219442  17.587  13.329   8.995
 1160POPC   C1A19443  17.498  13.777   8.611
 1160POPC   D2A19444  17.691  13.633   8.269
 1160POPC   C3A19445  17.610  13.906   7.920
 1160POPC   C4A19446  17.490  13.812   7.539
 1160POPC   C1B19447  17.227  13.368   8.717
 1160POPC   C2B19448  17.120  13.556   8.317
 1160POPC   C3B19449  17.311  13.500   7.932
 1160POPC   C4B19450  17.725  13.393   7.794
 1161POPC   NC319451  20.834  39.962   9.470
 1161POPC   PO419452  20.220  40.069   9.262
 1161POPC   GL119453  20.495  39.906   9.027
 1161POPC   GL219454  20.768  40.145   9.005
 1161POPC   C1A19455  20.536  39.966   8.598
 1161POPC   D2A19456  20.758  40.061   8.269
 1161POPC   C3A19457  20.476  40.052   7.980
 1161POPC   C4A19458  20.305  39.745   7.756
 1161POPC   C1B19459  20.767  40.462   8.623
 1161POPC   C2B19460  20.932  40.523   8.179
 1161POPC   C3B19461  20.939  40.216   7.808
 1161POPC   C4B19462  20.972  39.838   7.507
 1162POPC   NC319463  20.606  28.729   9.803
 1162POPC   PO419464  20.805  28.205   9.458
 1162POPC   GL119465  20.493  28.340   9.158
 1162POPC   GL219466  20.421  28.017   8.990
 1162POPC   C1A19467  20.378  28.491   8.716
 1162POPC   D2A19468  20.463  28.805   8.356
 1162POPC   C3A19469  20.652  28.569   8.039
 1162POPC   C4A19470  20.770  28.656   7.656
 1162POPC   C1B19471  20.827  28.175   8.814
 1162POPC   C2B19472  20.806  28.238   8.421
 1162POPC   C3B19473  20.658  27.937   8.114
 1162POPC   C4B19474  20.648  28.143   7.746
 1163POPC   NC319475  36.492  17.343   9.310
 1163POPC   PO419476  37.115  17.632   9.502
 1163POPC   GL119477  37.023  17.407   9.112
 1163POPC   GL219478  36.960  17.035   9.120
 1163POPC   C1A19479  36.828  17.522   8.714
 1163POPC   D2A19480  36.663  17.796   8.416
 1163POPC   C3A19481  36.996  17.815   8.089
 1163POPC   C4A19482  37.010  17.561   7.698
 1163POPC   C1B19483  36.678  17.040   8.770
 1163POPC   C2B19484  36.463  17.280   8.449
 1163POPC   C3B19485  36.639  17.412   8.072
 1163POPC   C4B19486  36.544  17.181   7.710
 1164POPC   NC319487   2.050  38.822   9.348
 1164POPC   PO419488   1.791  39.371   9.606
 1164POPC   GL119489   1.903  39.506   9.186
 1164POPC   GL219490   2.094  39.204   9.022
 1164POPC   C1A19491   1.998  39.607   8.748
 1164POPC   D2A19492   1.996  39.291   8.446
 1164POPC   C3A19493   2.075  39.396   8.031
 1164POPC   C4A19494   2.020  39.286   7.598
 1164POPC   C1B19495   1.880  38.876   8.735
 1164POPC   C2B19496   1.730  38.847   8.322
 1164POPC   C3B19497   1.872  38.918   7.930
 1164POPC   C4B19498   1.632  38.950   7.585
 1165POPC   NC319499   5.464   8.784   9.334
 1165POPC   PO419500   5.180   9.355   9.593
 1165POPC   GL119501   5.094   9.087   9.166
 1165POPC   GL219502   5.018   8.700   9.117
 1165POPC   C1A19503   5.313   9.081   8.746
 1165POPC   D2A19504   5.552   9.011   8.363
 1165POPC   C3A19505   5.327   9.151   8.037
 1165POPC   C4A19506   5.337   8.826   7.719
 1165POPC   C1B19507   4.886   8.800   8.724
 1165POPC   C2B19508   5.084   8.814   8.352
 1165POPC   C3B19509   4.894   8.884   7.978
 1165POPC   C4B19510   4.825   8.641   7.660
 1166POPC   NC319511  25.497  13.271   9.474
 1166POPC   PO419512  25.152  13.813   9.496
 1166POPC   GL119513  25.145  13.521   9.173
 1166POPC   GL219514  24.793  13.411   9.145
 1166POPC   C1A19515  25.316  13.466   8.755
 1166POPC   D2A19516  25.300  13.759   8.416
 1166POPC   C3A19517  25.474  13.549   8.081
 1166POPC   C4A19518  25.251  13.617   7.747
 1166POPC   C1B19519  24.882  13.726   8.796
 1166POPC   C2B19520  24.743  13.844   8.399
 1166POPC   C3B19521  24.813  13.640   8.038
 1166POPC   C4B19522  24.762  13.553   7.642
 1167POPC   NC319523  31.907  40.461   9.519
 1167POPC   PO419524  31.370  40.872   9.500
 1167POPC   GL119525  31.598  40.916   9.135
 1167POPC   GL219526  31.692  40.580   9.065
 1167POPC   C1A19527  31.501  40.941   8.702
 1167POPC   D2A19528  31.633  40.884   8.262
 1167POPC   C3A19529  31.344  40.936   7.928
 1167POPC   C4A19530  31.088  40.704   7.589
 1167POPC   C1B19531  31.293  40.483   8.905
 1167POPC   C2B19532  31.360  40.503   8.478
 1167POPC   C3B19533  31.248  40.437   8.076
 1167POPC   C4B19534  31.517  40.479   7.772
 1168POPC   NC319535  31.883  31.279   9.425
 1168POPC   PO419536  31.444  31.767   9.518
 1168POPC   GL119537  31.494  31.667   9.154
 1168POPC   GL219538  31.851  31.747   9.202
 1168POPC   C1A19539  31.370  31.482   8.770
 1168POPC   D2A19540  31.605  31.378   8.420
 1168POPC   C3A19541  31.425  31.282   8.073
 1168POPC   C4A19542  31.235  31.549   7.809
 1168POPC   C1B19543  31.861  31.622   8.808
 1168POPC   C2B19544  31.839  31.844   8.443
 1168POPC   C3B19545  31.659  31.767   8.073
 1168POPC   C4B19546  31.739  31.567   7.700
 1169POPC   NC319547   1.639  16.821   9.790
 1169POPC   PO419548   2.297  16.581   9.527
 1169POPC   GL119549   2.102  16.657   9.107
 1169POPC   GL219550   1.795  16.495   8.955
 1169POPC   C1A19551   2.064  16.853   8.685
 1169POPC   D2A19552   1.951  17.066   8.282
 1169POPC   C3A19553   2.095  16.926   7.885
 1169POPC   C4A19554   1.726  16.792   7.654
 1169POPC   C1B19555   2.055  16.316   8.687
 1169POPC   C2B19556   2.281  16.506   8.367
 1169POPC   C3B19557   1.977  16.471   8.066
 1169POPC   C4B19558   1.980  16.295   7.684
 1170POPC   NC319559  17.646  26.740   9.541
 1170POPC   PO419560  17.020  26.814   9.211
 1170POPC   GL119561  17.448  26.799   9.052
 1170POPC   GL219562  17.743  26.602   9.070
 1170POPC   C1A19563  17.670  26.935   8.674
 1170POPC   D2A19564  17.413  26.883   8.304
 1170POPC   C3A19565  17.417  27.168   7.926
 1170POPC   C4A19566  17.858  27.134   7.718
 1170POPC   C1B19567  17.536  26.393   8.716
 1170POPC   C2B19568  17.762  26.283   8.349
 1170POPC   C3B19569  17.923  26.621   8.087
 1170POPC   C4B19570  17.580  26.702   7.855
 1171POPC   NC319571   6.154  14.237   9.299
 1171POPC   PO419572   5.642  14.616   9.356
 1171POPC   GL119573   5.730  14.341   9.024
 1171POPC   GL219574   5.718  13.949   9.065
 1171POPC   C1A19575   6.033  14.465   8.703
 1171POPC   D2A19576   6.059  14.769   8.399
 1171POPC   C3A19577   5.892  14.538   8.113
 1171POPC   C4A19578   5.832  14.541   7.718
 1171POPC   C1B19579   5.712  14.066   8.602
 1171POPC   C2B19580   6.102  14.105   8.337
 1171POPC   C3B19581   6.171  14.150   7.900
 1171POPC   C4B19582   5.754  14.071   7.857
 1172POPC   NC319583  12.273  34.911   9.540
 1172POPC   PO419584  11.788  34.323   9.595
 1172POPC   GL119585  12.027  34.517   9.304
 1172POPC   GL219586  11.902  34.816   9.195
 1172POPC   C1A19587  12.038  34.418   8.888
 1172POPC   D2A19588  11.979  34.502   8.471
 1172POPC   C3A19589  12.146  34.257   8.148
 1172POPC   C4A19590  12.311  34.370   7.755
 1172POPC   C1B19591  11.886  34.907   8.790
 1172POPC   C2B19592  12.117  35.013   8.434
 1172POPC   C3B19593  12.037  34.817   8.063
 1172POPC   C4B19594  11.926  34.733   7.680
 1173POPC   NC319595  21.386  11.476   9.532
 1173POPC   PO419596  21.139  10.850   9.559
 1173POPC   GL119597  21.351  11.052   9.218
 1173POPC   GL219598  21.091  11.269   9.100
 1173POPC   C1A19599  21.568  11.288   8.875
 1173POPC   D2A19600  21.610  11.262   8.431
 1173POPC   C3A19601  21.768  11.499   8.109
 1173POPC   C4A19602  21.634  11.236   7.752
 1173POPC   C1B19603  21.123  11.274   8.658
 1173POPC   C2B19604  21.235  11.609   8.351
 1173POPC   C3B19605  21.267  11.540   7.950
 1173POPC   C4B19606  21.104  11.161   7.843
 1174POPC   NC319607  34.948  20.386   9.424
 1174POPC   PO419608  35.288  20.918   9.671
 1174POPC   GL119609  35.223  20.718   9.154
 1174POPC   GL219610  35.066  20.457   8.946
 1174POPC   C1A19611  35.473  20.603   8.717
 1174POPC   D2A19612  35.686  20.697   8.325
 1174POPC   C3A19613  35.631  20.498   7.921
 1174POPC   C4A19614  35.414  20.500   7.518
 1174POPC   C1B19615  34.981  20.782   8.677
 1174POPC   C2B19616  35.035  20.560   8.308
 1174POPC   C3B19617  35.113  20.565   7.905
 1174POPC   C4B19618  35.007  20.887   7.643
 1175POPC   NC319619  38.313  41.439   9.658
 1175POPC   PO419620  38.987  41.503   9.655
 1175POPC   GL119621  38.739  41.468   9.215
 1175POPC   GL219622  38.535  41.223   9.228
 1175POPC   C1A19623  38.603  41.745   8.824
 1175POPC   D2A19624  38.775  41.816   8.413
 1175POPC   C3A19625  38.591  41.605   8.053
 1175POPC   C4A19626  38.533  41.883   7.708
 1175POPC   C1B19627  38.598  41.235   8.787
 1175POPC   C2B19628  38.346  41.256   8.430
 1175POPC   C3B19629  38.009  41.396   8.134
 1175POPC   C4B19630  38.193  41.470   7.723
 1176POPC   NC319631  37.144  14.693   9.540
 1176POPC   PO419632  36.630  14.374   9.733
 1176POPC   GL119633  36.769  14.451   9.261
 1176POPC   GL219634  37.092  14.453   9.088
 1176POPC   C1A19635  36.706  14.643   8.826
 1176POPC   D2A19636  36.692  14.471   8.405
 1176POPC   C3A19637  36.898  14.591   8.020
 1176POPC   C4A19638  36.769  14.470   7.618
 1176POPC   C1B19639  37.362  14.262   8.761
 1176POPC   C2B19640  37.458  14.138   8.294
 1176POPC   C3B19641  37.382  14.303   7.836
 1176POPC   C4B19642  37.193  14.298   7.387
 1177POPC   NC319643   2.611   8.010   9.522
 1177POPC   PO419644   3.206   8.262   9.706
 1177POPC   GL119645   2.903   8.313   9.276
 1177POPC   GL219646   2.825   8.006   9.054
 1177POPC   C1A19647   2.747   8.459   8.888
 1177POPC   D2A19648   2.676   8.163   8.540
 1177POPC   C3A19649   2.777   8.259   8.126
 1177POPC   C4A19650   2.601   8.406   7.774
 1177POPC   C1B19651   2.516   7.777   8.842
 1177POPC   C2B19652   2.452   7.700   8.375
 1177POPC   C3B19653   2.553   7.855   7.913
 1177POPC   C4B19654   2.529   8.013   7.454
 1178POPC   NC319655   5.448  16.044   9.314
 1178POPC   PO419656   6.082  15.919   9.416
 1178POPC   GL119657   6.101  16.011   8.998
 1178POPC   GL219658   5.909  16.292   9.110
 1178POPC   C1A19659   5.912  15.755   8.683
 1178POPC   D2A19660   5.529  15.681   8.446
 1178POPC   C3A19661   5.665  15.611   8.028
 1178POPC   C4A19662   5.747  15.674   7.578
 1178POPC   C1B19663   5.706  16.294   8.730
 1178POPC   C2B19664   5.815  16.166   8.353
 1178POPC   C3B19665   5.826  16.109   7.932
 1178POPC   C4B19666   6.115  16.046   7.646
 1179POPC   NC319667  26.397  43.695   9.564
 1179POPC   PO419668  25.767  43.978   9.510
 1179POPC   GL119669  25.974  44.090   9.166
 1179POPC   GL219670  26.099  43.765   9.120
 1179POPC   C1A19671  25.786  44.056   8.761
 1179POPC   D2A19672  25.933  44.141   8.383
 1179POPC   C3A19673  25.806  43.858   8.093
 1179POPC   C4A19674  25.933  44.055   7.720
 1179POPC   C1B19675  26.285  43.877   8.715
 1179POPC   C2B19676  26.291  43.763   8.271
 1179POPC   C3B19677  26.374  43.794   7.806
 1179POPC   C4B19678  26.275  43.906   7.361
 1180POPC   NC319679  35.120  35.491   9.583
 1180POPC   PO419680  35.758  35.308   9.487
 1180POPC   GL119681  35.428  35.417   9.162
 1180POPC   GL219682  35.359  35.761   8.998
 1180POPC   C1A19683  35.240  35.327   8.762
 1180POPC   D2A19684  35.491  35.246   8.401
 1180POPC   C3A19685  35.418  35.112   8.005
 1180POPC   C4A19686  35.062  35.126   7.739
 1180POPC   C1B19687  35.638  35.697   8.642
 1180POPC   C2B19688  35.597  35.753   8.197
 1180POPC   C3B19689  35.462  35.585   7.810
 1180POPC   C4B19690  35.748  35.632   7.459
 1181POPC   NC319691  13.400  42.013   9.549
 1181POPC   PO419692  13.313  42.717   9.468
 1181POPC   GL119693  13.398  42.573   9.095
 1181POPC   GL219694  13.681  42.387   9.238
 1181POPC   C1A19695  13.704  42.609   8.759
 1181POPC   D2A19696  13.832  42.340   8.411
 1181POPC   C3A19697  13.510  42.450   8.112
 1181POPC   C4A19698  13.327  42.654   7.761
 1181POPC   C1B19699  13.522  42.126   8.895
 1181POPC   C2B19700  13.362  42.102   8.492
 1181POPC   C3B19701  13.528  41.929   8.137
 1181POPC   C4B19702  13.341  42.119   7.753
 1182POPC   NC319703  23.309  10.439   9.532
 1182POPC   PO419704  22.729  10.850   9.540
 1182POPC   GL119705  22.783  10.558   9.185
 1182POPC   GL219706  22.509  10.320   9.087
 1182POPC   C1A19707  22.965  10.477   8.781
 1182POPC   D2A19708  23.260  10.521   8.438
 1182POPC   C3A19709  23.076  10.533   8.026
 1182POPC   C4A19710  23.124  10.277   7.654
 1182POPC   C1B19711  22.471  10.213   8.652
 1182POPC   C2B19712  22.546  10.030   8.237
 1182POPC   C3B19713  22.639  10.277   7.866
 1182POPC   C4B19714  22.767  10.642   7.600
 1183POPC   NC319715  15.876  39.362   9.649
 1183POPC   PO419716  16.056  38.738   9.511
 1183POPC   GL119717  16.073  39.153   9.220
 1183POPC   GL219718  15.803  39.460   9.150
 1183POPC   C1A19719  16.080  39.255   8.767
 1183POPC   D2A19720  15.808  39.229   8.405
 1183POPC   C3A19721  16.016  39.146   8.026
 1183POPC   C4A19722  15.998  39.356   7.646
 1183POPC   C1B19723  15.608  39.659   8.757
 1183POPC   C2B19724  15.616  39.695   8.285
 1183POPC   C3B19725  15.566  39.388   7.932
 1183POPC   C4B19726  15.560  38.932   7.773
 1184POPC   NC319727   5.144   7.642   9.392
 1184POPC   PO419728   5.268   8.371   9.442
 1184POPC   GL119729   5.169   8.212   9.071
 1184POPC   GL219730   4.845   8.145   9.142
 1184POPC   C1A19731   5.243   8.413   8.691
 1184POPC   D2A19732   5.476   8.454   8.311
 1184POPC   C3A19733   5.167   8.427   8.000
 1184POPC   C4A19734   5.204   8.318   7.579
 1184POPC   C1B19735   4.883   7.919   8.762
 1184POPC   C2B19736   4.967   8.109   8.377
 1184POPC   C3B19737   4.894   7.974   8.000
 1184POPC   C4B19738   4.734   8.102   7.634
 1185POPC   NC319739  20.043   1.873   9.362
 1185POPC   PO419740  19.570   2.310   9.483
 1185POPC   GL119741  19.868   2.305   9.169
 1185POPC   GL219742  19.660   2.044   9.021
 1185POPC   C1A19743  20.011   2.297   8.755
 1185POPC   D2A19744  19.663   2.237   8.480
 1185POPC   C3A19745  19.741   2.220   8.073
 1185POPC   C4A19746  19.464   2.134   7.751
 1185POPC   C1B19747  19.826   1.810   8.681
 1185POPC   C2B19748  19.693   1.751   8.278
 1185POPC   C3B19749  19.814   1.736   7.870
 1185POPC   C4B19750  20.061   1.711   7.489
 1186POPC   NC319751  18.852  41.209   9.445
 1186POPC   PO419752  19.333  41.616   9.441
 1186POPC   GL119753  19.142  41.575   9.051
 1186POPC   GL219754  18.869  41.364   8.952
 1186POPC   C1A19755  19.031  41.822   8.709
 1186POPC   D2A19756  19.134  41.864   8.279
 1186POPC   C3A19757  18.931  41.647   7.952
 1186POPC   C4A19758  18.967  41.684   7.481
 1186POPC   C1B19759  18.847  41.386   8.496
 1186POPC   C2B19760  19.232  41.353   8.267
 1186POPC   C3B19761  19.436  41.315   7.865
 1186POPC   C4B19762  19.383  41.398   7.418
 1187POPC   NC319763  15.733  32.773   9.203
 1187POPC   PO419764  15.967  32.401   9.783
 1187POPC   GL119765  15.954  32.260   9.293
 1187POPC   GL219766  16.217  32.390   9.113
 1187POPC   C1A19767  15.998  32.083   8.802
 1187POPC   D2A19768  16.074  31.867   8.372
 1187POPC   C3A19769  16.076  32.170   8.028
 1187POPC   C4A19770  15.708  32.351   7.824
 1187POPC   C1B19771  16.257  32.558   8.695
 1187POPC   C2B19772  16.368  32.737   8.293
 1187POPC   C3B19773  16.389  32.602   7.894
 1187POPC   C4B19774  16.169  32.566   7.519
 1188POPC   NC319775  30.360  11.337   9.637
 1188POPC   PO419776  29.617  11.327   9.581
 1188POPC   GL119777  29.619  11.204   9.170
 1188POPC   GL219778  29.947  11.025   9.220
 1188POPC   C1A19779  29.630  11.303   8.730
 1188POPC   D2A19780  29.840  11.119   8.363
 1188POPC   C3A19781  29.671  11.180   7.944
 1188POPC   C4A19782  29.588  11.524   7.643
 1188POPC   C1B19783  30.130  11.287   8.867
 1188POPC   C2B19784  30.324  11.086   8.511
 1188POPC   C3B19785  30.293  11.085   8.067
 1188POPC   C4B19786  30.119  11.224   7.683
 1189POPC   NC319787  40.932  33.147   9.436
 1189POPC   PO419788  40.508  32.655   9.449
 1189POPC   GL119789  40.635  32.731   9.065
 1189POPC   GL219790  40.548  33.091   9.054
 1189POPC   C1A19791  41.008  32.783   8.827
 1189POPC   D2A19792  41.058  33.041   8.486
 1189POPC   C3A19793  40.918  32.957   8.044
 1189POPC   C4A19794  41.046  33.202   7.677
 1189POPC   C1B19795  40.516  32.964   8.605
 1189POPC   C2B19796  40.463  33.204   8.203
 1189POPC   C3B19797  40.530  33.296   7.737
 1189POPC   C4B19798  40.490  33.383   7.265
 1190POPC   NC319799  29.221  19.831   9.625
 1190POPC   PO419800  29.688  20.366   9.474
 1190POPC   GL119801  29.382  20.563   9.179
 1190POPC   GL219802  29.049  20.768   9.212
 1190POPC   C1A19803  29.311  20.687   8.746
 1190POPC   D2A19804  29.375  20.901   8.345
 1190POPC   C3A19805  29.441  20.583   8.054
 1190POPC   C4A19806  29.241  20.463   7.691
 1190POPC   C1B19807  28.842  20.880   8.808
 1190POPC   C2B19808  28.883  20.737   8.369
 1190POPC   C3B19809  28.810  20.605   7.941
 1190POPC   C4B19810  28.813  20.737   7.517
 1191POPC   NC319811  23.068  11.194   9.471
 1191POPC   PO419812  22.523  11.540   9.339
 1191POPC   GL119813  22.793  11.428   9.121
 1191POPC   GL219814  22.715  11.088   9.104
 1191POPC   C1A19815  23.051  11.533   8.834
 1191POPC   D2A19816  22.914  11.519   8.427
 1191POPC   C3A19817  23.141  11.464   8.108
 1191POPC   C4A19818  22.940  11.464   7.759
 1191POPC   C1B19819  22.988  11.015   8.760
 1191POPC   C2B19820  23.116  11.005   8.334
 1191POPC   C3B19821  22.934  10.999   7.930
 1191POPC   C4B19822  23.049  11.053   7.463
 1192POPC   NC319823  11.265  13.984   9.476
 1192POPC   PO419824  11.505  13.346   9.288
 1192POPC   GL119825  11.511  13.726   9.106
 1192POPC   GL219826  11.160  13.691   9.056
 1192POPC   C1A19827  11.448  13.828   8.679
 1192POPC   D2A19828  11.234  13.633   8.312
 1192POPC   C3A19829  11.472  13.584   7.964
 1192POPC   C4A19830  11.336  13.693   7.581
 1192POPC   C1B19831  11.209  13.343   8.727
 1192POPC   C2B19832  11.044  13.167   8.340
 1192POPC   C3B19833  11.075  13.289   7.900
 1192POPC   C4B19834  11.046  13.275   7.445
 1193POPC   NC319835  10.165  14.395   9.637
 1193POPC   PO419836   9.604  14.528   9.596
 1193POPC   GL119837   9.858  14.529   9.227
 1193POPC   GL219838   9.737  14.203   9.082
 1193POPC   C1A19839   9.775  14.615   8.793
 1193POPC   D2A19840   9.803  14.321   8.437
 1193POPC   C3A19841   9.715  14.498   8.044
 1193POPC   C4A19842  10.049  14.474   7.750
 1193POPC   C1B19843   9.415  14.171   8.738
 1193POPC   C2B19844   9.318  14.149   8.272
 1193POPC   C3B19845   9.390  14.174   7.834
 1193POPC   C4B19846   9.397  13.892   7.529
 1194POPC   NC319847   3.797  32.102   9.756
 1194POPC   PO419848   3.499  32.445   9.252
 1194POPC   GL119849   3.536  32.006   9.148
 1194POPC   GL219850   3.880  31.939   9.248
 1194POPC   C1A19851   3.459  31.987   8.696
 1194POPC   D2A19852   3.379  32.315   8.379
 1194POPC   C3A19853   3.344  32.177   7.958
 1194POPC   C4A19854   3.120  32.281   7.605
 1194POPC   C1B19855   4.036  31.989   8.828
 1194POPC   C2B19856   3.898  32.128   8.439
 1194POPC   C3B19857   4.000  31.987   8.057
 1194POPC   C4B19858   3.765  31.935   7.703
 1195POPC   NC319859  11.708  23.003   9.496
 1195POPC   PO419860  11.111  22.666   9.592
 1195POPC   GL119861  11.078  22.820   9.182
 1195POPC   GL219862  11.376  22.923   9.139
 1195POPC   C1A19863  11.029  22.990   8.769
 1195POPC   D2A19864  11.233  23.183   8.455
 1195POPC   C3A19865  11.291  22.902   8.114
 1195POPC   C4A19866  11.000  22.860   7.796
 1195POPC   C1B19867  11.577  22.651   8.892
 1195POPC   C2B19868  11.511  22.517   8.484
 1195POPC   C3B19869  11.755  22.538   8.139
 1195POPC   C4B19870  11.562  22.614   7.779
 1196POPC   NC319871  38.561  37.344   9.751
 1196POPC   PO419872  38.884  37.590   9.219
 1196POPC   GL119873  38.425  37.563   9.144
 1196POPC   GL219874  38.548  37.381   8.905
 1196POPC   C1A19875  38.202  37.752   8.757
 1196POPC   D2A19876  38.362  37.860   8.327
 1196POPC   C3A19877  38.178  37.718   7.934
 1196POPC   C4A19878  38.207  37.876   7.489
 1196POPC   C1B19879  38.901  37.328   8.637
 1196POPC   C2B19880  38.906  37.402   8.230
 1196POPC   C3B19881  38.717  37.663   7.988
 1196POPC   C4B19882  38.603  37.588   7.581
 1197POPC   NC319883   4.933  19.338   9.311
 1197POPC   PO419884   5.241  18.794   9.515
 1197POPC   GL119885   5.236  18.975   9.118
 1197POPC   GL219886   4.903  18.850   9.122
 1197POPC   C1A19887   5.152  19.133   8.714
 1197POPC   D2A19888   5.340  18.952   8.368
 1197POPC   C3A19889   5.188  19.070   8.006
 1197POPC   C4A19890   5.245  19.239   7.612
 1197POPC   C1B19891   4.735  18.820   8.755
 1197POPC   C2B19892   4.812  18.922   8.372
 1197POPC   C3B19893   4.674  18.985   7.998
 1197POPC   C4B19894   4.869  18.882   7.638
 1198POPC   NC319895  43.823  31.697   9.571
 1198POPC   PO419896  43.479  31.097   9.507
 1198POPC   GL119897  43.670  31.362   9.188
 1198POPC   GL219898  43.751  31.719   9.079
 1198POPC   C1A19899  43.505  31.398   8.768
 1198POPC   D2A19900  43.393  31.256   8.367
 1198POPC   C3A19901  43.737  31.388   8.161
 1198POPC   C4A19902  43.884  31.154   7.845
 1198POPC   C1B19903  44.028  31.441   8.842
 1198POPC   C2B19904  44.169  31.328   8.449
 1198POPC   C3B19905  44.237  31.520   8.071
 1198POPC   C4B19906  44.272  31.422   7.664
 1199POPC   NC319907  16.222   6.255   9.575
 1199POPC   PO419908  15.744   6.839   9.625
 1199POPC   GL119909  15.879   6.693   9.199
 1199POPC   GL219910  16.068   6.984   9.085
 1199POPC   C1A19911  15.905   6.640   8.726
 1199POPC   D2A19912  15.608   6.686   8.345
 1199POPC   C3A19913  15.777   6.811   7.942
 1199POPC   C4A19914  16.019   6.464   7.807
 1199POPC   C1B19915  16.275   7.028   8.719
 1199POPC   C2B19916  16.142   6.851   8.317
 1199POPC   C3B19917  16.335   6.840   7.921
 1199POPC   C4B19918  16.129   7.132   7.681
 1200POPC   NC319919  41.031  31.312   9.339
 1200POPC   PO419920  40.920  31.906   9.656
 1200POPC   GL119921  40.652  31.691   9.146
 1200POPC   GL219922  40.751  31.338   8.949
 1200POPC   C1A19923  40.817  31.734   8.655
 1200POPC   D2A19924  41.082  31.535   8.329
 1200POPC   C3A19925  40.888  31.597   7.944
 1200POPC   C4A19926  40.494  31.642   7.743
 1200POPC   C1B19927  41.111  31.167   8.699
 1200POPC   C2B19928  41.190  31.034   8.273
 1200POPC   C3B19929  40.850  31.053   8.005
 1200POPC   C4B19930  40.946  31.181   7.627
 1201POPC   NC319931   4.310   0.937   9.750
 1201POPC   PO419932   3.884   1.387   9.603
 1201POPC   GL119933   3.980   1.022   9.273
 1201POPC   GL219934   4.355   0.942   9.244
 1201POPC   C1A19935   4.080   0.981   8.809
 1201POPC   D2A19936   4.043   1.284   8.476
 1201POPC   C3A19937   4.180   1.139   8.090
 1201POPC   C4A19938   4.093   1.269   7.700
 1201POPC   C1B19939   4.568   0.827   8.854
 1201POPC   C2B19940   4.530   0.947   8.423
 1201POPC   C3B19941   4.488   0.731   8.018
 1201POPC   C4B19942   4.601   0.855   7.623
 1202POPC   NC319943  36.237  19.528   9.457
 1202POPC   PO419944  36.007  20.167   9.498
 1202POPC   GL119945  36.192  19.944   9.151
 1202POPC   GL219946  35.882  19.741   9.164
 1202POPC   C1A19947  36.424  19.737   8.822
 1202POPC   D2A19948  36.349  19.617   8.402
 1202POPC   C3A19949  36.300  19.951   8.087
 1202POPC   C4A19950  36.274  20.018   7.663
 1202POPC   C1B19951  35.927  19.700   8.732
 1202POPC   C2B19952  35.836  19.836   8.313
 1202POPC   C3B19953  35.807  20.009   7.903
 1202POPC   C4B19954  35.806  19.862   7.482
 1203POPC   NC319955  16.378  32.299   9.599
 1203POPC   PO419956  16.918  32.082   9.815
 1203POPC   GL119957  16.939  32.180   9.283
 1203POPC   GL219958  16.706  32.378   9.201
 1203POPC   C1A19959  16.797  31.967   8.867
 1203POPC   D2A19960  16.497  32.112   8.529
 1203POPC   C3A19961  16.618  32.173   8.100
 1203POPC   C4A19962  16.462  32.143   7.673
 1203POPC   C1B19963  16.765  32.463   8.775
 1203POPC   C2B19964  16.872  32.586   8.360
 1203POPC   C3B19965  16.981  32.589   7.919
 1203POPC   C4B19966  16.741  32.549   7.513
 1204POPC   NC319967  31.701  11.215   9.430
 1204POPC   PO419968  31.070  11.389   9.481
 1204POPC   GL119969  31.289  11.421   9.139
 1204POPC   GL219970  31.485  11.670   9.117
 1204POPC   C1A19971  31.242  11.293   8.730
 1204POPC   D2A19972  31.130  11.579   8.403
 1204POPC   C3A19973  31.334  11.559   8.028
 1204POPC   C4A19974  31.028  11.602   7.710
 1204POPC   C1B19975  31.697  11.522   8.808
 1204POPC   C2B19976  31.664  11.355   8.416
 1204POPC   C3B19977  31.926  11.375   8.089
 1204POPC   C4B19978  31.768  11.481   7.728
 1205POPC   NC319979   8.195  19.273   9.498
 1205POPC   PO419980   7.637  19.054   9.453
 1205POPC   GL119981   7.968  18.895   9.168
 1205POPC   GL219982   8.372  18.924   9.155
 1205POPC   C1A19983   8.059  19.102   8.786
 1205POPC   D2A19984   8.182  18.957   8.411
 1205POPC   C3A19985   8.101  19.155   8.070
 1205POPC   C4A19986   7.879  19.416   7.866
 1205POPC   C1B19987   8.575  19.084   8.766
 1205POPC   C2B19988   8.557  19.305   8.349
 1205POPC   C3B19989   8.564  19.212   7.896
 1205POPC   C4B19990   8.634  19.215   7.400
 1206POPC   NC319991  27.079  32.804   9.295
 1206POPC   PO419992  26.964  33.336   9.669
 1206POPC   GL119993  26.758  33.178   9.179
 1206POPC   GL219994  26.576  32.841   9.091
 1206POPC   C1A19995  26.907  32.991   8.698
 1206POPC   D2A19996  26.785  32.769   8.306
 1206POPC   C3A19997  26.930  32.938   7.887
 1206POPC   C4A19998  26.792  33.367   7.893
 1206POPC   C1B19999  26.437  33.144   8.757
 1206POPC   C2B20000  26.460  33.167   8.294
 1206POPC   C3B20001  26.429  32.923   7.893
 1206POPC   C4B20002  26.575  33.090   7.522
 1207POPC   NC320003   6.991  41.621   9.486
 1207POPC   PO420004   7.690  41.749   9.625
 1207POPC   GL120005   7.714  41.641   9.160
 1207POPC   GL220006   7.365  41.643   9.136
 1207POPC   C1A20007   7.606  41.462   8.735
 1207POPC   D2A20008   7.676  41.231   8.367
 1207POPC   C3A20009   7.556  41.444   8.005
 1207POPC   C4A20010   7.457  41.482   7.593
 1207POPC   C1B20011   7.300  41.875   8.743
 1207POPC   C2B20012   7.310  41.746   8.325
 1207POPC   C3B20013   7.118  41.718   7.907
 1207POPC   C4B20014   7.052  41.760   7.450
 1208POPC   NC320015  44.888   6.566   9.670
 1208POPC   PO420016  44.314   6.858   9.626
 1208POPC   GL120017  44.546   6.643   9.268
 1208POPC   GL220018  44.853   6.825   9.208
 1208POPC   C1A20019  44.394   6.502   8.856
 1208POPC   D2A20020  44.606   6.600   8.464
 1208POPC   C3A20021  44.462   6.563   8.054
 1208POPC   C4A20022  44.456   6.734   7.622
 1208POPC   C1B20023  44.912   6.510   8.885
 1208POPC   C2B20024   0.069   6.402   8.489
 1208POPC   C3B20025  44.979   6.356   8.093
 1208POPC   C4B20026  44.906   6.617   7.792
 1209POPC   NC320027  38.103  40.511   9.351
 1209POPC   PO420028  37.468  40.715   9.392
 1209POPC   GL120029  37.727  40.843   9.088
 1209POPC   GL220030  38.031  40.999   9.277
 1209POPC   C1A20031  37.532  40.687   8.698
 1209POPC   D2A20032  37.289  40.371   8.457
 1209POPC   C3A20033  37.360  40.523   8.038
 1209POPC   C4A20034  37.633  40.621   7.678
 1209POPC   C1B20035  38.125  41.039   8.844
 1209POPC   C2B20036  37.888  40.991   8.456
 1209POPC   C3B20037  37.667  40.973   8.071
 1209POPC   C4B20038  37.903  41.039   7.684
 1210POPC   NC320039  30.046  32.659   9.441
 1210POPC   PO420040  29.591  33.209   9.343
 1210POPC   GL120041  29.759  32.894   9.109
 1210POPC   GL220042  30.136  33.017   9.096
 1210POPC   C1A20043  29.953  32.688   8.750
 1210POPC   D2A20044  29.790  32.574   8.363
 1210POPC   C3A20045  29.974  32.773   8.035
 1210POPC   C4A20046  29.915  32.966   7.651
 1210POPC   C1B20047  29.899  33.211   8.747
 1210POPC   C2B20048  29.762  33.096   8.371
 1210POPC   C3B20049  30.006  33.280   8.066
 1210POPC   C4B20050  29.901  33.464   7.724
 1211POPC   NC320051  38.812  29.841   9.572
 1211POPC   PO420052  39.446  29.745   9.738
 1211POPC   GL120053  39.252  29.843   9.275
 1211POPC   GL220054  38.923  29.965   9.098
 1211POPC   C1A20055  39.338  29.802   8.829
 1211POPC   D2A20056  39.537  29.698   8.481
 1211POPC   C3A20057  39.266  29.709   8.139
 1211POPC   C4A20058  39.355  29.860   7.739
 1211POPC   C1B20059  39.172  30.281   8.865
 1211POPC   C2B20060  39.304  30.175   8.451
 1211POPC   C3B20061  39.181  30.229   8.027
 1211POPC   C4B20062  39.004  30.280   7.615
 1212POPC   NC320063  34.076  21.350   9.734
 1212POPC   PO420064  33.691  20.916   9.363
 1212POPC   GL120065  33.743  21.294   9.108
 1212POPC   GL220066  33.493  21.599   9.142
 1212POPC   C1A20067  34.001  21.407   8.742
 1212POPC   D2A20068  34.126  21.186   8.360
 1212POPC   C3A20069  34.172  21.382   7.925
 1212POPC   C4A20070  33.904  21.552   7.572
 1212POPC   C1B20071  33.483  21.482   8.708
 1212POPC   C2B20072  33.689  21.474   8.322
 1212POPC   C3B20073  33.569  21.626   7.939
 1212POPC   C4B20074  33.354  21.509   7.562
 1213POPC   NC320075  28.841  35.948   9.427
 1213POPC   PO420076  28.202  36.147   9.712
 1213POPC   GL120077  28.154  36.094   9.195
 1213POPC   GL220078  28.463  35.898   9.091
 1213POPC   C1A20079  28.066  35.906   8.758
 1213POPC   D2A20080  28.246  35.824   8.383
 1213POPC   C3A20081  28.031  35.911   8.079
 1213POPC   C4A20082  28.229  36.056   7.753
 1213POPC   C1B20083  28.527  36.102   8.697
 1213POPC   C2B20084  28.802  36.088   8.408
 1213POPC   C3B20085  28.629  36.112   8.064
 1213POPC   C4B20086  28.704  36.020   7.672
 1214POPC   NC320087  24.638   9.736   9.443
 1214POPC   PO420088  24.023   9.482   9.614
 1214POPC   GL120089  24.267   9.559   9.144
 1214POPC   GL220090  24.387   9.942   9.058
 1214POPC   C1A20091  24.333   9.635   8.662
 1214POPC   D2A20092  24.235   9.568   8.231
 1214POPC   C3A20093  24.391   9.679   7.810
 1214POPC   C4A20094  24.218   9.376   7.490
 1214POPC   C1B20095  24.693   9.994   8.666
 1214POPC   C2B20096  24.767   9.845   8.208
 1214POPC   C3B20097  24.847   9.942   7.728
 1214POPC   C4B20098  24.775  10.120   7.293
 1215POPC   NC320099  31.651  41.244   9.533
 1215POPC   PO420100  31.293  41.818   9.570
 1215POPC   GL120101  31.567  41.666   9.245
 1215POPC   GL220102  31.338  41.406   9.162
 1215POPC   C1A20103  31.744  41.435   8.850
 1215POPC   D2A20104  31.574  41.371   8.434
 1215POPC   C3A20105  31.805  41.340   8.051
 1215POPC   C4A20106  31.894  41.680   7.759
 1215POPC   C1B20107  31.335  41.729   8.795
 1215POPC   C2B20108  31.224  41.728   8.336
 1215POPC   C3B20109  31.355  41.543   7.903
 1215POPC   C4B20110  31.184  41.220   7.552
 1216POPC   NC320111  22.018  42.654   9.562
 1216POPC   PO420112  22.393  43.259   9.530
 1216POPC   GL120113  22.268  42.981   9.221
 1216POPC   GL220114  22.542  42.833   9.095
 1216POPC   C1A20115  22.166  43.032   8.775
 1216POPC   D2A20116  22.210  43.307   8.433
 1216POPC   C3A20117  22.054  43.156   8.044
 1216POPC   C4A20118  21.968  42.925   7.658
 1216POPC   C1B20119  22.640  43.212   8.883
 1216POPC   C2B20120  22.754  43.187   8.474
 1216POPC   C3B20121  22.602  43.277   8.105
 1216POPC   C4B20122  22.467  43.180   7.743
 1217POPC   NC320123   3.139  18.806   9.467
 1217POPC   PO420124   2.576  19.231   9.534
 1217POPC   GL120125   2.840  19.199   9.184
 1217POPC   GL220126   2.733  18.895   9.142
 1217POPC   C1A20127   2.899  19.392   8.790
 1217POPC   D2A20128   2.895  19.241   8.373
 1217POPC   C3A20129   2.958  19.410   7.957
 1217POPC   C4A20130   2.724  19.177   7.646
 1217POPC   C1B20131   2.801  18.889   8.735
 1217POPC   C2B20132   2.583  18.836   8.367
 1217POPC   C3B20133   2.640  18.796   7.956
 1217POPC   C4B20134   2.422  18.796   7.564
 1218POPC   NC320135  39.741  29.475   9.516
 1218POPC   PO420136  40.315  29.139   9.479
 1218POPC   GL120137  40.135  29.071   9.053
 1218POPC   GL220138  39.774  29.012   9.058
 1218POPC   C1A20139  40.189  29.081   8.591
 1218POPC   D2A20140  40.383  29.209   8.176
 1218POPC   C3A20141  40.054  29.207   7.841
 1218POPC   C4A20142  39.721  29.110   7.495
 1218POPC   C1B20143  39.836  29.399   8.799
 1218POPC   C2B20144  39.993  29.498   8.380
 1218POPC   C3B20145  39.750  29.558   8.040
 1218POPC   C4B20146  39.786  29.604   7.645
 1219POPC   NC320147   4.825   0.461   9.471
 1219POPC   PO420148   5.484   0.233   9.463
 1219POPC   GL120149   5.260   0.493   9.199
 1219POPC   GL220150   5.095   0.225   9.027
 1219POPC   C1A20151   5.100   0.763   8.861
 1219POPC   D2A20152   4.930   0.640   8.489
 1219POPC   C3A20153   4.981   0.816   8.096
 1219POPC   C4A20154   4.935   0.521   7.759
 1219POPC   C1B20155   5.382   0.394   8.704
 1219POPC   C2B20156   5.399   0.546   8.303
 1219POPC   C3B20157   5.402   0.624   7.879
 1219POPC   C4B20158   5.404   0.410   7.453
 1220POPC   NC320159  32.159  16.476   9.619
 1220POPC   PO420160  32.207  17.123   9.647
 1220POPC   GL120161  32.073  16.890   9.270
 1220POPC   GL220162  32.041  16.535   9.143
 1220POPC   C1A20163  32.125  16.958   8.843
 1220POPC   D2A20164  32.211  16.810   8.425
 1220POPC   C3A20165  32.192  16.999   8.030
 1220POPC   C4A20166  32.239  16.784   7.637
 1220POPC   C1B20167  32.268  16.472   8.809
 1220POPC   C2B20168  32.267  16.299   8.401
 1220POPC   C3B20169  32.209  16.408   7.992
 1220POPC   C4B20170  32.546  16.358   7.710
 1221POPC   NC320171  44.070  41.053   9.656
 1221POPC   PO420172  43.905  40.464   9.544
 1221POPC   GL120173  43.802  40.782   9.206
 1221POPC   GL220174  44.112  40.970   9.149
 1221POPC   C1A20175  43.597  40.815   8.777
 1221POPC   D2A20176  43.397  40.611   8.413
 1221POPC   C3A20177  43.591  40.773   8.047
 1221POPC   C4A20178  43.849  41.070   7.858
 1221POPC   C1B20179  44.137  40.807   8.746
 1221POPC   C2B20180  44.034  40.851   8.329
 1221POPC   C3B20181  44.076  40.603   7.986
 1221POPC   C4B20182  44.123  40.710   7.585
 1222POPC   NC320183  37.245  42.237   9.401
 1222POPC   PO420184  36.744  42.676   9.328
 1222POPC   GL120185  36.929  42.402   9.028
 1222POPC   GL220186  36.702  42.188   8.877
 1222POPC   C1A20187  37.062  42.529   8.619
 1222POPC   D2A20188  36.971  42.561   8.183
 1222POPC   C3A20189  36.808  42.259   7.907
 1222POPC   C4A20190  36.599  42.467   7.535
 1222POPC   C1B20191  37.109  42.031   8.677
 1222POPC   C2B20192  37.103  41.897   8.233
 1222POPC   C3B20193  37.278  42.011   7.832
 1222POPC   C4B20194  37.034  42.032   7.440
 1223POPC   NC320195  39.651  39.442   9.598
 1223POPC   PO420196  40.076  38.859   9.510
 1223POPC   GL120197  40.001  39.198   9.211
 1223POPC   GL220198  40.365  39.270   9.142
 1223POPC   C1A20199  40.034  39.421   8.794
 1223POPC   D2A20200  40.056  39.221   8.388
 1223POPC   C3A20201  40.200  39.343   7.985
 1223POPC   C4A20202  39.872  39.289   7.692
 1223POPC   C1B20203  40.232  38.946   8.805
 1223POPC   C2B20204  40.267  38.758   8.369
 1223POPC   C3B20205  40.386  38.792   7.911
 1223POPC   C4B20206  40.309  39.052   7.538
 1224POPC   NC320207  31.521  28.804   9.380
 1224POPC   PO420208  30.944  28.580   9.617
 1224POPC   GL120209  31.074  28.584   9.176
 1224POPC   GL220210  31.161  28.865   9.010
 1224POPC   C1A20211  31.068  28.476   8.702
 1224POPC   D2A20212  31.192  28.624   8.256
 1224POPC   C3A20213  31.389  28.381   7.907
 1224POPC   C4A20214  31.262  28.164   7.495
 1224POPC   C1B20215  31.495  28.767   8.660
 1224POPC   C2B20216  31.686  28.703   8.204
 1224POPC   C3B20217  31.659  28.884   7.764
 1224POPC   C4B20218  31.642  28.934   7.263
 1225POPC   NC320219   4.746  40.064   9.668
 1225POPC   PO420220   5.358  40.295   9.432
 1225POPC   GL120221   4.973  40.198   9.170
 1225POPC   GL220222   4.751  39.887   9.155
 1225POPC   C1A20223   5.044  40.051   8.728
 1225POPC   D2A20224   5.233  40.165   8.333
 1225POPC   C3A20225   5.003  40.113   7.928
 1225POPC   C4A20226   5.093  40.267   7.520
 1225POPC   C1B20227   4.744  39.625   8.766
 1225POPC   C2B20228   4.899  39.656   8.330
 1225POPC   C3B20229   4.694  39.698   7.930
 1225POPC   C4B20230   4.788  39.842   7.521
 1226POPC   NC320231  37.450  20.454   9.455
 1226POPC   PO420232  38.061  20.485   9.615
 1226POPC   GL120233  37.886  20.378   9.163
 1226POPC   GL220234  37.683  20.709   9.067
 1226POPC   C1A20235  37.790  20.390   8.685
 1226POPC   D2A20236  37.621  20.794   8.451
 1226POPC   C3A20237  37.621  20.771   7.994
 1226POPC   C4A20238  37.830  20.370   7.844
 1226POPC   C1B20239  37.311  20.571   8.787
 1226POPC   C2B20240  37.375  20.338   8.373
 1226POPC   C3B20241  37.317  20.356   7.947
 1226POPC   C4B20242  37.428  20.498   7.522
 1227POPC   NC320243  18.599  28.890   9.392
 1227POPC   PO420244  19.314  29.094   9.433
 1227POPC   GL120245  19.034  28.977   9.118
 1227POPC   GL220246  18.846  29.280   9.090
 1227POPC   C1A20247  18.892  29.007   8.677
 1227POPC   D2A20248  18.804  28.808   8.319
 1227POPC   C3A20249  19.086  28.886   8.031
 1227POPC   C4A20250  19.190  28.953   7.632
 1227POPC   C1B20251  19.085  29.475   8.724
 1227POPC   C2B20252  19.125  29.346   8.268
 1227POPC   C3B20253  18.904  29.344   7.839
 1227POPC   C4B20254  19.001  29.350   7.376
 1228POPC   NC320255   4.205  22.245   9.324
 1228POPC   PO420256   4.534  21.704   9.286
 1228POPC   GL120257   4.218  21.837   8.996
 1228POPC   GL220258   4.384  22.115   8.852
 1228POPC   C1A20259   3.970  21.888   8.628
 1228POPC   D2A20260   4.190  22.190   8.365
 1228POPC   C3A20261   4.365  22.065   7.970
 1228POPC   C4A20262   4.202  22.021   7.537
 1228POPC   C1B20263   4.546  22.496   8.675
 1228POPC   C2B20264   4.735  22.652   8.291
 1228POPC   C3B20265   4.555  22.552   7.891
 1228POPC   C4B20266   4.618  22.292   7.551
 1229POPC   NC320267   8.405   3.454   9.486
 1229POPC   PO420268   7.736   3.514   9.353
 1229POPC   GL120269   7.988   3.324   9.098
 1229POPC   GL220270   8.203   3.582   9.039
 1229POPC   C1A20271   7.911   3.361   8.669
 1229POPC   D2A20272   8.175   3.517   8.386
 1229POPC   C3A20273   8.128   3.313   7.985
 1229POPC   C4A20274   8.065   3.439   7.527
 1229POPC   C1B20275   8.305   3.890   8.752
 1229POPC   C2B20276   8.396   3.987   8.354
 1229POPC   C3B20277   8.355   3.775   7.984
 1229POPC   C4B20278   8.233   3.931   7.620
 1230POPC   NC320279  21.179  31.955   9.629
 1230POPC   PO420280  21.553  32.508   9.610
 1230POPC   GL120281  21.372  32.279   9.259
 1230POPC   GL220282  20.996  32.288   9.203
 1230POPC   C1A20283  21.359  32.180   8.822
 1230POPC   D2A20284  21.338  32.419   8.432
 1230POPC   C3A20285  21.444  32.116   8.076
 1230POPC   C4A20286  21.643  32.058   7.675
 1230POPC   C1B20287  20.858  32.095   8.779
 1230POPC   C2B20288  20.952  32.119   8.305
 1230POPC   C3B20289  21.068  32.449   7.978
 1230POPC   C4B20290  21.305  32.432   7.595
 1231POPC   NC320291  17.308  32.241   9.614
 1231POPC   PO420292  17.782  32.648   9.734
 1231POPC   GL120293  17.534  32.483   9.236
 1231POPC   GL220294  17.624  32.128   9.146
 1231POPC   C1A20295  17.704  32.376   8.723
 1231POPC   D2A20296  17.741  32.413   8.244
 1231POPC   C3A20297  17.477  32.203   7.913
 1231POPC   C4A20298  17.675  32.243   7.503
 1231POPC   C1B20299  17.246  32.224   8.871
 1231POPC   C2B20300  17.072  32.109   8.463
 1231POPC   C3B20301  17.059  31.890   8.085
 1231POPC   C4B20302  16.968  32.119   7.708
 1232POPC   NC320303  24.020  25.768   9.439
 1232POPC   PO420304  23.600  26.361   9.511
 1232POPC   GL120305  23.681  26.067   9.188
 1232POPC   GL220306  24.021  26.155   9.067
 1232POPC   C1A20307  23.585  25.824   8.843
 1232POPC   D2A20308  23.501  25.944   8.403
 1232POPC   C3A20309  23.812  25.923   8.088
 1232POPC   C4A20310  23.644  25.817   7.747
 1232POPC   C1B20311  23.886  26.182   8.620
 1232POPC   C2B20312  23.886  26.406   8.199
 1232POPC   C3B20313  23.821  26.346   7.731
 1232POPC   C4B20314  23.903  26.414   7.247
 1233POPC   NC320315  40.759  22.598   9.629
 1233POPC   PO420316  41.086  23.109   9.787
 1233POPC   GL120317  40.927  23.166   9.343
 1233POPC   GL220318  40.933  22.845   9.174
 1233POPC   C1A20319  40.761  23.267   8.910
 1233POPC   D2A20320  40.880  23.209   8.465
 1233POPC   C3A20321  40.590  23.240   8.116
 1233POPC   C4A20322  40.720  23.130   7.710
 1233POPC   C1B20323  40.753  22.759   8.735
 1233POPC   C2B20324  40.623  22.754   8.289
 1233POPC   C3B20325  40.610  22.655   7.846
 1233POPC   C4B20326  40.541  22.747   7.395
 1234POPC   NC320327  42.919   1.586   9.662
 1234POPC   PO420328  43.314   1.121   9.478
 1234POPC   GL120329  43.209   1.250   9.118
 1234POPC   GL220330  42.921   1.360   9.185
 1234POPC   C1A20331  43.213   1.341   8.684
 1234POPC   D2A20332  42.997   1.205   8.312
 1234POPC   C3A20333  43.246   1.189   7.953
 1234POPC   C4A20334  43.469   1.478   7.701
 1234POPC   C1B20335  42.775   1.107   8.801
 1234POPC   C2B20336  42.492   1.173   8.428
 1234POPC   C3B20337  42.574   1.261   7.989
 1234POPC   C4B20338  42.816   0.931   7.780
 1235POPC   NC320339   6.521   1.926   9.670
 1235POPC   PO420340   7.041   1.758   9.304
 1235POPC   GL120341   6.726   2.024   9.187
 1235POPC   GL220342   6.406   1.835   9.174
 1235POPC   C1A20343   6.815   2.187   8.800
 1235POPC   D2A20344   6.591   2.048   8.453
 1235POPC   C3A20345   6.880   2.118   8.133
 1235POPC   C4A20346   6.881   1.827   7.830
 1235POPC   C1B20347   6.313   2.175   8.875
 1235POPC   C2B20348   6.106   2.260   8.469
 1235POPC   C3B20349   6.251   2.151   8.051
 1235POPC   C4B20350   6.567   2.293   7.770
 1236POPC   NC320351   0.396  44.265   9.348
 1236POPC   PO420352   0.770  44.783   9.442
 1236POPC   GL120353   0.523  44.689   9.098
 1236POPC   GL220354   0.199  44.839   9.151
 1236POPC   C1A20355   0.406  44.697   8.692
 1236POPC   D2A20356   0.549  44.536   8.339
 1236POPC   C3A20357   0.348  44.705   8.010
 1236POPC   C4A20358   0.444  44.479   7.654
 1236POPC   C1B20359  44.956   0.037   8.823
 1236POPC   C2B20360  44.886  44.940   8.405
 1236POPC   C3B20361  44.888  44.999   7.979
 1236POPC   C4B20362   0.166  44.998   7.604
 1237POPC   NC320363  15.209  15.376   9.583
 1237POPC   PO420364  15.385  14.754   9.353
 1237POPC   GL120365  15.328  15.111   9.116
 1237POPC   GL220366  15.460  15.445   9.163
 1237POPC   C1A20367  15.255  15.139   8.691
 1237POPC   D2A20368  14.912  15.079   8.420
 1237POPC   C3A20369  15.079  15.102   8.034
 1237POPC   C4A20370  15.041  14.946   7.638
 1237POPC   C1B20371  15.427  15.605   8.809
 1237POPC   C2B20372  15.626  15.477   8.425
 1237POPC   C3B20373  15.449  15.477   8.038
 1237POPC   C4B20374  15.217  15.434   7.670
 1238POPC   NC320375  15.078  28.957   9.447
 1238POPC   PO420376  15.055  29.612   9.379
 1238POPC   GL120377  15.298  29.313   9.102
 1238POPC   GL220378  15.403  28.959   9.053
 1238POPC   C1A20379  15.516  29.364   8.725
 1238POPC   D2A20380  15.190  29.442   8.410
 1238POPC   C3A20381  15.197  29.270   8.021
 1238POPC   C4A20382  15.432  29.282   7.675
 1238POPC   C1B20383  15.234  28.942   8.648
 1238POPC   C2B20384  15.256  28.793   8.222
 1238POPC   C3B20385  15.074  28.843   7.801
 1238POPC   C4B20386  14.908  28.739   7.394
 1239POPC   NC320387  41.590  43.514   9.514
 1239POPC   PO420388  41.798  44.131   9.546
 1239POPC   GL120389  41.606  43.913   9.188
 1239POPC   GL220390  41.860  43.676   9.091
 1239POPC   C1A20391  41.434  43.807   8.784
 1239POPC   D2A20392  41.610  43.958   8.401
 1239POPC   C3A20393  41.341  44.147   8.118
 1239POPC   C4A20394  41.257  44.098   7.721
 1239POPC   C1B20395  41.861  43.547   8.646
 1239POPC   C2B20396  41.656  43.470   8.245
 1239POPC   C3B20397  41.546  43.716   7.907
 1239POPC   C4B20398  41.713  43.974   7.552
 1240POPC   NC320399  32.638  14.760   9.481
 1240POPC   PO420400  32.237  15.307   9.372
 1240POPC   GL120401  32.096  14.947   9.105
 1240POPC   GL220402  32.447  14.878   9.028
 1240POPC   C1A20403  31.895  14.898   8.672
 1240POPC   D2A20404  31.713  15.044   8.249
 1240POPC   C3A20405  31.957  15.084   7.851
 1240POPC   C4A20406  32.239  15.423   7.699
 1240POPC   C1B20407  32.725  15.112   8.742
 1240POPC   C2B20408  32.787  15.181   8.331
 1240POPC   C3B20409  32.465  15.088   8.032
 1240POPC   C4B20410  32.427  14.936   7.616
 1241POPC   NC320411  39.048   6.904   9.298
 1241POPC   PO420412  39.245   7.443   9.587
 1241POPC   GL120413  39.299   7.520   9.155
 1241POPC   GL220414  39.347   7.226   9.019
 1241POPC   C1A20415  39.076   7.636   8.806
 1241POPC   D2A20416  39.195   7.818   8.430
 1241POPC   C3A20417  38.918   7.736   8.129
 1241POPC   C4A20418  38.967   7.607   7.734
 1241POPC   C1B20419  39.579   7.122   8.651
 1241POPC   C2B20420  39.684   7.463   8.345
 1241POPC   C3B20421  39.427   7.615   8.003
 1241POPC   C4B20422  39.387   7.333   7.622
 1242POPC   NC320423  44.377   0.609   9.475
 1242POPC   PO420424  44.856   0.017   9.514
 1242POPC   GL120425  44.700   0.316   9.194
 1242POPC   GL220426  44.349   0.218   9.123
 1242POPC   C1A20427  44.761   0.633   8.830
 1242POPC   D2A20428  44.902   0.452   8.439
 1242POPC   C3A20429  44.859   0.605   8.017
 1242POPC   C4A20430  44.813   0.354   7.629
 1242POPC   C1B20431  44.473   0.253   8.684
 1242POPC   C2B20432  44.413   0.497   8.275
 1242POPC   C3B20433  44.393   0.564   7.804
 1242POPC   C4B20434  44.292   0.300   7.441
 1243POPC   NC320435  21.976  13.733   9.391
 1243POPC   PO420436  22.412  13.248   9.495
 1243POPC   GL120437  22.357  13.537   9.125
 1243POPC   GL220438  22.381  13.926   9.181
 1243POPC   C1A20439  22.069  13.541   8.766
 1243POPC   D2A20440  21.798  13.518   8.401
 1243POPC   C3A20441  22.019  13.416   8.029
 1243POPC   C4A20442  22.042  13.596   7.627
 1243POPC   C1B20443  22.381  13.953   8.739
 1243POPC   C2B20444  22.225  13.822   8.306
 1243POPC   C3B20445  22.424  13.846   7.882
 1243POPC   C4B20446  22.475  13.865   7.414
 1244POPC   NC320447   4.194   7.732   9.458
 1244POPC   PO420448   4.507   7.167   9.638
 1244POPC   GL120449   4.361   7.315   9.213
 1244POPC   GL220450   4.000   7.380   9.140
 1244POPC   C1A20451   4.438   7.345   8.750
 1244POPC   D2A20452   4.813   7.349   8.439
 1244POPC   C3A20453   4.725   7.466   8.005
 1244POPC   C4A20454   4.400   7.316   7.693
 1244POPC   C1B20455   3.888   7.522   8.714
 1244POPC   C2B20456   3.987   7.731   8.321
 1244POPC   C3B20457   4.004   7.419   7.996
 1244POPC   C4B20458   3.829   7.308   7.576
 1245POPC   NC320459  26.329   0.245   9.485
 1245POPC   PO420460  25.747   0.498   9.804
 1245POPC   GL120461  25.906   0.496   9.339
 1245POPC   GL220462  26.207   0.720   9.264
 1245POPC   C1A20463  26.022   0.406   8.874
 1245POPC   D2A20464  25.907   0.478   8.428
 1245POPC   C3A20465  25.773   0.419   7.949
 1245POPC   C4A20466  25.940   0.638   7.543
 1245POPC   C1B20467  26.415   0.729   8.845
 1245POPC   C2B20468  26.408   0.573   8.431
 1245POPC   C3B20469  26.241   0.619   8.034
 1245POPC   C4B20470  26.240   0.285   7.762
 1246POPC   NC320471  11.171  23.833   9.348
 1246POPC   PO420472  11.675  23.451   9.419
 1246POPC   GL120473  11.393  23.448   9.096
 1246POPC   GL220474  11.095  23.343   9.133
 1246POPC   C1A20475  11.378  23.607   8.693
 1246POPC   D2A20476  11.734  23.530   8.401
 1246POPC   C3A20477  11.573  23.482   7.993
 1246POPC   C4A20478  11.378  23.770   7.716
 1246POPC   C1B20479  10.879  23.488   8.778
 1246POPC   C2B20480  10.864  23.544   8.341
 1246POPC   C3B20481  11.076  23.342   7.988
 1246POPC   C4B20482  11.180  23.287   7.559
 1247POPC   NC320483  15.019  31.989   9.396
 1247POPC   PO420484  15.315  32.651   9.393
 1247POPC   GL120485  15.035  32.513   9.031
 1247POPC   GL220486  14.813  32.203   8.981
 1247POPC   C1A20487  15.184  32.293   8.626
 1247POPC   D2A20488  15.457  32.207   8.254
 1247POPC   C3A20489  15.156  32.358   7.964
 1247POPC   C4A20490  14.708  32.394   8.059
 1247POPC   C1B20491  14.982  31.814   8.744
 1247POPC   C2B20492  15.115  31.819   8.316
 1247POPC   C3B20493  14.921  31.916   7.956
 1247POPC   C4B20494  14.967  31.969   7.489
 1248POPC   NC320495  42.931   7.579   9.782
 1248POPC   PO420496  43.067   8.216   9.596
 1248POPC   GL120497  43.076   7.986   9.209
 1248POPC   GL220498  43.383   8.103   9.050
 1248POPC   C1A20499  42.855   8.090   8.805
 1248POPC   D2A20500  42.978   8.168   8.377
 1248POPC   C3A20501  42.914   7.940   7.999
 1248POPC   C4A20502  42.776   8.278   7.751
 1248POPC   C1B20503  43.430   8.173   8.616
 1248POPC   C2B20504  43.380   7.853   8.273
 1248POPC   C3B20505  43.485   7.856   7.844
 1248POPC   C4B20506  43.508   8.234   7.582
 1249POPC   NC320507  39.889  35.710   9.331
 1249POPC   PO420508  40.184  35.019   9.296
 1249POPC   GL120509  40.203  35.386   9.070
 1249POPC   GL220510  39.877  35.329   9.025
 1249POPC   C1A20511  40.198  35.430   8.623
 1249POPC   D2A20512  40.071  35.237   8.235
 1249POPC   C3A20513  40.087  35.495   7.907
 1249POPC   C4A20514  40.300  35.248   7.628
 1249POPC   C1B20515  39.752  35.635   8.720
 1249POPC   C2B20516  39.687  35.561   8.316
 1249POPC   C3B20517  39.612  35.334   7.934
 1249POPC   C4B20518  39.743  35.410   7.507
 1250POPC   NC320519  29.578  14.208   9.555
 1250POPC   PO420520  30.265  14.465   9.663
 1250POPC   GL120521  29.974  14.467   9.318
 1250POPC   GL220522  30.030  14.142   9.212
 1250POPC   C1A20523  30.061  14.606   8.894
 1250POPC   D2A20524  29.962  14.426   8.496
 1250POPC   C3A20525  30.093  14.579   8.089
 1250POPC   C4A20526  29.976  14.471   7.665
 1250POPC   C1B20527  29.694  14.197   8.897
 1250POPC   C2B20528  29.594  14.078   8.444
 1250POPC   C3B20529  29.771  14.191   8.046
 1250POPC   C4B20530  30.048  13.977   7.735
 1251POPC   NC320531  37.971  38.960   9.484
 1251POPC   PO420532  37.614  39.522   9.547
 1251POPC   GL120533  37.626  39.338   9.166
 1251POPC   GL220534  37.962  39.383   9.145
 1251POPC   C1A20535  37.445  39.310   8.750
 1251POPC   D2A20536  37.590  38.973   8.494
 1251POPC   C3A20537  37.638  38.997   8.070
 1251POPC   C4A20538  37.696  39.089   7.649
 1251POPC   C1B20539  37.952  39.107   8.812
 1251POPC   C2B20540  38.079  39.106   8.361
 1251POPC   C3B20541  38.076  39.301   7.936
 1251POPC   C4B20542  38.134  39.341   7.482
 1252POPC   NC320543  41.806   0.138   9.496
 1252POPC   PO420544  41.314   0.614   9.545
 1252POPC   GL120545  41.419   0.296   9.197
 1252POPC   GL220546  41.766   0.267   9.010
 1252POPC   C1A20547  41.329   0.248   8.754
 1252POPC   D2A20548  41.350   0.512   8.379
 1252POPC   C3A20549  41.297   0.318   7.974
 1252POPC   C4A20550  41.546   0.224   7.637
 1252POPC   C1B20551  41.812   0.271   8.549
 1252POPC   C2B20552  41.794   0.413   8.112
 1252POPC   C3B20553  41.767   0.695   7.749
 1252POPC   C4B20554  41.969   0.794   7.323
 1253POPC   NC320555  19.332   9.808   9.524
 1253POPC   PO420556  18.625   9.855   9.536
 1253POPC   GL120557  18.930   9.797   9.184
 1253POPC   GL220558  19.132  10.127   9.168
 1253POPC   C1A20559  19.068   9.583   8.774
 1253POPC   D2A20560  18.993   9.342   8.375
 1253POPC   C3A20561  19.232   9.526   8.036
 1253POPC   C4A20562  19.161   9.614   7.609
 1253POPC   C1B20563  18.923  10.085   8.760
 1253POPC   C2B20564  18.850   9.891   8.348
 1253POPC   C3B20565  18.987   9.971   7.932
 1253POPC   C4B20566  19.321  10.098   7.617
 1254POPC   NC320567  35.588  23.143   9.490
 1254POPC   PO420568  36.177  22.949   9.670
 1254POPC   GL120569  36.224  22.919   9.205
 1254POPC   GL220570  36.498  23.133   9.141
 1254POPC   C1A20571  35.994  22.862   8.783
 1254POPC   D2A20572  36.005  22.609   8.370
 1254POPC   C3A20573  35.991  22.905   7.961
 1254POPC   C4A20574  36.233  23.040   7.581
 1254POPC   C1B20575  36.486  22.958   8.749
 1254POPC   C2B20576  36.300  23.013   8.356
 1254POPC   C3B20577  36.529  23.016   7.983
 1254POPC   C4B20578  36.717  22.737   7.680
 1255POPC   NC320579   5.166  44.167   9.513
 1255POPC   PO420580   4.714  43.678   9.421
 1255POPC   GL120581   4.881  43.912   9.094
 1255POPC   GL220582   5.215  43.918   9.070
 1255POPC   C1A20583   4.857  43.719   8.676
 1255POPC   D2A20584   5.005  43.473   8.309
 1255POPC   C3A20585   5.036  43.800   7.995
 1255POPC   C4A20586   4.678  44.134   7.900
 1255POPC   C1B20587   5.318  44.019   8.656
 1255POPC   C2B20588   5.591  44.037   8.285
 1255POPC   C3B20589   5.567  44.187   7.906
 1255POPC   C4B20590   5.232  44.168   7.723
 1256POPC   NC320591  19.871  16.437   9.513
 1256POPC   PO420592  20.151  15.754   9.560
 1256POPC   GL120593  20.021  16.003   9.200
 1256POPC   GL220594  19.772  16.281   9.059
 1256POPC   C1A20595  19.842  15.812   8.853
 1256POPC   D2A20596  20.074  15.867   8.496
 1256POPC   C3A20597  20.000  15.615   8.201
 1256POPC   C4A20598  20.077  15.655   7.794
 1256POPC   C1B20599  19.752  16.250   8.642
 1256POPC   C2B20600  19.663  16.075   8.272
 1256POPC   C3B20601  19.822  16.116   7.872
 1256POPC   C4B20602  19.531  16.098   7.560
 1257POPC   NC320603  33.644  16.608   9.634
 1257POPC   PO420604  34.180  17.044   9.464
 1257POPC   GL120605  33.995  16.989   9.083
 1257POPC   GL220606  33.704  16.843   9.185
 1257POPC   C1A20607  33.904  16.658   8.747
 1257POPC   D2A20608  33.978  16.412   8.386
 1257POPC   C3A20609  33.898  16.663   8.028
 1257POPC   C4A20610  33.640  17.038   7.918
 1257POPC   C1B20611  33.428  16.786   8.855
 1257POPC   C2B20612  33.456  16.814   8.425
 1257POPC   C3B20613  33.153  16.930   8.115
 1257POPC   C4B20614  33.240  16.847   7.696
 1258POPC   NC320615   1.759  44.489   9.543
 1258POPC   PO420616   2.181  44.964   9.400
 1258POPC   GL120617   1.883  44.777   9.157
 1258POPC   GL220618   2.112  44.502   9.151
 1258POPC   C1A20619   1.769  44.560   8.779
 1258POPC   D2A20620   2.042  44.517   8.424
 1258POPC   C3A20621   1.884  44.598   8.043
 1258POPC   C4A20622   1.915  44.854   7.648
 1258POPC   C1B20623   2.243  44.256   8.826
 1258POPC   C2B20624   2.352  44.117   8.408
 1258POPC   C3B20625   2.472  44.417   8.115
 1258POPC   C4B20626   2.271  44.486   7.734
 1259POPC   NC320627  24.249  40.884   9.182
 1259POPC   PO420628  24.418  40.477   9.747
 1259POPC   GL120629  24.679  40.588   9.296
 1259POPC   GL220630  24.781  40.925   9.116
 1259POPC   C1A20631  24.617  40.522   8.798
 1259POPC   D2A20632  24.412  40.612   8.404
 1259POPC   C3A20633  24.672  40.769   8.094
 1259POPC   C4A20634  24.801  40.538   7.729
 1259POPC   C1B20635  24.620  41.003   8.667
 1259POPC   C2B20636  24.207  41.088   8.456
 1259POPC   C3B20637  24.155  41.102   7.996
 1259POPC   C4B20638  24.348  40.814   7.683
 1260POPC   NC320639  41.770  16.196   9.580
 1260POPC   PO420640  41.274  15.672   9.485
 1260POPC   GL120641  41.505  15.937   9.189
 1260POPC   GL220642  41.853  15.837   9.231
 1260POPC   C1A20643  41.402  16.052   8.748
 1260POPC   D2A20644  41.370  16.210   8.322
 1260POPC   C3A20645  41.400  15.977   7.960
 1260POPC   C4A20646  41.329  16.068   7.526
 1260POPC   C1B20647  41.880  15.865   8.803
 1260POPC   C2B20648  41.746  15.836   8.376
 1260POPC   C3B20649  41.752  15.590   7.998
 1260POPC   C4B20650  41.427  15.549   7.665
 1261POPC   NC320651  28.932  17.417   9.460
 1261POPC   PO420652  29.498  17.798   9.498
 1261POPC   GL120653  29.273  17.684   9.159
 1261POPC   GL220654  29.358  17.377   9.178
 1261POPC   C1A20655  29.030  17.673   8.771
 1261POPC   D2A20656  29.136  17.869   8.389
 1261POPC   C3A20657  29.093  17.750   7.969
 1261POPC   C4A20658  29.217  17.669   7.547
 1261POPC   C1B20659  29.230  17.208   8.792
 1261POPC   C2B20660  29.021  17.117   8.425
 1261POPC   C3B20661  29.002  17.253   8.023
 1261POPC   C4B20662  29.089  17.155   7.638
 1262POPC   NC320663  42.635  28.506   9.501
 1262POPC   PO420664  42.039  28.208   9.599
 1262POPC   GL120665  42.233  28.420   9.176
 1262POPC   GL220666  42.509  28.666   9.044
 1262POPC   C1A20667  42.334  28.323   8.684
 1262POPC   D2A20668  42.206  28.089   8.304
 1262POPC   C3A20669  42.508  28.022   7.991
 1262POPC   C4A20670  42.396  27.992   7.551
 1262POPC   C1B20671  42.430  28.819   8.619
 1262POPC   C2B20672  42.355  28.619   8.230
 1262POPC   C3B20673  42.325  28.727   7.800
 1262POPC   C4B20674  42.568  28.937   7.473
 1263POPC   NC320675  34.562   8.150   9.498
 1263POPC   PO420676  35.047   8.644   9.422
 1263POPC   GL120677  34.733   8.430   9.126
 1263POPC   GL220678  34.333   8.339   9.093
 1263POPC   C1A20679  34.802   8.091   8.846
 1263POPC   D2A20680  34.979   8.266   8.496
 1263POPC   C3A20681  34.798   8.103   8.086
 1263POPC   C4A20682  34.665   8.134   7.676
 1263POPC   C1B20683  34.308   7.987   8.819
 1263POPC   C2B20684  34.411   7.906   8.399
 1263POPC   C3B20685  34.284   8.165   8.047
 1263POPC   C4B20686  34.060   8.286   7.711
 1264POPC   NC320687   1.126   5.636   9.427
 1264POPC   PO420688   1.363   6.297   9.466
 1264POPC   GL120689   1.103   6.069   9.210
 1264POPC   GL220690   1.407   5.925   9.116
 1264POPC   C1A20691   0.935   5.991   8.825
 1264POPC   D2A20692   1.042   6.120   8.398
 1264POPC   C3A20693   1.027   5.872   8.010
 1264POPC   C4A20694   1.369   6.025   7.745
 1264POPC   C1B20695   1.440   5.910   8.704
 1264POPC   C2B20696   1.313   5.650   8.389
 1264POPC   C3B20697   1.319   5.384   8.049
 1264POPC   C4B20698   1.287   5.504   7.673
 1265POPC   NC320699   7.938  13.100   9.360
 1265POPC   PO420700   8.050  12.477   9.366
 1265POPC   GL120701   8.274  12.781   9.106
 1265POPC   GL220702   8.578  12.944   9.215
 1265POPC   C1A20703   8.144  12.960   8.743
 1265POPC   D2A20704   7.863  13.069   8.428
 1265POPC   C3A20705   8.061  12.814   8.116
 1265POPC   C4A20706   8.146  12.863   7.693
 1265POPC   C1B20707   8.593  13.174   8.838
 1265POPC   C2B20708   8.411  13.286   8.425
 1265POPC   C3B20709   8.512  13.108   8.006
 1265POPC   C4B20710   8.706  13.375   7.714
 1266POPC   NC320711  34.516  17.080   9.769
 1266POPC   PO420712  34.824  16.537   9.765
 1266POPC   GL120713  34.741  16.754   9.349
 1266POPC   GL220714  34.440  16.713   9.106
 1266POPC   C1A20715  34.932  16.758   8.934
 1266POPC   D2A20716  34.778  16.680   8.532
 1266POPC   C3A20717  34.933  16.715   8.112
 1266POPC   C4A20718  34.672  16.740   7.749
 1266POPC   C1B20719  34.334  16.925   8.681
 1266POPC   C2B20720  34.359  16.773   8.250
 1266POPC   C3B20721  34.371  16.399   8.049
 1266POPC   C4B20722  34.179  16.382   7.659
 1267POPC   NC320723   0.288  38.035   9.454
 1267POPC   PO420724   0.586  38.666   9.489
 1267POPC   GL120725   0.468  38.424   9.155
 1267POPC   GL220726   0.119  38.455   9.054
 1267POPC   C1A20727   0.576  38.219   8.764
 1267POPC   D2A20728   0.342  38.268   8.370
 1267POPC   C3A20729   0.629  38.199   8.027
 1267POPC   C4A20730   0.901  38.131   7.668
 1267POPC   C1B20731   0.361  38.687   8.728
 1267POPC   C2B20732   0.408  38.965   8.359
 1267POPC   C3B20733   0.468  38.841   7.964
 1267POPC   C4B20734   0.173  38.490   7.930
 1268POPC   NC320735  37.312  10.936   9.444
 1268POPC   PO420736  36.827  11.373   9.421
 1268POPC   GL120737  37.081  11.291   9.098
 1268POPC   GL220738  37.423  11.380   9.193
 1268POPC   C1A20739  36.838  11.442   8.757
 1268POPC   D2A20740  36.585  11.422   8.356
 1268POPC   C3A20741  36.666  11.130   8.035
 1268POPC   C4A20742  36.815  11.196   7.658
 1268POPC   C1B20743  37.411  11.524   8.764
 1268POPC   C2B20744  37.133  11.562   8.389
 1268POPC   C3B20745  37.117  11.396   8.009
 1268POPC   C4B20746  37.177  11.570   7.602
 1269POPC   NC320747  39.917  20.126   9.471
 1269POPC   PO420748  40.076  19.455   9.527
 1269POPC   GL120749  39.967  19.711   9.172
 1269POPC   GL220750  40.247  19.962   9.115
 1269POPC   C1A20751  39.933  19.828   8.743
 1269POPC   D2A20752  40.185  19.997   8.473
 1269POPC   C3A20753  39.893  19.882   8.186
 1269POPC   C4A20754  39.876  19.960   7.791
 1269POPC   C1B20755  40.367  19.581   8.848
 1269POPC   C2B20756  40.267  19.485   8.424
 1269POPC   C3B20757  40.322  19.675   8.004
 1269POPC   C4B20758  40.433  19.592   7.572
 1270POPC   NC320759  40.637  42.344   9.484
 1270POPC   PO420760  41.244  42.532   9.298
 1270POPC   GL120761  40.991  42.185   9.131
 1270POPC   GL220762  40.626  42.049   9.076
 1270POPC   C1A20763  41.057  42.093   8.731
 1270POPC   D2A20764  40.865  41.989   8.374
 1270POPC   C3A20765  41.046  42.242   8.065
 1270POPC   C4A20766  40.776  42.391   7.750
 1270POPC   C1B20767  40.661  42.449   8.823
 1270POPC   C2B20768  40.718  42.499   8.376
 1270POPC   C3B20769  40.467  42.204   8.124
 1270POPC   C4B20770  40.285  42.224   7.718
 1271POPC   NC320771  38.132   7.258   9.485
 1271POPC   PO420772  37.519   7.055   9.396
 1271POPC   GL120773  37.755   7.354   9.147
 1271POPC   GL220774  38.002   7.115   9.002
 1271POPC   C1A20775  37.694   7.581   8.759
 1271POPC   D2A20776  37.431   7.512   8.373
 1271POPC   C3A20777  37.658   7.364   8.003
 1271POPC   C4A20778  37.954   7.613   7.759
 1271POPC   C1B20779  37.624   7.063   8.741
 1271POPC   C2B20780  37.561   6.965   8.347
 1271POPC   C3B20781  37.269   6.865   8.060
 1271POPC   C4B20782  37.389   7.048   7.691
 1272POPC   NC320783  36.572  37.794   9.487
 1272POPC   PO420784  37.186  37.510   9.566
 1272POPC   GL120785  36.953  37.549   9.173
 1272POPC   GL220786  36.960  37.890   9.164
 1272POPC   C1A20787  37.100  37.551   8.738
 1272POPC   D2A20788  37.363  37.541   8.354
 1272POPC   C3A20789  37.145  37.373   7.969
 1272POPC   C4A20790  36.827  37.499   7.617
 1272POPC   C1B20791  36.635  37.904   8.836
 1272POPC   C2B20792  36.482  37.808   8.418
 1272POPC   C3B20793  36.736  37.824   8.030
 1272POPC   C4B20794  36.768  38.026   7.643
 1273POPC   NC320795  17.309  39.743   9.759
 1273POPC   PO420796  17.640  40.249   9.389
 1273POPC   GL120797  17.447  40.151   9.045
 1273POPC   GL220798  17.394  39.826   9.187
 1273POPC   C1A20799  17.449  40.131   8.607
 1273POPC   D2A20800  17.219  39.892   8.308
 1273POPC   C3A20801  17.399  39.958   7.937
 1273POPC   C4A20802  17.711  39.897   7.672
 1273POPC   C1B20803  17.750  39.803   8.843
 1273POPC   C2B20804  17.712  39.697   8.412
 1273POPC   C3B20805  17.868  39.547   8.039
 1273POPC   C4B20806  18.142  39.631   7.704
 1274POPC   NC320807  43.525  37.920   9.565
 1274POPC   PO420808  44.107  37.624   9.498
 1274POPC   GL120809  43.862  37.705   9.153
 1274POPC   GL220810  44.014  38.000   9.128
 1274POPC   C1A20811  43.808  37.711   8.695
 1274POPC   D2A20812  43.982  37.541   8.331
 1274POPC   C3A20813  43.926  37.680   7.932
 1274POPC   C4A20814  43.726  37.738   7.536
 1274POPC   C1B20815  44.191  38.074   8.758
 1274POPC   C2B20816  44.028  38.038   8.341
 1274POPC   C3B20817  44.316  38.021   7.990
 1274POPC   C4B20818  44.325  38.052   7.529
 1275POPC   NC320819   7.970  11.147   9.543
 1275POPC   PO420820   8.594  11.367   9.682
 1275POPC   GL120821   8.253  11.505   9.322
 1275POPC   GL220822   8.208  11.178   9.089
 1275POPC   C1A20823   8.008  11.585   8.908
 1275POPC   D2A20824   8.283  11.480   8.567
 1275POPC   C3A20825   8.186  11.559   8.142
 1275POPC   C4A20826   8.058  11.603   7.725
 1275POPC   C1B20827   8.180  10.979   8.683
 1275POPC   C2B20828   8.301  11.065   8.272
 1275POPC   C3B20829   8.057  11.108   7.916
 1275POPC   C4B20830   8.097  11.091   7.489
 1276POPC   NC320831   5.479  25.684   9.474
 1276POPC   PO420832   5.177  25.135   9.603
 1276POPC   GL120833   5.083  25.301   9.181
 1276POPC   GL220834   5.354  25.135   9.034
 1276POPC   C1A20835   4.966  25.253   8.702
 1276POPC   D2A20836   5.165  25.149   8.275
 1276POPC   C3A20837   4.979  25.308   7.868
 1276POPC   C4A20838   4.736  25.301   7.455
 1276POPC   C1B20839   5.368  25.540   8.805
 1276POPC   C2B20840   5.281  25.631   8.373
 1276POPC   C3B20841   5.462  25.481   7.981
 1276POPC   C4B20842   5.425  25.075   7.807
 1277POPC   NC320843  37.160  30.329   9.433
 1277POPC   PO420844  36.787  29.722   9.441
 1277POPC   GL120845  36.836  29.904   9.061
 1277POPC   GL220846  37.154  29.946   9.072
 1277POPC   C1A20847  36.692  29.708   8.675
 1277POPC   D2A20848  36.894  29.775   8.292
 1277POPC   C3A20849  36.788  29.683   7.886
 1277POPC   C4A20850  36.897  29.922   7.486
 1277POPC   C1B20851  37.366  30.004   8.687
 1277POPC   C2B20852  37.393  29.833   8.284
 1277POPC   C3B20853  37.259  29.951   7.858
 1277POPC   C4B20854  37.432  29.856   7.439
 1278POPC   NC320855  17.020  30.743   9.604
 1278POPC   PO420856  16.468  30.405   9.460
 1278POPC   GL120857  16.750  30.641   9.175
 1278POPC   GL220858  17.048  30.416   9.190
 1278POPC   C1A20859  16.733  30.887   8.784
 1278POPC   D2A20860  16.556  30.930   8.394
 1278POPC   C3A20861  16.709  30.823   7.962
 1278POPC   C4A20862  16.380  30.804   7.641
 1278POPC   C1B20863  16.792  30.290   8.813
 1278POPC   C2B20864  16.816  30.447   8.411
 1278POPC   C3B20865  16.833  30.270   8.033
 1278POPC   C4B20866  16.617  30.363   7.703
 1279POPC   NC320867   9.094   8.198  10.086
 1279POPC   PO420868   8.668   8.334   9.756
 1279POPC   GL120869   8.703   8.257   9.261
 1279POPC   GL220870   9.056   8.151   9.131
 1279POPC   C1A20871   8.711   8.212   8.767
 1279POPC   D2A20872   8.817   7.915   8.426
 1279POPC   C3A20873   8.795   8.039   7.983
 1279POPC   C4A20874   8.790   8.221   7.566
 1279POPC   C1B20875   9.219   8.157   8.664
 1279POPC   C2B20876   9.273   8.002   8.215
 1279POPC   C3B20877   9.317   8.159   7.786
 1279POPC   C4B20878   9.490   7.916   7.416
 1280POPC   NC320879   5.864   3.764   9.446
 1280POPC   PO420880   6.128   3.275   9.686
 1280POPC   GL120881   5.966   3.349   9.201
 1280POPC   GL220882   5.633   3.356   9.127
 1280POPC   C1A20883   5.900   3.648   8.804
 1280POPC   D2A20884   5.978   3.818   8.377
 1280POPC   C3A20885   5.733   3.725   8.030
 1280POPC   C4A20886   5.840   3.558   7.647
 1280POPC   C1B20887   5.451   3.395   8.752
 1280POPC   C2B20888   5.644   3.362   8.358
 1280POPC   C3B20889   5.543   3.229   7.911
 1280POPC   C4B20890   5.680   3.121   7.456
 1281POPC   NC320891  40.532  44.105   9.526
 1281POPC   PO420892  41.176  43.760   9.609
 1281POPC   GL120893  41.072  43.815   9.180
 1281POPC   GL220894  40.731  43.739   9.198
 1281POPC   C1A20895  40.891  44.027   8.803
 1281POPC   D2A20896  40.909  44.185   8.373
 1281POPC   C3A20897  40.799  43.982   7.972
 1281POPC   C4A20898  40.877  43.873   7.518
 1281POPC   C1B20899  40.545  43.605   8.833
 1281POPC   C2B20900  40.612  43.723   8.417
 1281POPC   C3B20901  40.411  43.615   8.062
 1281POPC   C4B20902  40.406  43.773   7.664
 1282POPC   NC320903   5.544  39.139   9.634
 1282POPC   PO420904   4.905  38.956   9.567
 1282POPC   GL120905   5.172  39.120   9.251
 1282POPC   GL220906   5.017  39.442   9.209
 1282POPC   C1A20907   5.281  39.292   8.813
 1282POPC   D2A20908   5.427  39.118   8.437
 1282POPC   C3A20909   5.266  39.286   8.059
 1282POPC   C4A20910   5.330  39.082   7.653
 1282POPC   C1B20911   4.804  39.136   8.904
 1282POPC   C2B20912   4.895  39.087   8.491
 1282POPC   C3B20913   4.827  39.014   8.090
 1282POPC   C4B20914   4.825  39.242   7.716
 1283POPC   NC320915  18.567  29.809   9.622
 1283POPC   PO420916  18.117  30.261   9.628
 1283POPC   GL120917  18.134  29.981   9.243
 1283POPC   GL220918  18.428  29.745   9.124
 1283POPC   C1A20919  18.060  29.882   8.809
 1283POPC   D2A20920  18.256  29.787   8.424
 1283POPC   C3A20921  18.199  30.015   8.038
 1283POPC   C4A20922  18.542  29.985   7.742
 1283POPC   C1B20923  18.531  29.484   8.752
 1283POPC   C2B20924  18.623  29.357   8.332
 1283POPC   C3B20925  18.410  29.537   7.962
 1283POPC   C4B20926  17.988  29.615   7.762
 1284POPC   NC320927  20.583  17.911   9.941
 1284POPC   PO420928  20.543  17.329   9.671
 1284POPC   GL120929  20.541  17.120   9.231
 1284POPC   GL220930  20.265  17.275   9.079
 1284POPC   C1A20931  20.708  17.183   8.796
 1284POPC   D2A20932  20.813  17.345   8.373
 1284POPC   C3A20933  20.542  17.262   8.022
 1284POPC   C4A20934  20.160  17.484   7.910
 1284POPC   C1B20935  20.294  17.419   8.612
 1284POPC   C2B20936  20.452  17.718   8.269
 1284POPC   C3B20937  20.383  17.935   7.850
 1284POPC   C4B20938  20.175  17.751   7.466
 1285POPC   NC320939   7.303  40.693   9.411
 1285POPC   PO420940   6.883  41.238   9.271
 1285POPC   GL120941   7.238  41.122   9.060
 1285POPC   GL220942   7.600  41.124   9.155
 1285POPC   C1A20943   7.311  40.991   8.663
 1285POPC   D2A20944   7.530  40.755   8.378
 1285POPC   C3A20945   7.462  40.875   7.978
 1285POPC   C4A20946   7.322  40.513   7.818
 1285POPC   C1B20947   7.731  40.775   8.851
 1285POPC   C2B20948   7.943  40.515   8.513
 1285POPC   C3B20949   7.795  40.431   8.069
 1285POPC   C4B20950   7.807  40.645   7.655
 1286POPC   NC320951   1.819   6.083   9.405
 1286POPC   PO420952   2.237   5.834   9.770
 1286POPC   GL120953   2.158   5.705   9.197
 1286POPC   GL220954   1.850   5.667   9.051
 1286POPC   C1A20955   2.162   5.858   8.705
 1286POPC   D2A20956   2.196   5.680   8.284
 1286POPC   C3A20957   2.168   5.980   7.935
 1286POPC   C4A20958   2.180   5.973   7.480
 1286POPC   C1B20959   1.952   5.394   8.720
 1286POPC   C2B20960   1.771   5.392   8.338
 1286POPC   C3B20961   1.713   5.713   8.040
 1286POPC   C4B20962   1.783   5.727   7.634
 1287POPC   NC320963  20.274  26.139   9.494
 1287POPC   PO420964  19.642  26.086   9.491
 1287POPC   GL120965  19.793  25.847   9.148
 1287POPC   GL220966  20.105  25.739   9.213
 1287POPC   C1A20967  19.782  25.885   8.688
 1287POPC   D2A20968  19.594  26.121   8.379
 1287POPC   C3A20969  19.822  26.093   7.993
 1287POPC   C4A20970  19.749  26.324   7.625
 1287POPC   C1B20971  20.275  25.805   8.809
 1287POPC   C2B20972  20.245  26.025   8.415
 1287POPC   C3B20973  20.396  25.963   7.996
 1287POPC   C4B20974  20.183  26.078   7.607
 1288POPC   NC320975  30.228  43.409   9.358
 1288POPC   PO420976  30.847  43.257   9.582
 1288POPC   GL120977  30.712  43.271   9.133
 1288POPC   GL220978  30.564  43.598   9.048
 1288POPC   C1A20979  30.680  42.999   8.731
 1288POPC   D2A20980  30.953  42.784   8.393
 1288POPC   C3A20981  30.921  42.967   7.979
 1288POPC   C4A20982  30.550  42.884   7.719
 1288POPC   C1B20983  30.719  43.516   8.679
 1288POPC   C2B20984  30.686  43.295   8.299
 1288POPC   C3B20985  30.548  43.375   7.886
 1288POPC   C4B20986  30.695  43.293   7.455
 1289POPC   NC320987  28.797   0.744   9.346
 1289POPC   PO420988  29.314   1.038   9.692
 1289POPC   GL120989  29.103   1.055   9.113
 1289POPC   GL220990  28.834   0.987   8.909
 1289POPC   C1A20991  29.275   0.933   8.639
 1289POPC   D2A20992  29.577   0.847   8.259
 1289POPC   C3A20993  29.360   0.762   7.865
 1289POPC   C4A20994  29.081   0.957   7.553
 1289POPC   C1B20995  28.782   1.084   8.487
 1289POPC   C2B20996  28.908   0.854   8.137
 1289POPC   C3B20997  28.649   0.898   7.819
 1289POPC   C4B20998  28.682   1.282   7.580
 1290POPC   NC320999  34.990  40.322   9.574
 1290POPC   PO421000  34.552  39.746   9.470
 1290POPC   GL121001  34.627  40.038   9.196
 1290POPC   GL221002  34.402  40.293   9.295
 1290POPC   C1A21003  34.762  39.999   8.795
 1290POPC   D2A21004  34.755  39.766   8.424
 1290POPC   C3A21005  34.654  39.975   8.035
 1290POPC   C4A21006  34.705  39.777   7.633
 1290POPC   C1B21007  34.416  40.419   8.870
 1290POPC   C2B21008  34.530  40.302   8.462
 1290POPC   C3B21009  34.382  40.431   8.079
 1290POPC   C4B21010  34.527  40.334   7.681
 1291POPC   NC321011   3.844  39.664   9.505
 1291POPC   PO421012   3.592  40.291   9.600
 1291POPC   GL121013   3.501  39.973   9.267
 1291POPC   GL221014   3.271  40.146   9.084
 1291POPC   C1A21015   3.582  39.757   8.874
 1291POPC   D2A21016   3.804  39.848   8.484
 1291POPC   C3A21017   3.598  39.870   8.113
 1291POPC   C4A21018   3.715  39.742   7.717
 1291POPC   C1B21019   3.556  40.251   8.748
 1291POPC   C2B21020   3.665  40.344   8.328
 1291POPC   C3B21021   3.468  40.390   7.950
 1291POPC   C4B21022   3.313  40.077   7.733
 1292POPC   NC321023  24.180  41.636   9.438
 1292POPC   PO421024  24.835  41.507   9.380
 1292POPC   GL121025  24.515  41.644   9.075
 1292POPC   GL221026  24.441  41.330   9.030
 1292POPC   C1A21027  24.237  41.582   8.661
 1292POPC   D2A21028  24.360  41.508   8.223
 1292POPC   C3A21029  24.682  41.710   8.051
 1292POPC   C4A21030  24.761  41.747   7.672
 1292POPC   C1B21031  24.747  41.478   8.670
 1292POPC   C2B21032  24.828  41.270   8.269
 1292POPC   C3B21033  24.660  41.224   7.854
 1292POPC   C4B21034  24.392  41.310   7.529
 1293POPC   NC321035  11.765   1.784   9.411
 1293POPC   PO421036  12.114   2.226   9.648
 1293POPC   GL121037  12.135   2.200   9.176
 1293POPC   GL221038  12.048   1.883   9.029
 1293POPC   C1A21039  11.938   2.272   8.729
 1293POPC   D2A21040  11.859   1.951   8.400
 1293POPC   C3A21041  11.633   2.161   8.079
 1293POPC   C4A21042  11.603   2.227   7.646
 1293POPC   C1B21043  12.304   1.944   8.717
 1293POPC   C2B21044  12.313   2.184   8.346
 1293POPC   C3B21045  12.318   2.029   7.930
 1293POPC   C4B21046  12.387   1.795   7.552
 1294POPC   NC321047  29.792  39.418   9.442
 1294POPC   PO421048  30.432  39.160   9.499
 1294POPC   GL121049  30.241  39.380   9.175
 1294POPC   GL221050  30.046  39.077   9.127
 1294POPC   C1A21051  30.002  39.463   8.801
 1294POPC   D2A21052  29.917  39.317   8.372
 1294POPC   C3A21053  29.878  39.470   7.941
 1294POPC   C4A21054  29.595  39.139   7.762
 1294POPC   C1B21055  30.064  38.954   8.706
 1294POPC   C2B21056  30.251  38.924   8.307
 1294POPC   C3B21057  30.106  38.997   7.889
 1294POPC   C4B21058  30.105  39.295   7.522
 1295POPC   NC321059  32.509  20.265   9.470
 1295POPC   PO421060  33.212  20.438   9.466
 1295POPC   GL121061  32.859  20.594   9.205
 1295POPC   GL221062  32.826  20.288   9.079
 1295POPC   C1A21063  32.869  20.690   8.743
 1295POPC   D2A21064  33.300  20.684   8.490
 1295POPC   C3A21065  33.220  20.693   8.048
 1295POPC   C4A21066  32.834  20.861   7.886
 1295POPC   C1B21067  33.111  20.245   8.730
 1295POPC   C2B21068  32.939  20.358   8.346
 1295POPC   C3B21069  32.760  20.362   7.939
 1295POPC   C4B21070  33.017  20.476   7.597
 1296POPC   NC321071  22.333  11.156   9.497
 1296POPC   PO421072  21.830  11.636   9.439
 1296POPC   GL121073  21.922  11.214   9.210
 1296POPC   GL221074  22.228  11.289   9.018
 1296POPC   C1A21075  21.939  10.967   8.784
 1296POPC   D2A21076  22.114  11.193   8.424
 1296POPC   C3A21077  22.046  11.056   8.005
 1296POPC   C4A21078  22.115  11.347   7.661
 1296POPC   C1B21079  22.532  11.309   8.703
 1296POPC   C2B21080  22.615  11.113   8.356
 1296POPC   C3B21081  22.510  11.295   7.996
 1296POPC   C4B21082  22.577  11.152   7.588
 1297POPC   NC321083  27.696  14.998   9.472
 1297POPC   PO421084  27.167  15.391   9.481
 1297POPC   GL121085  27.479  15.295   9.139
 1297POPC   GL221086  27.450  14.954   9.026
 1297POPC   C1A21087  27.548  15.390   8.712
 1297POPC   D2A21088  27.708  15.217   8.341
 1297POPC   C3A21089  27.597  15.346   7.934
 1297POPC   C4A21090  27.873  15.433   7.603
 1297POPC   C1B21091  27.865  15.004   8.799
 1297POPC   C2B21092  28.134  14.951   8.411
 1297POPC   C3B21093  28.054  15.072   7.969
 1297POPC   C4B21094  28.023  14.948   7.532
 1298POPC   NC321095  23.654   2.800   9.898
 1298POPC   PO421096  23.364   2.868   9.537
 1298POPC   GL121097  23.587   2.876   9.118
 1298POPC   GL221098  23.945   2.765   9.121
 1298POPC   C1A21099  23.485   2.907   8.658
 1298POPC   D2A21100  23.755   3.010   8.317
 1298POPC   C3A21101  23.687   3.021   7.882
 1298POPC   C4A21102  23.894   2.815   7.544
 1298POPC   C1B21103  23.923   2.639   8.680
 1298POPC   C2B21104  23.660   2.506   8.324
 1298POPC   C3B21105  23.572   2.513   7.871
 1298POPC   C4B21106  23.649   2.383   7.428
 1299POPC   NC321107  32.544  18.099   9.368
 1299POPC   PO421108  31.908  18.333   9.639
 1299POPC   GL121109  32.093  18.401   9.202
 1299POPC   GL221110  32.447  18.527   9.122
 1299POPC   C1A21111  32.120  18.276   8.770
 1299POPC   D2A21112  32.195  18.471   8.361
 1299POPC   C3A21113  32.153  18.183   8.025
 1299POPC   C4A21114  31.985  18.209   7.637
 1299POPC   C1B21115  32.637  18.315   8.751
 1299POPC   C2B21116  32.718  18.471   8.347
 1299POPC   C3B21117  32.544  18.516   7.960
 1299POPC   C4B21118  32.566  18.205   7.683
 1300POPC   NC321119  41.854  20.898   9.585
 1300POPC   PO421120  41.229  20.579   9.476
 1300POPC   GL121121  41.574  20.546   9.188
 1300POPC   GL221122  41.832  20.804   9.088
 1300POPC   C1A21123  41.572  20.460   8.760
 1300POPC   D2A21124  41.639  20.727   8.406
 1300POPC   C3A21125  41.492  20.520   8.067
 1300POPC   C4A21126  41.516  20.639   7.665
 1300POPC   C1B21127  41.974  21.006   8.694
 1300POPC   C2B21128  42.004  21.106   8.230
 1300POPC   C3B21129  41.803  21.016   7.834
 1300POPC   C4B21130  41.733  20.996   7.334
 1301POPC   NC321131  37.177  39.506   9.389
 1301POPC   PO421132  36.721  39.031   9.444
 1301POPC   GL121133  36.870  39.232   9.079
 1301POPC   GL221134  37.183  39.058   9.106
 1301POPC   C1A21135  36.916  39.394   8.664
 1301POPC   D2A21136  36.653  39.268   8.286
 1301POPC   C3A21137  36.761  39.468   7.898
 1301POPC   C4A21138  36.676  39.438   7.453
 1301POPC   C1B21139  37.125  38.910   8.692
 1301POPC   C2B21140  37.168  39.161   8.298
 1301POPC   C3B21141  37.209  39.191   7.872
 1301POPC   C4B21142  37.218  39.415   7.505
 1302POPC   NC321143   8.286   5.244   9.952
 1302POPC   PO421144   8.308   4.713   9.608
 1302POPC   GL121145   8.031   4.850   9.247
 1302POPC   GL221146   7.973   5.216   9.231
 1302POPC   C1A21147   8.094   4.788   8.787
 1302POPC   D2A21148   7.901   4.883   8.371
 1302POPC   C3A21149   8.140   4.976   7.984
 1302POPC   C4A21150   8.279   4.936   7.554
 1302POPC   C1B21151   8.074   5.447   8.828
 1302POPC   C2B21152   8.115   5.364   8.371
 1302POPC   C3B21153   8.070   5.533   7.949
 1302POPC   C4B21154   8.198   5.443   7.529
 1303POPC   NC321155   8.495  37.758   9.486
 1303POPC   PO421156   8.025  37.277   9.546
 1303POPC   GL121157   8.049  37.588   9.197
 1303POPC   GL221158   8.404  37.541   9.031
 1303POPC   C1A21159   8.047  37.797   8.783
 1303POPC   D2A21160   8.338  37.572   8.511
 1303POPC   C3A21161   8.246  37.581   8.088
 1303POPC   C4A21162   8.019  37.862   7.866
 1303POPC   C1B21163   8.541  37.951   8.800
 1303POPC   C2B21164   8.379  38.082   8.383
 1303POPC   C3B21165   8.519  38.019   7.969
 1303POPC   C4B21166   8.487  37.681   7.654
 1304POPC   NC321167  29.354  10.906   9.521
 1304POPC   PO421168  29.153  11.553   9.475
 1304POPC   GL121169  29.015  11.417   9.061
 1304POPC   GL221170  29.090  11.100   9.133
 1304POPC   C1A21171  29.121  11.361   8.604
 1304POPC   D2A21172  29.448  11.506   8.292
 1304POPC   C3A21173  29.192  11.645   7.964
 1304POPC   C4A21174  28.781  11.497   7.907
 1304POPC   C1B21175  29.292  10.906   8.797
 1304POPC   C2B21176  29.372  10.938   8.358
 1304POPC   C3B21177  29.167  11.134   8.063
 1304POPC   C4B21178  29.161  11.203   7.647
 1305POPC   NC321179   4.479  30.549   9.750
 1305POPC   PO421180   4.028  30.944   9.520
 1305POPC   GL121181   4.170  30.644   9.190
 1305POPC   GL221182   4.437  30.389   9.261
 1305POPC   C1A21183   4.055  30.421   8.799
 1305POPC   D2A21184   3.923  30.457   8.349
 1305POPC   C3A21185   4.253  30.663   8.073
 1305POPC   C4A21186   4.234  30.686   7.601
 1305POPC   C1B21187   4.557  30.525   8.846
 1305POPC   C2B21188   4.626  30.598   8.436
 1305POPC   C3B21189   4.713  30.393   8.064
 1305POPC   C4B21190   4.527  30.271   7.667
 1306POPC   NC321191  38.700  14.640   9.528
 1306POPC   PO421192  38.209  14.201   9.525
 1306POPC   GL121193  38.323  14.512   9.207
 1306POPC   GL221194  38.268  14.243   8.986
 1306POPC   C1A21195  38.475  14.642   8.782
 1306POPC   D2A21196  38.223  14.550   8.407
 1306POPC   C3A21197  38.352  14.653   7.988
 1306POPC   C4A21198  38.591  14.645   7.595
 1306POPC   C1B21199  38.579  14.071   8.700
 1306POPC   C2B21200  38.637  14.066   8.271
 1306POPC   C3B21201  38.434  14.161   7.898
 1306POPC   C4B21202  38.693  14.174   7.536
 1307POPC   NC321203  24.697  13.885   9.515
 1307POPC   PO421204  24.294  13.303   9.444
 1307POPC   GL121205  24.276  13.552   9.089
 1307POPC   GL221206  24.465  13.824   9.081
 1307POPC   C1A21207  24.454  13.504   8.670
 1307POPC   D2A21208  24.247  13.671   8.307
 1307POPC   C3A21209  24.320  13.506   7.910
 1307POPC   C4A21210  24.259  13.484   7.501
 1307POPC   C1B21211  24.273  13.970   8.733
 1307POPC   C2B21212  24.304  14.182   8.338
 1307POPC   C3B21213  24.464  14.007   7.945
 1307POPC   C4B21214  24.517  13.963   7.499
 1308POPC   NC321215  26.588  23.702   9.481
 1308POPC   PO421216  27.239  23.800   9.593
 1308POPC   GL121217  27.010  23.766   9.166
 1308POPC   GL221218  26.742  23.482   9.039
 1308POPC   C1A21219  26.894  23.865   8.732
 1308POPC   D2A21220  26.662  23.665   8.448
 1308POPC   C3A21221  26.763  23.501   8.051
 1308POPC   C4A21222  26.880  23.794   7.753
 1308POPC   C1B21223  26.339  23.681   8.833
 1308POPC   C2B21224  26.294  24.021   8.494
 1308POPC   C3B21225  26.447  23.915   8.055
 1308POPC   C4B21226  26.293  23.734   7.692
 1309POPC   NC321227  14.199  24.258   9.377
 1309POPC   PO421228  14.467  24.797   9.537
 1309POPC   GL121229  14.256  24.732   9.153
 1309POPC   GL221230  13.903  24.629   9.161
 1309POPC   C1A21231  14.368  24.650   8.750
 1309POPC   D2A21232  14.565  24.589   8.368
 1309POPC   C3A21233  14.393  24.427   7.977
 1309POPC   C4A21234  14.283  24.621   7.568
 1309POPC   C1B21235  13.870  24.762   8.728
 1309POPC   C2B21236  14.036  24.646   8.335
 1309POPC   C3B21237  14.115  24.901   7.988
 1309POPC   C4B21238  13.893  24.953   7.627
 1310POPC   NC321239  37.285  32.577   9.621
 1310POPC   PO421240  36.670  32.226   9.678
 1310POPC   GL121241  36.671  32.280   9.213
 1310POPC   GL221242  37.035  32.343   9.166
 1310POPC   C1A21243  36.726  32.268   8.734
 1310POPC   D2A21244  36.688  32.083   8.283
 1310POPC   C3A21245  36.678  32.237   7.832
 1310POPC   C4A21246  36.624  32.051   7.377
 1310POPC   C1B21247  37.233  32.373   8.754
 1310POPC   C2B21248  37.192  32.156   8.363
 1310POPC   C3B21249  37.187  32.296   7.950
 1310POPC   C4B21250  37.088  32.150   7.534
 1311POPC   NC321251  35.453  29.782   9.509
 1311POPC   PO421252  35.101  30.459   9.444
 1311POPC   GL121253  35.344  30.130   9.139
 1311POPC   GL221254  35.117  29.980   8.896
 1311POPC   C1A21255  35.540  29.752   8.864
 1311POPC   D2A21256  35.486  29.898   8.452
 1311POPC   C3A21257  35.626  29.769   8.055
 1311POPC   C4A21258  35.457  29.899   7.676
 1311POPC   C1B21259  34.828  29.779   8.669
 1311POPC   C2B21260  34.783  29.632   8.285
 1311POPC   C3B21261  35.119  29.761   8.058
 1311POPC   C4B21262  35.274  29.407   7.848
 1312POPC   NC321263  32.407   9.498   9.465
 1312POPC   PO421264  32.214  10.125   9.685
 1312POPC   GL121265  32.089   9.913   9.268
 1312POPC   GL221266  32.364   9.776   9.061
 1312POPC   C1A21267  31.945   9.813   8.806
 1312POPC   D2A21268  32.208   9.961   8.456
 1312POPC   C3A21269  32.109   9.833   8.042
 1312POPC   C4A21270  32.085   9.800   7.594
 1312POPC   C1B21271  32.510   9.584   8.669
 1312POPC   C2B21272  32.512   9.598   8.212
 1312POPC   C3B21273  32.541   9.622   7.780
 1312POPC   C4B21274  32.487   9.428   7.425
 1313POPC   NC321275  27.547  29.058   9.695
 1313POPC   PO421276  27.957  29.312   9.252
 1313POPC   GL121277  27.542  29.248   9.215
 1313POPC   GL221278  27.436  28.927   9.216
 1313POPC   C1A21279  27.421  29.398   8.848
 1313POPC   D2A21280  27.413  29.249   8.426
 1313POPC   C3A21281  27.715  29.336   8.084
 1313POPC   C4A21282  27.502  29.205   7.700
 1313POPC   C1B21283  27.537  28.900   8.786
 1313POPC   C2B21284  27.387  28.716   8.418
 1313POPC   C3B21285  27.416  28.797   8.005
 1313POPC   C4B21286  27.311  28.723   7.579
 1314POPC   NC321287  27.060  21.977   9.826
 1314POPC   PO421288  26.571  22.454   9.701
 1314POPC   GL121289  26.758  22.346   9.302
 1314POPC   GL221290  27.016  22.515   9.133
 1314POPC   C1A21291  26.729  22.118   8.888
 1314POPC   D2A21292  26.867  21.995   8.463
 1314POPC   C3A21293  26.644  22.063   8.078
 1314POPC   C4A21294  26.789  22.093   7.631
 1314POPC   C1B21295  27.034  22.499   8.696
 1314POPC   C2B21296  26.924  22.611   8.293
 1314POPC   C3B21297  26.664  22.527   7.902
 1314POPC   C4B21298  26.247  22.464   7.717
 1315POPC   NC321299   1.384   4.673   9.363
 1315POPC   PO421300   1.531   4.069   9.503
 1315POPC   GL121301   1.288   4.094   9.148
 1315POPC   GL221302   0.952   4.010   9.260
 1315POPC   C1A21303   1.284   4.312   8.749
 1315POPC   D2A21304   1.514   4.232   8.388
 1315POPC   C3A21305   1.499   4.465   8.025
 1315POPC   C4A21306   1.504   4.200   7.701
 1315POPC   C1B21307   0.840   4.070   8.847
 1315POPC   C2B21308   0.833   4.263   8.464
 1315POPC   C3B21309   1.041   4.226   8.103
 1315POPC   C4B21310   1.044   4.465   7.750
 1316POPC   NC321311   5.112  42.538   9.410
 1316POPC   PO421312   5.347  41.965   9.215
 1316POPC   GL121313   5.106  42.280   8.979
 1316POPC   GL221314   5.131  42.676   8.933
 1316POPC   C1A21315   5.009  42.175   8.606
 1316POPC   D2A21316   5.293  41.958   8.421
 1316POPC   C3A21317   5.156  42.049   8.044
 1316POPC   C4A21318   5.245  41.894   7.683
 1316POPC   C1B21319   4.775  42.622   8.706
 1316POPC   C2B21320   4.760  42.522   8.309
 1316POPC   C3B21321   4.962  42.522   7.923
 1316POPC   C4B21322   4.760  42.615   7.566
 1317POPC   NC321323   0.066  17.337   9.912
 1317POPC   PO421324   0.559  17.770   9.761
 1317POPC   GL121325   0.499  17.714   9.285
 1317POPC   GL221326   0.209  17.483   9.237
 1317POPC   C1A21327   0.643  17.697   8.834
 1317POPC   D2A21328   0.803  17.885   8.405
 1317POPC   C3A21329   0.626  17.741   7.985
 1317POPC   C4A21330   0.497  17.309   7.787
 1317POPC   C1B21331   0.107  17.807   8.912
 1317POPC   C2B21332   0.286  17.810   8.477
 1317POPC   C3B21333   0.182  17.557   8.124
 1317POPC   C4B21334   0.068  17.755   7.753
 1318POPC   NC321335  40.560  29.794   9.433
 1318POPC   PO421336  41.153  30.246   9.518
 1318POPC   GL121337  40.921  30.038   9.183
 1318POPC   GL221338  40.570  30.208   9.167
 1318POPC   C1A21339  40.777  29.846   8.773
 1318POPC   D2A21340  40.976  29.650   8.388
 1318POPC   C3A21341  40.763  29.598   7.983
 1318POPC   C4A21342  40.933  29.529   7.546
 1318POPC   C1B21343  40.364  30.163   8.803
 1318POPC   C2B21344  40.585  30.251   8.460
 1318POPC   C3B21345  40.586  30.128   8.072
 1318POPC   C4B21346  40.689  29.978   7.666
 1319POPC   NC321347  36.422  16.672   9.753
 1319POPC   PO421348  37.011  16.639   9.466
 1319POPC   GL121349  36.911  16.466   9.078
 1319POPC   GL221350  37.148  16.200   9.092
 1319POPC   C1A21351  36.926  16.578   8.664
 1319POPC   D2A21352  37.067  16.907   8.405
 1319POPC   C3A21353  36.892  16.958   7.996
 1319POPC   C4A21354  36.708  16.720   7.629
 1319POPC   C1B21355  37.251  16.201   8.698
 1319POPC   C2B21356  36.989  16.124   8.355
 1319POPC   C3B21357  36.890  16.445   8.067
 1319POPC   C4B21358  37.187  16.620   7.737
 1320POPC   NC321359   2.601  42.460   9.414
 1320POPC   PO421360   3.000  42.040   9.475
 1320POPC   GL121361   2.816  42.101   9.118
 1320POPC   GL221362   2.982  42.431   9.059
 1320POPC   C1A21363   2.678  42.206   8.731
 1320POPC   D2A21364   2.862  42.438   8.382
 1320POPC   C3A21365   2.706  42.351   7.979
 1320POPC   C4A21366   2.654  42.043   7.683
 1320POPC   C1B21367   3.137  42.678   8.735
 1320POPC   C2B21368   3.261  42.771   8.296
 1320POPC   C3B21369   3.052  42.717   7.912
 1320POPC   C4B21370   2.637  42.805   7.734
 1321POPC   NC321371  44.658   5.528   9.556
 1321POPC   PO421372  44.686   6.184   9.517
 1321POPC   GL121373  44.522   6.101   9.145
 1321POPC   GL221374  44.694   5.792   9.090
 1321POPC   C1A21375  44.367   5.993   8.730
 1321POPC   D2A21376  44.633   6.081   8.343
 1321POPC   C3A21377  44.575   6.046   7.889
 1321POPC   C4A21378  44.246   6.278   7.692
 1321POPC   C1B21379  44.933   5.970   8.738
 1321POPC   C2B21380   0.160   5.920   8.356
 1321POPC   C3B21381   0.042   5.795   7.941
 1321POPC   C4B21382  44.737   5.505   7.780
 1322POPC   NC321383  42.320   9.392   9.393
 1322POPC   PO421384  42.652   8.886   9.200
 1322POPC   GL121385  42.240   8.805   9.000
 1322POPC   GL221386  42.105   9.136   8.972
 1322POPC   C1A21387  42.011   8.736   8.583
 1322POPC   D2A21388  41.833   8.790   8.155
 1322POPC   C3A21389  42.131   8.718   7.845
 1322POPC   C4A21390  42.609   8.761   7.881
 1322POPC   C1B21391  42.391   9.109   8.609
 1322POPC   C2B21392  42.290   9.082   8.187
 1322POPC   C3B21393  42.476   9.280   7.840
 1322POPC   C4B21394  42.748   9.283   7.491
 1323POPC   NC321395  30.432   1.924   9.443
 1323POPC   PO421396  30.974   2.141   9.681
 1323POPC   GL121397  30.956   1.982   9.179
 1323POPC   GL221398  30.712   1.798   9.039
 1323POPC   C1A21399  31.032   2.022   8.717
 1323POPC   D2A21400  31.049   2.298   8.355
 1323POPC   C3A21401  30.723   2.174   8.060
 1323POPC   C4A21402  30.867   2.020   7.684
 1323POPC   C1B21403  30.776   1.550   8.704
 1323POPC   C2B21404  30.695   1.769   8.377
 1323POPC   C3B21405  30.667   1.657   7.972
 1323POPC   C4B21406  30.851   1.487   7.614
 1324POPC   NC321407  24.157  30.781   9.376
 1324POPC   PO421408  23.467  30.882   9.398
 1324POPC   GL121409  23.550  30.721   8.976
 1324POPC   GL221410  23.896  30.645   8.964
 1324POPC   C1A21411  23.504  30.412   8.628
 1324POPC   D2A21412  23.420  30.360   8.165
 1324POPC   C3A21413  23.655  30.583   7.873
 1324POPC   C4A21414  23.548  30.613   7.455
 1324POPC   C1B21415  23.850  30.780   8.541
 1324POPC   C2B21416  23.948  30.416   8.296
 1324POPC   C3B21417  24.161  30.503   7.931
 1324POPC   C4B21418  24.064  30.899   7.702
 1325POPC   NC321419   7.564   7.704   9.540
 1325POPC   PO421420   7.954   7.173   9.429
 1325POPC   GL121421   7.932   7.522   9.119
 1325POPC   GL221422   7.678   7.819   9.063
 1325POPC   C1A21423   8.055   7.333   8.712
 1325POPC   D2A21424   7.980   7.258   8.294
 1325POPC   C3A21425   8.292   7.444   7.995
 1325POPC   C4A21426   8.327   7.328   7.554
 1325POPC   C1B21427   7.874   7.793   8.673
 1325POPC   C2B21428   7.876   7.745   8.201
 1325POPC   C3B21429   7.873   7.614   7.778
 1325POPC   C4B21430   8.062   7.749   7.396
 1326POPC   NC321431  40.517  19.328   9.441
 1326POPC   PO421432  41.012  19.804   9.450
 1326POPC   GL121433  40.923  19.596   9.085
 1326POPC   GL221434  40.742  19.894   9.018
 1326POPC   C1A21435  40.852  19.563   8.644
 1326POPC   D2A21436  40.679  19.844   8.345
 1326POPC   C3A21437  40.831  19.773   7.910
 1326POPC   C4A21438  40.929  19.375   7.677
 1326POPC   C1B21439  40.565  20.218   8.758
 1326POPC   C2B21440  40.647  20.352   8.348
 1326POPC   C3B21441  40.699  20.282   7.930
 1326POPC   C4B21442  40.370  20.098   7.709
 1327POPC   NC321443  14.774   4.501   9.610
 1327POPC   PO421444  15.443   4.264   9.576
 1327POPC   GL121445  15.335   4.381   9.142
 1327POPC   GL221446  15.043   4.577   9.168
 1327POPC   C1A21447  15.254   4.192   8.719
 1327POPC   D2A21448  15.360   4.033   8.301
 1327POPC   C3A21449  15.261   4.221   7.904
 1327POPC   C4A21450  15.049   4.055   7.544
 1327POPC   C1B21451  15.136   4.692   8.742
 1327POPC   C2B21452  15.233   4.555   8.321
 1327POPC   C3B21453  15.037   4.694   7.937
 1327POPC   C4B21454  14.887   4.821   7.515
 1328POPC   NC321455  26.800  12.560   9.761
 1328POPC   PO421456  26.839  13.149   9.436
 1328POPC   GL121457  26.812  12.901   9.098
 1328POPC   GL221458  26.842  12.578   9.242
 1328POPC   C1A21459  26.957  12.973   8.672
 1328POPC   D2A21460  26.744  13.113   8.277
 1328POPC   C3A21461  26.808  12.983   7.837
 1328POPC   C4A21462  26.710  13.173   7.410
 1328POPC   C1B21463  26.994  12.490   8.815
 1328POPC   C2B21464  26.943  12.575   8.344
 1328POPC   C3B21465  27.051  12.519   7.891
 1328POPC   C4B21466  26.859  12.390   7.485
 1329POPC   NC321467  11.502   3.228   9.527
 1329POPC   PO421468  11.190   3.812   9.625
 1329POPC   GL121469  11.118   3.514   9.256
 1329POPC   GL221470  10.913   3.186   9.234
 1329POPC   C1A21471  11.215   3.630   8.817
 1329POPC   D2A21472  11.124   3.443   8.408
 1329POPC   C3A21473  11.251   3.642   8.014
 1329POPC   C4A21474  11.637   3.579   7.748
 1329POPC   C1B21475  11.181   3.131   8.854
 1329POPC   C2B21476  11.467   3.042   8.485
 1329POPC   C3B21477  11.470   3.176   8.046
 1329POPC   C4B21478  11.231   3.267   7.653
 1330POPC   NC321479  28.287  29.624   9.406
 1330POPC   PO421480  28.541  30.242   9.242
 1330POPC   GL121481  28.321  29.986   9.042
 1330POPC   GL221482  28.000  30.114   9.125
 1330POPC   C1A21483  28.246  29.949   8.623
 1330POPC   D2A21484  28.068  29.666   8.325
 1330POPC   C3A21485  28.355  29.597   7.978
 1330POPC   C4A21486  28.251  29.636   7.591
 1330POPC   C1B21487  28.082  30.447   8.778
 1330POPC   C2B21488  28.187  30.443   8.355
 1330POPC   C3B21489  28.246  30.088   8.097
 1330POPC   C4B21490  28.523  30.069   7.753
 1331POPC   NC321491  14.716  11.742   9.852
 1331POPC   PO421492  14.246  11.555   9.513
 1331POPC   GL121493  14.251  11.343   9.141
 1331POPC   GL221494  14.584  11.351   8.954
 1331POPC   C1A21495  14.163  11.492   8.725
 1331POPC   D2A21496  14.441  11.522   8.368
 1331POPC   C3A21497  14.216  11.469   7.986
 1331POPC   C4A21498  14.272  11.272   7.603
 1331POPC   C1B21499  14.880  11.185   8.651
 1331POPC   C2B21500  14.969  11.173   8.201
 1331POPC   C3B21501  14.720  11.361   7.884
 1331POPC   C4B21502  14.738  11.395   7.440
 1332POPC   NC321503  28.614  34.990   9.483
 1332POPC   PO421504  28.265  34.409   9.552
 1332POPC   GL121505  28.561  34.530   9.257
 1332POPC   GL221506  28.540  34.247   9.114
 1332POPC   C1A21507  28.536  34.715   8.839
 1332POPC   D2A21508  28.267  34.714   8.441
 1332POPC   C3A21509  28.467  34.569   8.060
 1332POPC   C4A21510  28.529  34.760   7.675
 1332POPC   C1B21511  28.780  34.288   8.762
 1332POPC   C2B21512  28.777  34.123   8.382
 1332POPC   C3B21513  28.686  34.069   7.980
 1332POPC   C4B21514  28.634  34.278   7.607
 1333POPC   NC321515   4.911  37.823   9.501
 1333POPC   PO421516   5.569  37.816   9.447
 1333POPC   GL121517   5.304  37.532   9.173
 1333POPC   GL221518   4.945  37.412   9.192
 1333POPC   C1A21519   5.153  37.646   8.739
 1333POPC   D2A21520   5.273  37.577   8.283
 1333POPC   C3A21521   5.196  37.826   7.875
 1333POPC   C4A21522   5.002  37.923   7.423
 1333POPC   C1B21523   4.645  37.585   8.858
 1333POPC   C2B21524   4.755  37.562   8.423
 1333POPC   C3B21525   4.887  37.353   8.028
 1333POPC   C4B21526   4.725  37.650   7.747
 1334POPC   NC321527  29.536  27.665   9.652
 1334POPC   PO421528  29.004  27.514   9.641
 1334POPC   GL121529  28.868  27.542   9.184
 1334POPC   GL221530  28.617  27.306   9.096
 1334POPC   C1A21531  28.793  27.639   8.703
 1334POPC   D2A21532  28.904  27.814   8.273
 1334POPC   C3A21533  28.908  27.609   7.857
 1334POPC   C4A21534  29.234  27.359   7.598
 1334POPC   C1B21535  28.989  27.193   8.823
 1334POPC   C2B21536  29.148  27.333   8.407
 1334POPC   C3B21537  29.039  27.137   8.012
 1334POPC   C4B21538  28.755  27.128   7.654
 1335POPC   NC321539  32.099  31.077   9.926
 1335POPC   PO421540  32.610  30.786   9.587
 1335POPC   GL121541  32.462  30.826   9.162
 1335POPC   GL221542  32.118  30.883   9.141
 1335POPC   C1A21543  32.334  30.767   8.716
 1335POPC   D2A21544  32.302  30.915   8.345
 1335POPC   C3A21545  32.140  30.648   8.123
 1335POPC   C4A21546  32.141  30.757   7.739
 1335POPC   C1B21547  31.890  30.574   8.837
 1335POPC   C2B21548  31.752  30.404   8.394
 1335POPC   C3B21549  31.790  30.340   7.911
 1335POPC   C4B21550  31.796  30.496   7.484
 1336POPC   NC321551  28.289   0.153   9.547
 1336POPC   PO421552  28.478   0.785   9.673
 1336POPC   GL121553  28.468   0.440   9.176
 1336POPC   GL221554  28.666   0.150   9.182
 1336POPC   C1A21555  28.197   0.329   8.805
 1336POPC   D2A21556  28.003   0.527   8.425
 1336POPC   C3A21557  28.295   0.529   8.046
 1336POPC   C4A21558  28.399   0.509   7.580
 1336POPC   C1B21559  28.659   0.169   8.727
 1336POPC   C2B21560  28.336   0.111   8.353
 1336POPC   C3B21561  28.434   0.070   7.878
 1336POPC   C4B21562  28.688   0.108   7.494
 1337POPC   NC321563   2.359   8.974   9.428
 1337POPC   PO421564   1.773   9.139   9.457
 1337POPC   GL121565   1.956   8.981   9.079
 1337POPC   GL221566   2.151   8.671   9.066
 1337POPC   C1A21567   2.003   8.947   8.638
 1337POPC   D2A21568   1.891   8.629   8.342
 1337POPC   C3A21569   1.739   8.857   7.983
 1337POPC   C4A21570   2.027   9.169   7.765
 1337POPC   C1B21571   2.321   8.552   8.646
 1337POPC   C2B21572   2.432   8.649   8.220
 1337POPC   C3B21573   2.193   8.692   7.818
 1337POPC   C4B21574   2.251   8.865   7.356
 1338POPC   NC321575  23.937  26.662   9.473
 1338POPC   PO421576  24.501  26.874   9.435
 1338POPC   GL121577  24.337  26.648   9.115
 1338POPC   GL221578  24.113  26.906   9.068
 1338POPC   C1A21579  24.468  26.754   8.708
 1338POPC   D2A21580  24.330  26.624   8.309
 1338POPC   C3A21581  24.533  26.639   7.915
 1338POPC   C4A21582  24.300  26.547   7.546
 1338POPC   C1B21583  24.141  27.153   8.728
 1338POPC   C2B21584  24.249  27.335   8.343
 1338POPC   C3B21585  24.435  27.154   7.975
 1338POPC   C4B21586  24.575  27.036   7.566
 1339POPC   NC321587   1.594   1.867   9.583
 1339POPC   PO421588   1.106   2.287   9.439
 1339POPC   GL121589   1.148   1.952   9.160
 1339POPC   GL221590   1.514   2.042   9.121
 1339POPC   C1A21591   1.005   1.825   8.726
 1339POPC   D2A21592   1.126   1.635   8.305
 1339POPC   C3A21593   1.289   1.836   7.951
 1339POPC   C4A21594   1.194   2.152   7.654
 1339POPC   C1B21595   1.346   2.231   8.794
 1339POPC   C2B21596   1.356   2.090   8.399
 1339POPC   C3B21597   1.450   2.332   8.055
 1339POPC   C4B21598   1.663   2.346   7.643
 1340POPC   NC321599  30.069  41.123   9.684
 1340POPC   PO421600  29.820  40.508   9.614
 1340POPC   GL121601  29.852  40.714   9.154
 1340POPC   GL221602  30.134  40.619   8.957
 1340POPC   C1A21603  29.775  40.825   8.676
 1340POPC   D2A21604  30.064  40.943   8.314
 1340POPC   C3A21605  29.854  40.946   7.895
 1340POPC   C4A21606  29.504  40.726   7.739
 1340POPC   C1B21607  30.426  40.622   8.664
 1340POPC   C2B21608  30.402  40.562   8.246
 1340POPC   C3B21609  30.160  40.556   7.931
 1340POPC   C4B21610  30.188  40.756   7.539
 1341POPC   NC321611  19.319  30.468   9.585
 1341POPC   PO421612  20.023  30.524   9.531
 1341POPC   GL121613  20.121  30.715   9.161
 1341POPC   GL221614  19.755  30.725   9.076
 1341POPC   C1A21615  20.165  30.679   8.730
 1341POPC   D2A21616  19.830  30.595   8.444
 1341POPC   C3A21617  19.630  30.879   8.171
 1341POPC   C4A21618  19.862  30.788   7.813
 1341POPC   C1B21619  19.449  30.523   8.801
 1341POPC   C2B21620  19.413  30.316   8.397
 1341POPC   C3B21621  19.609  30.389   8.009
 1341POPC   C4B21622  19.497  30.594   7.559
 1342POPC   NC321623  19.521  27.380   9.417
 1342POPC   PO421624  20.156  27.601   9.513
 1342POPC   GL121625  19.976  27.775   9.154
 1342POPC   GL221626  19.640  27.840   9.131
 1342POPC   C1A21627  20.016  27.761   8.733
 1342POPC   D2A21628  19.955  27.360   8.551
 1342POPC   C3A21629  19.822  27.325   8.134
 1342POPC   C4A21630  19.996  27.090   7.813
 1342POPC   C1B21631  19.498  27.848   8.725
 1342POPC   C2B21632  19.546  27.849   8.294
 1342POPC   C3B21633  19.718  27.815   7.909
 1342POPC   C4B21634  19.646  27.469   7.674
 1343POPC   NC321635  33.979  28.858   9.583
 1343POPC   PO421636  33.580  29.362   9.643
 1343POPC   GL121637  33.847  29.292   9.221
 1343POPC   GL221638  34.055  29.006   9.104
 1343POPC   C1A21639  34.014  29.399   8.802
 1343POPC   D2A21640  33.863  29.134   8.457
 1343POPC   C3A21641  33.959  29.326   8.067
 1343POPC   C4A21642  33.953  29.560   7.719
 1343POPC   C1B21643  34.258  28.918   8.698
 1343POPC   C2B21644  34.117  28.734   8.284
 1343POPC   C3B21645  33.806  28.858   7.979
 1343POPC   C4B21646  34.021  29.029   7.625
 1344POPC   NC321647  18.732   4.142   9.461
 1344POPC   PO421648  18.042   4.031   9.465
 1344POPC   GL121649  18.280   4.344   9.256
 1344POPC   GL221650  18.435   4.107   9.060
 1344POPC   C1A21651  18.234   4.502   8.833
 1344POPC   D2A21652  18.086   4.270   8.488
 1344POPC   C3A21653  18.170   4.510   8.138
 1344POPC   C4A21654  18.439   4.525   7.776
 1344POPC   C1B21655  18.475   3.915   8.681
 1344POPC   C2B21656  18.326   3.870   8.259
 1344POPC   C3B21657  18.287   4.061   7.882
 1344POPC   C4B21658  18.620   4.064   7.542
 1345POPC   NC321659  34.747  41.315   9.770
 1345POPC   PO421660  35.296  41.462   9.434
 1345POPC   GL121661  35.301  41.467   9.037
 1345POPC   GL221662  35.388  41.816   9.058
 1345POPC   C1A21663  35.359  41.543   8.610
 1345POPC   D2A21664  35.252  41.426   8.218
 1345POPC   C3A21665  35.230  41.776   7.998
 1345POPC   C4A21666  35.427  41.809   7.670
 1345POPC   C1B21667  35.649  42.014   8.766
 1345POPC   C2B21668  35.510  41.985   8.374
 1345POPC   C3B21669  35.642  42.139   7.999
 1345POPC   C4B21670  35.901  41.996   7.704
 1346POPC   NC321671   1.809  43.766   9.669
 1346POPC   PO421672   2.273  44.290   9.578
 1346POPC   GL121673   2.153  43.942   9.224
 1346POPC   GL221674   1.775  43.856   9.162
 1346POPC   C1A21675   2.078  43.785   8.744
 1346POPC   D2A21676   1.835  44.041   8.411
 1346POPC   C3A21677   1.992  44.086   7.970
 1346POPC   C4A21678   1.782  44.315   7.630
 1346POPC   C1B21679   1.563  43.717   8.759
 1346POPC   C2B21680   1.711  43.561   8.322
 1346POPC   C3B21681   2.098  43.599   8.125
 1346POPC   C4B21682   2.258  43.625   7.708
 1347POPC   NC321683  15.883  41.806   9.502
 1347POPC   PO421684  16.246  41.280   9.449
 1347POPC   GL121685  16.001  41.472   9.130
 1347POPC   GL221686  16.201  41.756   9.089
 1347POPC   C1A21687  15.740  41.300   8.776
 1347POPC   D2A21688  15.890  41.324   8.353
 1347POPC   C3A21689  15.706  41.272   7.955
 1347POPC   C4A21690  15.752  41.401   7.514
 1347POPC   C1B21691  16.169  41.608   8.666
 1347POPC   C2B21692  16.201  41.735   8.253
 1347POPC   C3B21693  16.062  41.722   7.842
 1347POPC   C4B21694  16.270  42.062   7.623
 1348POPC   NC321695  28.217  30.513   9.413
 1348POPC   PO421696  27.884  31.065   9.281
 1348POPC   GL121697  28.257  30.878   9.077
 1348POPC   GL221698  28.617  30.815   9.209
 1348POPC   C1A21699  28.236  30.969   8.658
 1348POPC   D2A21700  27.927  30.899   8.354
 1348POPC   C3A21701  28.228  30.900   8.041
 1348POPC   C4A21702  28.204  30.505   7.834
 1348POPC   C1B21703  28.606  30.639   8.761
 1348POPC   C2B21704  28.603  30.749   8.342
 1348POPC   C3B21705  28.690  30.591   7.926
 1348POPC   C4B21706  28.798  30.691   7.503
 1349POPC   NC321707  12.945  27.381   9.682
 1349POPC   PO421708  13.065  26.737   9.676
 1349POPC   GL121709  13.041  26.600   9.241
 1349POPC   GL221710  12.697  26.597   9.140
 1349POPC   C1A21711  13.218  26.658   8.823
 1349POPC   D2A21712  13.072  26.914   8.452
 1349POPC   C3A21713  13.155  26.809   8.010
 1349POPC   C4A21714  12.879  26.903   7.646
 1349POPC   C1B21715  12.762  26.519   8.668
 1349POPC   C2B21716  13.044  26.405   8.298
 1349POPC   C3B21717  12.933  26.389   7.820
 1349POPC   C4B21718  12.546  26.499   7.564
 1350POPC   NC321719  15.415  13.872   9.856
 1350POPC   PO421720  15.945  13.548   9.537
 1350POPC   GL121721  15.886  13.592   9.131
 1350POPC   GL221722  16.080  13.315   9.088
 1350POPC   C1A21723  15.732  13.643   8.714
 1350POPC   D2A21724  15.672  13.338   8.393
 1350POPC   C3A21725  15.705  13.527   7.986
 1350POPC   C4A21726  15.720  13.994   7.900
 1350POPC   C1B21727  16.240  13.532   8.737
 1350POPC   C2B21728  16.196  13.872   8.473
 1350POPC   C3B21729  16.258  13.923   8.048
 1350POPC   C4B21730  16.097  13.677   7.716
 1351POPC   NC321731   1.046  44.387   9.491
 1351POPC   PO421732   1.469  44.878   9.493
 1351POPC   GL121733   1.271  44.885   9.102
 1351POPC   GL221734   1.049  44.619   9.037
 1351POPC   C1A21735   1.277  44.867   8.658
 1351POPC   D2A21736   1.070  44.573   8.372
 1351POPC   C3A21737   1.370  44.379   8.105
 1351POPC   C4A21738   1.448  44.669   7.773
 1351POPC   C1B21739   0.821  44.353   8.774
 1351POPC   C2B21740   0.826  44.110   8.388
 1351POPC   C3B21741   0.876  44.247   7.967
 1351POPC   C4B21742   0.914  44.661   7.794
 1352POPC   NC321743  33.789  17.284   9.480
 1352POPC   PO421744  33.739  17.884   9.197
 1352POPC   GL121745  33.750  17.480   9.015
 1352POPC   GL221746  34.080  17.501   8.956
 1352POPC   C1A21747  33.747  17.170   8.687
 1352POPC   D2A21748  33.974  17.116   8.306
 1352POPC   C3A21749  33.870  17.495   8.038
 1352POPC   C4A21750  33.536  17.523   7.711
 1352POPC   C1B21751  34.186  17.882   8.711
 1352POPC   C2B21752  34.146  17.906   8.276
 1352POPC   C3B21753  33.964  18.002   7.906
 1352POPC   C4B21754  33.981  17.741   7.571
 1353POPC   NC321755  34.584  31.816   9.827
 1353POPC   PO421756  34.663  31.357   9.412
 1353POPC   GL121757  34.570  31.636   9.088
 1353POPC   GL221758  34.221  31.686   9.007
 1353POPC   C1A21759  34.637  31.506   8.680
 1353POPC   D2A21760  34.828  31.665   8.308
 1353POPC   C3A21761  34.714  31.467   7.928
 1353POPC   C4A21762  34.518  31.347   7.563
 1353POPC   C1B21763  34.218  31.770   8.584
 1353POPC   C2B21764  34.041  31.849   8.217
 1353POPC   C3B21765  34.236  31.700   7.889
 1353POPC   C4B21766  34.274  31.785   7.495
 1354POPC   NC321767  27.911  26.584   9.636
 1354POPC   PO421768  27.280  27.003   9.684
 1354POPC   GL121769  27.525  27.072   9.336
 1354POPC   GL221770  27.590  26.767   9.209
 1354POPC   C1A21771  27.546  27.136   8.877
 1354POPC   D2A21772  27.649  27.018   8.463
 1354POPC   C3A21773  27.411  26.976   8.071
 1354POPC   C4A21774  27.713  27.123   7.739
 1354POPC   C1B21775  27.544  26.579   8.785
 1354POPC   C2B21776  27.620  26.520   8.324
 1354POPC   C3B21777  27.622  26.532   7.877
 1354POPC   C4B21778  27.549  26.359   7.447
 1355POPC   NC321779  41.941  39.072   9.490
 1355POPC   PO421780  42.633  39.020   9.554
 1355POPC   GL121781  42.423  39.265   9.217
 1355POPC   GL221782  42.141  39.474   9.213
 1355POPC   C1A21783  42.497  39.433   8.817
 1355POPC   D2A21784  42.381  39.403   8.425
 1355POPC   C3A21785  42.562  39.148   8.116
 1355POPC   C4A21786  42.559  39.113   7.658
 1355POPC   C1B21787  41.987  39.588   8.778
 1355POPC   C2B21788  41.869  39.436   8.368
 1355POPC   C3B21789  42.112  39.426   7.986
 1355POPC   C4B21790  42.111  39.319   7.544
 1356POPC   NC321791  23.839  29.836   9.564
 1356POPC   PO421792  24.289  30.313   9.404
 1356POPC   GL121793  23.983  30.130   9.122
 1356POPC   GL221794  23.604  30.105   9.029
 1356POPC   C1A21795  23.948  29.897   8.748
 1356POPC   D2A21796  23.656  29.968   8.385
 1356POPC   C3A21797  23.828  30.044   7.967
 1356POPC   C4A21798  23.879  29.804   7.606
 1356POPC   C1B21799  23.493  29.681   8.793
 1356POPC   C2B21800  23.329  29.567   8.349
 1356POPC   C3B21801  23.370  29.739   7.935
 1356POPC   C4B21802  23.404  29.662   7.479
 1357POPC   NC321803  11.338  17.591   9.572
 1357POPC   PO421804  10.813  17.860   9.260
 1357POPC   GL121805  11.097  17.547   9.118
 1357POPC   GL221806  11.463  17.504   9.090
 1357POPC   C1A21807  11.123  17.374   8.723
 1357POPC   D2A21808  11.068  17.623   8.352
 1357POPC   C3A21809  11.155  17.429   7.950
 1357POPC   C4A21810  11.133  17.695   7.601
 1357POPC   C1B21811  11.430  17.786   8.754
 1357POPC   C2B21812  11.577  17.781   8.364
 1357POPC   C3B21813  11.641  17.620   7.973
 1357POPC   C4B21814  11.618  17.855   7.612
 1358POPC   NC321815  35.318  18.850   9.349
 1358POPC   PO421816  35.789  19.334   9.489
 1358POPC   GL121817  35.543  19.243   9.136
 1358POPC   GL221818  35.735  19.300   8.940
 1358POPC   C1A21819  35.332  19.015   8.741
 1358POPC   D2A21820  35.334  18.683   8.391
 1358POPC   C3A21821  35.287  18.799   7.957
 1358POPC   C4A21822  35.565  18.933   7.618
 1358POPC   C1B21823  35.485  19.474   8.616
 1358POPC   C2B21824  35.447  19.369   8.177
 1358POPC   C3B21825  35.564  19.538   7.779
 1358POPC   C4B21826  35.695  19.391   7.355
 1359POPC   NC321827  43.959   3.217   9.873
 1359POPC   PO421828  43.699   3.670   9.425
 1359POPC   GL121829  43.769   3.516   9.070
 1359POPC   GL221830  44.065   3.383   9.120
 1359POPC   C1A21831  43.995   3.630   8.679
 1359POPC   D2A21832  44.143   3.742   8.266
 1359POPC   C3A21833  43.858   3.796   7.935
 1359POPC   C4A21834  43.815   3.549   7.560
 1359POPC   C1B21835  44.146   3.132   8.747
 1359POPC   C2B21836  44.279   3.239   8.324
 1359POPC   C3B21837  44.126   3.352   7.917
 1359POPC   C4B21838  44.198   3.226   7.491
 1360POPC   NC321839  29.500  34.525   9.475
 1360POPC   PO421840  30.215  34.543   9.450
 1360POPC   GL121841  29.975  34.763   9.106
 1360POPC   GL221842  29.602  34.915   9.162
 1360POPC   C1A21843  30.043  34.611   8.669
 1360POPC   D2A21844  30.229  34.232   8.410
 1360POPC   C3A21845  30.220  34.361   7.971
 1360POPC   C4A21846  29.970  34.736   7.853
 1360POPC   C1B21847  29.547  34.695   8.791
 1360POPC   C2B21848  29.577  34.832   8.369
 1360POPC   C3B21849  29.459  34.705   7.946
 1360POPC   C4B21850  29.607  34.362   7.738
 1361POPC   NC321851  30.547  29.988   9.800
 1361POPC   PO421852  31.117  30.200   9.500
 1361POPC   GL121853  30.700  30.127   9.251
 1361POPC   GL221854  30.474  30.437   9.212
 1361POPC   C1A21855  30.630  29.936   8.813
 1361POPC   D2A21856  30.618  29.861   8.336
 1361POPC   C3A21857  30.930  30.006   8.027
 1361POPC   C4A21858  31.144  30.167   7.659
 1361POPC   C1B21859  30.460  30.424   8.742
 1361POPC   C2B21860  30.398  30.346   8.278
 1361POPC   C3B21861  30.410  30.082   7.886
 1361POPC   C4B21862  30.348  30.187   7.384
 1362POPC   NC321863  18.215  16.336   9.379
 1362POPC   PO421864  18.254  15.707   9.521
 1362POPC   GL121865  18.457  15.929   9.161
 1362POPC   GL221866  18.555  16.252   9.003
 1362POPC   C1A21867  18.295  15.944   8.723
 1362POPC   D2A21868  18.061  15.876   8.372
 1362POPC   C3A21869  18.245  15.865   7.975
 1362POPC   C4A21870  18.115  15.883   7.543
 1362POPC   C1B21871  18.875  16.268   8.734
 1362POPC   C2B21872  18.611  16.195   8.415
 1362POPC   C3B21873  18.462  16.340   8.050
 1362POPC   C4B21874  18.513  16.202   7.649
 1363POPC   NC321875  19.013  44.769   9.449
 1363POPC   PO421876  19.337  44.198   9.552
 1363POPC   GL121877  19.239  44.420   9.130
 1363POPC   GL221878  19.299  44.806   9.036
 1363POPC   C1A21879  18.958  44.545   8.773
 1363POPC   D2A21880  19.147  44.641   8.360
 1363POPC   C3A21881  18.936  44.838   8.044
 1363POPC   C4A21882  18.717  44.645   7.706
 1363POPC   C1B21883  19.250   0.049   8.675
 1363POPC   C2B21884  19.457   0.132   8.286
 1363POPC   C3B21885  19.463  44.840   7.967
 1363POPC   C4B21886  19.203  44.775   7.603
 1364POPC   NC321887   0.118  14.562   9.704
 1364POPC   PO421888   0.559  14.640   9.553
 1364POPC   GL121889   0.372  14.418   9.181
 1364POPC   GL221890   0.010  14.430   9.171
 1364POPC   C1A21891   0.421  14.181   8.768
 1364POPC   D2A21892   0.620  14.036   8.363
 1364POPC   C3A21893   0.578  14.289   7.956
 1364POPC   C4A21894   0.457  14.717   7.837
 1364POPC   C1B21895   0.046  14.530   8.713
 1364POPC   C2B21896   0.203  14.368   8.302
 1364POPC   C3B21897   0.059  14.369   7.849
 1364POPC   C4B21898  44.892  14.258   7.400
 1365POPC   NC321899  25.935  10.210   9.669
 1365POPC   PO421900  26.422  10.626   9.430
 1365POPC   GL121901  26.263  10.474   9.101
 1365POPC   GL221902  25.952  10.412   9.179
 1365POPC   C1A21903  26.222  10.452   8.698
 1365POPC   D2A21904  26.271  10.192   8.377
 1365POPC   C3A21905  26.236  10.443   8.045
 1365POPC   C4A21906  26.398  10.418   7.694
 1365POPC   C1B21907  25.722  10.567   8.793
 1365POPC   C2B21908  25.851  10.566   8.363
 1365POPC   C3B21909  25.722  10.528   7.941
 1365POPC   C4B21910  25.670  10.506   7.507
 1366POPC   NC321911   6.054  44.975   9.580
 1366POPC   PO421912   5.545  44.481   9.483
 1366POPC   GL121913   5.751  44.504   9.124
 1366POPC   GL221914   5.784  44.829   9.182
 1366POPC   C1A21915   5.654  44.405   8.737
 1366POPC   D2A21916   5.443  44.506   8.392
 1366POPC   C3A21917   5.801  44.545   8.176
 1366POPC   C4A21918   5.878  44.567   7.773
 1366POPC   C1B21919   6.090  44.961   8.869
 1366POPC   C2B21920   6.059  44.887   8.442
 1366POPC   C3B21921   5.997   0.005   8.006
 1366POPC   C4B21922   6.275   0.001   7.645
 1367POPC   NC321923  37.494  28.787   9.593
 1367POPC   PO421924  37.725  29.375   9.439
 1367POPC   GL121925  37.555  29.241   9.063
 1367POPC   GL221926  37.603  28.915   9.104
 1367POPC   C1A21927  37.478  29.098   8.648
 1367POPC   D2A21928  37.720  29.213   8.272
 1367POPC   C3A21929  37.589  29.044   7.875
 1367POPC   C4A21930  37.610  29.314   7.500
 1367POPC   C1B21931  37.887  28.813   8.738
 1367POPC   C2B21932  37.801  28.680   8.319
 1367POPC   C3B21933  38.026  28.771   7.948
 1367POPC   C4B21934  37.957  28.909   7.550
 1368POPC   NC321935  31.845  18.767   9.470
 1368POPC   PO421936  32.353  19.192   9.617
 1368POPC   GL121937  32.326  19.018   9.209
 1368POPC   GL221938  32.669  19.055   9.100
 1368POPC   C1A21939  32.184  19.119   8.771
 1368POPC   D2A21940  31.808  19.194   8.485
 1368POPC   C3A21941  31.871  19.101   8.035
 1368POPC   C4A21942  32.028  18.692   7.857
 1368POPC   C1B21943  32.663  19.378   8.791
 1368POPC   C2B21944  32.570  19.527   8.380
 1368POPC   C3B21945  32.593  19.319   8.003
 1368POPC   C4B21946  32.456  18.970   7.759
 1369POPC   NC321947  20.113  19.962   9.474
 1369POPC   PO421948  19.764  19.595   9.767
 1369POPC   GL121949  19.826  19.578   9.270
 1369POPC   GL221950  20.166  19.614   9.103
 1369POPC   C1A21951  19.705  19.525   8.797
 1369POPC   D2A21952  19.820  19.498   8.309
 1369POPC   C3A21953  19.667  19.815   8.012
 1369POPC   C4A21954  19.900  20.127   7.802
 1369POPC   C1B21955  20.120  19.782   8.681
 1369POPC   C2B21956  20.068  19.970   8.279
 1369POPC   C3B21957  20.166  19.715   7.924
 1369POPC   C4B21958  20.304  19.779   7.505
 1370POPC   NC321959  13.564  19.941   9.495
 1370POPC   PO421960  13.333  19.274   9.550
 1370POPC   GL121961  13.350  19.595   9.179
 1370POPC   GL221962  13.671  19.728   9.052
 1370POPC   C1A21963  13.280  19.744   8.728
 1370POPC   D2A21964  13.399  20.019   8.364
 1370POPC   C3A21965  13.402  19.834   7.974
 1370POPC   C4A21966  13.509  19.907   7.568
 1370POPC   C1B21967  13.788  19.796   8.622
 1370POPC   C2B21968  13.874  19.788   8.180
 1370POPC   C3B21969  13.966  19.789   7.759
 1370POPC   C4B21970  14.182  19.573   7.429
 1371POPC   NC321971   7.660  44.648   9.638
 1371POPC   PO421972   7.255   0.118   9.448
 1371POPC   GL121973   7.381  44.725   9.187
 1371POPC   GL221974   7.471  44.342   9.250
 1371POPC   C1A21975   7.318  44.549   8.778
 1371POPC   D2A21976   7.450  44.686   8.383
 1371POPC   C3A21977   7.174  44.684   8.057
 1371POPC   C4A21978   7.270  44.645   7.650
 1371POPC   C1B21979   7.680  44.197   8.873
 1371POPC   C2B21980   7.747  44.293   8.447
 1371POPC   C3B21981   7.599  44.310   8.036
 1371POPC   C4B21982   7.654  44.086   7.621
 1372POPC   NC321983  33.216  41.754   9.544
 1372POPC   PO421984  32.721  41.421   9.272
 1372POPC   GL121985  33.020  41.630   9.089
 1372POPC   GL221986  33.258  41.401   9.138
 1372POPC   C1A21987  33.045  41.768   8.696
 1372POPC   D2A21988  33.074  41.594   8.297
 1372POPC   C3A21989  32.785  41.522   7.978
 1372POPC   C4A21990  32.863  41.820   7.627
 1372POPC   C1B21991  33.222  41.277   8.708
 1372POPC   C2B21992  33.437  41.243   8.308
 1372POPC   C3B21993  33.465  41.552   7.963
 1372POPC   C4B21994  33.201  41.423   7.661
 1373POPC   NC321995  38.977  21.229   9.648
 1373POPC   PO421996  39.032  21.797   9.348
 1373POPC   GL121997  39.062  21.401   9.142
 1373POPC   GL221998  39.383  21.257   9.188
 1373POPC   C1A21999  39.017  21.250   8.707
 1373POPC   D2A22000  38.860  21.456   8.331
 1373POPC   C3A22001  39.092  21.440   7.940
 1373POPC   C4A22002  39.395  21.570   7.646
 1373POPC   C1B22003  39.493  21.120   8.780
 1373POPC   C2B22004  39.346  21.083   8.349
 1373POPC   C3B22005  39.510  21.158   7.951
 1373POPC   C4B22006  39.186  21.030   7.623
 1374POPC   NC322007  30.460  37.498   9.538
 1374POPC   PO422008  31.112  37.481   9.375
 1374POPC   GL122009  30.754  37.661   9.129
 1374POPC   GL222010  30.606  37.991   9.182
 1374POPC   C1A22011  30.771  37.758   8.696
 1374POPC   D2A22012  30.725  37.482   8.342
 1374POPC   C3A22013  30.767  37.681   7.968
 1374POPC   C4A22014  30.800  37.681   7.517
 1374POPC   C1B22015  30.331  38.004   8.795
 1374POPC   C2B22016  30.473  38.015   8.362
 1374POPC   C3B22017  30.273  37.950   7.984
 1374POPC   C4B22018  30.236  37.815   7.587
 1375POPC   NC322019  12.982   0.782   9.917
 1375POPC   PO422020  12.568   0.653   9.339
 1375POPC   GL122021  12.874   0.388   9.044
 1375POPC   GL222022  13.045   0.631   8.807
 1375POPC   C1A22023  12.947   0.158   8.614
 1375POPC   D2A22024  13.133   0.434   8.274
 1375POPC   C3A22025  12.970   0.361   7.864
 1375POPC   C4A22026  12.680   0.056   7.777
 1375POPC   C1B22027  12.638   0.582   8.596
 1375POPC   C2B22028  12.653   0.701   8.170
 1375POPC   C3B22029  12.690   0.811   7.730
 1375POPC   C4B22030  12.387   0.836   7.356
 1376POPC   NC322031  29.773  21.846   9.554
 1376POPC   PO422032  29.941  22.577   9.581
 1376POPC   GL122033  29.727  22.307   9.264
 1376POPC   GL222034  29.912  22.058   9.078
 1376POPC   C1A22035  29.538  22.381   8.863
 1376POPC   D2A22036  29.816  22.268   8.521
 1376POPC   C3A22037  29.732  22.175   8.065
 1376POPC   C4A22038  29.908  22.226   7.611
 1376POPC   C1B22039  30.127  21.776   8.774
 1376POPC   C2B22040  30.013  21.805   8.369
 1376POPC   C3B22041  30.148  21.900   7.955
 1376POPC   C4B22042  30.352  21.976   7.574
 1377POPC   NC322043  10.269  42.976   9.599
 1377POPC   PO422044  10.687  43.476   9.649
 1377POPC   GL122045  10.603  43.211   9.267
 1377POPC   GL222046  10.728  42.896   9.226
 1377POPC   C1A22047  10.339  42.983   8.916
 1377POPC   D2A22048  10.455  43.052   8.489
 1377POPC   C3A22049  10.546  42.858   8.118
 1377POPC   C4A22050  10.690  43.041   7.733
 1377POPC   C1B22051  10.861  42.989   8.830
 1377POPC   C2B22052  10.967  43.052   8.410
 1377POPC   C3B22053  10.814  43.342   8.135
 1377POPC   C4B22054  11.004  43.471   7.761
 1378POPC   NC322055   7.070  31.107   9.313
 1378POPC   PO422056   6.949  30.529   9.701
 1378POPC   GL122057   6.850  30.643   9.260
 1378POPC   GL222058   6.618  30.394   9.205
 1378POPC   C1A22059   6.760  30.857   8.830
 1378POPC   D2A22060   6.493  31.033   8.532
 1378POPC   C3A22061   6.450  30.775   8.183
 1378POPC   C4A22062   6.527  30.694   7.759
 1378POPC   C1B22063   6.823  30.361   8.830
 1378POPC   C2B22064   6.787  30.383   8.373
 1378POPC   C3B22065   6.965  30.510   7.964
 1378POPC   C4B22066   6.875  30.435   7.497
 1379POPC   NC322067   4.637  19.337   9.789
 1379POPC   PO422068   4.491  18.763   9.507
 1379POPC   GL122069   4.393  18.916   9.113
 1379POPC   GL222070   4.460  19.254   9.147
 1379POPC   C1A22071   4.226  18.936   8.695
 1379POPC   D2A22072   4.274  18.755   8.287
 1379POPC   C3A22073   4.178  18.989   7.884
 1379POPC   C4A22074   4.003  19.385   7.693
 1379POPC   C1B22075   4.617  19.310   8.737
 1379POPC   C2B22076   4.413  19.294   8.355
 1379POPC   C3B22077   4.398  19.513   7.999
 1379POPC   C4B22078   4.527  19.310   7.629
 1380POPC   NC322079  13.810  38.310   9.733
 1380POPC   PO422080  13.332  38.681   9.441
 1380POPC   GL122081  13.549  38.440   9.132
 1380POPC   GL222082  13.847  38.315   9.205
 1380POPC   C1A22083  13.492  38.286   8.743
 1380POPC   D2A22084  13.332  38.425   8.347
 1380POPC   C3A22085  13.366  38.164   7.993
 1380POPC   C4A22086  13.377  38.368   7.616
 1380POPC   C1B22087  13.988  38.464   8.791
 1380POPC   C2B22088  14.087  38.390   8.352
 1380POPC   C3B22089  13.835  38.415   7.964
 1380POPC   C4B22090  13.884  38.158   7.587
 1381POPC   NC322091  35.487  32.242   9.772
 1381POPC   PO422092  35.541  32.888   9.531
 1381POPC   GL122093  35.640  32.495   9.312
 1381POPC   GL222094  35.363  32.238   9.268
 1381POPC   C1A22095  35.672  32.366   8.881
 1381POPC   D2A22096  35.440  32.173   8.545
 1381POPC   C3A22097  35.501  32.449   8.186
 1381POPC   C4A22098  35.442  32.371   7.751
 1381POPC   C1B22099  35.084  32.281   8.881
 1381POPC   C2B22100  34.963  32.311   8.423
 1381POPC   C3B22101  35.085  32.137   8.028
 1381POPC   C4B22102  34.955  32.285   7.585
 1382POPC   NC322103  15.717  39.997   9.483
 1382POPC   PO422104  16.240  39.610   9.524
 1382POPC   GL122105  16.131  39.870   9.159
 1382POPC   GL222106  15.845  40.091   9.014
 1382POPC   C1A22107  16.132  39.780   8.734
 1382POPC   D2A22108  16.081  39.978   8.369
 1382POPC   C3A22109  16.097  39.657   8.084
 1382POPC   C4A22110  15.847  39.810   7.790
 1382POPC   C1B22111  16.160  40.316   8.774
 1382POPC   C2B22112  16.193  40.510   8.378
 1382POPC   C3B22113  16.169  40.373   7.993
 1382POPC   C4B22114  15.834  40.319   7.764
 1383POPC   NC322115  24.630  12.969   9.422
 1383POPC   PO422116  24.105  12.606   9.331
 1383POPC   GL122117  24.409  12.705   9.028
 1383POPC   GL222118  24.401  13.068   8.986
 1383POPC   C1A22119  24.695  12.590   8.691
 1383POPC   D2A22120  24.741  12.747   8.285
 1383POPC   C3A22121  24.370  12.790   8.068
 1383POPC   C4A22122  24.465  12.708   7.616
 1383POPC   C1B22123  24.383  12.992   8.581
 1383POPC   C2B22124  24.563  13.228   8.250
 1383POPC   C3B22125  24.718  13.102   7.851
 1383POPC   C4B22126  24.614  13.147   7.390
 1384POPC   NC322127  23.158  12.019   9.536
 1384POPC   PO422128  23.686  12.346   9.717
 1384POPC   GL122129  23.559  12.250   9.220
 1384POPC   GL222130  23.324  11.953   9.075
 1384POPC   C1A22131  23.829  12.141   8.807
 1384POPC   D2A22132  24.037  12.189   8.373
 1384POPC   C3A22133  23.792  12.148   8.018
 1384POPC   C4A22134  23.640  12.316   7.611
 1384POPC   C1B22135  23.452  11.816   8.678
 1384POPC   C2B22136  23.424  11.850   8.256
 1384POPC   C3B22137  23.374  11.843   7.830
 1384POPC   C4B22138  23.743  11.816   7.639
 1385POPC   NC322139  35.552  17.412   9.662
 1385POPC   PO422140  34.922  17.713   9.502
 1385POPC   GL122141  35.218  17.594   9.181
 1385POPC   GL222142  35.502  17.359   9.165
 1385POPC   C1A22143  35.228  17.425   8.760
 1385POPC   D2A22144  35.476  17.447   8.391
 1385POPC   C3A22145  35.284  17.728   8.095
 1385POPC   C4A22146  35.172  17.492   7.731
 1385POPC   C1B22147  35.707  17.627   8.825
 1385POPC   C2B22148  35.657  17.932   8.463
 1385POPC   C3B22149  35.726  17.978   8.011
 1385POPC   C4B22150  35.825  17.673   7.644
 1386POPC   NC322151  18.004  42.193   9.555
 1386POPC   PO422152  18.427  42.732   9.450
 1386POPC   GL122153  18.266  42.423   9.141
 1386POPC   GL222154  17.909  42.340   9.095
 1386POPC   C1A22155  18.343  42.334   8.711
 1386POPC   D2A22156  18.345  42.624   8.368
 1386POPC   C3A22157  18.484  42.456   7.992
 1386POPC   C4A22158  18.689  42.088   7.820
 1386POPC   C1B22159  17.967  41.956   8.847
 1386POPC   C2B22160  18.079  41.996   8.418
 1386POPC   C3B22161  18.058  42.177   8.001
 1386POPC   C4B22162  17.997  42.486   7.681
 1387POPC   NC322163  13.418  26.486   9.564
 1387POPC   PO422164  14.049  26.630   9.821
 1387POPC   GL122165  13.870  26.715   9.323
 1387POPC   GL222166  13.528  26.855   9.195
 1387POPC   C1A22167  13.810  26.696   8.813
 1387POPC   D2A22168  13.521  26.671   8.399
 1387POPC   C3A22169  13.674  26.741   7.970
 1387POPC   C4A22170  13.778  26.950   7.575
 1387POPC   C1B22171  13.496  27.075   8.742
 1387POPC   C2B22172  13.481  27.181   8.279
 1387POPC   C3B22173  13.403  27.200   7.834
 1387POPC   C4B22174  13.307  27.046   7.423
 1388POPC   NC322175  33.890  40.116   9.520
 1388POPC   PO422176  33.707  39.422   9.406
 1388POPC   GL122177  33.775  39.798   9.098
 1388POPC   GL222178  33.917  40.181   9.028
 1388POPC   C1A22179  33.688  39.892   8.667
 1388POPC   D2A22180  33.778  39.928   8.246
 1388POPC   C3A22181  33.551  40.035   7.904
 1388POPC   C4A22182  33.352  39.662   7.790
 1388POPC   C1B22183  34.236  39.936   8.805
 1388POPC   C2B22184  34.269  39.867   8.350
 1388POPC   C3B22185  34.156  39.993   7.901
 1388POPC   C4B22186  33.987  40.310   7.615
 1389POPC   NC322187  22.867   1.091   9.677
 1389POPC   PO422188  22.726   1.626   9.589
 1389POPC   GL122189  22.748   1.268   9.204
 1389POPC   GL222190  22.981   0.944   9.153
 1389POPC   C1A22191  22.713   1.124   8.735
 1389POPC   D2A22192  22.891   1.224   8.311
 1389POPC   C3A22193  22.600   1.279   7.942
 1389POPC   C4A22194  22.584   1.314   7.478
 1389POPC   C1B22195  23.145   0.835   8.705
 1389POPC   C2B22196  23.006   0.715   8.256
 1389POPC   C3B22197  23.021   0.999   7.853
 1389POPC   C4B22198  23.217   1.071   7.421
 1390POPC   NC322199  43.020  19.260   9.612
 1390POPC   PO422200  43.397  18.810   9.378
 1390POPC   GL122201  43.164  18.931   9.083
 1390POPC   GL222202  43.288  19.229   9.102
 1390POPC   C1A22203  43.284  18.957   8.659
 1390POPC   D2A22204  43.042  19.097   8.333
 1390POPC   C3A22205  42.934  18.822   8.017
 1390POPC   C4A22206  43.078  18.905   7.608
 1390POPC   C1B22207  43.464  19.428   8.709
 1390POPC   C2B22208  43.274  19.542   8.300
 1390POPC   C3B22209  43.306  19.267   7.920
 1390POPC   C4B22210  43.434  19.225   7.446
 1391POPC   NC322211  18.833  30.556   9.348
 1391POPC   PO422212  19.400  30.923   9.462
 1391POPC   GL122213  19.330  31.060   9.045
 1391POPC   GL222214  19.068  30.815   8.981
 1391POPC   C1A22215  19.350  30.973   8.594
 1391POPC   D2A22216  19.084  30.693   8.378
 1391POPC   C3A22217  19.187  30.653   7.973
 1391POPC   C4A22218  19.326  31.041   7.790
 1391POPC   C1B22219  18.734  30.620   8.729
 1391POPC   C2B22220  18.560  30.770   8.376
 1391POPC   C3B22221  18.752  30.910   8.034
 1391POPC   C4B22222  18.877  30.840   7.617
 1392POPC   NC322223   4.220  40.536   9.495
 1392POPC   PO422224   4.386  39.801   9.505
 1392POPC   GL122225   4.128  39.897   9.139
 1392POPC   GL222226   3.937  40.211   9.127
 1392POPC   C1A22227   4.207  39.709   8.765
 1392POPC   D2A22228   4.390  39.748   8.374
 1392POPC   C3A22229   4.133  39.755   8.027
 1392POPC   C4A22230   4.280  39.862   7.633
 1392POPC   C1B22231   4.058  40.246   8.666
 1392POPC   C2B22232   4.157  40.255   8.203
 1392POPC   C3B22233   3.935  40.212   7.776
 1392POPC   C4B22234   4.088  40.237   7.305
 1393POPC   NC322235  16.853  31.754   9.495
 1393POPC   PO422236  17.097  31.166   9.455
 1393POPC   GL122237  16.933  31.267   9.055
 1393POPC   GL222238  16.673  31.516   9.079
 1393POPC   C1A22239  16.934  31.468   8.640
 1393POPC   D2A22240  17.166  31.403   8.266
 1393POPC   C3A22241  16.846  31.348   7.974
 1393POPC   C4A22242  16.758  31.665   7.703
 1393POPC   C1B22243  16.444  31.616   8.686
 1393POPC   C2B22244  16.550  31.657   8.260
 1393POPC   C3B22245  16.300  31.717   7.911
 1393POPC   C4B22246  16.305  31.726   7.437
 1394POPC   NC322247  18.882  24.920   9.979
 1394POPC   PO422248  19.258  25.199   9.449
 1394POPC   GL122249  19.074  25.280   9.053
 1394POPC   GL222250  18.799  25.445   9.165
 1394POPC   C1A22251  19.197  25.233   8.606
 1394POPC   D2A22252  19.289  25.273   8.159
 1394POPC   C3A22253  18.984  25.121   7.932
 1394POPC   C4A22254  18.842  24.962   7.547
 1394POPC   C1B22255  18.792  25.565   8.730
 1394POPC   C2B22256  18.871  25.528   8.311
 1394POPC   C3B22257  19.026  25.712   7.973
 1394POPC   C4B22258  19.085  25.502   7.581
 1395POPC   NC322259  19.628  13.125   9.448
 1395POPC   PO422260  19.290  12.522   9.569
 1395POPC   GL122261  19.545  12.655   9.143
 1395POPC   GL222262  19.899  12.792   9.149
 1395POPC   C1A22263  19.578  12.803   8.688
 1395POPC   D2A22264  19.610  13.054   8.310
 1395POPC   C3A22265  19.666  12.813   7.928
 1395POPC   C4A22266  19.856  12.835   7.524
 1395POPC   C1B22267  20.081  12.741   8.726
 1395POPC   C2B22268  19.998  12.689   8.308
 1395POPC   C3B22269  20.192  12.790   7.935
 1395POPC   C4B22270  20.282  13.095   7.641
 1396POPC   NC322271  25.186  10.230   9.602
 1396POPC   PO422272  25.656  10.633   9.550
 1396POPC   GL122273  25.437  10.431   9.203
 1396POPC   GL222274  25.255  10.719   9.126
 1396POPC   C1A22275  25.249  10.349   8.765
 1396POPC   D2A22276  25.234  10.541   8.317
 1396POPC   C3A22277  25.211  10.269   7.952
 1396POPC   C4A22278  25.411  10.070   7.622
 1396POPC   C1B22279  25.087  10.848   8.717
 1396POPC   C2B22280  24.799  10.864   8.355
 1396POPC   C3B22281  24.959  10.941   7.963
 1396POPC   C4B22282  25.295  10.743   7.756
 1397POPC   NC322283  22.993  43.791   9.660
 1397POPC   PO422284  22.623  44.230   9.485
 1397POPC   GL122285  22.927  44.017   9.186
 1397POPC   GL222286  22.771  43.688   9.098
 1397POPC   C1A22287  23.164  43.826   8.800
 1397POPC   D2A22288  23.057  43.602   8.414
 1397POPC   C3A22289  22.999  43.883   8.112
 1397POPC   C4A22290  23.150  43.954   7.700
 1397POPC   C1B22291  22.678  44.020   8.745
 1397POPC   C2B22292  22.652  44.214   8.306
 1397POPC   C3B22293  22.731  44.241   7.857
 1397POPC   C4B22294  22.661  43.974   7.486
 1398POPC   NC322295  24.835  44.504   9.710
 1398POPC   PO422296  24.914   0.172   9.482
 1398POPC   GL122297  25.191  44.919   9.221
 1398POPC   GL222298  25.489  44.757   9.213
 1398POPC   C1A22299  25.207  44.817   8.792
 1398POPC   D2A22300  25.099  44.885   8.375
 1398POPC   C3A22301  25.274  44.701   8.044
 1398POPC   C4A22302  25.104  44.592   7.657
 1398POPC   C1B22303  25.693  44.604   8.807
 1398POPC   C2B22304  25.749  44.620   8.349
 1398POPC   C3B22305  25.615  44.328   8.004
 1398POPC   C4B22306  25.472  44.274   7.559
 1399POPC   NC322307  36.626  10.107   9.689
 1399POPC   PO422308  37.163  10.557   9.662
 1399POPC   GL122309  37.046  10.654   9.134
 1399POPC   GL222310  37.195  10.340   8.909
 1399POPC   C1A22311  36.817  10.920   8.846
 1399POPC   D2A22312  36.969  11.049   8.444
 1399POPC   C3A22313  36.985  10.721   8.126
 1399POPC   C4A22314  36.740  10.681   7.755
 1399POPC   C1B22315  36.890  10.482   8.596
 1399POPC   C2B22316  36.574  10.305   8.304
 1399POPC   C3B22317  36.712  10.191   7.910
 1399POPC   C4B22318  37.017  10.262   7.643
 1400POPC   NC322319  15.312   1.287   9.474
 1400POPC   PO422320  14.955   0.749   9.498
 1400POPC   GL122321  15.074   0.975   9.140
 1400POPC   GL222322  15.432   0.928   9.129
 1400POPC   C1A22323  15.150   1.171   8.743
 1400POPC   D2A22324  15.037   1.493   8.420
 1400POPC   C3A22325  15.154   1.325   7.988
 1400POPC   C4A22326  14.946   0.953   7.756
 1400POPC   C1B22327  15.420   0.698   8.753
 1400POPC   C2B22328  15.370   0.895   8.337
 1400POPC   C3B22329  15.405   0.811   7.904
 1400POPC   C4B22330  15.449   0.880   7.465
 1401POPC   NC322331  26.482  42.186   9.413
 1401POPC   PO422332  27.165  42.471   9.429
 1401POPC   GL122333  26.925  42.316   9.035
 1401POPC   GL222334  26.694  42.050   8.993
 1401POPC   C1A22335  26.933  42.199   8.584
 1401POPC   D2A22336  26.722  41.973   8.293
 1401POPC   C3A22337  26.855  42.129   7.930
 1401POPC   C4A22338  26.724  42.196   7.538
 1401POPC   C1B22339  26.408  42.157   8.649
 1401POPC   C2B22340  26.376  42.529   8.416
 1401POPC   C3B22341  26.551  42.534   8.029
 1401POPC   C4B22342  26.431  42.630   7.616
 1402POPC   NC322343  17.493   0.027   9.535
 1402POPC   PO422344  17.484   0.707   9.668
 1402POPC   GL122345  17.396   0.676   9.221
 1402POPC   GL222346  17.354   0.322   9.136
 1402POPC   C1A22347  17.536   0.649   8.779
 1402POPC   D2A22348  17.798   0.485   8.436
 1402POPC   C3A22349  17.812   0.676   8.030
 1402POPC   C4A22350  17.579   0.722   7.672
 1402POPC   C1B22351  17.396   0.142   8.714
 1402POPC   C2B22352  17.530   0.063   8.299
 1402POPC   C3B22353  17.420   0.346   8.000
 1402POPC   C4B22354  17.196   0.380   7.646
 1403POPC   NC322355  35.748  25.431   9.476
 1403POPC   PO422356  36.465  25.246   9.530
 1403POPC   GL122357  36.356  25.350   9.079
 1403POPC   GL222358  35.987  25.374   9.008
 1403POPC   C1A22359  36.367  25.536   8.644
 1403POPC   D2A22360  36.024  25.527   8.369
 1403POPC   C3A22361  36.069  25.293   8.002
 1403POPC   C4A22362  36.314  25.411   7.650
 1403POPC   C1B22363  36.117  25.090   8.690
 1403POPC   C2B22364  36.395  25.076   8.363
 1403POPC   C3B22365  36.466  24.970   7.942
 1403POPC   C4B22366  36.163  24.908   7.618
 1404POPC   NC322367  10.357  13.802   9.562
 1404POPC   PO422368  10.996  13.596   9.536
 1404POPC   GL122369  10.693  13.554   9.194
 1404POPC   GL222370  10.667  13.907   9.131
 1404POPC   C1A22371  10.768  13.590   8.726
 1404POPC   D2A22372  10.722  13.880   8.379
 1404POPC   C3A22373  10.776  13.727   7.955
 1404POPC   C4A22374  10.611  13.387   7.686
 1404POPC   C1B22375  10.323  13.817   8.818
 1404POPC   C2B22376  10.171  13.724   8.388
 1404POPC   C3B22377  10.223  13.643   7.918
 1404POPC   C4B22378  10.295  13.734   7.446
 1405POPC   NC322379  20.545  41.224   9.547
 1405POPC   PO422380  20.011  41.688   9.631
 1405POPC   GL122381  20.346  41.664   9.278
 1405POPC   GL222382  20.679  41.840   9.267
 1405POPC   C1A22383  20.496  41.500   8.865
 1405POPC   D2A22384  20.745  41.510   8.460
 1405POPC   C3A22385  20.514  41.352   8.109
 1405POPC   C4A22386  20.413  40.997   7.845
 1405POPC   C1B22387  20.908  41.823   8.869
 1405POPC   C2B22388  20.847  42.001   8.447
 1405POPC   C3B22389  20.909  41.921   8.048
 1405POPC   C4B22390  21.000  41.501   7.964
 1406POPC   NC322391  36.849  18.763   9.654
 1406POPC   PO422392  37.354  19.162   9.467
 1406POPC   GL122393  37.018  19.184   9.160
 1406POPC   GL222394  36.644  19.215   9.237
 1406POPC   C1A22395  37.039  19.112   8.715
 1406POPC   D2A22396  37.157  19.017   8.281
 1406POPC   C3A22397  36.885  19.210   7.966
 1406POPC   C4A22398  36.935  19.214   7.542
 1406POPC   C1B22399  36.683  18.847   8.947
 1406POPC   C2B22400  36.804  18.707   8.510
 1406POPC   C3B22401  36.691  18.741   8.075
 1406POPC   C4B22402  36.946  18.689   7.715
 1407POPC   NC322403  14.659  11.654   9.343
 1407POPC   PO422404  14.440  12.245   9.553
 1407POPC   GL122405  14.406  12.054   9.133
 1407POPC   GL222406  14.114  11.841   9.113
 1407POPC   C1A22407  14.561  11.870   8.742
 1407POPC   D2A22408  14.630  12.118   8.381
 1407POPC   C3A22409  14.649  11.862   8.034
 1407POPC   C4A22410  14.493  11.772   7.667
 1407POPC   C1B22411  14.077  11.994   8.700
 1407POPC   C2B22412  14.029  11.835   8.303
 1407POPC   C3B22413  14.091  11.964   7.911
 1407POPC   C4B22414  14.388  12.282   7.840
 1408POPC   NC322415  17.043  15.928   9.494
 1408POPC   PO422416  16.440  16.056   9.513
 1408POPC   GL122417  16.589  15.873   9.104
 1408POPC   GL222418  16.915  15.668   9.075
 1408POPC   C1A22419  16.439  15.928   8.657
 1408POPC   D2A22420  16.340  15.696   8.254
 1408POPC   C3A22421  16.464  15.889   7.884
 1408POPC   C4A22422  16.649  16.283   7.762
 1408POPC   C1B22423  16.976  15.839   8.671
 1408POPC   C2B22424  16.841  15.792   8.251
 1408POPC   C3B22425  16.993  15.818   7.836
 1408POPC   C4B22426  17.039  15.541   7.464
 1409POPC   NC322427  14.899  27.347   9.488
 1409POPC   PO422428  14.230  27.304   9.473
 1409POPC   GL122429  14.449  27.501   9.146
 1409POPC   GL222430  14.293  27.804   9.144
 1409POPC   C1A22431  14.492  27.615   8.694
 1409POPC   D2A22432  14.339  27.347   8.355
 1409POPC   C3A22433  14.361  27.494   7.933
 1409POPC   C4A22434  14.594  27.473   7.511
 1409POPC   C1B22435  14.034  27.804   8.793
 1409POPC   C2B22436  14.177  27.902   8.394
 1409POPC   C3B22437  14.066  27.920   7.982
 1409POPC   C4B22438  14.229  27.817   7.564
 1410POPC   NC322439   7.282  22.685   9.522
 1410POPC   PO422440   7.752  23.067   9.343
 1410POPC   GL122441   7.366  22.948   9.097
 1410POPC   GL222442   7.176  22.573   9.051
 1410POPC   C1A22443   7.206  22.922   8.690
 1410POPC   D2A22444   6.925  23.073   8.381
 1410POPC   C3A22445   7.146  23.021   7.948
 1410POPC   C4A22446   7.548  23.145   7.738
 1410POPC   C1B22447   7.588  22.523   8.860
 1410POPC   C2B22448   7.670  22.769   8.511
 1410POPC   C3B22449   7.626  22.750   8.064
 1410POPC   C4B22450   7.306  22.500   7.809
 1411POPC   NC322451  32.281  19.513   9.296
 1411POPC   PO422452  32.029  20.125   9.462
 1411POPC   GL122453  32.054  19.922   9.090
 1411POPC   GL222454  32.387  20.003   9.056
 1411POPC   C1A22455  32.215  19.750   8.674
 1411POPC   D2A22456  32.054  19.895   8.299
 1411POPC   C3A22457  32.106  19.750   7.908
 1411POPC   C4A22458  32.194  19.391   7.722
 1411POPC   C1B22459  32.500  20.288   8.706
 1411POPC   C2B22460  32.500  20.121   8.319
 1411POPC   C3B22461  32.584  19.866   7.997
 1411POPC   C4B22462  32.448  20.056   7.629
 1412POPC   NC322463  16.499  34.293   9.497
 1412POPC   PO422464  16.588  33.598   9.436
 1412POPC   GL122465  16.769  33.800   9.059
 1412POPC   GL222466  16.832  34.138   9.135
 1412POPC   C1A22467  16.810  33.803   8.602
 1412POPC   D2A22468  16.636  33.563   8.284
 1412POPC   C3A22469  16.692  33.634   7.895
 1412POPC   C4A22470  17.009  33.802   7.696
 1412POPC   C1B22471  16.774  34.300   8.733
 1412POPC   C2B22472  16.896  34.400   8.358
 1412POPC   C3B22473  16.756  34.094   8.105
 1412POPC   C4B22474  16.520  34.116   7.752
 1413POPC   NC322475  28.464  36.695   9.456
 1413POPC   PO422476  27.980  37.047   9.702
 1413POPC   GL122477  28.207  37.150   9.286
 1413POPC   GL222478  28.571  37.157   9.195
 1413POPC   C1A22479  28.231  37.315   8.845
 1413POPC   D2A22480  28.503  37.221   8.480
 1413POPC   C3A22481  28.338  36.925   8.172
 1413POPC   C4A22482  28.285  37.023   7.717
 1413POPC   C1B22483  28.447  36.854   8.843
 1413POPC   C2B22484  28.655  36.598   8.549
 1413POPC   C3B22485  28.760  36.608   8.112
 1413POPC   C4B22486  28.399  36.527   7.840
 1414POPC   NC322487  42.073   1.516   9.289
 1414POPC   PO422488  42.553   1.185   9.692
 1414POPC   GL122489  42.446   1.145   9.211
 1414POPC   GL222490  42.470   1.459   8.998
 1414POPC   C1A22491  42.300   0.889   8.823
 1414POPC   D2A22492  42.003   0.760   8.474
 1414POPC   C3A22493  42.139   0.897   8.098
 1414POPC   C4A22494  42.251   0.973   7.705
 1414POPC   C1B22495  42.225   1.550   8.650
 1414POPC   C2B22496  42.038   1.380   8.292
 1414POPC   C3B22497  42.102   1.452   7.853
 1414POPC   C4B22498  42.406   1.635   7.535
 1415POPC   NC322499  31.972  10.438   9.430
 1415POPC   PO422500  31.268  10.410   9.530
 1415POPC   GL122501  31.295  10.608   9.106
 1415POPC   GL222502  31.442  10.931   9.085
 1415POPC   C1A22503  31.389  10.624   8.639
 1415POPC   D2A22504  31.350  10.424   8.234
 1415POPC   C3A22505  31.677  10.466   7.981
 1415POPC   C4A22506  32.006  10.268   7.850
 1415POPC   C1B22507  31.756  10.963   8.766
 1415POPC   C2B22508  31.757  10.868   8.314
 1415POPC   C3B22509  31.652  10.987   7.879
 1415POPC   C4B22510  31.253  11.149   7.700
 1416POPC   NC322511  26.651   6.946   9.548
 1416POPC   PO422512  27.281   6.812   9.589
 1416POPC   GL122513  27.035   6.813   9.205
 1416POPC   GL222514  26.951   6.471   9.116
 1416POPC   C1A22515  27.103   6.841   8.747
 1416POPC   D2A22516  26.827   6.928   8.376
 1416POPC   C3A22517  27.008   6.844   7.958
 1416POPC   C4A22518  27.105   6.600   7.616
 1416POPC   C1B22519  26.661   6.584   8.747
 1416POPC   C2B22520  26.537   6.505   8.305
 1416POPC   C3B22521  26.688   6.419   7.885
 1416POPC   C4B22522  26.673   6.286   7.441
 1417POPC   NC322523  33.565   6.046   9.449
 1417POPC   PO422524  34.028   5.577   9.431
 1417POPC   GL122525  33.812   5.737   9.094
 1417POPC   GL222526  33.928   6.053   9.110
 1417POPC   C1A22527  33.858   5.869   8.635
 1417POPC   D2A22528  33.895   5.642   8.243
 1417POPC   C3A22529  33.551   5.671   7.941
 1417POPC   C4A22530  33.612   5.357   7.646
 1417POPC   C1B22531  34.077   6.322   8.792
 1417POPC   C2B22532  33.933   6.354   8.376
 1417POPC   C3B22533  33.915   6.100   8.014
 1417POPC   C4B22534  33.997   5.765   7.728
 1418POPC   NC322535  17.088  24.789   9.807
 1418POPC   PO422536  17.470  25.292   9.562
 1418POPC   GL122537  17.556  25.188   9.160
 1418POPC   GL222538  17.824  25.410   9.109
 1418POPC   C1A22539  17.461  25.417   8.761
 1418POPC   D2A22540  17.400  25.281   8.359
 1418POPC   C3A22541  17.477  25.454   7.945
 1418POPC   C4A22542  17.314  25.147   7.649
 1418POPC   C1B22543  17.914  25.167   8.781
 1418POPC   C2B22544  17.893  25.236   8.403
 1418POPC   C3B22545  17.974  25.010   8.032
 1418POPC   C4B22546  17.841  25.143   7.684
 1419POPC   NC322547   2.872  10.422   9.574
 1419POPC   PO422548   2.297  10.567   9.456
 1419POPC   GL122549   2.626  10.324   9.142
 1419POPC   GL222550   3.038  10.252   9.091
 1419POPC   C1A22551   2.630  10.393   8.697
 1419POPC   D2A22552   2.455  10.472   8.266
 1419POPC   C3A22553   2.597  10.261   7.889
 1419POPC   C4A22554   2.647  10.461   7.513
 1419POPC   C1B22555   3.078  10.175   8.617
 1419POPC   C2B22556   2.975  10.481   8.309
 1419POPC   C3B22557   3.050  10.528   7.888
 1419POPC   C4B22558   3.078  10.816   7.562
 1420POPC   NC322559  18.173  12.234   9.482
 1420POPC   PO422560  18.638  11.766   9.625
 1420POPC   GL122561  18.432  11.894   9.202
 1420POPC   GL222562  18.082  11.842   9.197
 1420POPC   C1A22563  18.248  12.213   8.837
 1420POPC   D2A22564  18.013  12.228   8.442
 1420POPC   C3A22565  18.241  12.120   8.100
 1420POPC   C4A22566  18.349  12.150   7.688
 1420POPC   C1B22567  18.178  11.720   8.784
 1420POPC   C2B22568  18.009  11.691   8.398
 1420POPC   C3B22569  18.144  11.632   7.988
 1420POPC   C4B22570  17.978  11.563   7.591
 1421POPC   NC322571  19.927   2.566   9.607
 1421POPC   PO422572  19.434   3.015   9.735
 1421POPC   GL122573  19.643   2.800   9.287
 1421POPC   GL222574  19.955   2.827   9.116
 1421POPC   C1A22575  19.589   2.583   8.861
 1421POPC   D2A22576  19.800   2.714   8.477
 1421POPC   C3A22577  19.651   2.718   8.053
 1421POPC   C4A22578  20.012   2.736   7.775
 1421POPC   C1B22579  19.657   3.084   8.812
 1421POPC   C2B22580  19.544   3.142   8.344
 1421POPC   C3B22581  19.834   3.199   7.959
 1421POPC   C4B22582  20.180   3.255   7.650
 1422POPC   NC322583  16.551  29.966   9.633
 1422POPC   PO422584  17.190  30.043   9.708
 1422POPC   GL122585  17.110  29.909   9.263
 1422POPC   GL222586  16.781  29.957   9.193
 1422POPC   C1A22587  17.118  29.830   8.786
 1422POPC   D2A22588  17.214  30.000   8.336
 1422POPC   C3A22589  17.011  29.792   7.990
 1422POPC   C4A22590  16.708  29.875   7.690
 1422POPC   C1B22591  16.606  29.765   8.843
 1422POPC   C2B22592  16.707  29.857   8.410
 1422POPC   C3B22593  16.484  29.648   8.080
 1422POPC   C4B22594  16.400  29.427   7.741
 1423POPC   NC322595  35.501  36.529   9.612
 1423POPC   PO422596  35.283  35.907   9.480
 1423POPC   GL122597  35.289  36.220   9.231
 1423POPC   GL222598  35.612  36.272   9.203
 1423POPC   C1A22599  35.151  36.239   8.836
 1423POPC   D2A22600  35.289  36.075   8.460
 1423POPC   C3A22601  35.215  36.208   8.045
 1423POPC   C4A22602  35.102  35.934   7.726
 1423POPC   C1B22603  35.681  36.217   8.806
 1423POPC   C2B22604  35.786  36.212   8.414
 1423POPC   C3B22605  35.705  36.302   8.051
 1423POPC   C4B22606  35.600  36.060   7.704
 1424POPC   NC322607  22.740  42.891   9.537
 1424POPC   PO422608  23.193  43.383   9.612
 1424POPC   GL122609  23.053  43.209   9.226
 1424POPC   GL222610  23.243  42.891   9.182
 1424POPC   C1A22611  23.160  43.278   8.800
 1424POPC   D2A22612  23.268  43.030   8.435
 1424POPC   C3A22613  23.128  43.174   8.039
 1424POPC   C4A22614  22.924  43.490   7.773
 1424POPC   C1B22615  22.972  42.803   8.805
 1424POPC   C2B22616  22.885  42.700   8.348
 1424POPC   C3B22617  22.771  42.813   7.957
 1424POPC   C4B22618  22.397  42.686   7.740
 1425POPC   NC322619  30.987  14.663   9.414
 1425POPC   PO422620  31.738  14.715   9.436
 1425POPC   GL122621  31.559  14.466   9.107
 1425POPC   GL222622  31.236  14.530   8.988
 1425POPC   C1A22623  31.685  14.416   8.706
 1425POPC   D2A22624  31.552  14.219   8.353
 1425POPC   C3A22625  31.706  14.394   7.980
 1425POPC   C4A22626  31.591  14.731   7.711
 1425POPC   C1B22627  31.057  14.329   8.616
 1425POPC   C2B22628  30.926  14.379   8.193
 1425POPC   C3B22629  31.093  14.253   7.804
 1425POPC   C4B22630  30.895  14.079   7.453
 1426POPC   NC322631   4.835  30.013   9.605
 1426POPC   PO422632   5.505  29.808   9.513
 1426POPC   GL122633   5.189  30.002   9.223
 1426POPC   GL222634   4.876  29.813   9.153
 1426POPC   C1A22635   5.056  30.089   8.782
 1426POPC   D2A22636   4.838  29.987   8.417
 1426POPC   C3A22637   5.084  29.993   8.038
 1426POPC   C4A22638   5.031  30.262   7.687
 1426POPC   C1B22639   4.878  29.604   8.783
 1426POPC   C2B22640   5.129  29.582   8.420
 1426POPC   C3B22641   5.026  29.466   8.023
 1426POPC   C4B22642   5.251  29.561   7.674
 1427POPC   NC322643  36.826  16.177   9.489
 1427POPC   PO422644  36.525  15.529   9.604
 1427POPC   GL122645  36.743  15.607   9.174
 1427POPC   GL222646  36.713  15.928   9.087
 1427POPC   C1A22647  36.977  15.734   8.739
 1427POPC   D2A22648  37.206  15.591   8.383
 1427POPC   C3A22649  37.081  15.750   8.005
 1427POPC   C4A22650  37.259  16.138   7.874
 1427POPC   C1B22651  36.603  16.181   8.755
 1427POPC   C2B22652  36.462  16.208   8.341
 1427POPC   C3B22653  36.594  15.964   7.964
 1427POPC   C4B22654  36.647  15.541   7.748
 1428POPC   NC322655   2.845  33.482   9.472
 1428POPC   PO422656   3.168  34.026   9.444
 1428POPC   GL122657   2.912  34.073   9.109
 1428POPC   GL222658   2.695  33.778   9.044
 1428POPC   C1A22659   2.989  34.019   8.691
 1428POPC   D2A22660   2.944  33.741   8.374
 1428POPC   C3A22661   2.986  33.933   7.981
 1428POPC   C4A22662   2.861  33.962   7.543
 1428POPC   C1B22663   2.466  33.779   8.614
 1428POPC   C2B22664   2.487  33.742   8.130
 1428POPC   C3B22665   2.745  33.513   7.825
 1428POPC   C4B22666   2.767  33.479   7.369
 1429POPC   NC322667  37.918  17.774   9.284
 1429POPC   PO422668  37.805  17.108   9.273
 1429POPC   GL122669  37.594  17.427   9.054
 1429POPC   GL222670  37.899  17.505   8.855
 1429POPC   C1A22671  37.339  17.471   8.686
 1429POPC   D2A22672  37.162  17.391   8.270
 1429POPC   C3A22673  37.474  17.566   7.985
 1429POPC   C4A22674  37.842  17.300   7.873
 1429POPC   C1B22675  37.907  17.888   8.600
 1429POPC   C2B22676  37.911  17.963   8.174
 1429POPC   C3B22677  37.895  17.793   7.762
 1429POPC   C4B22678  37.868  17.717   7.300
 1430POPC   NC322679  22.199  24.530   9.573
 1430POPC   PO422680  21.614  24.145   9.355
 1430POPC   GL122681  22.004  24.390   9.122
 1430POPC   GL222682  22.234  24.725   9.121
 1430POPC   C1A22683  21.919  24.576   8.738
 1430POPC   D2A22684  22.128  24.555   8.357
 1430POPC   C3A22685  21.957  24.441   7.995
 1430POPC   C4A22686  22.093  24.110   7.746
 1430POPC   C1B22687  22.502  24.935   8.839
 1430POPC   C2B22688  22.392  24.985   8.416
 1430POPC   C3B22689  22.456  24.800   8.022
 1430POPC   C4B22690  22.310  24.624   7.697
 1431POPC   NC322691  19.290   3.314   9.418
 1431POPC   PO422692  19.150   3.945   9.446
 1431POPC   GL122693  18.862   3.630   9.169
 1431POPC   GL222694  18.874   3.250   9.071
 1431POPC   C1A22695  18.859   3.581   8.695
 1431POPC   D2A22696  18.845   3.820   8.326
 1431POPC   C3A22697  18.944   3.725   7.883
 1431POPC   C4A22698  19.309   3.827   7.632
 1431POPC   C1B22699  19.088   3.129   8.653
 1431POPC   C2B22700  19.042   3.316   8.245
 1431POPC   C3B22701  19.360   3.408   7.932
 1431POPC   C4B22702  19.433   3.042   7.698
 1432POPC   NC322703  27.329  42.819   9.707
 1432POPC   PO422704  27.860  42.476   9.449
 1432POPC   GL122705  27.794  42.404   9.037
 1432POPC   GL222706  27.429  42.386   8.967
 1432POPC   C1A22707  27.841  42.074   8.744
 1432POPC   D2A22708  27.595  42.112   8.374
 1432POPC   C3A22709  27.787  42.256   7.992
 1432POPC   C4A22710  27.698  42.363   7.528
 1432POPC   C1B22711  27.122  42.658   8.691
 1432POPC   C2B22712  27.052  42.599   8.258
 1432POPC   C3B22713  27.301  42.412   7.959
 1432POPC   C4B22714  27.207  42.283   7.580
 1433POPC   NC322715  17.655  35.594   9.521
 1433POPC   PO422716  17.589  34.993   9.821
 1433POPC   GL122717  17.375  35.041   9.327
 1433POPC   GL222718  17.326  35.376   9.168
 1433POPC   C1A22719  17.498  34.995   8.842
 1433POPC   D2A22720  17.539  35.203   8.439
 1433POPC   C3A22721  17.319  35.112   8.070
 1433POPC   C4A22722  17.523  35.218   7.716
 1433POPC   C1B22723  17.246  35.525   8.729
 1433POPC   C2B22724  17.280  35.619   8.267
 1433POPC   C3B22725  17.602  35.700   7.952
 1433POPC   C4B22726  17.878  35.820   7.607
 1434POPC   NC322727  38.074  33.994   9.449
 1434POPC   PO422728  37.420  33.801   9.337
 1434POPC   GL122729  37.792  33.699   9.129
 1434POPC   GL222730  37.555  33.538   8.893
 1434POPC   C1A22731  38.009  33.727   8.777
 1434POPC   D2A22732  37.809  33.665   8.398
 1434POPC   C3A22733  37.886  33.772   7.997
 1434POPC   C4A22734  37.722  33.680   7.595
 1434POPC   C1B22735  37.567  33.989   8.717
 1434POPC   C2B22736  37.640  34.145   8.286
 1434POPC   C3B22737  37.470  34.038   7.858
 1434POPC   C4B22738  37.327  33.935   7.389
 1435POPC   NC322739  33.795   4.794   9.506
 1435POPC   PO422740  33.545   4.159   9.618
 1435POPC   GL122741  33.617   4.305   9.137
 1435POPC   GL222742  33.909   4.542   9.078
 1435POPC   C1A22743  33.656   4.461   8.643
 1435POPC   D2A22744  33.569   4.614   8.198
 1435POPC   C3A22745  33.633   4.390   7.776
 1435POPC   C4A22746  33.562   4.576   7.338
 1435POPC   C1B22747  34.198   4.503   8.724
 1435POPC   C2B22748  34.407   4.518   8.288
 1435POPC   C3B22749  34.272   4.410   7.851
 1435POPC   C4B22750  34.310   4.104   7.480
 1436POPC   NC322751   8.926   1.018   9.508
 1436POPC   PO422752   9.289   1.651   9.463
 1436POPC   GL122753   9.059   1.376   9.176
 1436POPC   GL222754   9.234   1.022   9.099
 1436POPC   C1A22755   8.867   1.270   8.803
 1436POPC   D2A22756   9.132   1.263   8.457
 1436POPC   C3A22757   8.936   1.334   8.053
 1436POPC   C4A22758   8.643   1.394   7.734
 1436POPC   C1B22759   9.430   0.780   8.733
 1436POPC   C2B22760   9.305   0.792   8.287
 1436POPC   C3B22761   9.323   1.008   7.906
 1436POPC   C4B22762   9.080   1.151   7.582
 1437POPC   NC322763  34.376  43.008  10.017
 1437POPC   PO422764  34.906  42.917   9.566
 1437POPC   GL122765  34.681  42.957   9.193
 1437POPC   GL222766  34.330  42.878   9.294
 1437POPC   C1A22767  34.721  43.203   8.788
 1437POPC   D2A22768  34.483  43.292   8.392
 1437POPC   C3A22769  34.760  43.366   8.021
 1437POPC   C4A22770  34.740  43.186   7.615
 1437POPC   C1B22771  34.320  42.874   8.804
 1437POPC   C2B22772  34.184  42.869   8.345
 1437POPC   C3B22773  34.454  42.952   7.950
 1437POPC   C4B22774  34.318  42.946   7.444
 1438POPC   NC322775  26.369  29.789   9.409
 1438POPC   PO422776  25.614  29.711   9.383
 1438POPC   GL122777  25.938  29.680   9.100
 1438POPC   GL222778  25.856  30.023   8.994
 1438POPC   C1A22779  25.946  29.661   8.656
 1438POPC   D2A22780  25.874  30.004   8.415
 1438POPC   C3A22781  25.995  29.863   8.055
 1438POPC   C4A22782  25.814  29.856   7.680
 1438POPC   C1B22783  26.264  30.052   8.744
 1438POPC   C2B22784  26.438  30.102   8.305
 1438POPC   C3B22785  26.317  30.207   7.858
 1438POPC   C4B22786  26.163  30.124   7.442
 1439POPC   NC322787  38.866   9.482   9.802
 1439POPC   PO422788  39.071  10.065   9.570
 1439POPC   GL122789  39.177   9.834   9.176
 1439POPC   GL222790  39.448   9.587   9.086
 1439POPC   C1A22791  39.090   9.725   8.739
 1439POPC   D2A22792  39.373   9.637   8.439
 1439POPC   C3A22793  39.182   9.712   8.076
 1439POPC   C4A22794  39.221   9.473   7.714
 1439POPC   C1B22795  39.562   9.918   8.832
 1439POPC   C2B22796  39.682  10.050   8.427
 1439POPC   C3B22797  39.512  10.148   8.051
 1439POPC   C4B22798  39.330  10.011   7.699
 1440POPC   NC322799   3.694  28.920   9.440
 1440POPC   PO422800   3.111  29.162   9.625
 1440POPC   GL122801   3.243  29.043   9.213
 1440POPC   GL222802   3.503  29.259   9.090
 1440POPC   C1A22803   3.263  28.990   8.742
 1440POPC   D2A22804   3.550  29.144   8.435
 1440POPC   C3A22805   3.470  29.023   7.992
 1440POPC   C4A22806   3.766  28.929   7.648
 1440POPC   C1B22807   3.833  29.406   8.839
 1440POPC   C2B22808   3.975  29.444   8.465
 1440POPC   C3B22809   3.910  29.260   8.076
 1440POPC   C4B22810   3.982  29.385   7.702
 1441POPC   NC322811   9.157  36.389   9.335
 1441POPC   PO422812   8.805  36.930   9.540
 1441POPC   GL122813   8.901  36.805   9.125
 1441POPC   GL222814   8.693  36.512   9.084
 1441POPC   C1A22815   8.841  36.971   8.689
 1441POPC   D2A22816   8.933  37.217   8.296
 1441POPC   C3A22817   8.949  36.980   7.900
 1441POPC   C4A22818   8.986  36.846   7.451
 1441POPC   C1B22819   8.708  36.476   8.634
 1441POPC   C2B22820   8.816  36.571   8.193
 1441POPC   C3B22821   8.619  36.582   7.782
 1441POPC   C4B22822   8.749  36.418   7.368
 1442POPC   NC322823  36.007  18.197   9.497
 1442POPC   PO422824  36.542  17.786   9.421
 1442POPC   GL122825  36.367  18.124   9.157
 1442POPC   GL222826  36.273  18.505   9.184
 1442POPC   C1A22827  36.079  18.201   8.814
 1442POPC   D2A22828  36.142  18.056   8.434
 1442POPC   C3A22829  36.142  18.270   8.050
 1442POPC   C4A22830  36.113  18.097   7.665
 1442POPC   C1B22831  36.240  18.694   8.764
 1442POPC   C2B22832  36.237  18.717   8.317
 1442POPC   C3B22833  36.194  18.737   7.852
 1442POPC   C4B22834  35.978  18.566   7.476
 1443POPC   NC322835  10.419  21.543   9.734
 1443POPC   PO422836   9.776  21.453   9.482
 1443POPC   GL122837   9.711  21.455   9.113
 1443POPC   GL222838   9.887  21.219   9.000
 1443POPC   C1A22839   9.677  21.572   8.719
 1443POPC   D2A22840   9.383  21.680   8.515
 1443POPC   C3A22841   9.532  21.578   8.157
 1443POPC   C4A22842   9.487  21.525   7.758
 1443POPC   C1B22843   9.738  21.002   8.717
 1443POPC   C2B22844   9.796  21.176   8.370
 1443POPC   C3B22845   9.665  21.080   8.018
 1443POPC   C4B22846   9.793  21.120   7.670
 1444POPC   NC322847  41.104  18.648   9.293
 1444POPC   PO422848  40.678  18.126   9.558
 1444POPC   GL122849  40.622  18.384   9.222
 1444POPC   GL222850  40.921  18.237   9.064
 1444POPC   C1A22851  40.512  18.423   8.777
 1444POPC   D2A22852  40.808  18.604   8.447
 1444POPC   C3A22853  40.850  18.382   8.066
 1444POPC   C4A22854  40.720  18.497   7.669
 1444POPC   C1B22855  40.899  18.129   8.632
 1444POPC   C2B22856  41.185  18.120   8.346
 1444POPC   C3B22857  41.274  18.061   7.962
 1444POPC   C4B22858  40.987  18.044   7.676
 1445POPC   NC322859  31.224  30.658   9.495
 1445POPC   PO422860  31.879  30.842   9.590
 1445POPC   GL122861  31.618  30.822   9.215
 1445POPC   GL222862  31.451  31.133   9.156
 1445POPC   C1A22863  31.401  30.727   8.810
 1445POPC   D2A22864  31.275  30.783   8.380
 1445POPC   C3A22865  31.324  30.442   8.103
 1445POPC   C4A22866  31.361  30.612   7.709
 1445POPC   C1B22867  31.779  31.100   8.812
 1445POPC   C2B22868  31.801  30.905   8.436
 1445POPC   C3B22869  31.677  30.829   8.033
 1445POPC   C4B22870  31.652  31.066   7.665
 1446POPC   NC322871   4.294  44.490   9.531
 1446POPC   PO422872   4.714   0.015   9.330
 1446POPC   GL122873   4.464  44.678   9.078
 1446POPC   GL222874   4.286  44.948   8.871
 1446POPC   C1A22875   4.239  44.455   8.732
 1446POPC   D2A22876   4.171  44.617   8.293
 1446POPC   C3A22877   4.197  44.355   7.892
 1446POPC   C4A22878   4.408  44.301   7.472
 1446POPC   C1B22879   4.625  44.814   8.629
 1446POPC   C2B22880   4.722  44.816   8.232
 1446POPC   C3B22881   4.559  44.696   7.870
 1446POPC   C4B22882   4.198  44.915   7.716
 1447POPC   NC322883  28.628  38.224   9.489
 1447POPC   PO422884  28.156  38.639   9.504
 1447POPC   GL122885  28.380  38.552   9.146
 1447POPC   GL222886  28.704  38.667   9.200
 1447POPC   C1A22887  28.438  38.607   8.716
 1447POPC   D2A22888  28.356  38.354   8.397
 1447POPC   C3A22889  28.326  38.596   8.065
 1447POPC   C4A22890  28.328  38.493   7.678
 1447POPC   C1B22891  28.872  38.409   8.874
 1447POPC   C2B22892  28.852  38.198   8.485
 1447POPC   C3B22893  28.817  38.473   8.170
 1447POPC   C4B22894  28.836  38.414   7.773
 1448POPC   NC322895  33.108  38.142   9.477
 1448POPC   PO422896  32.904  38.849   9.571
 1448POPC   GL122897  32.993  38.552   9.201
 1448POPC   GL222898  32.759  38.226   9.126
 1448POPC   C1A22899  33.220  38.387   8.823
 1448POPC   D2A22900  33.134  38.532   8.381
 1448POPC   C3A22901  33.376  38.640   7.992
 1448POPC   C4A22902  33.179  38.622   7.555
 1448POPC   C1B22903  32.840  38.017   8.751
 1448POPC   C2B22904  33.071  37.996   8.391
 1448POPC   C3B22905  33.032  38.207   7.986
 1448POPC   C4B22906  32.988  38.139   7.549
 1449POPC   NC322907  38.264  27.364   9.518
 1449POPC   PO422908  38.177  26.688   9.528
 1449POPC   GL122909  38.496  26.640   9.170
 1449POPC   GL222910  38.845  26.511   9.255
 1449POPC   C1A22911  38.453  26.761   8.758
 1449POPC   D2A22912  38.075  26.886   8.521
 1449POPC   C3A22913  38.273  27.082   8.169
 1449POPC   C4A22914  38.313  26.950   7.741
 1449POPC   C1B22915  38.872  26.406   8.837
 1449POPC   C2B22916  38.893  26.601   8.447
 1449POPC   C3B22917  38.613  26.663   8.116
 1449POPC   C4B22918  38.636  26.561   7.699
 1450POPC   NC322919  12.228   0.148   9.385
 1450POPC   PO422920  11.933   0.624   9.728
 1450POPC   GL122921  11.972   0.601   9.263
 1450POPC   GL222922  11.632   0.550   9.165
 1450POPC   C1A22923  12.112   0.470   8.827
 1450POPC   D2A22924  12.059   0.224   8.446
 1450POPC   C3A22925  12.341   0.284   8.114
 1450POPC   C4A22926  12.248   0.615   7.838
 1450POPC   C1B22927  11.636   0.267   8.783
 1450POPC   C2B22928  11.638  44.941   8.465
 1450POPC   C3B22929  11.579   0.045   8.048
 1450POPC   C4B22930  11.931   0.215   7.796
 1451POPC   NC322931  38.902  32.385   9.391
 1451POPC   PO422932  39.502  32.272   9.692
 1451POPC   GL122933  39.425  32.171   9.298
 1451POPC   GL222934  39.401  32.509   9.237
 1451POPC   C1A22935  39.368  31.893   8.927
 1451POPC   D2A22936  39.193  32.081   8.550
 1451POPC   C3A22937  39.296  31.926   8.172
 1451POPC   C4A22938  39.208  32.142   7.829
 1451POPC   C1B22939  39.509  32.389   8.838
 1451POPC   C2B22940  39.564  32.409   8.415
 1451POPC   C3B22941  39.466  32.636   8.082
 1451POPC   C4B22942  39.481  32.547   7.692
 1452POPC   NC322943  17.876  10.838   9.390
 1452POPC   PO422944  17.707  11.478   9.666
 1452POPC   GL122945  17.476  11.340   9.245
 1452POPC   GL222946  17.192  11.148   9.222
 1452POPC   C1A22947  17.463  11.237   8.776
 1452POPC   D2A22948  17.651  11.276   8.358
 1452POPC   C3A22949  17.629  11.585   8.061
 1452POPC   C4A22950  17.471  11.498   7.686
 1452POPC   C1B22951  17.050  10.917   8.838
 1452POPC   C2B22952  16.977  11.080   8.421
 1452POPC   C3B22953  17.206  11.220   8.055
 1452POPC   C4B22954  17.042  11.220   7.659
 1453POPC   NC322955  36.158  27.311   9.719
 1453POPC   PO422956  36.398  27.883   9.507
 1453POPC   GL122957  36.249  27.848   9.116
 1453POPC   GL222958  36.213  27.497   8.989
 1453POPC   C1A22959  36.469  27.882   8.744
 1453POPC   D2A22960  36.628  27.839   8.332
 1453POPC   C3A22961  36.357  27.902   7.956
 1453POPC   C4A22962  36.118  27.646   7.611
 1453POPC   C1B22963  36.330  27.443   8.527
 1453POPC   C2B22964  36.182  27.419   8.075
 1453POPC   C3B22965  35.923  27.158   7.769
 1453POPC   C4B22966  36.020  26.785   7.488
 1454POPC   NC322967  18.160  15.247   9.460
 1454POPC   PO422968  18.650  14.879   9.556
 1454POPC   GL122969  18.561  15.097   9.178
 1454POPC   GL222970  18.643  15.459   9.265
 1454POPC   C1A22971  18.357  14.983   8.764
 1454POPC   D2A22972  18.419  14.913   8.315
 1454POPC   C3A22973  18.128  15.002   7.972
 1454POPC   C4A22974  18.062  14.904   7.532
 1454POPC   C1B22975  18.395  15.480   8.877
 1454POPC   C2B22976  18.277  15.411   8.457
 1454POPC   C3B22977  18.498  15.412   8.083
 1454POPC   C4B22978  18.289  15.421   7.718
 1455POPC   NC322979  19.548  33.769   9.563
 1455POPC   PO422980  20.150  33.752   9.648
 1455POPC   GL122981  20.024  33.546   9.225
 1455POPC   GL222982  19.668  33.620   9.090
 1455POPC   C1A22983  20.253  33.612   8.807
 1455POPC   D2A22984  20.280  33.576   8.333
 1455POPC   C3A22985  20.054  33.883   8.021
 1455POPC   C4A22986  19.683  34.147   7.843
 1455POPC   C1B22987  19.806  33.400   8.713
 1455POPC   C2B22988  19.747  33.531   8.273
 1455POPC   C3B22989  19.670  33.616   7.809
 1455POPC   C4B22990  19.651  33.444   7.370
 1456POPC   NC322991  23.454  27.538   9.459
 1456POPC   PO422992  24.100  27.790   9.477
 1456POPC   GL122993  23.862  27.600   9.161
 1456POPC   GL222994  23.639  27.851   9.107
 1456POPC   C1A22995  23.855  27.562   8.710
 1456POPC   D2A22996  23.661  27.550   8.330
 1456POPC   C3A22997  23.902  27.510   7.993
 1456POPC   C4A22998  23.721  27.596   7.607
 1456POPC   C1B22999  23.385  27.801   8.761
 1456POPC   C2B23000  23.220  27.894   8.381
 1456POPC   C3B23001  23.318  27.742   7.970
 1456POPC   C4B23002  23.188  27.931   7.601
 1457POPC   NC323003   6.774  12.330   9.450
 1457POPC   PO423004   6.157  11.925   9.638
 1457POPC   GL123005   6.472  11.962   9.258
 1457POPC   GL223006   6.847  11.811   9.183
 1457POPC   C1A23007   6.600  12.086   8.822
 1457POPC   D2A23008   6.545  11.912   8.404
 1457POPC   C3A23009   6.686  12.108   7.998
 1457POPC   C4A23010   6.548  11.967   7.557
 1457POPC   C1B23011   7.019  11.781   8.700
 1457POPC   C2B23012   7.045  11.776   8.205
 1457POPC   C3B23013   7.007  11.814   7.738
 1457POPC   C4B23014   7.058  11.953   7.298
 1458POPC   NC323015  10.753  11.605   9.568
 1458POPC   PO423016  10.822  10.987   9.493
 1458POPC   GL123017  10.739  11.269   9.146
 1458POPC   GL223018  10.992  11.578   9.118
 1458POPC   C1A23019  10.552  11.126   8.737
 1458POPC   D2A23020  10.265  11.238   8.400
 1458POPC   C3A23021  10.360  11.170   7.965
 1458POPC   C4A23022  10.287  10.983   7.549
 1458POPC   C1B23023  10.880  11.497   8.698
 1458POPC   C2B23024  10.756  11.342   8.274
 1458POPC   C3B23025  10.660  11.570   7.887
 1458POPC   C4B23026  10.929  11.656   7.514
 1459POPC   NC323027  32.875  31.227   9.651
 1459POPC   PO423028  32.211  31.490   9.703
 1459POPC   GL123029  32.336  31.612   9.291
 1459POPC   GL223030  32.430  31.327   9.179
 1459POPC   C1A23031  32.346  31.738   8.850
 1459POPC   D2A23032  32.508  31.686   8.415
 1459POPC   C3A23033  32.181  31.720   8.065
 1459POPC   C4A23034  32.192  31.764   7.608
 1459POPC   C1B23035  32.445  31.254   8.734
 1459POPC   C2B23036  32.111  31.366   8.454
 1459POPC   C3B23037  31.964  31.249   8.059
 1459POPC   C4B23038  32.193  31.260   7.694
 1460POPC   NC323039  18.754  34.379   9.857
 1460POPC   PO423040  18.544  34.972   9.527
 1460POPC   GL123041  18.853  34.788   9.193
 1460POPC   GL223042  18.698  34.901   8.912
 1460POPC   C1A23043  19.027  34.552   8.777
 1460POPC   D2A23044  19.210  34.671   8.360
 1460POPC   C3A23045  19.212  34.397   8.006
 1460POPC   C4A23046  19.061  34.273   7.610
 1460POPC   C1B23047  18.823  35.002   8.512
 1460POPC   C2B23048  18.889  34.966   8.079
 1460POPC   C3B23049  19.094  34.802   7.716
 1460POPC   C4B23050  19.185  34.917   7.322
 1461POPC   NC323051  34.807   9.888   9.579
 1461POPC   PO423052  34.459   9.304   9.507
 1461POPC   GL123053  34.572   9.645   9.165
 1461POPC   GL223054  34.800   9.974   9.083
 1461POPC   C1A23055  34.804   9.581   8.771
 1461POPC   D2A23056  34.563   9.575   8.433
 1461POPC   C3A23057  34.691   9.396   8.085
 1461POPC   C4A23058  34.642   9.558   7.690
 1461POPC   C1B23059  34.583  10.035   8.663
 1461POPC   C2B23060  34.515  10.153   8.201
 1461POPC   C3B23061  34.310  10.134   7.752
 1461POPC   C4B23062  34.116  10.069   7.287
 1462POPC   NC323063  40.899  20.252   9.399
 1462POPC   PO423064  40.282  20.485   9.506
 1462POPC   GL123065  40.518  20.612   9.102
 1462POPC   GL223066  40.829  20.785   9.177
 1462POPC   C1A23067  40.645  20.768   8.656
 1462POPC   D2A23068  40.454  20.918   8.246
 1462POPC   C3A23069  40.492  20.775   7.780
 1462POPC   C4A23070  40.343  20.812   7.295
 1462POPC   C1B23071  41.075  20.584   8.855
 1462POPC   C2B23072  41.123  20.527   8.446
 1462POPC   C3B23073  40.915  20.721   8.131
 1462POPC   C4B23074  41.023  20.662   7.741
 1463POPC   NC323075  17.180  37.294   9.623
 1463POPC   PO423076  16.656  37.645   9.550
 1463POPC   GL123077  16.653  37.551   9.122
 1463POPC   GL223078  16.820  37.845   8.993
 1463POPC   C1A23079  16.463  37.642   8.707
 1463POPC   D2A23080  16.698  37.917   8.420
 1463POPC   C3A23081  16.743  37.769   8.000
 1463POPC   C4A23082  16.810  37.759   7.565
 1463POPC   C1B23083  16.977  37.523   8.691
 1463POPC   C2B23084  17.147  37.588   8.268
 1463POPC   C3B23085  17.145  37.462   7.826
 1463POPC   C4B23086  17.104  37.417   7.360
 1464POPC   NC323087   9.194  17.857   9.403
 1464POPC   PO423088   8.637  18.197   9.669
 1464POPC   GL123089   8.759  18.284   9.218
 1464POPC   GL223090   9.040  18.153   9.018
 1464POPC   C1A23091   8.730  18.482   8.800
 1464POPC   D2A23092   8.988  18.503   8.422
 1464POPC   C3A23093   8.819  18.431   8.002
 1464POPC   C4A23094   9.060  18.547   7.641
 1464POPC   C1B23095   9.273  17.880   8.693
 1464POPC   C2B23096   9.182  17.866   8.228
 1464POPC   C3B23097   9.201  18.100   7.883
 1464POPC   C4B23098   9.493  18.368   7.824
 1465POPC   NC323099  10.949  43.030   9.691
 1465POPC   PO423100  11.589  43.114   9.551
 1465POPC   GL123101  11.244  43.061   9.255
 1465POPC   GL223102  11.194  42.697   9.301
 1465POPC   C1A23103  11.285  43.261   8.850
 1465POPC   D2A23104  11.481  43.126   8.488
 1465POPC   C3A23105  11.355  43.320   8.131
 1465POPC   C4A23106  11.528  43.353   7.754
 1465POPC   C1B23107  11.351  42.729   8.847
 1465POPC   C2B23108  11.281  42.650   8.399
 1465POPC   C3B23109  11.236  42.827   7.978
 1465POPC   C4B23110  11.444  42.656   7.578
 1466POPC   NC323111  37.661  31.657   9.709
 1466POPC   PO423112  38.148  31.269   9.326
 1466POPC   GL123113  38.005  31.334   8.946
 1466POPC   GL223114  37.811  31.633   9.078
 1466POPC   C1A23115  37.834  31.331   8.542
 1466POPC   D2A23116  37.476  31.522   8.349
 1466POPC   C3A23117  37.414  31.313   7.956
 1466POPC   C4A23118  37.636  31.455   7.626
 1466POPC   C1B23119  38.053  31.790   8.719
 1466POPC   C2B23120  38.165  31.697   8.353
 1466POPC   C3B23121  37.908  31.588   8.043
 1466POPC   C4B23122  37.963  31.885   7.737
 1467POPC   NC323123  26.615  21.158   9.462
 1467POPC   PO423124  27.038  21.575   9.599
 1467POPC   GL123125  26.918  21.503   9.212
 1467POPC   GL223126  26.634  21.678   9.150
 1467POPC   C1A23127  27.013  21.606   8.807
 1467POPC   D2A23128  27.038  21.477   8.393
 1467POPC   C3A23129  27.051  21.749   8.036
 1467POPC   C4A23130  27.108  21.647   7.608
 1467POPC   C1B23131  26.516  21.663   8.697
 1467POPC   C2B23132  26.561  21.582   8.245
 1467POPC   C3B23133  26.612  21.624   7.785
 1467POPC   C4B23134  26.466  21.756   7.363
 1468POPC   NC323135  38.210  32.257   9.829
 1468POPC   PO423136  38.527  32.189   9.228
 1468POPC   GL123137  38.402  32.120   8.869
 1468POPC   GL223138  38.296  32.443   8.852
 1468POPC   C1A23139  38.460  32.105   8.468
 1468POPC   D2A23140  38.782  32.077   8.196
 1468POPC   C3A23141  38.475  31.994   7.896
 1468POPC   C4A23142  38.222  32.327   7.696
 1468POPC   C1B23143  38.778  32.449   8.684
 1468POPC   C2B23144  38.982  32.553   8.280
 1468POPC   C3B23145  38.803  32.472   7.866
 1468POPC   C4B23146  38.653  32.685   7.530
 1469POPC   NC323147  29.016  30.177   9.496
 1469POPC   PO423148  29.228  30.843   9.614
 1469POPC   GL123149  29.169  30.747   9.163
 1469POPC   GL223150  28.992  30.461   9.087
 1469POPC   C1A23151  29.100  30.784   8.705
 1469POPC   D2A23152  29.092  30.599   8.290
 1469POPC   C3A23153  29.239  30.920   8.030
 1469POPC   C4A23154  29.188  31.005   7.618
 1469POPC   C1B23155  28.962  30.266   8.696
 1469POPC   C2B23156  28.692  30.248   8.325
 1469POPC   C3B23157  28.976  30.182   7.962
 1469POPC   C4B23158  29.209  30.491   7.738
 1470POPC   NC323159  41.197   4.527   9.463
 1470POPC   PO423160  41.803   4.870   9.462
 1470POPC   GL123161  41.830   5.144   9.127
 1470POPC   GL223162  41.547   5.255   8.973
 1470POPC   C1A23163  41.941   5.103   8.722
 1470POPC   D2A23164  41.622   5.149   8.417
 1470POPC   C3A23165  41.833   5.212   8.037
 1470POPC   C4A23166  41.829   5.157   7.581
 1470POPC   C1B23167  41.521   4.820   8.813
 1470POPC   C2B23168  41.465   4.616   8.429
 1470POPC   C3B23169  41.516   4.799   8.037
 1470POPC   C4B23170  41.370   4.959   7.652
 1471POPC   NC323171  12.680  41.612   9.487
 1471POPC   PO423172  13.114  41.103   9.477
 1471POPC   GL123173  13.079  41.395   9.164
 1471POPC   GL223174  13.098  41.744   9.228
 1471POPC   C1A23175  12.817  41.381   8.798
 1471POPC   D2A23176  12.657  41.505   8.426
 1471POPC   C3A23177  12.838  41.330   8.095
 1471POPC   C4A23178  12.681  41.571   7.787
 1471POPC   C1B23179  13.169  41.751   8.814
 1471POPC   C2B23180  13.161  41.610   8.420
 1471POPC   C3B23181  13.039  41.813   8.060
 1471POPC   C4B23182  13.222  41.571   7.791
 1472POPC   NC323183  34.702   8.927   9.321
 1472POPC   PO423184  35.142   9.189   9.774
 1472POPC   GL123185  35.234   9.128   9.303
 1472POPC   GL223186  34.987   9.352   9.208
 1472POPC   C1A23187  35.511   9.101   8.907
 1472POPC   D2A23188  35.580   8.958   8.453
 1472POPC   C3A23189  35.531   9.193   8.060
 1472POPC   C4A23190  35.601   9.015   7.668
 1472POPC   C1B23191  35.020   9.125   8.803
 1472POPC   C2B23192  35.101   9.185   8.370
 1472POPC   C3B23193  35.055   9.015   7.967
 1472POPC   C4B23194  35.114   9.017   7.528
 1473POPC   NC323195  33.422   8.077   9.244
 1473POPC   PO423196  34.092   8.069   9.456
 1473POPC   GL123197  33.890   7.914   9.091
 1473POPC   GL223198  33.838   8.253   8.990
 1473POPC   C1A23199  33.676   7.900   8.690
 1473POPC   D2A23200  33.950   8.143   8.461
 1473POPC   C3A23201  33.757   8.177   8.092
 1473POPC   C4A23202  33.609   8.061   7.684
 1473POPC   C1B23203  33.541   8.414   8.639
 1473POPC   C2B23204  33.496   8.597   8.185
 1473POPC   C3B23205  33.597   8.572   7.702
 1473POPC   C4B23206  33.536   8.701   7.236
 1474POPC   NC323207  33.026  14.145   9.705
 1474POPC   PO423208  33.115  14.750   9.529
 1474POPC   GL123209  33.043  14.459   9.193
 1474POPC   GL223210  32.714  14.354   9.091
 1474POPC   C1A23211  33.202  14.365   8.766
 1474POPC   D2A23212  33.000  14.337   8.338
 1474POPC   C3A23213  33.239  14.486   7.951
 1474POPC   C4A23214  33.281  14.470   7.475
 1474POPC   C1B23215  32.747  14.585   8.731
 1474POPC   C2B23216  32.604  14.683   8.339
 1474POPC   C3B23217  32.738  14.645   7.919
 1474POPC   C4B23218  32.507  14.413   7.571
 1475POPC   NC323219  10.714  16.123   9.502
 1475POPC   PO423220  10.133  15.835   9.603
 1475POPC   GL123221  10.366  15.882   9.189
 1475POPC   GL223222  10.712  15.702   9.178
 1475POPC   C1A23223  10.359  16.078   8.750
 1475POPC   D2A23224  10.514  16.357   8.388
 1475POPC   C3A23225  10.440  16.188   7.959
 1475POPC   C4A23226  10.347  15.759   7.785
 1475POPC   C1B23227  10.852  15.904   8.775
 1475POPC   C2B23228  10.724  15.886   8.333
 1475POPC   C3B23229  10.878  15.908   7.909
 1475POPC   C4B23230  10.966  15.727   7.493
 1476POPC   NC323231  32.093   6.048   9.547
 1476POPC   PO423232  32.564   5.646   9.490
 1476POPC   GL123233  32.418   5.913   9.188
 1476POPC   GL223234  32.068   5.765   9.116
 1476POPC   C1A23235  32.305   6.050   8.800
 1476POPC   D2A23236  32.010   6.069   8.493
 1476POPC   C3A23237  32.175   5.965   8.144
 1476POPC   C4A23238  32.262   5.878   7.768
 1476POPC   C1B23239  32.077   5.557   8.697
 1476POPC   C2B23240  32.165   5.451   8.253
 1476POPC   C3B23241  32.008   5.417   7.838
 1476POPC   C4B23242  31.965   5.644   7.411
 1477POPC   NC323243   6.124   9.821   9.377
 1477POPC   PO423244   5.613   9.765   9.852
 1477POPC   GL123245   5.576   9.674   9.334
 1477POPC   GL223246   5.764   9.862   9.047
 1477POPC   C1A23247   5.447   9.563   8.845
 1477POPC   D2A23248   5.682   9.473   8.477
 1477POPC   C3A23249   5.690   9.564   8.063
 1477POPC   C4A23250   5.591   9.901   7.808
 1477POPC   C1B23251   6.050   9.668   8.751
 1477POPC   C2B23252   6.191   9.790   8.358
 1477POPC   C3B23253   6.086   9.901   7.954
 1477POPC   C4B23254   6.047   9.571   7.685
 1478POPC   NC323255   7.118   2.171   9.476
 1478POPC   PO423256   7.647   1.651   9.465
 1478POPC   GL123257   7.482   1.842   9.073
 1478POPC   GL223258   7.320   2.181   9.023
 1478POPC   C1A23259   7.314   1.878   8.648
 1478POPC   D2A23260   7.569   1.941   8.328
 1478POPC   C3A23261   7.387   1.880   7.964
 1478POPC   C4A23262   7.257   1.493   7.780
 1478POPC   C1B23263   7.716   2.198   8.775
 1478POPC   C2B23264   7.891   2.324   8.389
 1478POPC   C3B23265   7.713   2.348   7.973
 1478POPC   C4B23266   7.732   2.160   7.563
 1479POPC   NC323267  44.344   7.358   9.603
 1479POPC   PO423268  44.952   7.556   9.480
 1479POPC   GL123269  44.735   7.326   9.156
 1479POPC   GL223270  44.423   7.144   9.162
 1479POPC   C1A23271  44.621   7.485   8.774
 1479POPC   D2A23272  44.458   7.679   8.411
 1479POPC   C3A23273  44.724   7.567   8.070
 1479POPC   C4A23274  44.856   7.487   7.665
 1479POPC   C1B23275  44.482   6.988   8.782
 1479POPC   C2B23276  44.562   7.155   8.378
 1479POPC   C3B23277  44.628   7.072   7.963
 1479POPC   C4B23278  44.419   7.231   7.612
 1480POPC   NC323279  32.277  13.513   9.507
 1480POPC   PO423280  31.754  13.800   9.312
 1480POPC   GL123281  32.108  13.673   9.061
 1480POPC   GL223282  32.418  13.896   9.135
 1480POPC   C1A23283  32.078  13.381   8.723
 1480POPC   D2A23284  31.903  13.261   8.318
 1480POPC   C3A23285  32.002  13.542   7.914
 1480POPC   C4A23286  31.974  13.767   7.460
 1480POPC   C1B23287  32.496  13.667   8.714
 1480POPC   C2B23288  32.377  13.661   8.263
 1480POPC   C3B23289  32.577  13.738   7.840
 1480POPC   C4B23290  32.528  13.890   7.421
 1481POPC   NC323291   0.970  35.650   9.529
 1481POPC   PO423292   1.483  35.229   9.405
 1481POPC   GL123293   1.215  35.144   9.095
 1481POPC   GL223294   1.135  35.485   9.073
 1481POPC   C1A23295   1.280  35.129   8.670
 1481POPC   D2A23296   1.407  35.342   8.283
 1481POPC   C3A23297   1.188  35.175   7.939
 1481POPC   C4A23298   1.445  35.203   7.604
 1481POPC   C1B23299   1.246  35.654   8.684
 1481POPC   C2B23300   1.162  35.810   8.264
 1481POPC   C3B23301   1.280  35.673   7.850
 1481POPC   C4B23302   0.988  35.495   7.533
 1482POPC   NC323303  12.642  13.447   9.607
 1482POPC   PO423304  11.984  13.532   9.724
 1482POPC   GL123305  12.003  13.524   9.252
 1482POPC   GL223306  12.352  13.514   9.192
 1482POPC   C1A23307  11.925  13.641   8.806
 1482POPC   D2A23308  11.772  13.574   8.384
 1482POPC   C3A23309  11.938  13.769   8.013
 1482POPC   C4A23310  11.844  13.613   7.579
 1482POPC   C1B23311  12.331  13.344   8.780
 1482POPC   C2B23312  12.291  13.569   8.377
 1482POPC   C3B23313  12.307  13.417   7.938
 1482POPC   C4B23314  12.341  13.590   7.506
 1483POPC   NC323315  33.874  15.813   9.674
 1483POPC   PO423316  33.570  16.273   9.325
 1483POPC   GL123317  33.757  15.935   9.101
 1483POPC   GL223318  34.011  15.668   9.185
 1483POPC   C1A23319  33.996  15.955   8.711
 1483POPC   D2A23320  34.230  15.953   8.329
 1483POPC   C3A23321  33.949  16.051   7.992
 1483POPC   C4A23322  34.072  15.882   7.599
 1483POPC   C1B23323  33.743  15.517   8.799
 1483POPC   C2B23324  33.628  15.729   8.412
 1483POPC   C3B23325  33.671  15.606   7.964
 1483POPC   C4B23326  33.570  15.897   7.635
 1484POPC   NC323327  27.448  35.387   9.434
 1484POPC   PO423328  28.164  35.159   9.563
 1484POPC   GL123329  27.846  35.178   9.197
 1484POPC   GL223330  27.571  35.022   9.010
 1484POPC   C1A23331  27.823  35.359   8.739
 1484POPC   D2A23332  27.770  35.574   8.366
 1484POPC   C3A23333  27.921  35.414   7.968
 1484POPC   C4A23334  27.928  35.673   7.641
 1484POPC   C1B23335  27.641  34.909   8.543
 1484POPC   C2B23336  27.531  35.102   8.114
 1484POPC   C3B23337  27.244  35.120   7.727
 1484POPC   C4B23338  27.302  34.975   7.275
 1485POPC   NC323339  30.185  14.895   9.516
 1485POPC   PO423340  29.769  15.459   9.535
 1485POPC   GL123341  29.976  15.255   9.222
 1485POPC   GL223342  29.785  14.943   9.162
 1485POPC   C1A23343  30.145  15.166   8.835
 1485POPC   D2A23344  29.935  14.960   8.526
 1485POPC   C3A23345  30.046  15.134   8.162
 1485POPC   C4A23346  29.926  14.965   7.802
 1485POPC   C1B23347  29.576  15.211   8.862
 1485POPC   C2B23348  29.617  15.371   8.452
 1485POPC   C3B23349  29.532  15.305   8.035
 1485POPC   C4B23350  29.522  15.203   7.618
 1486POPC   NC323351   6.269  15.717   9.781
 1486POPC   PO423352   6.847  15.978   9.476
 1486POPC   GL123353   6.607  16.002   9.106
 1486POPC   GL223354   6.753  15.729   8.978
 1486POPC   C1A23355   6.641  16.168   8.681
 1486POPC   D2A23356   6.509  16.030   8.251
 1486POPC   C3A23357   6.739  16.135   7.863
 1486POPC   C4A23358   6.560  16.022   7.443
 1486POPC   C1B23359   6.451  15.686   8.637
 1486POPC   C2B23360   6.473  15.478   8.246
 1486POPC   C3B23361   6.504  15.664   7.838
 1486POPC   C4B23362   6.557  15.512   7.426
 1487POPC   NC323363  27.244  33.622   9.430
 1487POPC   PO423364  27.915  33.613   9.534
 1487POPC   GL123365  27.656  33.760   9.149
 1487POPC   GL223366  27.336  33.643   8.945
 1487POPC   C1A23367  27.778  33.959   8.765
 1487POPC   D2A23368  27.980  33.754   8.445
 1487POPC   C3A23369  27.832  33.854   8.060
 1487POPC   C4A23370  27.762  33.591   7.740
 1487POPC   C1B23371  27.264  33.980   8.685
 1487POPC   C2B23372  27.438  34.088   8.292
 1487POPC   C3B23373  27.224  34.165   7.911
 1487POPC   C4B23374  27.270  34.148   7.469
 1488POPC   NC323375  42.582  43.399   9.465
 1488POPC   PO423376  41.958  43.145   9.503
 1488POPC   GL123377  42.189  43.093   9.121
 1488POPC   GL223378  42.503  42.873   9.083
 1488POPC   C1A23379  42.324  43.217   8.698
 1488POPC   D2A23380  42.158  43.314   8.274
 1488POPC   C3A23381  42.484  43.362   7.952
 1488POPC   C4A23382  42.507  43.664   7.622
 1488POPC   C1B23383  42.225  42.705   8.783
 1488POPC   C2B23384  42.143  42.805   8.334
 1488POPC   C3B23385  42.287  42.865   7.883
 1488POPC   C4B23386  42.404  42.732   7.428
 1489POPC   NC323387  25.415  14.221   9.469
 1489POPC   PO423388  25.003  14.690   9.470
 1489POPC   GL123389  25.053  14.429   9.107
 1489POPC   GL223390  25.127  14.075   9.060
 1489POPC   C1A23391  25.237  14.456   8.699
 1489POPC   D2A23392  25.353  14.449   8.272
 1489POPC   C3A23393  25.261  14.558   7.846
 1489POPC   C4A23394  25.472  14.713   7.450
 1489POPC   C1B23395  25.536  14.029   8.793
 1489POPC   C2B23396  25.706  14.108   8.345
 1489POPC   C3B23397  25.451  14.051   7.965
 1489POPC   C4B23398  24.987  14.106   7.876
 1490POPC   NC323399   1.344  19.270   9.421
 1490POPC   PO423400   1.016  18.605   9.456
 1490POPC   GL123401   1.184  18.698   9.039
 1490POPC   GL223402   1.492  18.913   9.080
 1490POPC   C1A23403   1.059  19.026   8.736
 1490POPC   D2A23404   0.991  19.201   8.319
 1490POPC   C3A23405   1.138  18.914   8.038
 1490POPC   C4A23406   0.922  18.824   7.680
 1490POPC   C1B23407   1.506  19.304   8.797
 1490POPC   C2B23408   1.524  19.219   8.373
 1490POPC   C3B23409   1.410  19.344   7.986
 1490POPC   C4B23410   1.381  19.087   7.620
 1491POPC   NC323411   5.570  17.614   9.667
 1491POPC   PO423412   6.262  17.666   9.782
 1491POPC   GL123413   6.029  17.488   9.360
 1491POPC   GL223414   5.921  17.187   9.230
 1491POPC   C1A23415   5.852  17.649   8.942
 1491POPC   D2A23416   5.986  17.773   8.562
 1491POPC   C3A23417   5.754  17.729   8.184
 1491POPC   C4A23418   5.848  17.510   7.851
 1491POPC   C1B23419   5.686  17.206   8.802
 1491POPC   C2B23420   5.877  17.292   8.439
 1491POPC   C3B23421   5.932  17.073   8.083
 1491POPC   C4B23422   5.685  17.014   7.725
 1492POPC   NC323423   1.914  37.161   9.428
 1492POPC   PO423424   2.283  36.734   9.687
 1492POPC   GL123425   2.240  36.827   9.241
 1492POPC   GL223426   1.900  36.676   9.165
 1492POPC   C1A23427   2.302  37.042   8.838
 1492POPC   D2A23428   2.337  37.017   8.368
 1492POPC   C3A23429   2.010  36.831   8.076
 1492POPC   C4A23430   2.070  36.762   7.618
 1492POPC   C1B23431   1.897  36.730   8.704
 1492POPC   C2B23432   1.670  37.039   8.441
 1492POPC   C3B23433   1.588  37.128   8.014
 1492POPC   C4B23434   1.868  37.277   7.692
 1493POPC   NC323435   8.649  19.614   9.690
 1493POPC   PO423436   9.114  20.060   9.652
 1493POPC   GL123437   8.986  20.037   9.228
 1493POPC   GL223438   9.301  20.170   9.132
 1493POPC   C1A23439   8.829  19.778   8.861
 1493POPC   D2A23440   8.974  19.618   8.446
 1493POPC   C3A23441   8.780  19.689   8.054
 1493POPC   C4A23442   8.912  19.525   7.686
 1493POPC   C1B23443   9.082  20.231   8.749
 1493POPC   C2B23444   9.164  20.358   8.350
 1493POPC   C3B23445   9.313  20.221   7.963
 1493POPC   C4B23446   9.039  20.016   7.683
 1494POPC   NC323447   0.508  31.696   9.458
 1494POPC   PO423448   0.187  31.079   9.330
 1494POPC   GL123449   0.572  31.301   9.146
 1494POPC   GL223450   0.786  31.640   9.018
 1494POPC   C1A23451   0.464  31.322   8.747
 1494POPC   D2A23452   0.195  31.357   8.427
 1494POPC   C3A23453   0.427  31.526   8.131
 1494POPC   C4A23454   0.353  31.464   7.711
 1494POPC   C1B23455   0.878  31.532   8.568
 1494POPC   C2B23456   0.747  31.154   8.339
 1494POPC   C3B23457   0.760  31.207   7.920
 1494POPC   C4B23458   0.844  31.631   7.723
 1495POPC   NC323459  30.454   6.073   9.450
 1495POPC   PO423460  30.976   5.541   9.448
 1495POPC   GL123461  30.745   5.811   9.123
 1495POPC   GL223462  30.391   5.765   9.063
 1495POPC   C1A23463  30.888   6.068   8.749
 1495POPC   D2A23464  30.797   6.160   8.318
 1495POPC   C3A23465  30.717   5.780   8.064
 1495POPC   C4A23466  30.742   5.757   7.636
 1495POPC   C1B23467  30.397   6.063   8.770
 1495POPC   C2B23468  30.303   6.011   8.383
 1495POPC   C3B23469  30.361   6.133   7.993
 1495POPC   C4B23470  30.287   6.024   7.549
 1496POPC   NC323471  16.698   7.827   9.251
 1496POPC   PO423472  16.653   7.228   9.472
 1496POPC   GL123473  16.746   7.349   9.036
 1496POPC   GL223474  17.084   7.457   8.946
 1496POPC   C1A23475  16.734   7.372   8.579
 1496POPC   D2A23476  16.400   7.318   8.305
 1496POPC   C3A23477  16.605   7.272   7.951
 1496POPC   C4A23478  16.815   7.206   7.603
 1496POPC   C1B23479  17.119   7.722   8.527
 1496POPC   C2B23480  16.818   7.974   8.273
 1496POPC   C3B23481  16.753   7.788   7.896
 1496POPC   C4B23482  17.110   7.531   7.836
 1497POPC   NC323483  26.651   1.249   9.550
 1497POPC   PO423484  26.481   0.632   9.700
 1497POPC   GL123485  26.727   0.868   9.243
 1497POPC   GL223486  26.845   1.265   9.097
 1497POPC   C1A23487  26.943   0.879   8.820
 1497POPC   D2A23488  27.188   1.154   8.525
 1497POPC   C3A23489  27.048   1.170   8.092
 1497POPC   C4A23490  26.936   1.434   7.766
 1497POPC   C1B23491  26.543   1.211   8.762
 1497POPC   C2B23492  26.551   1.057   8.341
 1497POPC   C3B23493  26.505   1.230   7.927
 1497POPC   C4B23494  26.462   1.501   7.573
 1498POPC   NC323495   4.372  34.866   9.460
 1498POPC   PO423496   4.057  34.309   9.407
 1498POPC   GL123497   4.235  34.399   9.049
 1498POPC   GL223498   4.541  34.542   9.097
 1498POPC   C1A23499   4.305  34.351   8.616
 1498POPC   D2A23500   4.106  34.455   8.219
 1498POPC   C3A23501   4.358  34.373   7.868
 1498POPC   C4A23502   4.256  34.319   7.457
 1498POPC   C1B23503   4.705  34.692   8.759
 1498POPC   C2B23504   4.532  34.731   8.367
 1498POPC   C3B23505   4.501  34.846   7.977
 1498POPC   C4B23506   4.315  34.813   7.558
 1499POPC   NC323507  28.408  23.206   9.493
 1499POPC   PO423508  28.300  22.511   9.610
 1499POPC   GL123509  28.322  22.780   9.249
 1499POPC   GL223510  28.082  22.640   9.061
 1499POPC   C1A23511  28.307  23.078   8.852
 1499POPC   D2A23512  28.447  22.967   8.403
 1499POPC   C3A23513  28.370  23.120   7.974
 1499POPC   C4A23514  28.307  23.018   7.521
 1499POPC   C1B23515  28.482  22.620   8.801
 1499POPC   C2B23516  28.461  22.444   8.418
 1499POPC   C3B23517  28.484  22.603   8.023
 1499POPC   C4B23518  28.253  22.376   7.747
 1500POPC   NC323519  25.672  25.712   9.626
 1500POPC   PO423520  25.113  26.084   9.453
 1500POPC   GL123521  25.166  26.159   9.090
 1500POPC   GL223522  25.438  26.181   9.076
 1500POPC   C1A23523  25.214  25.912   8.710
 1500POPC   D2A23524  25.247  26.111   8.326
 1500POPC   C3A23525  25.295  25.915   7.953
 1500POPC   C4A23526  25.090  25.907   7.577
 1500POPC   C1B23527  25.693  26.135   8.736
 1500POPC   C2B23528  25.734  26.298   8.347
 1500POPC   C3B23529  25.776  26.050   7.995
 1500POPC   C4B23530  25.688  26.137   7.560
 1501POPC   NC323531  35.275   7.823   9.486
 1501POPC   PO423532  35.592   7.221   9.485
 1501POPC   GL123533  35.374   7.404   9.116
 1501POPC   GL223534  35.018   7.263   8.980
 1501POPC   C1A23535  35.533   7.436   8.688
 1501POPC   D2A23536  35.351   7.445   8.312
 1501POPC   C3A23537  35.489   7.706   8.007
 1501POPC   C4A23538  35.584   7.340   7.798
 1501POPC   C1B23539  35.082   7.653   8.788
 1501POPC   C2B23540  34.961   7.777   8.411
 1501POPC   C3B23541  34.979   7.627   7.990
 1501POPC   C4B23542  35.012   7.243   7.773
 1502POPC   NC323543  16.465  44.972   9.504
 1502POPC   PO423544  15.854   0.323   9.402
 1502POPC   GL123545  16.148   0.268   9.091
 1502POPC   GL223546  16.426   0.498   8.977
 1502POPC   C1A23547  16.048   0.408   8.662
 1502POPC   D2A23548  16.283   0.538   8.299
 1502POPC   C3A23549  16.175   0.341   7.933
 1502POPC   C4A23550  15.894   0.136   7.682
 1502POPC   C1B23551  16.362   0.882   8.683
 1502POPC   C2B23552  16.348   1.038   8.225
 1502POPC   C3B23553  16.266   0.819   7.812
 1502POPC   C4B23554  15.849   0.650   7.702
 1503POPC   NC323555  31.319  34.433   9.585
 1503POPC   PO423556  31.930  34.336   9.315
 1503POPC   GL123557  31.597  34.517   9.076
 1503POPC   GL223558  31.227  34.611   9.105
 1503POPC   C1A23559  31.661  34.474   8.625
 1503POPC   D2A23560  31.453  34.521   8.264
 1503POPC   C3A23561  31.631  34.392   7.858
 1503POPC   C4A23562  31.600  34.497   7.426
 1503POPC   C1B23563  31.283  34.797   8.723
 1503POPC   C2B23564  31.111  34.907   8.298
 1503POPC   C3B23565  31.198  34.715   7.871
 1503POPC   C4B23566  31.202  34.824   7.418
 1504POPC   NC323567  31.570   8.264   9.586
 1504POPC   PO423568  31.619   8.823   9.209
 1504POPC   GL123569  31.467   8.410   9.097
 1504POPC   GL223570  31.718   8.123   9.111
 1504POPC   C1A23571  31.330   8.191   8.717
 1504POPC   D2A23572  31.174   8.272   8.287
 1504POPC   C3A23573  31.367   8.099   7.887
 1504POPC   C4A23574  31.405   8.244   7.449
 1504POPC   C1B23575  31.848   8.295   8.698
 1504POPC   C2B23576  31.648   8.517   8.326
 1504POPC   C3B23577  31.669   8.505   7.868
 1504POPC   C4B23578  31.885   8.199   7.649
 1505POPC   NC323579  44.773  43.659   9.627
 1505POPC   PO423580  44.201  43.790   9.836
 1505POPC   GL123581  44.389  43.794   9.333
 1505POPC   GL223582  44.737  43.629   9.139
 1505POPC   C1A23583  44.541  44.071   8.965
 1505POPC   D2A23584  44.600  44.227   8.535
 1505POPC   C3A23585  44.761  44.000   8.163
 1505POPC   C4A23586  44.743  44.122   7.730
 1505POPC   C1B23587  44.400  43.577   8.869
 1505POPC   C2B23588  44.377  43.760   8.493
 1505POPC   C3B23589  44.386  43.643   8.100
 1505POPC   C4B23590  44.567  43.666   7.712
 1506POPC   NC323591  37.486   8.386   9.509
 1506POPC   PO423592  38.160   8.491   9.501
 1506POPC   GL123593  37.882   8.425   9.171
 1506POPC   GL223594  37.749   8.076   9.212
 1506POPC   C1A23595  37.766   8.498   8.753
 1506POPC   D2A23596  38.023   8.416   8.416
 1506POPC   C3A23597  37.779   8.447   8.106
 1506POPC   C4A23598  37.410   8.333   7.919
 1506POPC   C1B23599  37.512   8.050   8.828
 1506POPC   C2B23600  37.520   8.129   8.408
 1506POPC   C3B23601  37.603   7.884   8.030
 1506POPC   C4B23602  37.582   7.935   7.581
 1507POPC   NC323603  14.114  34.784   9.711
 1507POPC   PO423604  14.122  34.108   9.669
 1507POPC   GL123605  14.221  34.451   9.311
 1507POPC   GL223606  14.588  34.591   9.293
 1507POPC   C1A23607  14.254  34.717   8.916
 1507POPC   D2A23608  14.040  34.767   8.519
 1507POPC   C3A23609  14.253  34.743   8.118
 1507POPC   C4A23610  14.164  34.761   7.696
 1507POPC   C1B23611  14.772  34.715   8.873
 1507POPC   C2B23612  14.805  34.829   8.431
 1507POPC   C3B23613  14.751  34.623   8.052
 1507POPC   C4B23614  14.684  34.662   7.632
 1508POPC   NC323615   9.968  19.077   9.590
 1508POPC   PO423616   9.463  18.637   9.419
 1508POPC   GL123617   9.714  18.866   9.190
 1508POPC   GL223618   9.550  19.171   9.259
 1508POPC   C1A23619   9.906  18.855   8.817
 1508POPC   D2A23620   9.889  19.136   8.490
 1508POPC   C3A23621   9.925  18.942   8.140
 1508POPC   C4A23622  10.172  19.045   7.846
 1508POPC   C1B23623   9.619  19.349   8.861
 1508POPC   C2B23624   9.441  19.372   8.449
 1508POPC   C3B23625   9.599  19.314   8.041
 1508POPC   C4B23626   9.397  19.341   7.664
 1509POPC   NC323627  15.018  37.874   9.437
 1509POPC   PO423628  15.066  38.665   9.391
 1509POPC   GL123629  15.348  38.553   9.094
 1509POPC   GL223630  15.275  38.214   9.158
 1509POPC   C1A23631  15.344  38.605   8.665
 1509POPC   D2A23632  15.105  38.405   8.372
 1509POPC   C3A23633  15.231  38.512   7.973
 1509POPC   C4A23634  15.055  38.682   7.626
 1509POPC   C1B23635  15.133  38.035   8.780
 1509POPC   C2B23636  14.921  37.930   8.405
 1509POPC   C3B23637  15.145  37.986   8.059
 1509POPC   C4B23638  15.269  37.992   7.658
 1510POPC   NC323639  27.498  12.451   9.429
 1510POPC   PO423640  27.752  13.093   9.567
 1510POPC   GL123641  27.666  12.894   9.183
 1510POPC   GL223642  27.319  12.802   9.088
 1510POPC   C1A23643  27.859  12.869   8.795
 1510POPC   D2A23644  27.827  12.658   8.401
 1510POPC   C3A23645  27.524  12.924   8.163
 1510POPC   C4A23646  27.630  13.193   7.813
 1510POPC   C1B23647  27.511  12.469   8.798
 1510POPC   C2B23648  27.433  12.296   8.418
 1510POPC   C3B23649  27.540  12.431   8.042
 1510POPC   C4B23650  27.495  12.714   7.689
 1511POPC   NC323651  13.498  37.404   9.473
 1511POPC   PO423652  13.779  37.865   9.807
 1511POPC   GL123653  13.736  37.821   9.270
 1511POPC   GL223654  13.522  37.618   9.018
 1511POPC   C1A23655  13.879  37.933   8.824
 1511POPC   D2A23656  13.720  38.023   8.378
 1511POPC   C3A23657  14.005  37.942   8.052
 1511POPC   C4A23658  13.987  37.659   7.701
 1511POPC   C1B23659  13.638  37.365   8.652
 1511POPC   C2B23660  13.825  37.517   8.293
 1511POPC   C3B23661  13.562  37.667   7.987
 1511POPC   C4B23662  13.548  37.402   7.640
 1512POPC   NC323663  19.828  23.139   9.561
 1512POPC   PO423664  19.399  22.859   9.323
 1512POPC   GL123665  19.662  23.157   9.080
 1512POPC   GL223666  19.977  22.997   9.095
 1512POPC   C1A23667  19.922  23.347   8.741
 1512POPC   D2A23668  19.836  23.186   8.342
 1512POPC   C3A23669  20.031  23.193   7.935
 1512POPC   C4A23670  20.021  23.220   7.475
 1512POPC   C1B23671  19.903  22.799   8.681
 1512POPC   C2B23672  19.956  22.718   8.198
 1512POPC   C3B23673  19.828  22.756   7.744
 1512POPC   C4B23674  19.864  22.485   7.378
 1513POPC   NC323675  44.639  34.311   9.495
 1513POPC   PO423676  44.616  34.991   9.372
 1513POPC   GL123677  44.667  34.652   9.085
 1513POPC   GL223678  44.424  34.404   9.023
 1513POPC   C1A23679  44.767  34.538   8.650
 1513POPC   D2A23680   0.007  34.737   8.311
 1513POPC   C3A23681  44.744  34.671   7.948
 1513POPC   C4A23682  44.888  34.369   7.642
 1513POPC   C1B23683  44.320  34.810   8.762
 1513POPC   C2B23684  44.316  35.021   8.367
 1513POPC   C3B23685  44.237  34.807   7.981
 1513POPC   C4B23686  44.360  34.685   7.575
 1514POPC   NC323687  40.690  11.746   9.530
 1514POPC   PO423688  40.985  12.284   9.596
 1514POPC   GL123689  40.943  12.081   9.200
 1514POPC   GL223690  40.612  12.102   9.115
 1514POPC   C1A23691  40.924  11.997   8.720
 1514POPC   D2A23692  40.744  11.889   8.297
 1514POPC   C3A23693  40.977  12.045   7.922
 1514POPC   C4A23694  41.079  12.276   7.530
 1514POPC   C1B23695  40.363  12.088   8.728
 1514POPC   C2B23696  40.208  11.842   8.357
 1514POPC   C3B23697  40.380  11.830   7.945
 1514POPC   C4B23698  40.505  12.235   7.896
 1515POPC   NC323699  27.129  26.619   9.906
 1515POPC   PO423700  26.689  26.944   9.472
 1515POPC   GL123701  26.752  26.916   9.067
 1515POPC   GL223702  27.069  27.074   9.074
 1515POPC   C1A23703  26.570  26.766   8.682
 1515POPC   D2A23704  26.750  26.728   8.282
 1515POPC   C3A23705  26.651  26.494   7.928
 1515POPC   C4A23706  26.856  26.857   7.750
 1515POPC   C1B23707  27.123  26.854   8.686
 1515POPC   C2B23708  27.134  26.450   8.464
 1515POPC   C3B23709  27.145  26.496   8.018
 1515POPC   C4B23710  27.052  26.390   7.569
 1516POPC   NC323711  18.861  42.818   9.673
 1516POPC   PO423712  19.377  42.441   9.452
 1516POPC   GL123713  19.145  42.236   9.129
 1516POPC   GL223714  18.785  42.310   9.121
 1516POPC   C1A23715  19.149  42.329   8.722
 1516POPC   D2A23716  18.864  42.352   8.388
 1516POPC   C3A23717  19.150  42.322   8.058
 1516POPC   C4A23718  19.189  42.060   7.744
 1516POPC   C1B23719  18.751  42.648   8.823
 1516POPC   C2B23720  18.791  42.876   8.455
 1516POPC   C3B23721  18.900  42.763   8.065
 1516POPC   C4B23722  18.885  42.548   7.679
 1517POPC   NC323723   4.984  33.574   9.794
 1517POPC   PO423724   5.002  34.174   9.499
 1517POPC   GL123725   4.843  33.856   9.235
 1517POPC   GL223726   5.021  33.535   9.171
 1517POPC   C1A23727   4.959  33.910   8.810
 1517POPC   D2A23728   5.130  33.889   8.397
 1517POPC   C3A23729   4.932  33.586   8.143
 1517POPC   C4A23730   4.814  33.606   7.731
 1517POPC   C1B23731   5.179  33.440   8.720
 1517POPC   C2B23732   5.400  33.452   8.301
 1517POPC   C3B23733   5.419  33.743   7.926
 1517POPC   C4B23734   5.365  33.703   7.472
 1518POPC   NC323735   4.581  39.352   9.466
 1518POPC   PO423736   4.112  38.904   9.540
 1518POPC   GL123737   4.291  39.042   9.176
 1518POPC   GL223738   4.143  39.382   9.172
 1518POPC   C1A23739   4.331  39.173   8.743
 1518POPC   D2A23740   4.388  38.979   8.374
 1518POPC   C3A23741   4.402  39.288   8.073
 1518POPC   C4A23742   4.345  39.071   7.730
 1518POPC   C1B23743   3.852  39.334   8.788
 1518POPC   C2B23744   4.004  39.390   8.386
 1518POPC   C3B23745   3.886  39.288   7.988
 1518POPC   C4B23746   3.968  39.346   7.548
 1519POPC   NC323747  30.929  15.509   9.528
 1519POPC   PO423748  30.594  14.928   9.328
 1519POPC   GL123749  30.716  15.250   9.115
 1519POPC   GL223750  30.472  15.502   9.267
 1519POPC   C1A23751  30.922  15.133   8.733
 1519POPC   D2A23752  30.917  14.858   8.392
 1519POPC   C3A23753  30.779  15.113   8.077
 1519POPC   C4A23754  30.837  15.098   7.654
 1519POPC   C1B23755  30.475  15.598   8.826
 1519POPC   C2B23756  30.486  15.351   8.462
 1519POPC   C3B23757  30.430  15.487   8.045
 1519POPC   C4B23758  30.362  15.215   7.737
 1520POPC   NC323759  13.084   4.126   9.526
 1520POPC   PO423760  12.593   3.795   9.248
 1520POPC   GL123761  12.868   4.119   9.020
 1520POPC   GL223762  13.218   4.216   9.042
 1520POPC   C1A23763  12.964   4.441   8.668
 1520POPC   D2A23764  13.161   4.463   8.241
 1520POPC   C3A23765  12.903   4.250   7.940
 1520POPC   C4A23766  12.477   4.134   7.818
 1520POPC   C1B23767  13.392   4.160   8.594
 1520POPC   C2B23768  13.288   3.966   8.171
 1520POPC   C3B23769  13.286   3.992   7.723
 1520POPC   C4B23770  13.259   4.397   7.566
 1521POPC   NC323771   4.786  21.417   9.527
 1521POPC   PO423772   5.375  21.186   9.498
 1521POPC   GL123773   5.098  21.171   9.165
 1521POPC   GL223774   5.053  21.531   9.100
 1521POPC   C1A23775   5.252  21.141   8.742
 1521POPC   D2A23776   5.416  21.110   8.342
 1521POPC   C3A23777   5.181  21.109   7.963
 1521POPC   C4A23778   5.040  21.365   7.601
 1521POPC   C1B23779   4.802  21.357   8.776
 1521POPC   C2B23780   4.899  21.321   8.359
 1521POPC   C3B23781   4.886  21.636   8.062
 1521POPC   C4B23782   4.654  21.732   7.684
 1522POPC   NC323783   6.978   6.143   9.684
 1522POPC   PO423784   6.894   5.595   9.386
 1522POPC   GL123785   7.235   5.790   9.192
 1522POPC   GL223786   7.150   6.162   9.201
 1522POPC   C1A23787   7.469   5.630   8.834
 1522POPC   D2A23788   7.295   5.713   8.431
 1522POPC   C3A23789   7.541   5.710   8.055
 1522POPC   C4A23790   7.188   5.778   7.821
 1522POPC   C1B23791   7.043   6.102   8.763
 1522POPC   C2B23792   7.171   6.221   8.339
 1522POPC   C3B23793   7.244   6.317   7.920
 1522POPC   C4B23794   7.526   6.134   7.613
 1523POPC   NC323795   2.810   6.190   9.327
 1523POPC   PO423796   2.610   6.892   9.510
 1523POPC   GL123797   2.845   6.705   9.195
 1523POPC   GL223798   2.581   6.522   9.043
 1523POPC   C1A23799   2.874   6.812   8.755
 1523POPC   D2A23800   2.598   6.695   8.425
 1523POPC   C3A23801   2.720   6.856   8.051
 1523POPC   C4A23802   2.917   6.648   7.730
 1523POPC   C1B23803   2.340   6.354   8.716
 1523POPC   C2B23804   2.250   6.295   8.330
 1523POPC   C3B23805   2.501   6.402   8.007
 1523POPC   C4B23806   2.580   6.243   7.660
 1524POPC   NC323807  42.855  34.927   9.351
 1524POPC   PO423808  43.052  35.621   9.523
 1524POPC   GL123809  43.160  35.353   9.181
 1524POPC   GL223810  43.417  35.115   9.282
 1524POPC   C1A23811  43.037  35.387   8.751
 1524POPC   D2A23812  42.904  35.294   8.343
 1524POPC   C3A23813  43.026  35.510   7.952
 1524POPC   C4A23814  42.801  35.554   7.572
 1524POPC   C1B23815  43.316  34.933   8.879
 1524POPC   C2B23816  43.415  34.984   8.446
 1524POPC   C3B23817  43.223  35.022   8.058
 1524POPC   C4B23818  43.258  35.070   7.640
 1525POPC   NC323819  26.137  31.544   9.420
 1525POPC   PO423820  26.382  30.921   9.540
 1525POPC   GL123821  26.308  31.165   9.126
 1525POPC   GL223822  25.928  31.163   9.145
 1525POPC   C1A23823  26.133  31.454   8.747
 1525POPC   D2A23824  26.148  31.812   8.420
 1525POPC   C3A23825  26.112  31.651   7.996
 1525POPC   C4A23826  26.376  31.382   7.709
 1525POPC   C1B23827  25.673  31.242   8.801
 1525POPC   C2B23828  25.640  31.424   8.417
 1525POPC   C3B23829  25.707  31.313   7.989
 1525POPC   C4B23830  25.878  31.452   7.576
 1526POPC   NC323831  13.121  13.801   9.490
 1526POPC   PO423832  12.925  13.080   9.619
 1526POPC   GL123833  12.850  13.334   9.140
 1526POPC   GL223834  12.838  13.676   9.101
 1526POPC   C1A23835  12.789  13.504   8.644
 1526POPC   D2A23836  12.722  13.813   8.291
 1526POPC   C3A23837  12.648  13.795   7.844
 1526POPC   C4A23838  12.838  13.585   7.466
 1526POPC   C1B23839  13.158  13.818   8.787
 1526POPC   C2B23840  13.180  13.998   8.376
 1526POPC   C3B23841  13.142  13.801   7.957
 1526POPC   C4B23842  13.056  14.025   7.583
 1527POPC   NC323843   4.092  12.377   9.557
 1527POPC   PO423844   4.604  11.921   9.407
 1527POPC   GL123845   4.376  11.948   9.081
 1527POPC   GL223846   4.392  12.312   9.134
 1527POPC   C1A23847   4.178  11.770   8.736
 1527POPC   D2A23848   4.338  11.899   8.364
 1527POPC   C3A23849   4.148  11.915   7.992
 1527POPC   C4A23850   4.528  11.927   7.753
 1527POPC   C1B23851   4.392  12.310   8.696
 1527POPC   C2B23852   4.218  12.408   8.289
 1527POPC   C3B23853   4.341  12.403   7.859
 1527POPC   C4B23854   4.316  12.608   7.450
 1528POPC   NC323855  38.722  25.643   9.406
 1528POPC   PO423856  38.449  25.078   9.546
 1528POPC   GL123857  38.447  25.270   9.175
 1528POPC   GL223858  38.132  25.226   9.158
 1528POPC   C1A23859  38.612  25.416   8.798
 1528POPC   D2A23860  38.457  25.531   8.387
 1528POPC   C3A23861  38.612  25.317   8.056
 1528POPC   C4A23862  38.787  25.302   7.684
 1528POPC   C1B23863  38.115  25.382   8.762
 1528POPC   C2B23864  38.070  25.188   8.383
 1528POPC   C3B23865  38.101  25.359   7.988
 1528POPC   C4B23866  38.273  25.130   7.659
 1529POPC   NC323867  18.779  37.050   9.434
 1529POPC   PO423868  18.216  36.616   9.437
 1529POPC   GL123869  18.436  36.727   9.118
 1529POPC   GL223870  18.361  37.060   9.174
 1529POPC   C1A23871  18.169  36.818   8.777
 1529POPC   D2A23872  18.255  36.810   8.403
 1529POPC   C3A23873  18.340  36.850   8.029
 1529POPC   C4A23874  18.305  36.610   7.751
 1529POPC   C1B23875  18.417  37.268   8.793
 1529POPC   C2B23876  18.198  37.325   8.404
 1529POPC   C3B23877  18.356  37.349   7.968
 1529POPC   C4B23878  18.200  37.326   7.545
 1530POPC   NC323879  18.928  27.952   9.490
 1530POPC   PO423880  18.330  27.642   9.487
 1530POPC   GL123881  18.341  27.508   9.110
 1530POPC   GL223882  18.659  27.721   9.068
 1530POPC   C1A23883  18.140  27.253   8.784
 1530POPC   D2A23884  18.115  27.531   8.425
 1530POPC   C3A23885  18.207  27.433   8.013
 1530POPC   C4A23886  18.192  27.527   7.613
 1530POPC   C1B23887  18.589  27.452   8.678
 1530POPC   C2B23888  18.672  27.468   8.255
 1530POPC   C3B23889  18.696  27.598   7.823
 1530POPC   C4B23890  18.663  27.529   7.371
 1531POPC   NC323891   1.270   3.697   9.553
 1531POPC   PO423892   0.645   3.517   9.562
 1531POPC   GL123893   0.947   3.502   9.233
 1531POPC   GL223894   0.956   3.240   9.124
 1531POPC   C1A23895   1.246   3.650   8.886
 1531POPC   D2A23896   1.157   3.861   8.491
 1531POPC   C3A23897   1.378   3.845   8.078
 1531POPC   C4A23898   1.480   3.699   7.636
 1531POPC   C1B23899   1.105   3.162   8.753
 1531POPC   C2B23900   1.305   3.358   8.422
 1531POPC   C3B23901   1.271   3.358   8.001
 1531POPC   C4B23902   1.447   3.195   7.684
 1532POPC   NC323903   3.050   7.114   9.470
 1532POPC   PO423904   3.031   7.797   9.447
 1532POPC   GL123905   2.742   7.515   9.223
 1532POPC   GL223906   3.015   7.447   9.048
 1532POPC   C1A23907   2.638   7.296   8.780
 1532POPC   D2A23908   2.822   7.287   8.375
 1532POPC   C3A23909   2.558   7.340   8.011
 1532POPC   C4A23910   2.749   7.160   7.635
 1532POPC   C1B23911   3.004   7.715   8.682
 1532POPC   C2B23912   2.954   7.788   8.255
 1532POPC   C3B23913   2.996   7.567   7.867
 1532POPC   C4B23914   2.916   7.654   7.444
 1533POPC   NC323915   6.612  21.170   9.647
 1533POPC   PO423916   6.257  21.720   9.472
 1533POPC   GL123917   6.409  21.347   9.154
 1533POPC   GL223918   6.763  21.235   9.183
 1533POPC   C1A23919   6.571  21.340   8.725
 1533POPC   D2A23920   6.405  21.112   8.414
 1533POPC   C3A23921   6.261  21.374   8.095
 1533POPC   C4A23922   6.465  21.189   7.774
 1533POPC   C1B23923   7.071  21.230   8.866
 1533POPC   C2B23924   7.153  21.301   8.432
 1533POPC   C3B23925   6.829  21.337   8.127
 1533POPC   C4B23926   6.724  21.661   7.825
 1534POPC   NC323927  27.776  18.799   9.473
 1534POPC   PO423928  27.786  18.121   9.528
 1534POPC   GL123929  27.914  18.358   9.169
 1534POPC   GL223930  27.557  18.307   9.060
 1534POPC   C1A23931  27.943  18.281   8.717
 1534POPC   D2A23932  27.548  18.230   8.446
 1534POPC   C3A23933  27.707  18.073   8.065
 1534POPC   C4A23934  28.087  18.042   7.852
 1534POPC   C1B23935  27.608  18.654   8.757
 1534POPC   C2B23936  27.683  18.697   8.288
 1534POPC   C3B23937  27.833  18.539   7.894
 1534POPC   C4B23938  27.785  18.674   7.466
 1535POPC   NC323939  20.836   0.218   9.554
 1535POPC   PO423940  20.234   0.497   9.418
 1535POPC   GL123941  20.399   0.589   9.061
 1535POPC   GL223942  20.692   0.427   9.115
 1535POPC   C1A23943  20.412   0.429   8.659
 1535POPC   D2A23944  20.354   0.541   8.264
 1535POPC   C3A23945  20.697   0.615   7.987
 1535POPC   C4A23946  20.430   0.374   7.744
 1535POPC   C1B23947  20.932   0.461   8.747
 1535POPC   C2B23948  20.852   0.275   8.380
 1535POPC   C3B23949  20.935  44.968   8.104
 1535POPC   C4B23950  20.988   0.221   7.747
 1536POPC   NC323951  20.679  11.914   9.537
 1536POPC   PO423952  20.287  12.514   9.487
 1536POPC   GL123953  20.640  12.322   9.236
 1536POPC   GL223954  20.396  12.102   9.143
 1536POPC   C1A23955  20.736  12.199   8.795
 1536POPC   D2A23956  20.525  12.371   8.447
 1536POPC   C3A23957  20.552  12.181   8.050
 1536POPC   C4A23958  20.390  12.380   7.713
 1536POPC   C1B23959  20.372  11.799   8.830
 1536POPC   C2B23960  20.404  11.836   8.418
 1536POPC   C3B23961  20.243  11.702   8.038
 1536POPC   C4B23962  20.397  11.873   7.645
 1537POPC   NC323963  32.625  33.621   9.666
 1537POPC   PO423964  33.034  34.043   9.341
 1537POPC   GL123965  33.146  33.728   9.051
 1537POPC   GL223966  33.506  33.723   9.017
 1537POPC   C1A23967  33.228  33.625   8.592
 1537POPC   D2A23968  32.954  33.471   8.269
 1537POPC   C3A23969  32.962  33.540   7.829
 1537POPC   C4A23970  32.832  33.913   7.664
 1537POPC   C1B23971  33.305  34.117   8.767
 1537POPC   C2B23972  33.028  34.198   8.440
 1537POPC   C3B23973  33.147  34.105   8.024
 1537POPC   C4B23974  33.400  33.803   7.806
 1538POPC   NC323975  11.511  36.433   9.370
 1538POPC   PO423976  11.320  35.864   9.668
 1538POPC   GL123977  11.344  35.965   9.199
 1538POPC   GL223978  11.629  35.799   9.022
 1538POPC   C1A23979  11.111  36.092   8.816
 1538POPC   D2A23980  10.902  35.990   8.444
 1538POPC   C3A23981  11.041  36.155   8.055
 1538POPC   C4A23982  11.161  35.968   7.677
 1538POPC   C1B23983  11.625  36.132   8.744
 1538POPC   C2B23984  11.469  36.221   8.350
 1538POPC   C3B23985  11.565  35.978   8.001
 1538POPC   C4B23986  11.696  36.060   7.606
 1539POPC   NC323987  16.254  27.213   9.461
 1539POPC   PO423988  15.573  27.409   9.449
 1539POPC   GL123989  15.838  27.697   9.142
 1539POPC   GL223990  16.192  27.591   9.119
 1539POPC   C1A23991  15.919  27.749   8.714
 1539POPC   D2A23992  15.971  27.374   8.442
 1539POPC   C3A23993  15.866  27.518   8.046
 1539POPC   C4A23994  15.928  27.903   7.808
 1539POPC   C1B23995  16.390  27.624   8.693
 1539POPC   C2B23996  16.243  27.780   8.279
 1539POPC   C3B23997  16.378  27.630   7.877
 1539POPC   C4B23998  16.481  27.338   7.505
 1540POPC   NC323999  17.458  11.075   9.693
 1540POPC   PO424000  16.822  11.216   9.572
 1540POPC   GL124001  16.695  11.195   9.143
 1540POPC   GL224002  16.850  11.549   9.159
 1540POPC   C1A24003  16.542  10.994   8.734
 1540POPC   D2A24004  16.541  10.766   8.334
 1540POPC   C3A24005  16.532  11.011   7.977
 1540POPC   C4A24006  16.334  11.062   7.596
 1540POPC   C1B24007  16.772  11.472   8.730
 1540POPC   C2B24008  16.547  11.387   8.354
 1540POPC   C3B24009  16.717  11.488   7.963
 1540POPC   C4B24010  16.766  11.655   7.566
 1541POPC   NC324011  27.353  17.948   9.538
 1541POPC   PO424012  26.805  17.926   9.521
 1541POPC   GL124013  27.039  18.082   9.120
 1541POPC   GL224014  27.061  18.448   9.074
 1541POPC   C1A24015  26.991  18.149   8.639
 1541POPC   D2A24016  26.703  18.361   8.324
 1541POPC   C3A24017  26.786  18.385   7.876
 1541POPC   C4A24018  26.607  18.623   7.522
 1541POPC   C1B24019  27.107  18.642   8.648
 1541POPC   C2B24020  27.179  18.561   8.209
 1541POPC   C3B24021  27.295  18.296   7.881
 1541POPC   C4B24022  27.219  17.986   7.531
 1542POPC   NC324023  14.076  22.464   9.559
 1542POPC   PO424024  13.537  22.138   9.722
 1542POPC   GL124025  13.568  22.098   9.258
 1542POPC   GL224026  13.854  22.015   9.106
 1542POPC   C1A24027  13.454  22.280   8.867
 1542POPC   D2A24028  13.633  22.190   8.488
 1542POPC   C3A24029  13.387  22.084   8.141
 1542POPC   C4A24030  13.344  22.274   7.760
 1542POPC   C1B24031  13.988  21.844   8.685
 1542POPC   C2B24032  14.058  22.034   8.273
 1542POPC   C3B24033  13.822  22.268   7.974
 1542POPC   C4B24034  13.875  22.253   7.514
 1543POPC   NC324035  29.314  32.625   9.466
 1543POPC   PO424036  29.170  33.191   9.696
 1543POPC   GL124037  29.162  32.998   9.163
 1543POPC   GL224038  29.384  33.239   8.889
 1543POPC   C1A24039  28.988  32.967   8.739
 1543POPC   D2A24040  29.211  33.142   8.377
 1543POPC   C3A24041  29.013  33.163   7.982
 1543POPC   C4A24042  29.087  32.878   7.636
 1543POPC   C1B24043  29.458  32.815   8.703
 1543POPC   C2B24044  29.297  32.649   8.290
 1543POPC   C3B24045  29.483  32.906   7.947
 1543POPC   C4B24046  29.482  33.178   7.538
 1544POPC   NC324047  32.211  30.498   9.487
 1544POPC   PO424048  32.173  29.899   9.439
 1544POPC   GL124049  32.075  30.170   9.098
 1544POPC   GL224050  32.384  30.351   9.021
 1544POPC   C1A24051  32.132  30.155   8.642
 1544POPC   D2A24052  32.158  30.123   8.218
 1544POPC   C3A24053  31.941  29.849   7.880
 1544POPC   C4A24054  31.862  29.644   7.451
 1544POPC   C1B24055  32.611  30.373   8.594
 1544POPC   C2B24056  32.587  30.426   8.138
 1544POPC   C3B24057  32.304  30.276   7.774
 1544POPC   C4B24058  32.273  29.976   7.451
 1545POPC   NC324059  21.354  24.181   9.751
 1545POPC   PO424060  21.368  23.579   9.532
 1545POPC   GL124061  21.436  23.728   9.066
 1545POPC   GL224062  21.290  24.038   8.972
 1545POPC   C1A24063  21.415  23.708   8.594
 1545POPC   D2A24064  21.495  23.688   8.161
 1545POPC   C3A24065  21.243  23.769   7.840
 1545POPC   C4A24066  21.383  23.682   7.407
 1545POPC   C1B24067  21.622  24.147   8.697
 1545POPC   C2B24068  21.604  24.199   8.257
 1545POPC   C3B24069  21.588  24.146   7.795
 1545POPC   C4B24070  21.676  24.073   7.346
 1546POPC   NC324071  16.703   2.095   9.706
 1546POPC   PO424072  16.572   1.455   9.473
 1546POPC   GL124073  16.621   1.858   9.221
 1546POPC   GL224074  16.452   2.186   9.253
 1546POPC   C1A24075  16.742   2.102   8.840
 1546POPC   D2A24076  16.721   1.938   8.436
 1546POPC   C3A24077  16.976   1.908   8.089
 1546POPC   C4A24078  16.961   2.082   7.679
 1546POPC   C1B24079  16.313   2.380   8.834
 1546POPC   C2B24080  16.507   2.408   8.392
 1546POPC   C3B24081  16.554   2.175   7.983
 1546POPC   C4B24082  16.487   1.930   7.596
 1547POPC   NC324083  16.956  26.429   9.447
 1547POPC   PO424084  16.481  26.842   9.685
 1547POPC   GL124085  16.517  26.871   9.227
 1547POPC   GL224086  16.582  26.576   9.101
 1547POPC   C1A24087  16.551  26.986   8.787
 1547POPC   D2A24088  16.945  26.881   8.550
 1547POPC   C3A24089  16.951  26.902   8.090
 1547POPC   C4A24090  16.609  26.856   7.794
 1547POPC   C1B24091  16.432  26.499   8.681
 1547POPC   C2B24092  16.572  26.609   8.272
 1547POPC   C3B24093  16.435  26.378   7.895
 1547POPC   C4B24094  16.336  26.514   7.461
 1548POPC   NC324095  39.562  13.747   9.394
 1548POPC   PO424096  38.910  13.490   9.581
 1548POPC   GL124097  38.948  13.738   9.168
 1548POPC   GL224098  39.221  13.601   9.071
 1548POPC   C1A24099  39.071  13.863   8.687
 1548POPC   D2A24100  39.315  13.686   8.312
 1548POPC   C3A24101  39.131  13.863   7.988
 1548POPC   C4A24102  38.760  13.773   7.830
 1548POPC   C1B24103  39.347  13.397   8.722
 1548POPC   C2B24104  39.580  13.223   8.387
 1548POPC   C3B24105  39.593  13.361   7.947
 1548POPC   C4B24106  39.445  13.164   7.549
 1549POPC   NC324107  27.762  41.300   9.470
 1549POPC   PO424108  27.302  40.682   9.463
 1549POPC   GL124109  27.636  40.873   9.200
 1549POPC   GL224110  27.905  40.643   9.059
 1549POPC   C1A24111  27.670  41.050   8.794
 1549POPC   D2A24112  27.778  40.870   8.406
 1549POPC   C3A24113  27.557  40.993   8.040
 1549POPC   C4A24114  27.638  41.047   7.594
 1549POPC   C1B24115  27.550  40.541   8.800
 1549POPC   C2B24116  27.498  40.409   8.359
 1549POPC   C3B24117  27.497  40.497   7.916
 1549POPC   C4B24118  27.498  40.587   7.466
 1550POPC   NC324119  29.516  26.263   9.946
 1550POPC   PO424120  29.041  26.027   9.790
 1550POPC   GL124121  28.953  26.099   9.309
 1550POPC   GL224122  29.049  25.793   9.175
 1550POPC   C1A24123  28.947  26.203   8.828
 1550POPC   D2A24124  28.932  26.068   8.346
 1550POPC   C3A24125  28.879  26.268   7.904
 1550POPC   C4A24126  28.919  26.566   7.525
 1550POPC   C1B24127  28.902  25.697   8.734
 1550POPC   C2B24128  29.042  25.567   8.290
 1550POPC   C3B24129  29.059  25.770   7.880
 1550POPC   C4B24130  28.725  25.857   7.606
 1551POPC   NC324131  44.042  32.538   9.554
 1551POPC   PO424132  43.557  32.089   9.605
 1551POPC   GL124133  43.777  32.208   9.244
 1551POPC   GL224134  44.108  32.078   9.299
 1551POPC   C1A24135  43.777  32.320   8.802
 1551POPC   D2A24136  43.660  32.349   8.349
 1551POPC   C3A24137  43.929  32.583   8.106
 1551POPC   C4A24138  44.113  32.417   7.735
 1551POPC   C1B24139  44.135  31.948   8.856
 1551POPC   C2B24140  43.817  31.821   8.520
 1551POPC   C3B24141  43.828  31.895   8.054
 1551POPC   C4B24142  44.199  31.927   7.753
 1552POPC   NC324143  39.726  23.514   9.602
 1552POPC   PO424144  39.225  23.851   9.637
 1552POPC   GL124145  39.269  23.659   9.197
 1552POPC   GL224146  39.546  23.413   9.125
 1552POPC   C1A24147  39.355  23.829   8.762
 1552POPC   D2A24148  39.187  24.105   8.411
 1552POPC   C3A24149  38.975  23.894   8.045
 1552POPC   C4A24150  39.073  23.733   7.597
 1552POPC   C1B24151  39.249  23.321   8.776
 1552POPC   C2B24152  39.114  23.442   8.319
 1552POPC   C3B24153  39.383  23.582   7.974
 1552POPC   C4B24154  39.586  23.647   7.579
 1553POPC   NC324155   8.534  31.197   9.631
 1553POPC   PO424156   8.199  31.730   9.489
 1553POPC   GL124157   8.192  31.669   9.076
 1553POPC   GL224158   8.429  31.391   9.118
 1553POPC   C1A24159   8.146  31.485   8.680
 1553POPC   D2A24160   8.062  31.277   8.292
 1553POPC   C3A24161   8.077  31.525   7.949
 1553POPC   C4A24162   8.174  31.390   7.546
 1553POPC   C1B24163   8.639  31.338   8.708
 1553POPC   C2B24164   8.542  31.463   8.285
 1553POPC   C3B24165   8.584  31.370   7.856
 1553POPC   C4B24166   8.662  31.163   7.445
 1554POPC   NC324167   0.556   7.119   9.514
 1554POPC   PO424168   0.836   7.791   9.391
 1554POPC   GL124169   0.484   7.541   9.131
 1554POPC   GL224170   0.243   7.203   9.125
 1554POPC   C1A24171   0.422   7.394   8.693
 1554POPC   D2A24172   0.171   7.357   8.333
 1554POPC   C3A24173   0.495   7.368   8.034
 1554POPC   C4A24174   0.369   7.412   7.631
 1554POPC   C1B24175  44.994   7.047   8.744
 1554POPC   C2B24176  44.997   6.880   8.299
 1554POPC   C3B24177   0.129   7.049   7.890
 1554POPC   C4B24178  44.906   7.025   7.491
 1555POPC   NC324179   9.440  37.898   9.465
 1555POPC   PO424180   9.744  37.272   9.548
 1555POPC   GL124181   9.764  37.550   9.174
 1555POPC   GL224182   9.421  37.602   9.061
 1555POPC   C1A24183   9.777  37.494   8.714
 1555POPC   D2A24184   9.802  37.777   8.354
 1555POPC   C3A24185   9.852  37.550   7.970
 1555POPC   C4A24186  10.080  37.602   7.573
 1555POPC   C1B24187   9.516  37.938   8.778
 1555POPC   C2B24188   9.403  38.111   8.379
 1555POPC   C3B24189   9.534  38.029   7.946
 1555POPC   C4B24190   9.581  37.749   7.589
 1556POPC   NC324191   2.479  40.788   9.533
 1556POPC   PO424192   3.060  40.600   9.521
 1556POPC   GL124193   2.814  40.736   9.152
 1556POPC   GL224194   2.563  41.037   9.104
 1556POPC   C1A24195   2.788  40.778   8.730
 1556POPC   D2A24196   2.804  40.543   8.417
 1556POPC   C3A24197   2.528  40.609   8.149
 1556POPC   C4A24198   2.694  40.718   7.767
 1556POPC   C1B24199   2.599  41.264   8.708
 1556POPC   C2B24200   2.718  41.077   8.299
 1556POPC   C3B24201   2.813  41.203   7.885
 1556POPC   C4B24202   2.597  41.404   7.553
 1557POPC   NC324203  44.991  16.916   9.446
 1557POPC   PO424204  44.411  16.624   9.433
 1557POPC   GL124205  44.653  16.724   9.117
 1557POPC   GL224206  44.571  17.068   9.139
 1557POPC   C1A24207  44.749  16.524   8.725
 1557POPC   D2A24208  44.476  16.445   8.380
 1557POPC   C3A24209  44.714  16.479   8.018
 1557POPC   C4A24210  44.978  16.799   7.894
 1557POPC   C1B24211  44.525  16.971   8.700
 1557POPC   C2B24212  44.689  16.928   8.300
 1557POPC   C3B24213  44.504  17.005   7.909
 1557POPC   C4B24214  44.146  16.993   7.677
 1558POPC   NC324215  35.408   8.808   9.659
 1558POPC   PO424216  35.424   8.169   9.758
 1558POPC   GL124217  35.415   8.294   9.282
 1558POPC   GL224218  35.474   8.642   9.160
 1558POPC   C1A24219  35.325   8.093   8.882
 1558POPC   D2A24220  35.452   7.937   8.487
 1558POPC   C3A24221  35.310   8.187   8.138
 1558POPC   C4A24222  35.168   8.096   7.732
 1558POPC   C1B24223  35.557   8.514   8.741
 1558POPC   C2B24224  35.809   8.486   8.376
 1558POPC   C3B24225  35.690   8.644   7.997
 1558POPC   C4B24226  35.317   8.590   7.749
 1559POPC   NC324227  43.917  44.140   9.820
 1559POPC   PO424228  43.624  43.658   9.483
 1559POPC   GL124229  43.891  43.861   9.223
 1559POPC   GL224230  43.931  43.562   9.068
 1559POPC   C1A24231  44.031  44.002   8.807
 1559POPC   D2A24232  43.799  44.190   8.460
 1559POPC   C3A24233  43.953  44.130   8.047
 1559POPC   C4A24234  44.083  43.837   7.750
 1559POPC   C1B24235  43.934  43.527   8.639
 1559POPC   C2B24236  43.901  43.689   8.273
 1559POPC   C3B24237  43.673  43.611   7.916
 1559POPC   C4B24238  43.853  43.414   7.535
 1560POPC   NC324239  40.994  13.079   9.430
 1560POPC   PO424240  41.510  12.846   9.603
 1560POPC   GL124241  41.310  12.764   9.188
 1560POPC   GL224242  41.305  12.433   9.098
 1560POPC   C1A24243  41.113  12.791   8.759
 1560POPC   D2A24244  41.221  12.513   8.378
 1560POPC   C3A24245  41.351  12.736   7.982
 1560POPC   C4A24246  41.534  13.038   7.671
 1560POPC   C1B24247  41.586  12.613   8.742
 1560POPC   C2B24248  41.737  12.534   8.306
 1560POPC   C3B24249  41.817  12.552   7.862
 1560POPC   C4B24250  41.978  12.761   7.497
 1561POPC   NC324251  41.713  22.479   9.524
 1561POPC   PO424252  41.202  22.117   9.465
 1561POPC   GL124253  41.498  22.212   9.144
 1561POPC   GL224254  41.373  22.565   9.143
 1561POPC   C1A24255  41.626  21.969   8.779
 1561POPC   D2A24256  41.374  21.777   8.444
 1561POPC   C3A24257  41.493  21.963   8.027
 1561POPC   C4A24258  41.573  21.954   7.586
 1561POPC   C1B24259  41.496  22.514   8.732
 1561POPC   C2B24260  41.573  22.307   8.391
 1561POPC   C3B24261  41.556  22.491   8.020
 1561POPC   C4B24262  41.462  22.445   7.629
 1562POPC   NC324263  40.790  28.899   9.809
 1562POPC   PO424264  40.968  29.517   9.424
 1562POPC   GL124265  40.632  29.389   9.108
 1562POPC   GL224266  40.642  29.029   9.059
 1562POPC   C1A24267  40.658  29.329   8.649
 1562POPC   D2A24268  41.002  29.120   8.470
 1562POPC   C3A24269  41.112  29.243   8.076
 1562POPC   C4A24270  40.832  29.097   7.792
 1562POPC   C1B24271  40.611  28.812   8.638
 1562POPC   C2B24272  40.697  28.784   8.189
 1562POPC   C3B24273  40.412  28.801   7.820
 1562POPC   C4B24274  40.206  28.978   7.411
 1563POPC   NC324275  10.957  12.419   9.582
 1563POPC   PO424276  10.352  12.082   9.805
 1563POPC   GL124277  10.573  12.062   9.323
 1563POPC   GL224278  10.516  11.749   9.147
 1563POPC   C1A24279  10.529  12.100   8.813
 1563POPC   D2A24280  10.739  12.213   8.415
 1563POPC   C3A24281  10.718  12.057   7.982
 1563POPC   C4A24282  10.527  11.961   7.540
 1563POPC   C1B24283  10.397  11.611   8.763
 1563POPC   C2B24284  10.472  11.738   8.380
 1563POPC   C3B24285  10.128  11.672   8.132
 1563POPC   C4B24286  10.070  11.525   7.744
 1564POPC   NC324287   2.196  16.035   9.572
 1564POPC   PO424288   1.618  16.343   9.417
 1564POPC   GL124289   1.958  16.056   9.143
 1564POPC   GL224290   2.339  16.202   9.116
 1564POPC   C1A24291   2.053  15.801   8.767
 1564POPC   D2A24292   1.800  15.742   8.408
 1564POPC   C3A24293   1.848  15.898   8.004
 1564POPC   C4A24294   1.875  15.826   7.551
 1564POPC   C1B24295   2.529  16.145   8.693
 1564POPC   C2B24296   2.304  15.984   8.300
 1564POPC   C3B24297   2.312  15.779   7.860
 1564POPC   C4B24298   2.367  16.010   7.445
 1565POPC   NC324299  33.336   1.198   9.811
 1565POPC   PO424300  32.871   0.688   9.597
 1565POPC   GL124301  32.772   0.974   9.209
 1565POPC   GL224302  32.642   1.294   9.386
 1565POPC   C1A24303  32.944   1.064   8.728
 1565POPC   D2A24304  33.219   1.317   8.370
 1565POPC   C3A24305  33.221   1.215   7.875
 1565POPC   C4A24306  33.346   1.238   7.404
 1565POPC   C1B24307  32.600   1.374   8.930
 1565POPC   C2B24308  32.741   1.487   8.504
 1565POPC   C3B24309  32.877   1.557   8.070
 1565POPC   C4B24310  32.596   1.309   7.827
 1566POPC   NC324311  38.352  20.868   9.575
 1566POPC   PO424312  38.701  20.246   9.266
 1566POPC   GL124313  38.368  20.572   9.161
 1566POPC   GL224314  38.493  20.945   9.088
 1566POPC   C1A24315  38.126  20.769   8.781
 1566POPC   D2A24316  38.086  20.972   8.356
 1566POPC   C3A24317  38.134  20.724   8.038
 1566POPC   C4A24318  38.323  20.505   7.733
 1566POPC   C1B24319  38.626  20.661   8.752
 1566POPC   C2B24320  38.549  20.703   8.354
 1566POPC   C3B24321  38.624  20.918   8.023
 1566POPC   C4B24322  38.725  20.826   7.639
 1567POPC   NC324323  21.177  24.388   9.309
 1567POPC   PO424324  21.705  24.496   9.745
 1567POPC   GL124325  21.586  24.640   9.213
 1567POPC   GL224326  21.754  24.909   9.128
 1567POPC   C1A24327  21.370  24.579   8.747
 1567POPC   D2A24328  21.143  24.227   8.498
 1567POPC   C3A24329  21.122  24.270   8.025
 1567POPC   C4A24330  21.068  24.625   7.710
 1567POPC   C1B24331  21.503  25.072   8.795
 1567POPC   C2B24332  21.338  24.948   8.393
 1567POPC   C3B24333  21.468  24.771   7.994
 1567POPC   C4B24334  21.390  25.016   7.592
 1568POPC   NC324335  14.541  16.399   9.567
 1568POPC   PO424336  14.479  17.045   9.614
 1568POPC   GL124337  14.336  16.864   9.216
 1568POPC   GL224338  14.623  16.700   9.068
 1568POPC   C1A24339  14.265  16.886   8.749
 1568POPC   D2A24340  14.078  16.695   8.336
 1568POPC   C3A24341  14.273  16.849   7.936
 1568POPC   C4A24342  14.350  16.763   7.469
 1568POPC   C1B24343  14.796  16.472   8.708
 1568POPC   C2B24344  14.611  16.514   8.269
 1568POPC   C3B24345  14.694  16.567   7.814
 1568POPC   C4B24346  14.860  16.497   7.392
 1569POPC   NC324347  20.592  29.427   9.264
 1569POPC   PO424348  20.716  30.096   9.523
 1569POPC   GL124349  20.544  29.943   9.139
 1569POPC   GL224350  20.289  30.204   9.066
 1569POPC   C1A24351  20.748  29.790   8.731
 1569POPC   D2A24352  20.932  30.034   8.389
 1569POPC   C3A24353  20.956  29.856   7.992
 1569POPC   C4A24354  20.771  29.870   7.590
 1569POPC   C1B24355  20.243  29.875   8.721
 1569POPC   C2B24356  20.436  29.827   8.306
 1569POPC   C3B24357  20.490  30.092   7.948
 1569POPC   C4B24358  20.269  29.924   7.584
 1570POPC   NC324359  15.562  30.561   9.639
 1570POPC   PO424360  14.918  30.707   9.518
 1570POPC   GL124361  15.246  30.729   9.175
 1570POPC   GL224362  15.467  30.486   9.147
 1570POPC   C1A24363  15.329  30.819   8.737
 1570POPC   D2A24364  15.047  30.831   8.381
 1570POPC   C3A24365  15.229  30.766   7.969
 1570POPC   C4A24366  15.224  30.666   7.552
 1570POPC   C1B24367  15.326  30.319   8.730
 1570POPC   C2B24368  15.398  30.432   8.293
 1570POPC   C3B24369  15.208  30.254   7.868
 1570POPC   C4B24370  15.312  30.138   7.404
 1571POPC   NC324371   9.563  20.000   9.566
 1571POPC   PO424372   9.934  19.499   9.437
 1571POPC   GL124373   9.706  19.762   9.152
 1571POPC   GL224374   9.346  19.651   9.222
 1571POPC   C1A24375   9.741  20.098   8.832
 1571POPC   D2A24376   9.756  20.277   8.416
 1571POPC   C3A24377   9.814  20.050   8.033
 1571POPC   C4A24378   9.918  20.139   7.586
 1571POPC   C1B24379   9.339  19.779   8.795
 1571POPC   C2B24380   9.412  19.896   8.396
 1571POPC   C3B24381   9.299  19.717   8.026
 1571POPC   C4B24382   9.523  19.829   7.673
 1572POPC   NC324383  25.289   9.237   9.658
 1572POPC   PO424384  25.536   9.925   9.669
 1572POPC   GL124385  25.371   9.847   9.263
 1572POPC   GL224386  25.537   9.551   9.302
 1572POPC   C1A24387  25.248   9.800   8.807
 1572POPC   D2A24388  25.273  10.001   8.385
 1572POPC   C3A24389  25.264   9.738   8.015
 1572POPC   C4A24390  24.916   9.457   7.905
 1572POPC   C1B24391  25.712   9.588   8.889
 1572POPC   C2B24392  25.621   9.622   8.441
 1572POPC   C3B24393  25.795   9.487   8.078
 1572POPC   C4B24394  25.676   9.641   7.679
 1573POPC   NC324395   6.930   7.577   9.988
 1573POPC   PO424396   7.318   7.235   9.618
 1573POPC   GL124397   7.465   7.328   9.233
 1573POPC   GL224398   7.236   7.585   9.165
 1573POPC   C1A24399   7.555   7.384   8.806
 1573POPC   D2A24400   7.495   7.482   8.405
 1573POPC   C3A24401   7.497   7.204   8.103
 1573POPC   C4A24402   7.474   7.320   7.695
 1573POPC   C1B24403   7.085   7.579   8.746
 1573POPC   C2B24404   7.038   7.729   8.363
 1573POPC   C3B24405   7.210   7.665   7.968
 1573POPC   C4B24406   6.954   7.759   7.599
 1574POPC   NC324407   4.742   9.359   9.439
 1574POPC   PO424408   4.342   8.829   9.461
 1574POPC   GL124409   4.561   8.940   9.123
 1574POPC   GL224410   4.526   8.596   9.027
 1574POPC   C1A24411   4.385   8.978   8.711
 1574POPC   D2A24412   4.168   8.757   8.389
 1574POPC   C3A24413   4.140   9.042   8.053
 1574POPC   C4A24414   4.476   9.124   7.744
 1574POPC   C1B24415   4.622   8.355   8.690
 1574POPC   C2B24416   4.672   8.515   8.281
 1574POPC   C3B24417   4.425   8.645   7.949
 1574POPC   C4B24418   4.134   8.779   7.612
 1575POPC   NC324419   9.295  12.500   9.482
 1575POPC   PO424420   9.805  13.040   9.504
 1575POPC   GL124421   9.547  12.885   9.205
 1575POPC   GL224422   9.749  12.595   9.213
 1575POPC   C1A24423   9.526  12.786   8.776
 1575POPC   D2A24424   9.722  12.982   8.443
 1575POPC   C3A24425   9.563  12.858   8.062
 1575POPC   C4A24426   9.778  12.967   7.712
 1575POPC   C1B24427   9.999  12.607   8.835
 1575POPC   C2B24428   9.890  12.507   8.425
 1575POPC   C3B24429   9.984  12.548   8.022
 1575POPC   C4B24430   9.687  12.445   7.771
 1576POPC   NC324431   0.109  37.373   9.625
 1576POPC   PO424432   0.699  37.745   9.456
 1576POPC   GL124433   0.464  37.509   9.223
 1576POPC   GL224434   0.284  37.740   9.049
 1576POPC   C1A24435   0.606  37.435   8.792
 1576POPC   D2A24436   0.586  37.718   8.416
 1576POPC   C3A24437   0.467  37.434   8.094
 1576POPC   C4A24438   0.314  37.493   7.672
 1576POPC   C1B24439   0.116  38.018   8.772
 1576POPC   C2B24440   0.053  37.815   8.416
 1576POPC   C3B24441   0.218  37.884   8.023
 1576POPC   C4B24442   0.351  38.013   7.621
 1577POPC   NC324443  17.702  31.386   9.952
 1577POPC   PO424444  17.466  30.830   9.717
 1577POPC   GL124445  17.626  30.740   9.282
 1577POPC   GL224446  17.325  30.856   9.136
 1577POPC   C1A24447  17.716  30.825   8.815
 1577POPC   D2A24448  17.564  30.592   8.435
 1577POPC   C3A24449  17.722  30.659   8.025
 1577POPC   C4A24450  17.553  30.733   7.627
 1577POPC   C1B24451  17.186  30.683   8.760
 1577POPC   C2B24452  17.114  30.873   8.346
 1577POPC   C3B24453  17.198  30.637   7.990
 1577POPC   C4B24454  17.060  30.609   7.552
 1578POPC   NC324455  26.165  34.317   9.965
 1578POPC   PO424456  26.078  33.799   9.646
 1578POPC   GL124457  26.127  33.537   9.197
 1578POPC   GL224458  25.807  33.466   9.033
 1578POPC   C1A24459  26.289  33.631   8.730
 1578POPC   D2A24460  26.365  33.955   8.373
 1578POPC   C3A24461  26.262  33.805   7.965
 1578POPC   C4A24462  26.295  33.402   7.823
 1578POPC   C1B24463  25.807  33.455   8.614
 1578POPC   C2B24464  25.999  33.387   8.243
 1578POPC   C3B24465  25.795  33.550   7.884
 1578POPC   C4B24466  25.583  33.823   7.569
 1579POPC   NC324467   1.081  42.600   9.894
 1579POPC   PO424468   0.991  43.211   9.543
 1579POPC   GL124469   1.041  43.119   9.166
 1579POPC   GL224470   1.249  42.848   9.249
 1579POPC   C1A24471   1.361  43.196   8.874
 1579POPC   D2A24472   1.280  43.366   8.510
 1579POPC   C3A24473   1.419  43.162   8.147
 1579POPC   C4A24474   1.279  43.409   7.822
 1579POPC   C1B24475   1.146  42.727   8.856
 1579POPC   C2B24476   1.102  42.856   8.497
 1579POPC   C3B24477   1.065  42.789   8.078
 1579POPC   C4B24478   1.248  42.900   7.700
 1580POPC   NC324479  31.124   9.097   9.620
 1580POPC   PO424480  30.630   8.732   9.433
 1580POPC   GL124481  30.605   8.925   9.081
 1580POPC   GL224482  30.752   9.224   9.254
 1580POPC   C1A24483  30.695   8.823   8.649
 1580POPC   D2A24484  30.954   8.738   8.307
 1580POPC   C3A24485  30.732   8.778   7.995
 1580POPC   C4A24486  30.598   8.829   7.613
 1580POPC   C1B24487  30.828   9.289   8.808
 1580POPC   C2B24488  30.902   9.231   8.387
 1580POPC   C3B24489  30.814   9.270   7.953
 1580POPC   C4B24490  30.625   9.337   7.519
 1581POPC   NC324491  36.249  39.135   9.447
 1581POPC   PO424492  36.107  39.807   9.587
 1581POPC   GL124493  35.956  39.542   9.229
 1581POPC   GL224494  36.288  39.528   9.149
 1581POPC   C1A24495  35.961  39.239   8.838
 1581POPC   D2A24496  35.959  39.283   8.356
 1581POPC   C3A24497  35.869  39.006   7.990
 1581POPC   C4A24498  35.865  38.919   7.498
 1581POPC   C1B24499  36.437  39.427   8.791
 1581POPC   C2B24500  36.487  39.697   8.478
 1581POPC   C3B24501  36.259  39.658   8.133
 1581POPC   C4B24502  36.253  39.307   7.854
 1582POPC   NC324503  12.520  38.758   9.510
 1582POPC   PO424504  12.938  39.248   9.734
 1582POPC   GL124505  12.857  39.308   9.268
 1582POPC   GL224506  12.656  39.613   9.219
 1582POPC   C1A24507  12.992  39.219   8.815
 1582POPC   D2A24508  12.714  39.246   8.431
 1582POPC   C3A24509  12.759  39.063   8.044
 1582POPC   C4A24510  13.124  39.155   7.853
 1582POPC   C1B24511  12.657  39.635   8.761
 1582POPC   C2B24512  12.486  39.704   8.316
 1582POPC   C3B24513  12.528  39.531   7.905
 1582POPC   C4B24514  12.829  39.449   7.563
 1583POPC   NC324515  10.730  30.862   9.468
 1583POPC   PO424516  11.428  30.835   9.641
 1583POPC   GL124517  11.469  30.748   9.215
 1583POPC   GL224518  11.135  30.658   9.158
 1583POPC   C1A24519  11.680  30.834   8.817
 1583POPC   D2A24520  11.667  30.716   8.380
 1583POPC   C3A24521  11.483  30.952   8.015
 1583POPC   C4A24522  11.152  30.809   7.745
 1583POPC   C1B24523  11.214  30.663   8.694
 1583POPC   C2B24524  11.130  30.650   8.252
 1583POPC   C3B24525  10.951  30.373   7.926
 1583POPC   C4B24526  10.834  30.500   7.469
 1584POPC   NC324527  31.106   1.712   9.549
 1584POPC   PO424528  31.737   2.112   9.475
 1584POPC   GL124529  31.502   2.148   9.088
 1584POPC   GL224530  31.415   1.803   9.045
 1584POPC   C1A24531  31.516   2.124   8.639
 1584POPC   D2A24532  31.469   1.949   8.238
 1584POPC   C3A24533  31.327   2.202   7.924
 1584POPC   C4A24534  31.725   2.374   7.848
 1584POPC   C1B24535  31.313   1.605   8.640
 1584POPC   C2B24536  31.137   1.587   8.220
 1584POPC   C3B24537  31.265   1.698   7.807
 1584POPC   C4B24538  31.240   1.686   7.353
 1585POPC   NC324539  40.827  35.966   9.564
 1585POPC   PO424540  40.869  36.660   9.493
 1585POPC   GL124541  40.838  36.363   9.172
 1585POPC   GL224542  40.520  36.194   9.192
 1585POPC   C1A24543  40.810  36.218   8.749
 1585POPC   D2A24544  41.066  36.092   8.401
 1585POPC   C3A24545  40.893  36.296   8.074
 1585POPC   C4A24546  40.878  36.227   7.686
 1585POPC   C1B24547  40.577  35.812   8.955
 1585POPC   C2B24548  40.493  35.818   8.522
 1585POPC   C3B24549  40.662  35.852   8.112
 1585POPC   C4B24550  40.509  35.705   7.733
 1586POPC   NC324551  39.424  14.671   9.304
 1586POPC   PO424552  39.080  14.172   9.604
 1586POPC   GL124553  39.229  14.180   9.180
 1586POPC   GL224554  38.984  14.458   9.111
 1586POPC   C1A24555  39.342  14.308   8.747
 1586POPC   D2A24556  39.139  14.257   8.339
 1586POPC   C3A24557  39.364  14.301   7.909
 1586POPC   C4A24558  39.182  14.154   7.490
 1586POPC   C1B24559  38.978  14.668   8.702
 1586POPC   C2B24560  38.748  14.585   8.328
 1586POPC   C3B24561  38.875  14.433   7.940
 1586POPC   C4B24562  39.135  14.650   7.622
 1587POPC   NC324563  36.571  29.049   9.334
 1587POPC   PO424564  37.179  29.065   9.398
 1587POPC   GL124565  37.051  29.119   9.013
 1587POPC   GL224566  36.856  29.400   9.064
 1587POPC   C1A24567  36.759  29.142   8.661
 1587POPC   D2A24568  36.661  29.308   8.279
 1587POPC   C3A24569  36.870  29.146   7.945
 1587POPC   C4A24570  36.648  29.247   7.591
 1587POPC   C1B24571  37.162  29.525   8.732
 1587POPC   C2B24572  37.187  29.354   8.331
 1587POPC   C3B24573  37.317  29.457   7.947
 1587POPC   C4B24574  37.125  29.473   7.583
 1588POPC   NC324575  18.084  43.063   9.446
 1588POPC   PO424576  18.592  43.165   9.815
 1588POPC   GL124577  18.543  43.202   9.275
 1588POPC   GL224578  18.245  43.437   9.137
 1588POPC   C1A24579  18.431  43.045   8.841
 1588POPC   D2A24580  18.376  43.183   8.426
 1588POPC   C3A24581  18.480  43.017   8.026
 1588POPC   C4A24582  18.435  42.816   7.631
 1588POPC   C1B24583  17.978  43.298   8.786
 1588POPC   C2B24584  17.939  43.424   8.341
 1588POPC   C3B24585  18.108  43.341   7.937
 1588POPC   C4B24586  18.026  43.091   7.562
 1589POPC   NC324587   1.502  15.883   9.472
 1589POPC   PO424588   0.911  15.771   9.483
 1589POPC   GL124589   1.103  16.027   9.107
 1589POPC   GL224590   1.459  16.103   9.007
 1589POPC   C1A24591   1.132  16.028   8.632
 1589POPC   D2A24592   1.116  16.289   8.277
 1589POPC   C3A24593   0.996  16.095   7.904
 1589POPC   C4A24594   0.797  15.840   7.565
 1589POPC   C1B24595   1.509  15.712   8.839
 1589POPC   C2B24596   1.342  15.543   8.466
 1589POPC   C3B24597   1.354  15.801   8.100
 1589POPC   C4B24598   1.358  15.861   7.622
 1590POPC   NC324599  22.026  28.624   9.579
 1590POPC   PO424600  22.637  28.369   9.562
 1590POPC   GL124601  22.323  28.331   9.255
 1590POPC   GL224602  22.381  27.990   9.222
 1590POPC   C1A24603  22.170  28.567   8.875
 1590POPC   D2A24604  22.257  28.430   8.461
 1590POPC   C3A24605  22.171  28.615   8.072
 1590POPC   C4A24606  21.948  28.516   7.695
 1590POPC   C1B24607  22.164  28.030   8.835
 1590POPC   C2B24608  22.273  27.909   8.436
 1590POPC   C3B24609  22.273  28.077   8.063
 1590POPC   C4B24610  22.102  28.044   7.689
 1591POPC   NC324611  41.390  42.112   9.449
 1591POPC   PO424612  41.963  42.453   9.428
 1591POPC   GL124613  41.733  42.368   9.091
 1591POPC   GL224614  41.757  42.050   9.103
 1591POPC   C1A24615  41.729  42.536   8.681
 1591POPC   D2A24616  41.468  42.453   8.355
 1591POPC   C3A24617  41.638  42.563   7.945
 1591POPC   C4A24618  41.307  42.497   7.680
 1591POPC   C1B24619  41.598  42.028   8.727
 1591POPC   C2B24620  41.816  42.082   8.372
 1591POPC   C3B24621  41.574  42.062   8.025
 1591POPC   C4B24622  41.639  42.079   7.659
 1592POPC   NC324623  30.822  10.763   9.585
 1592POPC   PO424624  30.289  10.209   9.546
 1592POPC   GL124625  30.618  10.240   9.227
 1592POPC   GL224626  30.767  10.549   9.140
 1592POPC   C1A24627  30.525  10.111   8.829
 1592POPC   D2A24628  30.409  10.085   8.434
 1592POPC   C3A24629  30.636  10.136   8.068
 1592POPC   C4A24630  30.592  10.215   7.639
 1592POPC   C1B24631  30.983  10.328   8.818
 1592POPC   C2B24632  30.871  10.430   8.408
 1592POPC   C3B24633  30.874  10.603   7.964
 1592POPC   C4B24634  30.803  10.661   7.494
 1593POPC   NC324635   6.021  36.477   9.317
 1593POPC   PO424636   5.648  35.929   9.438
 1593POPC   GL124637   5.827  36.068   9.078
 1593POPC   GL224638   6.190  35.980   9.113
 1593POPC   C1A24639   5.850  36.272   8.679
 1593POPC   D2A24640   5.566  36.472   8.389
 1593POPC   C3A24641   5.760  36.448   7.972
 1593POPC   C4A24642   6.114  36.500   7.673
 1593POPC   C1B24643   6.043  35.756   8.740
 1593POPC   C2B24644   6.065  35.895   8.322
 1593POPC   C3B24645   5.877  35.944   7.902
 1593POPC   C4B24646   5.464  35.898   7.706
 1594POPC   NC324647  39.152  16.991   9.588
 1594POPC   PO424648  39.646  16.503   9.500
 1594POPC   GL124649  39.275  16.651   9.172
 1594POPC   GL224650  39.198  17.005   9.100
 1594POPC   C1A24651  39.237  16.696   8.720
 1594POPC   D2A24652  39.272  16.972   8.380
 1594POPC   C3A24653  39.239  16.655   8.092
 1594POPC   C4A24654  39.198  16.601   7.690
 1594POPC   C1B24655  38.879  17.061   8.778
 1594POPC   C2B24656  38.776  17.146   8.353
 1594POPC   C3B24657  38.960  17.051   7.933
 1594POPC   C4B24658  39.132  17.039   7.470
 1595POPC   NC324659  27.743  24.894   9.383
 1595POPC   PO424660  27.453  25.498   9.438
 1595POPC   GL124661  27.441  25.225   9.106
 1595POPC   GL224662  27.144  25.161   9.118
 1595POPC   C1A24663  27.582  25.084   8.709
 1595POPC   D2A24664  27.918  25.170   8.434
 1595POPC   C3A24665  27.822  25.217   8.017
 1595POPC   C4A24666  27.983  25.203   7.616
 1595POPC   C1B24667  27.092  25.267   8.670
 1595POPC   C2B24668  27.242  25.050   8.304
 1595POPC   C3B24669  27.351  25.126   7.869
 1595POPC   C4B24670  27.512  25.375   7.511
 1596POPC   NC324671  36.685  21.032   9.398
 1596POPC   PO424672  36.973  21.702   9.461
 1596POPC   GL124673  37.145  21.682   9.097
 1596POPC   GL224674  37.161  21.301   9.083
 1596POPC   C1A24675  36.878  21.612   8.745
 1596POPC   D2A24676  36.567  21.711   8.452
 1596POPC   C3A24677  36.788  21.613   8.110
 1596POPC   C4A24678  36.656  21.706   7.718
 1596POPC   C1B24679  36.955  21.071   8.790
 1596POPC   C2B24680  36.625  21.140   8.496
 1596POPC   C3B24681  36.624  20.950   8.100
 1596POPC   C4B24682  36.746  21.205   7.798
 1597POPC   NC324683   5.696  39.905   9.440
 1597POPC   PO424684   6.330  40.064   9.431
 1597POPC   GL124685   6.092  40.232   9.053
 1597POPC   GL224686   5.722  40.268   9.075
 1597POPC   C1A24687   5.894  40.275   8.614
 1597POPC   D2A24688   5.782  40.035   8.262
 1597POPC   C3A24689   5.993  40.174   7.880
 1597POPC   C4A24690   6.153  39.898   7.565
 1597POPC   C1B24691   5.568  39.889   8.801
 1597POPC   C2B24692   5.402  39.658   8.450
 1597POPC   C3B24693   5.406  39.799   8.019
 1597POPC   C4B24694   5.493  40.239   7.863
 1598POPC   NC324695  13.904   0.546   9.471
 1598POPC   PO424696  13.246   0.602   9.553
 1598POPC   GL124697  13.429   0.504   9.129
 1598POPC   GL224698  13.714   0.262   9.098
 1598POPC   C1A24699  13.425   0.295   8.696
 1598POPC   D2A24700  13.472   0.044   8.330
 1598POPC   C3A24701  13.542   0.274   7.963
 1598POPC   C4A24702  13.374   0.667   7.839
 1598POPC   C1B24703  13.821   0.592   8.782
 1598POPC   C2B24704  13.611   0.682   8.382
 1598POPC   C3B24705  13.837   0.725   8.012
 1598POPC   C4B24706  13.820   0.543   7.594
 1599POPC   NC324707  36.899  11.847   9.421
 1599POPC   PO424708  36.712  12.481   9.669
 1599POPC   GL124709  36.692  12.441   9.170
 1599POPC   GL224710  36.962  12.234   9.097
 1599POPC   C1A24711  36.621  12.202   8.726
 1599POPC   D2A24712  36.878  12.100   8.327
 1599POPC   C3A24713  36.716  11.790   8.003
 1599POPC   C4A24714  36.733  11.795   7.528
 1599POPC   C1B24715  37.151  11.972   8.774
 1599POPC   C2B24716  37.468  11.933   8.449
 1599POPC   C3B24717  37.313  11.878   8.038
 1599POPC   C4B24718  37.058  12.116   7.792
 1600POPC   NC324719  19.708  15.614   9.485
 1600POPC   PO424720  20.129  14.968   9.503
 1600POPC   GL124721  19.950  15.261   9.178
 1600POPC   GL224722  19.603  15.135   9.225
 1600POPC   C1A24723  19.997  15.359   8.711
 1600POPC   D2A24724  20.261  15.200   8.385
 1600POPC   C3A24725  20.117  15.170   7.955
 1600POPC   C4A24726  19.920  15.223   7.548
 1600POPC   C1B24727  19.466  15.402   8.873
 1600POPC   C2B24728  19.540  15.555   8.462
 1600POPC   C3B24729  19.561  15.403   8.052
 1600POPC   C4B24730  19.592  15.616   7.695
 1601POPC   NC324731  10.160  32.847   9.489
 1601POPC   PO424732  10.734  33.110   9.614
 1601POPC   GL124733  10.536  33.040   9.217
 1601POPC   GL224734  10.489  32.665   9.139
 1601POPC   C1A24735  10.506  33.260   8.830
 1601POPC   D2A24736  10.697  33.079   8.467
 1601POPC   C3A24737  10.519  32.977   8.081
 1601POPC   C4A24738  10.722  33.091   7.726
 1601POPC   C1B24739  10.310  32.791   8.749
 1601POPC   C2B24740  10.096  32.895   8.378
 1601POPC   C3B24741  10.061  32.679   8.005
 1601POPC   C4B24742  10.329  32.745   7.649
 1602POPC   NC324743  43.199   2.583   9.674
 1602POPC   PO424744  43.652   3.068   9.573
 1602POPC   GL124745  43.281   2.880   9.252
 1602POPC   GL224746  43.239   2.512   9.175
 1602POPC   C1A24747  43.123   3.127   8.842
 1602POPC   D2A24748  43.212   3.247   8.399
 1602POPC   C3A24749  43.311   2.829   8.205
 1602POPC   C4A24750  43.310   2.737   7.769
 1602POPC   C1B24751  42.982   2.614   8.811
 1602POPC   C2B24752  42.872   2.541   8.372
 1602POPC   C3B24753  42.819   2.718   7.967
 1602POPC   C4B24754  42.886   2.524   7.558
 1603POPC   NC324755  40.438   7.598   9.548
 1603POPC   PO424756  40.900   7.216   9.825
 1603POPC   GL124757  40.809   7.334   9.277
 1603POPC   GL224758  40.652   7.609   9.101
 1603POPC   C1A24759  41.055   7.446   8.868
 1603POPC   D2A24760  41.010   7.742   8.491
 1603POPC   C3A24761  40.964   7.510   8.100
 1603POPC   C4A24762  41.130   7.189   7.844
 1603POPC   C1B24763  40.581   7.251   8.809
 1603POPC   C2B24764  40.584   7.042   8.388
 1603POPC   C3B24765  40.573   7.171   7.940
 1603POPC   C4B24766  40.727   7.040   7.510
 1604POPC   NC324767  32.682  12.879   9.531
 1604POPC   PO424768  32.078  12.629   9.543
 1604POPC   GL124769  32.227  12.829   9.183
 1604POPC   GL224770  32.345  13.160   9.154
 1604POPC   C1A24771  32.137  12.870   8.763
 1604POPC   D2A24772  32.225  12.652   8.415
 1604POPC   C3A24773  32.143  12.840   8.011
 1604POPC   C4A24774  32.410  12.598   7.728
 1604POPC   C1B24775  32.558  13.159   8.766
 1604POPC   C2B24776  32.389  13.145   8.367
 1604POPC   C3B24777  32.472  13.236   7.934
 1604POPC   C4B24778  32.292  13.364   7.541
 1605POPC   NC324779  38.486   3.733   9.453
 1605POPC   PO424780  38.502   3.191   9.332
 1605POPC   GL124781  38.468   3.500   8.993
 1605POPC   GL224782  38.240   3.792   8.997
 1605POPC   C1A24783  38.590   3.675   8.603
 1605POPC   D2A24784  38.448   3.888   8.244
 1605POPC   C3A24785  38.589   3.661   7.877
 1605POPC   C4A24786  38.580   3.712   7.433
 1605POPC   C1B24787  38.096   3.552   8.622
 1605POPC   C2B24788  38.219   3.436   8.197
 1605POPC   C3B24789  38.096   3.563   7.758
 1605POPC   C4B24790  37.895   3.428   7.357
 1606POPC   NC324791  37.773  13.965   9.408
 1606POPC   PO424792  37.245  13.550   9.553
 1606POPC   GL124793  37.512  13.539   9.190
 1606POPC   GL224794  37.689  13.208   9.187
 1606POPC   C1A24795  37.580  13.790   8.809
 1606POPC   D2A24796  37.747  13.697   8.423
 1606POPC   C3A24797  37.457  13.660   8.084
 1606POPC   C4A24798  37.464  13.819   7.686
 1606POPC   C1B24799  37.820  13.332   8.803
 1606POPC   C2B24800  37.938  13.185   8.438
 1606POPC   C3B24801  37.886  13.361   8.080
 1606POPC   C4B24802  37.638  13.290   7.770
 1607POPC   NC324803   1.624   5.150   9.709
 1607POPC   PO424804   0.989   4.910   9.483
 1607POPC   GL124805   1.233   5.157   9.203
 1607POPC   GL224806   1.355   5.440   8.971
 1607POPC   C1A24807   1.234   4.972   8.815
 1607POPC   D2A24808   1.288   5.129   8.475
 1607POPC   C3A24809   1.150   4.876   8.124
 1607POPC   C4A24810   1.346   4.896   7.749
 1607POPC   C1B24811   0.979   5.469   8.731
 1607POPC   C2B24812   0.867   5.330   8.291
 1607POPC   C3B24813   0.882   5.209   7.834
 1607POPC   C4B24814   0.899   5.354   7.369
 1608POPC   NC324815  37.562  18.700   9.439
 1608POPC   PO424816  38.074  19.165   9.479
 1608POPC   GL124817  37.851  18.977   9.102
 1608POPC   GL224818  37.470  18.983   9.008
 1608POPC   C1A24819  37.803  18.950   8.642
 1608POPC   D2A24820  37.914  18.762   8.279
 1608POPC   C3A24821  37.848  19.074   7.976
 1608POPC   C4A24822  37.820  19.059   7.537
 1608POPC   C1B24823  37.480  19.357   8.693
 1608POPC   C2B24824  37.552  19.421   8.240
 1608POPC   C3B24825  37.377  19.231   7.842
 1608POPC   C4B24826  37.422  19.363   7.381
 1609POPC   NC324827   7.316   0.585   9.436
 1609POPC   PO424828   7.836   0.850   9.093
 1609POPC   GL124829   7.575   0.491   9.020
 1609POPC   GL224830   7.703   0.168   9.185
 1609POPC   C1A24831   7.220   0.411   8.723
 1609POPC   D2A24832   7.240   0.618   8.323
 1609POPC   C3A24833   7.545   0.580   8.008
 1609POPC   C4A24834   7.289   0.378   7.713
 1609POPC   C1B24835   7.564   0.058   8.758
 1609POPC   C2B24836   7.532   0.174   8.307
 1609POPC   C3B24837   7.574  44.998   7.872
 1609POPC   C4B24838   7.621  44.967   7.385
 1610POPC   NC324839  15.469  26.598   9.389
 1610POPC   PO424840  14.964  26.933   9.742
 1610POPC   GL124841  15.215  27.041   9.238
 1610POPC   GL224842  15.243  26.739   8.943
 1610POPC   C1A24843  15.074  27.191   8.830
 1610POPC   D2A24844  15.212  26.985   8.474
 1610POPC   C3A24845  15.176  27.107   8.070
 1610POPC   C4A24846  15.260  26.875   7.714
 1610POPC   C1B24847  14.962  26.506   8.652
 1610POPC   C2B24848  14.797  26.285   8.271
 1610POPC   C3B24849  14.842  26.576   7.898
 1610POPC   C4B24850  14.918  26.639   7.434
 1611POPC   NC324851  17.130  15.078   9.547
 1611POPC   PO424852  17.751  15.309   9.649
 1611POPC   GL124853  17.566  15.110   9.270
 1611POPC   GL224854  17.299  15.327   9.145
 1611POPC   C1A24855  17.613  15.048   8.826
 1611POPC   D2A24856  17.750  15.269   8.467
 1611POPC   C3A24857  17.614  15.087   8.105
 1611POPC   C4A24858  17.696  15.192   7.696
 1611POPC   C1B24859  17.227  15.392   8.723
 1611POPC   C2B24860  17.169  15.400   8.298
 1611POPC   C3B24861  17.285  15.406   7.887
 1611POPC   C4B24862  17.217  15.077   7.574
 1612POPC   NC324863  19.446   1.189   9.598
 1612POPC   PO424864  20.035   1.425   9.474
 1612POPC   GL124865  19.823   1.165   9.185
 1612POPC   GL224866  19.709   1.473   9.046
 1612POPC   C1A24867  19.713   1.031   8.764
 1612POPC   D2A24868  19.811   1.264   8.380
 1612POPC   C3A24869  19.815   1.057   7.947
 1612POPC   C4A24870  19.762   1.062   7.483
 1612POPC   C1B24871  20.095   1.406   8.781
 1612POPC   C2B24872  20.234   1.530   8.334
 1612POPC   C3B24873  20.204   1.397   7.898
 1612POPC   C4B24874  20.223   1.231   7.468
 1613POPC   NC324875  15.987   8.130   9.594
 1613POPC   PO424876  16.572   8.244   9.395
 1613POPC   GL124877  16.266   8.057   9.138
 1613POPC   GL224878  16.098   8.354   9.126
 1613POPC   C1A24879  16.005   7.960   8.797
 1613POPC   D2A24880  15.757   8.084   8.471
 1613POPC   C3A24881  15.876   7.941   8.072
 1613POPC   C4A24882  15.958   8.147   7.688
 1613POPC   C1B24883  15.777   8.463   8.836
 1613POPC   C2B24884  15.770   8.619   8.424
 1613POPC   C3B24885  15.735   8.444   8.031
 1613POPC   C4B24886  15.466   8.307   7.693
 1614POPC   NC324887  26.524  15.597   9.404
 1614POPC   PO424888  25.882  15.236   9.476
 1614POPC   GL124889  26.141  15.214   9.092
 1614POPC   GL224890  26.274  14.855   9.003
 1614POPC   C1A24891  26.111  15.169   8.623
 1614POPC   D2A24892  25.869  15.223   8.237
 1614POPC   C3A24893  26.044  15.408   7.867
 1614POPC   C4A24894  26.165  15.378   7.411
 1614POPC   C1B24895  26.362  14.648   8.645
 1614POPC   C2B24896  26.341  14.859   8.248
 1614POPC   C3B24897  26.102  14.895   7.890
 1614POPC   C4B24898  25.873  15.003   7.561
 1615POPC   NC324899  35.722  40.080   9.427
 1615POPC   PO424900  36.244  40.386   9.830
 1615POPC   GL124901  36.106  40.361   9.314
 1615POPC   GL224902  36.174  40.027   9.120
 1615POPC   C1A24903  36.098  40.418   8.816
 1615POPC   D2A24904  36.271  40.155   8.450
 1615POPC   C3A24905  36.156  40.176   8.027
 1615POPC   C4A24906  35.863  40.337   7.727
 1615POPC   C1B24907  36.009  39.768   8.729
 1615POPC   C2B24908  35.769  39.776   8.288
 1615POPC   C3B24909  35.846  39.826   7.825
 1615POPC   C4B24910  36.258  39.776   7.644
 1616POPC   NC324911  15.561   3.342   9.619
 1616POPC   PO424912  15.884   3.857   9.404
 1616POPC   GL124913  15.828   3.534   9.144
 1616POPC   GL224914  16.153   3.470   8.996
 1616POPC   C1A24915  15.730   3.610   8.739
 1616POPC   D2A24916  16.070   3.751   8.513
 1616POPC   C3A24917  15.870   3.713   8.158
 1616POPC   C4A24918  16.041   3.689   7.782
 1616POPC   C1B24919  16.071   3.235   8.658
 1616POPC   C2B24920  16.215   3.321   8.255
 1616POPC   C3B24921  16.072   3.145   7.901
 1616POPC   C4B24922  16.266   3.023   7.534
 1617POPC   NC324923  31.126  44.497   9.545
 1617POPC   PO424924  31.256   0.097   9.702
 1617POPC   GL124925  31.210  44.892   9.252
 1617POPC   GL224926  31.555  44.749   9.243
 1617POPC   C1A24927  31.257  44.763   8.801
 1617POPC   D2A24928  31.286  44.426   8.499
 1617POPC   C3A24929  31.111  44.623   8.173
 1617POPC   C4A24930  31.188  44.792   7.795
 1617POPC   C1B24931  31.743  44.926   8.874
 1617POPC   C2B24932  31.718  44.749   8.491
 1617POPC   C3B24933  31.612  44.660   8.097
 1617POPC   C4B24934  31.669  44.694   7.670
 1618POPC   NC324935  18.724  38.621   9.746
 1618POPC   PO424936  19.290  38.448   9.431
 1618POPC   GL124937  18.906  38.627   9.237
 1618POPC   GL224938  18.976  38.417   8.972
 1618POPC   C1A24939  18.736  38.833   8.816
 1618POPC   D2A24940  18.768  38.588   8.423
 1618POPC   C3A24941  18.797  38.812   8.015
 1618POPC   C4A24942  19.116  38.724   7.691
 1618POPC   C1B24943  18.982  38.052   8.699
 1618POPC   C2B24944  19.055  37.873   8.308
 1618POPC   C3B24945  19.231  38.131   8.020
 1618POPC   C4B24946  19.193  38.190   7.597
 1619POPC   NC324947  19.065  14.966   9.711
 1619POPC   PO424948  19.243  15.559   9.540
 1619POPC   GL124949  19.097  15.230   9.236
 1619POPC   GL224950  19.026  14.884   9.199
 1619POPC   C1A24951  18.885  15.292   8.845
 1619POPC   D2A24952  18.822  15.190   8.442
 1619POPC   C3A24953  19.057  15.466   8.196
 1619POPC   C4A24954  19.106  15.446   7.795
 1619POPC   C1B24955  19.217  14.929   8.782
 1619POPC   C2B24956  19.317  15.056   8.372
 1619POPC   C3B24957  19.118  14.968   7.975
 1619POPC   C4B24958  18.694  15.056   7.774
 1620POPC   NC324959  40.103  30.953   9.437
 1620POPC   PO424960  39.537  30.659   9.526
 1620POPC   GL124961  39.783  30.702   9.147
 1620POPC   GL224962  40.101  30.489   9.176
 1620POPC   C1A24963  39.983  30.977   8.794
 1620POPC   D2A24964  40.050  31.185   8.393
 1620POPC   C3A24965  39.973  30.883   8.107
 1620POPC   C4A24966  40.015  30.757   7.707
 1620POPC   C1B24967  39.925  30.428   8.764
 1620POPC   C2B24968  40.140  30.512   8.426
 1620POPC   C3B24969  40.089  30.359   8.058
 1620POPC   C4B24970  40.291  30.307   7.718
 1621POPC   NC324971   1.745  42.809   9.388
 1621POPC   PO424972   1.978  43.368   9.511
 1621POPC   GL124973   1.928  43.232   9.119
 1621POPC   GL224974   2.170  42.961   9.072
 1621POPC   C1A24975   1.869  43.240   8.691
 1621POPC   D2A24976   2.149  43.128   8.361
 1621POPC   C3A24977   1.961  43.081   7.962
 1621POPC   C4A24978   1.773  43.441   7.763
 1621POPC   C1B24979   2.081  42.743   8.694
 1621POPC   C2B24980   1.947  42.631   8.280
 1621POPC   C3B24981   2.208  42.596   7.931
 1621POPC   C4B24982   2.168  42.689   7.514
 1622POPC   NC324983  37.726  26.557   9.499
 1622POPC   PO424984  37.216  26.950   9.439
 1622POPC   GL124985  37.545  26.927   9.137
 1622POPC   GL224986  37.922  26.850   9.099
 1622POPC   C1A24987  37.591  27.021   8.708
 1622POPC   D2A24988  37.567  26.836   8.318
 1622POPC   C3A24989  37.844  26.888   7.999
 1622POPC   C4A24990  37.803  27.137   7.613
 1622POPC   C1B24991  37.721  26.540   8.829
 1622POPC   C2B24992  37.703  26.354   8.450
 1622POPC   C3B24993  37.396  26.385   8.166
 1622POPC   C4B24994  37.436  26.650   7.816
 1623POPC   NC324995  26.212  41.345   9.407
 1623POPC   PO424996  25.749  41.787   9.256
 1623POPC   GL124997  26.007  41.541   8.985
 1623POPC   GL224998  26.254  41.788   8.996
 1623POPC   C1A24999  25.777  41.418   8.620
 1623POPC   D2A25000  25.568  41.716   8.405
 1623POPC   C3A25001  25.839  41.803   8.109
 1623POPC   C4A25002  26.086  41.639   7.804
 1623POPC   C1B25003  26.214  41.702   8.542
 1623POPC   C2B25004  26.207  41.393   8.239
 1623POPC   C3B25005  26.487  41.346   7.865
 1623POPC   C4B25006  26.551  41.732   7.650
 1624POPC   NC325007  35.516  31.527   9.555
 1624POPC   PO425008  35.071  32.020   9.694
 1624POPC   GL125009  35.105  31.777   9.261
 1624POPC   GL225010  35.460  31.756   9.099
 1624POPC   C1A25011  35.079  31.760   8.777
 1624POPC   D2A25012  35.342  31.672   8.395
 1624POPC   C3A25013  35.185  31.344   8.099
 1624POPC   C4A25014  35.184  31.424   7.651
 1624POPC   C1B25015  35.620  31.444   8.771
 1624POPC   C2B25016  35.651  31.236   8.338
 1624POPC   C3B25017  35.643  31.340   7.885
 1624POPC   C4B25018  35.818  31.099   7.538
 1625POPC   NC325019  23.859  44.289   9.707
 1625POPC   PO425020  24.054  43.601   9.548
 1625POPC   GL125021  23.798  43.708   9.169
 1625POPC   GL225022  23.437  43.579   9.157
 1625POPC   C1A25023  23.796  43.838   8.703
 1625POPC   D2A25024  23.563  43.983   8.304
 1625POPC   C3A25025  23.755  44.000   7.869
 1625POPC   C4A25026  23.961  44.014   7.450
 1625POPC   C1B25027  23.661  43.350   8.821
 1625POPC   C2B25028  23.545  43.449   8.400
 1625POPC   C3B25029  23.403  43.605   7.990
 1625POPC   C4B25030  23.545  43.618   7.566
 1626POPC   NC325031  28.449  22.036   9.644
 1626POPC   PO425032  27.828  21.838   9.674
 1626POPC   GL125033  28.078  22.154   9.299
 1626POPC   GL225034  28.489  22.283   9.208
 1626POPC   C1A25035  28.184  22.193   8.835
 1626POPC   D2A25036  28.371  21.925   8.538
 1626POPC   C3A25037  28.296  22.008   8.125
 1626POPC   C4A25038  28.189  21.861   7.723
 1626POPC   C1B25039  28.694  22.178   8.831
 1626POPC   C2B25040  28.837  22.113   8.409
 1626POPC   C3B25041  28.762  22.156   7.999
 1626POPC   C4B25042  28.638  22.071   7.601
 1627POPC   NC325043  40.786  21.911   9.487
 1627POPC   PO425044  40.438  22.353   9.883
 1627POPC   GL125045  40.431  22.239   9.366
 1627POPC   GL225046  40.780  22.344   9.180
 1627POPC   C1A25047  40.461  22.075   8.901
 1627POPC   D2A25048  40.609  22.307   8.574
 1627POPC   C3A25049  40.587  22.248   8.158
 1627POPC   C4A25050  40.598  22.132   7.745
 1627POPC   C1B25051  41.061  22.234   8.813
 1627POPC   C2B25052  41.073  22.182   8.355
 1627POPC   C3B25053  41.074  22.255   7.918
 1627POPC   C4B25054  40.942  22.430   7.533
 1628POPC   NC325055  40.721  30.508   9.849
 1628POPC   PO425056  40.554  31.045   9.474
 1628POPC   GL125057  40.761  30.667   9.278
 1628POPC   GL225058  40.995  30.859   9.091
 1628POPC   C1A25059  40.904  30.420   8.868
 1628POPC   D2A25060  41.066  30.637   8.556
 1628POPC   C3A25061  40.895  30.557   8.173
 1628POPC   C4A25062  40.828  30.466   7.717
 1628POPC   C1B25063  40.622  30.857   8.806
 1628POPC   C2B25064  40.501  30.872   8.381
 1628POPC   C3B25065  40.453  30.705   7.990
 1628POPC   C4B25066  40.523  30.863   7.585
 1629POPC   NC325067  35.577   5.272   9.532
 1629POPC   PO425068  35.053   5.000   9.705
 1629POPC   GL125069  35.109   5.268   9.274
 1629POPC   GL225070  35.438   5.387   9.058
 1629POPC   C1A25071  35.009   5.268   8.800
 1629POPC   D2A25072  35.226   5.074   8.437
 1629POPC   C3A25073  35.183   5.109   7.995
 1629POPC   C4A25074  35.335   5.435   7.732
 1629POPC   C1B25075  35.516   4.978   8.859
 1629POPC   C2B25076  35.612   4.735   8.465
 1629POPC   C3B25077  35.675   4.813   8.017
 1629POPC   C4B25078  35.577   4.993   7.615
 1630POPC   NC325079  26.987  28.312   9.852
 1630POPC   PO425080  26.643  28.332   9.300
 1630POPC   GL125081  26.743  28.496   8.980
 1630POPC   GL225082  26.968  28.702   9.160
 1630POPC   C1A25083  26.656  28.283   8.605
 1630POPC   D2A25084  26.722  28.112   8.227
 1630POPC   C3A25085  26.581  28.238   7.855
 1630POPC   C4A25086  26.762  28.437   7.533
 1630POPC   C1B25087  27.006  28.838   8.724
 1630POPC   C2B25088  26.889  28.646   8.317
 1630POPC   C3B25089  26.499  28.667   8.107
 1630POPC   C4B25090  26.387  28.788   7.693
 1631POPC   NC325091  30.414  34.293   9.806
 1631POPC   PO425092  30.800  33.856   9.393
 1631POPC   GL125093  30.766  33.845   9.024
 1631POPC   GL225094  30.444  33.678   9.056
 1631POPC   C1A25095  31.051  33.692   8.719
 1631POPC   D2A25096  31.088  33.581   8.310
 1631POPC   C3A25097  30.822  33.825   8.122
 1631POPC   C4A25098  30.788  33.919   7.704
 1631POPC   C1B25099  30.520  33.718   8.597
 1631POPC   C2B25100  30.463  33.453   8.253
 1631POPC   C3B25101  30.615  33.454   7.846
 1631POPC   C4B25102  30.706  33.475   7.386
 1632POPC   NC325103  37.777  22.499   9.535
 1632POPC   PO425104  37.588  21.847   9.506
 1632POPC   GL125105  37.606  22.068   9.124
 1632POPC   GL225106  37.962  22.047   9.096
 1632POPC   C1A25107  37.698  21.898   8.696
 1632POPC   D2A25108  37.706  22.109   8.350
 1632POPC   C3A25109  37.678  21.887   8.003
 1632POPC   C4A25110  37.530  22.120   7.715
 1632POPC   C1B25111  37.875  22.369   8.771
 1632POPC   C2B25112  38.103  22.433   8.380
 1632POPC   C3B25113  37.930  22.385   7.962
 1632POPC   C4B25114  37.960  22.273   7.528
 1633POPC   NC325115  13.103  33.140   9.540
 1633POPC   PO425116  13.679  32.779   9.380
 1633POPC   GL125117  13.542  32.958   9.027
 1633POPC   GL225118  13.350  33.253   9.095
 1633POPC   C1A25119  13.626  32.860   8.623
 1633POPC   D2A25120  13.407  32.676   8.299
 1633POPC   C3A25121  13.530  32.672   7.908
 1633POPC   C4A25122  13.465  33.076   7.750
 1633POPC   C1B25123  13.538  33.368   8.690
 1633POPC   C2B25124  13.658  33.251   8.266
 1633POPC   C3B25125  13.666  33.497   7.912
 1633POPC   C4B25126  13.225  33.584   7.884
 1634POPC   NC325127  35.227   6.205   9.444
 1634POPC   PO425128  34.816   5.673   9.540
 1634POPC   GL125129  35.124   5.772   9.153
 1634POPC   GL225130  35.445   5.962   9.056
 1634POPC   C1A25131  35.262   5.701   8.664
 1634POPC   D2A25132  35.152   5.605   8.202
 1634POPC   C3A25133  35.296   5.923   7.864
 1634POPC   C4A25134  35.121   6.154   7.458
 1634POPC   C1B25135  35.567   6.189   8.653
 1634POPC   C2B25136  35.899   6.242   8.306
 1634POPC   C3B25137  35.932   6.135   7.854
 1634POPC   C4B25138  35.764   5.716   7.752
 1635POPC   NC325139  31.731  35.530   9.458
 1635POPC   PO425140  31.434  34.875   9.484
 1635POPC   GL125141  31.608  35.107   9.163
 1635POPC   GL225142  31.338  35.362   9.123
 1635POPC   C1A25143  31.784  35.353   8.802
 1635POPC   D2A25144  31.600  35.543   8.425
 1635POPC   C3A25145  31.691  35.347   8.030
 1635POPC   C4A25146  31.537  35.066   7.694
 1635POPC   C1B25147  31.092  35.269   8.757
 1635POPC   C2B25148  31.089  35.419   8.341
 1635POPC   C3B25149  31.172  35.312   7.940
 1635POPC   C4B25150  31.128  35.355   7.512
 1636POPC   NC325151  39.606  38.683   9.514
 1636POPC   PO425152  39.795  38.044   9.621
 1636POPC   GL125153  39.787  38.274   9.218
 1636POPC   GL225154  39.952  38.557   9.131
 1636POPC   C1A25155  39.896  38.170   8.773
 1636POPC   D2A25156  40.173  38.161   8.386
 1636POPC   C3A25157  40.084  38.359   7.985
 1636POPC   C4A25158  39.900  38.232   7.577
 1636POPC   C1B25159  39.809  38.671   8.743
 1636POPC   C2B25160  39.774  38.563   8.337
 1636POPC   C3B25161  39.890  38.864   8.027
 1636POPC   C4B25162  39.955  38.723   7.639
 1637POPC   NC325163  33.402  11.014   9.632
 1637POPC   PO425164  32.719  10.943   9.409
 1637POPC   GL125165  32.937  11.194   9.107
 1637POPC   GL225166  32.846  11.560   9.200
 1637POPC   C1A25167  33.249  11.141   8.737
 1637POPC   D2A25168  33.403  11.089   8.288
 1637POPC   C3A25169  33.052  11.002   7.968
 1637POPC   C4A25170  32.711  11.125   7.673
 1637POPC   C1B25171  33.036  11.620   8.781
 1637POPC   C2B25172  33.027  11.438   8.358
 1637POPC   C3B25173  33.158  11.503   7.939
 1637POPC   C4B25174  33.148  11.740   7.559
 1638POPC   NC325175   5.377  11.174   9.693
 1638POPC   PO425176   4.925  10.975   9.286
 1638POPC   GL125177   5.123  11.250   9.069
 1638POPC   GL225178   5.472  11.190   9.155
 1638POPC   C1A25179   4.997  11.285   8.649
 1638POPC   D2A25180   5.103  11.123   8.279
 1638POPC   C3A25181   4.881  11.380   8.037
 1638POPC   C4A25182   4.987  11.231   7.689
 1638POPC   C1B25183   5.463  11.442   8.747
 1638POPC   C2B25184   5.326  11.588   8.296
 1638POPC   C3B25185   5.426  11.428   7.855
 1638POPC   C4B25186   5.369  11.392   7.358
 1639POPC   NC325187  13.461  15.258   9.826
 1639POPC   PO425188  14.020  15.393   9.375
 1639POPC   GL125189  13.776  15.151   9.106
 1639POPC   GL225190  13.439  14.989   9.212
 1639POPC   C1A25191  13.702  15.223   8.678
 1639POPC   D2A25192  13.489  15.443   8.355
 1639POPC   C3A25193  13.699  15.250   8.044
 1639POPC   C4A25194  13.662  15.293   7.663
 1639POPC   C1B25195  13.409  14.810   8.780
 1639POPC   C2B25196  13.433  14.939   8.337
 1639POPC   C3B25197  13.548  14.763   7.908
 1639POPC   C4B25198  13.430  14.883   7.476
 1640POPC   NC325199  32.762  34.383   9.457
 1640POPC   PO425200  33.383  34.470   9.644
 1640POPC   GL125201  33.172  34.464   9.140
 1640POPC   GL225202  32.862  34.309   8.945
 1640POPC   C1A25203  33.187  34.641   8.725
 1640POPC   D2A25204  33.373  34.565   8.339
 1640POPC   C3A25205  33.026  34.635   8.088
 1640POPC   C4A25206  32.874  34.438   7.732
 1640POPC   C1B25207  32.645  34.576   8.610
 1640POPC   C2B25208  32.540  34.842   8.220
 1640POPC   C3B25209  32.583  34.919   7.753
 1640POPC   C4B25210  32.681  34.708   7.358
 1641POPC   NC325211  25.718  33.542   9.519
 1641POPC   PO425212  26.262  33.082   9.416
 1641POPC   GL125213  26.044  33.019   9.058
 1641POPC   GL225214  25.740  32.978   9.208
 1641POPC   C1A25215  25.980  32.980   8.631
 1641POPC   D2A25216  26.062  32.838   8.221
 1641POPC   C3A25217  25.919  33.054   7.835
 1641POPC   C4A25218  26.098  33.154   7.412
 1641POPC   C1B25219  25.652  32.635   8.915
 1641POPC   C2B25220  25.667  32.629   8.466
 1641POPC   C3B25221  25.699  32.606   7.949
 1641POPC   C4B25222  25.840  32.718   7.456
 1642POPC   NC325223  21.504  25.991   9.797
 1642POPC   PO425224  21.277  26.550   9.451
 1642POPC   GL125225  21.365  26.173   9.171
 1642POPC   GL225226  21.625  25.910   9.197
 1642POPC   C1A25227  21.498  26.136   8.722
 1642POPC   D2A25228  21.379  25.950   8.330
 1642POPC   C3A25229  21.462  26.109   7.905
 1642POPC   C4A25230  21.330  25.873   7.516
 1642POPC   C1B25231  21.836  25.773   8.796
 1642POPC   C2B25232  21.908  25.916   8.395
 1642POPC   C3B25233  21.816  25.751   7.984
 1642POPC   C4B25234  21.836  25.966   7.569
 1643POPC   NC325235   3.757   6.801   9.504
 1643POPC   PO425236   3.169   6.410   9.524
 1643POPC   GL125237   3.429   6.475   9.178
 1643POPC   GL225238   3.171   6.343   8.972
 1643POPC   C1A25239   3.707   6.314   8.838
 1643POPC   D2A25240   3.778   6.239   8.384
 1643POPC   C3A25241   3.788   6.636   8.146
 1643POPC   C4A25242   3.703   6.834   7.736
 1643POPC   C1B25243   2.858   6.279   8.630
 1643POPC   C2B25244   2.974   6.362   8.197
 1643POPC   C3B25245   3.331   6.502   7.955
 1643POPC   C4B25246   3.349   6.547   7.492
 1644POPC   NC325247   5.719  41.743   9.378
 1644POPC   PO425248   5.906  41.131   9.457
 1644POPC   GL125249   5.923  41.206   9.040
 1644POPC   GL225250   5.641  41.443   8.979
 1644POPC   C1A25251   6.018  41.392   8.637
 1644POPC   D2A25252   5.876  41.412   8.222
 1644POPC   C3A25253   6.033  41.123   7.907
 1644POPC   C4A25254   6.148  41.346   7.522
 1644POPC   C1B25255   5.734  41.823   8.708
 1644POPC   C2B25256   5.775  42.120   8.394
 1644POPC   C3B25257   5.672  41.968   8.008
 1644POPC   C4B25258   5.763  41.607   7.774
 1645POPC   NC325259  40.224  18.271   9.580
 1645POPC   PO425260  39.601  18.575   9.510
 1645POPC   GL125261  39.936  18.496   9.216
 1645POPC   GL225262  40.049  18.139   9.130
 1645POPC   C1A25263  40.009  18.489   8.783
 1645POPC   D2A25264  39.784  18.232   8.536
 1645POPC   C3A25265  39.769  18.358   8.122
 1645POPC   C4A25266  39.838  18.209   7.726
 1645POPC   C1B25267  40.215  17.987   8.761
 1645POPC   C2B25268  40.418  18.059   8.363
 1645POPC   C3B25269  40.348  18.174   7.910
 1645POPC   C4B25270  40.212  18.559   7.679
 1646POPC   NC325271   1.099  30.891   9.504
 1646POPC   PO425272   1.694  31.075   9.412
 1646POPC   GL125273   1.386  30.892   9.082
 1646POPC   GL225274   1.323  30.511   9.176
 1646POPC   C1A25275   1.068  30.665   8.785
 1646POPC   D2A25276   1.128  30.517   8.362
 1646POPC   C3A25277   1.036  30.774   7.994
 1646POPC   C4A25278   0.984  30.730   7.503
 1646POPC   C1B25279   1.318  30.231   8.766
 1646POPC   C2B25280   1.502  30.201   8.296
 1646POPC   C3B25281   1.391  30.415   7.853
 1646POPC   C4B25282   1.387  30.281   7.393
 1647POPC   NC325283  24.005  12.143   9.448
 1647POPC   PO425284  24.692  11.987   9.529
 1647POPC   GL125285  24.434  12.063   9.170
 1647POPC   GL225286  24.254  11.761   9.065
 1647POPC   C1A25287  24.387  12.176   8.744
 1647POPC   D2A25288  24.656  12.195   8.354
 1647POPC   C3A25289  24.484  12.287   7.944
 1647POPC   C4A25290  24.183  12.093   7.687
 1647POPC   C1B25291  24.678  11.736   8.811
 1647POPC   C2B25292  24.919  11.754   8.388
 1647POPC   C3B25293  24.703  11.787   7.952
 1647POPC   C4B25294  24.576  11.823   7.482
 1648POPC   NC325295  41.763   3.792   9.597
 1648POPC   PO425296  41.894   3.108   9.608
 1648POPC   GL125297  41.621   3.390   9.306
 1648POPC   GL225298  41.741   3.703   9.101
 1648POPC   C1A25299  41.470   3.343   8.859
 1648POPC   D2A25300  41.512   3.370   8.389
 1648POPC   C3A25301  41.273   3.604   8.060
 1648POPC   C4A25302  41.321   3.937   7.750
 1648POPC   C1B25303  41.625   3.802   8.652
 1648POPC   C2B25304  41.722   3.820   8.187
 1648POPC   C3B25305  41.777   3.614   7.820
 1648POPC   C4B25306  42.102   3.274   7.804
 1649POPC   NC325307  18.894  39.570   9.480
 1649POPC   PO425308  19.213  40.214   9.519
 1649POPC   GL125309  18.995  40.018   9.185
 1649POPC   GL225310  19.223  39.782   9.137
 1649POPC   C1A25311  18.818  39.966   8.755
 1649POPC   D2A25312  18.988  39.877   8.314
 1649POPC   C3A25313  19.019  40.039   7.876
 1649POPC   C4A25314  19.436  40.253   7.790
 1649POPC   C1B25315  19.312  39.736   8.747
 1649POPC   C2B25316  19.295  39.466   8.411
 1649POPC   C3B25317  19.290  39.607   8.000
 1649POPC   C4B25318  19.344  39.760   7.594
 1650POPC   NC325319  30.230   4.512   9.574
 1650POPC   PO425320  29.553   4.342   9.578
 1650POPC   GL125321  29.741   4.319   9.169
 1650POPC   GL225322  30.097   4.344   9.115
 1650POPC   C1A25323  29.776   4.284   8.735
 1650POPC   D2A25324  29.928   4.394   8.353
 1650POPC   C3A25325  29.622   4.382   8.014
 1650POPC   C4A25326  29.526   4.165   7.637
 1650POPC   C1B25327  30.281   4.154   8.729
 1650POPC   C2B25328  30.415   4.289   8.301
 1650POPC   C3B25329  30.191   4.236   7.886
 1650POPC   C4B25330  30.296   4.048   7.451
 1651POPC   NC325331  22.259   7.972   9.518
 1651POPC   PO425332  21.921   8.476   9.441
 1651POPC   GL125333  22.108   8.267   9.093
 1651POPC   GL225334  22.079   7.908   9.051
 1651POPC   C1A25335  22.035   8.294   8.653
 1651POPC   D2A25336  22.051   8.582   8.297
 1651POPC   C3A25337  22.320   8.433   8.003
 1651POPC   C4A25338  22.167   8.487   7.615
 1651POPC   C1B25339  22.129   7.781   8.632
 1651POPC   C2B25340  22.187   7.990   8.214
 1651POPC   C3B25341  22.217   7.984   7.740
 1651POPC   C4B25342  22.430   7.863   7.336
 1652POPC   NC325343   6.169  32.938   9.496
 1652POPC   PO425344   6.867  33.025   9.424
 1652POPC   GL125345   6.732  32.771   9.129
 1652POPC   GL225346   6.419  32.911   9.064
 1652POPC   C1A25347   6.694  32.642   8.704
 1652POPC   D2A25348   6.897  32.702   8.261
 1652POPC   C3A25349   6.681  32.536   7.862
 1652POPC   C4A25350   6.293  32.655   7.681
 1652POPC   C1B25351   6.678  33.161   8.788
 1652POPC   C2B25352   6.537  33.049   8.399
 1652POPC   C3B25353   6.557  33.002   7.996
 1652POPC   C4B25354   6.674  33.112   7.620
 1653POPC   NC325355   5.046  17.063   9.636
 1653POPC   PO425356   5.428  16.497   9.415
 1653POPC   GL125357   5.099  16.607   9.082
 1653POPC   GL225358   4.963  16.939   9.139
 1653POPC   C1A25359   4.902  16.640   8.680
 1653POPC   D2A25360   4.675  16.736   8.304
 1653POPC   C3A25361   4.898  16.578   7.982
 1653POPC   C4A25362   5.272  16.450   7.820
 1653POPC   C1B25363   5.134  17.120   8.734
 1653POPC   C2B25364   5.192  16.904   8.302
 1653POPC   C3B25365   5.187  16.984   7.846
 1653POPC   C4B25366   5.291  17.109   7.402
 1654POPC   NC325367  15.356  37.152   9.324
 1654POPC   PO425368  15.428  36.494   9.456
 1654POPC   GL125369  15.332  36.709   9.074
 1654POPC   GL225370  14.995  36.765   9.165
 1654POPC   C1A25371  15.308  36.859   8.636
 1654POPC   D2A25372  15.488  36.925   8.220
 1654POPC   C3A25373  15.238  36.860   7.843
 1654POPC   C4A25374  15.230  37.146   7.470
 1654POPC   C1B25375  14.843  36.970   8.807
 1654POPC   C2B25376  14.865  37.032   8.364
 1654POPC   C3B25377  14.717  36.834   7.978
 1654POPC   C4B25378  14.796  36.916   7.544
 1655POPC   NC325379   0.706  33.729  10.188
 1655POPC   PO425380   0.653  33.739   9.491
 1655POPC   GL125381   0.503  33.821   9.093
 1655POPC   GL225382   0.161  33.852   9.117
 1655POPC   C1A25383   0.449  33.965   8.686
 1655POPC   D2A25384   0.117  34.097   8.417
 1655POPC   C3A25385   0.295  34.065   8.001
 1655POPC   C4A25386   0.579  33.748   7.784
 1655POPC   C1B25387   0.073  33.612   8.726
 1655POPC   C2B25388  44.991  33.585   8.286
 1655POPC   C3B25389   0.079  33.621   7.875
 1655POPC   C4B25390   0.271  33.344   7.557
 1656POPC   NC325391  11.598  33.683   9.343
 1656POPC   PO425392  10.923  33.831   9.416
 1656POPC   GL125393  11.185  33.839   9.093
 1656POPC   GL225394  11.419  34.118   9.086
 1656POPC   C1A25395  11.390  33.744   8.711
 1656POPC   D2A25396  11.293  33.837   8.318
 1656POPC   C3A25397  11.392  33.476   8.115
 1656POPC   C4A25398  11.636  33.468   7.816
 1656POPC   C1B25399  11.085  34.149   8.719
 1656POPC   C2B25400  10.859  34.233   8.360
 1656POPC   C3B25401  10.937  34.019   7.995
 1656POPC   C4B25402  11.301  33.868   7.780
 1657POPC   NC325403   0.397  19.591   9.409
 1657POPC   PO425404   0.290  20.221   9.299
 1657POPC   GL125405   0.373  19.938   9.024
 1657POPC   GL225406   0.715  19.919   9.097
 1657POPC   C1A25407   0.213  19.881   8.628
 1657POPC   D2A25408   0.358  20.101   8.267
 1657POPC   C3A25409   0.386  20.024   7.843
 1657POPC   C4A25410   0.361  19.632   7.682
 1657POPC   C1B25411   0.688  20.138   8.671
 1657POPC   C2B25412   0.852  19.977   8.292
 1657POPC   C3B25413   0.811  19.737   7.929
 1657POPC   C4B25414   0.780  19.882   7.499
 1658POPC   NC325415  22.700  42.089   9.251
 1658POPC   PO425416  23.025  41.594   9.553
 1658POPC   GL125417  23.133  41.504   9.150
 1658POPC   GL225418  22.802  41.572   9.056
 1658POPC   C1A25419  23.195  41.378   8.719
 1658POPC   D2A25420  22.941  41.522   8.345
 1658POPC   C3A25421  23.099  41.442   7.887
 1658POPC   C4A25422  23.102  41.656   7.472
 1658POPC   C1B25423  22.605  41.736   8.699
 1658POPC   C2B25424  22.441  41.695   8.293
 1658POPC   C3B25425  22.609  41.576   7.949
 1658POPC   C4B25426  22.691  41.841   7.652
 1659POPC   NC325427  31.399   9.973   9.598
 1659POPC   PO425428  31.901   9.533   9.586
 1659POPC   GL125429  31.605   9.746   9.198
 1659POPC   GL225430  31.328  10.066   9.119
 1659POPC   C1A25431  31.386   9.678   8.817
 1659POPC   D2A25432  31.302   9.521   8.439
 1659POPC   C3A25433  31.572   9.425   8.128
 1659POPC   C4A25434  31.269   9.470   7.794
 1659POPC   C1B25435  31.558  10.154   8.734
 1659POPC   C2B25436  31.670   9.925   8.343
 1659POPC   C3B25437  31.617   9.894   7.883
 1659POPC   C4B25438  31.597   9.682   7.468
 1660POPC   NC325439   9.803  22.338   9.606
 1660POPC   PO425440  10.329  22.004   9.713
 1660POPC   GL125441   9.984  21.933   9.344
 1660POPC   GL225442   9.603  21.945   9.261
 1660POPC   C1A25443   9.969  21.951   8.876
 1660POPC   D2A25444   9.959  21.905   8.396
 1660POPC   C3A25445  10.022  22.330   8.175
 1660POPC   C4A25446  10.142  22.728   7.908
 1660POPC   C1B25447   9.483  22.086   8.805
 1660POPC   C2B25448   9.504  22.138   8.320
 1660POPC   C3B25449   9.695  22.001   7.911
 1660POPC   C4B25450   9.524  21.954   7.490
 1661POPC   NC325451   7.943  38.853   9.524
 1661POPC   PO425452   8.308  38.182   9.402
 1661POPC   GL125453   8.080  38.428   9.131
 1661POPC   GL225454   8.249  38.701   9.148
 1661POPC   C1A25455   8.085  38.335   8.724
 1661POPC   D2A25456   7.936  38.537   8.394
 1661POPC   C3A25457   8.032  38.358   8.039
 1661POPC   C4A25458   8.209  38.321   7.700
 1661POPC   C1B25459   8.163  38.843   8.768
 1661POPC   C2B25460   8.198  38.991   8.392
 1661POPC   C3B25461   8.236  38.828   8.027
 1661POPC   C4B25462   8.271  38.824   7.598
 1662POPC   NC325463  44.771  21.388   9.496
 1662POPC   PO425464  44.297  21.125   9.764
 1662POPC   GL125465  44.349  21.439   9.246
 1662POPC   GL225466  44.722  21.414   9.016
 1662POPC   C1A25467  44.366  21.592   8.759
 1662POPC   D2A25468  44.472  21.416   8.358
 1662POPC   C3A25469  44.613  21.561   7.979
 1662POPC   C4A25470  44.304  21.396   7.705
 1662POPC   C1B25471  44.642  21.092   8.697
 1662POPC   C2B25472  44.686  20.850   8.387
 1662POPC   C3B25473  44.543  21.029   8.021
 1662POPC   C4B25474  44.826  21.133   7.763
 1663POPC   NC325475   0.589  21.217   9.748
 1663POPC   PO425476   0.502  21.880   9.537
 1663POPC   GL125477   0.527  21.469   9.281
 1663POPC   GL225478   0.204  21.286   9.185
 1663POPC   C1A25479   0.611  21.279   8.855
 1663POPC   D2A25480   0.517  21.125   8.424
 1663POPC   C3A25481   0.657  21.367   8.085
 1663POPC   C4A25482   0.728  21.289   7.655
 1663POPC   C1B25483   0.106  21.290   8.707
 1663POPC   C2B25484   0.050  21.263   8.228
 1663POPC   C3B25485   0.234  21.404   7.800
 1663POPC   C4B25486   0.088  21.404   7.380
 1664POPC   NC325487  40.207  33.147   9.461
 1664POPC   PO425488  39.543  32.853   9.587
 1664POPC   GL125489  39.764  32.883   9.155
 1664POPC   GL225490  40.023  33.104   9.000
 1664POPC   C1A25491  39.806  32.811   8.671
 1664POPC   D2A25492  39.882  33.147   8.328
 1664POPC   C3A25493  40.030  33.016   7.933
 1664POPC   C4A25494  40.413  32.802   7.864
 1664POPC   C1B25495  40.191  33.373   8.694
 1664POPC   C2B25496  40.146  33.595   8.336
 1664POPC   C3B25497  40.110  33.507   7.916
 1664POPC   C4B25498  40.015  33.485   7.466
 1665POPC   NC325499   1.651  16.825   9.291
 1665POPC   PO425500   1.193  16.690   9.759
 1665POPC   GL125501   1.128  16.855   9.283
 1665POPC   GL225502   1.210  16.546   9.125
 1665POPC   C1A25503   1.005  16.860   8.772
 1665POPC   D2A25504   1.103  16.797   8.274
 1665POPC   C3A25505   0.903  16.958   7.871
 1665POPC   C4A25506   0.895  16.750   7.429
 1665POPC   C1B25507   1.363  16.493   8.688
 1665POPC   C2B25508   1.610  16.221   8.386
 1665POPC   C3B25509   1.508  16.272   7.938
 1665POPC   C4B25510   1.242  16.587   7.770
 1666POPC   NC325511   8.714  21.224   9.352
 1666POPC   PO425512   8.014  21.307   9.533
 1666POPC   GL125513   8.084  21.292   9.129
 1666POPC   GL225514   8.357  21.470   9.097
 1666POPC   C1A25515   7.986  21.065   8.773
 1666POPC   D2A25516   8.201  20.939   8.385
 1666POPC   C3A25517   8.247  21.096   7.978
 1666POPC   C4A25518   8.073  21.226   7.623
 1666POPC   C1B25519   8.415  21.325   8.686
 1666POPC   C2B25520   8.190  21.453   8.336
 1666POPC   C3B25521   8.224  21.643   7.939
 1666POPC   C4B25522   8.430  21.597   7.565
 1667POPC   NC325523   8.069  39.638   9.397
 1667POPC   PO425524   8.414  39.041   9.493
 1667POPC   GL125525   8.261  39.230   9.121
 1667POPC   GL225526   7.920  39.150   9.089
 1667POPC   C1A25527   8.273  39.413   8.717
 1667POPC   D2A25528   8.088  39.492   8.308
 1667POPC   C3A25529   8.169  39.344   7.920
 1667POPC   C4A25530   8.471  39.650   7.809
 1667POPC   C1B25531   7.812  39.213   8.654
 1667POPC   C2B25532   7.690  38.968   8.269
 1667POPC   C3B25533   7.794  38.901   7.837
 1667POPC   C4B25534   7.937  39.207   7.472
 1668POPC   NC325535  37.138  38.697   9.461
 1668POPC   PO425536  36.695  38.245   9.465
 1668POPC   GL125537  36.931  38.399   9.102
 1668POPC   GL225538  36.770  38.715   9.058
 1668POPC   C1A25539  36.880  38.397   8.667
 1668POPC   D2A25540  36.509  38.361   8.407
 1668POPC   C3A25541  36.683  38.357   8.022
 1668POPC   C4A25542  37.124  38.260   7.899
 1668POPC   C1B25543  36.625  38.929   8.693
 1668POPC   C2B25544  36.808  38.780   8.307
 1668POPC   C3B25545  37.225  38.680   8.160
 1668POPC   C4B25546  37.305  38.711   7.696
 1669POPC   NC325547   2.145  14.092   9.408
 1669POPC   PO425548   2.072  14.678   9.472
 1669POPC   GL125549   2.009  14.586   9.069
 1669POPC   GL225550   1.767  14.329   9.090
 1669POPC   C1A25551   2.055  14.845   8.708
 1669POPC   D2A25552   2.257  14.972   8.339
 1669POPC   C3A25553   2.182  14.721   7.965
 1669POPC   C4A25554   1.947  14.429   7.688
 1669POPC   C1B25555   1.754  14.420   8.636
 1669POPC   C2B25556   1.778  14.734   8.292
 1669POPC   C3B25557   1.698  14.859   7.858
 1669POPC   C4B25558   1.454  14.580   7.541
 1670POPC   NC325559  35.189   7.005   9.379
 1670POPC   PO425560  35.621   6.473   9.532
 1670POPC   GL125561  35.553   6.715   9.178
 1670POPC   GL225562  35.330   6.488   9.023
 1670POPC   C1A25563  35.386   6.941   8.776
 1670POPC   D2A25564  35.240   6.899   8.341
 1670POPC   C3A25565  35.295   6.457   8.194
 1670POPC   C4A25566  35.454   6.396   7.776
 1670POPC   C1B25567  35.052   6.540   8.666
 1670POPC   C2B25568  34.784   6.576   8.279
 1670POPC   C3B25569  34.968   6.727   7.912
 1670POPC   C4B25570  35.377   6.887   7.821
 1671POPC   NC325571   6.405   8.926   9.640
 1671POPC   PO425572   6.485   9.594   9.554
 1671POPC   GL125573   6.679   9.229   9.251
 1671POPC   GL225574   6.545   8.873   9.168
 1671POPC   C1A25575   6.826   9.109   8.825
 1671POPC   D2A25576   6.602   8.974   8.436
 1671POPC   C3A25577   6.723   9.100   7.999
 1671POPC   C4A25578   6.419   9.196   7.670
 1671POPC   C1B25579   6.318   8.687   8.826
 1671POPC   C2B25580   6.451   8.490   8.454
 1671POPC   C3B25581   6.317   8.553   8.024
 1671POPC   C4B25582   6.549   8.710   7.695
 1672POPC   NC325583  34.679  22.766   9.321
 1672POPC   PO425584  35.325  22.742   9.461
 1672POPC   GL125585  35.365  22.538   9.100
 1672POPC   GL225586  35.046  22.613   9.000
 1672POPC   C1A25587  35.544  22.623   8.722
 1672POPC   D2A25588  35.613  22.924   8.380
 1672POPC   C3A25589  35.419  22.836   7.975
 1672POPC   C4A25590  35.301  22.886   7.539
 1672POPC   C1B25591  35.176  22.972   8.733
 1672POPC   C2B25592  35.153  23.164   8.297
 1672POPC   C3B25593  34.981  23.139   7.861
 1672POPC   C4B25594  34.799  23.006   7.454
 1673POPC   NC325595  29.804  10.013   9.518
 1673POPC   PO425596  30.280   9.437   9.421
 1673POPC   GL125597  30.065   9.739   9.163
 1673POPC   GL225598  29.706   9.642   9.165
 1673POPC   C1A25599  29.998   9.847   8.728
 1673POPC   D2A25600  30.069   9.729   8.300
 1673POPC   C3A25601  29.900   9.355   8.122
 1673POPC   C4A25602  29.775   9.577   7.775
 1673POPC   C1B25603  29.493   9.915   8.886
 1673POPC   C2B25604  29.492  10.073   8.489
 1673POPC   C3B25605  29.646   9.984   8.083
 1673POPC   C4B25606  29.831  10.268   7.810
 1674POPC   NC325607  42.689  22.560   9.336
 1674POPC   PO425608  42.079  22.153   9.517
 1674POPC   GL125609  42.331  22.118   9.126
 1674POPC   GL225610  42.083  21.906   9.036
 1674POPC   C1A25611  42.488  22.362   8.765
 1674POPC   D2A25612  42.646  22.292   8.358
 1674POPC   C3A25613  42.413  22.370   7.973
 1674POPC   C4A25614  41.973  22.180   7.894
 1674POPC   C1B25615  42.313  21.909   8.634
 1674POPC   C2B25616  42.338  21.921   8.173
 1674POPC   C3B25617  42.597  21.901   7.810
 1674POPC   C4B25618  42.595  21.717   7.399
 1675POPC   NC325619  39.233  19.698   9.515
 1675POPC   PO425620  39.549  20.109   9.180
 1675POPC   GL125621  39.463  19.784   8.969
 1675POPC   GL225622  39.128  19.872   9.013
 1675POPC   C1A25623  39.455  19.861   8.517
 1675POPC   D2A25624  39.184  20.054   8.174
 1675POPC   C3A25625  39.309  19.963   7.739
 1675POPC   C4A25626  39.516  19.758   7.345
 1675POPC   C1B25627  39.078  20.178   8.691
 1675POPC   C2B25628  38.746  20.241   8.431
 1675POPC   C3B25629  38.716  20.341   8.007
 1675POPC   C4B25630  38.759  20.087   7.625
 1676POPC   NC325631   6.486  30.696   9.608
 1676POPC   PO425632   5.812  30.758   9.459
 1676POPC   GL125633   6.153  30.877   9.179
 1676POPC   GL225634   6.167  30.570   9.081
 1676POPC   C1A25635   6.039  30.927   8.734
 1676POPC   D2A25636   5.908  30.649   8.385
 1676POPC   C3A25637   5.680  30.792   8.013
 1676POPC   C4A25638   5.568  30.490   7.697
 1676POPC   C1B25639   6.370  30.526   8.682
 1676POPC   C2B25640   6.283  30.306   8.309
 1676POPC   C3B25641   6.115  30.461   7.932
 1676POPC   C4B25642   6.020  30.739   7.638
 1677POPC   NC325643  30.540   9.810   9.488
 1677POPC   PO425644  31.199   9.552   9.499
 1677POPC   GL125645  30.927   9.705   9.129
 1677POPC   GL225646  30.556   9.642   9.030
 1677POPC   C1A25647  30.897   9.787   8.683
 1677POPC   D2A25648  31.154  10.007   8.445
 1677POPC   C3A25649  31.115   9.904   8.036
 1677POPC   C4A25650  30.788   9.748   7.771
 1677POPC   C1B25651  30.425   9.554   8.642
 1677POPC   C2B25652  30.596   9.626   8.261
 1677POPC   C3B25653  30.359   9.497   7.931
 1677POPC   C4B25654  30.248   9.806   7.694
 1678POPC   NC325655  40.285  28.691   9.372
 1678POPC   PO425656  39.819  28.271   9.500
 1678POPC   GL125657  39.878  28.476   9.136
 1678POPC   GL225658  40.170  28.222   9.119
 1678POPC   C1A25659  40.086  28.593   8.756
 1678POPC   D2A25660  40.250  28.586   8.362
 1678POPC   C3A25661  39.982  28.787   8.141
 1678POPC   C4A25662  39.925  28.710   7.732
 1678POPC   C1B25663  39.867  28.111   8.795
 1678POPC   C2B25664  39.849  28.256   8.389
 1678POPC   C3B25665  40.001  28.259   7.973
 1678POPC   C4B25666  39.813  28.250   7.560
 1679POPC   NC325667  30.879  38.911   9.478
 1679POPC   PO425668  31.214  39.548   9.359
 1679POPC   GL125669  30.998  39.366   9.019
 1679POPC   GL225670  30.712  39.187   9.082
 1679POPC   C1A25671  30.953  39.047   8.678
 1679POPC   D2A25672  30.740  39.069   8.307
 1679POPC   C3A25673  30.961  39.356   8.074
 1679POPC   C4A25674  30.958  39.581   7.706
 1679POPC   C1B25675  30.474  39.278   8.718
 1679POPC   C2B25676  30.332  39.615   8.450
 1679POPC   C3B25677  30.361  39.374   8.092
 1679POPC   C4B25678  30.606  39.160   7.770
 1680POPC   NC325679  42.694  15.841   9.360
 1680POPC   PO425680  42.305  16.183   9.825
 1680POPC   GL125681  42.281  16.197   9.304
 1680POPC   GL225682  42.329  15.908   9.025
 1680POPC   C1A25683  42.299  16.342   8.830
 1680POPC   D2A25684  42.206  16.065   8.459
 1680POPC   C3A25685  42.218  16.009   8.013
 1680POPC   C4A25686  42.310  15.797   7.638
 1680POPC   C1B25687  42.635  15.986   8.693
 1680POPC   C2B25688  42.665  16.307   8.330
 1680POPC   C3B25689  42.677  16.169   7.884
 1680POPC   C4B25690  42.803  15.762   7.687
 1681POPC   NC325691  21.895  15.266   9.334
 1681POPC   PO425692  22.425  15.574   9.534
 1681POPC   GL125693  22.369  15.255   9.159
 1681POPC   GL225694  22.233  15.476   8.948
 1681POPC   C1A25695  22.219  15.012   8.751
 1681POPC   D2A25696  22.166  15.146   8.320
 1681POPC   C3A25697  22.392  14.999   7.942
 1681POPC   C4A25698  22.292  15.120   7.521
 1681POPC   C1B25699  21.872  15.382   8.688
 1681POPC   C2B25700  21.708  15.438   8.290
 1681POPC   C3B25701  21.915  15.263   7.893
 1681POPC   C4B25702  21.867  15.403   7.458
 1682POPC   NC325703  14.346  25.224   9.593
 1682POPC   PO425704  14.399  25.762   9.246
 1682POPC   GL125705  14.618  25.463   9.046
 1682POPC   GL225706  14.624  25.106   9.139
 1682POPC   C1A25707  14.551  25.332   8.652
 1682POPC   D2A25708  14.338  25.074   8.413
 1682POPC   C3A25709  14.449  25.314   8.059
 1682POPC   C4A25710  14.347  25.220   7.655
 1682POPC   C1B25711  14.819  24.918   8.746
 1682POPC   C2B25712  14.837  25.003   8.292
 1682POPC   C3B25713  14.620  24.868   7.899
 1682POPC   C4B25714  14.687  24.911   7.419
 1683POPC   NC325715  18.927  12.166   9.624
 1683POPC   PO425716  19.492  12.118   9.240
 1683POPC   GL125717  19.290  11.823   9.038
 1683POPC   GL225718  18.950  11.832   9.173
 1683POPC   C1A25719  19.222  11.901   8.615
 1683POPC   D2A25720  18.916  11.885   8.310
 1683POPC   C3A25721  19.173  12.069   8.030
 1683POPC   C4A25722  19.435  11.877   7.799
 1683POPC   C1B25723  18.710  11.965   8.783
 1683POPC   C2B25724  18.588  12.279   8.443
 1683POPC   C3B25725  18.720  12.295   7.996
 1683POPC   C4B25726  18.755  11.864   7.810
 1684POPC   NC325727  33.022  36.382   9.757
 1684POPC   PO425728  32.884  35.829   9.473
 1684POPC   GL125729  32.928  35.958   9.084
 1684POPC   GL225730  33.166  36.133   9.117
 1684POPC   C1A25731  32.904  36.097   8.645
 1684POPC   D2A25732  33.122  35.851   8.335
 1684POPC   C3A25733  32.954  35.899   7.929
 1684POPC   C4A25734  32.712  35.872   7.498
 1684POPC   C1B25735  33.401  36.058   8.760
 1684POPC   C2B25736  33.405  36.313   8.406
 1684POPC   C3B25737  33.240  36.338   7.988
 1684POPC   C4B25738  32.879  36.331   7.711
 1685POPC   NC325739  34.451  15.117   9.288
 1685POPC   PO425740  33.882  15.333   9.595
 1685POPC   GL125741  33.814  15.195   9.172
 1685POPC   GL225742  33.992  14.962   9.115
 1685POPC   C1A25743  33.623  15.004   8.784
 1685POPC   D2A25744  33.630  15.119   8.368
 1685POPC   C3A25745  33.656  14.811   8.039
 1685POPC   C4A25746  33.779  15.119   7.719
 1685POPC   C1B25747  34.133  15.024   8.726
 1685POPC   C2B25748  34.143  14.839   8.399
 1685POPC   C3B25749  34.100  15.033   8.093
 1685POPC   C4B25750  34.305  14.993   7.779
 1686POPC   NC325751  38.955  24.848   9.545
 1686POPC   PO425752  39.404  25.360   9.632
 1686POPC   GL125753  39.245  25.415   9.241
 1686POPC   GL225754  39.323  25.061   9.195
 1686POPC   C1A25755  39.122  25.550   8.825
 1686POPC   D2A25756  38.962  25.357   8.435
 1686POPC   C3A25757  39.168  25.318   8.046
 1686POPC   C4A25758  39.195  25.571   7.671
 1686POPC   C1B25759  39.682  25.252   8.950
 1686POPC   C2B25760  39.683  25.290   8.490
 1686POPC   C3B25761  39.660  25.465   8.068
 1686POPC   C4B25762  39.554  25.229   7.700
 1687POPC   NC325763   6.668  36.762   9.503
 1687POPC   PO425764   6.102  36.800   9.648
 1687POPC   GL125765   6.330  36.842   9.156
 1687POPC   GL225766   6.626  37.082   9.100
 1687POPC   C1A25767   6.340  36.906   8.711
 1687POPC   D2A25768   6.575  36.988   8.322
 1687POPC   C3A25769   6.384  36.844   7.943
 1687POPC   C4A25770   6.152  36.997   7.557
 1687POPC   C1B25771   6.835  36.772   8.776
 1687POPC   C2B25772   6.844  36.553   8.339
 1687POPC   C3B25773   6.922  36.746   7.907
 1687POPC   C4B25774   6.964  36.529   7.485
 1688POPC   NC325775  11.051  21.534   9.489
 1688POPC   PO425776  11.563  21.111   9.617
 1688POPC   GL125777  11.450  21.426   9.206
 1688POPC   GL225778  11.694  21.705   9.132
 1688POPC   C1A25779  11.283  21.669   8.818
 1688POPC   D2A25780  11.332  21.637   8.357
 1688POPC   C3A25781  11.115  21.322   8.136
 1688POPC   C4A25782  10.947  21.081   7.769
 1688POPC   C1B25783  11.767  21.530   8.762
 1688POPC   C2B25784  11.869  21.604   8.356
 1688POPC   C3B25785  11.671  21.449   8.011
 1688POPC   C4B25786  11.398  21.369   7.697
 1689POPC   NC325787   8.836  17.794   9.838
 1689POPC   PO425788   9.315  17.417   9.549
 1689POPC   GL125789   9.024  17.411   9.173
 1689POPC   GL225790   8.831  17.701   9.105
 1689POPC   C1A25791   8.731  17.340   8.775
 1689POPC   D2A25792   8.994  17.461   8.439
 1689POPC   C3A25793   8.965  17.416   7.985
 1689POPC   C4A25794   9.250  17.265   7.658
 1689POPC   C1B25795   8.759  17.846   8.702
 1689POPC   C2B25796   8.694  18.052   8.335
 1689POPC   C3B25797   8.732  17.899   7.927
 1689POPC   C4B25798   9.010  17.737   7.565
 1690POPC   NC325799  29.701  37.926   9.322
 1690POPC   PO425800  30.309  37.917   9.641
 1690POPC   GL125801  30.161  37.744   9.200
 1690POPC   GL225802  30.119  37.383   9.179
 1690POPC   C1A25803  29.923  37.688   8.782
 1690POPC   D2A25804  29.698  37.519   8.425
 1690POPC   C3A25805  29.827  37.626   8.025
 1690POPC   C4A25806  29.540  37.516   7.708
 1690POPC   C1B25807  30.372  37.440   8.800
 1690POPC   C2B25808  30.228  37.565   8.382
 1690POPC   C3B25809  30.317  37.448   7.952
 1690POPC   C4B25810  30.020  37.330   7.637
 1691POPC   NC325811  34.394   5.834   9.480
 1691POPC   PO425812  33.985   6.387   9.531
 1691POPC   GL125813  34.368   6.257   9.209
 1691POPC   GL225814  34.731   6.169   9.218
 1691POPC   C1A25815  34.402   5.923   8.838
 1691POPC   D2A25816  34.605   5.676   8.482
 1691POPC   C3A25817  34.587   5.814   8.035
 1691POPC   C4A25818  34.866   5.752   7.650
 1691POPC   C1B25819  34.924   6.061   8.809
 1691POPC   C2B25820  34.961   6.074   8.359
 1691POPC   C3B25821  34.889   6.215   7.932
 1691POPC   C4B25822  34.709   6.386   7.576
 1692POPC   NC325823  15.618  44.854   9.435
 1692POPC   PO425824  16.249  44.552   9.573
 1692POPC   GL125825  16.069  44.755   9.216
 1692POPC   GL225826  16.321  44.650   9.042
 1692POPC   C1A25827  15.861  44.792   8.790
 1692POPC   D2A25828  15.971  44.551   8.403
 1692POPC   C3A25829  15.807  44.741   8.022
 1692POPC   C4A25830  15.841  44.626   7.601
 1692POPC   C1B25831  16.334  44.979   8.734
 1692POPC   C2B25832  16.139   0.024   8.316
 1692POPC   C3B25833  16.267  44.838   7.872
 1692POPC   C4B25834  16.212  44.900   7.395
 1693POPC   NC325835  29.256  29.432   9.558
 1693POPC   PO425836  28.707  29.827   9.557
 1693POPC   GL125837  28.865  29.877   9.119
 1693POPC   GL225838  29.216  29.984   9.079
 1693POPC   C1A25839  28.726  29.789   8.729
 1693POPC   D2A25840  28.970  29.850   8.389
 1693POPC   C3A25841  28.867  29.684   7.997
 1693POPC   C4A25842  29.173  29.781   7.669
 1693POPC   C1B25843  29.398  29.956   8.693
 1693POPC   C2B25844  29.372  30.159   8.308
 1693POPC   C3B25845  29.487  30.086   7.891
 1693POPC   C4B25846  29.442  30.156   7.413
 1694POPC   NC325847  44.079   2.968   9.395
 1694POPC   PO425848  43.638   2.541   9.560
 1694POPC   GL125849  43.753   2.633   9.151
 1694POPC   GL225850  43.722   2.983   9.043
 1694POPC   C1A25851  43.953   2.613   8.749
 1694POPC   D2A25852  43.846   2.869   8.374
 1694POPC   C3A25853  44.082   2.847   8.011
 1694POPC   C4A25854  44.341   2.596   7.760
 1694POPC   C1B25855  43.636   3.219   8.694
 1694POPC   C2B25856  43.739   3.394   8.306
 1694POPC   C3B25857  43.626   3.174   7.980
 1694POPC   C4B25858  43.771   3.026   7.659
 1695POPC   NC325859  28.192  35.713   9.508
 1695POPC   PO425860  28.791  35.428   9.422
 1695POPC   GL125861  28.429  35.306   9.144
 1695POPC   GL225862  28.178  35.510   9.048
 1695POPC   C1A25863  28.273  35.125   8.757
 1695POPC   D2A25864  28.237  35.316   8.368
 1695POPC   C3A25865  28.313  35.082   8.009
 1695POPC   C4A25866  28.137  35.094   7.594
 1695POPC   C1B25867  28.520  35.579   8.729
 1695POPC   C2B25868  28.711  35.584   8.343
 1695POPC   C3B25869  28.471  35.623   7.959
 1695POPC   C4B25870  28.398  35.552   7.538
 1696POPC   NC325871  42.921   4.820   9.563
 1696POPC   PO425872  43.501   5.184   9.618
 1696POPC   GL125873  43.173   5.182   9.259
 1696POPC   GL225874  42.927   5.463   9.210
 1696POPC   C1A25875  42.919   5.104   8.859
 1696POPC   D2A25876  42.734   5.251   8.494
 1696POPC   C3A25877  42.946   5.211   8.116
 1696POPC   C4A25878  43.155   5.126   7.743
 1696POPC   C1B25879  42.882   5.623   8.795
 1696POPC   C2B25880  42.876   5.716   8.326
 1696POPC   C3B25881  42.874   5.655   7.852
 1696POPC   C4B25882  42.859   5.423   7.444
 1697POPC   NC325883  29.704   2.152   9.918
 1697POPC   PO425884  30.084   1.669   9.598
 1697POPC   GL125885  29.959   1.922   9.236
 1697POPC   GL225886  29.785   1.669   9.031
 1697POPC   C1A25887  29.860   2.202   8.890
 1697POPC   D2A25888  29.777   2.084   8.438
 1697POPC   C3A25889  29.999   2.298   8.065
 1697POPC   C4A25890  29.905   2.219   7.601
 1697POPC   C1B25891  30.132   1.810   8.719
 1697POPC   C2B25892  30.193   1.833   8.270
 1697POPC   C3B25893  29.868   1.815   7.968
 1697POPC   C4B25894  29.910   1.692   7.559
 1698POPC   NC325895   4.523   6.801   9.369
 1698POPC   PO425896   3.982   6.334   9.457
 1698POPC   GL125897   4.082   6.575   9.088
 1698POPC   GL225898   4.187   6.899   8.976
 1698POPC   C1A25899   4.172   6.471   8.645
 1698POPC   D2A25900   4.297   6.687   8.250
 1698POPC   C3A25901   4.178   6.555   7.810
 1698POPC   C4A25902   4.339   6.392   7.409
 1698POPC   C1B25903   4.574   6.792   8.720
 1698POPC   C2B25904   4.825   6.798   8.347
 1698POPC   C3B25905   4.642   6.944   7.978
 1698POPC   C4B25906   4.593   6.809   7.582
 1699POPC   NC325907  33.252  42.495   9.386
 1699POPC   PO425908  32.791  42.082   9.567
 1699POPC   GL125909  32.929  42.142   9.163
 1699POPC   GL225910  33.255  42.091   9.036
 1699POPC   C1A25911  32.854  42.236   8.740
 1699POPC   D2A25912  33.021  42.138   8.333
 1699POPC   C3A25913  32.905  42.368   7.983
 1699POPC   C4A25914  33.019  42.298   7.587
 1699POPC   C1B25915  33.355  42.378   8.691
 1699POPC   C2B25916  33.217  42.640   8.295
 1699POPC   C3B25917  33.261  42.704   7.822
 1699POPC   C4B25918  33.495  42.422   7.517
 1700POPC   NC325919  10.252  15.386   9.581
 1700POPC   PO425920  10.917  15.316   9.465
 1700POPC   GL125921  10.541  15.183   9.214
 1700POPC   GL225922  10.303  15.402   9.038
 1700POPC   C1A25923  10.374  14.861   8.949
 1700POPC   D2A25924  10.291  14.755   8.524
 1700POPC   C3A25925  10.382  15.097   8.216
 1700POPC   C4A25926  10.471  14.974   7.767
 1700POPC   C1B25927  10.627  15.441   8.726
 1700POPC   C2B25928  10.839  15.380   8.326
 1700POPC   C3B25929  10.750  15.399   7.884
 1700POPC   C4B25930  10.567  15.405   7.471
 1701POPC   NC325931  37.042  15.410   9.560
 1701POPC   PO425932  36.666  14.927   9.433
 1701POPC   GL125933  36.813  15.091   9.095
 1701POPC   GL225934  37.151  15.042   9.179
 1701POPC   C1A25935  36.640  15.325   8.741
 1701POPC   D2A25936  36.674  15.572   8.347
 1701POPC   C3A25937  36.908  15.266   8.112
 1701POPC   C4A25938  36.772  15.032   7.757
 1701POPC   C1B25939  37.228  15.297   8.845
 1701POPC   C2B25940  37.398  15.126   8.474
 1701POPC   C3B25941  37.470  15.246   8.083
 1701POPC   C4B25942  37.232  15.303   7.720
 1702POPC   NC325943  12.973   0.846   9.264
 1702POPC   PO425944  12.580   1.348   9.543
 1702POPC   GL125945  12.804   1.320   9.166
 1702POPC   GL225946  13.022   1.638   9.108
 1702POPC   C1A25947  12.681   1.079   8.759
 1702POPC   D2A25948  12.411   1.190   8.451
 1702POPC   C3A25949  12.420   1.134   8.034
 1702POPC   C4A25950  12.493   1.285   7.638
 1702POPC   C1B25951  13.120   1.364   8.775
 1702POPC   C2B25952  12.908   1.370   8.375
 1702POPC   C3B25953  12.932   1.180   8.003
 1702POPC   C4B25954  13.174   1.086   7.679
 1703POPC   NC325955   7.060   9.463   9.486
 1703POPC   PO425956   7.683   9.816   9.604
 1703POPC   GL125957   7.575   9.913   9.173
 1703POPC   GL225958   7.260   9.773   9.126
 1703POPC   C1A25959   7.496   9.865   8.707
 1703POPC   D2A25960   7.185   9.868   8.400
 1703POPC   C3A25961   7.413   9.832   8.016
 1703POPC   C4A25962   7.440   9.455   7.762
 1703POPC   C1B25963   7.062  10.131   8.859
 1703POPC   C2B25964   6.897  10.369   8.499
 1703POPC   C3B25965   7.021  10.254   8.093
 1703POPC   C4B25966   7.030   9.982   7.732
 1704POPC   NC325967  42.402  31.862   9.304
 1704POPC   PO425968  42.718  32.423   9.540
 1704POPC   GL125969  42.481  32.330   9.159
 1704POPC   GL225970  42.116  32.375   9.145
 1704POPC   C1A25971  42.346  32.156   8.742
 1704POPC   D2A25972  42.148  32.245   8.392
 1704POPC   C3A25973  42.333  32.057   8.086
 1704POPC   C4A25974  42.194  32.053   7.687
 1704POPC   C1B25975  42.052  32.636   8.765
 1704POPC   C2B25976  41.976  32.722   8.312
 1704POPC   C3B25977  42.119  32.530   7.885
 1704POPC   C4B25978  42.043  32.441   7.397
 1705POPC   NC325979  10.871  23.104   9.547
 1705POPC   PO425980  10.280  22.765   9.485
 1705POPC   GL125981  10.578  22.794   9.204
 1705POPC   GL225982  10.624  23.115   9.102
 1705POPC   C1A25983  10.632  22.653   8.777
 1705POPC   D2A25984  10.405  22.670   8.381
 1705POPC   C3A25985  10.624  22.561   8.008
 1705POPC   C4A25986  10.673  22.560   7.558
 1705POPC   C1B25987  10.545  23.125   8.658
 1705POPC   C2B25988  10.761  23.036   8.273
 1705POPC   C3B25989  10.596  23.153   7.886
 1705POPC   C4B25990  10.206  23.359   7.740
 1706POPC   NC325991  22.263  39.783  10.077
 1706POPC   PO425992  22.279  39.913   9.398
 1706POPC   GL125993  22.077  39.679   9.011
 1706POPC   GL225994  21.927  39.333   9.070
 1706POPC   C1A25995  22.196  39.435   8.594
 1706POPC   D2A25996  22.202  39.230   8.167
 1706POPC   C3A25997  22.323  39.432   7.771
 1706POPC   C4A25998  22.100  39.425   7.382
 1706POPC   C1B25999  21.700  39.292   8.674
 1706POPC   C2B26000  21.743  39.464   8.252
 1706POPC   C3B26001  21.806  39.362   7.814
 1706POPC   C4B26002  22.068  38.992   7.651
 1707POPC   NC326003  21.394  44.231   9.819
 1707POPC   PO426004  21.632  43.684   9.420
 1707POPC   GL126005  21.396  43.833   9.074
 1707POPC   GL226006  21.160  44.134   9.018
 1707POPC   C1A26007  21.405  43.712   8.654
 1707POPC   D2A26008  21.179  43.900   8.334
 1707POPC   C3A26009  21.359  43.804   8.024
 1707POPC   C4A26010  21.220  43.606   7.695
 1707POPC   C1B26011  21.387  44.227   8.671
 1707POPC   C2B26012  21.690  44.242   8.331
 1707POPC   C3B26013  21.601  44.382   7.898
 1707POPC   C4B26014  21.391  44.086   7.620
 1708POPC   NC326015  31.567   9.257   9.355
 1708POPC   PO426016  31.311   8.666   9.611
 1708POPC   GL126017  31.126   8.874   9.161
 1708POPC   GL226018  31.273   9.178   8.968
 1708POPC   C1A26019  31.203   8.728   8.734
 1708POPC   D2A26020  31.391   8.992   8.400
 1708POPC   C3A26021  31.326   8.879   8.005
 1708POPC   C4A26022  31.148   8.546   7.803
 1708POPC   C1B26023  31.660   9.269   8.714
 1708POPC   C2B26024  31.918   8.974   8.493
 1708POPC   C3B26025  31.848   8.937   8.066
 1708POPC   C4B26026  31.635   9.133   7.711
 1709POPC   NC326027  24.213  42.399   9.530
 1709POPC   PO426028  24.875  42.338   9.439
 1709POPC   GL126029  24.592  42.388   9.116
 1709POPC   GL226030  24.333  42.138   9.123
 1709POPC   C1A26031  24.588  42.624   8.734
 1709POPC   D2A26032  24.759  42.804   8.341
 1709POPC   C3A26033  24.475  42.705   7.988
 1709POPC   C4A26034  24.588  42.415   7.683
 1709POPC   C1B26035  24.519  42.032   8.763
 1709POPC   C2B26036  24.452  41.979   8.409
 1709POPC   C3B26037  24.454  42.167   8.084
 1709POPC   C4B26038  24.304  42.004   7.748
 1710POPC   NC326039  29.310  41.245   9.499
 1710POPC   PO426040  28.909  41.782   9.345
 1710POPC   GL126041  29.178  41.629   9.093
 1710POPC   GL226042  29.045  41.314   9.070
 1710POPC   C1A26043  29.099  41.715   8.689
 1710POPC   D2A26044  29.265  41.532   8.383
 1710POPC   C3A26045  29.049  41.483   8.057
 1710POPC   C4A26046  29.211  41.541   7.668
 1710POPC   C1B26047  29.035  41.124   8.675
 1710POPC   C2B26048  28.681  41.083   8.403
 1710POPC   C3B26049  28.616  41.205   7.989
 1710POPC   C4B26050  28.886  41.125   7.674
 1711POPC   NC326051  32.603  10.579   9.669
 1711POPC   PO426052  32.061  10.913   9.451
 1711POPC   GL126053  32.368  10.642   9.190
 1711POPC   GL226054  32.469  10.283   9.272
 1711POPC   C1A26055  32.264  10.710   8.763
 1711POPC   D2A26056  32.098  10.492   8.377
 1711POPC   C3A26057  32.126  10.731   7.984
 1711POPC   C4A26058  31.929  10.688   7.545
 1711POPC   C1B26059  32.399  10.231   8.856
 1711POPC   C2B26060  32.592  10.407   8.511
 1711POPC   C3B26061  32.474  10.249   8.120
 1711POPC   C4B26062  32.470  10.134   7.721
 1712POPC   NC326063  10.923  35.251   9.523
 1712POPC   PO426064  11.636  35.111   9.507
 1712POPC   GL126065  11.355  35.129   9.191
 1712POPC   GL226066  11.281  35.452   9.220
 1712POPC   C1A26067  11.214  35.038   8.784
 1712POPC   D2A26068  11.165  35.251   8.423
 1712POPC   C3A26069  11.042  35.089   8.039
 1712POPC   C4A26070  11.184  35.179   7.658
 1712POPC   C1B26071  11.221  35.592   8.818
 1712POPC   C2B26072  11.362  35.723   8.422
 1712POPC   C3B26073  11.301  35.547   8.010
 1712POPC   C4B26074  11.489  35.580   7.607
 1713POPC   NC326075  41.103  26.597   9.407
 1713POPC   PO426076  41.700  26.691   9.615
 1713POPC   GL126077  41.556  26.703   9.184
 1713POPC   GL226078  41.487  26.367   9.145
 1713POPC   C1A26079  41.499  26.891   8.775
 1713POPC   D2A26080  41.692  27.121   8.426
 1713POPC   C3A26081  41.560  26.995   8.006
 1713POPC   C4A26082  41.823  27.060   7.665
 1713POPC   C1B26083  41.744  26.390   8.786
 1713POPC   C2B26084  41.666  26.581   8.399
 1713POPC   C3B26085  41.529  26.459   8.019
 1713POPC   C4B26086  41.660  26.568   7.653
 1714POPC   NC326087   1.289  19.990   9.623
 1714POPC   PO426088   0.923  19.508   9.387
 1714POPC   GL126089   1.219  19.789   9.156
 1714POPC   GL226090   1.436  20.124   9.143
 1714POPC   C1A26091   1.120  19.902   8.756
 1714POPC   D2A26092   1.225  19.639   8.428
 1714POPC   C3A26093   1.304  19.829   8.055
 1714POPC   C4A26094   1.184  20.069   7.760
 1714POPC   C1B26095   1.606  19.837   8.807
 1714POPC   C2B26096   1.693  19.863   8.393
 1714POPC   C3B26097   1.784  19.956   7.967
 1714POPC   C4B26098   1.608  19.812   7.594
 1715POPC   NC326099  38.981  35.369   9.574
 1715POPC   PO426100  39.696  35.423   9.626
 1715POPC   GL126101  39.422  35.417   9.197
 1715POPC   GL226102  39.082  35.484   9.105
 1715POPC   C1A26103  39.340  35.355   8.697
 1715POPC   D2A26104  39.186  35.527   8.294
 1715POPC   C3A26105  39.126  35.197   8.035
 1715POPC   C4A26106  39.327  34.864   7.874
 1715POPC   C1B26107  38.865  35.525   8.721
 1715POPC   C2B26108  38.689  35.631   8.328
 1715POPC   C3B26109  38.862  35.692   7.922
 1715POPC   C4B26110  39.245  35.611   7.742
 1716POPC   NC326111  30.755  43.716   9.523
 1716POPC   PO426112  30.153  43.862   9.274
 1716POPC   GL126113  30.476  44.113   9.114
 1716POPC   GL226114  30.827  44.032   9.115
 1716POPC   C1A26115  30.514  44.022   8.688
 1716POPC   D2A26116  30.562  43.796   8.292
 1716POPC   C3A26117  30.544  44.025   7.962
 1716POPC   C4A26118  30.375  43.841   7.653
 1716POPC   C1B26119  31.030  43.977   8.747
 1716POPC   C2B26120  31.066  43.752   8.376
 1716POPC   C3B26121  30.964  43.637   7.964
 1716POPC   C4B26122  30.863  43.766   7.555
 1717POPC   NC326123  39.031  12.944   9.549
 1717POPC   PO426124  39.578  13.297   9.325
 1717POPC   GL126125  39.262  13.086   9.118
 1717POPC   GL226126  38.883  13.205   9.145
 1717POPC   C1A26127  39.423  12.885   8.759
 1717POPC   D2A26128  39.374  12.717   8.380
 1717POPC   C3A26129  39.391  12.892   7.995
 1717POPC   C4A26130  39.208  12.694   7.649
 1717POPC   C1B26131  38.914  13.042   8.751
 1717POPC   C2B26132  39.080  13.164   8.355
 1717POPC   C3B26133  39.094  13.334   7.938
 1717POPC   C4B26134  38.952  13.139   7.548
 1718POPC   NC326135  35.435  12.916   9.423
 1718POPC   PO426136  35.760  12.315   9.410
 1718POPC   GL126137  35.592  12.576   9.047
 1718POPC   GL226138  35.252  12.715   8.979
 1718POPC   C1A26139  35.541  12.643   8.568
 1718POPC   D2A26140  35.292  12.821   8.239
 1718POPC   C3A26141  35.457  12.778   7.830
 1718POPC   C4A26142  35.655  12.607   7.428
 1718POPC   C1B26143  35.022  13.045   8.713
 1718POPC   C2B26144  35.085  13.290   8.302
 1718POPC   C3B26145  35.101  13.168   7.854
 1718POPC   C4B26146  35.052  13.311   7.412
 1719POPC   NC326147   7.804  38.062   9.350
 1719POPC   PO426148   7.512  38.617   9.567
 1719POPC   GL126149   7.574  38.730   9.177
 1719POPC   GL226150   7.474  38.393   9.088
 1719POPC   C1A26151   7.642  38.751   8.765
 1719POPC   D2A26152   7.379  38.605   8.469
 1719POPC   C3A26153   7.519  38.426   8.105
 1719POPC   C4A26154   7.431  38.530   7.702
 1719POPC   C1B26155   7.138  38.287   8.796
 1719POPC   C2B26156   7.107  38.188   8.341
 1719POPC   C3B26157   7.065  38.169   7.905
 1719POPC   C4B26158   7.286  37.990   7.580
 1720POPC   NC326159  16.890  10.747   9.523
 1720POPC   PO426160  17.081  10.065   9.532
 1720POPC   GL126161  16.889  10.325   9.238
 1720POPC   GL226162  17.162  10.407   9.076
 1720POPC   C1A26163  16.702  10.492   8.849
 1720POPC   D2A26164  16.488  10.282   8.510
 1720POPC   C3A26165  16.692  10.260   8.134
 1720POPC   C4A26166  16.633  10.530   7.814
 1720POPC   C1B26167  17.273  10.435   8.682
 1720POPC   C2B26168  16.992  10.570   8.415
 1720POPC   C3B26169  17.033  10.725   8.018
 1720POPC   C4B26170  17.206  10.314   7.928
 1721POPC   NC326171  15.628  11.930   9.522
 1721POPC   PO426172  16.273  11.899   9.468
 1721POPC   GL126173  16.157  12.132   9.103
 1721POPC   GL226174  15.817  12.105   9.060
 1721POPC   C1A26175  16.127  12.108   8.651
 1721POPC   D2A26176  15.747  12.077   8.434
 1721POPC   C3A26177  15.854  11.932   8.042
 1721POPC   C4A26178  15.958  12.155   7.703
 1721POPC   C1B26179  15.607  11.757   8.824
 1721POPC   C2B26180  15.476  11.614   8.417
 1721POPC   C3B26181  15.623  11.483   8.002
 1721POPC   C4B26182  15.720  11.673   7.592
 1722POPC   NC326183  17.546  25.746   9.498
 1722POPC   PO426184  17.368  26.382   9.643
 1722POPC   GL126185  17.360  26.249   9.188
 1722POPC   GL226186  17.668  26.085   9.136
 1722POPC   C1A26187  17.290  25.942   8.817
 1722POPC   D2A26188  17.478  25.814   8.404
 1722POPC   C3A26189  17.341  26.027   8.026
 1722POPC   C4A26190  17.474  25.887   7.632
 1722POPC   C1B26191  17.814  25.802   8.800
 1722POPC   C2B26192  18.024  25.821   8.419
 1722POPC   C3B26193  17.865  25.906   8.009
 1722POPC   C4B26194  17.794  26.247   7.765
 1723POPC   NC326195  22.749  31.009   9.408
 1723POPC   PO426196  22.983  31.575   9.736
 1723POPC   GL126197  22.964  31.484   9.267
 1723POPC   GL226198  23.146  31.213   9.176
 1723POPC   C1A26199  22.784  31.397   8.832
 1723POPC   D2A26200  22.613  31.668   8.488
 1723POPC   C3A26201  22.860  31.679   8.089
 1723POPC   C4A26202  22.774  31.600   7.669
 1723POPC   C1B26203  23.278  31.213   8.808
 1723POPC   C2B26204  23.113  31.359   8.413
 1723POPC   C3B26205  23.321  31.457   8.020
 1723POPC   C4B26206  23.210  31.377   7.609
 1724POPC   NC326207  31.948  34.756   9.482
 1724POPC   PO426208  32.417  34.125   9.606
 1724POPC   GL126209  32.385  34.263   9.133
 1724POPC   GL226210  32.291  34.649   9.096
 1724POPC   C1A26211  32.166  34.347   8.722
 1724POPC   D2A26212  32.107  34.645   8.418
 1724POPC   C3A26213  32.149  34.427   8.043
 1724POPC   C4A26214  32.371  34.380   7.635
 1724POPC   C1B26215  31.905  34.853   8.844
 1724POPC   C2B26216  31.672  34.976   8.453
 1724POPC   C3B26217  31.805  34.844   8.058
 1724POPC   C4B26218  31.997  34.744   7.674
 1725POPC   NC326219  20.728  10.765   9.781
 1725POPC   PO426220  20.908  11.413   9.553
 1725POPC   GL126221  20.644  11.523   9.188
 1725POPC   GL226222  20.844  11.796   9.096
 1725POPC   C1A26223  20.556  11.289   8.789
 1725POPC   D2A26224  20.441  11.050   8.402
 1725POPC   C3A26225  20.614  11.156   8.002
 1725POPC   C4A26226  20.442  11.381   7.673
 1725POPC   C1B26227  20.871  11.695   8.725
 1725POPC   C2B26228  20.753  11.485   8.358
 1725POPC   C3B26229  20.752  11.676   7.977
 1725POPC   C4B26230  20.887  11.616   7.577
 1726POPC   NC326231  13.936  33.178   9.294
 1726POPC   PO426232  14.545  33.140   9.449
 1726POPC   GL126233  14.554  32.905   9.053
 1726POPC   GL226234  14.317  33.142   8.974
 1726POPC   C1A26235  14.515  32.931   8.578
 1726POPC   D2A26236  14.514  33.301   8.314
 1726POPC   C3A26237  14.603  33.119   7.912
 1726POPC   C4A26238  14.909  32.817   7.855
 1726POPC   C1B26239  14.048  33.180   8.630
 1726POPC   C2B26240  14.098  33.022   8.223
 1726POPC   C3B26241  14.135  33.320   7.911
 1726POPC   C4B26242  14.257  33.210   7.520
 1727POPC   NC326243   7.134  35.194   9.411
 1727POPC   PO426244   6.444  35.418   9.448
 1727POPC   GL126245   6.670  35.297   9.073
 1727POPC   GL226246   6.956  35.084   8.968
 1727POPC   C1A26247   6.665  35.319   8.620
 1727POPC   D2A26248   6.504  35.525   8.288
 1727POPC   C3A26249   6.527  35.406   7.869
 1727POPC   C4A26250   6.499  35.352   7.419
 1727POPC   C1B26251   7.056  35.555   8.832
 1727POPC   C2B26252   6.997  35.672   8.412
 1727POPC   C3B26253   7.005  35.396   8.063
 1727POPC   C4B26254   6.921  35.208   7.646
 1728POPC   NC326255  12.095  30.899   9.475
 1728POPC   PO426256  12.461  30.366   9.586
 1728POPC   GL126257  12.312  30.566   9.162
 1728POPC   GL226258  11.939  30.522   9.139
 1728POPC   C1A26259  12.204  30.854   8.798
 1728POPC   D2A26260  12.216  30.711   8.352
 1728POPC   C3A26261  11.989  30.947   8.049
 1728POPC   C4A26262  11.882  30.920   7.626
 1728POPC   C1B26263  12.077  30.367   8.721
 1728POPC   C2B26264  11.942  30.290   8.285
 1728POPC   C3B26265  12.000  30.463   7.862
 1728POPC   C4B26266  11.808  30.327   7.468
 1729POPC   NC326267  26.221  24.357   9.395
 1729POPC   PO426268  25.780  24.793   9.509
 1729POPC   GL126269  25.902  24.802   9.141
 1729POPC   GL226270  26.236  24.841   9.102
 1729POPC   C1A26271  25.820  24.683   8.760
 1729POPC   D2A26272  25.938  24.457   8.424
 1729POPC   C3A26273  25.903  24.739   8.124
 1729POPC   C4A26274  25.903  24.571   7.741
 1729POPC   C1B26275  26.314  24.562   8.754
 1729POPC   C2B26276  26.476  24.607   8.336
 1729POPC   C3B26277  26.304  24.409   8.034
 1729POPC   C4B26278  26.295  24.230   7.673
 1730POPC   NC326279   6.344  18.021   9.501
 1730POPC   PO426280   6.958  18.409   9.575
 1730POPC   GL126281   6.927  18.269   9.124
 1730POPC   GL226282   6.901  17.923   8.966
 1730POPC   C1A26283   6.876  18.314   8.636
 1730POPC   D2A26284   6.820  18.017   8.273
 1730POPC   C3A26285   6.884  18.169   7.833
 1730POPC   C4A26286   6.904  18.613   7.736
 1730POPC   C1B26287   6.464  18.010   8.788
 1730POPC   C2B26288   6.309  18.089   8.341
 1730POPC   C3B26289   6.414  17.964   7.896
 1730POPC   C4B26290   6.556  18.068   7.454
 1731POPC   NC326291  41.129  15.239   9.517
 1731POPC   PO426292  40.466  15.116   9.471
 1731POPC   GL126293  40.497  15.285   9.086
 1731POPC   GL226294  40.858  15.265   9.047
 1731POPC   C1A26295  40.531  15.154   8.639
 1731POPC   D2A26296  40.794  15.163   8.236
 1731POPC   C3A26297  40.708  15.140   7.785
 1731POPC   C4A26298  40.527  14.918   7.431
 1731POPC   C1B26299  41.030  14.997   8.670
 1731POPC   C2B26300  41.188  14.856   8.215
 1731POPC   C3B26301  41.227  15.063   7.788
 1731POPC   C4B26302  41.499  15.096   7.413
 1732POPC   NC326303  32.565  40.994   9.347
 1732POPC   PO426304  32.396  40.320   9.489
 1732POPC   GL126305  32.446  40.517   9.080
 1732POPC   GL226306  32.172  40.727   9.141
 1732POPC   C1A26307  32.431  40.746   8.647
 1732POPC   D2A26308  32.598  41.044   8.300
 1732POPC   C3A26309  32.605  40.852   7.892
 1732POPC   C4A26310  32.294  40.660   7.646
 1732POPC   C1B26311  32.008  40.998   8.833
 1732POPC   C2B26312  32.084  41.102   8.429
 1732POPC   C3B26313  32.132  40.820   8.118
 1732POPC   C4B26314  31.855  40.875   7.781
 1733POPC   NC326315  24.831  32.511   9.385
 1733POPC   PO426316  24.294  32.131   9.494
 1733POPC   GL126317  24.464  32.205   9.126
 1733POPC   GL226318  24.523  31.867   9.117
 1733POPC   C1A26319  24.368  32.424   8.759
 1733POPC   D2A26320  24.436  32.221   8.371
 1733POPC   C3A26321  24.355  32.346   7.974
 1733POPC   C4A26322  24.519  32.600   7.664
 1733POPC   C1B26323  24.724  31.808   8.762
 1733POPC   C2B26324  24.541  31.694   8.419
 1733POPC   C3B26325  24.547  31.859   8.032
 1733POPC   C4B26326  24.584  31.911   7.617
 1734POPC   NC326327   5.498  19.930   9.303
 1734POPC   PO426328   4.830  19.701   9.575
 1734POPC   GL126329   4.988  19.910   9.194
 1734POPC   GL226330   5.158  19.678   9.009
 1734POPC   C1A26331   5.032  20.117   8.751
 1734POPC   D2A26332   5.265  19.992   8.353
 1734POPC   C3A26333   5.144  19.959   7.929
 1734POPC   C4A26334   5.349  20.075   7.558
 1734POPC   C1B26335   5.033  19.621   8.628
 1734POPC   C2B26336   4.924  19.409   8.302
 1734POPC   C3B26337   4.903  19.490   7.907
 1734POPC   C4B26338   4.964  19.643   7.508
 1735POPC   NC326339  26.187   8.826   9.503
 1735POPC   PO426340  26.379   9.506   9.330
 1735POPC   GL126341  26.029   9.265   9.093
 1735POPC   GL226342  26.017   8.900   9.027
 1735POPC   C1A26343  25.951   9.217   8.628
 1735POPC   D2A26344  26.098   8.902   8.359
 1735POPC   C3A26345  25.886   8.907   7.961
 1735POPC   C4A26346  25.948   9.193   7.661
 1735POPC   C1B26347  26.394   8.681   8.817
 1735POPC   C2B26348  26.587   8.718   8.394
 1735POPC   C3B26349  26.427   8.757   7.949
 1735POPC   C4B26350  26.429   8.725   7.471
 1736POPC   NC326351  34.908  29.341   9.461
 1736POPC   PO426352  34.237  29.237   9.554
 1736POPC   GL126353  34.455  29.336   9.132
 1736POPC   GL226354  34.715  29.065   9.071
 1736POPC   C1A26355  34.538  29.355   8.663
 1736POPC   D2A26356  34.409  29.177   8.252
 1736POPC   C3A26357  34.399  29.312   7.795
 1736POPC   C4A26358  34.231  29.382   7.332
 1736POPC   C1B26359  34.862  28.943   8.664
 1736POPC   C2B26360  34.927  29.119   8.249
 1736POPC   C3B26361  34.963  28.971   7.833
 1736POPC   C4B26362  34.922  28.753   7.408
 1737POPC   NC326363  22.018  32.445   9.739
 1737POPC   PO426364  22.471  32.299   9.273
 1737POPC   GL126365  22.045  32.271   9.095
 1737POPC   GL226366  21.865  31.958   9.121
 1737POPC   C1A26367  21.838  32.297   8.668
 1737POPC   D2A26368  21.795  32.460   8.217
 1737POPC   C3A26369  22.049  32.241   7.937
 1737POPC   C4A26370  22.446  32.354   7.780
 1737POPC   C1B26371  22.171  31.895   8.760
 1737POPC   C2B26372  22.353  32.133   8.448
 1737POPC   C3B26373  22.404  31.919   8.094
 1737POPC   C4B26374  22.363  31.854   7.703
 1738POPC   NC326375  40.415  36.745   9.623
 1738POPC   PO426376  40.866  37.285   9.565
 1738POPC   GL126377  40.936  37.121   9.162
 1738POPC   GL226378  40.645  36.922   9.133
 1738POPC   C1A26379  41.008  36.834   8.793
 1738POPC   D2A26380  40.776  36.632   8.457
 1738POPC   C3A26381  40.920  36.795   8.119
 1738POPC   C4A26382  40.839  37.127   7.863
 1738POPC   C1B26383  40.485  36.661   8.872
 1738POPC   C2B26384  40.258  36.747   8.480
 1738POPC   C3B26385  40.405  36.702   8.050
 1738POPC   C4B26386  40.655  36.670   7.722
 1739POPC   NC326387  14.568   3.453   9.572
 1739POPC   PO426388  14.490   4.125   9.495
 1739POPC   GL126389  14.509   3.819   9.123
 1739POPC   GL226390  14.328   3.475   9.113
 1739POPC   C1A26391  14.743   3.739   8.700
 1739POPC   D2A26392  14.763   3.415   8.329
 1739POPC   C3A26393  14.534   3.494   7.975
 1739POPC   C4A26394  14.512   3.929   7.869
 1739POPC   C1B26395  14.332   3.432   8.644
 1739POPC   C2B26396  14.054   3.404   8.263
 1739POPC   C3B26397  14.044   3.401   7.805
 1739POPC   C4B26398  14.376   3.325   7.509
 1740POPC   NC326399  42.817   2.183   9.330
 1740POPC   PO426400  43.304   1.839   9.605
 1740POPC   GL126401  43.164   1.802   9.193
 1740POPC   GL226402  43.431   1.691   8.992
 1740POPC   C1A26403  42.883   1.729   8.835
 1740POPC   D2A26404  42.723   1.975   8.496
 1740POPC   C3A26405  42.923   1.816   8.119
 1740POPC   C4A26406  43.091   2.029   7.749
 1740POPC   C1B26407  43.319   1.847   8.590
 1740POPC   C2B26408  43.237   2.191   8.346
 1740POPC   C3B26409  43.448   2.296   7.995
 1740POPC   C4B26410  43.639   2.024   7.684
 1741POPC   NC326411  37.510  39.946   9.707
 1741POPC   PO426412  38.125  40.129   9.625
 1741POPC   GL126413  37.862  40.033   9.236
 1741POPC   GL226414  37.544  39.847   9.165
 1741POPC   C1A26415  37.681  40.182   8.810
 1741POPC   D2A26416  37.599  39.975   8.407
 1741POPC   C3A26417  37.877  39.941   8.094
 1741POPC   C4A26418  37.660  40.153   7.833
 1741POPC   C1B26419  37.790  39.680   8.772
 1741POPC   C2B26420  37.701  39.471   8.333
 1741POPC   C3B26421  37.602  39.559   7.883
 1741POPC   C4B26422  37.918  39.774   7.605
 1742POPC   NC326423  25.892  42.833   9.515
 1742POPC   PO426424  26.400  42.559   9.129
 1742POPC   GL126425  26.097  42.931   9.066
 1742POPC   GL226426  26.155  43.256   9.260
 1742POPC   C1A26427  25.776  43.140   8.780
 1742POPC   D2A26428  25.789  43.397   8.389
 1742POPC   C3A26429  25.706  43.146   8.015
 1742POPC   C4A26430  25.870  43.046   7.573
 1742POPC   C1B26431  26.220  43.367   8.807
 1742POPC   C2B26432  26.318  43.244   8.376
 1742POPC   C3B26433  26.168  43.349   7.976
 1742POPC   C4B26434  25.864  43.542   7.692
 1743POPC   NC326435  27.071  43.589   9.454
 1743POPC   PO426436  26.684  44.057   9.625
 1743POPC   GL126437  26.783  43.936   9.193
 1743POPC   GL226438  26.599  43.637   9.080
 1743POPC   C1A26439  26.809  43.955   8.723
 1743POPC   D2A26440  27.064  43.954   8.302
 1743POPC   C3A26441  26.862  43.940   7.887
 1743POPC   C4A26442  26.755  44.061   7.432
 1743POPC   C1B26443  26.690  43.470   8.655
 1743POPC   C2B26444  26.752  43.526   8.207
 1743POPC   C3B26445  26.853  43.445   7.778
 1743POPC   C4B26446  26.647  43.557   7.410
 1744POPC   NC326447  12.756  31.361   9.390
 1744POPC   PO426448  13.060  32.002   9.498
 1744POPC   GL126449  13.082  31.700   9.150
 1744POPC   GL226450  12.706  31.743   9.063
 1744POPC   C1A26451  12.984  31.434   8.758
 1744POPC   D2A26452  12.827  31.304   8.352
 1744POPC   C3A26453  13.112  31.424   8.044
 1744POPC   C4A26454  13.249  31.332   7.637
 1744POPC   C1B26455  12.516  31.828   8.659
 1744POPC   C2B26456  12.483  31.668   8.241
 1744POPC   C3B26457  12.640  31.543   7.849
 1744POPC   C4B26458  12.668  31.853   7.516
 1745POPC   NC326459  33.337  39.664   9.542
 1745POPC   PO426460  33.265  39.127   9.847
 1745POPC   GL126461  33.177  39.232   9.315
 1745POPC   GL226462  32.842  39.406   9.205
 1745POPC   C1A26463  33.218  39.397   8.864
 1745POPC   D2A26464  32.983  39.382   8.467
 1745POPC   C3A26465  33.145  39.068   8.179
 1745POPC   C4A26466  33.225  39.158   7.752
 1745POPC   C1B26467  32.762  39.071   8.891
 1745POPC   C2B26468  32.613  39.013   8.441
 1745POPC   C3B26469  32.686  39.193   8.015
 1745POPC   C4B26470  32.764  38.947   7.647
 1746POPC   NC326471  10.767  14.850   9.545
 1746POPC   PO426472  10.582  14.203   9.593
 1746POPC   GL126473  10.466  14.402   9.229
 1746POPC   GL226474  10.226  14.151   9.195
 1746POPC   C1A26475  10.656  14.463   8.832
 1746POPC   D2A26476  10.866  14.480   8.463
 1746POPC   C3A26477  10.775  14.306   8.084
 1746POPC   C4A26478  10.798  14.556   7.723
 1746POPC   C1B26479  10.170  14.312   8.820
 1746POPC   C2B26480  10.360  14.241   8.464
 1746POPC   C3B26481  10.216  14.144   8.097
 1746POPC   C4B26482  10.437  14.124   7.743
 1747POPC   NC326483   5.893  42.632   9.627
 1747POPC   PO426484   5.555  42.036   9.700
 1747POPC   GL126485   5.758  42.258   9.300
 1747POPC   GL226486   5.574  42.541   9.169
 1747POPC   C1A26487   5.979  42.344   8.878
 1747POPC   D2A26488   5.985  42.609   8.474
 1747POPC   C3A26489   6.011  42.396   8.037
 1747POPC   C4A26490   6.122  42.011   7.764
 1747POPC   C1B26491   5.507  42.426   8.709
 1747POPC   C2B26492   5.349  42.477   8.291
 1747POPC   C3B26493   5.496  42.424   7.865
 1747POPC   C4B26494   5.641  42.164   7.516
 1748POPC   NC326495   6.740  35.771   9.392
 1748POPC   PO426496   6.462  36.356   9.350
 1748POPC   GL126497   6.554  36.348   8.953
 1748POPC   GL226498   6.792  36.080   8.990
 1748POPC   C1A26499   6.353  36.407   8.570
 1748POPC   D2A26500   6.247  36.364   8.145
 1748POPC   C3A26501   6.596  36.360   7.851
 1748POPC   C4A26502   6.535  36.264   7.421
 1748POPC   C1B26503   6.564  35.845   8.707
 1748POPC   C2B26504   6.587  36.020   8.300
 1748POPC   C3B26505   6.400  35.900   7.918
 1748POPC   C4B26506   6.698  35.804   7.626
 1749POPC   NC326507   0.769  16.534   9.662
 1749POPC   PO426508   0.357  17.151   9.605
 1749POPC   GL126509   0.550  17.014   9.228
 1749POPC   GL226510   0.664  16.669   9.182
 1749POPC   C1A26511   0.556  17.097   8.789
 1749POPC   D2A26512   0.734  17.149   8.374
 1749POPC   C3A26513   0.438  16.928   8.113
 1749POPC   C4A26514   0.438  16.780   7.701
 1749POPC   C1B26515   0.788  16.417   8.831
 1749POPC   C2B26516   0.668  16.605   8.450
 1749POPC   C3B26517   0.728  16.508   8.028
 1749POPC   C4B26518   0.599  16.300   7.667
 1750POPC   NC326519   4.761   3.366   9.503
 1750POPC   PO426520   5.437   3.587   9.503
 1750POPC   GL126521   5.134   3.573   9.169
 1750POPC   GL226522   5.120   3.256   9.151
 1750POPC   C1A26523   4.990   3.614   8.734
 1750POPC   D2A26524   5.142   3.388   8.341
 1750POPC   C3A26525   5.143   3.603   7.947
 1750POPC   C4A26526   4.906   3.979   7.839
 1750POPC   C1B26527   5.022   3.086   8.749
 1750POPC   C2B26528   5.082   2.878   8.339
 1750POPC   C3B26529   5.029   3.096   7.932
 1750POPC   C4B26530   4.894   3.338   7.562
 1751POPC   NC326531  37.803  25.611   9.307
 1751POPC   PO426532  37.415  26.203   9.503
 1751POPC   GL126533  37.511  26.141   9.094
 1751POPC   GL226534  37.882  26.131   9.163
 1751POPC   C1A26535  37.683  25.917   8.724
 1751POPC   D2A26536  37.754  25.589   8.417
 1751POPC   C3A26537  37.642  25.735   7.974
 1751POPC   C4A26538  37.323  26.068   7.768
 1751POPC   C1B26539  38.178  26.335   8.884
 1751POPC   C2B26540  38.269  26.415   8.439
 1751POPC   C3B26541  38.144  26.449   8.010
 1751POPC   C4B26542  37.780  26.254   7.870
 1752POPC   NC326543  19.356   0.489   9.529
 1752POPC   PO426544  18.772   0.172   9.418
 1752POPC   GL126545  19.054   0.291   9.094
 1752POPC   GL226546  19.187   0.637   9.066
 1752POPC   C1A26547  18.884   0.404   8.685
 1752POPC   D2A26548  18.596   0.158   8.405
 1752POPC   C3A26549  18.699   0.290   7.968
 1752POPC   C4A26550  19.139   0.256   7.808
 1752POPC   C1B26551  19.396   0.550   8.650
 1752POPC   C2B26552  19.157   0.565   8.243
 1752POPC   C3B26553  19.137   0.765   7.812
 1752POPC   C4B26554  18.878   0.589   7.476
 1753POPC   NC326555   4.721  23.005   9.409
 1753POPC   PO426556   5.286  22.819   9.585
 1753POPC   GL126557   5.111  22.713   9.168
 1753POPC   GL226558   5.387  22.484   9.085
 1753POPC   C1A26559   4.909  22.886   8.744
 1753POPC   D2A26560   5.017  23.269   8.452
 1753POPC   C3A26561   5.132  23.224   7.997
 1753POPC   C4A26562   4.865  22.953   7.793
 1753POPC   C1B26563   5.405  22.832   8.771
 1753POPC   C2B26564   5.332  22.876   8.348
 1753POPC   C3B26565   5.294  22.724   7.948
 1753POPC   C4B26566   5.403  22.922   7.579
 1754POPC   NC326567  10.061  44.019   9.438
 1754POPC   PO426568   9.405  43.849   9.476
 1754POPC   GL126569   9.681  43.869   9.136
 1754POPC   GL226570   9.795  43.549   9.190
 1754POPC   C1A26571   9.976  43.792   8.780
 1754POPC   D2A26572  10.027  43.955   8.363
 1754POPC   C3A26573   9.618  44.065   8.211
 1754POPC   C4A26574   9.434  44.008   7.811
 1754POPC   C1B26575   9.497  43.520   8.817
 1754POPC   C2B26576   9.648  43.602   8.420
 1754POPC   C3B26577   9.545  43.555   8.008
 1754POPC   C4B26578   9.685  43.607   7.604
 1755POPC   NC326579  23.966  40.676   9.614
 1755POPC   PO426580  23.509  41.116   9.610
 1755POPC   GL126581  23.451  41.105   9.151
 1755POPC   GL226582  23.720  40.886   9.074
 1755POPC   C1A26583  23.287  40.873   8.750
 1755POPC   D2A26584  23.237  40.577   8.378
 1755POPC   C3A26585  23.465  40.618   7.999
 1755POPC   C4A26586  23.886  40.687   7.889
 1755POPC   C1B26587  23.718  41.160   8.697
 1755POPC   C2B26588  23.645  41.021   8.284
 1755POPC   C3B26589  23.608  41.156   7.869
 1755POPC   C4B26590  23.902  41.078   7.540
 1756POPC   NC326591  16.419   4.824   9.475
 1756POPC   PO426592  16.916   5.252   9.603
 1756POPC   GL126593  16.813   5.105   9.219
 1756POPC   GL226594  16.538   5.319   9.200
 1756POPC   C1A26595  16.768   4.958   8.798
 1756POPC   D2A26596  16.891   5.179   8.438
 1756POPC   C3A26597  16.895   4.891   8.123
 1756POPC   C4A26598  16.739   4.909   7.725
 1756POPC   C1B26599  16.475   5.377   8.764
 1756POPC   C2B26600  16.400   5.148   8.400
 1756POPC   C3B26601  16.377   4.937   8.052
 1756POPC   C4B26602  16.231   4.926   7.622
 1757POPC   NC326603  10.207  40.893   9.416
 1757POPC   PO426604   9.599  40.460   9.436
 1757POPC   GL126605   9.587  40.670   9.050
 1757POPC   GL226606   9.922  40.702   9.047
 1757POPC   C1A26607   9.500  40.749   8.597
 1757POPC   D2A26608   9.476  41.020   8.227
 1757POPC   C3A26609   9.718  40.803   7.919
 1757POPC   C4A26610   9.717  40.696   7.454
 1757POPC   C1B26611   9.843  41.067   8.792
 1757POPC   C2B26612   9.958  41.065   8.396
 1757POPC   C3B26613  10.007  41.228   8.021
 1757POPC   C4B26614   9.957  41.113   7.599
 1758POPC   NC326615  30.789  39.452   9.520
 1758POPC   PO426616  30.738  40.115   9.668
 1758POPC   GL126617  30.773  40.014   9.264
 1758POPC   GL226618  30.416  39.887   9.227
 1758POPC   C1A26619  30.750  40.246   8.855
 1758POPC   D2A26620  30.575  40.117   8.457
 1758POPC   C3A26621  30.750  40.255   8.073
 1758POPC   C4A26622  30.774  40.059   7.704
 1758POPC   C1B26623  30.645  39.728   8.872
 1758POPC   C2B26624  30.848  39.614   8.500
 1758POPC   C3B26625  30.669  39.759   8.097
 1758POPC   C4B26626  30.450  39.653   7.691
 1759POPC   NC326627  31.983  33.920   9.514
 1759POPC   PO426628  32.258  33.348   9.728
 1759POPC   GL126629  32.328  33.612   9.275
 1759POPC   GL226630  32.627  33.800   9.189
 1759POPC   C1A26631  32.246  33.826   8.861
 1759POPC   D2A26632  32.227  33.943   8.416
 1759POPC   C3A26633  32.018  33.682   8.087
 1759POPC   C4A26634  31.981  34.008   7.785
 1759POPC   C1B26635  32.632  33.439   8.888
 1759POPC   C2B26636  32.438  33.483   8.471
 1759POPC   C3B26637  32.530  33.688   8.076
 1759POPC   C4B26638  32.406  33.490   7.735
 1760POPC   NC326639  31.773  32.132   9.553
 1760POPC   PO426640  31.393  32.613   9.452
 1760POPC   GL126641  31.351  32.198   9.221
 1760POPC   GL226642  31.003  32.098   9.221
 1760POPC   C1A26643  31.508  32.052   8.818
 1760POPC   D2A26644  31.716  32.346   8.524
 1760POPC   C3A26645  31.580  32.309   8.112
 1760POPC   C4A26646  31.416  32.055   7.741
 1760POPC   C1B26647  30.965  32.372   8.858
 1760POPC   C2B26648  31.184  32.294   8.486
 1760POPC   C3B26649  31.090  32.287   8.059
 1760POPC   C4B26650  31.257  32.548   7.745
 1761POPC   NC326651   8.523  12.455   9.414
 1761POPC   PO426652   9.059  12.943   9.430
 1761POPC   GL126653   9.055  12.760   9.076
 1761POPC   GL226654   8.771  12.587   8.929
 1761POPC   C1A26655   9.057  12.976   8.710
 1761POPC   D2A26656   9.136  12.821   8.332
 1761POPC   C3A26657   9.060  13.054   7.968
 1761POPC   C4A26658   8.839  12.874   7.645
 1761POPC   C1B26659   9.159  12.445   8.694
 1761POPC   C2B26660   9.376  12.381   8.269
 1761POPC   C3B26661   9.178  12.552   7.867
 1761POPC   C4B26662   9.126  12.520   7.376
 1762POPC   NC326663  23.019  28.615   9.454
 1762POPC   PO426664  23.376  28.002   9.540
 1762POPC   GL126665  23.153  28.021   9.157
 1762POPC   GL226666  22.861  28.181   9.167
 1762POPC   C1A26667  23.117  28.265   8.750
 1762POPC   D2A26668  23.145  28.495   8.376
 1762POPC   C3A26669  23.163  28.263   8.036
 1762POPC   C4A26670  22.989  28.402   7.664
 1762POPC   C1B26671  22.614  28.305   8.829
 1762POPC   C2B26672  22.713  28.198   8.422
 1762POPC   C3B26673  22.668  28.394   8.062
 1762POPC   C4B26674  22.463  28.421   7.688
 1763POPC   NC326675  38.064  21.693   9.515
 1763POPC   PO426676  38.562  21.329   9.803
 1763POPC   GL126677  38.550  21.411   9.334
 1763POPC   GL226678  38.211  21.398   9.124
 1763POPC   C1A26679  38.619  21.476   8.878
 1763POPC   D2A26680  38.492  21.179   8.568
 1763POPC   C3A26681  38.374  21.350   8.142
 1763POPC   C4A26682  38.623  21.378   7.768
 1763POPC   C1B26683  38.159  21.689   8.774
 1763POPC   C2B26684  38.010  21.671   8.330
 1763POPC   C3B26685  38.175  21.770   7.885
 1763POPC   C4B26686  38.186  21.516   7.507
 1764POPC   NC326687  41.222  38.351   9.351
 1764POPC   PO426688  41.696  38.680   9.634
 1764POPC   GL126689  41.692  38.479   9.147
 1764POPC   GL226690  41.389  38.403   8.886
 1764POPC   C1A26691  41.731  38.680   8.683
 1764POPC   D2A26692  41.541  38.469   8.315
 1764POPC   C3A26693  41.591  38.669   7.905
 1764POPC   C4A26694  41.783  38.528   7.540
 1764POPC   C1B26695  41.780  38.169   8.718
 1764POPC   C2B26696  41.813  37.954   8.320
 1764POPC   C3B26697  41.694  38.134   7.900
 1764POPC   C4B26698  41.255  38.294   7.817
 1765POPC   NC326699  34.819  11.596   9.416
 1765POPC   PO426700  34.211  11.403   9.563
 1765POPC   GL126701  34.491  11.304   9.184
 1765POPC   GL226702  34.320  11.507   9.059
 1765POPC   C1A26703  34.706  11.451   8.778
 1765POPC   D2A26704  34.464  11.639   8.462
 1765POPC   C3A26705  34.686  11.644   8.054
 1765POPC   C4A26706  34.583  11.469   7.627
 1765POPC   C1B26707  34.150  11.316   8.787
 1765POPC   C2B26708  34.181  11.166   8.437
 1765POPC   C3B26709  34.314  11.297   8.088
 1765POPC   C4B26710  34.276  10.992   7.823
 1766POPC   NC326711  10.483   1.722   9.539
 1766POPC   PO426712  10.610   2.382   9.518
 1766POPC   GL126713  10.457   2.128   9.192
 1766POPC   GL226714  10.714   1.955   9.026
 1766POPC   C1A26715  10.296   2.001   8.793
 1766POPC   D2A26716  10.224   1.760   8.464
 1766POPC   C3A26717  10.265   1.881   8.040
 1766POPC   C4A26718  10.421   1.768   7.653
 1766POPC   C1B26719  10.981   1.766   8.697
 1766POPC   C2B26720  10.718   1.775   8.329
 1766POPC   C3B26721  10.743   2.023   7.970
 1766POPC   C4B26722  11.014   1.930   7.630
 1767POPC   NC326723  10.599  17.081   9.238
 1767POPC   PO426724  10.524  17.545   9.805
 1767POPC   GL126725  10.415  17.549   9.291
 1767POPC   GL226726  10.097  17.632   9.165
 1767POPC   C1A26727  10.534  17.550   8.773
 1767POPC   D2A26728  10.575  17.448   8.313
 1767POPC   C3A26729  10.722  17.677   7.940
 1767POPC   C4A26730  10.676  17.572   7.458
 1767POPC   C1B26731  10.067  17.341   8.804
 1767POPC   C2B26732  10.218  17.089   8.470
 1767POPC   C3B26733  10.170  17.221   8.094
 1767POPC   C4B26734  10.412  17.313   7.787
 1768POPC   NC326735  32.454  41.789   9.384
 1768POPC   PO426736  32.097  41.139   9.472
 1768POPC   GL126737  32.174  41.419   9.153
 1768POPC   GL226738  32.043  41.780   9.070
 1768POPC   C1A26739  32.293  41.459   8.753
 1768POPC   D2A26740  32.069  41.612   8.461
 1768POPC   C3A26741  32.276  41.541   8.132
 1768POPC   C4A26742  32.267  41.221   7.824
 1768POPC   C1B26743  32.313  41.996   8.772
 1768POPC   C2B26744  32.584  41.873   8.446
 1768POPC   C3B26745  32.562  41.981   8.021
 1768POPC   C4B26746  32.385  41.735   7.685
 1769POPC   NC326747  20.202  39.655   9.451
 1769POPC   PO426748  20.110  38.962   9.461
 1769POPC   GL126749  19.861  39.282   9.220
 1769POPC   GL226750  20.114  39.440   9.012
 1769POPC   C1A26751  19.653  39.355   8.800
 1769POPC   D2A26752  19.833  39.426   8.363
 1769POPC   C3A26753  19.670  39.273   7.969
 1769POPC   C4A26754  19.629  38.895   7.722
 1769POPC   C1B26755  20.377  39.490   8.681
 1769POPC   C2B26756  20.297  39.616   8.253
 1769POPC   C3B26757  20.169  39.298   7.931
 1769POPC   C4B26758  20.155  39.312   7.490
 1770POPC   NC326759  38.674  28.133   9.403
 1770POPC   PO426760  38.175  28.508   9.226
 1770POPC   GL126761  38.423  28.298   8.990
 1770POPC   GL226762  38.758  28.438   9.005
 1770POPC   C1A26763  38.491  28.345   8.592
 1770POPC   D2A26764  38.306  28.555   8.339
 1770POPC   C3A26765  38.353  28.382   7.986
 1770POPC   C4A26766  38.307  28.469   7.588
 1770POPC   C1B26767  38.967  28.523   8.646
 1770POPC   C2B26768  38.843  28.438   8.224
 1770POPC   C3B26769  38.828  28.411   7.798
 1770POPC   C4B26770  38.868  28.715   7.496
 1771POPC   NC326771  15.424   4.892   9.414
 1771POPC   PO426772  16.050   5.055   9.658
 1771POPC   GL126773  16.045   5.120   9.196
 1771POPC   GL226774  15.747   5.326   9.118
 1771POPC   C1A26775  16.021   5.145   8.720
 1771POPC   D2A26776  15.920   5.340   8.313
 1771POPC   C3A26777  15.884   5.109   7.938
 1771POPC   C4A26778  15.774   5.215   7.494
 1771POPC   C1B26779  15.558   5.338   8.692
 1771POPC   C2B26780  15.586   4.936   8.405
 1771POPC   C3B26781  15.564   4.716   7.985
 1771POPC   C4B26782  15.383   4.998   7.697
 1772POPC   NC326783   7.448  42.398   9.827
 1772POPC   PO426784   7.116  42.056   9.372
 1772POPC   GL126785   7.440  42.185   9.118
 1772POPC   GL226786   7.600  42.480   9.238
 1772POPC   C1A26787   7.374  42.389   8.731
 1772POPC   D2A26788   7.137  42.333   8.371
 1772POPC   C3A26789   7.314  42.455   8.010
 1772POPC   C4A26790   7.192  42.199   7.672
 1772POPC   C1B26791   7.781  42.657   8.862
 1772POPC   C2B26792   7.710  42.634   8.409
 1772POPC   C3B26793   7.848  42.707   8.000
 1772POPC   C4B26794   7.571  42.763   7.652
 1773POPC   NC326795  13.998  12.264   9.392
 1773POPC   PO426796  13.599  11.742   9.350
 1773POPC   GL126797  13.580  11.803   8.923
 1773POPC   GL226798  13.687  12.104   8.993
 1773POPC   C1A26799  13.582  12.013   8.504
 1773POPC   D2A26800  13.342  12.279   8.254
 1773POPC   C3A26801  13.425  12.100   7.849
 1773POPC   C4A26802  13.640  11.718   7.771
 1773POPC   C1B26803  13.806  12.420   8.726
 1773POPC   C2B26804  13.889  12.625   8.366
 1773POPC   C3B26805  13.715  12.504   8.029
 1773POPC   C4B26806  13.860  12.345   7.686
 1774POPC   NC326807  36.183   4.597   9.628
 1774POPC   PO426808  36.345   4.070   9.576
 1774POPC   GL126809  36.094   4.287   9.211
 1774POPC   GL226810  36.135   4.664   9.129
 1774POPC   C1A26811  35.940   4.350   8.767
 1774POPC   D2A26812  36.063   4.503   8.343
 1774POPC   C3A26813  35.850   4.303   7.986
 1774POPC   C4A26814  35.787   4.120   7.536
 1774POPC   C1B26815  36.018   4.863   8.744
 1774POPC   C2B26816  36.025   5.022   8.342
 1774POPC   C3B26817  36.196   4.829   7.970
 1774POPC   C4B26818  36.353   4.418   7.877
 1775POPC   NC326819  40.724  23.565   9.617
 1775POPC   PO426820  41.268  23.580   9.286
 1775POPC   GL126821  40.923  23.748   9.056
 1775POPC   GL226822  40.550  23.721   9.165
 1775POPC   C1A26823  40.996  23.711   8.615
 1775POPC   D2A26824  41.200  23.585   8.225
 1775POPC   C3A26825  40.945  23.571   7.858
 1775POPC   C4A26826  40.630  23.597   7.492
 1775POPC   C1B26827  40.505  23.879   8.778
 1775POPC   C2B26828  40.547  23.673   8.385
 1775POPC   C3B26829  40.485  23.751   7.963
 1775POPC   C4B26830  40.775  24.035   7.729
 1776POPC   NC326831  26.325  26.143   9.551
 1776POPC   PO426832  25.763  26.080   9.879
 1776POPC   GL126833  25.864  26.090   9.314
 1776POPC   GL226834  25.813  25.858   9.127
 1776POPC   C1A26835  26.158  26.167   8.915
 1776POPC   D2A26836  26.154  26.021   8.451
 1776POPC   C3A26837  26.197  26.317   8.119
 1776POPC   C4A26838  26.193  26.138   7.704
 1776POPC   C1B26839  26.064  25.679   8.814
 1776POPC   C2B26840  26.076  25.495   8.406
 1776POPC   C3B26841  26.142  25.683   8.012
 1776POPC   C4B26842  25.895  25.673   7.650
 1777POPC   NC326843  42.271  36.870   9.530
 1777POPC   PO426844  42.565  37.324   9.238
 1777POPC   GL126845  42.255  36.995   9.034
 1777POPC   GL226846  42.071  36.672   9.083
 1777POPC   C1A26847  42.206  36.847   8.621
 1777POPC   D2A26848  42.548  36.963   8.431
 1777POPC   C3A26849  42.402  36.885   8.068
 1777POPC   C4A26850  42.443  36.950   7.661
 1777POPC   C1B26851  42.459  36.508   8.888
 1777POPC   C2B26852  42.604  36.448   8.442
 1777POPC   C3B26853  42.475  36.361   8.010
 1777POPC   C4B26854  42.112  36.566   7.798
 1778POPC   NC326855  11.640  44.469   9.685
 1778POPC   PO426856  11.774   0.045   9.340
 1778POPC   GL126857  12.046  44.749   9.149
 1778POPC   GL226858  12.027  44.464   9.315
 1778POPC   C1A26859  12.139  44.790   8.752
 1778POPC   D2A26860  12.048  44.585   8.420
 1778POPC   C3A26861  12.054  44.829   8.113
 1778POPC   C4A26862  12.022  44.720   7.725
 1778POPC   C1B26863  12.238  44.304   8.920
 1778POPC   C2B26864  12.380  44.216   8.484
 1778POPC   C3B26865  12.180  44.219   8.066
 1778POPC   C4B26866  12.331  44.338   7.664
 1779POPC   NC326867  38.404  36.358   9.699
 1779POPC   PO426868  38.789  35.879   9.504
 1779POPC   GL126869  38.497  36.139   9.194
 1779POPC   GL226870  38.445  36.492   9.196
 1779POPC   C1A26871  38.343  36.281   8.744
 1779POPC   D2A26872  38.417  36.093   8.309
 1779POPC   C3A26873  38.241  36.165   7.869
 1779POPC   C4A26874  38.265  35.970   7.385
 1779POPC   C1B26875  38.780  36.491   8.908
 1779POPC   C2B26876  38.753  36.473   8.473
 1779POPC   C3B26877  38.695  36.437   8.030
 1779POPC   C4B26878  38.706  36.141   7.704
 1780POPC   NC326879  16.138   0.732   9.345
 1780POPC   PO426880  15.766   1.261   9.429
 1780POPC   GL126881  15.811   1.271   9.046
 1780POPC   GL226882  15.950   1.534   8.937
 1780POPC   C1A26883  15.687   1.116   8.696
 1780POPC   D2A26884  15.885   0.848   8.430
 1780POPC   C3A26885  15.857   1.026   8.051
 1780POPC   C4A26886  15.651   1.299   7.796
 1780POPC   C1B26887  16.122   1.355   8.604
 1780POPC   C2B26888  16.037   1.486   8.221
 1780POPC   C3B26889  16.084   1.670   7.838
 1780POPC   C4B26890  16.194   1.310   7.742
 1781POPC   NC326891  35.485  11.153   9.511
 1781POPC   PO426892  34.838  10.962   9.400
 1781POPC   GL126893  35.129  11.270   9.122
 1781POPC   GL226894  35.528  11.399   9.082
 1781POPC   C1A26895  35.184  11.366   8.673
 1781POPC   D2A26896  35.154  11.605   8.304
 1781POPC   C3A26897  35.191  11.350   7.941
 1781POPC   C4A26898  35.039  11.224   7.513
 1781POPC   C1B26899  35.620  11.119   8.758
 1781POPC   C2B26900  35.561  11.257   8.339
 1781POPC   C3B26901  35.699  11.361   7.955
 1781POPC   C4B26902  35.888  11.269   7.600
 1782POPC   NC326903  28.023  37.535   9.639
 1782POPC   PO426904  28.596  37.799   9.656
 1782POPC   GL126905  28.325  37.708   9.244
 1782POPC   GL226906  28.230  38.046   9.225
 1782POPC   C1A26907  28.064  37.784   8.823
 1782POPC   D2A26908  28.005  37.565   8.403
 1782POPC   C3A26909  28.128  37.753   8.004
 1782POPC   C4A26910  28.343  37.543   7.666
 1782POPC   C1B26911  28.485  38.066   8.846
 1782POPC   C2B26912  28.429  37.863   8.442
 1782POPC   C3B26913  28.565  38.037   8.037
 1782POPC   C4B26914  28.515  38.028   7.589
 1783POPC   NC326915   7.245  33.436   9.453
 1783POPC   PO426916   7.568  34.082   9.523
 1783POPC   GL126917   7.530  33.794   9.201
 1783POPC   GL226918   7.683  33.443   9.179
 1783POPC   C1A26919   7.331  33.725   8.812
 1783POPC   D2A26920   7.393  33.573   8.425
 1783POPC   C3A26921   7.132  33.693   8.109
 1783POPC   C4A26922   7.334  33.885   7.772
 1783POPC   C1B26923   7.828  33.620   8.819
 1783POPC   C2B26924   7.736  33.967   8.558
 1783POPC   C3B26925   7.716  33.851   8.136
 1783POPC   C4B26926   7.765  33.644   7.740
 1784POPC   NC326927  36.185   5.558   9.352
 1784POPC   PO426928  35.979   5.000   9.543
 1784POPC   GL126929  35.919   5.178   9.137
 1784POPC   GL226930  36.266   5.167   9.052
 1784POPC   C1A26931  35.837   5.355   8.710
 1784POPC   D2A26932  35.634   5.349   8.262
 1784POPC   C3A26933  35.926   5.263   7.905
 1784POPC   C4A26934  36.072   5.066   7.521
 1784POPC   C1B26935  36.387   5.248   8.641
 1784POPC   C2B26936  36.487   5.181   8.205
 1784POPC   C3B26937  36.530   5.160   7.762
 1784POPC   C4B26938  36.569   5.260   7.308
 1785POPC   NC326939  43.510  38.655   9.414
 1785POPC   PO426940  43.107  38.139   9.543
 1785POPC   GL126941  42.986  38.238   9.118
 1785POPC   GL226942  43.285  38.400   9.011
 1785POPC   C1A26943  42.792  38.495   8.761
 1785POPC   D2A26944  42.996  38.780   8.462
 1785POPC   C3A26945  43.062  38.510   8.137
 1785POPC   C4A26946  43.132  38.510   7.734
 1785POPC   C1B26947  43.457  38.639   8.661
 1785POPC   C2B26948  43.565  38.469   8.261
 1785POPC   C3B26949  43.623  38.584   7.851
 1785POPC   C4B26950  43.487  38.718   7.434
 1786POPC   NC326951   0.481  15.731   9.587
 1786POPC   PO426952   0.353  16.348   9.620
 1786POPC   GL126953   0.615  16.156   9.284
 1786POPC   GL226954   0.355  16.263   9.079
 1786POPC   C1A26955   0.656  15.930   8.842
 1786POPC   D2A26956   0.654  16.102   8.391
 1786POPC   C3A26957   0.512  15.915   8.000
 1786POPC   C4A26958   0.120  15.908   7.782
 1786POPC   C1B26959   0.285  16.621   8.810
 1786POPC   C2B26960   0.135  16.601   8.376
 1786POPC   C3B26961   0.232  16.371   8.015
 1786POPC   C4B26962   0.078  16.394   7.589
 1787POPC   NC326963   7.584  16.988   9.545
 1787POPC   PO426964   7.219  16.483   9.435
 1787POPC   GL126965   7.421  16.716   9.142
 1787POPC   GL226966   7.694  16.482   9.179
 1787POPC   C1A26967   7.234  16.761   8.752
 1787POPC   D2A26968   7.094  16.402   8.521
 1787POPC   C3A26969   7.163  16.423   8.084
 1787POPC   C4A26970   7.258  16.820   7.842
 1787POPC   C1B26971   7.751  16.704   8.759
 1787POPC   C2B26972   7.555  16.633   8.372
 1787POPC   C3B26973   7.660  16.530   7.980
 1787POPC   C4B26974   7.758  16.923   7.790
 1788POPC   NC326975   1.541   2.563   9.384
 1788POPC   PO426976   1.341   3.236   9.475
 1788POPC   GL126977   1.380   2.961   9.135
 1788POPC   GL226978   1.074   2.701   9.097
 1788POPC   C1A26979   1.455   2.761   8.759
 1788POPC   D2A26980   1.256   2.602   8.454
 1788POPC   C3A26981   1.412   2.846   8.122
 1788POPC   C4A26982   1.298   2.703   7.740
 1788POPC   C1B26983   0.844   2.343   8.843
 1788POPC   C2B26984   0.866   2.234   8.410
 1788POPC   C3B26985   0.939   2.480   8.047
 1788POPC   C4B26986   0.775   2.421   7.644
 1789POPC   NC326987  17.347  36.540   9.620
 1789POPC   PO426988  17.587  37.135   9.741
 1789POPC   GL126989  17.496  36.948   9.314
 1789POPC   GL226990  17.267  36.690   9.122
 1789POPC   C1A26991  17.583  37.036   8.880
 1789POPC   D2A26992  17.429  37.224   8.477
 1789POPC   C3A26993  17.387  37.027   8.057
 1789POPC   C4A26994  17.516  37.180   7.631
 1789POPC   C1B26995  17.436  36.581   8.692
 1789POPC   C2B26996  17.737  36.818   8.438
 1789POPC   C3B26997  17.889  37.053   8.084
 1789POPC   C4B26998  17.911  36.889   7.677
 1790POPC   NC326999   3.043  34.888   9.746
 1790POPC   PO427000   3.557  34.553   9.591
 1790POPC   GL127001   3.644  34.463   9.143
 1790POPC   GL227002   3.352  34.338   8.938
 1790POPC   C1A27003   3.810  34.249   8.753
 1790POPC   D2A27004   3.510  34.208   8.406
 1790POPC   C3A27005   3.595  34.493   8.048
 1790POPC   C4A27006   3.909  34.602   7.749
 1790POPC   C1B27007   3.560  34.716   8.708
 1790POPC   C2B27008   3.517  34.950   8.315
 1790POPC   C3B27009   3.217  34.907   7.972
 1790POPC   C4B27010   3.176  35.098   7.563
 1791POPC   NC327011  19.382  28.642   9.512
 1791POPC   PO427012  18.740  28.385   9.462
 1791POPC   GL127013  19.031  28.426   9.150
 1791POPC   GL227014  19.146  28.090   9.045
 1791POPC   C1A27015  19.075  28.530   8.729
 1791POPC   D2A27016  19.262  28.245   8.451
 1791POPC   C3A27017  19.226  28.395   8.040
 1791POPC   C4A27018  19.357  28.150   7.720
 1791POPC   C1B27019  18.830  28.087   8.712
 1791POPC   C2B27020  18.774  28.296   8.300
 1791POPC   C3B27021  18.858  28.100   7.882
 1791POPC   C4B27022  18.847  28.001   7.425
 1792POPC   NC327023  26.827  27.342   9.668
 1792POPC   PO427024  27.166  27.907   9.732
 1792POPC   GL127025  26.880  27.800   9.334
 1792POPC   GL227026  26.828  27.501   9.195
 1792POPC   C1A27027  26.918  27.880   8.847
 1792POPC   D2A27028  26.921  27.691   8.425
 1792POPC   C3A27029  27.093  27.819   8.057
 1792POPC   C4A27030  26.970  27.932   7.673
 1792POPC   C1B27031  26.648  27.362   8.851
 1792POPC   C2B27032  26.798  27.199   8.500
 1792POPC   C3B27033  26.898  27.247   8.097
 1792POPC   C4B27034  26.732  27.508   7.797
 1793POPC   NC327035  25.888  11.940   9.480
 1793POPC   PO427036  26.402  12.355   9.632
 1793POPC   GL127037  26.257  12.208   9.217
 1793POPC   GL227038  26.548  12.213   9.033
 1793POPC   C1A27039  26.075  12.168   8.784
 1793POPC   D2A27040  25.949  11.913   8.413
 1793POPC   C3A27041  25.746  12.123   8.069
 1793POPC   C4A27042  25.847  11.981   7.634
 1793POPC   C1B27043  26.498  12.446   8.638
 1793POPC   C2B27044  26.205  12.355   8.299
 1793POPC   C3B27045  26.240  12.098   7.949
 1793POPC   C4B27046  26.356  12.228   7.553
 1794POPC   NC327047  17.292  38.987   9.581
 1794POPC   PO427048  17.742  39.499   9.782
 1794POPC   GL127049  17.630  39.363   9.288
 1794POPC   GL227050  17.453  39.042   9.110
 1794POPC   C1A27051  17.702  39.313   8.776
 1794POPC   D2A27052  17.450  39.181   8.384
 1794POPC   C3A27053  17.380  39.434   7.976
 1794POPC   C4A27054  17.658  39.395   7.598
 1794POPC   C1B27055  17.674  38.808   8.757
 1794POPC   C2B27056  17.796  38.789   8.305
 1794POPC   C3B27057  17.552  38.933   7.914
 1794POPC   C4B27058  17.636  38.874   7.461
 1795POPC   NC327059  14.289  12.643   9.729
 1795POPC   PO427060  14.446  13.243   9.486
 1795POPC   GL127061  14.351  13.002   9.122
 1795POPC   GL227062  14.299  12.625   9.171
 1795POPC   C1A27063  14.468  12.970   8.674
 1795POPC   D2A27064  14.224  13.105   8.326
 1795POPC   C3A27065  14.463  13.105   7.985
 1795POPC   C4A27066  14.657  12.713   7.817
 1795POPC   C1B27067  14.336  12.458   8.727
 1795POPC   C2B27068  14.382  12.596   8.275
 1795POPC   C3B27069  14.149  12.727   7.905
 1795POPC   C4B27070  14.167  12.691   7.462
 1796POPC   NC327071  11.253   1.151   9.584
 1796POPC   PO427072  10.920   1.657   9.348
 1796POPC   GL127073  11.128   1.363   9.089
 1796POPC   GL227074  11.375   1.051   9.106
 1796POPC   C1A27075  11.417   1.414   8.752
 1796POPC   D2A27076  11.539   1.115   8.447
 1796POPC   C3A27077  11.553   1.256   8.048
 1796POPC   C4A27078  11.256   1.251   7.781
 1796POPC   C1B27079  11.392   0.745   8.767
 1796POPC   C2B27080  11.666   0.621   8.421
 1796POPC   C3B27081  11.610   0.556   8.005
 1796POPC   C4B27082  11.597   0.841   7.667
 1797POPC   NC327083  22.742  12.962   9.632
 1797POPC   PO427084  22.961  12.419   9.396
 1797POPC   GL127085  22.835  12.748   9.138
 1797POPC   GL227086  22.997  13.075   9.198
 1797POPC   C1A27087  22.927  12.738   8.704
 1797POPC   D2A27088  23.187  12.724   8.332
 1797POPC   C3A27089  22.894  12.617   7.969
 1797POPC   C4A27090  22.849  12.637   7.491
 1797POPC   C1B27091  23.142  13.188   8.783
 1797POPC   C2B27092  22.905  13.170   8.408
 1797POPC   C3B27093  23.058  13.100   8.006
 1797POPC   C4B27094  22.924  13.128   7.624
 1798POPC   NC327095  15.394  27.085   9.705
 1798POPC   PO427096  15.094  27.754   9.570
 1798POPC   GL127097  15.039  27.788   9.136
 1798POPC   GL227098  15.309  27.597   9.078
 1798POPC   C1A27099  15.003  27.669   8.682
 1798POPC   D2A27100  14.875  27.397   8.371
 1798POPC   C3A27101  14.863  27.542   7.954
 1798POPC   C4A27102  14.742  27.900   7.701
 1798POPC   C1B27103  15.554  27.378   8.788
 1798POPC   C2B27104  15.455  27.436   8.385
 1798POPC   C3B27105  15.365  27.615   8.021
 1798POPC   C4B27106  15.266  27.409   7.666
 1799POPC   NC327107   5.820  11.867   9.995
 1799POPC   PO427108   5.572  12.170   9.429
 1799POPC   GL127109   5.887  12.095   9.056
 1799POPC   GL227110   5.784  11.780   8.918
 1799POPC   C1A27111   6.112  12.069   8.667
 1799POPC   D2A27112   6.077  12.287   8.311
 1799POPC   C3A27113   6.179  12.059   7.940
 1799POPC   C4A27114   6.021  12.099   7.531
 1799POPC   C1B27115   5.617  11.911   8.593
 1799POPC   C2B27116   5.684  11.994   8.198
 1799POPC   C3B27117   5.471  11.982   7.850
 1799POPC   C4B27118   5.542  11.867   7.447
 1800POPC   NC327119  34.000   9.324   9.400
 1800POPC   PO427120  33.690   9.942   9.563
 1800POPC   GL127121  33.700   9.903   9.152
 1800POPC   GL227122  33.663   9.553   9.069
 1800POPC   C1A27123  33.619   9.958   8.728
 1800POPC   D2A27124  33.692   9.618   8.464
 1800POPC   C3A27125  33.756   9.770   8.039
 1800POPC   C4A27126  33.651   9.513   7.685
 1800POPC   C1B27127  34.057   9.682   8.836
 1800POPC   C2B27128  34.134   9.879   8.441
 1800POPC   C3B27129  34.264   9.713   8.045
 1800POPC   C4B27130  34.132   9.694   7.624
 1801POPC   NC327131   4.679  13.814   9.422
 1801POPC   PO427132   4.875  13.206   9.393
 1801POPC   GL127133   5.042  13.540   9.091
 1801POPC   GL227134   4.845  13.850   8.965
 1801POPC   C1A27135   5.300  13.753   8.777
 1801POPC   D2A27136   5.263  13.589   8.376
 1801POPC   C3A27137   5.279  13.878   8.058
 1801POPC   C4A27138   5.408  13.736   7.704
 1801POPC   C1B27139   4.794  13.603   8.624
 1801POPC   C2B27140   4.792  13.782   8.236
 1801POPC   C3B27141   4.769  14.132   7.971
 1801POPC   C4B27142   4.931  13.932   7.636
 1802POPC   NC327143   9.789  17.536   9.608
 1802POPC   PO427144  10.160  17.037   9.372
 1802POPC   GL127145   9.722  17.286   9.179
 1802POPC   GL227146   9.581  17.656   9.148
 1802POPC   C1A27147   9.558  17.380   8.744
 1802POPC   D2A27148   9.759  17.367   8.363
 1802POPC   C3A27149   9.487  17.481   8.070
 1802POPC   C4A27150   9.494  17.709   7.727
 1802POPC   C1B27151   9.821  17.815   8.769
 1802POPC   C2B27152  10.139  17.722   8.445
 1802POPC   C3B27153  10.243  17.840   8.032
 1802POPC   C4B27154   9.989  17.589   7.791
 1803POPC   NC327155  43.628  44.946   9.470
 1803POPC   PO427156  44.127  44.520   9.679
 1803POPC   GL127157  43.955  44.625   9.222
 1803POPC   GL227158  43.570  44.612   9.092
 1803POPC   C1A27159  44.043  44.522   8.770
 1803POPC   D2A27160  44.213  44.488   8.327
 1803POPC   C3A27161  43.998  44.621   7.943
 1803POPC   C4A27162  43.889  44.344   7.576
 1803POPC   C1B27163  43.714  44.911   8.772
 1803POPC   C2B27164  43.721  44.708   8.369
 1803POPC   C3B27165  43.488  44.636   7.993
 1803POPC   C4B27166  43.577  44.753   7.580
 1804POPC   NC327167  18.662  24.537   9.411
 1804POPC   PO427168  19.308  24.458   9.567
 1804POPC   GL127169  19.331  24.495   9.109
 1804POPC   GL227170  19.141  24.783   9.159
 1804POPC   C1A27171  19.101  24.352   8.683
 1804POPC   D2A27172  18.697  24.520   8.409
 1804POPC   C3A27173  18.772  24.618   7.952
 1804POPC   C4A27174  18.817  24.288   7.630
 1804POPC   C1B27175  18.970  24.814   8.766
 1804POPC   C2B27176  19.127  24.775   8.321
 1804POPC   C3B27177  19.284  24.667   7.895
 1804POPC   C4B27178  19.175  24.606   7.419
 1805POPC   NC327179   9.192  35.593   9.714
 1805POPC   PO427180   9.824  35.509   9.471
 1805POPC   GL127181   9.745  35.610   9.075
 1805POPC   GL227182   9.595  35.303   8.935
 1805POPC   C1A27183   9.783  35.712   8.657
 1805POPC   D2A27184   9.859  35.421   8.375
 1805POPC   C3A27185   9.597  35.233   8.124
 1805POPC   C4A27186   9.690  35.521   7.804
 1805POPC   C1B27187   9.978  35.128   8.781
 1805POPC   C2B27188  10.106  34.866   8.402
 1805POPC   C3B27189  10.067  35.083   8.052
 1805POPC   C4B27190   9.893  35.048   7.657
 1806POPC   NC327191  26.585  11.927   9.502
 1806POPC   PO427192  27.108  12.275   9.585
 1806POPC   GL127193  27.029  12.089   9.148
 1806POPC   GL227194  26.856  11.765   9.099
 1806POPC   C1A27195  26.857  12.033   8.671
 1806POPC   D2A27196  27.002  12.072   8.268
 1806POPC   C3A27197  26.755  12.099   7.946
 1806POPC   C4A27198  26.777  11.894   7.593
 1806POPC   C1B27199  26.470  11.742   8.807
 1806POPC   C2B27200  26.472  11.861   8.362
 1806POPC   C3B27201  26.517  11.644   7.965
 1806POPC   C4B27202  26.298  11.719   7.566
 1807POPC   NC327203   4.283  42.125   9.452
 1807POPC   PO427204   4.648  42.680   9.410
 1807POPC   GL127205   4.625  42.373   9.148
 1807POPC   GL227206   4.782  42.055   9.308
 1807POPC   C1A27207   4.307  42.440   8.830
 1807POPC   D2A27208   4.304  42.727   8.474
 1807POPC   C3A27209   4.233  42.471   8.112
 1807POPC   C4A27210   4.327  42.318   7.695
 1807POPC   C1B27211   4.614  41.956   8.879
 1807POPC   C2B27212   4.492  42.117   8.472
 1807POPC   C3B27213   4.640  42.118   8.052
 1807POPC   C4B27214   4.780  42.081   7.630
 1808POPC   NC327215  13.310  39.139   9.484
 1808POPC   PO427216  13.723  39.601   9.278
 1808POPC   GL127217  13.496  39.316   9.046
 1808POPC   GL227218  13.576  38.949   9.077
 1808POPC   C1A27219  13.504  39.220   8.658
 1808POPC   D2A27220  13.740  39.154   8.333
 1808POPC   C3A27221  13.556  39.359   8.017
 1808POPC   C4A27222  13.751  39.235   7.686
 1808POPC   C1B27223  13.268  38.774   8.759
 1808POPC   C2B27224  13.233  38.935   8.323
 1808POPC   C3B27225  13.517  38.838   7.959
 1808POPC   C4B27226  13.378  38.866   7.531
 1809POPC   NC327227   2.875  17.892   9.778
 1809POPC   PO427228   2.762  18.508   9.493
 1809POPC   GL127229   3.022  18.240   9.234
 1809POPC   GL227230   2.990  18.477   9.022
 1809POPC   C1A27231   3.060  18.032   8.781
 1809POPC   D2A27232   2.803  17.974   8.362
 1809POPC   C3A27233   3.048  18.014   7.930
 1809POPC   C4A27234   2.986  17.974   7.451
 1809POPC   C1B27235   2.736  18.399   8.672
 1809POPC   C2B27236   2.897  18.452   8.264
 1809POPC   C3B27237   2.614  18.294   7.961
 1809POPC   C4B27238   2.739  18.401   7.555
 1810POPC   NC327239  30.558   5.409   9.580
 1810POPC   PO427240  30.642   4.728   9.594
 1810POPC   GL127241  30.747   4.966   9.204
 1810POPC   GL227242  30.636   5.305   9.090
 1810POPC   C1A27243  30.859   4.997   8.756
 1810POPC   D2A27244  30.711   5.125   8.353
 1810POPC   C3A27245  30.899   4.906   8.023
 1810POPC   C4A27246  30.804   4.903   7.620
 1810POPC   C1B27247  30.559   5.522   8.666
 1810POPC   C2B27248  30.327   5.498   8.289
 1810POPC   C3B27249  30.383   5.225   7.956
 1810POPC   C4B27250  30.540   5.316   7.562
 1811POPC   NC327251   2.710   0.528   9.608
 1811POPC   PO427252   2.982  44.873   9.592
 1811POPC   GL127253   3.022   0.228   9.254
 1811POPC   GL227254   2.987   0.610   9.180
 1811POPC   C1A27255   2.844   0.225   8.834
 1811POPC   D2A27256   2.554   0.369   8.531
 1811POPC   C3A27257   2.725   0.235   8.145
 1811POPC   C4A27258   2.583   0.372   7.780
 1811POPC   C1B27259   2.832   0.732   8.812
 1811POPC   C2B27260   2.984   0.630   8.428
 1811POPC   C3B27261   2.859   0.733   8.026
 1811POPC   C4B27262   3.065   0.529   7.716
 1812POPC   NC327263  23.111   0.102   9.693
 1812POPC   PO427264  22.801   0.654   9.556
 1812POPC   GL127265  22.910   0.410   9.166
 1812POPC   GL227266  23.111   0.110   9.185
 1812POPC   C1A27267  22.866   0.422   8.721
 1812POPC   D2A27268  22.594   0.241   8.428
 1812POPC   C3A27269  22.681   0.297   8.002
 1812POPC   C4A27270  22.953   0.523   7.766
 1812POPC   C1B27271  23.051  44.958   8.767
 1812POPC   C2B27272  23.079   0.153   8.328
 1812POPC   C3B27273  23.142   0.073   7.890
 1812POPC   C4B27274  22.953   0.107   7.472
 1813POPC   NC327275  37.981  42.900   9.464
 1813POPC   PO427276  38.656  42.788   9.575
 1813POPC   GL127277  38.670  42.684   9.144
 1813POPC   GL227278  38.347  42.850   9.020
 1813POPC   C1A27279  38.725  42.718   8.698
 1813POPC   D2A27280  38.391  42.820   8.396
 1813POPC   C3A27281  38.474  42.999   7.967
 1813POPC   C4A27282  38.390  42.904   7.528
 1813POPC   C1B27283  38.033  43.064   8.711
 1813POPC   C2B27284  37.957  43.119   8.246
 1813POPC   C3B27285  37.960  43.071   7.777
 1813POPC   C4B27286  37.970  43.049   7.287
 1814POPC   NC327287  12.407  44.228   9.577
 1814POPC   PO427288  12.933  43.800   9.477
 1814POPC   GL127289  12.899  43.929   9.067
 1814POPC   GL227290  13.247  43.943   8.998
 1814POPC   C1A27291  12.860  44.094   8.656
 1814POPC   D2A27292  13.058  44.070   8.276
 1814POPC   C3A27293  12.716  44.159   8.041
 1814POPC   C4A27294  12.542  43.906   7.771
 1814POPC   C1B27295  13.121  43.650   8.668
 1814POPC   C2B27296  13.246  43.494   8.259
 1814POPC   C3B27297  13.231  43.706   7.854
 1814POPC   C4B27298  13.156  44.123   7.763
 1815POPC   NC327299  44.110  21.539   9.695
 1815POPC   PO427300  43.595  21.169   9.493
 1815POPC   GL127301  43.867  21.333   9.262
 1815POPC   GL227302  44.015  21.094   9.030
 1815POPC   C1A27303  43.897  21.602   8.907
 1815POPC   D2A27304  43.964  21.797   8.497
 1815POPC   C3A27305  44.025  21.603   8.104
 1815POPC   C4A27306  43.914  21.745   7.704
 1815POPC   C1B27307  43.573  20.999   8.865
 1815POPC   C2B27308  43.431  21.068   8.449
 1815POPC   C3B27309  43.731  21.153   8.116
 1815POPC   C4B27310  43.822  21.238   7.689
 1816POPC   NC327311  44.432  41.977   9.815
 1816POPC   PO427312  44.998  42.281   9.433
 1816POPC   GL127313  44.722  42.435   9.097
 1816POPC   GL227314  44.335  42.388   9.181
 1816POPC   C1A27315  44.833  42.507   8.642
 1816POPC   D2A27316   0.116  42.632   8.317
 1816POPC   C3A27317  44.891  42.631   7.896
 1816POPC   C4A27318  44.944  42.458   7.474
 1816POPC   C1B27319  44.354  42.301   8.772
 1816POPC   C2B27320  44.437  42.096   8.446
 1816POPC   C3B27321  44.317  42.048   8.054
 1816POPC   C4B27322  44.453  42.281   7.704
 1817POPC   NC327323   8.740   1.818   9.451
 1817POPC   PO427324   9.043   2.425   9.541
 1817POPC   GL127325   9.022   2.149   9.172
 1817POPC   GL227326   8.695   2.201   9.056
 1817POPC   C1A27327   8.948   1.795   8.847
 1817POPC   D2A27328   8.810   1.670   8.455
 1817POPC   C3A27329   8.888   1.867   8.073
 1817POPC   C4A27330   8.718   1.945   7.702
 1817POPC   C1B27331   8.753   2.408   8.699
 1817POPC   C2B27332   9.035   2.307   8.362
 1817POPC   C3B27333   8.972   2.419   7.951
 1817POPC   C4B27334   8.610   2.452   7.717
 1818POPC   NC327335  34.543  20.846   9.826
 1818POPC   PO427336  34.482  20.398   9.390
 1818POPC   GL127337  34.583  20.530   9.044
 1818POPC   GL227338  34.712  20.845   9.124
 1818POPC   C1A27339  34.656  20.392   8.630
 1818POPC   D2A27340  34.405  20.374   8.264
 1818POPC   C3A27341  34.621  20.539   7.931
 1818POPC   C4A27342  34.760  20.459   7.510
 1818POPC   C1B27343  34.475  20.908   8.714
 1818POPC   C2B27344  34.534  20.880   8.300
 1818POPC   C3B27345  34.227  20.879   7.968
 1818POPC   C4B27346  34.268  20.688   7.603
 1819POPC   NC327347  40.839  24.711   9.484
 1819POPC   PO427348  40.806  24.021   9.492
 1819POPC   GL127349  40.839  24.302   9.136
 1819POPC   GL227350  40.599  24.593   9.071
 1819POPC   C1A27351  40.902  24.206   8.712
 1819POPC   D2A27352  40.764  24.123   8.255
 1819POPC   C3A27353  40.986  24.453   7.957
 1819POPC   C4A27354  40.995  24.688   7.518
 1819POPC   C1B27355  40.448  24.444   8.709
 1819POPC   C2B27356  40.583  24.589   8.326
 1819POPC   C3B27357  40.483  24.432   7.938
 1819POPC   C4B27358  40.155  24.479   7.698
 1820POPC   NC327359  37.028  10.229   9.364
 1820POPC   PO427360  36.760   9.643   9.618
 1820POPC   GL127361  36.917   9.539   9.209
 1820POPC   GL227362  37.140   9.785   9.069
 1820POPC   C1A27363  36.745   9.475   8.793
 1820POPC   D2A27364  36.923   9.555   8.391
 1820POPC   C3A27365  36.654   9.734   8.133
 1820POPC   C4A27366  36.804   9.595   7.752
 1820POPC   C1B27367  36.887   9.967   8.723
 1820POPC   C2B27368  37.015  10.063   8.310
 1820POPC   C3B27369  37.163   9.876   7.960
 1820POPC   C4B27370  37.288   9.845   7.532
 1821POPC   NC327371  44.898  36.615   9.462
 1821POPC   PO427372  44.654  37.204   9.558
 1821POPC   GL127373  44.524  36.896   9.217
 1821POPC   GL227374  44.273  37.032   9.015
 1821POPC   C1A27375  44.625  36.699   8.791
 1821POPC   D2A27376  44.609  36.569   8.327
 1821POPC   C3A27377  44.597  36.840   7.975
 1821POPC   C4A27378  44.890  36.793   7.633
 1821POPC   C1B27379  44.674  37.207   8.845
 1821POPC   C2B27380  44.800  37.067   8.461
 1821POPC   C3B27381  44.985  37.293   8.191
 1821POPC   C4B27382  44.824  37.289   7.810
 1822POPC   NC327383  17.045  42.078   9.843
 1822POPC   PO427384  16.848  42.616   9.439
 1822POPC   GL127385  16.768  42.438   9.063
 1822POPC   GL227386  16.540  42.168   9.046
 1822POPC   C1A27387  16.912  42.219   8.681
 1822POPC   D2A27388  16.726  41.941   8.374
 1822POPC   C3A27389  16.666  42.068   7.957
 1822POPC   C4A27390  16.784  41.989   7.523
 1822POPC   C1B27391  16.421  42.381   8.683
 1822POPC   C2B27392  16.310  42.261   8.302
 1822POPC   C3B27393  16.313  42.484   7.927
 1822POPC   C4B27394  16.636  42.448   7.607
 1823POPC   NC327395  42.256  23.455   9.447
 1823POPC   PO427396  42.605  24.063   9.478
 1823POPC   GL127397  42.500  23.801   9.109
 1823POPC   GL227398  42.178  23.669   8.998
 1823POPC   C1A27399  42.405  23.986   8.699
 1823POPC   D2A27400  42.641  24.136   8.364
 1823POPC   C3A27401  42.545  23.942   7.968
 1823POPC   C4A27402  42.476  23.763   7.555
 1823POPC   C1B27403  42.459  23.440   8.728
 1823POPC   C2B27404  42.596  23.566   8.316
 1823POPC   C3B27405  42.433  23.423   7.930
 1823POPC   C4B27406  42.075  23.169   7.865
 1824POPC   NC327407  15.817  14.721   9.512
 1824POPC   PO427408  15.777  15.384   9.553
 1824POPC   GL127409  15.868  15.121   9.189
 1824POPC   GL227410  16.196  14.928   9.190
 1824POPC   C1A27411  15.762  14.895   8.805
 1824POPC   D2A27412  15.929  14.745   8.405
 1824POPC   C3A27413  15.773  15.031   8.092
 1824POPC   C4A27414  15.528  15.053   7.752
 1824POPC   C1B27415  16.198  15.187   8.802
 1824POPC   C2B27416  16.116  15.267   8.376
 1824POPC   C3B27417  16.271  15.181   7.940
 1824POPC   C4B27418  16.189  15.155   7.487
 1825POPC   NC327419   2.858  13.403   9.582
 1825POPC   PO427420   2.397  13.731   9.467
 1825POPC   GL127421   2.796  13.718   9.164
 1825POPC   GL227422   2.976  13.400   9.077
 1825POPC   C1A27423   2.965  13.842   8.739
 1825POPC   D2A27424   2.960  13.727   8.282
 1825POPC   C3A27425   2.616  13.785   7.953
 1825POPC   C4A27426   2.499  13.678   7.519
 1825POPC   C1B27427   2.842  13.354   8.632
 1825POPC   C2B27428   2.642  13.332   8.213
 1825POPC   C3B27429   2.645  13.211   7.778
 1825POPC   C4B27430   2.838  13.166   7.372
 1826POPC   NC327431  35.843  18.890   9.602
 1826POPC   PO427432  36.412  18.841   9.563
 1826POPC   GL127433  36.135  19.027   9.204
 1826POPC   GL227434  35.840  18.806   9.074
 1826POPC   C1A27435  36.225  19.238   8.825
 1826POPC   D2A27436  36.514  19.124   8.526
 1826POPC   C3A27437  36.387  19.174   8.118
 1826POPC   C4A27438  36.445  19.164   7.687
 1826POPC   C1B27439  35.821  18.930   8.609
 1826POPC   C2B27440  35.937  19.321   8.379
 1826POPC   C3B27441  36.047  19.528   7.974
 1826POPC   C4B27442  35.944  19.189   7.809
 1827POPC   NC327443  26.087   0.805   9.891
 1827POPC   PO427444  26.002   1.461   9.715
 1827POPC   GL127445  26.037   1.319   9.306
 1827POPC   GL227446  26.336   1.474   9.212
 1827POPC   C1A27447  25.933   1.052   8.944
 1827POPC   D2A27448  26.063   0.979   8.516
 1827POPC   C3A27449  25.810   0.891   8.150
 1827POPC   C4A27450  26.035   1.063   7.834
 1827POPC   C1B27451  26.133   1.520   8.839
 1827POPC   C2B27452  26.225   1.479   8.430
 1827POPC   C3B27453  26.196   1.608   8.015
 1827POPC   C4B27454  25.979   1.541   7.660
 1828POPC   NC327455  32.840  40.249   9.312
 1828POPC   PO427456  33.373  40.108   9.683
 1828POPC   GL127457  33.352  40.096   9.220
 1828POPC   GL227458  33.116  39.837   9.117
 1828POPC   C1A27459  33.258  40.146   8.753
 1828POPC   D2A27460  33.225  39.883   8.376
 1828POPC   C3A27461  33.038  40.136   8.057
 1828POPC   C4A27462  33.097  40.078   7.630
 1828POPC   C1B27463  32.849  39.794   8.754
 1828POPC   C2B27464  32.698  39.800   8.314
 1828POPC   C3B27465  32.844  39.679   7.909
 1828POPC   C4B27466  32.839  39.436   7.531
 1829POPC   NC327467  39.892  43.587   9.461
 1829POPC   PO427468  40.073  44.140   9.557
 1829POPC   GL127469  40.231  43.917   9.161
 1829POPC   GL227470  40.079  43.631   9.001
 1829POPC   C1A27471  40.330  44.042   8.736
 1829POPC   D2A27472  40.133  43.935   8.346
 1829POPC   C3A27473  40.252  44.153   7.969
 1829POPC   C4A27474  40.059  44.165   7.533
 1829POPC   C1B27475  40.129  43.471   8.589
 1829POPC   C2B27476  39.896  43.468   8.209
 1829POPC   C3B27477  39.968  43.534   7.774
 1829POPC   C4B27478  40.230  43.347   7.462
 1830POPC   NC327479   8.791  13.321   9.503
 1830POPC   PO427480   9.202  13.732   9.353
 1830POPC   GL127481   9.052  13.411   9.074
 1830POPC   GL227482   8.743  13.598   9.086
 1830POPC   C1A27483   8.955  13.474   8.639
 1830POPC   D2A27484   8.959  13.734   8.305
 1830POPC   C3A27485   9.254  13.701   8.001
 1830POPC   C4A27486   9.209  13.448   7.672
 1830POPC   C1B27487   8.488  13.710   8.763
 1830POPC   C2B27488   8.406  13.893   8.392
 1830POPC   C3B27489   8.498  13.701   8.040
 1830POPC   C4B27490   8.455  13.819   7.622
 1831POPC   NC327491   6.994  27.644   9.751
 1831POPC   PO427492   6.485  27.444   9.644
 1831POPC   GL127493   6.452  27.414   9.172
 1831POPC   GL227494   6.635  27.696   8.992
 1831POPC   C1A27495   6.451  27.324   8.698
 1831POPC   D2A27496   6.533  27.532   8.294
 1831POPC   C3A27497   6.588  27.302   7.885
 1831POPC   C4A27498   6.619  27.452   7.444
 1831POPC   C1B27499   6.930  27.549   8.642
 1831POPC   C2B27500   7.013  27.504   8.178
 1831POPC   C3B27501   6.790  27.762   7.871
 1831POPC   C4B27502   6.974  27.882   7.496
 1832POPC   NC327503  38.000   9.020   9.612
 1832POPC   PO427504  37.307   8.806   9.602
 1832POPC   GL127505  37.607   8.896   9.299
 1832POPC   GL227506  37.442   8.674   9.090
 1832POPC   C1A27507  37.730   9.034   8.879
 1832POPC   D2A27508  37.763   8.904   8.433
 1832POPC   C3A27509  37.816   9.191   8.131
 1832POPC   C4A27510  37.658   9.185   7.737
 1832POPC   C1B27511  37.316   8.833   8.703
 1832POPC   C2B27512  37.327   8.659   8.320
 1832POPC   C3B27513  37.368   8.831   7.946
 1832POPC   C4B27514  37.055   8.642   7.690
 1833POPC   NC327515  26.836  31.057   9.634
 1833POPC   PO427516  26.901  31.690   9.534
 1833POPC   GL127517  26.790  31.379   9.222
 1833POPC   GL227518  27.016  31.091   9.143
 1833POPC   C1A27519  26.624  31.497   8.850
 1833POPC   D2A27520  26.744  31.768   8.533
 1833POPC   C3A27521  26.649  31.677   8.102
 1833POPC   C4A27522  26.841  31.594   7.712
 1833POPC   C1B27523  26.831  31.041   8.751
 1833POPC   C2B27524  26.782  31.268   8.393
 1833POPC   C3B27525  26.777  31.133   7.978
 1833POPC   C4B27526  27.014  31.153   7.596
 1834POPC   NC327527   3.079  32.349   9.397
 1834POPC   PO427528   2.424  32.371   9.561
 1834POPC   GL127529   2.645  32.297   9.117
 1834POPC   GL227530   2.932  32.050   9.033
 1834POPC   C1A27531   2.845  32.427   8.689
 1834POPC   D2A27532   2.520  32.584   8.335
 1834POPC   C3A27533   2.497  32.369   7.922
 1834POPC   C4A27534   2.634  32.169   7.518
 1834POPC   C1B27535   2.650  31.979   8.699
 1834POPC   C2B27536   2.756  32.121   8.295
 1834POPC   C3B27537   2.836  31.965   7.938
 1834POPC   C4B27538   3.088  31.798   7.656
 1835POPC   NC327539  38.789  42.368   9.717
 1835POPC   PO427540  38.471  41.815   9.442
 1835POPC   GL127541  38.518  42.190   9.210
 1835POPC   GL227542  38.182  42.380   9.160
 1835POPC   C1A27543  38.484  42.270   8.771
 1835POPC   D2A27544  38.334  42.277   8.355
 1835POPC   C3A27545  38.547  42.494   8.023
 1835POPC   C4A27546  38.507  42.394   7.615
 1835POPC   C1B27547  38.041  42.551   8.714
 1835POPC   C2B27548  37.946  42.595   8.242
 1835POPC   C3B27549  38.077  42.586   7.801
 1835POPC   C4B27550  38.099  42.549   7.316
 1836POPC   NC327551   6.020  24.011   9.503
 1836POPC   PO427552   6.088  23.350   9.576
 1836POPC   GL127553   6.096  23.478   9.130
 1836POPC   GL227554   6.169  23.829   9.022
 1836POPC   C1A27555   5.793  23.621   8.771
 1836POPC   D2A27556   5.891  23.812   8.352
 1836POPC   C3A27557   5.929  23.547   7.971
 1836POPC   C4A27558   5.575  23.434   7.734
 1836POPC   C1B27559   6.277  23.565   8.656
 1836POPC   C2B27560   6.368  23.681   8.230
 1836POPC   C3B27561   6.245  23.958   7.937
 1836POPC   C4B27562   5.932  23.955   7.619
 1837POPC   NC327563   0.142  33.410   9.427
 1837POPC   PO427564  44.666  33.832   9.627
 1837POPC   GL127565  44.650  33.878   9.209
 1837POPC   GL227566  44.738  33.544   9.119
 1837POPC   C1A27567  44.720  34.011   8.800
 1837POPC   D2A27568  44.582  33.864   8.402
 1837POPC   C3A27569  44.760  34.022   8.040
 1837POPC   C4A27570  44.712  33.907   7.638
 1837POPC   C1B27571  44.496  33.451   8.748
 1837POPC   C2B27572  44.312  33.425   8.332
 1837POPC   C3B27573  44.550  33.528   7.938
 1837POPC   C4B27574  44.777  33.433   7.506
 1838POPC   NC327575   4.661  10.705   9.540
 1838POPC   PO427576   3.976  10.420   9.522
 1838POPC   GL127577   4.256  10.648   9.245
 1838POPC   GL227578   4.159  10.866   9.005
 1838POPC   C1A27579   4.524  10.531   8.914
 1838POPC   D2A27580   4.509  10.480   8.480
 1838POPC   C3A27581   4.481  10.507   8.037
 1838POPC   C4A27582   4.789  10.294   7.825
 1838POPC   C1B27583   4.518  10.998   8.742
 1838POPC   C2B27584   4.621  10.964   8.314
 1838POPC   C3B27585   4.522  10.989   7.895
 1838POPC   C4B27586   4.253  10.863   7.549
 1839POPC   NC327587  18.787   6.843   9.350
 1839POPC   PO427588  19.048   6.203   9.532
 1839POPC   GL127589  18.894   6.357   9.177
 1839POPC   GL227590  19.183   6.543   9.126
 1839POPC   C1A27591  18.786   6.566   8.779
 1839POPC   D2A27592  18.994   6.536   8.381
 1839POPC   C3A27593  18.838   6.420   8.017
 1839POPC   C4A27594  18.879   6.629   7.662
 1839POPC   C1B27595  19.291   6.738   8.733
 1839POPC   C2B27596  19.272   6.948   8.313
 1839POPC   C3B27597  19.321   6.767   7.907
 1839POPC   C4B27598  19.538   7.014   7.592
 1840POPC   NC327599  18.102  39.345  10.046
 1840POPC   PO427600  18.525  39.032   9.702
 1840POPC   GL127601  18.403  39.188   9.249
 1840POPC   GL227602  18.032  39.097   9.103
 1840POPC   C1A27603  18.402  39.337   8.831
 1840POPC   D2A27604  18.124  39.364   8.467
 1840POPC   C3A27605  18.339  39.341   8.067
 1840POPC   C4A27606  18.530  39.134   7.686
 1840POPC   C1B27607  18.177  38.901   8.735
 1840POPC   C2B27608  18.440  38.965   8.397
 1840POPC   C3B27609  18.287  38.822   8.013
 1840POPC   C4B27610  18.016  39.091   7.765
 1841POPC   NC327611  27.436  31.074   9.408
 1841POPC   PO427612  27.777  30.478   9.605
 1841POPC   GL127613  27.744  30.564   9.185
 1841POPC   GL227614  27.421  30.695   9.096
 1841POPC   C1A27615  27.582  30.307   8.840
 1841POPC   D2A27616  27.479  30.521   8.464
 1841POPC   C3A27617  27.712  30.486   8.072
 1841POPC   C4A27618  27.807  30.814   7.803
 1841POPC   C1B27619  27.363  30.976   8.752
 1841POPC   C2B27620  27.174  30.945   8.334
 1841POPC   C3B27621  27.358  30.981   7.919
 1841POPC   C4B27622  27.470  31.021   7.434
 1842POPC   NC327623  44.265  35.246   9.508
 1842POPC   PO427624  44.900  35.526   9.470
 1842POPC   GL127625  44.794  35.356   9.080
 1842POPC   GL227626  44.444  35.339   9.036
 1842POPC   C1A27627  44.831  35.048   8.735
 1842POPC   D2A27628  44.920  35.248   8.345
 1842POPC   C3A27629  44.594  35.321   8.044
 1842POPC   C4A27630  44.623  35.106   7.659
 1842POPC   C1B27631  44.537  35.444   8.619
 1842POPC   C2B27632  44.254  35.598   8.327
 1842POPC   C3B27633  44.246  35.778   7.947
 1842POPC   C4B27634  44.372  35.540   7.611
 1843POPC   NC327635   4.988  16.508   9.549
 1843POPC   PO427636   5.094  15.834   9.548
 1843POPC   GL127637   4.956  16.114   9.167
 1843POPC   GL227638   4.651  16.366   9.132
 1843POPC   C1A27639   5.193  16.220   8.756
 1843POPC   D2A27640   5.266  16.391   8.359
 1843POPC   C3A27641   5.368  16.062   8.138
 1843POPC   C4A27642   5.361  15.935   7.759
 1843POPC   C1B27643   4.702  16.151   8.721
 1843POPC   C2B27644   4.634  16.184   8.284
 1843POPC   C3B27645   4.892  16.078   7.959
 1843POPC   C4B27646   4.877  15.820   7.644
 1844POPC   NC327647  39.749  25.028   9.551
 1844POPC   PO427648  40.352  24.699   9.534
 1844POPC   GL127649  40.073  24.561   9.167
 1844POPC   GL227650  39.759  24.741   9.138
 1844POPC   C1A27651  39.966  24.606   8.695
 1844POPC   D2A27652  40.077  24.556   8.265
 1844POPC   C3A27653  39.738  24.461   7.995
 1844POPC   C4A27654  39.636  24.504   7.580
 1844POPC   C1B27655  39.507  24.816   8.775
 1844POPC   C2B27656  39.599  24.786   8.361
 1844POPC   C3B27657  39.843  24.985   8.057
 1844POPC   C4B27658  39.991  24.946   7.647
 1845POPC   NC327659   0.571  18.767   9.396
 1845POPC   PO427660   0.197  19.262   9.661
 1845POPC   GL127661   0.246  19.094   9.215
 1845POPC   GL227662   0.547  19.247   9.041
 1845POPC   C1A27663   0.259  18.839   8.809
 1845POPC   D2A27664   0.576  18.965   8.494
 1845POPC   C3A27665   0.580  18.793   8.074
 1845POPC   C4A27666   0.226  18.763   7.794
 1845POPC   C1B27667   0.650  19.585   8.717
 1845POPC   C2B27668   0.485  19.605   8.303
 1845POPC   C3B27669   0.530  19.296   8.052
 1845POPC   C4B27670   0.723  19.273   7.694
 1846POPC   NC327671  42.359   6.068   9.425
 1846POPC   PO427672  41.935   5.565   9.411
 1846POPC   GL127673  42.090   5.766   9.059
 1846POPC   GL227674  42.477   5.798   9.028
 1846POPC   C1A27675  42.137   5.923   8.659
 1846POPC   D2A27676  42.394   5.860   8.338
 1846POPC   C3A27677  42.251   5.871   7.975
 1846POPC   C4A27678  42.048   5.581   7.757
 1846POPC   C1B27679  42.667   6.083   8.701
 1846POPC   C2B27680  42.611   6.299   8.263
 1846POPC   C3B27681  42.665   6.129   7.845
 1846POPC   C4B27682  42.772   6.183   7.407
 1847POPC   NC327683  34.157  20.979   9.275
 1847POPC   PO427684  34.552  21.317   9.687
 1847POPC   GL127685  34.755  21.342   9.272
 1847POPC   GL227686  34.882  21.636   9.166
 1847POPC   C1A27687  34.834  21.275   8.820
 1847POPC   D2A27688  34.603  21.396   8.454
 1847POPC   C3A27689  34.795  21.264   8.064
 1847POPC   C4A27690  34.574  21.136   7.708
 1847POPC   C1B27691  34.803  21.801   8.772
 1847POPC   C2B27692  34.710  21.903   8.366
 1847POPC   C3B27693  34.608  21.735   8.003
 1847POPC   C4B27694  34.831  21.650   7.660
 1848POPC   NC327695  16.406  36.772   9.372
 1848POPC   PO427696  17.029  36.854   9.539
 1848POPC   GL127697  16.834  37.051   9.186
 1848POPC   GL227698  17.115  37.247   9.107
 1848POPC   C1A27699  16.570  36.999   8.767
 1848POPC   D2A27700  16.539  36.738   8.367
 1848POPC   C3A27701  16.393  36.935   7.963
 1848POPC   C4A27702  16.631  36.753   7.618
 1848POPC   C1B27703  17.081  36.972   8.747
 1848POPC   C2B27704  16.927  37.104   8.370
 1848POPC   C3B27705  16.891  37.023   7.966
 1848POPC   C4B27706  17.074  36.957   7.568
 1849POPC   NC327707  24.873  25.716   9.295
 1849POPC   PO427708  25.239  25.271   9.616
 1849POPC   GL127709  25.170  25.328   9.175
 1849POPC   GL227710  25.355  25.655   9.188
 1849POPC   C1A27711  25.075  25.387   8.719
 1849POPC   D2A27712  25.166  25.551   8.299
 1849POPC   C3A27713  24.981  25.371   7.922
 1849POPC   C4A27714  25.123  25.072   7.618
 1849POPC   C1B27715  25.563  25.551   8.820
 1849POPC   C2B27716  25.635  25.743   8.427
 1849POPC   C3B27717  25.654  25.518   8.079
 1849POPC   C4B27718  25.424  25.472   7.735
 1850POPC   NC327719   1.524  36.482   9.505
 1850POPC   PO427720   0.957  36.111   9.544
 1850POPC   GL127721   1.014  35.987   9.138
 1850POPC   GL227722   1.381  35.962   9.100
 1850POPC   C1A27723   0.967  36.081   8.725
 1850POPC   D2A27724   1.241  36.305   8.453
 1850POPC   C3A27725   1.061  36.321   8.041
 1850POPC   C4A27726   0.871  35.970   7.790
 1850POPC   C1B27727   1.607  36.294   8.835
 1850POPC   C2B27728   1.762  36.307   8.402
 1850POPC   C3B27729   1.532  36.108   8.072
 1850POPC   C4B27730   1.573  36.162   7.654
 1851POPC   NC327731   3.471  44.188   9.381
 1851POPC   PO427732   3.614  43.536   9.472
 1851POPC   GL127733   3.537  43.718   9.089
 1851POPC   GL227734   3.572  44.021   8.905
 1851POPC   C1A27735   3.303  43.601   8.721
 1851POPC   D2A27736   3.035  43.648   8.375
 1851POPC   C3A27737   3.282  43.856   8.074
 1851POPC   C4A27738   3.339  43.809   7.634
 1851POPC   C1B27739   3.739  44.314   8.595
 1851POPC   C2B27740   3.810  44.249   8.214
 1851POPC   C3B27741   3.701  44.116   7.856
 1851POPC   C4B27742   3.964  44.024   7.542
 1852POPC   NC327743  40.529   9.102   9.498
 1852POPC   PO427744  41.202   8.714   9.503
 1852POPC   GL127745  41.035   8.840   9.106
 1852POPC   GL227746  40.681   8.837   9.104
 1852POPC   C1A27747  41.142   8.929   8.678
 1852POPC   D2A27748  40.952   8.769   8.287
 1852POPC   C3A27749  40.981   8.983   7.859
 1852POPC   C4A27750  40.988   9.310   7.502
 1852POPC   C1B27751  40.644   9.023   8.688
 1852POPC   C2B27752  40.469   9.261   8.382
 1852POPC   C3B27753  40.422   9.145   7.997
 1852POPC   C4B27754  40.526   8.770   7.758
 1853POPC   NC327755  17.781   4.440   9.438
 1853POPC   PO427756  17.484   3.831   9.518
 1853POPC   GL127757  17.538   4.113   9.140
 1853POPC   GL227758  17.898   4.114   8.986
 1853POPC   C1A27759  17.232   4.248   8.786
 1853POPC   D2A27760  17.118   4.636   8.557
 1853POPC   C3A27761  17.234   4.510   8.172
 1853POPC   C4A27762  17.415   4.285   7.835
 1853POPC   C1B27763  17.708   4.476   8.791
 1853POPC   C2B27764  17.646   4.665   8.415
 1853POPC   C3B27765  17.702   4.655   7.999
 1853POPC   C4B27766  17.920   4.403   7.717
 1854POPC   NC327767  42.915   7.252   9.259
 1854POPC   PO427768  43.338   7.580   9.565
 1854POPC   GL127769  43.364   7.547   9.102
 1854POPC   GL227770  43.179   7.268   8.847
 1854POPC   C1A27771  43.211   7.738   8.737
 1854POPC   D2A27772  42.929   7.615   8.423
 1854POPC   C3A27773  43.150   7.470   8.041
 1854POPC   C4A27774  43.107   7.578   7.633
 1854POPC   C1B27775  42.854   6.951   8.720
 1854POPC   C2B27776  42.646   6.977   8.370
 1854POPC   C3B27777  42.857   6.907   7.986
 1854POPC   C4B27778  42.925   7.113   7.606
 1855POPC   NC327779  28.894  31.171   9.634
 1855POPC   PO427780  29.268  31.764   9.428
 1855POPC   GL127781  28.998  31.552   9.184
 1855POPC   GL227782  29.008  31.218   9.144
 1855POPC   C1A27783  29.103  31.526   8.738
 1855POPC   D2A27784  29.087  31.705   8.346
 1855POPC   C3A27785  29.111  31.446   8.011
 1855POPC   C4A27786  28.998  31.491   7.633
 1855POPC   C1B27787  28.740  31.140   8.796
 1855POPC   C2B27788  28.909  31.145   8.360
 1855POPC   C3B27789  28.763  31.086   7.894
 1855POPC   C4B27790  28.709  31.177   7.395
 1856POPC   NC327791  38.437  16.292   9.585
 1856POPC   PO427792  38.149  15.721   9.578
 1856POPC   GL127793  38.331  15.879   9.215
 1856POPC   GL227794  38.130  16.142   9.138
 1856POPC   C1A27795  38.515  15.781   8.789
 1856POPC   D2A27796  38.785  15.903   8.407
 1856POPC   C3A27797  38.617  15.978   7.959
 1856POPC   C4A27798  38.590  15.853   7.533
 1856POPC   C1B27799  38.299  16.265   8.754
 1856POPC   C2B27800  38.437  16.269   8.332
 1856POPC   C3B27801  38.266  16.400   7.935
 1856POPC   C4B27802  38.446  16.343   7.547
 1857POPC   NC327803   1.399  39.595   9.469
 1857POPC   PO427804   1.196  38.947   9.562
 1857POPC   GL127805   1.266  39.022   9.144
 1857POPC   GL227806   1.618  39.028   9.184
 1857POPC   C1A27807   1.157  39.069   8.684
 1857POPC   D2A27808   1.199  38.923   8.244
 1857POPC   C3A27809   0.951  39.153   7.927
 1857POPC   C4A27810   0.801  39.591   7.918
 1857POPC   C1B27811   1.600  39.286   8.829
 1857POPC   C2B27812   1.501  39.328   8.387
 1857POPC   C3B27813   1.502  39.274   7.954
 1857POPC   C4B27814   1.244  39.496   7.665
 1858POPC   NC327815   4.152  42.806   9.428
 1858POPC   PO427816   4.397  43.313   9.744
 1858POPC   GL127817   4.370  43.275   9.259
 1858POPC   GL227818   4.045  43.374   9.196
 1858POPC   C1A27819   4.551  43.063   8.853
 1858POPC   D2A27820   4.576  43.173   8.390
 1858POPC   C3A27821   4.559  42.896   8.019
 1858POPC   C4A27822   4.497  43.078   7.614
 1858POPC   C1B27823   4.028  43.052   8.829
 1858POPC   C2B27824   3.960  43.132   8.387
 1858POPC   C3B27825   4.123  43.179   7.983
 1858POPC   C4B27826   4.083  42.787   7.730
 1859POPC   NC327827  20.328  36.988   9.615
 1859POPC   PO427828  19.979  37.359   9.353
 1859POPC   GL127829  20.186  36.960   9.126
 1859POPC   GL227830  20.483  37.072   8.978
 1859POPC   C1A27831  20.245  36.667   8.742
 1859POPC   D2A27832  20.410  36.460   8.335
 1859POPC   C3A27833  20.439  36.624   7.886
 1859POPC   C4A27834  20.630  36.935   7.605
 1859POPC   C1B27835  20.634  36.943   8.557
 1859POPC   C2B27836  20.724  36.970   8.115
 1859POPC   C3B27837  20.863  37.316   7.827
 1859POPC   C4B27838  20.845  37.319   7.336
 1860POPC   NC327839  36.318  23.380   9.634
 1860POPC   PO427840  35.751  23.570   9.489
 1860POPC   GL127841  36.058  23.413   9.183
 1860POPC   GL227842  36.345  23.650   9.126
 1860POPC   C1A27843  36.197  23.368   8.740
 1860POPC   D2A27844  36.461  23.479   8.386
 1860POPC   C3A27845  36.262  23.453   7.957
 1860POPC   C4A27846  35.873  23.378   7.693
 1860POPC   C1B27847  36.381  23.891   8.685
 1860POPC   C2B27848  36.468  23.942   8.197
 1860POPC   C3B27849  36.458  23.963   7.738
 1860POPC   C4B27850  36.589  24.002   7.265
 1861POPC   NC327851   4.632  17.516   9.584
 1861POPC   PO427852   4.000  17.570   9.654
 1861POPC   GL127853   4.136  17.609   9.194
 1861POPC   GL227854   4.487  17.722   9.138
 1861POPC   C1A27855   4.200  17.582   8.722
 1861POPC   D2A27856   4.151  17.543   8.270
 1861POPC   C3A27857   4.434  17.401   7.981
 1861POPC   C4A27858   4.368  17.373   7.580
 1861POPC   C1B27859   4.572  17.961   8.767
 1861POPC   C2B27860   4.349  18.031   8.402
 1861POPC   C3B27861   4.417  17.913   8.003
 1861POPC   C4B27862   4.615  17.826   7.615
 1862POPC   NC327863   2.597  22.388   9.420
 1862POPC   PO427864   2.379  21.811   9.341
 1862POPC   GL127865   2.755  22.008   9.108
 1862POPC   GL227866   2.566  21.900   8.857
 1862POPC   C1A27867   2.828  22.268   8.690
 1862POPC   D2A27868   2.700  22.070   8.308
 1862POPC   C3A27869   2.907  22.252   7.946
 1862POPC   C4A27870   3.295  22.114   7.778
 1862POPC   C1B27871   2.945  21.753   8.661
 1862POPC   C2B27872   2.882  21.572   8.258
 1862POPC   C3B27873   2.744  21.747   7.924
 1862POPC   C4B27874   2.443  22.064   7.790
 1863POPC   NC327875   3.432  11.993   9.438
 1863POPC   PO427876   4.020  11.959   9.740
 1863POPC   GL127877   3.924  11.984   9.279
 1863POPC   GL227878   3.783  11.757   9.070
 1863POPC   C1A27879   3.920  12.193   8.849
 1863POPC   D2A27880   3.852  12.049   8.418
 1863POPC   C3A27881   3.769  12.309   8.047
 1863POPC   C4A27882   3.454  12.511   7.777
 1863POPC   C1B27883   3.466  11.916   8.763
 1863POPC   C2B27884   3.338  12.003   8.313
 1863POPC   C3B27885   3.370  11.979   7.848
 1863POPC   C4B27886   3.199  11.757   7.485
 1864POPC   NC327887  21.424  30.995   9.464
 1864POPC   PO427888  21.259  31.556   9.438
 1864POPC   GL127889  21.279  31.274   9.072
 1864POPC   GL227890  20.949  31.231   8.963
 1864POPC   C1A27891  21.449  31.254   8.635
 1864POPC   D2A27892  21.669  31.453   8.276
 1864POPC   C3A27893  21.456  31.624   7.895
 1864POPC   C4A27894  21.594  31.249   7.737
 1864POPC   C1B27895  21.131  31.649   8.776
 1864POPC   C2B27896  21.192  31.636   8.348
 1864POPC   C3B27897  21.156  31.257   8.057
 1864POPC   C4B27898  21.092  31.354   7.593
 1865POPC   NC327899  42.761  38.557   9.459
 1865POPC   PO427900  42.127  38.198   9.449
 1865POPC   GL127901  42.185  38.620   9.197
 1865POPC   GL227902  42.505  38.788   9.091
 1865POPC   C1A27903  42.219  38.564   8.738
 1865POPC   D2A27904  42.227  38.242   8.440
 1865POPC   C3A27905  42.484  38.222   8.085
 1865POPC   C4A27906  42.168  38.426   7.842
 1865POPC   C1B27907  42.542  38.946   8.662
 1865POPC   C2B27908  42.521  38.675   8.303
 1865POPC   C3B27909  42.640  38.661   7.870
 1865POPC   C4B27910  42.731  38.693   7.440
 1866POPC   NC327911  13.440  31.759   9.647
 1866POPC   PO427912  13.943  31.342   9.540
 1866POPC   GL127913  13.571  31.414   9.283
 1866POPC   GL227914  13.641  31.723   9.188
 1866POPC   C1A27915  13.490  31.333   8.854
 1866POPC   D2A27916  13.779  31.278   8.502
 1866POPC   C3A27917  13.618  31.314   8.096
 1866POPC   C4A27918  13.785  31.130   7.739
 1866POPC   C1B27919  13.540  31.877   8.810
 1866POPC   C2B27920  13.431  31.663   8.454
 1866POPC   C3B27921  13.450  31.797   8.058
 1866POPC   C4B27922  13.662  31.676   7.707
 1867POPC   NC327923  42.494  17.385   9.532
 1867POPC   PO427924  41.973  17.605   9.361
 1867POPC   GL127925  42.298  17.485   9.084
 1867POPC   GL227926  42.580  17.731   9.150
 1867POPC   C1A27927  42.290  17.220   8.718
 1867POPC   D2A27928  42.037  17.049   8.335
 1867POPC   C3A27929  42.184  17.167   7.942
 1867POPC   C4A27930  42.170  17.588   7.751
 1867POPC   C1B27931  42.450  17.769   8.715
 1867POPC   C2B27932  42.554  17.499   8.387
 1867POPC   C3B27933  42.636  17.431   7.983
 1867POPC   C4B27934  42.664  17.664   7.621
 1868POPC   NC327935  20.938  10.077   9.460
 1868POPC   PO427936  20.647   9.495   9.448
 1868POPC   GL127937  20.552   9.651   9.059
 1868POPC   GL227938  20.581  10.026   9.062
 1868POPC   C1A27939  20.500   9.648   8.641
 1868POPC   D2A27940  20.584   9.947   8.323
 1868POPC   C3A27941  20.344   9.762   7.992
 1868POPC   C4A27942  20.484   9.511   7.667
 1868POPC   C1B27943  20.839  10.328   8.844
 1868POPC   C2B27944  21.085  10.360   8.470
 1868POPC   C3B27945  20.938  10.231   8.036
 1868POPC   C4B27946  20.749   9.943   7.734
 1869POPC   NC327947  42.183  41.055   9.553
 1869POPC   PO427948  42.370  40.375   9.477
 1869POPC   GL127949  42.528  40.718   9.233
 1869POPC   GL227950  42.185  40.776   9.122
 1869POPC   C1A27951  42.546  40.928   8.818
 1869POPC   D2A27952  42.289  40.839   8.461
 1869POPC   C3A27953  42.469  40.695   8.099
 1869POPC   C4A27954  42.310  40.783   7.720
 1869POPC   C1B27955  42.016  41.080   8.829
 1869POPC   C2B27956  41.788  41.068   8.432
 1869POPC   C3B27957  41.927  41.074   7.991
 1869POPC   C4B27958  41.951  41.046   7.508
 1870POPC   NC327959  34.231  33.009   9.776
 1870POPC   PO427960  34.696  33.068   9.285
 1870POPC   GL127961  34.777  33.134   8.955
 1870POPC   GL227962  35.046  33.377   8.995
 1870POPC   C1A27963  34.547  33.054   8.612
 1870POPC   D2A27964  34.308  33.104   8.271
 1870POPC   C3A27965  34.543  32.985   7.914
 1870POPC   C4A27966  34.350  33.026   7.532
 1870POPC   C1B27967  35.037  33.265   8.564
 1870POPC   C2B27968  34.779  33.364   8.234
 1870POPC   C3B27969  34.864  33.391   7.817
 1870POPC   C4B27970  34.784  33.260   7.445
 1871POPC   NC327971  21.468   8.567   9.378
 1871POPC   PO427972  21.607   9.218   9.460
 1871POPC   GL127973  21.539   9.041   9.106
 1871POPC   GL227974  21.858   9.145   9.019
 1871POPC   C1A27975  21.403   9.150   8.687
 1871POPC   D2A27976  21.348   9.366   8.248
 1871POPC   C3A27977  21.231   9.061   7.873
 1871POPC   C4A27978  20.910   8.682   7.805
 1871POPC   C1B27979  21.868   8.865   8.699
 1871POPC   C2B27980  21.650   8.927   8.310
 1871POPC   C3B27981  21.726   9.130   7.954
 1871POPC   C4B27982  21.729   8.714   7.746
 1872POPC   NC327983  23.027   7.338   9.617
 1872POPC   PO427984  22.605   7.689   9.526
 1872POPC   GL127985  22.898   7.603   9.158
 1872POPC   GL227986  23.083   7.289   9.086
 1872POPC   C1A27987  22.867   7.612   8.689
 1872POPC   D2A27988  22.538   7.640   8.355
 1872POPC   C3A27989  22.641   7.733   7.915
 1872POPC   C4A27990  22.965   7.879   7.643
 1872POPC   C1B27991  23.072   7.148   8.635
 1872POPC   C2B27992  22.868   7.275   8.243
 1872POPC   C3B27993  23.049   7.393   7.846
 1872POPC   C4B27994  23.123   7.111   7.487
 1873POPC   NC327995   9.566  33.108   9.343
 1873POPC   PO427996   8.881  33.034   9.490
 1873POPC   GL127997   9.040  32.848   9.114
 1873POPC   GL227998   9.315  32.621   9.195
 1873POPC   C1A27999   9.019  32.935   8.685
 1873POPC   D2A28000   8.926  33.240   8.386
 1873POPC   C3A28001   9.257  33.311   8.123
 1873POPC   C4A28002   9.091  33.304   7.730
 1873POPC   C1B28003   9.329  32.531   8.759
 1873POPC   C2B28004   9.110  32.547   8.346
 1873POPC   C3B28005   9.114  32.803   7.947
 1873POPC   C4B28006   9.320  32.910   7.523
 1874POPC   NC328007  28.893  32.021   9.367
 1874POPC   PO428008  28.837  32.669   9.390
 1874POPC   GL128009  29.072  32.411   9.051
 1874POPC   GL228010  29.354  32.189   9.151
 1874POPC   C1A28011  29.052  32.087   8.696
 1874POPC   D2A28012  28.919  32.202   8.243
 1874POPC   C3A28013  28.973  31.941   7.899
 1874POPC   C4A28014  29.401  31.823   7.800
 1874POPC   C1B28015  29.510  32.304   8.736
 1874POPC   C2B28016  29.495  32.154   8.292
 1874POPC   C3B28017  29.600  32.395   7.898
 1874POPC   C4B28018  29.540  32.656   7.493
 1875POPC   NC328019  38.395  18.399   9.541
 1875POPC   PO428020  38.319  17.909   9.104
 1875POPC   GL128021  38.646  18.116   8.927
 1875POPC   GL228022  38.705  18.425   9.121
 1875POPC   C1A28023  38.443  18.316   8.562
 1875POPC   D2A28024  38.312  18.418   8.151
 1875POPC   C3A28025  38.328  18.051   7.910
 1875POPC   C4A28026  38.274  17.977   7.475
 1875POPC   C1B28027  38.733  18.679   8.730
 1875POPC   C2B28028  38.837  18.592   8.302
 1875POPC   C3B28029  38.676  18.721   7.897
 1875POPC   C4B28030  38.404  18.459   7.620
 1876POPC   NC328031  10.509   0.860   9.526
 1876POPC   PO428032  10.732   1.425   9.793
 1876POPC   GL128033  10.572   1.303   9.279
 1876POPC   GL228034  10.222   1.376   9.134
 1876POPC   C1A28035  10.583   1.472   8.815
 1876POPC   D2A28036  10.513   1.305   8.418
 1876POPC   C3A28037  10.867   1.246   8.168
 1876POPC   C4A28038  10.835   1.528   7.849
 1876POPC   C1B28039  10.418   0.988   8.863
 1876POPC   C2B28040  10.574   0.809   8.458
 1876POPC   C3B28041  10.476   0.934   8.042
 1876POPC   C4B28042  10.377   1.290   7.830
 1877POPC   NC328043  16.213  26.494   9.454
 1877POPC   PO428044  16.762  25.994   9.449
 1877POPC   GL128045  16.571  25.836   9.094
 1877POPC   GL228046  16.392  26.123   9.030
 1877POPC   C1A28047  16.519  25.788   8.661
 1877POPC   D2A28048  16.554  26.098   8.337
 1877POPC   C3A28049  16.724  25.917   7.968
 1877POPC   C4A28050  16.976  25.962   7.607
 1877POPC   C1B28051  16.828  26.209   8.802
 1877POPC   C2B28052  17.041  26.363   8.407
 1877POPC   C3B28053  16.949  26.400   7.955
 1877POPC   C4B28054  16.813  26.423   7.517
 1878POPC   NC328055  25.341   0.356   9.577
 1878POPC   PO428056  25.056   0.903   9.350
 1878POPC   GL128057  25.139   0.480   9.104
 1878POPC   GL228058  25.490   0.305   9.088
 1878POPC   C1A28059  25.196   0.327   8.655
 1878POPC   D2A28060  25.429   0.607   8.364
 1878POPC   C3A28061  25.363   0.718   7.921
 1878POPC   C4A28062  25.440   0.548   7.486
 1878POPC   C1B28063  25.635   0.103   8.719
 1878POPC   C2B28064  25.563   0.101   8.303
 1878POPC   C3B28065  25.249   0.241   8.040
 1878POPC   C4B28066  25.294   0.075   7.675
 1879POPC   NC328067  16.563  33.129   9.326
 1879POPC   PO428068  17.047  32.661   9.458
 1879POPC   GL128069  16.909  32.855   9.065
 1879POPC   GL228070  17.141  32.803   8.811
 1879POPC   C1A28071  16.620  32.950   8.689
 1879POPC   D2A28072  16.766  33.086   8.273
 1879POPC   C3A28073  16.693  33.003   7.845
 1879POPC   C4A28074  16.483  32.975   7.473
 1879POPC   C1B28075  17.013  33.271   8.709
 1879POPC   C2B28076  17.141  33.507   8.315
 1879POPC   C3B28077  17.080  33.314   7.909
 1879POPC   C4B28078  17.124  32.967   7.561
 1880POPC   NC328079  31.324  38.039   9.273
 1880POPC   PO428080  31.758  37.812   9.752
 1880POPC   GL128081  31.783  37.567   9.278
 1880POPC   GL228082  31.540  37.275   9.195
 1880POPC   C1A28083  31.574  37.624   8.825
 1880POPC   D2A28084  31.223  37.559   8.506
 1880POPC   C3A28085  31.185  37.872   8.219
 1880POPC   C4A28086  31.180  37.934   7.797
 1880POPC   C1B28087  31.424  37.165   8.754
 1880POPC   C2B28088  31.696  37.389   8.400
 1880POPC   C3B28089  31.551  37.546   7.992
 1880POPC   C4B28090  31.185  37.426   7.726
 1881POPC   NC328091  13.203  12.720   9.791
 1881POPC   PO428092  12.947  12.505   9.242
 1881POPC   GL128093  12.629  12.592   9.025
 1881POPC   GL228094  12.606  12.902   9.211
 1881POPC   C1A28095  12.728  12.521   8.610
 1881POPC   D2A28096  12.930  12.739   8.343
 1881POPC   C3A28097  12.741  12.778   8.001
 1881POPC   C4A28098  12.756  12.651   7.627
 1881POPC   C1B28099  12.735  13.011   8.768
 1881POPC   C2B28100  12.587  13.138   8.349
 1881POPC   C3B28101  12.811  13.301   7.978
 1881POPC   C4B28102  12.620  13.144   7.618
 1882POPC   NC328103  27.571  27.524   9.650
 1882POPC   PO428104  27.490  28.037   9.229
 1882POPC   GL128105  27.632  27.649   9.126
 1882POPC   GL228106  27.326  27.518   9.198
 1882POPC   C1A28107  27.683  27.606   8.678
 1882POPC   D2A28108  27.637  27.825   8.245
 1882POPC   C3A28109  27.917  27.586   7.934
 1882POPC   C4A28110  27.928  27.534   7.454
 1882POPC   C1B28111  27.179  27.455   8.779
 1882POPC   C2B28112  27.329  27.406   8.358
 1882POPC   C3B28113  27.416  27.473   7.931
 1882POPC   C4B28114  27.168  27.288   7.655
 1883POPC   NC328115  36.118  28.271   9.438
 1883POPC   PO428116  35.551  28.412   9.461
 1883POPC   GL128117  35.748  28.387   9.030
 1883POPC   GL228118  36.090  28.524   8.976
 1883POPC   C1A28119  36.004  28.106   8.741
 1883POPC   D2A28120  36.327  28.287   8.473
 1883POPC   C3A28121  36.118  28.326   8.121
 1883POPC   C4A28122  35.922  28.139   7.769
 1883POPC   C1B28123  36.432  28.716   8.749
 1883POPC   C2B28124  36.562  28.793   8.347
 1883POPC   C3B28125  36.556  28.538   8.028
 1883POPC   C4B28126  36.347  28.399   7.681
 1884POPC   NC328127  34.669   1.951   9.691
 1884POPC   PO428128  34.135   2.026   9.631
 1884POPC   GL128129  34.357   1.868   9.254
 1884POPC   GL228130  34.667   2.036   9.150
 1884POPC   C1A28131  34.313   1.861   8.768
 1884POPC   D2A28132  34.164   1.842   8.310
 1884POPC   C3A28133  34.345   2.111   7.974
 1884POPC   C4A28134  34.474   2.162   7.542
 1884POPC   C1B28135  34.803   1.988   8.694
 1884POPC   C2B28136  34.692   1.839   8.267
 1884POPC   C3B28137  34.851   1.987   7.867
 1884POPC   C4B28138  34.957   1.927   7.436
 1885POPC   NC328139  35.798  11.795   9.436
 1885POPC   PO428140  36.453  11.992   9.349
 1885POPC   GL128141  36.101  12.055   9.112
 1885POPC   GL228142  36.095  12.398   8.999
 1885POPC   C1A28143  36.022  11.806   8.771
 1885POPC   D2A28144  36.305  11.856   8.445
 1885POPC   C3A28145  36.150  11.770   8.065
 1885POPC   C4A28146  36.308  11.991   7.732
 1885POPC   C1B28147  35.773  12.227   8.728
 1885POPC   C2B28148  35.833  12.213   8.309
 1885POPC   C3B28149  36.217  12.305   8.116
 1885POPC   C4B28150  36.147  12.475   7.730
 1886POPC   NC328151  13.165  38.246   9.395
 1886POPC   PO428152  12.491  38.299   9.495
 1886POPC   GL128153  12.754  38.452   9.135
 1886POPC   GL228154  12.915  38.798   9.152
 1886POPC   C1A28155  12.981  38.307   8.756
 1886POPC   D2A28156  13.021  38.010   8.408
 1886POPC   C3A28157  12.841  38.179   8.043
 1886POPC   C4A28158  12.552  38.503   7.886
 1886POPC   C1B28159  12.741  38.759   8.719
 1886POPC   C2B28160  12.836  38.601   8.328
 1886POPC   C3B28161  13.053  38.631   7.930
 1886POPC   C4B28162  12.853  38.811   7.582
 1887POPC   NC328163   1.158  43.618   9.368
 1887POPC   PO428164   1.494  44.106   9.570
 1887POPC   GL128165   1.440  44.268   9.128
 1887POPC   GL228166   1.158  44.054   9.047
 1887POPC   C1A28167   1.371  44.217   8.633
 1887POPC   D2A28168   1.280  43.862   8.332
 1887POPC   C3A28169   1.476  43.890   7.928
 1887POPC   C4A28170   1.297  44.174   7.619
 1887POPC   C1B28171   0.955  43.749   8.751
 1887POPC   C2B28172   0.627  43.641   8.454
 1887POPC   C3B28173   0.783  43.692   8.068
 1887POPC   C4B28174   0.973  43.794   7.708
 1888POPC   NC328175   8.122  10.344   9.843
 1888POPC   PO428176   8.354  10.890   9.476
 1888POPC   GL128177   8.222  10.658   9.156
 1888POPC   GL228178   8.534  10.479   9.180
 1888POPC   C1A28179   8.028  10.509   8.772
 1888POPC   D2A28180   7.800  10.675   8.422
 1888POPC   C3A28181   7.958  10.616   8.014
 1888POPC   C4A28182   7.791  10.707   7.622
 1888POPC   C1B28183   8.541  10.625   8.746
 1888POPC   C2B28184   8.388  10.578   8.309
 1888POPC   C3B28185   8.432  10.670   7.841
 1888POPC   C4B28186   8.514  10.282   7.567
 1889POPC   NC328187   5.598   3.095   9.587
 1889POPC   PO428188   4.852   2.836   9.545
 1889POPC   GL128189   5.103   2.756   9.168
 1889POPC   GL228190   5.305   2.491   9.126
 1889POPC   C1A28191   4.942   2.586   8.785
 1889POPC   D2A28192   4.760   2.439   8.447
 1889POPC   C3A28193   5.068   2.393   8.157
 1889POPC   C4A28194   4.912   2.617   7.824
 1889POPC   C1B28195   5.443   2.747   8.734
 1889POPC   C2B28196   5.625   2.856   8.312
 1889POPC   C3B28197   5.420   2.719   7.925
 1889POPC   C4B28198   5.311   2.336   7.693
 1890POPC   NC328199  27.809  43.596   9.600
 1890POPC   PO428200  27.281  44.014   9.437
 1890POPC   GL128201  27.391  43.965   9.060
 1890POPC   GL228202  27.633  43.723   9.137
 1890POPC   C1A28203  27.279  43.738   8.720
 1890POPC   D2A28204  27.449  43.587   8.351
 1890POPC   C3A28205  27.352  43.684   7.915
 1890POPC   C4A28206  27.263  44.000   7.587
 1890POPC   C1B28207  27.796  43.817   8.737
 1890POPC   C2B28208  28.035  43.883   8.350
 1890POPC   C3B28209  27.907  43.677   8.012
 1890POPC   C4B28210  27.826  43.771   7.623
 1891POPC   NC328211  28.069   5.678   9.512
 1891POPC   PO428212  28.624   6.117   9.429
 1891POPC   GL128213  28.313   5.985   9.145
 1891POPC   GL228214  28.328   5.622   9.077
 1891POPC   C1A28215  28.256   5.972   8.701
 1891POPC   D2A28216  28.436   5.872   8.301
 1891POPC   C3A28217  28.357   6.115   7.935
 1891POPC   C4A28218  28.298   6.029   7.507
 1891POPC   C1B28219  28.389   5.465   8.644
 1891POPC   C2B28220  28.589   5.364   8.264
 1891POPC   C3B28221  28.607   5.596   7.864
 1891POPC   C4B28222  28.496   5.563   7.397
 1892POPC   NC328223  11.556  32.168   9.841
 1892POPC   PO428224  12.155  32.196   9.637
 1892POPC   GL128225  12.135  32.386   9.239
 1892POPC   GL228226  12.373  32.122   9.152
 1892POPC   C1A28227  11.792  32.471   8.904
 1892POPC   D2A28228  11.603  32.486   8.485
 1892POPC   C3A28229  11.890  32.611   8.150
 1892POPC   C4A28230  11.885  32.296   7.822
 1892POPC   C1B28231  12.106  32.097   8.807
 1892POPC   C2B28232  12.103  32.251   8.444
 1892POPC   C3B28233  12.076  31.984   8.150
 1892POPC   C4B28234  12.248  31.867   7.807
 1893POPC   NC328235   0.071  35.024   9.367
 1893POPC   PO428236   0.593  35.379   9.557
 1893POPC   GL128237   0.335  35.468   9.194
 1893POPC   GL228238   0.580  35.698   9.101
 1893POPC   C1A28239   0.195  35.416   8.783
 1893POPC   D2A28240   0.416  35.440   8.407
 1893POPC   C3A28241   0.348  35.146   8.103
 1893POPC   C4A28242   0.065  35.293   7.832
 1893POPC   C1B28243   0.725  35.350   8.817
 1893POPC   C2B28244   0.911  35.356   8.395
 1893POPC   C3B28245   0.755  35.443   7.988
 1893POPC   C4B28246   0.699  35.056   7.728
 1894POPC   NC328247   9.742   4.302   9.479
 1894POPC   PO428248  10.311   3.950   9.455
 1894POPC   GL128249   9.959   4.087   9.079
 1894POPC   GL228250   9.783   4.459   9.012
 1894POPC   C1A28251   9.574   4.037   8.780
 1894POPC   D2A28252   9.306   3.864   8.445
 1894POPC   C3A28253   9.423   4.007   8.016
 1894POPC   C4A28254   9.851   4.027   7.835
 1894POPC   C1B28255   9.601   4.536   8.609
 1894POPC   C2B28256   9.737   4.397   8.180
 1894POPC   C3B28257  10.031   4.522   7.813
 1894POPC   C4B28258   9.970   4.612   7.353
 1895POPC   NC328259   2.027   4.159   9.585
 1895POPC   PO428260   1.985   4.888   9.568
 1895POPC   GL128261   1.968   4.636   9.174
 1895POPC   GL228262   2.146   4.303   9.116
 1895POPC   C1A28263   1.794   4.450   8.779
 1895POPC   D2A28264   1.924   4.528   8.348
 1895POPC   C3A28265   1.987   4.246   8.017
 1895POPC   C4A28266   2.356   3.959   7.970
 1895POPC   C1B28267   2.305   4.433   8.713
 1895POPC   C2B28268   2.458   4.368   8.284
 1895POPC   C3B28269   2.299   4.671   8.019
 1895POPC   C4B28270   1.922   4.721   7.818
 1896POPC   NC328271  26.788  42.728   9.297
 1896POPC   PO428272  26.669  43.337   9.494
 1896POPC   GL128273  26.882  43.212   9.137
 1896POPC   GL228274  26.589  43.103   9.022
 1896POPC   C1A28275  27.107  43.204   8.745
 1896POPC   D2A28276  27.320  43.072   8.389
 1896POPC   C3A28277  27.148  43.054   7.968
 1896POPC   C4A28278  26.937  42.699   7.742
 1896POPC   C1B28279  26.660  42.924   8.659
 1896POPC   C2B28280  26.784  43.026   8.309
 1896POPC   C3B28281  26.588  43.038   7.929
 1896POPC   C4B28282  26.375  43.152   7.559
 1897POPC   NC328283  32.511  17.344   9.379
 1897POPC   PO428284  32.096  17.928   9.381
 1897POPC   GL128285  32.273  17.710   9.061
 1897POPC   GL228286  32.040  17.410   9.098
 1897POPC   C1A28287  32.381  17.850   8.635
 1897POPC   D2A28288  32.017  17.817   8.353
 1897POPC   C3A28289  32.014  17.571   7.986
 1897POPC   C4A28290  32.223  17.762   7.693
 1897POPC   C1B28291  32.141  17.409   8.638
 1897POPC   C2B28292  32.425  17.424   8.279
 1897POPC   C3B28293  32.552  17.309   7.839
 1897POPC   C4B28294  32.625  17.223   7.374
 1898POPC   NC328295  23.858  32.142   9.613
 1898POPC   PO428296  23.352  32.462   9.455
 1898POPC   GL128297  23.619  32.102   9.176
 1898POPC   GL228298  23.974  31.882   9.170
 1898POPC   C1A28299  23.709  32.052   8.752
 1898POPC   D2A28300  23.942  32.323   8.482
 1898POPC   C3A28301  23.835  32.357   8.066
 1898POPC   C4A28302  23.713  32.264   7.646
 1898POPC   C1B28303  24.195  31.946   8.739
 1898POPC   C2B28304  24.057  31.849   8.299
 1898POPC   C3B28305  24.080  31.941   7.852
 1898POPC   C4B28306  24.201  32.245   7.500
 1899POPC   NC328307  27.104  26.682   9.380
 1899POPC   PO428308  26.883  26.009   9.555
 1899POPC   GL128309  26.637  25.813   9.203
 1899POPC   GL228310  26.870  25.589   8.996
 1899POPC   C1A28311  26.568  25.909   8.751
 1899POPC   D2A28312  26.638  26.215   8.415
 1899POPC   C3A28313  26.577  25.998   8.040
 1899POPC   C4A28314  26.841  25.957   7.735
 1899POPC   C1B28315  27.081  25.790   8.623
 1899POPC   C2B28316  27.088  25.981   8.205
 1899POPC   C3B28317  27.336  26.067   7.836
 1899POPC   C4B28318  27.287  25.922   7.414
 1900POPC   NC328319   3.239   3.162   9.272
 1900POPC   PO428320   2.909   2.536   9.448
 1900POPC   GL128321   2.990   2.734   9.084
 1900POPC   GL228322   2.645   2.709   8.994
 1900POPC   C1A28323   3.011   2.792   8.645
 1900POPC   D2A28324   2.777   2.603   8.323
 1900POPC   C3A28325   2.933   2.830   8.010
 1900POPC   C4A28326   3.002   2.959   7.620
 1900POPC   C1B28327   2.471   2.873   8.634
 1900POPC   C2B28328   2.603   3.125   8.310
 1900POPC   C3B28329   2.529   3.122   7.883
 1900POPC   C4B28330   2.448   2.682   7.943
 1901POPC   NC328331   0.282   3.835   9.483
 1901POPC   PO428332   0.245   3.130   9.351
 1901POPC   GL128333   0.442   3.387   9.098
 1901POPC   GL228334   0.514   3.740   9.061
 1901POPC   C1A28335   0.282   3.424   8.699
 1901POPC   D2A28336   0.114   3.568   8.340
 1901POPC   C3A28337   0.406   3.505   8.085
 1901POPC   C4A28338   0.406   3.244   7.760
 1901POPC   C1B28339   0.770   3.568   8.771
 1901POPC   C2B28340   0.794   3.460   8.420
 1901POPC   C3B28341   0.884   3.694   8.090
 1901POPC   C4B28342   0.825   3.548   7.715
 1902POPC   NC328343  30.942  40.721   9.496
 1902POPC   PO428344  30.293  40.730   9.411
 1902POPC   GL128345  30.619  40.841   9.108
 1902POPC   GL228346  30.840  41.128   9.170
 1902POPC   C1A28347  30.915  40.807   8.772
 1902POPC   D2A28348  30.879  40.581   8.433
 1902POPC   C3A28349  30.852  40.763   8.037
 1902POPC   C4A28350  30.622  40.579   7.706
 1902POPC   C1B28351  30.621  41.227   8.751
 1902POPC   C2B28352  30.577  41.041   8.368
 1902POPC   C3B28353  30.427  41.026   7.941
 1902POPC   C4B28354  30.664  41.065   7.536
 1903POPC   NC328355  42.526   6.911   9.650
 1903POPC   PO428356  42.127   6.471   9.511
 1903POPC   GL128357  42.342   6.509   9.131
 1903POPC   GL228358  42.066   6.293   9.030
 1903POPC   C1A28359  42.490   6.564   8.702
 1903POPC   D2A28360  42.243   6.682   8.342
 1903POPC   C3A28361  42.353   6.884   7.950
 1903POPC   C4A28362  42.574   6.592   7.682
 1903POPC   C1B28363  41.914   6.515   8.682
 1903POPC   C2B28364  41.975   6.249   8.298
 1903POPC   C3B28365  42.175   6.394   7.942
 1903POPC   C4B28366  42.074   6.662   7.575
 1904POPC   NC328367  10.229  21.504   9.265
 1904POPC   PO428368  10.719  21.168   9.653
 1904POPC   GL128369  10.806  21.168   9.180
 1904POPC   GL228370  10.535  21.257   8.980
 1904POPC   C1A28371  10.958  21.294   8.725
 1904POPC   D2A28372  10.784  21.645   8.468
 1904POPC   C3A28373  10.646  21.535   8.033
 1904POPC   C4A28374  10.949  21.599   7.718
 1904POPC   C1B28375  10.253  21.038   8.703
 1904POPC   C2B28376  10.310  21.176   8.315
 1904POPC   C3B28377  10.100  21.479   8.069
 1904POPC   C4B28378  10.252  21.309   7.727
 1905POPC   NC328379  25.097  42.859   9.439
 1905POPC   PO428380  25.670  43.275   9.497
 1905POPC   GL128381  25.409  43.216   9.168
 1905POPC   GL228382  25.523  42.889   9.124
 1905POPC   C1A28383  25.308  43.374   8.743
 1905POPC   D2A28384  25.032  43.227   8.429
 1905POPC   C3A28385  25.173  43.134   8.040
 1905POPC   C4A28386  25.359  43.326   7.697
 1905POPC   C1B28387  25.214  42.865   8.799
 1905POPC   C2B28388  25.314  42.773   8.395
 1905POPC   C3B28389  25.196  42.608   8.026
 1905POPC   C4B28390  25.425  42.821   7.725
 1906POPC   NC328391   8.111  42.969   9.661
 1906POPC   PO428392   7.923  43.509   9.416
 1906POPC   GL128393   8.155  43.253   9.151
 1906POPC   GL228394   8.323  42.944   9.192
 1906POPC   C1A28395   8.022  43.094   8.793
 1906POPC   D2A28396   7.660  43.114   8.556
 1906POPC   C3A28397   7.810  43.271   8.188
 1906POPC   C4A28398   7.832  43.178   7.770
 1906POPC   C1B28399   8.443  42.805   8.774
 1906POPC   C2B28400   8.198  42.847   8.387
 1906POPC   C3B28401   8.370  42.807   8.004
 1906POPC   C4B28402   8.338  43.064   7.716
 1907POPC   NC328403   6.533  39.651   9.462
 1907POPC   PO428404   6.738  38.985   9.484
 1907POPC   GL128405   6.614  38.945   9.118
 1907POPC   GL228406   6.466  39.258   9.123
 1907POPC   C1A28407   6.522  38.872   8.734
 1907POPC   D2A28408   6.459  39.076   8.365
 1907POPC   C3A28409   6.599  38.941   7.999
 1907POPC   C4A28410   6.663  39.330   7.835
 1907POPC   C1B28411   6.309  39.388   8.743
 1907POPC   C2B28412   6.276  39.544   8.321
 1907POPC   C3B28413   6.191  39.479   7.875
 1907POPC   C4B28414   6.249  39.109   7.623
 1908POPC   NC328415  43.367  21.563   9.515
 1908POPC   PO428416  42.924  21.125   9.465
 1908POPC   GL128417  43.161  21.220   9.091
 1908POPC   GL228418  43.431  21.463   9.036
 1908POPC   C1A28419  43.093  21.416   8.673
 1908POPC   D2A28420  42.898  21.302   8.305
 1908POPC   C3A28421  43.055  20.948   8.115
 1908POPC   C4A28422  43.348  21.034   7.788
 1908POPC   C1B28423  43.445  21.802   8.720
 1908POPC   C2B28424  43.509  21.712   8.275
 1908POPC   C3B28425  43.449  21.536   7.856
 1908POPC   C4B28426  43.534  21.586   7.400
 1909POPC   NC328427  35.825   8.146   9.543
 1909POPC   PO428428  36.389   8.414   9.666
 1909POPC   GL128429  36.274   8.523   9.238
 1909POPC   GL228430  35.939   8.415   9.101
 1909POPC   C1A28431  36.369   8.516   8.794
 1909POPC   D2A28432  36.301   8.290   8.406
 1909POPC   C3A28433  36.170   8.430   7.992
 1909POPC   C4A28434  36.165   8.116   7.666
 1909POPC   C1B28435  35.901   8.114   8.729
 1909POPC   C2B28436  35.914   7.981   8.261
 1909POPC   C3B28437  35.729   8.144   7.893
 1909POPC   C4B28438  35.607   7.992   7.490
 1910POPC   NC328439   3.908  37.271   9.515
 1910POPC   PO428440   3.283  36.917   9.547
 1910POPC   GL128441   3.594  36.726   9.264
 1910POPC   GL228442   3.871  36.936   9.122
 1910POPC   C1A28443   3.527  36.703   8.830
 1910POPC   D2A28444   3.365  36.946   8.476
 1910POPC   C3A28445   3.653  36.879   8.119
 1910POPC   C4A28446   3.515  36.987   7.697
 1910POPC   C1B28447   3.715  37.175   8.765
 1910POPC   C2B28448   3.719  37.356   8.335
 1910POPC   C3B28449   3.906  37.288   7.915
 1910POPC   C4B28450   3.905  37.215   7.460
 1911POPC   NC328451   5.462  19.864   9.806
 1911POPC   PO428452   6.080  19.976   9.521
 1911POPC   GL128453   6.174  20.005   9.078
 1911POPC   GL228454   5.874  19.877   8.990
 1911POPC   C1A28455   6.177  19.990   8.602
 1911POPC   D2A28456   5.771  20.066   8.374
 1911POPC   C3A28457   5.712  19.959   7.953
 1911POPC   C4A28458   6.096  19.830   7.783
 1911POPC   C1B28459   5.555  19.717   8.695
 1911POPC   C2B28460   5.454  19.451   8.383
 1911POPC   C3B28461   5.413  19.538   7.991
 1911POPC   C4B28462   5.721  19.497   7.701
 1912POPC   NC328463  33.147  16.366   9.508
 1912POPC   PO428464  33.413  17.015   9.568
 1912POPC   GL128465  33.109  16.815   9.243
 1912POPC   GL228466  32.806  16.545   9.164
 1912POPC   C1A28467  32.932  16.925   8.838
 1912POPC   D2A28468  32.710  17.016   8.456
 1912POPC   C3A28469  32.642  16.732   8.112
 1912POPC   C4A28470  32.741  16.842   7.698
 1912POPC   C1B28471  32.742  16.497   8.682
 1912POPC   C2B28472  33.042  16.483   8.372
 1912POPC   C3B28473  33.021  16.397   7.941
 1912POPC   C4B28474  33.010  16.437   7.511
 1913POPC   NC328475  14.990  39.675   9.638
 1913POPC   PO428476  14.877  40.386   9.540
 1913POPC   GL128477  14.957  40.030   9.264
 1913POPC   GL228478  15.299  39.999   9.195
 1913POPC   C1A28479  14.939  39.922   8.820
 1913POPC   D2A28480  15.142  39.878   8.430
 1913POPC   C3A28481  14.908  40.072   8.100
 1913POPC   C4A28482  15.006  40.134   7.683
 1913POPC   C1B28483  15.403  40.149   8.781
 1913POPC   C2B28484  15.605  40.214   8.372
 1913POPC   C3B28485  15.432  40.069   7.976
 1913POPC   C4B28486  15.469  40.013   7.520
 1914POPC   NC328487  27.312  31.930   9.532
 1914POPC   PO428488  28.000  32.051   9.394
 1914POPC   GL128489  27.625  32.268   9.234
 1914POPC   GL228490  27.532  31.974   9.086
 1914POPC   C1A28491  27.434  32.416   8.819
 1914POPC   D2A28492  27.571  32.234   8.422
 1914POPC   C3A28493  27.461  32.408   8.028
 1914POPC   C4A28494  27.881  32.498   7.964
 1914POPC   C1B28495  27.625  31.799   8.721
 1914POPC   C2B28496  27.733  31.734   8.313
 1914POPC   C3B28497  27.628  31.929   7.934
 1914POPC   C4B28498  27.383  31.931   7.547
 1915POPC   NC328499  18.655   8.740   9.487
 1915POPC   PO428500  19.241   8.950   9.769
 1915POPC   GL128501  19.102   8.952   9.298
 1915POPC   GL228502  19.025   8.614   9.160
 1915POPC   C1A28503  19.057   9.023   8.820
 1915POPC   D2A28504  19.130   8.819   8.404
 1915POPC   C3A28505  19.283   9.016   8.039
 1915POPC   C4A28506  18.931   9.162   7.783
 1915POPC   C1B28507  18.832   8.535   8.761
 1915POPC   C2B28508  18.674   8.611   8.328
 1915POPC   C3B28509  18.934   8.634   7.928
 1915POPC   C4B28510  18.891   8.666   7.452
 1916POPC   NC328511  17.962  40.561   9.444
 1916POPC   PO428512  18.476  40.939   9.540
 1916POPC   GL128513  18.239  40.838   9.138
 1916POPC   GL228514  18.380  40.511   9.151
 1916POPC   C1A28515  18.063  40.765   8.696
 1916POPC   D2A28516  18.176  40.574   8.253
 1916POPC   C3A28517  18.072  40.847   7.871
 1916POPC   C4A28518  17.901  40.828   7.397
 1916POPC   C1B28519  18.512  40.485   8.727
 1916POPC   C2B28520  18.579  40.221   8.364
 1916POPC   C3B28521  18.597  40.359   7.951
 1916POPC   C4B28522  18.585  40.791   7.848
 1917POPC   NC328523   7.420  43.335   9.478
 1917POPC   PO428524   7.710  42.745   9.703
 1917POPC   GL128525   7.717  42.976   9.252
 1917POPC   GL228526   7.638  43.294   9.037
 1917POPC   C1A28527   7.347  42.885   8.926
 1917POPC   D2A28528   7.192  42.846   8.478
 1917POPC   C3A28529   7.401  42.974   8.072
 1917POPC   C4A28530   7.256  43.155   7.635
 1917POPC   C1B28531   7.247  43.360   8.780
 1917POPC   C2B28532   7.286  43.390   8.327
 1917POPC   C3B28533   7.434  43.515   7.925
 1917POPC   C4B28534   7.678  43.575   7.504
 1918POPC   NC328535  18.145  44.274   9.449
 1918POPC   PO428536  18.577  43.761   9.354
 1918POPC   GL128537  18.471  44.070   9.105
 1918POPC   GL228538  18.151  43.969   9.036
 1918POPC   C1A28539  18.486  44.258   8.750
 1918POPC   D2A28540  18.400  44.101   8.379
 1918POPC   C3A28541  18.584  44.264   8.015
 1918POPC   C4A28542  18.404  44.264   7.612
 1918POPC   C1B28543  18.364  43.682   8.694
 1918POPC   C2B28544  18.494  43.628   8.237
 1918POPC   C3B28545  18.303  43.831   7.913
 1918POPC   C4B28546  18.108  43.686   7.550
 1919POPC   NC328547   9.317  16.933   9.589
 1919POPC   PO428548   8.778  16.585   9.405
 1919POPC   GL128549   8.826  16.638   9.010
 1919POPC   GL228550   8.862  16.951   9.039
 1919POPC   C1A28551   8.809  16.742   8.587
 1919POPC   D2A28552   8.720  17.054   8.276
 1919POPC   C3A28553   8.690  16.808   7.895
 1919POPC   C4A28554   8.932  16.396   7.845
 1919POPC   C1B28555   9.167  17.082   8.763
 1919POPC   C2B28556   9.300  17.052   8.319
 1919POPC   C3B28557   9.326  16.823   7.905
 1919POPC   C4B28558   9.517  16.870   7.433
 1920POPC   NC328559   8.177  30.368   9.528
 1920POPC   PO428560   8.401  29.841   9.488
 1920POPC   GL128561   8.275  30.071   9.108
 1920POPC   GL228562   7.918  30.195   9.125
 1920POPC   C1A28563   8.163  30.025   8.680
 1920POPC   D2A28564   8.058  29.789   8.311
 1920POPC   C3A28565   8.096  29.995   7.898
 1920POPC   C4A28566   8.127  29.727   7.537
 1920POPC   C1B28567   7.702  30.214   8.720
 1920POPC   C2B28568   7.850  30.257   8.316
 1920POPC   C3B28569   7.607  30.167   7.941
 1920POPC   C4B28570   7.618  29.833   7.631
 1921POPC   NC328571  22.472  10.455   9.589
 1921POPC   PO428572  21.952  10.844   9.598
 1921POPC   GL128573  22.046  10.555   9.262
 1921POPC   GL228574  22.295  10.781   9.151
 1921POPC   C1A28575  22.050  10.476   8.800
 1921POPC   D2A28576  22.151  10.680   8.385
 1921POPC   C3A28577  22.002  10.513   7.958
 1921POPC   C4A28578  21.864  10.421   7.508
 1921POPC   C1B28579  22.518  10.756   8.760
 1921POPC   C2B28580  22.676  10.602   8.355
 1921POPC   C3B28581  22.475  10.763   7.989
 1921POPC   C4B28582  22.249  10.769   7.597
 1922POPC   NC328583  32.877  39.330   9.703
 1922POPC   PO428584  32.180  39.364   9.535
 1922POPC   GL128585  32.336  39.346   9.133
 1922POPC   GL228586  32.191  39.049   9.032
 1922POPC   C1A28587  32.450  39.437   8.703
 1922POPC   D2A28588  32.239  39.561   8.324
 1922POPC   C3A28589  32.192  39.259   7.998
 1922POPC   C4A28590  32.341  39.327   7.576
 1922POPC   C1B28591  31.921  39.273   8.746
 1922POPC   C2B28592  31.772  39.357   8.338
 1922POPC   C3B28593  31.710  39.130   7.986
 1922POPC   C4B28594  31.858  39.092   7.595
 1923POPC   NC328595   6.857   7.034   9.543
 1923POPC   PO428596   6.514   7.583   9.793
 1923POPC   GL128597   6.528   7.521   9.279
 1923POPC   GL228598   6.795   7.337   9.157
 1923POPC   C1A28599   6.606   7.691   8.838
 1923POPC   D2A28600   6.592   7.460   8.435
 1923POPC   C3A28601   6.674   7.627   8.024
 1923POPC   C4A28602   6.482   7.558   7.664
 1923POPC   C1B28603   7.133   7.115   8.932
 1923POPC   C2B28604   7.150   7.121   8.510
 1923POPC   C3B28605   6.990   7.237   8.157
 1923POPC   C4B28606   6.969   7.278   7.727
 1924POPC   NC328607  38.831  11.964   9.515
 1924POPC   PO428608  39.077  12.495   9.652
 1924POPC   GL128609  39.195  12.272   9.242
 1924POPC   GL228610  39.044  11.971   9.053
 1924POPC   C1A28611  39.323  12.366   8.811
 1924POPC   D2A28612  39.157  12.250   8.413
 1924POPC   C3A28613  39.333  12.337   8.009
 1924POPC   C4A28614  39.585  12.091   7.704
 1924POPC   C1B28615  38.882  11.825   8.646
 1924POPC   C2B28616  38.674  11.762   8.261
 1924POPC   C3B28617  38.995  11.931   8.064
 1924POPC   C4B28618  39.091  11.993   7.690
 1925POPC   NC328619  14.060   4.046   9.325
 1925POPC   PO428620  14.316   4.584   9.736
 1925POPC   GL128621  14.211   4.533   9.280
 1925POPC   GL228622  14.515   4.482   9.167
 1925POPC   C1A28623  14.205   4.435   8.793
 1925POPC   D2A28624  14.367   4.172   8.449
 1925POPC   C3A28625  14.315   4.371   8.026
 1925POPC   C4A28626  14.153   4.336   7.599
 1925POPC   C1B28627  14.736   4.254   8.885
 1925POPC   C2B28628  14.825   4.348   8.506
 1925POPC   C3B28629  14.813   4.248   8.115
 1925POPC   C4B28630  14.709   4.389   7.704
 1926POPC   NC328631  25.920  38.723   9.600
 1926POPC   PO428632  26.081  38.220   9.580
 1926POPC   GL128633  26.210  38.522   9.228
 1926POPC   GL228634  26.056  38.300   8.979
 1926POPC   C1A28635  26.296  38.700   8.795
 1926POPC   D2A28636  26.141  38.472   8.425
 1926POPC   C3A28637  26.214  38.517   7.971
 1926POPC   C4A28638  25.922  38.592   7.613
 1926POPC   C1B28639  26.465  38.220   8.750
 1926POPC   C2B28640  26.600  38.225   8.303
 1926POPC   C3B28641  26.426  37.970   7.984
 1926POPC   C4B28642  26.061  38.062   7.725
 1927POPC   NC328643  42.719  37.579   9.585
 1927POPC   PO428644  43.350  37.426   9.588
 1927POPC   GL128645  43.126  37.693   9.265
 1927POPC   GL228646  43.382  37.896   9.079
 1927POPC   C1A28647  42.959  37.660   8.813
 1927POPC   D2A28648  42.826  37.409   8.418
 1927POPC   C3A28649  42.960  37.602   8.005
 1927POPC   C4A28650  42.926  38.052   7.842
 1927POPC   C1B28651  43.420  37.473   8.927
 1927POPC   C2B28652  43.345  37.387   8.519
 1927POPC   C3B28653  43.477  37.484   8.106
 1927POPC   C4B28654  43.413  37.282   7.716
 1928POPC   NC328655  39.394  28.230   9.648
 1928POPC   PO428656  38.861  28.558   9.476
 1928POPC   GL128657  39.271  28.468   9.183
 1928POPC   GL228658  39.481  28.115   9.157
 1928POPC   C1A28659  39.473  28.419   8.753
 1928POPC   D2A28660  39.331  28.291   8.355
 1928POPC   C3A28661  39.546  28.486   8.022
 1928POPC   C4A28662  39.435  28.686   7.654
 1928POPC   C1B28663  39.125  28.072   8.896
 1928POPC   C2B28664  38.914  28.010   8.520
 1928POPC   C3B28665  39.025  27.975   8.080
 1928POPC   C4B28666  39.277  28.163   7.730
 1929POPC   NC328667  20.876  26.296   9.436
 1929POPC   PO428668  20.505  25.721   9.525
 1929POPC   GL128669  20.647  25.926   9.159
 1929POPC   GL228670  20.998  25.785   9.196
 1929POPC   C1A28671  20.552  26.245   8.829
 1929POPC   D2A28672  20.472  26.483   8.467
 1929POPC   C3A28673  20.690  26.410   8.090
 1929POPC   C4A28674  20.584  26.360   7.710
 1929POPC   C1B28675  21.012  26.001   8.794
 1929POPC   C2B28676  20.791  26.005   8.409
 1929POPC   C3B28677  20.965  25.994   8.001
 1929POPC   C4B28678  20.799  25.874   7.609
 1930POPC   NC328679  38.819  40.441   9.466
 1930POPC   PO428680  39.420  40.802   9.396
 1930POPC   GL128681  39.220  40.830   9.051
 1930POPC   GL228682  39.141  40.496   9.021
 1930POPC   C1A28683  39.327  40.871   8.627
 1930POPC   D2A28684  39.091  40.914   8.281
 1930POPC   C3A28685  39.252  40.779   7.915
 1930POPC   C4A28686  39.348  40.942   7.500
 1930POPC   C1B28687  39.098  40.414   8.569
 1930POPC   C2B28688  38.818  40.444   8.211
 1930POPC   C3B28689  38.731  40.750   7.953
 1930POPC   C4B28690  38.885  40.755   7.560
 1931POPC   NC328691  22.196  40.599   9.746
 1931POPC   PO428692  21.834  41.105   9.741
 1931POPC   GL128693  22.055  40.815   9.307
 1931POPC   GL228694  22.319  40.958   9.098
 1931POPC   C1A28695  21.926  40.716   8.800
 1931POPC   D2A28696  21.839  40.966   8.395
 1931POPC   C3A28697  21.848  40.751   7.977
 1931POPC   C4A28698  21.974  40.759   7.550
 1931POPC   C1B28699  22.407  40.795   8.692
 1931POPC   C2B28700  22.248  40.675   8.286
 1931POPC   C3B28701  22.385  40.613   7.863
 1931POPC   C4B28702  22.668  40.850   7.661
 1932POPC   NC328703  40.689  16.870   9.497
 1932POPC   PO428704  41.014  16.440   9.112
 1932POPC   GL128705  40.872  16.844   9.028
 1932POPC   GL228706  40.514  16.708   9.053
 1932POPC   C1A28707  41.078  16.964   8.672
 1932POPC   D2A28708  41.097  16.604   8.439
 1932POPC   C3A28709  41.171  16.636   7.997
 1932POPC   C4A28710  40.912  16.883   7.702
 1932POPC   C1B28711  40.605  16.682   8.626
 1932POPC   C2B28712  40.649  16.552   8.207
 1932POPC   C3B28713  40.461  16.705   7.864
 1932POPC   C4B28714  40.293  16.401   7.653
 1933POPC   NC328715  31.391  17.102   9.481
 1933POPC   PO428716  31.690  16.485   9.558
 1933POPC   GL128717  31.582  16.721   9.176
 1933POPC   GL228718  31.302  16.806   9.065
 1933POPC   C1A28719  31.718  16.683   8.741
 1933POPC   D2A28720  31.753  16.498   8.332
 1933POPC   C3A28721  31.418  16.571   8.010
 1933POPC   C4A28722  31.775  16.520   7.723
 1933POPC   C1B28723  31.231  16.844   8.642
 1933POPC   C2B28724  31.500  16.958   8.331
 1933POPC   C3B28725  31.692  16.979   7.930
 1933POPC   C4B28726  31.349  16.892   7.609
 1934POPC   NC328727   5.438  28.278   9.536
 1934POPC   PO428728   5.472  28.851   9.534
 1934POPC   GL128729   5.198  28.853   9.140
 1934POPC   GL228730   4.982  28.548   9.123
 1934POPC   C1A28731   5.107  28.760   8.676
 1934POPC   D2A28732   5.022  28.588   8.284
 1934POPC   C3A28733   5.274  28.636   7.940
 1934POPC   C4A28734   5.576  28.355   7.711
 1934POPC   C1B28735   4.631  28.613   8.789
 1934POPC   C2B28736   4.527  28.637   8.326
 1934POPC   C3B28737   4.703  28.547   7.872
 1934POPC   C4B28738   4.575  28.370   7.448
 1935POPC   NC328739  27.351   5.300   9.506
 1935POPC   PO428740  27.655   5.905   9.553
 1935POPC   GL128741  27.705   6.110   9.184
 1935POPC   GL228742  27.338   6.062   9.150
 1935POPC   C1A28743  27.754   6.028   8.757
 1935POPC   D2A28744  27.875   5.745   8.441
 1935POPC   C3A28745  27.822   5.904   8.021
 1935POPC   C4A28746  27.649   5.727   7.636
 1935POPC   C1B28747  27.308   5.809   8.757
 1935POPC   C2B28748  27.365   5.878   8.313
 1935POPC   C3B28749  27.228   5.792   7.898
 1935POPC   C4B28750  27.168   5.784   7.431
 1936POPC   NC328751  10.581  33.544   9.503
 1936POPC   PO428752  10.195  34.105   9.551
 1936POPC   GL128753  10.335  33.915   9.153
 1936POPC   GL228754  10.674  33.984   9.010
 1936POPC   C1A28755  10.342  33.753   8.711
 1936POPC   D2A28756  10.539  33.821   8.334
 1936POPC   C3A28757  10.454  33.501   8.029
 1936POPC   C4A28758  10.449  33.765   7.694
 1936POPC   C1B28759  10.870  33.652   8.707
 1936POPC   C2B28760  10.912  33.492   8.254
 1936POPC   C3B28761  10.903  33.557   7.796
 1936POPC   C4B28762  10.730  33.462   7.363
 1937POPC   NC328763   7.496  39.837   9.517
 1937POPC   PO428764   7.718  40.505   9.464
 1937POPC   GL128765   7.529  40.372   9.091
 1937POPC   GL228766   7.251  40.196   9.216
 1937POPC   C1A28767   7.538  40.233   8.691
 1937POPC   D2A28768   7.352  40.245   8.307
 1937POPC   C3A28769   7.530  39.996   8.018
 1937POPC   C4A28770   7.629  40.155   7.650
 1937POPC   C1B28771   7.228  39.861   8.903
 1937POPC   C2B28772   7.278  39.763   8.477
 1937POPC   C3B28773   7.157  39.661   8.048
 1937POPC   C4B28774   7.281  39.772   7.656
 1938POPC   NC328775  43.521  33.169   9.369
 1938POPC   PO428776  44.145  32.979   9.615
 1938POPC   GL128777  43.981  33.006   9.205
 1938POPC   GL228778  43.746  32.737   9.154
 1938POPC   C1A28779  44.000  33.253   8.814
 1938POPC   D2A28780  43.789  33.341   8.426
 1938POPC   C3A28781  43.892  33.108   8.052
 1938POPC   C4A28782  44.111  33.158   7.623
 1938POPC   C1B28783  43.696  32.835   8.704
 1938POPC   C2B28784  43.448  32.850   8.341
 1938POPC   C3B28785  43.426  32.723   7.932
 1938POPC   C4B28786  43.771  32.770   7.666
 1939POPC   NC328787  33.311  17.972   9.400
 1939POPC   PO428788  32.757  17.704   9.258
 1939POPC   GL128789  33.050  17.368   9.070
 1939POPC   GL228790  33.255  17.616   8.982
 1939POPC   C1A28791  33.218  17.261   8.598
 1939POPC   D2A28792  32.956  17.414   8.223
 1939POPC   C3A28793  33.044  17.466   7.830
 1939POPC   C4A28794  33.111  17.295   7.463
 1939POPC   C1B28795  32.858  17.617   8.662
 1939POPC   C2B28796  32.813  17.920   8.342
 1939POPC   C3B28797  32.622  17.804   7.992
 1939POPC   C4B28798  32.691  17.715   7.543
 1940POPC   NC328799  29.239   9.188   9.468
 1940POPC   PO428800  29.365   9.827   9.523
 1940POPC   GL128801  29.163   9.598   9.164
 1940POPC   GL228802  28.826   9.605   8.983
 1940POPC   C1A28803  29.386   9.393   8.827
 1940POPC   D2A28804  29.579   9.571   8.461
 1940POPC   C3A28805  29.296   9.625   8.095
 1940POPC   C4A28806  29.292   9.529   7.647
 1940POPC   C1B28807  29.066   9.769   8.624
 1940POPC   C2B28808  29.023  10.054   8.278
 1940POPC   C3B28809  29.150  10.099   7.896
 1940POPC   C4B28810  28.954   9.900   7.548
 1941POPC   NC328811  34.998  33.628   9.469
 1941POPC   PO428812  34.793  34.262   9.448
 1941POPC   GL128813  34.976  34.026   9.123
 1941POPC   GL228814  35.321  33.977   9.179
 1941POPC   C1A28815  35.065  33.816   8.743
 1941POPC   D2A28816  35.266  33.675   8.393
 1941POPC   C3A28817  35.125  33.793   8.015
 1941POPC   C4A28818  34.992  33.850   7.620
 1941POPC   C1B28819  35.573  33.832   8.818
 1941POPC   C2B28820  35.775  33.719   8.430
 1941POPC   C3B28821  35.604  33.518   8.050
 1941POPC   C4B28822  35.460  33.636   7.652
 1942POPC   NC328823   5.874  31.238   9.408
 1942POPC   PO428824   5.851  31.839   9.615
 1942POPC   GL128825   5.895  31.708   9.172
 1942POPC   GL228826   6.242  31.596   9.220
 1942POPC   C1A28827   5.877  31.480   8.746
 1942POPC   D2A28828   5.844  31.205   8.349
 1942POPC   C3A28829   5.635  31.312   7.972
 1942POPC   C4A28830   5.481  31.435   7.598
 1942POPC   C1B28831   6.365  31.652   8.792
 1942POPC   C2B28832   6.293  31.481   8.380
 1942POPC   C3B28833   6.084  31.535   8.000
 1942POPC   C4B28834   6.252  31.662   7.612
 1943POPC   NC328835  27.870  28.136   9.468
 1943POPC   PO428836  28.335  28.569   9.289
 1943POPC   GL128837  28.140  28.326   8.989
 1943POPC   GL228838  27.964  28.018   8.982
 1943POPC   C1A28839  28.178  28.450   8.582
 1943POPC   D2A28840  28.281  28.676   8.225
 1943POPC   C3A28841  28.634  28.582   7.985
 1943POPC   C4A28842  28.583  28.537   7.574
 1943POPC   C1B28843  28.032  27.960   8.545
 1943POPC   C2B28844  28.088  28.060   8.122
 1943POPC   C3B28845  28.161  28.365   7.825
 1943POPC   C4B28846  28.186  28.292   7.385
 1944POPC   NC328847  27.552  42.091   9.398
 1944POPC   PO428848  27.361  41.507   9.611
 1944POPC   GL128849  27.403  41.599   9.178
 1944POPC   GL228850  27.143  41.857   9.175
 1944POPC   C1A28851  27.673  41.565   8.795
 1944POPC   D2A28852  27.665  41.428   8.375
 1944POPC   C3A28853  27.803  41.720   8.084
 1944POPC   C4A28854  27.815  41.502   7.716
 1944POPC   C1B28855  27.300  41.904   8.770
 1944POPC   C2B28856  27.206  41.768   8.367
 1944POPC   C3B28857  27.327  41.906   7.990
 1944POPC   C4B28858  27.544  41.905   7.646
 1945POPC   NC328859  18.538   5.122   9.503
 1945POPC   PO428860  17.886   5.016   9.537
 1945POPC   GL128861  18.073   5.125   9.139
 1945POPC   GL228862  18.240   5.418   9.053
 1945POPC   C1A28863  18.325   5.009   8.778
 1945POPC   D2A28864  18.467   4.785   8.449
 1945POPC   C3A28865  18.426   4.993   8.065
 1945POPC   C4A28866  18.095   4.905   7.787
 1945POPC   C1B28867  18.111   5.459   8.641
 1945POPC   C2B28868  18.244   5.470   8.217
 1945POPC   C3B28869  18.087   5.406   7.817
 1945POPC   C4B28870  17.871   5.283   7.409
 1946POPC   NC328871  43.947  31.028   9.489
 1946POPC   PO428872  43.877  30.393   9.697
 1946POPC   GL128873  43.883  30.518   9.208
 1946POPC   GL228874  43.729  30.863   9.070
 1946POPC   C1A28875  43.846  30.528   8.716
 1946POPC   D2A28876  43.813  30.879   8.363
 1946POPC   C3A28877  43.804  30.663   7.941
 1946POPC   C4A28878  43.556  30.307   7.760
 1946POPC   C1B28879  44.133  30.934   8.827
 1946POPC   C2B28880  44.330  30.849   8.418
 1946POPC   C3B28881  44.330  31.009   8.004
 1946POPC   C4B28882  44.258  30.886   7.573
 1947POPC   NC328883   6.731   0.184   9.562
 1947POPC   PO428884   6.889   0.813   9.473
 1947POPC   GL128885   6.898   0.573   9.120
 1947POPC   GL228886   6.584   0.414   9.105
 1947POPC   C1A28887   6.793   0.700   8.709
 1947POPC   D2A28888   6.744   0.559   8.301
 1947POPC   C3A28889   6.923   0.713   7.930
 1947POPC   C4A28890   6.778   0.349   7.753
 1947POPC   C1B28891   6.525   0.222   8.692
 1947POPC   C2B28892   6.320   0.296   8.292
 1947POPC   C3B28893   6.321   0.518   7.901
 1947POPC   C4B28894   6.264   0.488   7.445
 1948POPC   NC328895   5.643  40.862   9.726
 1948POPC   PO428896   6.259  40.607   9.733
 1948POPC   GL128897   6.014  40.664   9.308
 1948POPC   GL228898   5.667  40.758   9.224
 1948POPC   C1A28899   5.966  40.724   8.841
 1948POPC   D2A28900   5.887  40.920   8.443
 1948POPC   C3A28901   5.776  40.606   8.141
 1948POPC   C4A28902   5.792  40.660   7.714
 1948POPC   C1B28903   5.505  40.979   8.833
 1948POPC   C2B28904   5.374  40.905   8.417
 1948POPC   C3B28905   5.516  41.049   8.026
 1948POPC   C4B28906   5.627  41.148   7.599
 1949POPC   NC328907  28.379  24.065   9.491
 1949POPC   PO428908  28.028  23.468   9.474
 1949POPC   GL128909  28.211  23.521   9.101
 1949POPC   GL228910  28.403  23.805   9.068
 1949POPC   C1A28911  28.040  23.580   8.695
 1949POPC   D2A28912  28.103  23.441   8.274
 1949POPC   C3A28913  28.320  23.649   7.917
 1949POPC   C4A28914  28.284  23.534   7.475
 1949POPC   C1B28915  28.253  24.046   8.714
 1949POPC   C2B28916  28.090  23.992   8.273
 1949POPC   C3B28917  28.044  24.166   7.823
 1949POPC   C4B28918  28.051  23.995   7.396
 1950POPC   NC328919  42.372   3.254   9.505
 1950POPC   PO428920  42.246   3.973   9.476
 1950POPC   GL128921  42.253   3.624   9.146
 1950POPC   GL228922  42.072   3.279   9.106
 1950POPC   C1A28923  42.475   3.451   8.776
 1950POPC   D2A28924  42.310   3.316   8.359
 1950POPC   C3A28925  42.613   3.204   8.078
 1950POPC   C4A28926  42.585   3.066   7.675
 1950POPC   C1B28927  41.975   3.459   8.716
 1950POPC   C2B28928  42.149   3.799   8.473
 1950POPC   C3B28929  42.220   3.773   8.030
 1950POPC   C4B28930  42.510   3.596   7.760
 1951POPC   NC328931   2.689  44.146   9.417
 1951POPC   PO428932   2.830  43.468   9.453
 1951POPC   GL128933   2.789  43.732   9.131
 1951POPC   GL228934   3.073  43.899   9.111
 1951POPC   C1A28935   2.625  43.882   8.771
 1951POPC   D2A28936   2.497  43.607   8.446
 1951POPC   C3A28937   2.585  43.788   8.067
 1951POPC   C4A28938   2.878  43.675   7.789
 1951POPC   C1B28939   3.102  44.075   8.695
 1951POPC   C2B28940   2.864  44.125   8.346
 1951POPC   C3B28941   2.912  44.198   7.946
 1951POPC   C4B28942   2.630  44.140   7.668
 1952POPC   NC328943  29.662   3.015   9.413
 1952POPC   PO428944  30.033   2.477   9.657
 1952POPC   GL128945  29.909   2.594   9.222
 1952POPC   GL228946  30.039   2.902   9.093
 1952POPC   C1A28947  29.659   2.687   8.824
 1952POPC   D2A28948  29.628   2.927   8.455
 1952POPC   C3A28949  29.722   2.737   8.099
 1952POPC   C4A28950  29.965   2.729   7.751
 1952POPC   C1B28951  30.221   2.681   8.792
 1952POPC   C2B28952  30.187   2.759   8.367
 1952POPC   C3B28953  30.117   3.104   8.139
 1952POPC   C4B28954  30.322   3.090   7.763
 1953POPC   NC328955  38.437  33.172   9.690
 1953POPC   PO428956  38.613  32.521   9.743
 1953POPC   GL128957  38.505  32.711   9.262
 1953POPC   GL228958  38.382  33.061   9.204
 1953POPC   C1A28959  38.508  32.880   8.754
 1953POPC   D2A28960  38.729  33.170   8.441
 1953POPC   C3A28961  38.662  32.986   8.022
 1953POPC   C4A28962  38.299  32.792   7.873
 1953POPC   C1B28963  38.339  33.344   8.839
 1953POPC   C2B28964  38.301  33.484   8.441
 1953POPC   C3B28965  38.121  33.321   8.113
 1953POPC   C4B28966  38.175  33.453   7.711
 1954POPC   NC328967   3.531  20.339   9.389
 1954POPC   PO428968   3.108  20.708   9.626
 1954POPC   GL128969   3.442  20.776   9.180
 1954POPC   GL228970   3.849  20.672   9.154
 1954POPC   C1A28971   3.533  20.614   8.754
 1954POPC   D2A28972   3.721  20.380   8.410
 1954POPC   C3A28973   3.602  20.484   8.003
 1954POPC   C4A28974   3.324  20.791   7.880
 1954POPC   C1B28975   4.062  20.534   8.762
 1954POPC   C2B28976   4.120  20.691   8.337
 1954POPC   C3B28977   4.063  20.656   7.899
 1954POPC   C4B28978   3.775  20.864   7.646
 1955POPC   NC328979  14.847  44.630   9.519
 1955POPC   PO428980  15.467  44.404   9.485
 1955POPC   GL128981  15.270  44.634   9.137
 1955POPC   GL228982  14.973  44.796   9.052
 1955POPC   C1A28983  15.308  44.572   8.722
 1955POPC   D2A28984  15.467  44.765   8.391
 1955POPC   C3A28985  15.323  44.602   8.001
 1955POPC   C4A28986  15.406  44.895   7.682
 1955POPC   C1B28987  14.803  44.621   8.745
 1955POPC   C2B28988  14.949  44.720   8.381
 1955POPC   C3B28989  14.816  44.679   7.994
 1955POPC   C4B28990  14.770  44.971   7.682
 1956POPC   NC328991  44.815   3.103   9.489
 1956POPC   PO428992  44.379   2.603   9.381
 1956POPC   GL128993  44.702   2.415   9.142
 1956POPC   GL228994  44.932   2.700   9.136
 1956POPC   C1A28995  44.632   2.509   8.735
 1956POPC   D2A28996  44.377   2.752   8.492
 1956POPC   C3A28997  44.569   2.813   8.151
 1956POPC   C4A28998  44.565   3.096   7.822
 1956POPC   C1B28999  44.714   3.011   8.840
 1956POPC   C2B29000  44.817   3.171   8.418
 1956POPC   C3B29001   0.028   2.988   8.031
 1956POPC   C4B29002  44.859   2.660   7.748
 1957POPC   NC329003  10.593  18.938   9.618
 1957POPC   PO429004  10.574  19.580   9.558
 1957POPC   GL129005  10.390  19.245   9.249
 1957POPC   GL229006  10.585  18.914   9.108
 1957POPC   C1A29007  10.300  19.195   8.800
 1957POPC   D2A29008  10.381  19.022   8.370
 1957POPC   C3A29009  10.568  19.292   8.030
 1957POPC   C4A29010  10.672  19.007   7.721
 1957POPC   C1B29011  10.785  18.928   8.685
 1957POPC   C2B29012  10.885  18.926   8.223
 1957POPC   C3B29013  10.994  18.627   7.892
 1957POPC   C4B29014  10.786  18.560   7.502
 1958POPC   NC329015  44.973   2.116   9.473
 1958POPC   PO429016  44.618   1.770   9.834
 1958POPC   GL129017  44.511   1.918   9.330
 1958POPC   GL229018  44.750   1.885   9.040
 1958POPC   C1A29019  44.316   2.101   8.890
 1958POPC   D2A29020  44.300   2.246   8.428
 1958POPC   C3A29021  44.384   1.999   8.034
 1958POPC   C4A29022  44.524   1.910   7.583
 1958POPC   C1B29023  44.772   2.037   8.606
 1958POPC   C2B29024  44.842   2.379   8.276
 1958POPC   C3B29025  44.848   2.171   7.897
 1958POPC   C4B29026  44.940   1.739   7.969
 1959POPC   NC329027  29.020  15.694   9.445
 1959POPC   PO429028  29.387  16.274   9.495
 1959POPC   GL129029  29.161  16.085   9.133
 1959POPC   GL229030  29.332  16.193   8.829
 1959POPC   C1A29031  28.972  15.860   8.776
 1959POPC   D2A29032  29.072  16.048   8.368
 1959POPC   C3A29033  29.038  15.885   7.952
 1959POPC   C4A29034  28.972  16.150   7.610
 1959POPC   C1B29035  29.486  15.846   8.612
 1959POPC   C2B29036  29.490  15.806   8.175
 1959POPC   C3B29037  29.476  15.734   7.725
 1959POPC   C4B29038  29.479  16.029   7.386
 1960POPC   NC329039  31.316   5.835   9.537
 1960POPC   PO429040  31.727   6.280   9.382
 1960POPC   GL129041  31.591   5.950   9.081
 1960POPC   GL229042  31.241   5.892   9.052
 1960POPC   C1A29043  31.520   5.970   8.612
 1960POPC   D2A29044  31.709   5.699   8.262
 1960POPC   C3A29045  31.745   5.870   7.843
 1960POPC   C4A29046  31.497   6.185   7.678
 1960POPC   C1B29047  31.045   5.580   8.793
 1960POPC   C2B29048  31.095   5.739   8.399
 1960POPC   C3B29049  31.259   5.872   8.025
 1960POPC   C4B29050  31.252   5.757   7.583
 1961POPC   NC329051  17.278  42.861   9.390
 1961POPC   PO429052  17.684  43.319   9.426
 1961POPC   GL129053  17.544  43.136   9.047
 1961POPC   GL229054  17.709  42.823   9.111
 1961POPC   C1A29055  17.454  43.047   8.603
 1961POPC   D2A29056  17.544  43.150   8.162
 1961POPC   C3A29057  17.228  43.213   7.835
 1961POPC   C4A29058  17.240  43.328   7.383
 1961POPC   C1B29059  17.992  42.745   8.794
 1961POPC   C2B29060  17.942  42.928   8.429
 1961POPC   C3B29061  17.978  42.849   8.029
 1961POPC   C4B29062  17.613  42.828   7.764
 1962POPC   NC329063  34.755  19.540   9.339
 1962POPC   PO429064  34.791  20.052   9.718
 1962POPC   GL129065  34.608  19.977   9.231
 1962POPC   GL229066  34.886  20.001   9.091
 1962POPC   C1A29067  34.416  19.938   8.824
 1962POPC   D2A29068  34.417  19.729   8.410
 1962POPC   C3A29069  34.286  19.936   8.050
 1962POPC   C4A29070  34.324  20.201   7.694
 1962POPC   C1B29071  34.961  19.981   8.671
 1962POPC   C2B29072  34.822  20.080   8.253
 1962POPC   C3B29073  34.822  20.061   7.823
 1962POPC   C4B29074  34.674  19.928   7.436
 1963POPC   NC329075   5.724  30.252   9.486
 1963POPC   PO429076   6.357  30.246   9.620
 1963POPC   GL129077   6.188  30.083   9.208
 1963POPC   GL229078   5.884  29.866   9.167
 1963POPC   C1A29079   6.007  30.170   8.771
 1963POPC   D2A29080   5.953  29.913   8.394
 1963POPC   C3A29081   5.787  30.105   8.018
 1963POPC   C4A29082   5.959  30.121   7.574
 1963POPC   C1B29083   5.546  29.913   8.844
 1963POPC   C2B29084   5.440  29.984   8.413
 1963POPC   C3B29085   5.520  29.678   8.081
 1963POPC   C4B29086   5.770  29.620   7.691
 1964POPC   NC329087  21.894  30.117   9.554
 1964POPC   PO429088  22.414  29.755   9.340
 1964POPC   GL129089  22.109  29.637   9.081
 1964POPC   GL229090  22.041  30.002   9.049
 1964POPC   C1A29091  21.939  29.687   8.667
 1964POPC   D2A29092  21.892  30.030   8.377
 1964POPC   C3A29093  21.901  29.771   8.025
 1964POPC   C4A29094  22.171  29.627   7.711
 1964POPC   C1B29095  22.399  29.961   8.727
 1964POPC   C2B29096  22.456  30.122   8.311
 1964POPC   C3B29097  22.222  30.151   7.922
 1964POPC   C4B29098  22.226  30.505   7.644
 1965POPC   NC329099  12.908  42.594   9.293
 1965POPC   PO429100  12.902  42.038   9.597
 1965POPC   GL129101  12.707  42.100   9.217
 1965POPC   GL229102  12.997  42.205   8.989
 1965POPC   C1A29103  12.659  41.866   8.837
 1965POPC   D2A29104  12.846  42.024   8.482
 1965POPC   C3A29105  12.604  42.085   8.133
 1965POPC   C4A29106  12.526  42.071   7.716
 1965POPC   C1B29107  12.598  42.376   8.779
 1965POPC   C2B29108  12.644  42.560   8.387
 1965POPC   C3B29109  12.963  42.454   8.089
 1965POPC   C4B29110  12.871  42.445   7.661
 1966POPC   NC329111  37.513  24.322   9.513
 1966POPC   PO429112  38.137  24.199   9.287
 1966POPC   GL129113  37.841  24.423   9.115
 1966POPC   GL229114  37.620  24.151   9.061
 1966POPC   C1A29115  37.930  24.693   8.793
 1966POPC   D2A29116  38.049  24.622   8.398
 1966POPC   C3A29117  37.963  24.830   8.024
 1966POPC   C4A29118  37.927  24.735   7.622
 1966POPC   C1B29119  37.760  23.983   8.704
 1966POPC   C2B29120  37.726  24.199   8.345
 1966POPC   C3B29121  37.443  24.256   8.028
 1966POPC   C4B29122  37.626  24.344   7.685
 1967POPC   NC329123  37.270  34.258   9.389
 1967POPC   PO429124  37.894  34.453   9.556
 1967POPC   GL129125  37.646  34.562   9.198
 1967POPC   GL229126  37.797  34.819   9.025
 1967POPC   C1A29127  37.363  34.664   8.823
 1967POPC   D2A29128  37.487  34.712   8.394
 1967POPC   C3A29129  37.252  34.439   8.143
 1967POPC   C4A29130  37.335  34.528   7.735
 1967POPC   C1B29131  37.818  34.448   8.709
 1967POPC   C2B29132  38.010  34.498   8.300
 1967POPC   C3B29133  37.801  34.628   7.932
 1967POPC   C4B29134  37.582  34.997   7.798
 1968POPC   NC329135  36.775  28.096   9.677
 1968POPC   PO429136  37.247  28.414   9.525
 1968POPC   GL129137  36.912  28.280   9.225
 1968POPC   GL229138  36.627  28.499   9.165
 1968POPC   C1A29139  36.899  28.145   8.793
 1968POPC   D2A29140  36.838  28.346   8.403
 1968POPC   C3A29141  36.857  28.136   7.997
 1968POPC   C4A29142  37.051  28.028   7.655
 1968POPC   C1B29143  36.954  28.656   8.830
 1968POPC   C2B29144  37.082  28.833   8.408
 1968POPC   C3B29145  37.065  28.646   7.982
 1968POPC   C4B29146  36.771  28.726   7.625
 1969POPC   NC329147  44.020   2.307   9.466
 1969POPC   PO429148  44.066   1.653   9.392
 1969POPC   GL129149  43.863   1.932   9.145
 1969POPC   GL229150  43.576   2.119   9.261
 1969POPC   C1A29151  43.854   1.866   8.739
 1969POPC   D2A29152  44.084   1.770   8.403
 1969POPC   C3A29153  43.870   1.836   8.082
 1969POPC   C4A29154  44.062   1.747   7.708
 1969POPC   C1B29155  43.541   2.264   8.825
 1969POPC   C2B29156  43.771   2.247   8.413
 1969POPC   C3B29157  43.970   2.336   8.019
 1969POPC   C4B29158  43.765   2.530   7.682
 1970POPC   NC329159  20.399  42.842   9.528
 1970POPC   PO429160  20.818  43.330   9.374
 1970POPC   GL129161  20.424  43.214   9.155
 1970POPC   GL229162  20.342  42.832   9.035
 1970POPC   C1A29163  20.191  43.367   8.805
 1970POPC   D2A29164  20.278  43.170   8.413
 1970POPC   C3A29165  20.238  43.392   8.041
 1970POPC   C4A29166  20.328  43.275   7.648
 1970POPC   C1B29167  20.735  42.940   8.835
 1970POPC   C2B29168  20.815  43.005   8.423
 1970POPC   C3B29169  20.701  43.141   8.043
 1970POPC   C4B29170  20.872  43.239   7.666
 1971POPC   NC329171  37.226  13.130   9.360
 1971POPC   PO429172  37.812  12.726   9.520
 1971POPC   GL129173  37.649  12.694   9.110
 1971POPC   GL229174  37.925  12.455   9.046
 1971POPC   C1A29175  37.487  12.957   8.752
 1971POPC   D2A29176  37.392  13.190   8.347
 1971POPC   C3A29177  37.280  12.919   7.989
 1971POPC   C4A29178  37.468  12.872   7.573
 1971POPC   C1B29179  37.933  12.699   8.674
 1971POPC   C2B29180  37.669  12.752   8.326
 1971POPC   C3B29181  37.798  12.849   7.960
 1971POPC   C4B29182  37.972  12.680   7.608
 1972POPC   NC329183  31.285  43.199   9.697
 1972POPC   PO429184  31.799  43.440   9.334
 1972POPC   GL129185  31.375  43.267   9.197
 1972POPC   GL229186  31.136  43.552   9.225
 1972POPC   C1A29187  31.338  42.983   8.811
 1972POPC   D2A29188  31.689  43.035   8.512
 1972POPC   C3A29189  31.596  42.896   8.124
 1972POPC   C4A29190  31.697  43.009   7.704
 1972POPC   C1B29191  31.208  43.474   8.778
 1972POPC   C2B29192  31.206  43.247   8.371
 1972POPC   C3B29193  31.339  43.297   7.942
 1972POPC   C4B29194  31.191  43.364   7.521
 1973POPC   NC329195   7.548  36.349   9.273
 1973POPC   PO429196   7.224  35.712   9.426
 1973POPC   GL129197   7.294  35.982   9.036
 1973POPC   GL229198   7.659  35.985   8.941
 1973POPC   C1A29199   7.370  36.351   8.679
 1973POPC   D2A29200   7.777  36.272   8.457
 1973POPC   C3A29201   7.700  36.282   8.019
 1973POPC   C4A29202   7.280  36.360   7.819
 1973POPC   C1B29203   7.445  35.876   8.569
 1973POPC   C2B29204   7.265  36.093   8.254
 1973POPC   C3B29205   7.064  35.914   7.942
 1973POPC   C4B29206   7.197  35.630   7.635
 1974POPC   NC329207  33.984  30.655   9.540
 1974POPC   PO429208  33.685  31.150   9.370
 1974POPC   GL129209  33.698  30.844   9.075
 1974POPC   GL229210  34.033  30.880   9.066
 1974POPC   C1A29211  33.826  30.751   8.632
 1974POPC   D2A29212  34.009  30.955   8.297
 1974POPC   C3A29213  33.684  30.943   7.993
 1974POPC   C4A29214  33.551  30.517   7.922
 1974POPC   C1B29215  34.107  30.422   8.918
 1974POPC   C2B29216  34.126  30.308   8.486
 1974POPC   C3B29217  34.360  30.542   8.190
 1974POPC   C4B29218  34.127  30.705   7.857
 1975POPC   NC329219   9.682  20.981   9.409
 1975POPC   PO429220   9.917  20.278   9.472
 1975POPC   GL129221   9.695  20.496   9.177
 1975POPC   GL229222   9.941  20.700   9.087
 1975POPC   C1A29223   9.500  20.550   8.774
 1975POPC   D2A29224   9.500  20.730   8.352
 1975POPC   C3A29225   9.705  20.563   7.992
 1975POPC   C4A29226   9.535  20.552   7.621
 1975POPC   C1B29227  10.081  20.532   8.745
 1975POPC   C2B29228  10.033  20.712   8.354
 1975POPC   C3B29229  10.144  20.853   7.952
 1975POPC   C4B29230  10.023  20.670   7.570
 1976POPC   NC329231  14.588  13.664   9.619
 1976POPC   PO429232  13.967  13.724   9.448
 1976POPC   GL129233  14.314  13.625   9.172
 1976POPC   GL229234  14.581  13.862   9.158
 1976POPC   C1A29235  14.584  13.441   8.852
 1976POPC   D2A29236  14.530  13.518   8.432
 1976POPC   C3A29237  14.726  13.571   8.040
 1976POPC   C4A29238  14.414  13.538   7.713
 1976POPC   C1B29239  14.468  13.958   8.737
 1976POPC   C2B29240  14.651  14.013   8.320
 1976POPC   C3B29241  14.458  14.114   7.894
 1976POPC   C4B29242  14.321  13.973   7.463
 1977POPC   NC329243  30.789  42.793   9.408
 1977POPC   PO429244  30.526  42.146   9.431
 1977POPC   GL129245  30.872  42.311   9.175
 1977POPC   GL229246  31.151  42.065   9.147
 1977POPC   C1A29247  30.746  42.478   8.759
 1977POPC   D2A29248  30.500  42.184   8.478
 1977POPC   C3A29249  30.558  42.248   8.034
 1977POPC   C4A29250  30.851  42.480   7.799
 1977POPC   C1B29251  30.939  42.025   8.742
 1977POPC   C2B29252  30.993  42.210   8.351
 1977POPC   C3B29253  31.065  42.042   7.965
 1977POPC   C4B29254  31.157  42.115   7.576
 1978POPC   NC329255  39.932   5.686   9.367
 1978POPC   PO429256  40.026   6.276   9.139
 1978POPC   GL129257  40.106   5.915   8.924
 1978POPC   GL229258  40.327   5.630   9.064
 1978POPC   C1A29259  39.752   5.768   8.725
 1978POPC   D2A29260  39.658   5.557   8.369
 1978POPC   C3A29261  39.881   5.747   8.024
 1978POPC   C4A29262  39.727   6.088   7.792
 1978POPC   C1B29263  40.252   5.503   8.652
 1978POPC   C2B29264  40.351   5.664   8.247
 1978POPC   C3B29265  40.342   5.544   7.813
 1978POPC   C4B29266  40.347   5.499   7.327
 1979POPC   NC329267   8.745  15.380   9.439
 1979POPC   PO429268   9.431  15.474   9.574
 1979POPC   GL129269   9.171  15.160   9.281
 1979POPC   GL229270   9.132  15.357   9.069
 1979POPC   C1A29271   8.855  14.965   8.926
 1979POPC   D2A29272   8.711  14.899   8.485
 1979POPC   C3A29273   8.874  15.169   8.144
 1979POPC   C4A29274   9.042  15.077   7.750
 1979POPC   C1B29275   8.915  15.461   8.726
 1979POPC   C2B29276   9.101  15.590   8.361
 1979POPC   C3B29277   9.263  15.507   7.970
 1979POPC   C4B29278   9.159  15.540   7.541
 1980POPC   NC329279  29.579   6.512   9.634
 1980POPC   PO429280  30.249   6.568   9.526
 1980POPC   GL129281  29.911   6.592   9.203
 1980POPC   GL229282  30.024   6.317   9.064
 1980POPC   C1A29283  29.768   6.744   8.777
 1980POPC   D2A29284  29.906   6.544   8.386
 1980POPC   C3A29285  29.716   6.704   8.027
 1980POPC   C4A29286  29.567   6.930   7.686
 1980POPC   C1B29287  30.248   6.542   8.773
 1980POPC   C2B29288  30.426   6.533   8.374
 1980POPC   C3B29289  30.256   6.631   8.007
 1980POPC   C4B29290  30.013   6.437   7.701
 1981POPC   NC329291  12.352  17.704   9.456
 1981POPC   PO429292  11.771  17.448   9.525
 1981POPC   GL129293  11.890  17.252   9.139
 1981POPC   GL229294  12.174  17.399   9.104
 1981POPC   C1A29295  11.862  17.484   8.720
 1981POPC   D2A29296  11.972  17.379   8.312
 1981POPC   C3A29297  12.157  17.556   7.963
 1981POPC   C4A29298  12.010  17.516   7.556
 1981POPC   C1B29299  12.346  17.688   8.793
 1981POPC   C2B29300  12.519  17.650   8.386
 1981POPC   C3B29301  12.631  17.373   8.073
 1981POPC   C4B29302  12.515  17.345   7.646
 1982POPC   NC329303  13.366  18.833   9.391
 1982POPC   PO429304  12.745  18.966   9.465
 1982POPC   GL129305  12.926  18.934   9.099
 1982POPC   GL229306  12.983  19.262   9.077
 1982POPC   C1A29307  12.740  18.828   8.721
 1982POPC   D2A29308  12.490  18.920   8.356
 1982POPC   C3A29309  12.771  18.913   8.006
 1982POPC   C4A29310  12.884  19.184   7.688
 1982POPC   C1B29311  13.115  19.201   8.659
 1982POPC   C2B29312  13.050  19.267   8.223
 1982POPC   C3B29313  13.317  19.349   7.841
 1982POPC   C4B29314  13.175  19.549   7.434
 1983POPC   NC329315   3.236  17.245   9.480
 1983POPC   PO429316   2.613  17.598   9.531
 1983POPC   GL129317   2.868  17.514   9.223
 1983POPC   GL229318   2.807  17.158   9.204
 1983POPC   C1A29319   2.843  17.554   8.798
 1983POPC   D2A29320   2.647  17.499   8.426
 1983POPC   C3A29321   2.872  17.537   8.070
 1983POPC   C4A29322   2.798  17.582   7.676
 1983POPC   C1B29323   3.054  17.083   8.843
 1983POPC   C2B29324   3.103  17.256   8.451
 1983POPC   C3B29325   3.057  17.062   8.057
 1983POPC   C4B29326   3.099  17.199   7.670
 1984POPC   NC329327  33.075  44.965   9.945
 1984POPC   PO429328  33.429  44.487   9.643
 1984POPC   GL129329  33.191  44.664   9.284
 1984POPC   GL229330  32.899  44.871   9.120
 1984POPC   C1A29331  33.253  44.646   8.843
 1984POPC   D2A29332  33.052  44.668   8.474
 1984POPC   C3A29333  33.251  44.685   8.084
 1984POPC   C4A29334  33.288  44.558   7.674
 1984POPC   C1B29335  32.775   0.055   8.688
 1984POPC   C2B29336  32.675  44.902   8.235
 1984POPC   C3B29337  32.857  44.835   7.778
 1984POPC   C4B29338  33.020  44.840   7.333
 1985POPC   NC329339  26.488  28.764   9.399
 1985POPC   PO429340  27.109  28.899   9.621
 1985POPC   GL129341  27.018  29.198   9.162
 1985POPC   GL229342  26.692  29.101   9.062
 1985POPC   C1A29343  26.952  29.350   8.708
 1985POPC   D2A29344  26.928  29.498   8.293
 1985POPC   C3A29345  27.046  29.114   8.115
 1985POPC   C4A29346  26.892  28.834   7.816
 1985POPC   C1B29347  26.443  29.161   8.743
 1985POPC   C2B29348  26.577  29.104   8.351
 1985POPC   C3B29349  26.575  29.216   7.936
 1985POPC   C4B29350  26.936  29.353   7.693
 1986POPC   NC329351  13.137  22.124   9.501
 1986POPC   PO429352  12.431  22.167   9.517
 1986POPC   GL129353  12.767  22.163   9.152
 1986POPC   GL229354  12.877  21.823   9.162
 1986POPC   C1A29355  12.903  22.411   8.745
 1986POPC   D2A29356  13.044  22.420   8.314
 1986POPC   C3A29357  12.836  22.523   7.928
 1986POPC   C4A29358  12.944  22.377   7.473
 1986POPC   C1B29359  13.077  21.938   8.788
 1986POPC   C2B29360  12.966  21.913   8.375
 1986POPC   C3B29361  12.907  22.009   7.943
 1986POPC   C4B29362  12.629  21.694   7.819
 1987POPC   NC329363  42.844  36.050   9.520
 1987POPC   PO429364  43.499  36.117   9.407
 1987POPC   GL129365  43.297  35.842   9.059
 1987POPC   GL229366  42.922  35.807   9.066
 1987POPC   C1A29367  43.264  35.912   8.610
 1987POPC   D2A29368  43.129  36.344   8.401
 1987POPC   C3A29369  43.333  36.301   8.030
 1987POPC   C4A29370  43.365  35.896   7.803
 1987POPC   C1B29371  42.868  36.155   8.802
 1987POPC   C2B29372  42.787  35.972   8.361
 1987POPC   C3B29373  42.890  36.050   7.914
 1987POPC   C4B29374  42.747  36.043   7.477
 1988POPC   NC329375  29.025  37.846   9.784
 1988POPC   PO429376  29.510  37.505   9.375
 1988POPC   GL129377  29.162  37.814   9.282
 1988POPC   GL229378  28.843  37.628   9.245
 1988POPC   C1A29379  29.053  37.921   8.863
 1988POPC   D2A29380  29.353  37.943   8.494
 1988POPC   C3A29381  29.297  37.711   8.119
 1988POPC   C4A29382  29.214  37.888   7.718
 1988POPC   C1B29383  28.680  37.572   8.818
 1988POPC   C2B29384  28.862  37.612   8.380
 1988POPC   C3B29385  28.806  37.599   7.910
 1988POPC   C4B29386  28.844  37.674   7.460
 1989POPC   NC329387  35.896  33.194   9.462
 1989POPC   PO429388  36.427  32.794   9.657
 1989POPC   GL129389  36.265  32.722   9.217
 1989POPC   GL229390  36.195  33.054   9.076
 1989POPC   C1A29391  36.448  32.752   8.774
 1989POPC   D2A29392  36.427  32.916   8.345
 1989POPC   C3A29393  36.027  32.768   8.134
 1989POPC   C4A29394  35.704  33.022   7.910
 1989POPC   C1B29395  35.936  32.987   8.725
 1989POPC   C2B29396  35.895  33.222   8.361
 1989POPC   C3B29397  36.143  33.276   8.061
 1989POPC   C4B29398  36.371  33.010   7.825
 1990POPC   NC329399   5.654  36.790   9.641
 1990POPC   PO429400   6.151  37.271   9.382
 1990POPC   GL129401   5.851  36.974   9.185
 1990POPC   GL229402   5.551  37.061   9.160
 1990POPC   C1A29403   5.769  36.794   8.756
 1990POPC   D2A29404   6.001  36.757   8.360
 1990POPC   C3A29405   5.879  36.947   7.982
 1990POPC   C4A29406   5.690  36.821   7.618
 1990POPC   C1B29407   5.468  37.242   8.755
 1990POPC   C2B29408   5.628  37.208   8.324
 1990POPC   C3B29409   5.478  37.279   7.876
 1990POPC   C4B29410   5.517  37.213   7.364
 1991POPC   NC329411   1.666  38.896   9.683
 1991POPC   PO429412   2.211  38.463   9.611
 1991POPC   GL129413   2.291  38.397   9.164
 1991POPC   GL229414   2.359  38.734   8.984
 1991POPC   C1A29415   2.069  38.397   8.756
 1991POPC   D2A29416   1.774  38.337   8.416
 1991POPC   C3A29417   1.961  38.432   8.034
 1991POPC   C4A29418   1.837  38.492   7.613
 1991POPC   C1B29419   2.389  38.982   8.650
 1991POPC   C2B29420   2.290  38.926   8.243
 1991POPC   C3B29421   2.397  39.026   7.850
 1991POPC   C4B29422   2.209  38.813   7.525
 1992POPC   NC329423  14.830  23.853   9.290
 1992POPC   PO429424  15.188  23.433   9.712
 1992POPC   GL129425  15.322  23.679   9.251
 1992POPC   GL229426  15.536  24.004   9.242
 1992POPC   C1A29427  15.264  23.874   8.811
 1992POPC   D2A29428  15.167  24.052   8.400
 1992POPC   C3A29429  15.123  23.771   8.036
 1992POPC   C4A29430  15.364  23.486   7.755
 1992POPC   C1B29431  15.765  23.997   8.865
 1992POPC   C2B29432  15.659  24.021   8.454
 1992POPC   C3B29433  15.679  23.899   8.027
 1992POPC   C4B29434  15.445  23.977   7.692
 1993POPC   NC329435  24.863  20.452   9.940
 1993POPC   PO429436  24.675  20.921   9.687
 1993POPC   GL129437  24.567  20.841   9.227
 1993POPC   GL229438  24.749  21.038   8.977
 1993POPC   C1A29439  24.315  20.762   8.834
 1993POPC   D2A29440  24.199  20.610   8.403
 1993POPC   C3A29441  24.188  20.834   7.963
 1993POPC   C4A29442  24.152  20.662   7.524
 1993POPC   C1B29443  24.771  20.796   8.594
 1993POPC   C2B29444  24.638  20.776   8.191
 1993POPC   C3B29445  24.648  20.614   7.766
 1993POPC   C4B29446  25.006  20.337   7.586
 1994POPC   NC329447  44.171   6.401   9.517
 1994POPC   PO429448  43.569   6.728   9.364
 1994POPC   GL129449  43.842   6.506   9.135
 1994POPC   GL229450  44.062   6.782   9.166
 1994POPC   C1A29451  43.911   6.369   8.716
 1994POPC   D2A29452  43.717   6.579   8.369
 1994POPC   C3A29453  43.866   6.514   7.955
 1994POPC   C4A29454  43.705   6.464   7.546
 1994POPC   C1B29455  43.953   6.873   8.755
 1994POPC   C2B29456  44.158   6.842   8.383
 1994POPC   C3B29457  44.125   6.961   7.968
 1994POPC   C4B29458  43.874   6.972   7.619
 1995POPC   NC329459  29.425  37.050   9.328
 1995POPC   PO429460  28.917  36.723   9.569
 1995POPC   GL129461  28.901  36.736   9.131
 1995POPC   GL229462  29.232  36.664   9.025
 1995POPC   C1A29463  28.946  37.013   8.764
 1995POPC   D2A29464  29.234  37.251   8.478
 1995POPC   C3A29465  29.111  37.207   8.052
 1995POPC   C4A29466  29.094  37.244   7.605
 1995POPC   C1B29467  29.475  36.824   8.671
 1995POPC   C2B29468  29.342  36.775   8.236
 1995POPC   C3B29469  29.287  36.788   7.786
 1995POPC   C4B29470  29.469  36.522   7.500
 1996POPC   NC329471   2.457  11.914   9.646
 1996POPC   PO429472   3.045  11.708   9.498
 1996POPC   GL129473   2.975  11.954   9.104
 1996POPC   GL229474   2.634  12.096   9.146
 1996POPC   C1A29475   2.868  11.991   8.632
 1996POPC   D2A29476   2.597  11.992   8.227
 1996POPC   C3A29477   2.789  11.918   7.794
 1996POPC   C4A29478   2.716  11.808   7.326
 1996POPC   C1B29479   2.629  12.416   8.799
 1996POPC   C2B29480   2.769  12.446   8.363
 1996POPC   C3B29481   2.727  12.444   7.902
 1996POPC   C4B29482   2.527  12.738   7.556
 1997POPC   NC329483  20.440  43.629   9.501
 1997POPC   PO429484  20.989  44.102   9.613
 1997POPC   GL129485  20.762  43.933   9.240
 1997POPC   GL229486  20.425  44.084   9.215
 1997POPC   C1A29487  20.899  43.746   8.813
 1997POPC   D2A29488  20.671  43.560   8.441
 1997POPC   C3A29489  20.816  43.641   8.016
 1997POPC   C4A29490  20.891  43.986   7.748
 1997POPC   C1B29491  20.402  43.862   8.794
 1997POPC   C2B29492  20.237  43.814   8.348
 1997POPC   C3B29493  20.364  43.875   7.880
 1997POPC   C4B29494  20.269  44.007   7.435
 1998POPC   NC329495  14.421   2.280   9.402
 1998POPC   PO429496  14.424   2.982   9.447
 1998POPC   GL129497  14.325   2.935   9.046
 1998POPC   GL229498  14.089   2.661   9.052
 1998POPC   C1A29499  14.472   2.943   8.627
 1998POPC   D2A29500  14.668   2.924   8.232
 1998POPC   C3A29501  14.375   2.960   7.866
 1998POPC   C4A29502  14.117   2.571   7.676
 1998POPC   C1B29503  14.214   2.485   8.701
 1998POPC   C2B29504  14.494   2.420   8.406
 1998POPC   C3B29505  14.453   2.498   8.035
 1998POPC   C4B29506  14.636   2.413   7.662
 1999POPC   NC329507  38.255  30.494   9.673
 1999POPC   PO429508  38.685  31.011   9.715
 1999POPC   GL129509  38.498  30.818   9.306
 1999POPC   GL229510  38.162  30.751   9.180
 1999POPC   C1A29511  38.482  30.924   8.840
 1999POPC   D2A29512  38.533  30.721   8.446
 1999POPC   C3A29513  38.435  30.871   8.058
 1999POPC   C4A29514  38.573  30.747   7.677
 1999POPC   C1B29515  38.201  30.472   8.758
 1999POPC   C2B29516  38.208  30.325   8.311
 1999POPC   C3B29517  38.052  30.544   7.930
 1999POPC   C4B29518  38.059  30.528   7.467
 2000POPC   NC329519  34.946  34.578   9.158
 2000POPC   PO429520  35.241  34.849   9.676
 2000POPC   GL129521  35.458  34.690   9.257
 2000POPC   GL229522  35.711  34.941   9.121
 2000POPC   C1A29523  35.544  34.369   8.902
 2000POPC   D2A29524  35.416  34.408   8.456
 2000POPC   C3A29525  35.531  34.098   8.139
 2000POPC   C4A29526  35.424  34.156   7.717
 2000POPC   C1B29527  35.439  34.863   8.763
 2000POPC   C2B29528  35.067  34.918   8.482
 2000POPC   C3B29529  35.093  34.725   8.091
 2000POPC   C4B29530  35.520  34.602   7.956
 2001POPC   NC329531   2.770   1.513   9.454
 2001POPC   PO429532   2.522   0.904   9.403
 2001POPC   GL129533   2.628   1.163   9.079
 2001POPC   GL229534   2.955   1.164   9.133
 2001POPC   C1A29535   2.753   1.206   8.664
 2001POPC   D2A29536   2.616   1.393   8.366
 2001POPC   C3A29537   2.738   1.249   7.998
 2001POPC   C4A29538   2.445   1.326   7.708
 2001POPC   C1B29539   3.140   1.486   8.860
 2001POPC   C2B29540   3.066   1.597   8.408
 2001POPC   C3B29541   3.213   1.498   8.001
 2001POPC   C4B29542   3.060   1.279   7.585
 2002POPC   NC329543  29.430  40.286   9.782
 2002POPC   PO429544  29.114  40.808   9.449
 2002POPC   GL129545  29.124  40.777   9.069
 2002POPC   GL229546  29.420  40.964   9.045
 2002POPC   C1A29547  29.236  40.627   8.687
 2002POPC   D2A29548  29.365  40.837   8.334
 2002POPC   C3A29549  29.033  40.790   8.036
 2002POPC   C4A29550  29.010  40.605   7.623
 2002POPC   C1B29551  29.537  41.284   8.763
 2002POPC   C2B29552  29.675  41.261   8.319
 2002POPC   C3B29553  29.399  41.162   7.936
 2002POPC   C4B29554  29.310  41.082   7.432
 2003POPC   NC329555   1.144  40.412   9.755
 2003POPC   PO429556   0.944  39.863   9.406
 2003POPC   GL129557   1.253  39.843   9.056
 2003POPC   GL229558   1.010  39.965   8.814
 2003POPC   C1A29559   1.457  39.750   8.691
 2003POPC   D2A29560   1.154  39.711   8.380
 2003POPC   C3A29561   1.386  39.755   8.061
 2003POPC   C4A29562   1.379  39.986   7.708
 2003POPC   C1B29563   1.371  40.249   8.668
 2003POPC   C2B29564   1.456  40.226   8.232
 2003POPC   C3B29565   1.255  40.442   7.860
 2003POPC   C4B29566   1.176  40.348   7.390
 2004POPC   NC329567  37.299  17.988   9.741
 2004POPC   PO429568  37.956  18.174   9.529
 2004POPC   GL129569  37.722  18.272   9.159
 2004POPC   GL229570  37.386  18.180   9.220
 2004POPC   C1A29571  37.697  18.417   8.719
 2004POPC   D2A29572  37.408  18.483   8.366
 2004POPC   C3A29573  37.509  18.636   7.946
 2004POPC   C4A29574  37.941  18.614   7.775
 2004POPC   C1B29575  37.442  17.968   8.819
 2004POPC   C2B29576  37.430  17.912   8.374
 2004POPC   C3B29577  37.460  18.096   7.961
 2004POPC   C4B29578  37.436  17.881   7.579
 2005POPC   NC329579   0.010  18.859   9.789
 2005POPC   PO429580  44.752  19.150   9.297
 2005POPC   GL129581  44.822  19.239   8.923
 2005POPC   GL229582   0.078  19.514   8.998
 2005POPC   C1A29583  44.739  18.906   8.602
 2005POPC   D2A29584  44.497  18.821   8.207
 2005POPC   C3A29585  44.718  18.939   7.833
 2005POPC   C4A29586  44.607  19.309   7.619
 2005POPC   C1B29587   0.215  19.315   8.626
 2005POPC   C2B29588   0.111  19.061   8.269
 2005POPC   C3B29589   0.041  19.309   7.913
 2005POPC   C4B29590   0.182  19.193   7.516
 2006POPC   NC329591   8.722   0.230   9.572
 2006POPC   PO429592   9.299   0.653   9.516
 2006POPC   GL129593   8.984   0.523   9.225
 2006POPC   GL229594   8.795   0.764   9.076
 2006POPC   C1A29595   8.996   0.305   8.855
 2006POPC   D2A29596   9.143   0.359   8.441
 2006POPC   C3A29597   8.983   0.220   8.026
 2006POPC   C4A29598   8.944   0.372   7.602
 2006POPC   C1B29599   8.931   0.782   8.675
 2006POPC   C2B29600   8.810   0.909   8.306
 2006POPC   C3B29601   8.886   0.761   7.918
 2006POPC   C4B29602   8.695   0.802   7.512
 2007POPC   NC329603  32.046  36.975   9.623
 2007POPC   PO429604  32.664  36.802   9.415
 2007POPC   GL129605  32.289  36.821   9.153
 2007POPC   GL229606  31.991  37.053   9.141
 2007POPC   C1A29607  32.393  36.963   8.758
 2007POPC   D2A29608  32.572  37.039   8.378
 2007POPC   C3A29609  32.396  36.749   8.125
 2007POPC   C4A29610  32.485  36.623   7.756
 2007POPC   C1B29611  31.883  36.985   8.739
 2007POPC   C2B29612  32.049  37.010   8.385
 2007POPC   C3B29613  31.924  37.140   8.019
 2007POPC   C4B29614  32.106  36.970   7.721
 2008POPC   NC329615   7.883  13.710   9.654
 2008POPC   PO429616   8.341  13.250   9.521
 2008POPC   GL129617   8.266  13.415   9.140
 2008POPC   GL229618   8.194  13.749   9.197
 2008POPC   C1A29619   8.035  13.456   8.774
 2008POPC   D2A29620   7.971  13.624   8.373
 2008POPC   C3A29621   8.051  13.321   8.032
 2008POPC   C4A29622   8.188  13.372   7.629
 2008POPC   C1B29623   8.053  13.974   8.826
 2008POPC   C2B29624   7.955  14.182   8.470
 2008POPC   C3B29625   7.890  14.131   8.082
 2008POPC   C4B29626   8.023  13.791   7.882
 2009POPC   NC329627   4.023  36.446   9.482
 2009POPC   PO429628   4.677  36.169   9.428
 2009POPC   GL129629   4.318  36.162   9.139
 2009POPC   GL229630   3.944  36.066   9.069
 2009POPC   C1A29631   4.309  36.052   8.715
 2009POPC   D2A29632   4.585  36.080   8.384
 2009POPC   C3A29633   4.421  36.171   8.005
 2009POPC   C4A29634   4.507  36.508   7.780
 2009POPC   C1B29635   4.009  36.464   8.836
 2009POPC   C2B29636   4.223  36.498   8.431
 2009POPC   C3B29637   4.045  36.522   8.055
 2009POPC   C4B29638   4.010  36.296   7.700
 2010POPC   NC329639  21.832  39.921   9.515
 2010POPC   PO429640  21.197  40.260   9.420
 2010POPC   GL129641  21.293  40.103   9.053
 2010POPC   GL229642  21.230  39.778   9.125
 2010POPC   C1A29643  21.108  40.069   8.652
 2010POPC   D2A29644  21.269  40.146   8.281
 2010POPC   C3A29645  21.621  39.973   8.101
 2010POPC   C4A29646  21.424  39.947   7.729
 2010POPC   C1B29647  21.477  39.746   8.724
 2010POPC   C2B29648  21.283  39.640   8.326
 2010POPC   C3B29649  21.191  39.525   7.886
 2010POPC   C4B29650  21.403  39.531   7.453
 2011POPC   NC329651  27.463   6.365   9.577
 2011POPC   PO429652  27.991   6.844   9.481
 2011POPC   GL129653  27.807   6.627   9.137
 2011POPC   GL229654  27.469   6.574   9.103
 2011POPC   C1A29655  27.774   6.522   8.686
 2011POPC   D2A29656  27.625   6.325   8.289
 2011POPC   C3A29657  27.535   6.617   7.940
 2011POPC   C4A29658  27.484   6.967   7.696
 2011POPC   C1B29659  27.289   6.350   8.736
 2011POPC   C2B29660  27.060   6.448   8.371
 2011POPC   C3B29661  27.165   6.284   8.002
 2011POPC   C4B29662  27.410   6.195   7.665
 2012POPC   NC329663  15.556   6.403   9.535
 2012POPC   PO429664  14.929   6.331   9.404
 2012POPC   GL129665  15.192   5.975   9.148
 2012POPC   GL229666  15.504   5.768   9.253
 2012POPC   C1A29667  15.196   5.785   8.698
 2012POPC   D2A29668  15.175   6.031   8.292
 2012POPC   C3A29669  15.015   5.851   7.880
 2012POPC   C4A29670  14.670   5.965   7.603
 2012POPC   C1B29671  15.640   5.949   8.855
 2012POPC   C2B29672  15.709   5.837   8.402
 2012POPC   C3B29673  15.539   5.917   7.974
 2012POPC   C4B29674  15.420   5.656   7.597
 2013POPC   NC329675  10.869  40.507   9.399
 2013POPC   PO429676  10.647  41.094   9.467
 2013POPC   GL129677  10.635  40.898   9.078
 2013POPC   GL229678  10.471  40.595   9.011
 2013POPC   C1A29679  10.712  40.877   8.642
 2013POPC   D2A29680  10.475  40.985   8.279
 2013POPC   C3A29681  10.717  40.792   7.969
 2013POPC   C4A29682  10.695  40.872   7.546
 2013POPC   C1B29683  10.225  40.692   8.651
 2013POPC   C2B29684  10.088  40.611   8.227
 2013POPC   C3B29685  10.233  40.768   7.833
 2013POPC   C4B29686  10.241  40.703   7.383
 2014POPC   NC329687   3.415  16.452   9.455
 2014POPC   PO429688   3.659  17.036   9.619
 2014POPC   GL129689   3.544  16.880   9.230
 2014POPC   GL229690   3.790  16.649   9.148
 2014POPC   C1A29691   3.417  16.709   8.814
 2014POPC   D2A29692   3.395  16.861   8.417
 2014POPC   C3A29693   3.250  16.579   8.184
 2014POPC   C4A29694   3.211  16.508   7.791
 2014POPC   C1B29695   3.900  16.576   8.772
 2014POPC   C2B29696   3.884  16.805   8.443
 2014POPC   C3B29697   3.789  16.691   8.021
 2014POPC   C4B29698   3.503  16.932   7.808
 2015POPC   NC329699  14.814  43.072   9.335
 2015POPC   PO429700  14.183  42.724   9.513
 2015POPC   GL129701  14.165  42.997   9.164
 2015POPC   GL229702  14.024  43.329   9.219
 2015POPC   C1A29703  14.424  43.082   8.802
 2015POPC   D2A29704  14.741  43.176   8.497
 2015POPC   C3A29705  14.557  43.038   8.113
 2015POPC   C4A29706  14.385  43.112   7.686
 2015POPC   C1B29707  14.194  43.546   8.872
 2015POPC   C2B29708  14.293  43.468   8.461
 2015POPC   C3B29709  14.169  43.393   8.063
 2015POPC   C4B29710  13.880  43.121   7.853
 2016POPC   NC329711  41.735  20.098   9.411
 2016POPC   PO429712  41.709  19.360   9.466
 2016POPC   GL129713  41.499  19.680   9.105
 2016POPC   GL229714  41.307  20.027   9.094
 2016POPC   C1A29715  41.357  19.659   8.650
 2016POPC   D2A29716  41.187  19.523   8.227
 2016POPC   C3A29717  41.413  19.712   7.876
 2016POPC   C4A29718  41.752  20.060   7.840
 2016POPC   C1B29719  41.072  20.080   8.689
 2016POPC   C2B29720  41.140  20.053   8.235
 2016POPC   C3B29721  41.209  20.176   7.810
 2016POPC   C4B29722  41.191  20.312   7.402
 2017POPC   NC329723   2.988  19.565   9.492
 2017POPC   PO429724   2.454  19.974   9.446
 2017POPC   GL129725   2.568  19.659   9.169
 2017POPC   GL229726   2.848  19.856   9.087
 2017POPC   C1A29727   2.458  19.632   8.733
 2017POPC   D2A29728   2.685  19.706   8.340
 2017POPC   C3A29729   2.470  19.611   7.927
 2017POPC   C4A29730   2.676  19.644   7.535
 2017POPC   C1B29731   2.675  20.089   8.740
 2017POPC   C2B29732   2.684  20.221   8.289
 2017POPC   C3B29733   2.775  20.006   7.887
 2017POPC   C4B29734   2.530  20.120   7.512
 2018POPC   NC329735  21.836   9.640   9.508
 2018POPC   PO429736  22.332  10.027   9.580
 2018POPC   GL129737  22.153   9.941   9.169
 2018POPC   GL229738  22.104   9.592   9.071
 2018POPC   C1A29739  22.003   9.976   8.736
 2018POPC   D2A29740  22.046  10.181   8.339
 2018POPC   C3A29741  22.087  10.004   7.919
 2018POPC   C4A29742  22.405   9.821   7.653
 2018POPC   C1B29743  21.940   9.485   8.659
 2018POPC   C2B29744  22.115   9.652   8.295
 2018POPC   C3B29745  22.175   9.452   7.917
 2018POPC   C4B29746  22.016   9.449   7.531
 2019POPC   NC329747   3.244  43.224   9.466
 2019POPC   PO429748   3.714  42.669   9.400
 2019POPC   GL129749   3.432  42.877   9.102
 2019POPC   GL229750   3.577  43.213   9.082
 2019POPC   C1A29751   3.515  43.023   8.650
 2019POPC   D2A29752   3.458  43.301   8.307
 2019POPC   C3A29753   3.601  43.087   7.946
 2019POPC   C4A29754   3.458  42.835   7.615
 2019POPC   C1B29755   3.794  43.487   8.732
 2019POPC   C2B29756   3.729  43.742   8.347
 2019POPC   C3B29757   3.718  43.590   7.912
 2019POPC   C4B29758   3.986  43.465   7.559
 2020POPC   NC329759   6.481  41.104   9.468
 2020POPC   PO429760   6.538  41.721   9.559
 2020POPC   GL129761   6.548  41.593   9.128
 2020POPC   GL229762   6.870  41.693   8.997
 2020POPC   C1A29763   6.441  41.725   8.693
 2020POPC   D2A29764   6.213  41.843   8.292
 2020POPC   C3A29765   6.313  41.562   7.948
 2020POPC   C4A29766   6.692  41.480   7.682
 2020POPC   C1B29767   7.048  41.441   8.653
 2020POPC   C2B29768   7.148  41.239   8.237
 2020POPC   C3B29769   7.097  41.171   7.785
 2020POPC   C4B29770   7.041  41.274   7.337
 2021POPC   NC329771  32.120  37.997   9.517
 2021POPC   PO429772  32.314  37.341   9.615
 2021POPC   GL129773  32.306  37.594   9.256
 2021POPC   GL229774  32.375  37.365   9.051
 2021POPC   C1A29775  32.372  37.844   8.866
 2021POPC   D2A29776  32.071  37.925   8.525
 2021POPC   C3A29777  32.193  37.882   8.075
 2021POPC   C4A29778  31.888  37.927   7.740
 2021POPC   C1B29779  32.065  37.448   8.784
 2021POPC   C2B29780  32.247  37.468   8.400
 2021POPC   C3B29781  32.386  37.371   8.016
 2021POPC   C4B29782  32.179  37.512   7.682
 2022POPC   NC329783  23.063  41.128   9.524
 2022POPC   PO429784  22.571  40.706   9.484
 2022POPC   GL129785  22.773  40.708   9.097
 2022POPC   GL229786  22.865  41.052   9.041
 2022POPC   C1A29787  22.836  40.539   8.687
 2022POPC   D2A29788  22.745  40.685   8.256
 2022POPC   C3A29789  22.920  40.472   7.926
 2022POPC   C4A29790  23.207  40.370   7.590
 2022POPC   C1B29791  22.829  41.063   8.593
 2022POPC   C2B29792  23.120  41.053   8.240
 2022POPC   C3B29793  23.140  40.943   7.801
 2022POPC   C4B29794  23.258  41.180   7.434
 2023POPC   NC329795  29.721  31.713   9.483
 2023POPC   PO429796  29.697  32.356   9.501
 2023POPC   GL129797  29.880  32.294   9.099
 2023POPC   GL229798  29.840  31.951   9.069
 2023POPC   C1A29799  30.002  32.182   8.660
 2023POPC   D2A29800  30.260  32.401   8.398
 2023POPC   C3A29801  30.088  32.290   8.023
 2023POPC   C4A29802  30.027  32.476   7.617
 2023POPC   C1B29803  29.637  31.780   8.704
 2023POPC   C2B29804  29.918  31.680   8.356
 2023POPC   C3B29805  30.288  31.809   8.094
 2023POPC   C4B29806  30.071  31.905   7.704
 2024POPC   NC329807  38.940  34.385   9.405
 2024POPC   PO429808  39.239  34.989   9.432
 2024POPC   GL129809  39.359  34.690   9.151
 2024POPC   GL229810  39.463  34.953   8.957
 2024POPC   C1A29811  39.378  34.391   8.813
 2024POPC   D2A29812  39.609  34.195   8.481
 2024POPC   C3A29813  39.506  34.459   8.157
 2024POPC   C4A29814  39.157  34.403   7.858
 2024POPC   C1B29815  39.161  34.867   8.668
 2024POPC   C2B29816  39.037  34.674   8.306
 2024POPC   C3B29817  38.812  34.778   7.960
 2024POPC   C4B29818  38.952  34.763   7.544
 2025POPC   NC329819  25.922   1.923   9.662
 2025POPC   PO429820  26.430   2.402   9.541
 2025POPC   GL129821  26.282   2.029   9.221
 2025POPC   GL229822  25.941   1.845   9.168
 2025POPC   C1A29823  26.191   2.018   8.745
 2025POPC   D2A29824  26.370   1.976   8.321
 2025POPC   C3A29825  26.178   2.089   7.884
 2025POPC   C4A29826  26.329   1.995   7.457
 2025POPC   C1B29827  25.701   1.873   8.772
 2025POPC   C2B29828  25.840   1.860   8.345
 2025POPC   C3B29829  25.687   1.844   7.914
 2025POPC   C4B29830  25.802   1.992   7.477
 2026POPC   NC329831   8.711  35.522   9.335
 2026POPC   PO429832   9.183  35.138   9.558
 2026POPC   GL129833   9.138  35.289   9.157
 2026POPC   GL229834   9.228  35.623   9.223
 2026POPC   C1A29835   8.907  35.370   8.747
 2026POPC   D2A29836   8.819  35.528   8.345
 2026POPC   C3A29837   8.934  35.222   8.046
 2026POPC   C4A29838   9.288  35.222   7.735
 2026POPC   C1B29839   9.294  35.705   8.840
 2026POPC   C2B29840   9.335  35.481   8.478
 2026POPC   C3B29841   9.260  35.624   8.069
 2026POPC   C4B29842   9.296  35.932   7.766
 2027POPC   NC329843  38.837  23.922   9.391
 2027POPC   PO429844  38.365  23.492   9.462
 2027POPC   GL129845  38.494  23.607   9.097
 2027POPC   GL229846  38.782  23.384   9.112
 2027POPC   C1A29847  38.301  23.751   8.708
 2027POPC   D2A29848  38.053  23.715   8.343
 2027POPC   C3A29849  38.297  23.809   7.974
 2027POPC   C4A29850  38.371  23.570   7.617
 2027POPC   C1B29851  38.813  23.585   8.710
 2027POPC   C2B29852  38.607  23.563   8.317
 2027POPC   C3B29853  38.776  23.447   7.913
 2027POPC   C4B29854  38.806  23.330   7.449
 2028POPC   NC329855   6.987  14.758   9.436
 2028POPC   PO429856   7.150  14.094   9.399
 2028POPC   GL129857   7.211  14.234   9.009
 2028POPC   GL229858   7.324  14.570   9.062
 2028POPC   C1A29859   7.480  14.231   8.675
 2028POPC   D2A29860   7.472  14.401   8.278
 2028POPC   C3A29861   7.417  14.157   7.930
 2028POPC   C4A29862   7.611  13.938   7.650
 2028POPC   C1B29863   7.504  14.743   8.684
 2028POPC   C2B29864   7.479  14.909   8.250
 2028POPC   C3B29865   7.548  14.700   7.857
 2028POPC   C4B29866   7.612  14.420   7.503
 2029POPC   NC329867  23.266  38.316   9.807
 2029POPC   PO429868  22.939  38.683   9.549
 2029POPC   GL129869  23.063  38.467   9.162
 2029POPC   GL229870  22.844  38.192   9.104
 2029POPC   C1A29871  23.067  38.455   8.689
 2029POPC   D2A29872  22.782  38.498   8.323
 2029POPC   C3A29873  22.939  38.685   7.935
 2029POPC   C4A29874  23.287  38.543   7.681
 2029POPC   C1B29875  22.667  38.118   8.688
 2029POPC   C2B29876  22.617  38.012   8.250
 2029POPC   C3B29877  22.727  38.224   7.845
 2029POPC   C4B29878  22.755  38.512   7.475
 2030POPC   NC329879  24.755   1.283   9.363
 2030POPC   PO429880  24.272   0.843   9.624
 2030POPC   GL129881  24.380   0.914   9.161
 2030POPC   GL229882  24.697   0.886   9.019
 2030POPC   C1A29883  24.386   1.085   8.694
 2030POPC   D2A29884  24.633   1.009   8.305
 2030POPC   C3A29885  24.335   0.969   7.978
 2030POPC   C4A29886  24.210   1.338   7.700
 2030POPC   C1B29887  24.877   1.219   8.714
 2030POPC   C2B29888  24.901   1.446   8.310
 2030POPC   C3B29889  24.705   1.476   7.885
 2030POPC   C4B29890  24.662   1.121   7.643
 2031POPC   NC329891  42.984  44.183   9.536
 2031POPC   PO429892  42.866  43.636   9.190
 2031POPC   GL129893  43.018  44.032   9.043
 2031POPC   GL229894  43.377  44.045   9.157
 2031POPC   C1A29895  43.039  43.976   8.619
 2031POPC   D2A29896  43.065  43.534   8.416
 2031POPC   C3A29897  43.138  43.601   7.978
 2031POPC   C4A29898  42.940  43.950   7.800
 2031POPC   C1B29899  43.513  43.809   8.761
 2031POPC   C2B29900  43.431  43.880   8.305
 2031POPC   C3B29901  43.451  44.096   7.918
 2031POPC   C4B29902  43.389  43.872   7.544
 2032POPC   NC329903  29.463  15.116   9.551
 2032POPC   PO429904  28.823  15.147   9.621
 2032POPC   GL129905  29.001  15.192   9.235
 2032POPC   GL229906  29.146  14.891   9.194
 2032POPC   C1A29907  29.050  15.318   8.802
 2032POPC   D2A29908  29.118  15.535   8.415
 2032POPC   C3A29909  29.010  15.364   8.057
 2032POPC   C4A29910  29.076  15.420   7.653
 2032POPC   C1B29911  29.245  14.806   8.789
 2032POPC   C2B29912  29.228  15.030   8.396
 2032POPC   C3B29913  29.214  14.896   7.977
 2032POPC   C4B29914  29.509  14.613   7.813
 2033POPC   NC329915  22.113  30.877   9.484
 2033POPC   PO429916  22.360  30.314   9.746
 2033POPC   GL129917  22.349  30.449   9.281
 2033POPC   GL229918  22.030  30.506   9.116
 2033POPC   C1A29919  22.443  30.744   8.884
 2033POPC   D2A29920  22.541  30.627   8.418
 2033POPC   C3A29921  22.511  30.850   8.002
 2033POPC   C4A29922  22.852  31.153   7.922
 2033POPC   C1B29923  22.144  30.386   8.681
 2033POPC   C2B29924  22.063  30.523   8.258
 2033POPC   C3B29925  22.003  30.909   8.022
 2033POPC   C4B29926  21.866  30.859   7.582
 2034POPC   NC329927  28.063  31.586   9.431
 2034POPC   PO429928  28.412  31.021   9.683
 2034POPC   GL129929  28.507  31.322   9.263
 2034POPC   GL229930  28.235  31.372   9.009
 2034POPC   C1A29931  28.628  31.636   8.870
 2034POPC   D2A29932  28.586  31.524   8.470
 2034POPC   C3A29933  28.610  31.590   8.046
 2034POPC   C4A29934  28.355  31.341   7.778
 2034POPC   C1B29935  28.143  31.741   8.753
 2034POPC   C2B29936  28.233  31.909   8.352
 2034POPC   C3B29937  28.106  31.722   7.968
 2034POPC   C4B29938  27.931  31.746   7.562
 2035POPC   NC329939   3.974   1.812   9.403
 2035POPC   PO429940   4.459   2.285   9.460
 2035POPC   GL129941   4.084   2.285   9.184
 2035POPC   GL229942   4.239   1.982   9.004
 2035POPC   C1A29943   3.921   2.255   8.741
 2035POPC   D2A29944   4.245   2.027   8.459
 2035POPC   C3A29945   4.162   2.125   8.030
 2035POPC   C4A29946   4.033   2.329   7.680
 2035POPC   C1B29947   4.324   1.557   8.827
 2035POPC   C2B29948   4.532   1.474   8.438
 2035POPC   C3B29949   4.355   1.647   8.089
 2035POPC   C4B29950   4.450   1.836   7.710
 2036POPC   NC329951  13.788   1.299   9.625
 2036POPC   PO429952  13.310   1.600   9.553
 2036POPC   GL129953  13.339   1.253   9.272
 2036POPC   GL229954  13.557   1.494   9.101
 2036POPC   C1A29955  13.502   1.007   8.907
 2036POPC   D2A29956  13.657   1.169   8.525
 2036POPC   C3A29957  13.483   1.140   8.107
 2036POPC   C4A29958  13.718   1.129   7.728
 2036POPC   C1B29959  13.410   1.795   8.780
 2036POPC   C2B29960  13.375   1.582   8.395
 2036POPC   C3B29961  13.218   1.676   8.008
 2036POPC   C4B29962  13.424   1.530   7.656
 2037POPC   NC329963  28.852   5.641   9.504
 2037POPC   PO429964  29.376   6.089   9.619
 2037POPC   GL129965  29.092   5.984   9.204
 2037POPC   GL229966  29.080   5.627   9.071
 2037POPC   C1A29967  29.120   6.080   8.747
 2037POPC   D2A29968  28.954   6.208   8.312
 2037POPC   C3A29969  29.000   5.968   7.962
 2037POPC   C4A29970  29.294   5.943   7.600
 2037POPC   C1B29971  28.740   5.777   8.841
 2037POPC   C2B29972  28.893   5.716   8.458
 2037POPC   C3B29973  29.073   5.507   8.148
 2037POPC   C4B29974  29.091   5.495   7.750
 2038POPC   NC329975  39.709  34.998   9.400
 2038POPC   PO429976  40.003  34.352   9.319
 2038POPC   GL129977  39.878  34.686   8.995
 2038POPC   GL229978  40.144  34.937   8.803
 2038POPC   C1A29979  39.845  34.626   8.561
 2038POPC   D2A29980  40.174  34.735   8.294
 2038POPC   C3A29981  40.067  34.422   8.032
 2038POPC   C4A29982  39.771  34.396   7.739
 2038POPC   C1B29983  39.776  35.114   8.611
 2038POPC   C2B29984  39.551  34.985   8.308
 2038POPC   C3B29985  39.818  34.869   7.948
 2038POPC   C4B29986  39.817  34.915   7.499
 2039POPC   NC329987  21.493  23.142   9.607
 2039POPC   PO429988  21.155  22.630   9.481
 2039POPC   GL129989  21.512  22.883   9.168
 2039POPC   GL229990  21.638  23.258   9.146
 2039POPC   C1A29991  21.822  22.932   8.788
 2039POPC   D2A29992  21.833  22.730   8.351
 2039POPC   C3A29993  21.493  22.800   8.007
 2039POPC   C4A29994  21.134  22.536   7.820
 2039POPC   C1B29995  21.379  23.240   8.791
 2039POPC   C2B29996  21.201  23.298   8.358
 2039POPC   C3B29997  21.262  23.268   7.916
 2039POPC   C4B29998  21.606  23.278   7.686
 2040POPC   NC329999   6.232   2.635   9.506
 2040POPC   PO430000   5.542   2.619   9.638
 2040POPC   GL130001   5.786   2.572   9.273
 2040POPC   GL230002   5.712   2.861   9.145
 2040POPC   C1A30003   6.027   2.599   8.854
 2040POPC   D2A30004   6.181   2.808   8.469
 2040POPC   C3A30005   6.083   2.639   8.110
 2040POPC   C4A30006   5.904   2.852   7.809
 2040POPC   C1B30007   5.860   3.086   8.763
 2040POPC   C2B30008   6.146   3.322   8.492
 2040POPC   C3B30009   6.074   3.296   8.060
 2040POPC   C4B30010   6.242   3.234   7.659
 2041POPC   NC330011  15.213  12.473   9.384
 2041POPC   PO430012  15.187  11.863   9.654
 2041POPC   GL130013  14.999  12.021   9.264
 2041POPC   GL230014  15.318  12.064   9.113
 2041POPC   C1A30015  14.933  12.212   8.823
 2041POPC   D2A30016  15.211  12.055   8.497
 2041POPC   C3A30017  15.082  12.140   8.116
 2041POPC   C4A30018  14.886  12.237   7.740
 2041POPC   C1B30019  15.437  12.376   8.807
 2041POPC   C2B30020  15.431  12.497   8.400
 2041POPC   C3B30021  15.556  12.348   8.021
 2041POPC   C4B30022  15.425  12.072   7.735
 2042POPC   NC330023  44.451  41.903   9.291
 2042POPC   PO430024   0.003  41.707   9.679
 2042POPC   GL130025  44.889  41.621   9.248
 2042POPC   GL230026  44.898  41.942   9.058
 2042POPC   C1A30027  44.908  41.502   8.797
 2042POPC   D2A30028  44.588  41.609   8.485
 2042POPC   C3A30029  44.545  41.526   8.043
 2042POPC   C4A30030  44.465  41.762   7.654
 2042POPC   C1B30031  44.937  42.006   8.640
 2042POPC   C2B30032  44.909  42.171   8.241
 2042POPC   C3B30033  44.851  42.001   7.873
 2042POPC   C4B30034  44.949  41.573   7.733
 2043POPC   NC330035   6.336  15.579   9.255
 2043POPC   PO430036   6.765  15.171   9.567
 2043POPC   GL130037   6.545  14.948   9.245
 2043POPC   GL230038   6.645  15.208   9.037
 2043POPC   C1A30039   6.405  14.810   8.815
 2043POPC   D2A30040   6.526  14.970   8.400
 2043POPC   C3A30041   6.377  14.809   7.971
 2043POPC   C4A30042   6.303  15.042   7.557
 2043POPC   C1B30043   6.816  15.331   8.655
 2043POPC   C2B30044   6.934  15.200   8.244
 2043POPC   C3B30045   6.740  15.181   7.856
 2043POPC   C4B30046   6.986  15.242   7.480
 2044POPC   NC330047  41.670   6.433   9.454
 2044POPC   PO430048  41.248   6.928   9.374
 2044POPC   GL130049  41.498   6.725   9.085
 2044POPC   GL230050  41.881   6.793   9.129
 2044POPC   C1A30051  41.370   6.562   8.723
 2044POPC   D2A30052  41.495   6.403   8.362
 2044POPC   C3A30053  41.366   6.583   8.013
 2044POPC   C4A30054  41.602   6.486   7.660
 2044POPC   C1B30055  41.702   7.062   8.780
 2044POPC   C2B30056  41.615   6.889   8.394
 2044POPC   C3B30057  41.835   6.794   8.039
 2044POPC   C4B30058  41.595   6.987   7.760
 2045POPC   NC330059  32.888   5.326   9.597
 2045POPC   PO430060  33.397   4.957   9.693
 2045POPC   GL130061  33.028   4.938   9.318
 2045POPC   GL230062  33.001   5.263   9.127
 2045POPC   C1A30063  32.930   4.860   8.825
 2045POPC   D2A30064  33.080   5.012   8.393
 2045POPC   C3A30065  33.184   4.864   7.965
 2045POPC   C4A30066  33.279   4.995   7.529
 2045POPC   C1B30067  33.130   5.369   8.761
 2045POPC   C2B30068  32.983   5.510   8.366
 2045POPC   C3B30069  33.079   5.378   7.941
 2045POPC   C4B30070  33.172   5.563   7.550
 2046POPC   NC330071  37.668  34.828   9.713
 2046POPC   PO430072  37.935  35.229   9.308
 2046POPC   GL130073  37.770  35.494   8.989
 2046POPC   GL230074  37.400  35.542   8.945
 2046POPC   C1A30075  37.828  35.494   8.567
 2046POPC   D2A30076  38.031  35.135   8.333
 2046POPC   C3A30077  38.047  35.259   7.903
 2046POPC   C4A30078  37.798  35.461   7.602
 2046POPC   C1B30079  37.452  35.174   8.697
 2046POPC   C2B30080  37.512  35.229   8.242
 2046POPC   C3B30081  37.354  35.452   7.856
 2046POPC   C4B30082  37.368  35.251   7.402
 2047POPC   NC330083  32.204  39.863   9.563
 2047POPC   PO430084  32.860  39.819   9.565
 2047POPC   GL130085  32.508  39.885   9.155
 2047POPC   GL230086  32.117  40.092   9.122
 2047POPC   C1A30087  32.357  39.942   8.699
 2047POPC   D2A30088  32.237  40.081   8.289
 2047POPC   C3A30089  32.327  39.872   7.897
 2047POPC   C4A30090  32.253  40.153   7.551
 2047POPC   C1B30091  32.064  40.375   8.752
 2047POPC   C2B30092  31.854  40.415   8.341
 2047POPC   C3B30093  31.977  40.361   7.905
 2047POPC   C4B30094  31.882  40.470   7.411
 2048POPC   NC330095  33.031   2.091   9.553
 2048POPC   PO430096  33.466   2.179   9.096
 2048POPC   GL130097  33.045   2.326   9.058
 2048POPC   GL230098  32.775   2.101   9.120
 2048POPC   C1A30099  32.868   2.239   8.655
 2048POPC   D2A30100  32.789   1.962   8.366
 2048POPC   C3A30101  32.845   2.120   8.021
 2048POPC   C4A30102  33.076   2.175   7.650
 2048POPC   C1B30103  32.996   1.781   8.855
 2048POPC   C2B30104  33.268   1.849   8.479
 2048POPC   C3B30105  33.297   1.909   8.041
 2048POPC   C4B30106  33.224   1.687   7.694
 2049POPC   NC330107  16.680  39.728   9.481
 2049POPC   PO430108  17.147  40.160   9.602
 2049POPC   GL130109  16.931  40.132   9.204
 2049POPC   GL230110  16.773  40.467   9.135
 2049POPC   C1A30111  16.600  40.039   8.885
 2049POPC   D2A30112  16.571  40.177   8.467
 2049POPC   C3A30113  16.501  39.988   8.068
 2049POPC   C4A30114  16.523  40.208   7.665
 2049POPC   C1B30115  16.988  40.403   8.728
 2049POPC   C2B30116  17.160  40.412   8.306
 2049POPC   C3B30117  16.951  40.243   7.983
 2049POPC   C4B30118  16.898  39.832   7.799
 2050POPC   NC330119  38.492   8.560   9.191
 2050POPC   PO430120  38.680   9.142   9.534
 2050POPC   GL130121  38.434   9.113   9.160
 2050POPC   GL230122  38.128   8.912   9.146
 2050POPC   C1A30123  38.595   9.138   8.735
 2050POPC   D2A30124  38.826   8.957   8.406
 2050POPC   C3A30125  38.703   9.083   7.991
 2050POPC   C4A30126  38.578   8.885   7.613
 2050POPC   C1B30127  38.178   8.841   8.713
 2050POPC   C2B30128  38.284   9.007   8.322
 2050POPC   C3B30129  38.145   8.822   7.953
 2050POPC   C4B30130  37.776   8.687   7.675
 2051POPC   NC330131  18.346  30.659   9.715
 2051POPC   PO430132  18.027  31.250   9.635
 2051POPC   GL130133  18.167  30.891   9.267
 2051POPC   GL230134  18.330  30.512   9.230
 2051POPC   C1A30135  18.232  30.750   8.803
 2051POPC   D2A30136  18.050  30.793   8.396
 2051POPC   C3A30137  18.231  30.619   7.990
 2051POPC   C4A30138  18.040  30.872   7.642
 2051POPC   C1B30139  18.403  30.251   8.856
 2051POPC   C2B30140  18.491  30.264   8.392
 2051POPC   C3B30141  18.711  30.397   7.985
 2051POPC   C4B30142  18.552  30.440   7.521
 2052POPC   NC330143  19.175  31.451   9.472
 2052POPC   PO430144  18.668  30.957   9.502
 2052POPC   GL130145  18.840  31.259   9.133
 2052POPC   GL230146  19.097  31.569   9.005
 2052POPC   C1A30147  18.925  31.230   8.686
 2052POPC   D2A30148  19.079  31.247   8.261
 2052POPC   C3A30149  18.800  31.412   7.955
 2052POPC   C4A30150  18.971  31.358   7.572
 2052POPC   C1B30151  18.889  31.785   8.680
 2052POPC   C2B30152  18.960  31.785   8.251
 2052POPC   C3B30153  19.181  31.793   7.858
 2052POPC   C4B30154  19.124  31.807   7.376
 2053POPC   NC330155  26.515  35.745   9.483
 2053POPC   PO430156  27.124  35.788   9.501
 2053POPC   GL130157  27.058  36.014   9.101
 2053POPC   GL230158  26.695  36.095   9.079
 2053POPC   C1A30159  27.180  36.130   8.666
 2053POPC   D2A30160  26.907  36.200   8.286
 2053POPC   C3A30161  26.920  36.009   7.878
 2053POPC   C4A30162  26.770  35.711   7.546
 2053POPC   C1B30163  26.747  36.424   8.743
 2053POPC   C2B30164  26.610  36.608   8.328
 2053POPC   C3B30165  26.582  36.473   7.892
 2053POPC   C4B30166  26.620  36.716   7.499
 2054POPC   NC330167  40.215  15.540   9.479
 2054POPC   PO430168  39.759  14.983   9.405
 2054POPC   GL130169  39.954  15.270   9.142
 2054POPC   GL230170  39.667  15.426   8.998
 2054POPC   C1A30171  40.135  15.465   8.761
 2054POPC   D2A30172  40.004  15.612   8.318
 2054POPC   C3A30173  40.237  15.539   7.934
 2054POPC   C4A30174  40.182  15.174   7.684
 2054POPC   C1B30175  39.764  15.106   8.690
 2054POPC   C2B30176  39.565  15.143   8.283
 2054POPC   C3B30177  39.716  15.214   7.899
 2054POPC   C4B30178  39.648  14.941   7.541
 2055POPC   NC330179  15.410   2.133   9.446
 2055POPC   PO430180  14.943   1.570   9.563
 2055POPC   GL130181  15.188   1.722   9.212
 2055POPC   GL230182  15.550   1.679   9.247
 2055POPC   C1A30183  15.137   1.967   8.832
 2055POPC   D2A30184  15.327   1.952   8.438
 2055POPC   C3A30185  15.140   1.867   8.048
 2055POPC   C4A30186  15.076   2.159   7.720
 2055POPC   C1B30187  15.458   1.569   8.803
 2055POPC   C2B30188  15.545   1.480   8.360
 2055POPC   C3B30189  15.641   1.785   8.044
 2055POPC   C4B30190  15.635   1.754   7.579
 2056POPC   NC330191  19.938   0.149   9.472
 2056POPC   PO430192  19.689   0.800   9.562
 2056POPC   GL130193  19.708   0.634   9.158
 2056POPC   GL230194  19.576   0.290   9.080
 2056POPC   C1A30195  19.905   0.544   8.781
 2056POPC   D2A30196  19.841   0.724   8.369
 2056POPC   C3A30197  19.616   0.592   8.002
 2056POPC   C4A30198  19.899   0.606   7.621
 2056POPC   C1B30199  19.757   0.035   8.756
 2056POPC   C2B30200  19.960   0.215   8.394
 2056POPC   C3B30201  19.975   0.234   7.962
 2056POPC   C4B30202  19.612   0.208   7.650
 2057POPC   NC330203   3.172  11.251   9.520
 2057POPC   PO430204   3.800  11.401   9.439
 2057POPC   GL130205   3.536  11.321   9.125
 2057POPC   GL230206   3.695  11.065   9.040
 2057POPC   C1A30207   3.618  11.422   8.675
 2057POPC   D2A30208   3.911  11.548   8.334
 2057POPC   C3A30209   3.721  11.520   7.950
 2057POPC   C4A30210   3.435  11.251   7.699
 2057POPC   C1B30211   3.741  10.857   8.664
 2057POPC   C2B30212   3.594  10.984   8.269
 2057POPC   C3B30213   3.525  10.763   7.887
 2057POPC   C4B30214   3.729  10.842   7.524
 2058POPC   NC330215  15.882  13.067   9.491
 2058POPC   PO430216  15.612  12.395   9.605
 2058POPC   GL130217  15.734  12.612   9.165
 2058POPC   GL230218  16.066  12.797   9.084
 2058POPC   C1A30219  15.887  12.555   8.692
 2058POPC   D2A30220  15.832  12.802   8.297
 2058POPC   C3A30221  15.986  12.595   8.015
 2058POPC   C4A30222  15.835  12.658   7.677
 2058POPC   C1B30223  16.039  13.057   8.677
 2058POPC   C2B30224  16.154  13.230   8.257
 2058POPC   C3B30225  16.008  13.124   7.814
 2058POPC   C4B30226  16.109  12.946   7.380
 2059POPC   NC330227  30.924  20.021   9.475
 2059POPC   PO430228  30.383  19.753   9.681
 2059POPC   GL130229  30.683  19.624   9.262
 2059POPC   GL230230  30.595  19.522   8.934
 2059POPC   C1A30231  31.062  19.699   8.918
 2059POPC   D2A30232  31.205  19.850   8.495
 2059POPC   C3A30233  30.843  19.926   8.248
 2059POPC   C4A30234  30.649  19.731   7.900
 2059POPC   C1B30235  30.620  19.938   8.751
 2059POPC   C2B30236  30.527  20.293   8.461
 2059POPC   C3B30237  30.351  20.256   8.042
 2059POPC   C4B30238  30.404  20.096   7.608
 2060POPC   NC330239  27.422   0.179   9.400
 2060POPC   PO430240  28.042   0.538   9.401
 2060POPC   GL130241  27.785   0.338   9.087
 2060POPC   GL230242  27.466   0.464   8.988
 2060POPC   C1A30243  27.766   0.069   8.720
 2060POPC   D2A30244  27.811   0.037   8.271
 2060POPC   C3A30245  27.662   0.391   8.048
 2060POPC   C4A30246  27.897   0.488   7.702
 2060POPC   C1B30247  27.269   0.194   8.713
 2060POPC   C2B30248  27.204   0.259   8.289
 2060POPC   C3B30249  27.353  44.962   8.022
 2060POPC   C4B30250  27.669  44.997   7.738
 2061POPC   NC330251  29.254  36.403   9.470
 2061POPC   PO430252  28.606  36.310   9.288
 2061POPC   GL130253  28.910  36.247   8.973
 2061POPC   GL230254  29.206  36.128   9.033
 2061POPC   C1A30255  29.134  36.418   8.601
 2061POPC   D2A30256  29.290  36.213   8.249
 2061POPC   C3A30257  29.100  36.310   7.846
 2061POPC   C4A30258  29.008  36.334   7.397
 2061POPC   C1B30259  29.386  35.872   8.691
 2061POPC   C2B30260  29.266  35.680   8.300
 2061POPC   C3B30261  29.032  35.798   7.972
 2061POPC   C4B30262  29.156  35.877   7.523
 2062POPC   NC330263   6.143  33.935   9.521
 2062POPC   PO430264   6.096  33.302   9.214
 2062POPC   GL130265   5.971  33.782   9.069
 2062POPC   GL230266   6.199  34.121   9.059
 2062POPC   C1A30267   5.842  34.056   8.707
 2062POPC   D2A30268   5.817  34.318   8.332
 2062POPC   C3A30269   5.826  34.084   7.955
 2062POPC   C4A30270   5.948  33.659   7.816
 2062POPC   C1B30271   6.364  33.997   8.640
 2062POPC   C2B30272   6.258  33.887   8.215
 2062POPC   C3B30273   6.318  34.048   7.811
 2062POPC   C4B30274   6.297  33.909   7.366
 2063POPC   NC330275  37.224  19.636   9.344
 2063POPC   PO430276  36.599  19.817   9.452
 2063POPC   GL130277  36.825  19.925   9.113
 2063POPC   GL230278  37.081  20.195   9.171
 2063POPC   C1A30279  36.934  19.635   8.774
 2063POPC   D2A30280  36.865  19.472   8.396
 2063POPC   C3A30281  36.751  19.735   8.090
 2063POPC   C4A30282  36.636  19.641   7.689
 2063POPC   C1B30283  37.065  20.126   8.711
 2063POPC   C2B30284  37.244  19.827   8.383
 2063POPC   C3B30285  37.220  19.716   7.935
 2063POPC   C4B30286  36.994  20.054   7.708
 2064POPC   NC330287   5.602  15.062   9.423
 2064POPC   PO430288   6.150  15.308   9.600
 2064POPC   GL130289   6.082  15.156   9.140
 2064POPC   GL230290   5.769  15.321   9.001
 2064POPC   C1A30291   6.142  15.240   8.665
 2064POPC   D2A30292   5.766  15.205   8.371
 2064POPC   C3A30293   5.862  15.035   7.951
 2064POPC   C4A30294   5.801  15.176   7.523
 2064POPC   C1B30295   5.774  14.900   8.796
 2064POPC   C2B30296   5.538  14.711   8.458
 2064POPC   C3B30297   5.371  14.928   8.087
 2064POPC   C4B30298   5.436  14.829   7.650
 2065POPC   NC330299  10.211  31.371   9.882
 2065POPC   PO430300   9.766  31.760   9.599
 2065POPC   GL130301   9.753  31.630   9.165
 2065POPC   GL230302   9.791  31.278   9.208
 2065POPC   C1A30303   9.511  31.600   8.766
 2065POPC   D2A30304   9.490  31.408   8.364
 2065POPC   C3A30305   9.584  31.688   8.028
 2065POPC   C4A30306  10.010  31.738   7.828
 2065POPC   C1B30307   9.649  31.096   8.795
 2065POPC   C2B30308   9.736  30.972   8.353
 2065POPC   C3B30309   9.613  31.141   7.928
 2065POPC   C4B30310   9.747  31.018   7.492
 2066POPC   NC330311  34.309  15.241   9.771
 2066POPC   PO430312  34.920  15.216   9.411
 2066POPC   GL130313  34.932  15.197   8.995
 2066POPC   GL230314  34.701  15.461   8.944
 2066POPC   C1A30315  34.650  14.995   8.695
 2066POPC   D2A30316  34.521  15.178   8.337
 2066POPC   C3A30317  34.752  15.056   7.988
 2066POPC   C4A30318  34.762  15.337   7.630
 2066POPC   C1B30319  34.273  15.493   8.767
 2066POPC   C2B30320  34.063  15.454   8.386
 2066POPC   C3B30321  34.190  15.520   7.959
 2066POPC   C4B30322  34.266  15.421   7.525
 2067POPC   NC330323  36.550  41.355   9.469
 2067POPC   PO430324  36.850  41.981   9.386
 2067POPC   GL130325  36.623  41.732   9.118
 2067POPC   GL230326  36.918  41.495   9.132
 2067POPC   C1A30327  36.722  41.717   8.699
 2067POPC   D2A30328  37.011  41.452   8.474
 2067POPC   C3A30329  36.839  41.439   8.076
 2067POPC   C4A30330  37.026  41.576   7.705
 2067POPC   C1B30331  36.707  41.240   8.834
 2067POPC   C2B30332  36.665  41.073   8.426
 2067POPC   C3B30333  36.612  40.948   7.996
 2067POPC   C4B30334  36.764  41.120   7.591
 2068POPC   NC330335   2.409  17.041   9.533
 2068POPC   PO430336   3.069  16.778   9.472
 2068POPC   GL130337   2.999  16.627   9.088
 2068POPC   GL230338   2.624  16.697   9.050
 2068POPC   C1A30339   2.960  16.507   8.674
 2068POPC   D2A30340   2.834  16.800   8.430
 2068POPC   C3A30341   2.657  16.688   8.040
 2068POPC   C4A30342   2.813  16.790   7.671
 2068POPC   C1B30343   2.528  17.071   8.764
 2068POPC   C2B30344   2.437  17.076   8.297
 2068POPC   C3B30345   2.544  17.182   7.861
 2068POPC   C4B30346   2.641  17.180   7.397
 2069POPC   NC330347  20.421  15.371   9.565
 2069POPC   PO430348  20.871  14.904   9.602
 2069POPC   GL130349  20.629  14.986   9.226
 2069POPC   GL230350  20.725  15.295   9.187
 2069POPC   C1A30351  20.641  14.866   8.794
 2069POPC   D2A30352  20.734  15.055   8.378
 2069POPC   C3A30353  20.482  14.792   8.040
 2069POPC   C4A30354  20.282  14.841   7.595
 2069POPC   C1B30355  20.514  15.366   8.828
 2069POPC   C2B30356  20.615  15.566   8.452
 2069POPC   C3B30357  20.507  15.514   8.054
 2069POPC   C4B30358  20.613  15.203   7.785
 2070POPC   NC330359  30.076  42.092   9.435
 2070POPC   PO430360  29.527  42.426   9.476
 2070POPC   GL130361  29.708  42.231   9.096
 2070POPC   GL230362  29.848  42.551   8.977
 2070POPC   C1A30363  29.996  42.122   8.724
 2070POPC   D2A30364  30.041  42.297   8.297
 2070POPC   C3A30365  29.763  42.167   7.970
 2070POPC   C4A30366  29.479  42.454   7.777
 2070POPC   C1B30367  30.243  42.584   8.719
 2070POPC   C2B30368  30.397  42.685   8.272
 2070POPC   C3B30369  30.182  42.557   7.848
 2070POPC   C4B30370  30.352  42.447   7.408
 2071POPC   NC330371  14.635  38.742   9.545
 2071POPC   PO430372  14.228  38.250   9.545
 2071POPC   GL130373  14.344  38.484   9.173
 2071POPC   GL230374  14.311  38.147   9.033
 2071POPC   C1A30375  14.408  38.811   8.814
 2071POPC   D2A30376  14.432  39.021   8.376
 2071POPC   C3A30377  14.263  38.772   8.052
 2071POPC   C4A30378  14.306  38.438   7.728
 2071POPC   C1B30379  14.659  38.355   8.782
 2071POPC   C2B30380  14.604  38.540   8.399
 2071POPC   C3B30381  14.722  38.550   7.991
 2071POPC   C4B30382  14.830  38.228   7.736
 2072POPC   NC330383  34.731  32.124   9.390
 2072POPC   PO430384  34.355  32.571   9.728
 2072POPC   GL130385  34.389  32.501   9.230
 2072POPC   GL230386  34.412  32.179   9.021
 2072POPC   C1A30387  34.640  32.569   8.805
 2072POPC   D2A30388  34.481  32.599   8.379
 2072POPC   C3A30389  34.597  32.464   7.981
 2072POPC   C4A30390  34.253  32.236   7.761
 2072POPC   C1B30391  34.636  32.031   8.689
 2072POPC   C2B30392  34.514  32.050   8.249
 2072POPC   C3B30393  34.664  31.955   7.826
 2072POPC   C4B30394  34.801  31.766   7.441
 2073POPC   NC330395  31.645  18.060   9.353
 2073POPC   PO430396  31.336  18.659   9.410
 2073POPC   GL130397  31.398  18.425   9.067
 2073POPC   GL230398  31.257  18.086   9.051
 2073POPC   C1A30399  31.653  18.487   8.731
 2073POPC   D2A30400  31.740  18.236   8.389
 2073POPC   C3A30401  31.639  18.374   7.996
 2073POPC   C4A30402  31.271  18.384   7.776
 2073POPC   C1B30403  31.248  18.180   8.620
 2073POPC   C2B30404  31.051  18.177   8.226
 2073POPC   C3B30405  31.083  17.917   7.852
 2073POPC   C4B30406  31.043  18.112   7.409
 2074POPC   NC330407  14.926  32.905   9.417
 2074POPC   PO430408  15.607  33.217   9.441
 2074POPC   GL130409  15.272  33.127   9.120
 2074POPC   GL230410  14.935  33.340   9.125
 2074POPC   C1A30411  15.000  32.962   8.766
 2074POPC   D2A30412  14.979  32.731   8.385
 2074POPC   C3A30413  15.385  32.738   8.219
 2074POPC   C4A30414  15.410  32.788   7.817
 2074POPC   C1B30415  15.169  33.448   8.732
 2074POPC   C2B30416  15.237  33.232   8.322
 2074POPC   C3B30417  15.168  33.260   7.880
 2074POPC   C4B30418  14.897  33.309   7.515
 2075POPC   NC330419  12.788  39.687   9.763
 2075POPC   PO430420  12.926  40.141   9.283
 2075POPC   GL130421  12.744  40.107   8.963
 2075POPC   GL230422  13.066  40.136   8.779
 2075POPC   C1A30423  12.564  40.114   8.621
 2075POPC   D2A30424  12.776  40.151   8.269
 2075POPC   C3A30425  12.470  40.117   7.982
 2075POPC   C4A30426  12.671  39.947   7.644
 2075POPC   C1B30427  13.219  39.692   8.741
 2075POPC   C2B30428  13.172  39.452   8.358
 2075POPC   C3B30429  13.030  39.649   7.995
 2075POPC   C4B30430  13.159  40.059   7.875
 2076POPC   NC330431   0.685   2.047   9.416
 2076POPC   PO430432   0.079   1.673   9.351
 2076POPC   GL130433   0.328   1.881   9.079
 2076POPC   GL230434   0.189   2.172   9.035
 2076POPC   C1A30435   0.486   1.981   8.664
 2076POPC   D2A30436   0.634   1.685   8.362
 2076POPC   C3A30437   0.754   1.852   7.981
 2076POPC   C4A30438   0.382   1.881   7.721
 2076POPC   C1B30439   0.131   2.400   8.727
 2076POPC   C2B30440   0.407   2.494   8.425
 2076POPC   C3B30441   0.455   2.263   8.071
 2076POPC   C4B30442   0.265   2.370   7.700
 2077POPC   NC330443  42.036   4.471   9.524
 2077POPC   PO430444  41.453   4.136   9.639
 2077POPC   GL130445  41.606   4.202   9.222
 2077POPC   GL230446  41.754   4.505   9.116
 2077POPC   C1A30447  41.453   4.261   8.791
 2077POPC   D2A30448  41.342   4.097   8.365
 2077POPC   C3A30449  41.544   4.288   8.029
 2077POPC   C4A30450  41.309   4.455   7.682
 2077POPC   C1B30451  41.998   4.609   8.761
 2077POPC   C2B30452  41.953   4.749   8.338
 2077POPC   C3B30453  42.096   4.792   7.920
 2077POPC   C4B30454  41.822   4.574   7.697
 2078POPC   NC330455  25.545  28.591   9.683
 2078POPC   PO430456  26.208  28.443   9.615
 2078POPC   GL130457  26.156  28.409   9.168
 2078POPC   GL230458  25.786  28.314   9.229
 2078POPC   C1A30459  26.270  28.576   8.738
 2078POPC   D2A30460  26.207  28.296   8.341
 2078POPC   C3A30461  26.095  28.416   7.899
 2078POPC   C4A30462  26.251  28.374   7.448
 2078POPC   C1B30463  25.888  28.226   8.771
 2078POPC   C2B30464  25.654  28.312   8.370
 2078POPC   C3B30465  25.581  28.433   7.935
 2078POPC   C4B30466  25.735  28.241   7.560
 2079POPC   NC330467  36.477  11.060   9.432
 2079POPC   PO430468  35.891  11.353   9.555
 2079POPC   GL130469  36.164  11.470   9.223
 2079POPC   GL230470  36.046  11.146   9.102
 2079POPC   C1A30471  36.330  11.413   8.798
 2079POPC   D2A30472  36.044  11.395   8.439
 2079POPC   C3A30473  36.176  11.236   8.059
 2079POPC   C4A30474  36.369  11.461   7.703
 2079POPC   C1B30475  36.098  10.954   8.682
 2079POPC   C2B30476  35.873  10.863   8.287
 2079POPC   C3B30477  35.910  10.818   7.832
 2079POPC   C4B30478  36.321  10.957   7.647
 2080POPC   NC330479  24.934   1.903   9.509
 2080POPC   PO430480  25.531   1.775   9.481
 2080POPC   GL130481  25.448   2.056   9.172
 2080POPC   GL230482  25.243   1.860   9.059
 2080POPC   C1A30483  25.290   2.214   8.725
 2080POPC   D2A30484  25.178   2.079   8.300
 2080POPC   C3A30485  25.305   2.173   7.878
 2080POPC   C4A30486  25.279   1.987   7.466
 2080POPC   C1B30487  25.217   1.638   8.689
 2080POPC   C2B30488  25.368   1.623   8.267
 2080POPC   C3B30489  25.193   1.652   7.861
 2080POPC   C4B30490  25.037   1.440   7.482
 2081POPC   NC330491   9.574  39.315   9.425
 2081POPC   PO430492  10.162  38.952   9.550
 2081POPC   GL130493   9.925  39.080   9.152
 2081POPC   GL230494   9.858  39.392   8.996
 2081POPC   C1A30495   9.728  38.933   8.782
 2081POPC   D2A30496   9.904  38.899   8.367
 2081POPC   C3A30497   9.979  39.335   8.275
 2081POPC   C4A30498   9.901  39.585   7.926
 2081POPC   C1B30499   9.491  39.396   8.739
 2081POPC   C2B30500   9.447  39.137   8.383
 2081POPC   C3B30501   9.615  39.128   7.989
 2081POPC   C4B30502   9.436  39.472   7.783
 2082POPC   NC330503  25.321  24.842   9.480
 2082POPC   PO430504  25.276  24.209   9.604
 2082POPC   GL130505  25.437  24.390   9.214
 2082POPC   GL230506  25.204  24.629   9.057
 2082POPC   C1A30507  25.474  24.312   8.762
 2082POPC   D2A30508  25.420  24.640   8.427
 2082POPC   C3A30509  25.461  24.472   8.011
 2082POPC   C4A30510  25.324  24.246   7.644
 2082POPC   C1B30511  24.987  24.857   8.751
 2082POPC   C2B30512  25.018  25.008   8.338
 2082POPC   C3B30513  24.992  24.753   7.979
 2082POPC   C4B30514  24.729  24.764   7.614
 2083POPC   NC330515  38.105  35.659   9.368
 2083POPC   PO430516  38.500  35.122   9.562
 2083POPC   GL130517  38.439  35.303   9.151
 2083POPC   GL230518  38.567  35.638   9.108
 2083POPC   C1A30519  38.457  35.204   8.712
 2083POPC   D2A30520  38.782  35.134   8.400
 2083POPC   C3A30521  38.597  35.243   8.000
 2083POPC   C4A30522  38.844  35.266   7.625
 2083POPC   C1B30523  38.347  35.714   8.709
 2083POPC   C2B30524  38.202  35.629   8.256
 2083POPC   C3B30525  38.363  35.679   7.820
 2083POPC   C4B30526  38.670  35.696   7.435
 2084POPC   NC330527  37.944   5.725   9.504
 2084POPC   PO430528  38.624   5.879   9.558
 2084POPC   GL130529  38.444   5.807   9.164
 2084POPC   GL230530  38.328   6.110   9.014
 2084POPC   C1A30531  38.647   5.650   8.785
 2084POPC   D2A30532  38.648   5.591   8.348
 2084POPC   C3A30533  38.457   5.862   8.066
 2084POPC   C4A30534  38.611   5.762   7.668
 2084POPC   C1B30535  38.265   5.950   8.589
 2084POPC   C2B30536  37.987   5.977   8.209
 2084POPC   C3B30537  37.989   5.755   7.819
 2084POPC   C4B30538  38.162   5.924   7.460
 2085POPC   NC330539  11.156  16.439   9.253
 2085POPC   PO430540  11.181  17.044   9.565
 2085POPC   GL130541  11.418  16.959   9.139
 2085POPC   GL230542  11.573  16.625   8.997
 2085POPC   C1A30543  11.574  17.070   8.732
 2085POPC   D2A30544  11.472  17.280   8.346
 2085POPC   C3A30545  11.486  17.038   7.960
 2085POPC   C4A30546  11.083  16.905   7.818
 2085POPC   C1B30547  11.236  16.665   8.620
 2085POPC   C2B30548  10.966  16.566   8.216
 2085POPC   C3B30549  11.077  16.393   7.808
 2085POPC   C4B30550  11.499  16.447   7.637
 2086POPC   NC330551  29.436   7.412   9.441
 2086POPC   PO430552  28.764   7.563   9.490
 2086POPC   GL130553  28.867   7.397   9.106
 2086POPC   GL230554  29.134   7.143   9.139
 2086POPC   C1A30555  29.113   7.566   8.773
 2086POPC   D2A30556  29.261   7.451   8.378
 2086POPC   C3A30557  29.274   7.700   8.049
 2086POPC   C4A30558  29.343   7.550   7.655
 2086POPC   C1B30559  29.280   7.034   8.741
 2086POPC   C2B30560  29.369   6.957   8.309
 2086POPC   C3B30561  29.157   7.151   7.929
 2086POPC   C4B30562  29.031   7.213   7.466
 2087POPC   NC330563  43.239  43.393   9.392
 2087POPC   PO430564  42.736  42.915   9.525
 2087POPC   GL130565  43.040  42.935   9.200
 2087POPC   GL230566  43.397  42.820   9.077
 2087POPC   C1A30567  43.013  43.102   8.795
 2087POPC   D2A30568  43.188  42.967   8.432
 2087POPC   C3A30569  42.987  43.107   8.064
 2087POPC   C4A30570  43.115  42.910   7.705
 2087POPC   C1B30571  43.561  43.180   8.814
 2087POPC   C2B30572  43.542  43.336   8.385
 2087POPC   C3B30573  43.505  43.131   8.010
 2087POPC   C4B30574  43.373  43.326   7.622
 2088POPC   NC330575  30.763  21.721   9.487
 2088POPC   PO430576  30.765  22.362   9.265
 2088POPC   GL130577  30.721  22.063   9.016
 2088POPC   GL230578  30.410  21.967   9.148
 2088POPC   C1A30579  30.798  22.151   8.579
 2088POPC   D2A30580  30.726  22.284   8.145
 2088POPC   C3A30581  30.953  22.173   7.817
 2088POPC   C4A30582  31.185  22.479   7.594
 2088POPC   C1B30583  30.314  22.236   8.749
 2088POPC   C2B30584  30.263  22.257   8.294
 2088POPC   C3B30585  30.321  22.394   7.847
 2088POPC   C4B30586  30.328  22.630   7.441
 2089POPC   NC330587  36.891  26.565   9.458
 2089POPC   PO430588  36.447  27.096   9.446
 2089POPC   GL130589  36.816  27.013   9.139
 2089POPC   GL230590  37.090  26.704   9.012
 2089POPC   C1A30591  37.059  27.145   8.795
 2089POPC   D2A30592  37.096  26.834   8.498
 2089POPC   C3A30593  37.081  26.919   8.098
 2089POPC   C4A30594  36.798  26.941   7.764
 2089POPC   C1B30595  37.237  26.391   8.691
 2089POPC   C2B30596  36.953  26.253   8.356
 2089POPC   C3B30597  36.958  26.426   7.903
 2089POPC   C4B30598  37.060  26.603   7.486
 2090POPC   NC330599  14.506  30.934   9.499
 2090POPC   PO430600  13.974  30.604   9.294
 2090POPC   GL130601  14.390  30.725   9.033
 2090POPC   GL230602  14.716  30.985   9.054
 2090POPC   C1A30603  14.478  30.827   8.586
 2090POPC   D2A30604  14.359  31.101   8.236
 2090POPC   C3A30605  14.229  30.848   7.878
 2090POPC   C4A30606  14.135  30.966   7.416
 2090POPC   C1B30607  14.868  30.619   8.838
 2090POPC   C2B30608  14.808  30.372   8.484
 2090POPC   C3B30609  14.677  30.585   8.109
 2090POPC   C4B30610  14.764  30.760   7.751
 2091POPC   NC330611   1.470  32.514   9.519
 2091POPC   PO430612   1.841  33.051   9.601
 2091POPC   GL130613   2.115  33.026   9.180
 2091POPC   GL230614   2.240  32.672   9.177
 2091POPC   C1A30615   2.178  33.174   8.771
 2091POPC   D2A30616   1.895  33.040   8.460
 2091POPC   C3A30617   2.044  33.104   8.064
 2091POPC   C4A30618   1.746  33.050   7.776
 2091POPC   C1B30619   1.891  32.672   8.890
 2091POPC   C2B30620   1.828  32.503   8.489
 2091POPC   C3B30621   1.679  32.668   8.122
 2091POPC   C4B30622   1.439  32.659   7.764
 2092POPC   NC330623  37.913  29.795   9.516
 2092POPC   PO430624  38.427  30.062   9.708
 2092POPC   GL130625  38.392  29.964   9.267
 2092POPC   GL230626  38.180  30.231   9.209
 2092POPC   C1A30627  38.368  29.953   8.791
 2092POPC   D2A30628  38.318  29.632   8.447
 2092POPC   C3A30629  38.364  29.817   8.010
 2092POPC   C4A30630  38.809  29.857   7.827
 2092POPC   C1B30631  38.614  30.363   8.996
 2092POPC   C2B30632  38.760  30.280   8.542
 2092POPC   C3B30633  38.686  30.375   8.081
 2092POPC   C4B30634  38.467  30.242   7.706
 2093POPC   NC330635  41.383   1.891   9.507
 2093POPC   PO430636  42.034   1.960   9.332
 2093POPC   GL130637  41.728   2.038   9.131
 2093POPC   GL230638  41.622   1.727   9.072
 2093POPC   C1A30639  41.663   2.113   8.716
 2093POPC   D2A30640  41.547   2.308   8.368
 2093POPC   C3A30641  41.532   2.076   7.997
 2093POPC   C4A30642  41.716   2.215   7.640
 2093POPC   C1B30643  41.702   1.611   8.651
 2093POPC   C2B30644  41.570   1.599   8.225
 2093POPC   C3B30645  41.510   1.584   7.788
 2093POPC   C4B30646  41.366   1.882   7.509
 2094POPC   NC330647   0.480   5.449   9.595
 2094POPC   PO430648   0.058   4.931   9.501
 2094POPC   GL130649   0.369   5.172   9.159
 2094POPC   GL230650   0.730   5.329   9.170
 2094POPC   C1A30651   0.275   5.227   8.692
 2094POPC   D2A30652   0.399   5.138   8.257
 2094POPC   C3A30653   0.256   5.320   7.869
 2094POPC   C4A30654   0.451   5.197   7.497
 2094POPC   C1B30655   0.732   5.028   8.813
 2094POPC   C2B30656   0.743   4.793   8.410
 2094POPC   C3B30657   0.629   4.763   7.934
 2094POPC   C4B30658   0.825   4.834   7.491
 2095POPC   NC330659   0.848  33.295   9.482
 2095POPC   PO430660   0.192  32.973   9.646
 2095POPC   GL130661   0.497  32.991   9.279
 2095POPC   GL230662   0.510  33.301   9.102
 2095POPC   C1A30663   0.552  32.906   8.785
 2095POPC   D2A30664   0.249  33.046   8.445
 2095POPC   C3A30665   0.174  32.782   8.067
 2095POPC   C4A30666   0.418  32.881   7.726
 2095POPC   C1B30667   0.609  33.475   8.717
 2095POPC   C2B30668   0.501  33.612   8.311
 2095POPC   C3B30669   0.443  33.298   8.028
 2095POPC   C4B30670   0.767  33.255   7.714
 2096POPC   NC330671  12.432  18.640   9.364
 2096POPC   PO430672  11.786  18.703   9.363
 2096POPC   GL130673  12.061  18.969   9.113
 2096POPC   GL230674  12.324  19.182   9.272
 2096POPC   C1A30675  12.054  18.988   8.666
 2096POPC   D2A30676  11.844  18.791   8.320
 2096POPC   C3A30677  12.110  18.919   7.983
 2096POPC   C4A30678  11.933  19.059   7.609
 2096POPC   C1B30679  12.469  19.235   8.846
 2096POPC   C2B30680  12.360  19.419   8.447
 2096POPC   C3B30681  12.477  19.342   8.010
 2096POPC   C4B30682  12.395  19.217   7.589
 2097POPC   NC330683  15.728  43.298   9.670
 2097POPC   PO430684  16.152  42.828   9.451
 2097POPC   GL130685  15.998  43.033   9.099
 2097POPC   GL230686  16.027  43.330   9.207
 2097POPC   C1A30687  15.810  43.132   8.710
 2097POPC   D2A30688  15.721  43.494   8.472
 2097POPC   C3A30689  15.672  43.392   8.053
 2097POPC   C4A30690  15.831  43.306   7.666
 2097POPC   C1B30691  16.295  43.361   8.831
 2097POPC   C2B30692  16.287  43.558   8.422
 2097POPC   C3B30693  16.218  43.388   7.998
 2097POPC   C4B30694  16.386  43.464   7.559
 2098POPC   NC330695  14.160   4.139   9.825
 2098POPC   PO430696  13.545   4.029   9.445
 2098POPC   GL130697  13.660   3.992   9.013
 2098POPC   GL230698  13.740   4.338   9.050
 2098POPC   C1A30699  13.888   4.069   8.627
 2098POPC   D2A30700  13.956   4.048   8.192
 2098POPC   C3A30701  13.707   4.239   7.874
 2098POPC   C4A30702  13.686   4.178   7.409
 2098POPC   C1B30703  13.704   4.566   8.687
 2098POPC   C2B30704  13.953   4.556   8.334
 2098POPC   C3B30705  13.940   4.708   7.911
 2098POPC   C4B30706  13.698   4.663   7.556
 2099POPC   NC330707  24.068   0.429   9.573
 2099POPC   PO430708  23.557   0.001   9.600
 2099POPC   GL130709  23.633   0.238   9.251
 2099POPC   GL230710  23.415   0.531   9.180
 2099POPC   C1A30711  23.868   0.355   8.904
 2099POPC   D2A30712  23.867   0.160   8.501
 2099POPC   C3A30713  23.937   0.379   8.125
 2099POPC   C4A30714  23.921   0.257   7.722
 2099POPC   C1B30715  23.379   0.351   8.749
 2099POPC   C2B30716  23.467   0.471   8.316
 2099POPC   C3B30717  23.464   0.478   7.854
 2099POPC   C4B30718  23.610   0.726   7.484
 2100POPC   NC330719  21.445  32.886   9.379
 2100POPC   PO430720  20.908  33.257   9.461
 2100POPC   GL130721  21.066  33.094   9.101
 2100POPC   GL230722  21.323  33.330   9.070
 2100POPC   C1A30723  21.124  32.830   8.739
 2100POPC   D2A30724  21.075  32.887   8.295
 2100POPC   C3A30725  21.430  32.806   7.990
 2100POPC   C4A30726  21.487  32.900   7.547
 2100POPC   C1B30727  21.493  33.187   8.690
 2100POPC   C2B30728  21.472  33.259   8.254
 2100POPC   C3B30729  21.672  33.266   7.861
 2100POPC   C4B30730  21.912  33.171   7.446
 2101POPC   NC330731  11.970  33.920   9.736
 2101POPC   PO430732  12.515  33.780   9.364
 2101POPC   GL130733  12.275  33.985   9.070
 2101POPC   GL230734  11.957  34.020   9.213
 2101POPC   C1A30735  12.321  34.047   8.623
 2101POPC   D2A30736  12.372  33.700   8.327
 2101POPC   C3A30737  12.219  33.789   7.913
 2101POPC   C4A30738  12.075  33.490   7.625
 2101POPC   C1B30739  11.826  33.981   8.793
 2101POPC   C2B30740  11.862  33.848   8.388
 2101POPC   C3B30741  11.733  33.954   8.011
 2101POPC   C4B30742  11.800  34.227   7.688
 2102POPC   NC330743   2.423  31.984   9.827
 2102POPC   PO430744   2.122  31.504   9.444
 2102POPC   GL130745   1.980  31.427   9.060
 2102POPC   GL230746   1.745  31.667   8.968
 2102POPC   C1A30747   2.108  31.448   8.637
 2102POPC   D2A30748   2.327  31.173   8.389
 2102POPC   C3A30749   2.152  31.315   8.063
 2102POPC   C4A30750   2.145  31.348   7.663
 2102POPC   C1B30751   1.635  31.274   8.718
 2102POPC   C2B30752   1.725  31.190   8.303
 2102POPC   C3B30753   1.680  31.349   7.870
 2102POPC   C4B30754   1.722  31.682   7.524
 2103POPC   NC330755  22.506  12.391   9.415
 2103POPC   PO430756  22.771  11.834   9.712
 2103POPC   GL130757  22.739  11.966   9.212
 2103POPC   GL230758  22.807  12.254   8.956
 2103POPC   C1A30759  22.657  11.830   8.762
 2103POPC   D2A30760  22.982  12.018   8.467
 2103POPC   C3A30761  22.896  11.946   8.017
 2103POPC   C4A30762  22.631  12.227   7.757
 2103POPC   C1B30763  23.243  12.344   8.784
 2103POPC   C2B30764  23.515  12.332   8.436
 2103POPC   C3B30765  23.320  12.319   8.041
 2103POPC   C4B30766  23.136  12.266   7.660
 2104POPC   NC330767   5.709  10.235   9.775
 2104POPC   PO430768   5.282  10.698   9.713
 2104POPC   GL130769   5.142  10.499   9.263
 2104POPC   GL230770   5.287  10.715   9.006
 2104POPC   C1A30771   4.957  10.294   8.821
 2104POPC   D2A30772   4.874  10.121   8.354
 2104POPC   C3A30773   5.262  10.225   8.099
 2104POPC   C4A30774   5.391  10.441   7.753
 2104POPC   C1B30775   4.977  10.769   8.656
 2104POPC   C2B30776   4.962  10.610   8.239
 2104POPC   C3B30777   4.983  10.755   7.844
 2104POPC   C4B30778   4.762  10.856   7.448
 2105POPC   NC330779  41.258  34.353   9.469
 2105POPC   PO430780  41.539  34.919   9.332
 2105POPC   GL130781  41.612  34.603   9.001
 2105POPC   GL230782  41.473  34.296   8.978
 2105POPC   C1A30783  41.725  34.532   8.573
 2105POPC   D2A30784  41.530  34.919   8.391
 2105POPC   C3A30785  41.603  34.906   7.958
 2105POPC   C4A30786  41.915  34.704   7.747
 2105POPC   C1B30787  41.223  34.459   8.676
 2105POPC   C2B30788  41.310  34.475   8.267
 2105POPC   C3B30789  41.646  34.385   8.047
 2105POPC   C4B30790  41.404  34.294   7.746
 2106POPC   NC330791  41.211   1.009   9.308
 2106POPC   PO430792  41.644   1.500   9.534
 2106POPC   GL130793  41.675   1.219   9.175
 2106POPC   GL230794  41.417   1.274   8.933
 2106POPC   C1A30795  41.868   1.152   8.759
 2106POPC   D2A30796  41.588   1.113   8.406
 2106POPC   C3A30797  41.708   1.146   7.973
 2106POPC   C4A30798  41.607   1.136   7.524
 2106POPC   C1B30799  41.133   1.047   8.664
 2106POPC   C2B30800  41.111   0.980   8.247
 2106POPC   C3B30801  41.204   1.158   7.886
 2106POPC   C4B30802  41.123   0.942   7.562
 2107POPC   NC330803  44.720  27.439   9.453
 2107POPC   PO430804   0.183  27.590   9.256
 2107POPC   GL130805  44.747  27.753   9.051
 2107POPC   GL230806  44.363  27.746   9.156
 2107POPC   C1A30807  44.543  27.648   8.656
 2107POPC   D2A30808  44.666  27.696   8.208
 2107POPC   C3A30809  44.491  27.415   7.937
 2107POPC   C4A30810  44.239  27.142   7.722
 2107POPC   C1B30811  44.184  27.989   8.788
 2107POPC   C2B30812  44.352  28.047   8.368
 2107POPC   C3B30813  44.205  27.852   7.964
 2107POPC   C4B30814  44.275  27.682   7.547
 2108POPC   NC330815  13.304  20.906   9.466
 2108POPC   PO430816  13.689  20.394   9.605
 2108POPC   GL130817  13.478  20.429   9.214
 2108POPC   GL230818  13.679  20.713   9.178
 2108POPC   C1A30819  13.576  20.281   8.773
 2108POPC   D2A30820  13.861  20.268   8.360
 2108POPC   C3A30821  13.713  20.270   7.891
 2108POPC   C4A30822  13.857  20.447   7.446
 2108POPC   C1B30823  13.647  20.844   8.801
 2108POPC   C2B30824  13.566  20.668   8.431
 2108POPC   C3B30825  13.745  20.754   8.073
 2108POPC   C4B30826  13.574  20.774   7.683
 2109POPC   NC330827  43.406  17.474   9.593
 2109POPC   PO430828  42.885  17.969   9.552
 2109POPC   GL130829  43.068  17.633   9.238
 2109POPC   GL230830  42.922  17.336   9.241
 2109POPC   C1A30831  42.955  17.696   8.770
 2109POPC   D2A30832  43.205  17.870   8.433
 2109POPC   C3A30833  43.125  17.653   8.046
 2109POPC   C4A30834  43.375  17.654   7.671
 2109POPC   C1B30835  42.840  17.205   8.827
 2109POPC   C2B30836  42.994  17.262   8.413
 2109POPC   C3B30837  43.004  17.074   8.028
 2109POPC   C4B30838  43.014  17.295   7.657
 2110POPC   NC330839  14.733   0.302   9.520
 2110POPC   PO430840  14.126   0.154   9.392
 2110POPC   GL130841  14.247   0.338   9.038
 2110POPC   GL230842  14.598   0.362   9.030
 2110POPC   C1A30843  14.268   0.391   8.597
 2110POPC   D2A30844  13.954   0.316   8.298
 2110POPC   C3A30845  14.123   0.307   7.911
 2110POPC   C4A30846  14.310   0.735   7.806
 2110POPC   C1B30847  14.827   0.149   8.711
 2110POPC   C2B30848  14.624   0.105   8.316
 2110POPC   C3B30849  14.620   0.359   7.979
 2110POPC   C4B30850  14.599   0.421   7.523
 2111POPC   NC330851  14.136  28.626   9.508
 2111POPC   PO430852  13.542  28.817   9.147
 2111POPC   GL130853  13.881  28.513   9.018
 2111POPC   GL230854  13.864  28.148   9.134
 2111POPC   C1A30855  13.962  28.305   8.612
 2111POPC   D2A30856  14.132  28.404   8.193
 2111POPC   C3A30857  13.853  28.406   7.862
 2111POPC   C4A30858  13.417  28.567   7.871
 2111POPC   C1B30859  13.571  28.056   8.814
 2111POPC   C2B30860  13.598  27.982   8.352
 2111POPC   C3B30861  13.449  28.065   7.917
 2111POPC   C4B30862  13.746  27.968   7.602
 2112POPC   NC330863  35.301  12.303   9.435
 2112POPC   PO430864  35.314  11.649   9.464
 2112POPC   GL130865  35.389  11.920   9.134
 2112POPC   GL230866  35.122  11.767   8.971
 2112POPC   C1A30867  35.270  12.221   8.788
 2112POPC   D2A30868  35.316  12.093   8.378
 2112POPC   C3A30869  35.336  12.329   8.041
 2112POPC   C4A30870  35.696  12.273   7.807
 2112POPC   C1B30871  35.521  11.739   8.696
 2112POPC   C2B30872  35.688  11.741   8.303
 2112POPC   C3B30873  35.461  11.830   7.939
 2112POPC   C4B30874  35.060  11.799   7.741
 2113POPC   NC330875  17.323  11.840   9.609
 2113POPC   PO430876  17.782  12.462   9.606
 2113POPC   GL130877  17.712  12.215   9.229
 2113POPC   GL230878  17.393  12.063   9.167
 2113POPC   C1A30879  17.755  12.011   8.825
 2113POPC   D2A30880  17.526  11.921   8.468
 2113POPC   C3A30881  17.585  12.111   8.088
 2113POPC   C4A30882  17.849  12.021   7.767
 2113POPC   C1B30883  17.282  11.703   8.893
 2113POPC   C2B30884  17.196  11.547   8.455
 2113POPC   C3B30885  17.146  11.767   8.062
 2113POPC   C4B30886  17.270  11.963   7.685
 2114POPC   NC330887  13.961  13.262   9.430
 2114POPC   PO430888  13.293  13.392   9.366
 2114POPC   GL130889  13.608  13.515   9.129
 2114POPC   GL230890  13.679  13.196   9.011
 2114POPC   C1A30891  13.628  13.626   8.715
 2114POPC   D2A30892  13.472  13.560   8.316
 2114POPC   C3A30893  13.620  13.898   8.117
 2114POPC   C4A30894  13.574  13.933   7.701
 2114POPC   C1B30895  14.076  13.385   8.790
 2114POPC   C2B30896  14.037  13.608   8.392
 2114POPC   C3B30897  13.936  13.527   7.976
 2114POPC   C4B30898  13.529  13.425   7.795
 2115POPC   NC330899  17.952   3.564   9.536
 2115POPC   PO430900  18.486   3.202   9.807
 2115POPC   GL130901  18.432   3.353   9.306
 2115POPC   GL230902  18.235   3.650   9.134
 2115POPC   C1A30903  18.422   3.325   8.805
 2115POPC   D2A30904  18.460   3.145   8.380
 2115POPC   C3A30905  18.561   3.432   8.082
 2115POPC   C4A30906  18.441   3.605   7.719
 2115POPC   C1B30907  18.043   3.668   8.709
 2115POPC   C2B30908  18.057   3.453   8.325
 2115POPC   C3B30909  17.980   3.534   7.915
 2115POPC   C4B30910  17.978   3.813   7.594
 2116POPC   NC330911   5.316  17.987   9.354
 2116POPC   PO430912   5.058  17.506   9.769
 2116POPC   GL130913   5.051  17.524   9.281
 2116POPC   GL230914   5.363  17.539   9.068
 2116POPC   C1A30915   4.904  17.579   8.836
 2116POPC   D2A30916   4.652  17.542   8.438
 2116POPC   C3A30917   4.914  17.566   8.035
 2116POPC   C4A30918   4.889  17.367   7.643
 2116POPC   C1B30919   5.408  17.580   8.593
 2116POPC   C2B30920   5.422  17.345   8.174
 2116POPC   C3B30921   5.372  17.473   7.739
 2116POPC   C4B30922   5.368  17.585   7.286
 2117POPC   NC330923  29.781  43.114   9.544
 2117POPC   PO430924  30.359  42.962   9.334
 2117POPC   GL130925  30.204  43.097   8.968
 2117POPC   GL230926  29.856  43.077   9.033
 2117POPC   C1A30927  30.147  43.049   8.562
 2117POPC   D2A30928  29.906  42.881   8.224
 2117POPC   C3A30929  30.107  43.093   7.894
 2117POPC   C4A30930  30.206  43.389   7.515
 2117POPC   C1B30931  29.619  42.943   8.688
 2117POPC   C2B30932  29.411  43.073   8.304
 2117POPC   C3B30933  29.602  43.267   7.942
 2117POPC   C4B30934  29.753  43.197   7.544
 2118POPC   NC330935  20.486  30.539   9.523
 2118POPC   PO430936  21.006  30.809   9.451
 2118POPC   GL130937  20.730  30.764   9.132
 2118POPC   GL230938  20.778  30.418   9.111
 2118POPC   C1A30939  20.642  30.869   8.725
 2118POPC   D2A30940  20.598  30.663   8.343
 2118POPC   C3A30941  20.687  30.684   7.924
 2118POPC   C4A30942  20.881  30.383   7.653
 2118POPC   C1B30943  20.622  30.299   8.712
 2118POPC   C2B30944  20.263  30.289   8.420
 2118POPC   C3B30945  20.189  30.498   8.046
 2118POPC   C4B30946  20.346  30.524   7.595
 2119POPC   NC330947  31.813  43.936   9.376
 2119POPC   PO430948  31.099  44.040   9.544
 2119POPC   GL130949  31.346  44.029   9.169
 2119POPC   GL230950  31.272  44.336   9.056
 2119POPC   C1A30951  31.525  43.876   8.772
 2119POPC   D2A30952  31.597  43.597   8.434
 2119POPC   C3A30953  31.458  43.785   8.070
 2119POPC   C4A30954  31.615  43.706   7.693
 2119POPC   C1B30955  31.671  44.361   8.822
 2119POPC   C2B30956  31.764  44.215   8.359
 2119POPC   C3B30957  31.669  44.206   7.886
 2119POPC   C4B30958  31.702  44.194   7.420
 2120POPC   NC330959  38.666  17.842   9.385
 2120POPC   PO430960  38.452  17.310   9.616
 2120POPC   GL130961  38.455  17.346   9.163
 2120POPC   GL230962  38.807  17.350   9.203
 2120POPC   C1A30963  38.415  17.404   8.691
 2120POPC   D2A30964  38.449  17.727   8.360
 2120POPC   C3A30965  38.308  17.540   7.965
 2120POPC   C4A30966  38.241  17.478   7.533
 2120POPC   C1B30967  38.863  17.580   8.827
 2120POPC   C2B30968  39.002  17.593   8.424
 2120POPC   C3B30969  38.815  17.552   8.025
 2120POPC   C4B30970  38.709  17.794   7.690
 2121POPC   NC330971  34.317   6.706   9.472
 2121POPC   PO430972  34.954   6.601   9.406
 2121POPC   GL130973  34.764   6.796   9.060
 2121POPC   GL230974  34.403   6.704   8.990
 2121POPC   C1A30975  34.665   6.902   8.640
 2121POPC   D2A30976  34.281   6.715   8.445
 2121POPC   C3A30977  34.190   6.891   8.045
 2121POPC   C4A30978  34.487   6.775   7.752
 2121POPC   C1B30979  34.570   6.404   8.744
 2121POPC   C2B30980  34.446   6.186   8.388
 2121POPC   C3B30981  34.375   6.338   7.991
 2121POPC   C4B30982  34.053   6.511   7.719
 2122POPC   NC330983  36.112   6.239   9.499
 2122POPC   PO430984  35.743   5.673   9.379
 2122POPC   GL130985  35.965   5.927   9.081
 2122POPC   GL230986  35.872   6.280   9.057
 2122POPC   C1A30987  36.002   5.849   8.642
 2122POPC   D2A30988  36.122   5.550   8.325
 2122POPC   C3A30989  36.224   5.711   7.958
 2122POPC   C4A30990  36.230   5.523   7.578
 2122POPC   C1B30991  36.301   6.215   8.830
 2122POPC   C2B30992  36.432   6.206   8.387
 2122POPC   C3B30993  36.593   6.107   7.987
 2122POPC   C4B30994  36.519   5.925   7.604
 2123POPC   NC330995  26.136  25.089   9.540
 2123POPC   PO430996  26.123  25.721   9.489
 2123POPC   GL130997  25.907  25.382   9.210
 2123POPC   GL230998  25.649  25.232   9.290
 2123POPC   C1A30999  25.960  25.186   8.811
 2123POPC   D2A31000  26.198  24.991   8.503
 2123POPC   C3A31001  26.258  25.131   8.075
 2123POPC   C4A31002  26.213  25.247   7.658
 2123POPC   C1B31003  25.476  25.047   8.887
 2123POPC   C2B31004  25.501  25.166   8.462
 2123POPC   C3B31005  25.442  25.028   8.043
 2123POPC   C4B31006  25.759  25.091   7.767
 2124POPC   NC331007  36.282  40.842   9.755
 2124POPC   PO431008  36.586  40.463   9.295
 2124POPC   GL131009  36.332  40.836   9.227
 2124POPC   GL231010  35.943  40.833   9.238
 2124POPC   C1A31011  36.340  40.875   8.794
 2124POPC   D2A31012  36.172  41.003   8.418
 2124POPC   C3A31013  36.141  40.690   8.111
 2124POPC   C4A31014  36.286  40.600   7.717
 2124POPC   C1B31015  35.830  41.042   8.833
 2124POPC   C2B31016  35.682  41.109   8.394
 2124POPC   C3B31017  35.871  41.114   8.021
 2124POPC   C4B31018  35.820  40.863   7.687
 2125POPC   NC331019  38.457  19.357   9.292
 2125POPC   PO431020  38.670  18.781   9.612
 2125POPC   GL131021  38.427  18.846   9.236
 2125POPC   GL231022  38.746  18.962   9.129
 2125POPC   C1A31023  38.287  18.955   8.796
 2125POPC   D2A31024  38.425  18.890   8.365
 2125POPC   C3A31025  38.353  19.122   7.986
 2125POPC   C4A31026  38.324  18.960   7.587
 2125POPC   C1B31027  38.723  19.210   8.729
 2125POPC   C2B31028  38.659  19.362   8.325
 2125POPC   C3B31029  38.859  19.266   7.926
 2125POPC   C4B31030  38.730  19.255   7.455
 2126POPC   NC331031  25.399  43.703   9.509
 2126POPC   PO431032  25.298  44.471   9.675
 2126POPC   GL131033  25.315  44.158   9.318
 2126POPC   GL231034  25.490  44.254   9.109
 2126POPC   C1A31035  25.165  43.861   8.918
 2126POPC   D2A31036  24.980  43.743   8.481
 2126POPC   C3A31037  25.300  43.633   8.143
 2126POPC   C4A31038  25.430  43.815   7.739
 2126POPC   C1B31039  25.283  44.315   8.734
 2126POPC   C2B31040  25.356  44.101   8.373
 2126POPC   C3B31041  25.133  44.149   7.991
 2126POPC   C4B31042  24.923  44.094   7.608
 2127POPC   NC331043  30.895   0.265  10.030
 2127POPC   PO431044  30.472  44.833   9.642
 2127POPC   GL131045  30.656  44.852   9.258
 2127POPC   GL231046  30.796  44.548   9.156
 2127POPC   C1A31047  30.598  44.961   8.848
 2127POPC   D2A31048  30.871  44.980   8.503
 2127POPC   C3A31049  30.647  44.819   8.177
 2127POPC   C4A31050  30.630  44.921   7.758
 2127POPC   C1B31051  30.809  44.476   8.721
 2127POPC   C2B31052  30.829  44.233   8.356
 2127POPC   C3B31053  31.046  44.140   8.016
 2127POPC   C4B31054  30.794  44.447   7.807
 2128POPC   NC331055  35.819  14.304   9.558
 2128POPC   PO431056  35.170  14.388   9.441
 2128POPC   GL131057  35.485  14.386   9.146
 2128POPC   GL231058  35.632  14.060   9.150
 2128POPC   C1A31059  35.433  14.288   8.723
 2128POPC   D2A31060  35.257  14.480   8.403
 2128POPC   C3A31061  35.431  14.330   8.038
 2128POPC   C4A31062  35.418  14.525   7.648
 2128POPC   C1B31063  35.891  14.063   8.771
 2128POPC   C2B31064  35.734  14.022   8.367
 2128POPC   C3B31065  35.787  13.868   7.962
 2128POPC   C4B31066  35.551  14.018   7.620
 2129POPC   NC331067  41.944   1.784   9.748
 2129POPC   PO431068  42.575   1.792   9.423
 2129POPC   GL131069  42.452   1.979   9.029
 2129POPC   GL231070  42.383   2.317   9.120
 2129POPC   C1A31071  42.163   2.062   8.704
 2129POPC   D2A31072  42.003   1.911   8.344
 2129POPC   C3A31073  42.371   1.783   8.140
 2129POPC   C4A31074  42.186   2.020   7.841
 2129POPC   C1B31075  42.490   2.444   8.724
 2129POPC   C2B31076  42.392   2.320   8.300
 2129POPC   C3B31077  42.653   2.231   7.988
 2129POPC   C4B31078  42.602   2.097   7.593
 2130POPC   NC331079  20.577  27.804   9.424
 2130POPC   PO431080  20.706  27.123   9.574
 2130POPC   GL131081  20.713  27.380   9.156
 2130POPC   GL231082  20.379  27.475   9.068
 2130POPC   C1A31083  20.720  27.663   8.735
 2130POPC   D2A31084  21.042  27.782   8.427
 2130POPC   C3A31085  20.997  27.507   8.112
 2130POPC   C4A31086  20.678  27.496   7.808
 2130POPC   C1B31087  20.462  27.222   8.728
 2130POPC   C2B31088  20.603  27.273   8.347
 2130POPC   C3B31089  20.305  27.463   8.138
 2130POPC   C4B31090  20.154  27.562   7.741
 2131POPC   NC331091  43.268  36.956   9.502
 2131POPC   PO431092  42.692  36.674   9.604
 2131POPC   GL131093  42.771  36.854   9.177
 2131POPC   GL231094  43.043  37.139   9.069
 2131POPC   C1A31095  42.913  36.731   8.766
 2131POPC   D2A31096  43.070  36.926   8.415
 2131POPC   C3A31097  42.904  36.755   8.073
 2131POPC   C4A31098  42.932  37.046   7.727
 2131POPC   C1B31099  43.411  36.933   8.800
 2131POPC   C2B31100  43.512  36.680   8.369
 2131POPC   C3B31101  43.410  36.807   7.915
 2131POPC   C4B31102  43.696  36.877   7.528
 2132POPC   NC331103  19.651  43.426   9.606
 2132POPC   PO431104  20.092  43.986   9.579
 2132POPC   GL131105  19.853  43.961   9.195
 2132POPC   GL231106  19.472  43.920   9.145
 2132POPC   C1A31107  19.883  43.815   8.775
 2132POPC   D2A31108  19.765  44.047   8.434
 2132POPC   C3A31109  19.788  43.905   8.004
 2132POPC   C4A31110  19.962  43.657   7.677
 2132POPC   C1B31111  19.369  43.732   8.760
 2132POPC   C2B31112  19.350  43.701   8.341
 2132POPC   C3B31113  19.338  43.662   7.923
 2132POPC   C4B31114  19.307  43.978   7.642
 2133POPC   NC331115  39.869  26.807   9.510
 2133POPC   PO431116  39.201  26.861   9.450
 2133POPC   GL131117  39.251  26.743   9.030
 2133POPC   GL231118  39.611  26.850   9.060
 2133POPC   C1A31119  39.404  26.561   8.646
 2133POPC   D2A31120  39.462  26.460   8.194
 2133POPC   C3A31121  39.110  26.494   7.927
 2133POPC   C4A31122  39.078  26.854   7.646
 2133POPC   C1B31123  39.355  27.153   8.802
 2133POPC   C2B31124  39.202  27.031   8.413
 2133POPC   C3B31125  39.390  26.999   8.030
 2133POPC   C4B31126  39.465  27.234   7.641
 2134POPC   NC331127  30.502  17.101   9.261
 2134POPC   PO431128  30.938  16.566   9.290
 2134POPC   GL131129  30.782  16.796   8.963
 2134POPC   GL231130  30.903  17.107   8.916
 2134POPC   C1A31131  30.481  16.811   8.626
 2134POPC   D2A31132  30.297  16.459   8.380
 2134POPC   C3A31133  30.473  16.434   7.951
 2134POPC   C4A31134  30.894  16.443   7.742
 2134POPC   C1B31135  30.677  17.296   8.557
 2134POPC   C2B31136  30.495  17.139   8.163
 2134POPC   C3B31137  30.791  16.943   7.832
 2134POPC   C4B31138  30.905  16.925   7.363
 2135POPC   NC331139  33.700   2.077   9.478
 2135POPC   PO431140  33.219   1.624   9.625
 2135POPC   GL131141  33.532   1.670   9.168
 2135POPC   GL231142  33.877   1.859   9.063
 2135POPC   C1A31143  33.688   1.631   8.665
 2135POPC   D2A31144  33.676   1.598   8.175
 2135POPC   C3A31145  33.946   1.818   7.844
 2135POPC   C4A31146  34.061   1.887   7.398
 2135POPC   C1B31147  33.884   2.114   8.629
 2135POPC   C2B31148  33.721   2.133   8.196
 2135POPC   C3B31149  33.893   2.341   7.813
 2135POPC   C4B31150  33.975   2.383   7.355
 2136POPC   NC331151  32.456   4.450   9.639
 2136POPC   PO431152  32.798   3.956   9.318
 2136POPC   GL131153  32.357   4.091   9.225
 2136POPC   GL231154  32.202   4.453   9.193
 2136POPC   C1A31155  32.118   4.108   8.833
 2136POPC   D2A31156  32.183   4.292   8.439
 2136POPC   C3A31157  32.247   4.039   8.058
 2136POPC   C4A31158  32.380   4.286   7.688
 2136POPC   C1B31159  31.941   4.595   8.835
 2136POPC   C2B31160  31.780   4.619   8.410
 2136POPC   C3B31161  31.907   4.452   8.029
 2136POPC   C4B31162  31.958   4.547   7.611
 2137POPC   NC331163  42.856  41.635  10.011
 2137POPC   PO431164  43.402  41.371   9.648
 2137POPC   GL131165  43.120  41.545   9.329
 2137POPC   GL231166  43.396  41.600   9.123
 2137POPC   C1A31167  42.928  41.593   8.897
 2137POPC   D2A31168  43.151  41.657   8.505
 2137POPC   C3A31169  43.020  41.486   8.139
 2137POPC   C4A31170  43.156  41.629   7.756
 2137POPC   C1B31171  43.435  41.929   8.862
 2137POPC   C2B31172  43.465  42.061   8.444
 2137POPC   C3B31173  43.253  42.115   8.085
 2137POPC   C4B31174  43.447  42.063   7.703
 2138POPC   NC331175  13.382  25.495   9.694
 2138POPC   PO431176  13.558  26.055   9.480
 2138POPC   GL131177  13.679  26.259   9.133
 2138POPC   GL231178  13.756  25.908   8.990
 2138POPC   C1A31179  13.527  26.269   8.714
 2138POPC   D2A31180  13.470  26.079   8.339
 2138POPC   C3A31181  13.833  25.947   8.126
 2138POPC   C4A31182  13.629  26.239   7.840
 2138POPC   C1B31183  13.668  25.679   8.608
 2138POPC   C2B31184  13.487  25.579   8.200
 2138POPC   C3B31185  13.561  25.724   7.758
 2138POPC   C4B31186  13.936  25.921   7.596
 2139POPC   NC331187  29.428   4.549  10.018
 2139POPC   PO431188  28.859   4.518   9.642
 2139POPC   GL131189  29.092   4.416   9.238
 2139POPC   GL231190  28.891   4.653   9.070
 2139POPC   C1A31191  29.357   4.553   8.880
 2139POPC   D2A31192  29.344   4.359   8.471
 2139POPC   C3A31193  29.163   4.624   8.165
 2139POPC   C4A31194  29.148   4.537   7.741
 2139POPC   C1B31195  28.921   4.252   8.791
 2139POPC   C2B31196  28.879   4.135   8.367
 2139POPC   C3B31197  29.162   4.097   8.041
 2139POPC   C4B31198  29.054   4.008   7.640
 2140POPC   NC331199   4.758  15.159   9.515
 2140POPC   PO431200   4.192  15.554   9.392
 2140POPC   GL131201   4.472  15.320   9.125
 2140POPC   GL231202   4.317  15.042   8.942
 2140POPC   C1A31203   4.775  15.179   8.815
 2140POPC   D2A31204   4.555  14.939   8.503
 2140POPC   C3A31205   4.401  15.135   8.159
 2140POPC   C4A31206   4.486  15.025   7.776
 2140POPC   C1B31207   4.163  15.322   8.584
 2140POPC   C2B31208   4.026  15.461   8.160
 2140POPC   C3B31209   3.854  15.682   7.823
 2140POPC   C4B31210   4.099  15.758   7.454
 2141POPC   NC331211  39.873  32.529   9.549
 2141POPC   PO431212  40.182  31.967   9.524
 2141POPC   GL131213  39.918  32.078   9.180
 2141POPC   GL231214  39.964  32.411   9.068
 2141POPC   C1A31215  39.856  32.034   8.733
 2141POPC   D2A31216  40.021  32.200   8.367
 2141POPC   C3A31217  39.777  32.064   8.060
 2141POPC   C4A31218  39.700  32.096   7.666
 2141POPC   C1B31219  40.236  32.524   8.732
 2141POPC   C2B31220  40.169  32.688   8.310
 2141POPC   C3B31221  39.970  32.514   7.919
 2141POPC   C4B31222  39.916  32.626   7.477
 2142POPC   NC331223   5.971  44.243   9.503
 2142POPC   PO431224   5.497  43.793   9.518
 2142POPC   GL131225   5.724  43.959   9.143
 2142POPC   GL231226   6.096  43.890   9.141
 2142POPC   C1A31227   5.840  43.917   8.707
 2142POPC   D2A31228   6.107  43.993   8.339
 2142POPC   C3A31229   5.952  43.849   7.943
 2142POPC   C4A31230   5.538  43.694   7.801
 2142POPC   C1B31231   6.356  43.841   8.768
 2142POPC   C2B31232   6.468  43.586   8.390
 2142POPC   C3B31233   6.394  43.596   7.922
 2142POPC   C4B31234   6.306  43.819   7.494
 2143POPC   NC331235   9.130  16.284   9.271
 2143POPC   PO431236   8.587  15.826   9.386
 2143POPC   GL131237   8.947  15.834   9.095
 2143POPC   GL231238   9.339  15.820   9.153
 2143POPC   C1A31239   8.936  15.991   8.680
 2143POPC   D2A31240   9.038  16.101   8.266
 2143POPC   C3A31241   8.829  15.825   7.979
 2143POPC   C4A31242   8.769  15.958   7.579
 2143POPC   C1B31243   9.427  15.870   8.678
 2143POPC   C2B31244   9.508  15.892   8.218
 2143POPC   C3B31245   9.305  15.981   7.790
 2143POPC   C4B31246   9.236  15.986   7.311
 2144POPC   NC331247  31.698  12.897   9.576
 2144POPC   PO431248  31.096  12.964   9.330
 2144POPC   GL131249  31.373  12.691   9.075
 2144POPC   GL231250  31.737  12.633   9.149
 2144POPC   C1A31251  31.279  12.669   8.631
 2144POPC   D2A31252  31.169  12.649   8.228
 2144POPC   C3A31253  31.258  13.017   7.966
 2144POPC   C4A31254  31.696  13.125   7.882
 2144POPC   C1B31255  31.743  12.552   8.738
 2144POPC   C2B31256  31.720  12.757   8.342
 2144POPC   C3B31257  31.606  12.639   7.949
 2144POPC   C4B31258  31.582  12.750   7.521
 2145POPC   NC331259  26.306   7.879   9.453
 2145POPC   PO431260  26.429   7.333   9.524
 2145POPC   GL131261  26.211   7.455   9.135
 2145POPC   GL231262  25.997   7.176   9.070
 2145POPC   C1A31263  26.144   7.482   8.663
 2145POPC   D2A31264  26.302   7.326   8.231
 2145POPC   C3A31265  26.188   7.543   7.820
 2145POPC   C4A31266  25.988   7.870   7.520
 2145POPC   C1B31267  26.249   6.976   8.722
 2145POPC   C2B31268  26.108   6.847   8.304
 2145POPC   C3B31269  26.008   7.048   7.888
 2145POPC   C4B31270  26.209   7.115   7.479
 2146POPC   NC331271  27.774  42.894   9.286
 2146POPC   PO431272  27.390  43.272   9.603
 2146POPC   GL131273  27.398  43.237   9.174
 2146POPC   GL231274  27.303  42.882   9.103
 2146POPC   C1A31275  27.622  43.322   8.788
 2146POPC   D2A31276  27.907  43.398   8.448
 2146POPC   C3A31277  27.659  43.237   8.053
 2146POPC   C4A31278  27.740  43.215   7.616
 2146POPC   C1B31279  27.609  42.795   8.703
 2146POPC   C2B31280  27.593  42.633   8.305
 2146POPC   C3B31281  27.758  42.755   7.902
 2146POPC   C4B31282  27.434  42.800   7.647
 2147POPC   NC331283  34.987  10.479   9.435
 2147POPC   PO431284  35.636  10.702   9.478
 2147POPC   GL131285  35.436  10.451   9.182
 2147POPC   GL231286  35.276  10.773   9.109
 2147POPC   C1A31287  35.314  10.393   8.753
 2147POPC   D2A31288  35.476  10.533   8.351
 2147POPC   C3A31289  35.278  10.369   7.961
 2147POPC   C4A31290  35.337  10.432   7.485
 2147POPC   C1B31291  35.063  10.882   8.744
 2147POPC   C2B31292  35.167  10.961   8.324
 2147POPC   C3B31293  35.410  10.886   7.979
 2147POPC   C4B31294  35.080  10.779   7.721
 2148POPC   NC331295  24.363  21.217   9.534
 2148POPC   PO431296  24.250  21.893   9.559
 2148POPC   GL131297  24.360  21.594   9.188
 2148POPC   GL231298  24.278  21.232   9.032
 2148POPC   C1A31299  24.263  21.623   8.751
 2148POPC   D2A31300  24.122  21.523   8.329
 2148POPC   C3A31301  24.272  21.675   7.951
 2148POPC   C4A31302  24.310  21.311   7.658
 2148POPC   C1B31303  24.423  21.179   8.571
 2148POPC   C2B31304  24.535  21.267   8.136
 2148POPC   C3B31305  24.815  21.105   7.820
 2148POPC   C4B31306  25.035  20.847   7.493
 2149POPC   NC331307  43.326  22.323   9.683
 2149POPC   PO431308  42.699  22.099   9.472
 2149POPC   GL131309  43.028  22.210   9.191
 2149POPC   GL231310  43.160  21.891   9.150
 2149POPC   C1A31311  43.015  22.257   8.739
 2149POPC   D2A31312  43.201  22.131   8.357
 2149POPC   C3A31313  42.971  22.250   7.973
 2149POPC   C4A31314  43.151  22.368   7.637
 2149POPC   C1B31315  42.793  21.815   8.869
 2149POPC   C2B31316  42.778  21.792   8.426
 2149POPC   C3B31317  43.025  21.750   8.061
 2149POPC   C4B31318  43.080  21.816   7.607
 2150POPC   NC331319  32.943   8.694   9.721
 2150POPC   PO431320  32.783   7.965   9.535
 2150POPC   GL131321  32.975   7.845   9.131
 2150POPC   GL231322  32.965   8.164   9.023
 2150POPC   C1A31323  33.158   7.898   8.666
 2150POPC   D2A31324  33.325   7.703   8.324
 2150POPC   C3A31325  33.284   8.003   8.052
 2150POPC   C4A31326  33.128   8.337   7.754
 2150POPC   C1B31327  32.893   8.354   8.667
 2150POPC   C2B31328  33.004   8.358   8.267
 2150POPC   C3B31329  32.669   8.487   7.983
 2150POPC   C4B31330  32.691   8.607   7.574
 2151POPC   NC331331  42.667  26.232   9.467
 2151POPC   PO431332  42.176  25.863   9.321
 2151POPC   GL131333  42.520  25.992   9.024
 2151POPC   GL231334  42.656  26.348   8.988
 2151POPC   C1A31335  42.598  26.022   8.570
 2151POPC   D2A31336  42.655  25.817   8.165
 2151POPC   C3A31337  42.371  26.017   7.854
 2151POPC   C4A31338  42.120  25.868   7.467
 2151POPC   C1B31339  42.278  26.406   8.752
 2151POPC   C2B31340  42.077  26.246   8.381
 2151POPC   C3B31341  42.047  26.434   7.977
 2151POPC   C4B31342  42.113  26.380   7.528
 2152POPC   NC331343  10.263  35.380   9.560
 2152POPC   PO431344  10.814  35.660   9.356
 2152POPC   GL131345  10.561  35.401   9.148
 2152POPC   GL231346  10.792  35.134   9.043
 2152POPC   C1A31347  10.258  35.528   8.850
 2152POPC   D2A31348  10.336  35.324   8.442
 2152POPC   C3A31349  10.311  35.532   8.039
 2152POPC   C4A31350  10.377  35.252   7.706
 2152POPC   C1B31351  10.760  35.450   8.683
 2152POPC   C2B31352  10.790  35.536   8.233
 2152POPC   C3B31353  10.829  35.510   7.793
 2152POPC   C4B31354  11.032  35.562   7.369
 2153POPC   NC331355  12.759  40.825   9.566
 2153POPC   PO431356  13.232  40.408   9.607
 2153POPC   GL131357  13.010  40.622   9.180
 2153POPC   GL231358  12.797  40.965   9.079
 2153POPC   C1A31359  12.833  40.591   8.763
 2153POPC   D2A31360  12.833  40.950   8.493
 2153POPC   C3A31361  12.847  40.815   8.080
 2153POPC   C4A31362  12.831  40.443   7.834
 2153POPC   C1B31363  12.418  41.019   8.756
 2153POPC   C2B31364  12.386  41.074   8.271
 2153POPC   C3B31365  12.459  41.104   7.800
 2153POPC   C4B31366  12.403  41.072   7.311
 2154POPC   NC331367  33.437  15.082   9.481
 2154POPC   PO431368  32.913  15.527   9.440
 2154POPC   GL131369  33.133  15.339   9.113
 2154POPC   GL231370  32.930  15.062   9.187
 2154POPC   C1A31371  33.216  15.322   8.657
 2154POPC   D2A31372  33.245  15.460   8.234
 2154POPC   C3A31373  32.928  15.496   7.948
 2154POPC   C4A31374  32.856  15.159   7.718
 2154POPC   C1B31375  33.154  14.857   8.884
 2154POPC   C2B31376  33.184  14.809   8.459
 2154POPC   C3B31377  33.170  14.979   8.069
 2154POPC   C4B31378  33.309  14.937   7.660
 2155POPC   NC331379  36.390  30.009   9.546
 2155POPC   PO431380  35.889  29.560   9.537
 2155POPC   GL131381  35.989  29.854   9.227
 2155POPC   GL231382  36.351  29.783   9.110
 2155POPC   C1A31383  35.869  30.121   8.887
 2155POPC   D2A31384  35.982  30.044   8.461
 2155POPC   C3A31385  35.880  30.211   8.070
 2155POPC   C4A31386  35.974  29.934   7.703
 2155POPC   C1B31387  36.391  30.104   8.804
 2155POPC   C2B31388  36.491  30.080   8.366
 2155POPC   C3B31389  36.388  29.975   7.983
 2155POPC   C4B31390  36.452  30.196   7.603
 2156POPC   NC331391   8.859  20.441   9.586
 2156POPC   PO431392   9.149  21.041   9.446
 2156POPC   GL131393   8.956  20.832   9.095
 2156POPC   GL231394   8.792  20.509   9.088
 2156POPC   C1A31395   9.037  20.767   8.665
 2156POPC   D2A31396   8.861  20.830   8.260
 2156POPC   C3A31397   9.139  20.699   7.938
 2156POPC   C4A31398   9.060  20.629   7.499
 2156POPC   C1B31399   8.558  20.216   8.829
 2156POPC   C2B31400   8.710  20.072   8.398
 2156POPC   C3B31401   8.776  20.329   7.995
 2156POPC   C4B31402   8.655  20.317   7.520
 2157POPC   NC331403  17.398  12.556   9.851
 2157POPC   PO431404  17.385  13.053   9.398
 2157POPC   GL131405  17.603  12.720   9.178
 2157POPC   GL231406  17.366  12.529   8.967
 2157POPC   C1A31407  17.835  12.538   8.821
 2157POPC   D2A31408  17.830  12.711   8.389
 2157POPC   C3A31409  17.903  12.510   8.006
 2157POPC   C4A31410  17.854  12.853   7.749
 2157POPC   C1B31411  17.454  12.903   8.698
 2157POPC   C2B31412  17.445  13.139   8.281
 2157POPC   C3B31413  17.390  12.995   7.854
 2157POPC   C4B31414  17.444  12.545   7.785
 2158POPC   NC331415  15.411  42.350   9.685
 2158POPC   PO431416  14.770  41.998   9.619
 2158POPC   GL131417  14.923  42.128   9.191
 2158POPC   GL231418  15.268  42.261   9.195
 2158POPC   C1A31419  14.952  42.173   8.719
 2158POPC   D2A31420  15.192  41.914   8.437
 2158POPC   C3A31421  15.295  42.095   8.055
 2158POPC   C4A31422  15.068  41.959   7.712
 2158POPC   C1B31423  15.455  42.225   8.794
 2158POPC   C2B31424  15.360  42.434   8.438
 2158POPC   C3B31425  15.531  42.582   8.063
 2158POPC   C4B31426  15.319  42.485   7.701
 2159POPC   NC331427  14.747  22.066   9.435
 2159POPC   PO431428  14.146  21.993   9.546
 2159POPC   GL131429  14.315  22.193   9.179
 2159POPC   GL231430  14.352  21.854   9.085
 2159POPC   C1A31431  14.171  22.321   8.745
 2159POPC   D2A31432  14.450  22.373   8.347
 2159POPC   C3A31433  14.302  22.357   7.903
 2159POPC   C4A31434  14.383  22.199   7.494
 2159POPC   C1B31435  14.550  21.989   8.724
 2159POPC   C2B31436  14.530  21.853   8.315
 2159POPC   C3B31437  14.394  21.842   7.892
 2159POPC   C4B31438  14.783  21.982   7.710
 2160POPC   NC331439  29.651  30.996   9.711
 2160POPC   PO431440  30.171  30.509   9.645
 2160POPC   GL131441  29.820  30.640   9.338
 2160POPC   GL231442  29.509  30.404   9.335
 2160POPC   C1A31443  29.833  30.850   8.911
 2160POPC   D2A31444  30.086  30.698   8.538
 2160POPC   C3A31445  30.053  30.793   8.094
 2160POPC   C4A31446  30.211  30.530   7.771
 2160POPC   C1B31447  29.469  30.442   8.868
 2160POPC   C2B31448  29.559  30.698   8.490
 2160POPC   C3B31449  29.598  30.565   8.081
 2160POPC   C4B31450  29.676  30.800   7.723
 2161POPC   NC331451  14.882   2.948   9.369
 2161POPC   PO431452  14.952   2.283   9.505
 2161POPC   GL131453  15.029   2.400   9.106
 2161POPC   GL231454  14.680   2.570   9.084
 2161POPC   C1A31455  15.333   2.621   8.776
 2161POPC   D2A31456  15.184   2.915   8.404
 2161POPC   C3A31457  15.355   2.892   7.977
 2161POPC   C4A31458  15.312   2.611   7.620
 2161POPC   C1B31459  14.843   2.629   8.702
 2161POPC   C2B31460  15.022   2.384   8.414
 2161POPC   C3B31461  14.970   2.537   8.034
 2161POPC   C4B31462  14.867   2.862   7.758
 2162POPC   NC331463  16.558  25.597   9.551
 2162POPC   PO431464  16.701  24.917   9.554
 2162POPC   GL131465  16.731  25.194   9.216
 2162POPC   GL231466  16.431  25.341   9.120
 2162POPC   C1A31467  16.944  25.371   8.863
 2162POPC   D2A31468  16.816  25.431   8.442
 2162POPC   C3A31469  16.986  25.279   8.079
 2162POPC   C4A31470  16.930  25.480   7.746
 2162POPC   C1B31471  16.516  25.105   8.734
 2162POPC   C2B31472  16.608  24.984   8.281
 2162POPC   C3B31473  16.618  25.060   7.804
 2162POPC   C4B31474  16.404  25.141   7.406
 2163POPC   NC331475  24.782  11.527   9.575
 2163POPC   PO431476  24.340  11.011   9.449
 2163POPC   GL131477  24.305  11.226   9.090
 2163POPC   GL231478  24.614  11.341   9.132
 2163POPC   C1A31479  24.266  11.411   8.692
 2163POPC   D2A31480  24.329  11.757   8.431
 2163POPC   C3A31481  24.181  11.599   8.076
 2163POPC   C4A31482  24.192  11.570   7.671
 2163POPC   C1B31483  24.754  11.233   8.742
 2163POPC   C2B31484  24.626  11.344   8.335
 2163POPC   C3B31485  24.555  11.267   7.935
 2163POPC   C4B31486  24.774  11.377   7.607
 2164POPC   NC331487   1.355   8.999   9.456
 2164POPC   PO431488   0.839   8.784   9.504
 2164POPC   GL131489   1.020   8.679   9.119
 2164POPC   GL231490   1.383   8.632   9.119
 2164POPC   C1A31491   0.991   8.800   8.696
 2164POPC   D2A31492   0.983   8.522   8.335
 2164POPC   C3A31493   1.041   8.703   7.944
 2164POPC   C4A31494   1.078   8.941   7.561
 2164POPC   C1B31495   1.487   8.930   8.792
 2164POPC   C2B31496   1.365   8.908   8.353
 2164POPC   C3B31497   1.307   9.147   7.986
 2164POPC   C4B31498   1.523   9.215   7.620
 2165POPC   NC331499  42.803  44.917   9.793
 2165POPC   PO431500  43.304  44.583   9.537
 2165POPC   GL131501  43.003  44.649   9.250
 2165POPC   GL231502  43.159  44.970   9.219
 2165POPC   C1A31503  43.054  44.537   8.811
 2165POPC   D2A31504  43.306  44.389   8.442
 2165POPC   C3A31505  43.047  44.397   8.073
 2165POPC   C4A31506  42.715  44.498   7.807
 2165POPC   C1B31507  43.254   0.112   8.829
 2165POPC   C2B31508  43.191  44.911   8.437
 2165POPC   C3B31509  43.167   0.058   8.033
 2165POPC   C4B31510  43.080  44.836   7.672
 2166POPC   NC331511  24.615  25.485   9.693
 2166POPC   PO431512  24.790  24.905   9.430
 2166POPC   GL131513  24.655  25.236   9.152
 2166POPC   GL231514  24.433  25.534   9.092
 2166POPC   C1A31515  24.590  25.199   8.712
 2166POPC   D2A31516  24.654  25.386   8.312
 2166POPC   C3A31517  24.563  25.100   7.987
 2166POPC   C4A31518  24.202  24.948   7.809
 2166POPC   C1B31519  24.430  25.692   8.687
 2166POPC   C2B31520  24.773  25.865   8.447
 2166POPC   C3B31521  24.785  25.850   8.032
 2166POPC   C4B31522  24.491  25.647   7.791
 2167POPC   NC331523  41.789  28.602   9.580
 2167POPC   PO431524  41.172  28.662   9.674
 2167POPC   GL131525  41.395  28.552   9.234
 2167POPC   GL231526  41.622  28.252   9.230
 2167POPC   C1A31527  41.441  28.567   8.753
 2167POPC   D2A31528  41.271  28.404   8.350
 2167POPC   C3A31529  41.448  28.401   7.949
 2167POPC   C4A31530  41.551  28.053   7.673
 2167POPC   C1B31531  41.863  28.342   8.862
 2167POPC   C2B31532  41.841  28.432   8.408
 2167POPC   C3B31533  41.963  28.390   7.963
 2167POPC   C4B31534  41.780  28.548   7.605
 2168POPC   NC331535   5.198  41.746   9.590
 2168POPC   PO431536   5.237  41.091   9.622
 2168POPC   GL131537   5.171  41.381   9.216
 2168POPC   GL231538   4.846  41.565   9.144
 2168POPC   C1A31539   5.189  41.541   8.768
 2168POPC   D2A31540   5.454  41.412   8.489
 2168POPC   C3A31541   5.361  41.561   8.109
 2168POPC   C4A31542   5.207  41.382   7.790
 2168POPC   C1B31543   4.693  41.495   8.688
 2168POPC   C2B31544   4.832  41.727   8.353
 2168POPC   C3B31545   4.821  41.654   7.935
 2168POPC   C4B31546   4.730  41.469   7.540
 2169POPC   NC331547   0.694  36.598   9.386
 2169POPC   PO431548   1.327  36.969   9.508
 2169POPC   GL131549   1.374  37.211   9.140
 2169POPC   GL231550   1.690  37.128   8.969
 2169POPC   C1A31551   1.139  37.263   8.751
 2169POPC   D2A31552   0.878  37.285   8.379
 2169POPC   C3A31553   1.097  37.279   8.015
 2169POPC   C4A31554   1.139  36.871   7.826
 2169POPC   C1B31555   1.370  36.809   8.811
 2169POPC   C2B31556   1.181  36.814   8.389
 2169POPC   C3B31557   1.484  36.629   8.111
 2169POPC   C4B31558   1.587  36.684   7.695
 2170POPC   NC331559  27.785  33.188   9.648
 2170POPC   PO431560  27.275  33.207   9.210
 2170POPC   GL131561  27.650  33.027   9.070
 2170POPC   GL231562  27.866  33.275   9.151
 2170POPC   C1A31563  27.706  32.859   8.645
 2170POPC   D2A31564  27.325  32.792   8.381
 2170POPC   C3A31565  27.143  33.200   8.259
 2170POPC   C4A31566  27.320  33.356   7.851
 2170POPC   C1B31567  27.717  33.411   8.717
 2170POPC   C2B31568  27.645  33.347   8.257
 2170POPC   C3B31569  27.771  33.045   7.897
 2170POPC   C4B31570  27.819  32.739   7.518
 2171POPC   NC331571  20.857  17.000   9.634
 2171POPC   PO431572  20.299  16.610   9.612
 2171POPC   GL131573  20.489  16.599   9.223
 2171POPC   GL231574  20.829  16.650   9.201
 2171POPC   C1A31575  20.357  16.373   8.876
 2171POPC   D2A31576  20.193  16.407   8.475
 2171POPC   C3A31577  20.355  16.567   8.107
 2171POPC   C4A31578  20.575  16.787   7.778
 2171POPC   C1B31579  20.746  16.681   8.739
 2171POPC   C2B31580  20.732  16.839   8.317
 2171POPC   C3B31581  21.038  16.749   7.989
 2171POPC   C4B31582  21.060  16.663   7.553
 2172POPC   NC331583  35.022  39.535   9.447
 2172POPC   PO431584  35.354  40.028   9.750
 2172POPC   GL131585  35.225  39.944   9.234
 2172POPC   GL231586  35.505  39.776   9.077
 2172POPC   C1A31587  35.243  40.136   8.750
 2172POPC   D2A31588  35.064  40.160   8.289
 2172POPC   C3A31589  35.446  40.125   7.973
 2172POPC   C4A31590  35.488  40.138   7.446
 2172POPC   C1B31591  35.172  39.633   8.809
 2172POPC   C2B31592  35.261  39.687   8.394
 2172POPC   C3B31593  35.077  39.694   8.005
 2172POPC   C4B31594  35.340  39.728   7.671
 2173POPC   NC331595  42.660   4.004   9.708
 2173POPC   PO431596  43.198   4.361   9.501
 2173POPC   GL131597  43.152   4.338   9.092
 2173POPC   GL231598  43.094   4.687   9.090
 2173POPC   C1A31599  43.204   4.138   8.684
 2173POPC   D2A31600  42.958   4.063   8.323
 2173POPC   C3A31601  43.124   4.062   7.903
 2173POPC   C4A31602  42.935   4.008   7.477
 2173POPC   C1B31603  42.951   4.602   8.674
 2173POPC   C2B31604  43.167   4.510   8.283
 2173POPC   C3B31605  43.080   4.598   7.856
 2173POPC   C4B31606  42.962   4.502   7.441
 2174POPC   NC331607  28.703   8.049   9.530
 2174POPC   PO431608  28.074   8.453   9.488
 2174POPC   GL131609  28.174   8.142   9.222
 2174POPC   GL231610  28.501   8.227   9.081
 2174POPC   C1A31611  28.128   7.978   8.820
 2174POPC   D2A31612  28.349   8.125   8.462
 2174POPC   C3A31613  28.142   7.965   8.102
 2174POPC   C4A31614  28.350   7.936   7.731
 2174POPC   C1B31615  28.257   8.513   8.823
 2174POPC   C2B31616  28.259   8.646   8.391
 2174POPC   C3B31617  28.364   8.430   8.020
 2174POPC   C4B31618  28.412   8.425   7.597
 2175POPC   NC331619  21.810  23.689   9.422
 2175POPC   PO431620  22.465  23.910   9.463
 2175POPC   GL131621  22.316  23.966   9.047
 2175POPC   GL231622  21.969  23.908   9.001
 2175POPC   C1A31623  22.381  23.665   8.694
 2175POPC   D2A31624  22.238  23.405   8.360
 2175POPC   C3A31625  22.483  23.473   7.998
 2175POPC   C4A31626  22.412  23.695   7.649
 2175POPC   C1B31627  22.110  24.096   8.612
 2175POPC   C2B31628  21.939  23.816   8.369
 2175POPC   C3B31629  21.974  23.636   7.981
 2175POPC   C4B31630  21.893  23.671   7.570
 2176POPC   NC331631   7.614   6.899   9.527
 2176POPC   PO431632   7.008   6.577   9.535
 2176POPC   GL131633   7.290   6.668   9.145
 2176POPC   GL231634   7.578   6.882   9.016
 2176POPC   C1A31635   7.163   6.641   8.678
 2176POPC   D2A31636   7.006   6.715   8.218
 2176POPC   C3A31637   7.237   6.851   7.825
 2176POPC   C4A31638   7.243   6.551   7.472
 2176POPC   C1B31639   7.621   6.941   8.563
 2176POPC   C2B31640   7.532   6.684   8.199
 2176POPC   C3B31641   7.699   6.622   7.763
 2176POPC   C4B31642   8.068   6.771   7.467
 2177POPC   NC331643  36.558  36.083   9.328
 2177POPC   PO431644  37.162  35.746   9.348
 2177POPC   GL131645  36.984  35.911   8.978
 2177POPC   GL231646  36.636  35.905   8.863
 2177POPC   C1A31647  37.018  35.994   8.530
 2177POPC   D2A31648  37.142  36.336   8.276
 2177POPC   C3A31649  37.009  36.337   7.845
 2177POPC   C4A31650  36.996  36.008   7.520
 2177POPC   C1B31651  36.754  36.339   8.770
 2177POPC   C2B31652  36.650  36.348   8.386
 2177POPC   C3B31653  36.464  36.118   8.101
 2177POPC   C4B31654  36.545  36.159   7.684
 2178POPC   NC331655   1.552  40.556   9.301
 2178POPC   PO431656   2.093  40.888   9.308
 2178POPC   GL131657   2.030  40.546   9.042
 2178POPC   GL231658   2.389  40.468   8.964
 2178POPC   C1A31659   1.805  40.579   8.644
 2178POPC   D2A31660   1.943  40.741   8.249
 2178POPC   C3A31661   1.698  40.679   7.887
 2178POPC   C4A31662   1.452  40.799   7.523
 2178POPC   C1B31663   2.276  40.845   8.686
 2178POPC   C2B31664   2.206  41.166   8.376
 2178POPC   C3B31665   2.278  41.016   7.950
 2178POPC   C4B31666   2.180  40.575   7.781
 2179POPC   NC331667  40.530  40.478   9.571
 2179POPC   PO431668  40.962  41.042   9.581
 2179POPC   GL131669  40.943  40.804   9.228
 2179POPC   GL231670  40.629  40.734   9.153
 2179POPC   C1A31671  41.038  40.885   8.837
 2179POPC   D2A31672  40.830  40.941   8.491
 2179POPC   C3A31673  40.919  40.709   8.123
 2179POPC   C4A31674  40.989  40.951   7.769
 2179POPC   C1B31675  40.723  40.490   8.786
 2179POPC   C2B31676  40.531  40.544   8.419
 2179POPC   C3B31677  40.419  40.484   8.057
 2179POPC   C4B31678  40.566  40.678   7.749
 2180POPC   NC331679   9.411   4.948   9.542
 2180POPC   PO431680   9.902   4.759   9.455
 2180POPC   GL131681   9.692   4.981   9.100
 2180POPC   GL231682   9.627   5.353   9.041
 2180POPC   C1A31683   9.774   5.023   8.665
 2180POPC   D2A31684   9.952   4.835   8.319
 2180POPC   C3A31685   9.697   4.881   7.969
 2180POPC   C4A31686   9.876   5.050   7.616
 2180POPC   C1B31687   9.875   5.518   8.672
 2180POPC   C2B31688   9.812   5.341   8.236
 2180POPC   C3B31689   9.545   5.370   7.852
 2180POPC   C4B31690   9.567   5.400   7.381
 2181POPC   NC331691   5.192  34.955   9.545
 2181POPC   PO431692   4.896  35.581   9.441
 2181POPC   GL131693   5.050  35.294   9.145
 2181POPC   GL231694   4.779  35.053   9.139
 2181POPC   C1A31695   5.200  35.463   8.752
 2181POPC   D2A31696   5.166  35.279   8.349
 2181POPC   C3A31697   5.245  35.552   8.026
 2181POPC   C4A31698   5.244  35.286   7.708
 2181POPC   C1B31699   4.779  35.192   8.705
 2181POPC   C2B31700   4.559  35.231   8.329
 2181POPC   C3B31701   4.783  35.331   7.970
 2181POPC   C4B31702   4.779  35.102   7.646
 2182POPC   NC331703  25.550  12.607   9.020
 2182POPC   PO431704  25.074  12.817   9.458
 2182POPC   GL131705  25.219  13.024   9.071
 2182POPC   GL231706  24.908  12.927   8.981
 2182POPC   C1A31707  25.301  12.967   8.589
 2182POPC   D2A31708  25.217  12.596   8.312
 2182POPC   C3A31709  25.090  12.631   7.874
 2182POPC   C4A31710  25.399  12.780   7.560
 2182POPC   C1B31711  24.859  13.204   8.676
 2182POPC   C2B31712  25.070  13.306   8.305
 2182POPC   C3B31713  25.231  13.120   7.938
 2182POPC   C4B31714  25.101  13.182   7.491
 2183POPC   NC331715   9.140  23.078   9.492
 2183POPC   PO431716   9.650  23.287   9.243
 2183POPC   GL131717   9.251  22.957   9.020
 2183POPC   GL231718   8.998  22.662   9.189
 2183POPC   C1A31719   8.811  22.945   8.788
 2183POPC   D2A31720   8.523  22.773   8.461
 2183POPC   C3A31721   8.598  22.917   8.053
 2183POPC   C4A31722   8.904  22.876   7.764
 2183POPC   C1B31723   9.018  22.489   8.749
 2183POPC   C2B31724   8.993  22.624   8.296
 2183POPC   C3B31725   9.234  22.495   7.891
 2183POPC   C4B31726   9.290  22.732   7.453
 2184POPC   NC331727  18.543  27.171   9.446
 2184POPC   PO431728  18.118  26.697   9.443
 2184POPC   GL131729  18.284  26.670   9.034
 2184POPC   GL231730  18.486  26.381   9.018
 2184POPC   C1A31731  18.510  26.895   8.712
 2184POPC   D2A31732  18.359  27.063   8.334
 2184POPC   C3A31733  18.596  27.093   7.932
 2184POPC   C4A31734  18.362  27.059   7.535
 2184POPC   C1B31735  18.695  26.412   8.612
 2184POPC   C2B31736  18.649  26.651   8.248
 2184POPC   C3B31737  18.425  26.627   7.854
 2184POPC   C4B31738  18.481  26.589   7.386
 2185POPC   NC331739  13.728  33.869   9.818
 2185POPC   PO431740  13.330  34.246   9.355
 2185POPC   GL131741  13.335  33.985   9.038
 2185POPC   GL231742  13.569  33.723   9.058
 2185POPC   C1A31743  13.555  34.010   8.652
 2185POPC   D2A31744  13.507  33.761   8.319
 2185POPC   C3A31745  13.577  33.997   7.956
 2185POPC   C4A31746  13.577  34.255   7.604
 2185POPC   C1B31747  13.948  33.704   8.764
 2185POPC   C2B31748  14.034  33.620   8.328
 2185POPC   C3B31749  14.051  33.847   7.935
 2185POPC   C4B31750  14.005  33.719   7.525
 2186POPC   NC331751  35.524  22.269   9.515
 2186POPC   PO431752  35.089  21.797   9.593
 2186POPC   GL131753  35.175  22.055   9.205
 2186POPC   GL231754  35.531  22.041   9.060
 2186POPC   C1A31755  35.135  22.185   8.785
 2186POPC   D2A31756  35.214  22.038   8.429
 2186POPC   C3A31757  35.035  22.212   8.064
 2186POPC   C4A31758  35.274  22.400   7.741
 2186POPC   C1B31759  35.713  22.153   8.657
 2186POPC   C2B31760  35.551  22.388   8.277
 2186POPC   C3B31761  35.766  22.451   7.939
 2186POPC   C4B31762  35.746  22.110   7.747
 2187POPC   NC331763   3.380   2.496   9.427
 2187POPC   PO431764   3.664   3.057   9.448
 2187POPC   GL131765   3.809   2.743   9.195
 2187POPC   GL231766   3.504   2.764   9.001
 2187POPC   C1A31767   3.970   2.758   8.788
 2187POPC   D2A31768   3.715   2.744   8.415
 2187POPC   C3A31769   3.897   2.707   8.007
 2187POPC   C4A31770   3.739   2.725   7.567
 2187POPC   C1B31771   3.404   2.447   8.706
 2187POPC   C2B31772   3.266   2.474   8.276
 2187POPC   C3B31773   3.330   2.567   7.837
 2187POPC   C4B31774   3.296   2.310   7.476
 2188POPC   NC331775  15.836  10.605   9.586
 2188POPC   PO431776  16.473  10.343   9.732
 2188POPC   GL131777  16.265  10.396   9.264
 2188POPC   GL231778  15.881  10.310   9.167
 2188POPC   C1A31779  16.163  10.536   8.813
 2188POPC   D2A31780  15.999  10.352   8.414
 2188POPC   C3A31781  16.194  10.477   8.070
 2188POPC   C4A31782  16.161  10.588   7.662
 2188POPC   C1B31783  15.639  10.360   8.773
 2188POPC   C2B31784  15.578  10.611   8.367
 2188POPC   C3B31785  15.633  10.507   7.940
 2188POPC   C4B31786  15.690  10.707   7.551
 2189POPC   NC331787  36.770  31.153   9.298
 2189POPC   PO431788  37.364  31.361   9.523
 2189POPC   GL131789  37.216  31.541   9.150
 2189POPC   GL231790  36.956  31.820   9.222
 2189POPC   C1A31791  37.107  31.352   8.752
 2189POPC   D2A31792  37.093  31.181   8.354
 2189POPC   C3A31793  36.898  31.333   8.019
 2189POPC   C4A31794  36.952  31.173   7.654
 2189POPC   C1B31795  37.082  31.878   8.786
 2189POPC   C2B31796  36.989  31.693   8.385
 2189POPC   C3B31797  36.981  31.819   7.946
 2189POPC   C4B31798  37.153  31.625   7.568
 2190POPC   NC331799  13.957  23.396   9.459
 2190POPC   PO431800  13.278  23.450   9.437
 2190POPC   GL131801  13.464  23.762   9.166
 2190POPC   GL231802  13.791  23.886   9.242
 2190POPC   C1A31803  13.367  23.865   8.757
 2190POPC   D2A31804  13.541  23.675   8.395
 2190POPC   C3A31805  13.417  23.751   7.991
 2190POPC   C4A31806  13.654  24.023   7.703
 2190POPC   C1B31807  13.802  23.574   8.857
 2190POPC   C2B31808  13.810  23.259   8.518
 2190POPC   C3B31809  13.811  23.337   8.053
 2190POPC   C4B31810  13.741  23.526   7.645
 2191POPC   NC331811  26.269  13.906   9.431
 2191POPC   PO431812  25.971  13.244   9.578
 2191POPC   GL131813  26.030  13.443   9.181
 2191POPC   GL231814  25.709  13.516   9.060
 2191POPC   C1A31815  26.148  13.595   8.777
 2191POPC   D2A31816  25.814  13.647   8.482
 2191POPC   C3A31817  25.956  13.689   8.103
 2191POPC   C4A31818  26.183  13.630   7.772
 2191POPC   C1B31819  25.797  13.213   8.695
 2191POPC   C2B31820  25.730  13.069   8.314
 2191POPC   C3B31821  25.850  13.191   7.930
 2191POPC   C4B31822  25.596  13.253   7.608
 2192POPC   NC331823  39.138  30.956   9.590
 2192POPC   PO431824  39.036  30.263   9.510
 2192POPC   GL131825  38.986  30.625   9.210
 2192POPC   GL231826  39.273  30.802   9.116
 2192POPC   C1A31827  38.952  30.731   8.739
 2192POPC   D2A31828  39.172  30.658   8.330
 2192POPC   C3A31829  39.039  30.712   7.889
 2192POPC   C4A31830  39.063  30.741   7.417
 2192POPC   C1B31831  39.488  30.779   8.732
 2192POPC   C2B31832  39.534  31.071   8.395
 2192POPC   C3B31833  39.482  30.935   7.984
 2192POPC   C4B31834  39.585  30.524   7.885
 2193POPC   NC331835  12.903  35.194   9.580
 2193POPC   PO431836  12.758  35.707   9.275
 2193POPC   GL131837  12.647  35.388   9.051
 2193POPC   GL231838  12.612  35.048   9.152
 2193POPC   C1A31839  12.733  35.481   8.653
 2193POPC   D2A31840  13.007  35.618   8.347
 2193POPC   C3A31841  12.889  35.495   7.925
 2193POPC   C4A31842  12.700  35.218   7.625
 2193POPC   C1B31843  12.839  34.992   8.760
 2193POPC   C2B31844  12.732  35.102   8.319
 2193POPC   C3B31845  12.996  35.005   8.003
 2193POPC   C4B31846  13.142  34.898   7.655
 2194POPC   NC331847  16.482  28.053   9.433
 2194POPC   PO431848  16.931  28.521   9.396
 2194POPC   GL131849  16.670  28.409   9.048
 2194POPC   GL231850  16.353  28.510   9.230
 2194POPC   C1A31851  16.871  28.419   8.624
 2194POPC   D2A31852  17.053  28.174   8.278
 2194POPC   C3A31853  16.858  28.399   7.895
 2194POPC   C4A31854  16.917  28.625   7.524
 2194POPC   C1B31855  16.229  28.620   8.811
 2194POPC   C2B31856  16.441  28.666   8.416
 2194POPC   C3B31857  16.395  28.615   7.979
 2194POPC   C4B31858  16.406  28.653   7.538
 2195POPC   NC331859  10.141  11.854   9.462
 2195POPC   PO431860   9.558  12.079   9.500
 2195POPC   GL131861   9.701  12.105   9.122
 2195POPC   GL231862  10.043  12.150   9.075
 2195POPC   C1A31863   9.616  12.245   8.755
 2195POPC   D2A31864   9.585  11.935   8.447
 2195POPC   C3A31865   9.773  12.067   8.126
 2195POPC   C4A31866   9.780  11.946   7.727
 2195POPC   C1B31867  10.057  12.013   8.662
 2195POPC   C2B31868  10.245  12.175   8.318
 2195POPC   C3B31869  10.225  12.116   7.898
 2195POPC   C4B31870  10.120  12.286   7.517
 2196POPC   NC331871   0.671   3.044   9.488
 2196POPC   PO431872   0.349   2.380   9.476
 2196POPC   GL131873   0.430   2.629   9.072
 2196POPC   GL231874   0.601   2.906   9.014
 2196POPC   C1A31875   0.215   2.899   8.709
 2196POPC   D2A31876   0.424   3.063   8.345
 2196POPC   C3A31877   0.496   2.770   7.983
 2196POPC   C4A31878   0.451   2.799   7.536
 2196POPC   C1B31879   0.767   2.792   8.639
 2196POPC   C2B31880   0.940   2.965   8.311
 2196POPC   C3B31881   0.823   3.150   8.017
 2196POPC   C4B31882   0.915   3.001   7.658
 2197POPC   NC331883  20.629  12.912   9.505
 2197POPC   PO431884  20.067  13.152   9.547
 2197POPC   GL131885  20.306  13.108   9.136
 2197POPC   GL231886  20.442  12.761   9.059
 2197POPC   C1A31887  20.473  13.128   8.707
 2197POPC   D2A31888  20.536  12.888   8.321
 2197POPC   C3A31889  20.685  13.154   7.950
 2197POPC   C4A31890  20.753  13.074   7.486
 2197POPC   C1B31891  20.815  12.706   8.770
 2197POPC   C2B31892  20.988  12.559   8.339
 2197POPC   C3B31893  20.780  12.640   7.915
 2197POPC   C4B31894  20.846  12.573   7.447
 2198POPC   NC331895  44.765  39.670   9.470
 2198POPC   PO431896  44.687  38.964   9.600
 2198POPC   GL131897  44.634  39.216   9.220
 2198POPC   GL231898  44.926  39.343   9.135
 2198POPC   C1A31899  44.517  39.190   8.766
 2198POPC   D2A31900  44.414  38.910   8.407
 2198POPC   C3A31901  44.485  39.112   7.974
 2198POPC   C4A31902  44.294  38.987   7.560
 2198POPC   C1B31903  44.878  39.541   8.738
 2198POPC   C2B31904  44.581  39.623   8.427
 2198POPC   C3B31905  44.760  39.571   8.036
 2198POPC   C4B31906  44.815  39.392   7.629
 2199POPC   NC331907  12.115  36.676   9.568
 2199POPC   PO431908  11.463  36.892   9.451
 2199POPC   GL131909  11.873  37.001   9.246
 2199POPC   GL231910  12.204  36.826   9.114
 2199POPC   C1A31911  11.897  37.083   8.805
 2199POPC   D2A31912  12.023  36.919   8.408
 2199POPC   C3A31913  11.999  37.162   8.067
 2199POPC   C4A31914  11.799  36.953   7.767
 2199POPC   C1B31915  12.387  36.892   8.753
 2199POPC   C2B31916  12.503  36.753   8.356
 2199POPC   C3B31917  12.281  36.735   7.989
 2199POPC   C4B31918  12.408  36.762   7.604
 2200POPC   NC331919  37.527  28.040   9.521
 2200POPC   PO431920  37.890  28.528   9.683
 2200POPC   GL131921  37.683  28.437   9.252
 2200POPC   GL231922  37.829  28.184   9.061
 2200POPC   C1A31923  37.487  28.497   8.823
 2200POPC   D2A31924  37.341  28.400   8.395
 2200POPC   C3A31925  37.423  28.181   8.016
 2200POPC   C4A31926  37.543  28.529   7.765
 2200POPC   C1B31927  37.959  28.293   8.650
 2200POPC   C2B31928  37.979  28.130   8.250
 2200POPC   C3B31929  37.906  28.186   7.820
 2200POPC   C4B31930  38.020  28.007   7.442
 2201POPC   NC331931  21.286  43.331   9.395
 2201POPC   PO431932  21.590  42.677   9.403
 2201POPC   GL131933  21.576  42.997   9.078
 2201POPC   GL231934  21.813  43.230   9.254
 2201POPC   C1A31935  21.276  43.202   8.743
 2201POPC   D2A31936  21.140  43.392   8.345
 2201POPC   C3A31937  21.246  43.194   7.994
 2201POPC   C4A31938  21.584  42.929   7.970
 2201POPC   C1B31939  21.805  43.393   8.840
 2201POPC   C2B31940  21.718  43.153   8.483
 2201POPC   C3B31941  21.643  43.421   8.200
 2201POPC   C4B31942  21.690  43.451   7.796
 2202POPC   NC331943  39.884  35.805   9.855
 2202POPC   PO431944  40.187  36.333   9.551
 2202POPC   GL131945  39.970  36.212   9.158
 2202POPC   GL231946  40.108  35.916   8.949
 2202POPC   C1A31947  39.721  36.154   8.771
 2202POPC   D2A31948  39.945  36.022   8.411
 2202POPC   C3A31949  39.843  36.352   8.078
 2202POPC   C4A31950  39.872  36.283   7.635
 2202POPC   C1B31951  40.274  36.240   8.731
 2202POPC   C2B31952  40.395  36.267   8.317
 2202POPC   C3B31953  40.208  36.027   7.980
 2202POPC   C4B31954  40.379  36.218   7.675
 2203POPC   NC331955  21.187  27.109   9.804
 2203POPC   PO431956  21.472  27.648   9.490
 2203POPC   GL131957  21.238  27.439   9.162
 2203POPC   GL231958  21.071  27.754   9.072
 2203POPC   C1A31959  21.146  27.364   8.702
 2203POPC   D2A31960  21.451  27.449   8.344
 2203POPC   C3A31961  21.449  27.505   7.860
 2203POPC   C4A31962  21.533  27.460   7.396
 2203POPC   C1B31963  21.321  28.023   8.779
 2203POPC   C2B31964  21.342  28.206   8.362
 2203POPC   C3B31965  21.104  28.168   8.018
 2203POPC   C4B31966  21.085  27.844   7.753
 2204POPC   NC331967  19.503   6.188   9.449
 2204POPC   PO431968  19.756   5.693   9.586
 2204POPC   GL131969  19.670   5.773   9.122
 2204POPC   GL231970  19.588   6.118   8.960
 2204POPC   C1A31971  19.951   5.823   8.749
 2204POPC   D2A31972  20.167   5.671   8.398
 2204POPC   C3A31973  20.111   5.747   7.976
 2204POPC   C4A31974  19.765   5.622   7.772
 2204POPC   C1B31975  19.462   5.829   8.632
 2204POPC   C2B31976  19.643   5.881   8.220
 2204POPC   C3B31977  19.804   6.148   7.902
 2204POPC   C4B31978  19.665   6.299   7.526
 2205POPC   NC331979   7.456  23.419   9.411
 2205POPC   PO431980   7.528  24.039   9.418
 2205POPC   GL131981   7.336  23.790   9.055
 2205POPC   GL231982   7.113  23.478   9.070
 2205POPC   C1A31983   7.251  23.915   8.617
 2205POPC   D2A31984   7.141  23.954   8.179
 2205POPC   C3A31985   7.293  24.042   7.746
 2205POPC   C4A31986   7.297  23.888   7.297
 2205POPC   C1B31987   7.263  23.416   8.669
 2205POPC   C2B31988   7.270  23.431   8.228
 2205POPC   C3B31989   7.210  23.549   7.818
 2205POPC   C4B31990   7.609  23.641   7.611
 2206POPC   NC331991   5.249  38.612   9.465
 2206POPC   PO431992   4.681  38.237   9.577
 2206POPC   GL131993   4.867  38.350   9.199
 2206POPC   GL231994   4.859  38.691   9.144
 2206POPC   C1A31995   5.061  38.287   8.785
 2206POPC   D2A31996   4.968  38.046   8.408
 2206POPC   C3A31997   4.991  38.290   8.027
 2206POPC   C4A31998   5.237  38.310   7.636
 2206POPC   C1B31999   5.183  38.786   8.825
 2206POPC   C2B32000   5.196  38.642   8.410
 2206POPC   C3B32001   5.240  38.736   8.006
 2206POPC   C4B32002   4.937  38.730   7.683
 2207POPC   NC332003  10.344  39.316   9.772
 2207POPC   PO432004  10.879  39.423   9.447
 2207POPC   GL132005  10.783  39.153   9.131
 2207POPC   GL232006  10.435  39.090   9.123
 2207POPC   C1A32007  10.725  39.277   8.712
 2207POPC   D2A32008  10.948  39.332   8.345
 2207POPC   C3A32009  10.781  39.280   7.934
 2207POPC   C4A32010  10.353  39.382   7.869
 2207POPC   C1B32011  10.225  39.147   8.729
 2207POPC   C2B32012  10.426  39.122   8.340
 2207POPC   C3B32013  10.393  38.899   8.011
 2207POPC   C4B32014  10.117  38.916   7.656
 2208POPC   NC332015   4.098  21.506   9.368
 2208POPC   PO432016   4.498  21.122   9.707
 2208POPC   GL132017   4.471  21.183   9.192
 2208POPC   GL232018   4.182  21.073   9.067
 2208POPC   C1A32019   4.308  21.406   8.745
 2208POPC   D2A32020   4.459  21.711   8.511
 2208POPC   C3A32021   4.400  21.544   8.147
 2208POPC   C4A32022   4.170  21.607   7.819
 2208POPC   C1B32023   3.955  21.031   8.725
 2208POPC   C2B32024   3.876  21.342   8.426
 2208POPC   C3B32025   4.054  21.159   8.077
 2208POPC   C4B32026   4.207  21.120   7.699
 2209POPC   NC332027   9.763  38.701   9.447
 2209POPC   PO432028   9.880  38.006   9.403
 2209POPC   GL132029  10.011  38.306   9.104
 2209POPC   GL232030  10.175  38.639   9.149
 2209POPC   C1A32031   9.667  38.429   8.828
 2209POPC   D2A32032   9.416  38.618   8.504
 2209POPC   C3A32033   9.553  38.550   8.088
 2209POPC   C4A32034   9.420  38.733   7.709
 2209POPC   C1B32035  10.147  38.625   8.729
 2209POPC   C2B32036   9.977  38.364   8.425
 2209POPC   C3B32037  10.064  38.505   8.050
 2209POPC   C4B32038   9.941  38.393   7.672
 2210POPC   NC332039  25.575  26.377   9.590
 2210POPC   PO432040  25.297  26.923   9.609
 2210POPC   GL132041  25.281  26.675   9.202
 2210POPC   GL232042  25.673  26.620   9.108
 2210POPC   C1A32043  24.988  26.813   8.807
 2210POPC   D2A32044  24.807  26.848   8.344
 2210POPC   C3A32045  25.048  26.826   7.948
 2210POPC   C4A32046  25.526  26.940   7.879
 2210POPC   C1B32047  25.409  26.542   8.722
 2210POPC   C2B32048  25.326  26.616   8.308
 2210POPC   C3B32049  25.433  26.434   7.907
 2210POPC   C4B32050  25.257  26.384   7.479
 2211POPC   NC332051  36.342  32.440   9.924
 2211POPC   PO432052  35.871  31.966   9.737
 2211POPC   GL132053  36.089  32.240   9.379
 2211POPC   GL232054  35.884  32.027   9.226
 2211POPC   C1A32055  36.216  32.303   8.901
 2211POPC   D2A32056  36.333  32.408   8.424
 2211POPC   C3A32057  36.210  32.143   8.050
 2211POPC   C4A32058  35.938  32.361   7.775
 2211POPC   C1B32059  35.893  31.898   8.840
 2211POPC   C2B32060  35.930  32.112   8.481
 2211POPC   C3B32061  35.703  31.976   8.146
 2211POPC   C4B32062  35.728  31.876   7.772
 2212POPC   NC332063  15.534  27.888   9.485
 2212POPC   PO432064  15.245  28.530   9.362
 2212POPC   GL132065  15.478  28.446   8.990
 2212POPC   GL232066  15.459  28.102   9.033
 2212POPC   C1A32067  15.359  28.417   8.584
 2212POPC   D2A32068  15.030  28.148   8.522
 2212POPC   C3A32069  15.029  28.017   8.125
 2212POPC   C4A32070  14.897  28.367   7.849
 2212POPC   C1B32071  15.453  27.896   8.667
 2212POPC   C2B32072  15.669  27.933   8.295
 2212POPC   C3B32073  15.502  28.143   7.958
 2212POPC   C4B32074  15.247  27.951   7.656
 2213POPC   NC332075   9.564  32.187   9.733
 2213POPC   PO432076   9.998  32.682   9.935
 2213POPC   GL132077  10.079  32.338   9.497
 2213POPC   GL232078   9.768  32.196   9.287
 2213POPC   C1A32079  10.115  32.350   8.980
 2213POPC   D2A32080   9.952  32.422   8.561
 2213POPC   C3A32081  10.104  32.186   8.184
 2213POPC   C4A32082   9.998  32.253   7.743
 2213POPC   C1B32083   9.583  32.096   8.898
 2213POPC   C2B32084   9.495  32.134   8.458
 2213POPC   C3B32085   9.582  32.209   8.047
 2213POPC   C4B32086   9.485  32.482   7.740
 2214POPC   NC332087  43.635  42.536   9.549
 2214POPC   PO432088  44.091  42.084   9.519
 2214POPC   GL132089  43.942  42.003   9.127
 2214POPC   GL232090  43.731  42.265   9.123
 2214POPC   C1A32091  43.918  42.047   8.694
 2214POPC   D2A32092  43.961  42.346   8.404
 2214POPC   C3A32093  43.792  42.212   8.057
 2214POPC   C4A32094  43.887  42.377   7.671
 2214POPC   C1B32095  43.533  42.446   8.758
 2214POPC   C2B32096  43.485  42.565   8.321
 2214POPC   C3B32097  43.469  42.586   7.882
 2214POPC   C4B32098  43.450  42.610   7.415
 2215POPC   NC332099   3.514   4.251   9.596
 2215POPC   PO432100   3.354   4.853   9.460
 2215POPC   GL132101   3.478   4.548   9.120
 2215POPC   GL232102   3.845   4.424   9.127
 2215POPC   C1A32103   3.526   4.472   8.659
 2215POPC   D2A32104   3.469   4.146   8.341
 2215POPC   C3A32105   3.421   4.127   7.880
 2215POPC   C4A32106   3.609   4.450   7.614
 2215POPC   C1B32107   3.852   4.082   8.791
 2215POPC   C2B32108   3.881   3.827   8.376
 2215POPC   C3B32109   3.921   4.075   7.998
 2215POPC   C4B32110   3.835   4.017   7.564
 2216POPC   NC332111  42.526  16.550   9.602
 2216POPC   PO432112  41.919  16.640   9.470
 2216POPC   GL132113  42.190  16.713   9.167
 2216POPC   GL232114  42.418  16.987   9.187
 2216POPC   C1A32115  42.048  16.767   8.750
 2216POPC   D2A32116  42.224  16.571   8.373
 2216POPC   C3A32117  42.103  16.652   7.955
 2216POPC   C4A32118  42.083  16.794   7.546
 2216POPC   C1B32119  42.561  16.781   8.805
 2216POPC   C2B32120  42.586  16.943   8.402
 2216POPC   C3B32121  42.589  16.773   8.022
 2216POPC   C4B32122  42.576  17.018   7.656
 2217POPC   NC332123  27.783  22.439   9.638
 2217POPC   PO432124  27.414  22.975   9.571
 2217POPC   GL132125  27.561  23.146   9.162
 2217POPC   GL232126  27.245  23.298   9.081
 2217POPC   C1A32127  27.800  22.992   8.792
 2217POPC   D2A32128  27.719  22.611   8.529
 2217POPC   C3A32129  27.574  22.691   8.117
 2217POPC   C4A32130  27.939  22.809   7.841
 2217POPC   C1B32131  27.361  23.180   8.628
 2217POPC   C2B32132  27.620  23.201   8.221
 2217POPC   C3B32133  27.497  23.084   7.777
 2217POPC   C4B32134  27.372  23.257   7.395
 2218POPC   NC332135  44.717  23.097   9.464
 2218POPC   PO432136  44.288  22.635   9.492
 2218POPC   GL132137  44.384  22.809   9.084
 2218POPC   GL232138  44.386  23.183   9.072
 2218POPC   C1A32139  44.451  22.571   8.640
 2218POPC   D2A32140  44.490  22.415   8.201
 2218POPC   C3A32141  44.852  22.572   8.038
 2218POPC   C4A32142   0.005  22.752   7.674
 2218POPC   C1B32143  44.310  23.047   8.653
 2218POPC   C2B32144  44.371  22.911   8.245
 2218POPC   C3B32145  44.577  22.992   7.863
 2218POPC   C4B32146  44.461  23.202   7.498
 2219POPC   NC332147   1.893   8.161   9.539
 2219POPC   PO432148   2.462   8.507   9.490
 2219POPC   GL132149   2.360   8.211   9.101
 2219POPC   GL232150   2.121   7.983   9.128
 2219POPC   C1A32151   2.165   8.072   8.649
 2219POPC   D2A32152   2.231   8.189   8.258
 2219POPC   C3A32153   2.137   8.174   7.870
 2219POPC   C4A32154   1.767   8.372   7.779
 2219POPC   C1B32155   1.780   7.831   8.875
 2219POPC   C2B32156   1.656   8.054   8.513
 2219POPC   C3B32157   1.719   7.991   8.098
 2219POPC   C4B32158   1.603   7.878   7.695
 2220POPC   NC332159  26.850   2.223   9.442
 2220POPC   PO432160  26.973   1.570   9.500
 2220POPC   GL132161  26.749   1.771   9.173
 2220POPC   GL232162  26.997   1.948   9.027
 2220POPC   C1A32163  26.607   1.715   8.731
 2220POPC   D2A32164  26.714   1.541   8.296
 2220POPC   C3A32165  26.666   1.827   7.930
 2220POPC   C4A32166  26.863   2.220   7.980
 2220POPC   C1B32167  27.111   1.607   8.752
 2220POPC   C2B32168  27.223   1.657   8.298
 2220POPC   C3B32169  27.217   1.851   7.880
 2220POPC   C4B32170  27.193   1.705   7.438
 2221POPC   NC332171  15.136  43.690   9.319
 2221POPC   PO432172  15.702  43.720   9.487
 2221POPC   GL132173  15.587  43.953   9.151
 2221POPC   GL232174  15.289  44.128   9.106
 2221POPC   C1A32175  15.475  43.862   8.721
 2221POPC   D2A32176  15.197  43.780   8.392
 2221POPC   C3A32177  15.401  43.862   8.043
 2221POPC   C4A32178  15.573  43.741   7.684
 2221POPC   C1B32179  15.020  44.131   8.767
 2221POPC   C2B32180  14.908  44.226   8.349
 2221POPC   C3B32181  15.001  44.197   7.926
 2221POPC   C4B32182  15.315  44.182   7.646
 2222POPC   NC332183   5.889  16.694   9.438
 2222POPC   PO432184   5.430  17.219   9.457
 2222POPC   GL132185   5.501  16.901   9.133
 2222POPC   GL232186   5.843  16.761   8.956
 2222POPC   C1A32187   5.420  16.714   8.728
 2222POPC   D2A32188   5.710  16.791   8.452
 2222POPC   C3A32189   5.676  16.607   8.065
 2222POPC   C4A32190   5.896  16.542   7.677
 2222POPC   C1B32191   6.152  16.987   8.779
 2222POPC   C2B32192   6.373  17.117   8.450
 2222POPC   C3B32193   6.419  16.946   8.081
 2222POPC   C4B32194   6.230  16.925   7.681
 2223POPC   NC332195  35.126  28.375   9.602
 2223POPC   PO432196  35.165  28.942   9.352
 2223POPC   GL132197  35.187  28.649   9.049
 2223POPC   GL232198  35.337  28.930   8.850
 2223POPC   C1A32199  35.301  28.464   8.662
 2223POPC   D2A32200  35.173  28.663   8.268
 2223POPC   C3A32201  35.150  28.475   7.857
 2223POPC   C4A32202  35.416  28.147   7.692
 2223POPC   C1B32203  35.735  28.790   8.666
 2223POPC   C2B32204  35.770  28.463   8.454
 2223POPC   C3B32205  35.634  28.469   8.055
 2223POPC   C4B32206  35.924  28.690   7.818
 2224POPC   NC332207  11.683  35.627   9.515
 2224POPC   PO432208  12.359  35.392   9.581
 2224POPC   GL132209  12.154  35.284   9.181
 2224POPC   GL232210  11.819  35.335   9.091
 2224POPC   C1A32211  12.194  35.428   8.745
 2224POPC   D2A32212  12.015  35.516   8.328
 2224POPC   C3A32213  12.298  35.311   8.037
 2224POPC   C4A32214  12.197  35.157   7.648
 2224POPC   C1B32215  11.638  35.328   8.668
 2224POPC   C2B32216  11.613  35.047   8.288
 2224POPC   C3B32217  11.749  35.232   7.891
 2224POPC   C4B32218  11.964  35.653   7.810
 2225POPC   NC332219   3.690  13.942   9.488
 2225POPC   PO432220   3.320  13.352   9.517
 2225POPC   GL132221   3.601  13.511   9.203
 2225POPC   GL232222   3.343  13.752   9.151
 2225POPC   C1A32223   3.847  13.633   8.812
 2225POPC   D2A32224   3.940  13.486   8.354
 2225POPC   C3A32225   3.868  13.855   8.086
 2225POPC   C4A32226   3.705  13.981   7.698
 2225POPC   C1B32227   3.356  13.516   8.756
 2225POPC   C2B32228   3.483  13.691   8.388
 2225POPC   C3B32229   3.357  13.729   7.968
 2225POPC   C4B32230   3.044  14.067   7.889
 2226POPC   NC332231   6.495  40.498   9.350
 2226POPC   PO432232   6.885  39.968   9.597
 2226POPC   GL132233   6.761  40.054   9.176
 2226POPC   GL232234   6.743  39.725   9.004
 2226POPC   C1A32235   6.835  40.192   8.772
 2226POPC   D2A32236   6.795  39.928   8.427
 2226POPC   C3A32237   6.919  40.111   8.045
 2226POPC   C4A32238   6.786  39.809   7.722
 2226POPC   C1B32239   6.394  39.905   8.795
 2226POPC   C2B32240   6.284  40.036   8.418
 2226POPC   C3B32241   6.416  39.941   8.037
 2226POPC   C4B32242   6.513  40.231   7.756
 2227POPC   NC332243  32.878  15.872   9.734
 2227POPC   PO432244  33.461  16.209   9.832
 2227POPC   GL132245  33.291  15.876   9.409
 2227POPC   GL232246  32.962  16.001   9.205
 2227POPC   C1A32247  33.307  15.789   8.900
 2227POPC   D2A32248  33.113  15.937   8.488
 2227POPC   C3A32249  33.256  15.935   8.055
 2227POPC   C4A32250  33.041  15.924   7.659
 2227POPC   C1B32251  33.155  16.285   8.860
 2227POPC   C2B32252  33.510  16.272   8.588
 2227POPC   C3B32253  33.510  16.366   8.160
 2227POPC   C4B32254  33.502  16.391   7.732
 2228POPC   NC332255  36.442   9.419   9.370
 2228POPC   PO432256  36.210   9.989   9.513
 2228POPC   GL132257  36.106   9.753   9.166
 2228POPC   GL232258  35.925   9.462   9.272
 2228POPC   C1A32259  36.281   9.750   8.752
 2228POPC   D2A32260  36.059   9.860   8.386
 2228POPC   C3A32261  36.228  10.019   8.037
 2228POPC   C4A32262  36.397   9.875   7.683
 2228POPC   C1B32263  35.954   9.350   8.835
 2228POPC   C2B32264  35.838   9.407   8.407
 2228POPC   C3B32265  35.979   9.551   7.978
 2228POPC   C4B32266  35.904   9.891   7.645
 2229POPC   NC332267  32.614  44.270   9.559
 2229POPC   PO432268  31.942  44.425   9.423
 2229POPC   GL132269  32.145  44.203   9.089
 2229POPC   GL232270  32.328  43.923   9.171
 2229POPC   C1A32271  32.027  43.958   8.738
 2229POPC   D2A32272  32.216  43.756   8.416
 2229POPC   C3A32273  31.973  43.770   8.075
 2229POPC   C4A32274  32.077  43.953   7.718
 2229POPC   C1B32275  32.520  44.068   8.760
 2229POPC   C2B32276  32.713  43.882   8.372
 2229POPC   C3B32277  32.512  43.975   8.000
 2229POPC   C4B32278  32.604  44.149   7.605
 2230POPC   NC332279  40.360   9.812   9.446
 2230POPC   PO432280  40.865   9.428   9.476
 2230POPC   GL132281  40.788   9.333   9.079
 2230POPC   GL232282  40.437   9.322   9.054
 2230POPC   C1A32283  40.911   9.447   8.669
 2230POPC   D2A32284  40.958   9.305   8.252
 2230POPC   C3A32285  40.892   9.606   7.917
 2230POPC   C4A32286  40.837  10.082   7.809
 2230POPC   C1B32287  40.392   9.610   8.748
 2230POPC   C2B32288  40.599   9.761   8.374
 2230POPC   C3B32289  40.436   9.810   7.986
 2230POPC   C4B32290  40.174   9.554   7.805
 2231POPC   NC332291   6.597   7.954   9.511
 2231POPC   PO432292   6.785   8.642   9.615
 2231POPC   GL132293   6.777   8.378   9.227
 2231POPC   GL232294   6.414   8.294   9.146
 2231POPC   C1A32295   6.788   8.216   8.788
 2231POPC   D2A32296   7.024   8.242   8.404
 2231POPC   C3A32297   6.823   8.439   8.074
 2231POPC   C4A32298   6.709   8.221   7.718
 2231POPC   C1B32299   6.294   8.081   8.742
 2231POPC   C2B32300   6.532   8.000   8.338
 2231POPC   C3B32301   6.317   7.993   7.908
 2231POPC   C4B32302   6.236   8.331   7.559
 2232POPC   NC332303  14.093  17.290   9.487
 2232POPC   PO432304  14.631  17.416   9.098
 2232POPC   GL132305  14.239  17.346   9.010
 2232POPC   GL232306  14.081  17.649   9.104
 2232POPC   C1A32307  14.017  17.314   8.664
 2232POPC   D2A32308  13.939  17.184   8.255
 2232POPC   C3A32309  14.291  17.363   7.991
 2232POPC   C4A32310  14.687  17.158   7.820
 2232POPC   C1B32311  13.896  17.808   8.725
 2232POPC   C2B32312  13.962  17.692   8.329
 2232POPC   C3B32313  13.867  17.662   7.951
 2232POPC   C4B32314  14.090  17.741   7.583
 2233POPC   NC332315  15.511  23.781   9.698
 2233POPC   PO432316  16.113  23.973   9.670
 2233POPC   GL132317  16.123  23.895   9.207
 2233POPC   GL232318  15.867  23.610   9.179
 2233POPC   C1A32319  16.188  23.719   8.778
 2233POPC   D2A32320  16.046  23.725   8.361
 2233POPC   C3A32321  16.272  23.751   7.979
 2233POPC   C4A32322  16.010  23.838   7.620
 2233POPC   C1B32323  15.611  23.503   8.789
 2233POPC   C2B32324  15.578  23.495   8.316
 2233POPC   C3B32325  15.854  23.427   7.925
 2233POPC   C4B32326  15.871  23.385   7.453
 2234POPC   NC332327  24.232   1.356   9.910
 2234POPC   PO432328  24.539   1.708   9.379
 2234POPC   GL132329  24.764   1.704   9.022
 2234POPC   GL232330  24.795   2.078   9.044
 2234POPC   C1A32331  24.555   1.609   8.639
 2234POPC   D2A32332  24.362   1.453   8.259
 2234POPC   C3A32333  24.288   1.785   7.939
 2234POPC   C4A32334  24.400   1.812   7.516
 2234POPC   C1B32335  24.784   2.066   8.616
 2234POPC   C2B32336  24.712   1.895   8.198
 2234POPC   C3B32337  24.814   1.991   7.772
 2234POPC   C4B32338  24.937   2.386   7.585
 2235POPC   NC332339   1.641  42.104   9.627
 2235POPC   PO432340   2.150  42.570   9.414
 2235POPC   GL132341   1.931  42.428   9.075
 2235POPC   GL232342   1.884  42.113   9.162
 2235POPC   C1A32343   2.166  42.241   8.736
 2235POPC   D2A32344   2.361  42.343   8.367
 2235POPC   C3A32345   2.267  42.093   8.042
 2235POPC   C4A32346   1.960  42.162   7.763
 2235POPC   C1B32347   1.731  42.008   8.755
 2235POPC   C2B32348   1.821  42.098   8.340
 2235POPC   C3B32349   1.589  41.931   8.019
 2235POPC   C4B32350   1.500  42.060   7.582
 2236POPC   NC332351   2.101   0.843   9.604
 2236POPC   PO432352   2.399   1.431   9.708
 2236POPC   GL132353   2.140   1.232   9.251
 2236POPC   GL232354   2.155   0.947   9.087
 2236POPC   C1A32355   1.785   1.195   8.889
 2236POPC   D2A32356   1.712   0.894   8.534
 2236POPC   C3A32357   1.936   1.004   8.158
 2236POPC   C4A32358   1.934   1.231   7.760
 2236POPC   C1B32359   2.250   0.962   8.656
 2236POPC   C2B32360   2.439   0.893   8.266
 2236POPC   C3B32361   2.315   0.831   7.824
 2236POPC   C4B32362   2.195   0.964   7.393
 2237POPC   NC332363  17.843  29.146   9.432
 2237POPC   PO432364  18.529  29.363   9.472
 2237POPC   GL132365  18.283  29.225   9.115
 2237POPC   GL232366  17.998  29.476   9.104
 2237POPC   C1A32367  18.372  29.002   8.708
 2237POPC   D2A32368  18.298  28.826   8.298
 2237POPC   C3A32369  18.511  29.028   7.937
 2237POPC   C4A32370  18.350  29.227   7.559
 2237POPC   C1B32371  18.003  29.390   8.693
 2237POPC   C2B32372  18.125  29.299   8.330
 2237POPC   C3B32373  18.026  29.147   7.978
 2237POPC   C4B32374  17.871  29.107   7.623
 2238POPC   NC332375  17.965   2.798   9.501
 2238POPC   PO432376  18.595   2.486   9.613
 2238POPC   GL132377  18.272   2.476   9.234
 2238POPC   GL232378  18.242   2.834   9.057
 2238POPC   C1A32379  18.100   2.454   8.781
 2238POPC   D2A32380  18.349   2.630   8.448
 2238POPC   C3A32381  18.298   2.579   8.044
 2238POPC   C4A32382  18.107   2.552   7.688
 2238POPC   C1B32383  18.035   2.990   8.650
 2238POPC   C2B32384  17.976   2.968   8.195
 2238POPC   C3B32385  18.243   3.080   7.854
 2238POPC   C4B32386  18.516   3.139   7.513
 2239POPC   NC332387   2.933  30.510   9.483
 2239POPC   PO432388   2.624  31.155   9.638
 2239POPC   GL132389   2.655  30.817   9.185
 2239POPC   GL232390   2.697  30.508   9.015
 2239POPC   C1A32391   2.667  30.954   8.730
 2239POPC   D2A32392   2.890  31.159   8.396
 2239POPC   C3A32393   2.701  31.024   8.036
 2239POPC   C4A32394   2.931  30.805   7.780
 2239POPC   C1B32395   2.849  30.512   8.568
 2239POPC   C2B32396   2.697  30.509   8.128
 2239POPC   C3B32397   2.825  30.305   7.721
 2239POPC   C4B32398   2.643  30.140   7.325
 2240POPC   NC332399  27.091  14.206   9.387
 2240POPC   PO432400  26.601  14.698   9.372
 2240POPC   GL132401  26.841  14.532   9.096
 2240POPC   GL232402  26.926  14.783   8.967
 2240POPC   C1A32403  26.824  14.251   8.736
 2240POPC   D2A32404  26.628  14.108   8.352
 2240POPC   C3A32405  26.823  14.288   8.015
 2240POPC   C4A32406  26.968  14.249   7.598
 2240POPC   C1B32407  27.237  14.585   8.755
 2240POPC   C2B32408  27.196  14.443   8.359
 2240POPC   C3B32409  27.154  14.662   7.952
 2240POPC   C4B32410  26.771  14.736   7.686
 2241POPC   NC332411  17.038  42.102   9.312
 2241POPC   PO432412  17.569  42.479   9.484
 2241POPC   GL132413  17.375  42.414   9.077
 2241POPC   GL232414  17.217  42.701   8.913
 2241POPC   C1A32415  17.609  42.316   8.707
 2241POPC   D2A32416  17.809  42.450   8.357
 2241POPC   C3A32417  17.574  42.366   7.994
 2241POPC   C4A32418  17.642  42.052   7.700
 2241POPC   C1B32419  17.245  42.556   8.469
 2241POPC   C2B32420  17.291  42.083   8.336
 2241POPC   C3B32421  17.169  41.906   7.941
 2241POPC   C4B32422  17.139  42.292   7.713
 2242POPC   NC332423   3.649   0.220   9.757
 2242POPC   PO432424   3.241   0.621   9.607
 2242POPC   GL132425   3.562   0.510   9.308
 2242POPC   GL232426   3.642   0.180   9.200
 2242POPC   C1A32427   3.702   0.647   8.899
 2242POPC   D2A32428   3.536   0.659   8.473
 2242POPC   C3A32429   3.736   0.791   8.095
 2242POPC   C4A32430   3.569   0.541   7.795
 2242POPC   C1B32431   3.360   0.268   8.812
 2242POPC   C2B32432   3.193   0.144   8.373
 2242POPC   C3B32433   3.326   0.050   7.899
 2242POPC   C4B32434   3.720   0.088   7.621
 2243POPC   NC332435  24.014  28.687   9.390
 2243POPC   PO432436  23.948  29.376   9.488
 2243POPC   GL132437  23.764  29.144   9.102
 2243POPC   GL232438  23.739  28.809   8.986
 2243POPC   C1A32439  23.598  29.192   8.672
 2243POPC   D2A32440  23.837  29.491   8.429
 2243POPC   C3A32441  23.799  29.507   8.019
 2243POPC   C4A32442  23.510  29.248   7.736
 2243POPC   C1B32443  24.052  28.791   8.733
 2243POPC   C2B32444  24.031  29.019   8.435
 2243POPC   C3B32445  23.747  29.020   8.128
 2243POPC   C4B32446  23.818  28.825   7.746
 2244POPC   NC332447   3.759  15.771   9.450
 2244POPC   PO432448   3.128  16.077   9.431
 2244POPC   GL132449   3.356  15.813   9.136
 2244POPC   GL232450   3.567  16.099   9.095
 2244POPC   C1A32451   3.549  15.635   8.742
 2244POPC   D2A32452   3.632  15.758   8.300
 2244POPC   C3A32453   3.328  15.722   7.959
 2244POPC   C4A32454   3.204  16.028   7.672
 2244POPC   C1B32455   3.696  16.115   8.697
 2244POPC   C2B32456   3.687  16.297   8.324
 2244POPC   C3B32457   3.642  16.184   7.896
 2244POPC   C4B32458   3.966  16.260   7.591
 2245POPC   NC332459  28.366  12.236   9.356
 2245POPC   PO432460  28.362  11.610   9.502
 2245POPC   GL132461  28.504  11.685   9.140
 2245POPC   GL232462  28.172  11.802   9.034
 2245POPC   C1A32463  28.624  11.741   8.749
 2245POPC   D2A32464  28.332  11.801   8.377
 2245POPC   C3A32465  28.441  11.916   7.951
 2245POPC   C4A32466  28.529  12.279   7.657
 2245POPC   C1B32467  28.298  12.150   8.730
 2245POPC   C2B32468  28.413  12.310   8.310
 2245POPC   C3B32469  28.147  12.373   7.965
 2245POPC   C4B32470  27.845  12.360   7.653
 2246POPC   NC332471  30.412  22.604   9.423
 2246POPC   PO432472  30.410  23.206   9.591
 2246POPC   GL132473  30.548  23.022   9.140
 2246POPC   GL232474  30.475  22.685   8.946
 2246POPC   C1A32475  30.478  23.103   8.680
 2246POPC   D2A32476  30.815  23.096   8.390
 2246POPC   C3A32477  30.722  23.183   7.969
 2246POPC   C4A32478  30.425  23.088   7.649
 2246POPC   C1B32479  30.640  22.628   8.538
 2246POPC   C2B32480  30.499  22.758   8.138
 2246POPC   C3B32481  30.736  22.689   7.745
 2246POPC   C4B32482  30.847  22.751   7.292
 2247POPC   NC332483  36.401   8.867   9.758
 2247POPC   PO432484  35.798   9.084   9.612
 2247POPC   GL132485  35.885   8.934   9.216
 2247POPC   GL232486  36.195   9.018   9.183
 2247POPC   C1A32487  35.957   8.826   8.774
 2247POPC   D2A32488  36.213   8.826   8.400
 2247POPC   C3A32489  36.031   9.035   8.074
 2247POPC   C4A32490  36.077   8.861   7.687
 2247POPC   C1B32491  36.404   9.085   8.797
 2247POPC   C2B32492  36.367   9.343   8.442
 2247POPC   C3B32493  36.503   9.258   8.053
 2247POPC   C4B32494  36.340   9.354   7.679
 2248POPC   NC332495  16.484   9.973  10.011
 2248POPC   PO432496  16.086   9.975   9.490
 2248POPC   GL132497  16.013   9.801   9.134
 2248POPC   GL232498  15.778   9.557   9.149
 2248POPC   C1A32499  16.061  10.008   8.777
 2248POPC   D2A32500  16.117   9.815   8.419
 2248POPC   C3A32501  15.989  10.001   8.042
 2248POPC   C4A32502  15.959   9.745   7.725
 2248POPC   C1B32503  15.717   9.630   8.715
 2248POPC   C2B32504  15.616   9.939   8.406
 2248POPC   C3B32505  15.506   9.794   7.991
 2248POPC   C4B32506  15.592   9.390   7.747
 2249POPC   NC332507   8.643  17.026   9.474
 2249POPC   PO432508   8.031  17.011   9.494
 2249POPC   GL132509   8.098  16.778   9.126
 2249POPC   GL232510   8.322  16.521   9.191
 2249POPC   C1A32511   8.296  16.709   8.713
 2249POPC   D2A32512   8.414  16.638   8.288
 2249POPC   C3A32513   8.161  16.631   7.940
 2249POPC   C4A32514   8.216  16.870   7.558
 2249POPC   C1B32515   8.530  16.267   8.852
 2249POPC   C2B32516   8.508  16.157   8.419
 2249POPC   C3B32517   8.476  16.216   7.970
 2249POPC   C4B32518   8.490  16.443   7.580
 2250POPC   NC332519   7.978  20.254   9.446
 2250POPC   PO432520   8.186  19.653   9.777
 2250POPC   GL132521   8.241  19.761   9.298
 2250POPC   GL232522   7.945  19.901   9.078
 2250POPC   C1A32523   8.288  19.577   8.851
 2250POPC   D2A32524   8.030  19.501   8.458
 2250POPC   C3A32525   8.258  19.667   8.111
 2250POPC   C4A32526   8.421  20.002   7.840
 2250POPC   C1B32527   7.989  20.065   8.638
 2250POPC   C2B32528   8.028  20.131   8.172
 2250POPC   C3B32529   7.945  20.169   7.718
 2250POPC   C4B32530   7.760  20.212   7.304
 2251POPC   NC332531   4.968   7.140   9.681
 2251POPC   PO432532   4.686   7.705   9.389
 2251POPC   GL132533   4.831   7.478   9.035
 2251POPC   GL232534   4.849   7.167   9.178
 2251POPC   C1A32535   5.206   7.495   8.772
 2251POPC   D2A32536   5.240   7.702   8.453
 2251POPC   C3A32537   5.247   7.574   8.082
 2251POPC   C4A32538   5.132   7.672   7.676
 2251POPC   C1B32539   5.024   7.036   8.799
 2251POPC   C2B32540   5.279   7.095   8.432
 2251POPC   C3B32541   5.126   7.102   8.031
 2251POPC   C4B32542   4.938   7.208   7.637
 2252POPC   NC332543   9.834  33.105  10.002
 2252POPC   PO432544   9.743  32.704   9.440
 2252POPC   GL132545   9.873  32.796   9.052
 2252POPC   GL232546  10.035  33.114   9.068
 2252POPC   C1A32547   9.682  32.899   8.673
 2252POPC   D2A32548   9.598  32.673   8.295
 2252POPC   C3A32549   9.608  32.926   7.971
 2252POPC   C4A32550   9.604  33.277   7.743
 2252POPC   C1B32551   9.978  33.341   8.679
 2252POPC   C2B32552   9.801  33.324   8.257
 2252POPC   C3B32553  10.064  33.176   7.929
 2252POPC   C4B32554  10.280  33.273   7.570
 2253POPC   NC332555  20.804  31.481   9.409
 2253POPC   PO432556  20.186  31.381   9.466
 2253POPC   GL132557  20.372  31.618   9.170
 2253POPC   GL232558  20.115  31.656   8.974
 2253POPC   C1A32559  20.621  31.635   8.792
 2253POPC   D2A32560  20.572  31.801   8.389
 2253POPC   C3A32561  20.769  31.597   8.032
 2253POPC   C4A32562  20.619  31.297   7.736
 2253POPC   C1B32563  20.293  31.251   8.793
 2253POPC   C2B32564  20.522  31.273   8.390
 2253POPC   C3B32565  20.265  31.512   8.076
 2253POPC   C4B32566  20.326  31.721   7.680
 2254POPC   NC332567  21.772  26.606   9.520
 2254POPC   PO432568  22.418  26.690   9.340
 2254POPC   GL132569  22.092  26.776   9.115
 2254POPC   GL232570  22.028  27.052   9.287
 2254POPC   C1A32571  21.961  26.762   8.708
 2254POPC   D2A32572  21.658  26.575   8.454
 2254POPC   C3A32573  21.854  26.709   8.099
 2254POPC   C4A32574  22.216  26.682   7.837
 2254POPC   C1B32575  21.987  27.241   8.861
 2254POPC   C2B32576  21.870  27.170   8.410
 2254POPC   C3B32577  22.049  27.171   7.996
 2254POPC   C4B32578  21.855  27.039   7.643
 2255POPC   NC332579  40.581  34.021   9.771
 2255POPC   PO432580  40.579  33.422   9.539
 2255POPC   GL132581  40.772  33.553   9.130
 2255POPC   GL232582  40.824  33.900   9.232
 2255POPC   C1A32583  40.715  33.440   8.675
 2255POPC   D2A32584  40.935  33.476   8.264
 2255POPC   C3A32585  40.823  33.670   7.906
 2255POPC   C4A32586  40.884  33.644   7.453
 2255POPC   C1B32587  41.098  33.965   8.884
 2255POPC   C2B32588  41.124  33.978   8.453
 2255POPC   C3B32589  40.940  34.154   8.115
 2255POPC   C4B32590  40.916  34.115   7.695
 2256POPC   NC332591  39.285   7.991   9.358
 2256POPC   PO432592  39.528   8.613   9.539
 2256POPC   GL132593  39.380   8.461   9.105
 2256POPC   GL232594  39.564   8.171   8.974
 2256POPC   C1A32595  39.142   8.253   8.711
 2256POPC   D2A32596  38.906   8.234   8.296
 2256POPC   C3A32597  39.112   8.139   7.869
 2256POPC   C4A32598  38.949   8.037   7.430
 2256POPC   C1B32599  39.642   8.019   8.578
 2256POPC   C2B32600  39.413   8.251   8.258
 2256POPC   C3B32601  39.529   8.462   7.870
 2256POPC   C4B32602  39.395   8.380   7.447
 2257POPC   NC332603  39.511  14.107   9.773
 2257POPC   PO432604  39.898  13.603   9.686
 2257POPC   GL132605  40.006  13.599   9.207
 2257POPC   GL232606  39.897  13.923   9.061
 2257POPC   C1A32607  39.899  13.460   8.765
 2257POPC   D2A32608  39.856  13.637   8.336
 2257POPC   C3A32609  40.067  13.539   7.928
 2257POPC   C4A32610  39.852  13.512   7.513
 2257POPC   C1B32611  39.595  13.876   8.726
 2257POPC   C2B32612  39.615  14.093   8.314
 2257POPC   C3B32613  39.656  13.879   7.899
 2257POPC   C4B32614  39.640  13.972   7.461
 2258POPC   NC332615  37.339  30.620   9.922
 2258POPC   PO432616  36.866  30.717   9.400
 2258POPC   GL132617  37.040  30.725   9.067
 2258POPC   GL232618  36.905  30.411   8.991
 2258POPC   C1A32619  36.871  30.837   8.683
 2258POPC   D2A32620  36.951  30.710   8.285
 2258POPC   C3A32621  36.644  30.905   8.090
 2258POPC   C4A32622  36.630  30.755   7.701
 2258POPC   C1B32623  36.900  30.210   8.643
 2258POPC   C2B32624  37.106  30.239   8.286
 2258POPC   C3B32625  36.835  30.241   7.967
 2258POPC   C4B32626  36.976  30.395   7.607
 2259POPC   NC332627  20.723  44.471   9.536
 2259POPC   PO432628  20.161  44.760   9.610
 2259POPC   GL132629  20.499  44.915   9.278
 2259POPC   GL232630  20.509  44.620   9.100
 2259POPC   C1A32631  20.659  44.994   8.805
 2259POPC   D2A32632  20.414  44.990   8.374
 2259POPC   C3A32633  20.450  44.890   7.926
 2259POPC   C4A32634  20.805  44.747   7.662
 2259POPC   C1B32635  20.704  44.317   8.881
 2259POPC   C2B32636  20.857  44.198   8.554
 2259POPC   C3B32637  20.683  44.112   8.196
 2259POPC   C4B32638  20.537  44.368   7.860
 2260POPC   NC332639  38.992  11.216   9.401
 2260POPC   PO432640  39.297  11.812   9.482
 2260POPC   GL132641  39.301  11.529   9.069
 2260POPC   GL232642  38.968  11.434   8.940
 2260POPC   C1A32643  39.302  11.365   8.594
 2260POPC   D2A32644  38.905  11.330   8.361
 2260POPC   C3A32645  38.966  11.445   7.939
 2260POPC   C4A32646  39.384  11.582   7.816
 2260POPC   C1B32647  38.947  10.989   8.760
 2260POPC   C2B32648  39.005  10.836   8.332
 2260POPC   C3B32649  39.301  11.091   8.105
 2260POPC   C4B32650  39.547  11.087   7.731
 2261POPC   NC332651  17.536  10.186   9.341
 2261POPC   PO432652  17.495   9.611   9.768
 2261POPC   GL132653  17.450   9.682   9.261
 2261POPC   GL232654  17.792   9.642   9.093
 2261POPC   C1A32655  17.473   9.900   8.796
 2261POPC   D2A32656  17.708   9.868   8.395
 2261POPC   C3A32657  17.477   9.906   8.061
 2261POPC   C4A32658  17.336   9.892   7.656
 2261POPC   C1B32659  17.630   9.443   8.685
 2261POPC   C2B32660  17.453   9.428   8.255
 2261POPC   C3B32661  17.651   9.494   7.834
 2261POPC   C4B32662  17.465   9.457   7.450
 2262POPC   NC332663  40.447  12.365   9.525
 2262POPC   PO432664  40.545  13.059   9.414
 2262POPC   GL132665  40.664  12.871   9.066
 2262POPC   GL232666  40.811  12.591   9.206
 2262POPC   C1A32667  40.632  12.944   8.626
 2262POPC   D2A32668  40.900  12.878   8.281
 2262POPC   C3A32669  40.777  13.053   7.905
 2262POPC   C4A32670  40.362  13.139   7.792
 2262POPC   C1B32671  40.739  12.458   8.773
 2262POPC   C2B32672  40.723  12.395   8.333
 2262POPC   C3B32673  40.883  12.551   7.912
 2262POPC   C4B32674  41.056  12.797   7.559
 2263POPC   NC332675  31.253  21.252   9.621
 2263POPC   PO432676  31.828  21.035   9.483
 2263POPC   GL132677  31.571  21.295   9.145
 2263POPC   GL232678  31.209  21.250   9.098
 2263POPC   C1A32679  31.456  21.177   8.672
 2263POPC   D2A32680  31.592  21.095   8.233
 2263POPC   C3A32681  31.432  21.345   7.884
 2263POPC   C4A32682  31.120  21.327   7.552
 2263POPC   C1B32683  31.101  21.579   8.819
 2263POPC   C2B32684  31.092  21.784   8.413
 2263POPC   C3B32685  31.092  21.704   7.979
 2263POPC   C4B32686  31.348  21.796   7.611
 2264POPC   NC332687   7.986   0.555   9.422
 2264POPC   PO432688   8.619   0.677   9.552
 2264POPC   GL132689   8.414   0.431   9.185
 2264POPC   GL232690   8.573   0.146   9.088
 2264POPC   C1A32691   8.097   0.235   8.846
 2264POPC   D2A32692   8.146   0.342   8.406
 2264POPC   C3A32693   7.974   0.269   8.037
 2264POPC   C4A32694   8.064   0.044   7.692
 2264POPC   C1B32695   8.546   0.435   8.706
 2264POPC   C2B32696   8.632   0.441   8.288
 2264POPC   C3B32697   8.453   0.453   7.881
 2264POPC   C4B32698   8.274   0.515   7.448
 2265POPC   NC332699   0.773  42.756   9.433
 2265POPC   PO432700   0.228  43.118   9.549
 2265POPC   GL132701   0.146  43.175   9.152
 2265POPC   GL232702   0.517  43.223   9.101
 2265POPC   C1A32703   0.213  43.016   8.730
 2265POPC   D2A32704   0.344  43.222   8.370
 2265POPC   C3A32705   0.191  43.044   8.020
 2265POPC   C4A32706   0.210  42.905   7.554
 2265POPC   C1B32707   0.792  43.233   8.726
 2265POPC   C2B32708   0.861  43.223   8.273
 2265POPC   C3B32709   0.816  43.215   7.873
 2265POPC   C4B32710   0.468  43.403   7.743
 2266POPC   NC332711  16.414  12.352   9.509
 2266POPC   PO432712  17.114  12.280   9.604
 2266POPC   GL132713  16.926  12.260   9.183
 2266POPC   GL232714  16.667  12.044   9.164
 2266POPC   C1A32715  17.064  12.169   8.755
 2266POPC   D2A32716  17.304  12.399   8.428
 2266POPC   C3A32717  17.083  12.305   8.042
 2266POPC   C4A32718  16.780  12.095   7.800
 2266POPC   C1B32719  16.563  12.366   8.845
 2266POPC   C2B32720  16.604  12.212   8.447
 2266POPC   C3B32721  16.304  12.210   8.140
 2266POPC   C4B32722  16.397  12.414   7.768
 2267POPC   NC332723  20.453  24.565   9.550
 2267POPC   PO432724  21.078  24.864   9.418
 2267POPC   GL132725  20.737  24.740   9.126
 2267POPC   GL232726  20.577  24.398   9.096
 2267POPC   C1A32727  20.795  24.595   8.691
 2267POPC   D2A32728  20.934  24.666   8.285
 2267POPC   C3A32729  20.634  24.695   7.977
 2267POPC   C4A32730  20.651  24.333   7.721
 2267POPC   C1B32731  20.302  24.411   8.721
 2267POPC   C2B32732  20.376  24.332   8.243
 2267POPC   C3B32733  20.187  24.187   7.834
 2267POPC   C4B32734  20.295  24.234   7.357
 2268POPC   NC332735  15.235  24.769   9.544
 2268POPC   PO432736  15.117  24.040   9.600
 2268POPC   GL132737  15.152  24.347   9.235
 2268POPC   GL232738  14.853  24.610   9.212
 2268POPC   C1A32739  15.414  24.356   8.827
 2268POPC   D2A32740  15.596  24.535   8.442
 2268POPC   C3A32741  15.446  24.348   8.077
 2268POPC   C4A32742  15.371  24.508   7.673
 2268POPC   C1B32743  14.898  24.416   8.805
 2268POPC   C2B32744  15.077  24.553   8.446
 2268POPC   C3B32745  14.958  24.514   8.048
 2268POPC   C4B32746  14.984  24.205   7.785
 2269POPC   NC332747   8.007  34.045   9.677
 2269POPC   PO432748   8.346  33.422   9.636
 2269POPC   GL132749   8.209  33.465   9.231
 2269POPC   GL232750   8.062  33.789   9.232
 2269POPC   C1A32751   8.351  33.544   8.816
 2269POPC   D2A32752   8.122  33.670   8.417
 2269POPC   C3A32753   8.246  33.602   8.003
 2269POPC   C4A32754   8.552  33.482   7.707
 2269POPC   C1B32755   8.176  34.003   8.837
 2269POPC   C2B32756   8.299  34.168   8.422
 2269POPC   C3B32757   8.218  34.142   7.970
 2269POPC   C4B32758   7.794  34.206   7.795
 2270POPC   NC332759  35.142  33.035   9.366
 2270POPC   PO432760  35.534  33.590   9.443
 2270POPC   GL132761  35.532  33.280   9.112
 2270POPC   GL232762  35.504  32.911   9.014
 2270POPC   C1A32763  35.525  33.314   8.695
 2270POPC   D2A32764  35.453  32.972   8.403
 2270POPC   C3A32765  35.231  33.150   8.081
 2270POPC   C4A32766  35.281  33.161   7.647
 2270POPC   C1B32767  35.125  32.786   8.761
 2270POPC   C2B32768  34.937  32.814   8.358
 2270POPC   C3B32769  35.067  32.664   7.981
 2270POPC   C4B32770  34.949  32.795   7.598
 2271POPC   NC332771   8.044  34.785   9.355
 2271POPC   PO432772   8.327  35.432   9.589
 2271POPC   GL132773   8.261  35.391   9.115
 2271POPC   GL232774   7.977  35.190   9.052
 2271POPC   C1A32775   8.392  35.412   8.656
 2271POPC   D2A32776   8.457  35.140   8.277
 2271POPC   C3A32777   8.451  35.028   7.838
 2271POPC   C4A32778   8.603  35.244   7.492
 2271POPC   C1B32779   7.987  35.077   8.605
 2271POPC   C2B32780   8.031  35.425   8.289
 2271POPC   C3B32781   8.082  35.401   7.875
 2271POPC   C4B32782   7.913  35.082   7.670
 2272POPC   NC332783  21.124   9.252   9.424
 2272POPC   PO432784  21.360   9.878   9.639
 2272POPC   GL132785  21.394   9.681   9.223
 2272POPC   GL232786  21.056   9.676   9.138
 2272POPC   C1A32787  21.451   9.644   8.754
 2272POPC   D2A32788  21.648   9.842   8.375
 2272POPC   C3A32789  21.703   9.644   7.965
 2272POPC   C4A32790  21.539   9.602   7.536
 2272POPC   C1B32791  20.976   9.865   8.756
 2272POPC   C2B32792  21.144   9.865   8.362
 2272POPC   C3B32793  21.208   9.779   7.942
 2272POPC   C4B32794  21.030   9.494   7.646
 2273POPC   NC332795  40.348  34.605   9.141
 2273POPC   PO432796  40.801  34.394   9.622
 2273POPC   GL132797  40.862  34.676   9.278
 2273POPC   GL232798  40.920  34.397   9.080
 2273POPC   C1A32799  40.880  34.837   8.833
 2273POPC   D2A32800  40.860  34.685   8.395
 2273POPC   C3A32801  40.673  34.844   8.035
 2273POPC   C4A32802  41.003  34.622   7.805
 2273POPC   C1B32803  40.733  34.268   8.683
 2273POPC   C2B32804  40.507  34.351   8.307
 2273POPC   C3B32805  40.541  34.385   7.882
 2273POPC   C4B32806  40.254  34.255   7.558
 2274POPC   NC332807   4.275  43.716   9.560
 2274POPC   PO432808   3.921  44.285   9.365
 2274POPC   GL132809   4.019  43.905   9.139
 2274POPC   GL232810   4.370  43.816   9.076
 2274POPC   C1A32811   4.056  43.940   8.699
 2274POPC   D2A32812   4.281  44.093   8.348
 2274POPC   C3A32813   4.142  43.864   7.984
 2274POPC   C4A32814   4.401  43.773   7.629
 2274POPC   C1B32815   4.310  43.502   8.785
 2274POPC   C2B32816   4.225  43.563   8.389
 2274POPC   C3B32817   4.566  43.694   8.181
 2274POPC   C4B32818   4.694  43.437   7.887
 2275POPC   NC332819  10.842  37.055   9.759
 2275POPC   PO432820  11.043  36.530   9.341
 2275POPC   GL132821  11.226  36.564   8.957
 2275POPC   GL232822  11.521  36.751   8.971
 2275POPC   C1A32823  11.172  36.750   8.561
 2275POPC   D2A32824  11.309  37.139   8.348
 2275POPC   C3A32825  11.320  37.062   7.913
 2275POPC   C4A32826  11.098  36.812   7.599
 2275POPC   C1B32827  11.670  36.622   8.612
 2275POPC   C2B32828  11.578  36.698   8.187
 2275POPC   C3B32829  11.454  36.490   7.808
 2275POPC   C4B32830  11.552  36.702   7.410
 2276POPC   NC332831  12.046  24.237   9.372
 2276POPC   PO432832  12.209  24.856   9.260
 2276POPC   GL132833  12.367  24.470   9.025
 2276POPC   GL232834  12.064  24.310   8.865
 2276POPC   C1A32835  12.507  24.283   8.609
 2276POPC   D2A32836  12.483  24.304   8.154
 2276POPC   C3A32837  12.127  24.361   7.883
 2276POPC   C4A32838  12.133  24.396   7.439
 2276POPC   C1B32839  12.186  24.670   8.586
 2276POPC   C2B32840  12.279  24.798   8.167
 2276POPC   C3B32841  12.083  24.848   7.741
 2276POPC   C4B32842  11.676  24.692   7.594
 2277POPC   NC332843  13.632  24.824   9.975
 2277POPC   PO432844  13.555  24.393   9.460
 2277POPC   GL132845  13.543  24.293   9.014
 2277POPC   GL232846  13.408  24.636   8.890
 2277POPC   C1A32847  13.597  24.303   8.556
 2277POPC   D2A32848  13.413  24.680   8.370
 2277POPC   C3A32849  13.637  24.720   8.012
 2277POPC   C4A32850  13.897  24.444   7.846
 2277POPC   C1B32851  13.103  24.347   8.716
 2277POPC   C2B32852  13.128  24.073   8.351
 2277POPC   C3B32853  13.352  24.265   8.043
 2277POPC   C4B32854  13.169  24.626   7.900
 2278POPC   NC332855  42.088  25.420   9.394
 2278POPC   PO432856  42.618  25.023   9.386
 2278POPC   GL132857  42.310  25.069   9.091
 2278POPC   GL232858  42.446  25.419   9.045
 2278POPC   C1A32859  42.339  25.095   8.661
 2278POPC   D2A32860  42.471  25.321   8.321
 2278POPC   C3A32861  42.476  25.055   7.965
 2278POPC   C4A32862  42.174  25.063   7.685
 2278POPC   C1B32863  42.282  25.632   8.704
 2278POPC   C2B32864  42.156  25.731   8.297
 2278POPC   C3B32865  42.225  25.542   7.895
 2278POPC   C4B32866  41.862  25.461   7.684
 2279POPC   NC332867   6.275  11.439   9.613
 2279POPC   PO432868   6.919  11.418   9.591
 2279POPC   GL132869   6.654  11.324   9.229
 2279POPC   GL232870   6.394  11.083   9.279
 2279POPC   C1A32871   6.627  11.495   8.815
 2279POPC   D2A32872   6.716  11.413   8.371
 2279POPC   C3A32873   6.545  11.613   7.987
 2279POPC   C4A32874   6.659  11.457   7.595
 2279POPC   C1B32875   6.383  11.050   8.824
 2279POPC   C2B32876   6.264  11.148   8.394
 2279POPC   C3B32877   6.472  11.105   8.003
 2279POPC   C4B32878   6.290  11.101   7.619
 2280POPC   NC332879  30.316  30.927   9.463
 2280POPC   PO432880  30.989  31.058   9.439
 2280POPC   GL132881  30.732  30.910   9.120
 2280POPC   GL232882  30.549  31.222   9.093
 2280POPC   C1A32883  30.857  30.746   8.715
 2280POPC   D2A32884  30.898  30.386   8.434
 2280POPC   C3A32885  30.837  30.529   8.026
 2280POPC   C4A32886  30.699  30.417   7.661
 2280POPC   C1B32887  30.419  31.059   8.695
 2280POPC   C2B32888  30.517  30.858   8.287
 2280POPC   C3B32889  30.597  30.940   7.832
 2280POPC   C4B32890  31.055  31.040   7.806
 2281POPC   NC332891  35.259  16.470   9.878
 2281POPC   PO432892  35.268  17.063   9.553
 2281POPC   GL132893  35.330  16.754   9.250
 2281POPC   GL232894  35.133  16.415   9.285
 2281POPC   C1A32895  35.405  16.933   8.833
 2281POPC   D2A32896  35.195  16.989   8.468
 2281POPC   C3A32897  35.415  16.946   8.091
 2281POPC   C4A32898  35.189  16.969   7.712
 2281POPC   C1B32899  35.355  16.415   8.848
 2281POPC   C2B32900  35.479  16.504   8.410
 2281POPC   C3B32901  35.391  16.308   7.999
 2281POPC   C4B32902  35.111  16.466   7.670
 2282POPC   NC332903  34.912  25.051   9.867
 2282POPC   PO432904  35.428  25.158   9.650
 2282POPC   GL132905  35.482  25.167   9.141
 2282POPC   GL232906  35.465  25.517   9.025
 2282POPC   C1A32907  35.621  25.188   8.672
 2282POPC   D2A32908  35.515  25.434   8.297
 2282POPC   C3A32909  35.456  25.251   7.872
 2282POPC   C4A32910  35.636  24.877   7.671
 2282POPC   C1B32911  35.152  25.384   8.675
 2282POPC   C2B32912  35.033  25.277   8.216
 2282POPC   C3B32913  34.970  25.393   7.763
 2282POPC   C4B32914  34.964  25.402   7.290
 2283POPC   NC332915   2.911  37.195   9.503
 2283POPC   PO432916   2.704  36.585   9.271
 2283POPC   GL132917   2.770  36.938   9.058
 2283POPC   GL232918   3.116  36.908   9.055
 2283POPC   C1A32919   2.814  37.013   8.621
 2283POPC   D2A32920   2.775  36.748   8.275
 2283POPC   C3A32921   2.761  37.006   7.929
 2283POPC   C4A32922   2.359  37.116   7.824
 2283POPC   C1B32923   3.040  36.574   8.728
 2283POPC   C2B32924   3.203  36.484   8.351
 2283POPC   C3B32925   3.194  36.707   7.993
 2283POPC   C4B32926   2.989  36.604   7.638
 2284POPC   NC332927  16.129   1.552   9.404
 2284POPC   PO432928  15.950   2.238   9.461
 2284POPC   GL132929  15.990   2.010   9.092
 2284POPC   GL232930  15.654   2.062   8.953
 2284POPC   C1A32931  16.283   1.877   8.746
 2284POPC   D2A32932  16.235   1.939   8.287
 2284POPC   C3A32933  16.055   2.172   7.917
 2284POPC   C4A32934  16.018   2.055   7.465
 2284POPC   C1B32935  15.809   1.881   8.584
 2284POPC   C2B32936  15.776   2.222   8.341
 2284POPC   C3B32937  15.435   2.335   8.103
 2284POPC   C4B32938  15.576   2.210   7.755
 2285POPC   NC332939   7.334  10.217   9.533
 2285POPC   PO432940   7.693  10.790   9.682
 2285POPC   GL132941   7.677  10.712   9.226
 2285POPC   GL232942   7.344  10.776   9.133
 2285POPC   C1A32943   7.551  10.373   8.899
 2285POPC   D2A32944   7.401  10.326   8.464
 2285POPC   C3A32945   7.472  10.478   8.030
 2285POPC   C4A32946   7.495  10.229   7.638
 2285POPC   C1B32947   7.387  10.811   8.698
 2285POPC   C2B32948   7.198  10.796   8.351
 2285POPC   C3B32949   7.076  10.825   7.972
 2285POPC   C4B32950   7.083  10.514   7.665
 2286POPC   NC332951  37.548   6.615   9.277
 2286POPC   PO432952  37.999   6.178   9.411
 2286POPC   GL132953  37.823   6.292   9.021
 2286POPC   GL232954  37.451   6.187   9.039
 2286POPC   C1A32955  37.747   6.553   8.645
 2286POPC   D2A32956  37.999   6.651   8.253
 2286POPC   C3A32957  37.758   6.789   7.910
 2286POPC   C4A32958  37.751   6.680   7.458
 2286POPC   C1B32959  37.318   6.264   8.632
 2286POPC   C2B32960  37.529   6.426   8.205
 2286POPC   C3B32961  37.359   6.471   7.746
 2286POPC   C4B32962  37.293   6.446   7.276
 2287POPC   NC332963  12.954  30.410   9.627
 2287POPC   PO432964  13.135  31.091   9.444
 2287POPC   GL132965  12.811  30.890   9.168
 2287POPC   GL232966  12.814  30.523   9.156
 2287POPC   C1A32967  12.691  30.983   8.739
 2287POPC   D2A32968  12.732  30.796   8.326
 2287POPC   C3A32969  12.947  30.957   7.959
 2287POPC   C4A32970  12.883  30.918   7.509
 2287POPC   C1B32971  12.734  30.468   8.724
 2287POPC   C2B32972  13.078  30.430   8.411
 2287POPC   C3B32973  13.093  30.463   7.955
 2287POPC   C4B32974  13.407  30.338   7.705
 2288POPC   NC332975  33.966  41.875   9.494
 2288POPC   PO432976  33.520  41.398   9.580
 2288POPC   GL132977  33.783  41.464   9.227
 2288POPC   GL232978  33.630  41.755   9.119
 2288POPC   C1A32979  34.052  41.558   8.856
 2288POPC   D2A32980  34.261  41.365   8.477
 2288POPC   C3A32981  34.267  41.595   8.069
 2288POPC   C4A32982  33.956  41.651   7.735
 2288POPC   C1B32983  33.558  41.665   8.703
 2288POPC   C2B32984  33.810  41.602   8.345
 2288POPC   C3B32985  33.891  41.267   8.075
 2288POPC   C4B32986  33.658  41.151   7.726
 2289POPC   NC332987  28.406  15.005   9.798
 2289POPC   PO432988  27.905  15.461   9.569
 2289POPC   GL132989  28.104  15.172   9.217
 2289POPC   GL232990  28.434  15.015   9.256
 2289POPC   C1A32991  28.347  15.209   8.800
 2289POPC   D2A32992  28.660  15.243   8.449
 2289POPC   C3A32993  28.514  15.311   8.012
 2289POPC   C4A32994  28.364  15.307   7.618
 2289POPC   C1B32995  28.736  14.910   8.885
 2289POPC   C2B32996  28.817  14.755   8.490
 2289POPC   C3B32997  28.696  14.857   8.100
 2289POPC   C4B32998  28.787  15.019   7.691
 2290POPC   NC332999  13.195  17.216   9.229
 2290POPC   PO433000  13.733  17.629   9.485
 2290POPC   GL133001  13.575  17.555   9.090
 2290POPC   GL233002  13.731  17.236   9.087
 2290POPC   C1A33003  13.393  17.743   8.705
 2290POPC   D2A33004  13.520  17.940   8.287
 2290POPC   C3A33005  13.370  17.757   7.897
 2290POPC   C4A33006  13.634  17.541   7.528
 2290POPC   C1B33007  13.534  17.247   8.679
 2290POPC   C2B33008  13.486  17.425   8.299
 2290POPC   C3B33009  13.522  17.260   7.925
 2290POPC   C4B33010  13.888  17.156   7.753
 2291POPC   NC333011  17.067   3.155   9.759
 2291POPC   PO433012  16.734   2.543   9.593
 2291POPC   GL133013  16.712   2.860   9.321
 2291POPC   GL233014  16.741   2.589   9.068
 2291POPC   C1A33015  16.772   3.059   8.913
 2291POPC   D2A33016  16.893   2.809   8.539
 2291POPC   C3A33017  16.665   2.960   8.196
 2291POPC   C4A33018  16.739   2.953   7.772
 2291POPC   C1B33019  17.126   2.463   8.847
 2291POPC   C2B33020  17.118   2.312   8.421
 2291POPC   C3B33021  16.929   2.495   8.079
 2291POPC   C4B33022  17.114   2.558   7.717
 2292POPC   NC333023  19.722  41.355   9.482
 2292POPC   PO433024  19.900  41.882   9.087
 2292POPC   GL133025  19.663  41.539   9.009
 2292POPC   GL233026  19.996  41.344   9.062
 2292POPC   C1A33027  19.555  41.597   8.594
 2292POPC   D2A33028  20.001  41.614   8.482
 2292POPC   C3A33029  20.095  41.820   8.123
 2292POPC   C4A33030  20.292  41.664   7.785
 2292POPC   C1B33031  19.926  41.144   8.695
 2292POPC   C2B33032  19.735  41.218   8.299
 2292POPC   C3B33033  19.954  41.215   7.936
 2292POPC   C4B33034  19.795  41.058   7.558
 2293POPC   NC333035   2.387   2.420   9.329
 2293POPC   PO433036   1.929   2.825   9.257
 2293POPC   GL133037   1.824   2.478   8.979
 2293POPC   GL233038   2.161   2.476   8.851
 2293POPC   C1A33039   1.762   2.374   8.545
 2293POPC   D2A33040   2.105   2.447   8.311
 2293POPC   C3A33041   1.913   2.603   7.982
 2293POPC   C4A33042   2.099   2.641   7.610
 2293POPC   C1B33043   1.961   2.844   8.607
 2293POPC   C2B33044   2.114   2.992   8.218
 2293POPC   C3B33045   1.964   3.098   7.807
 2293POPC   C4B33046   2.095   3.108   7.358
 2294POPC   NC333047   1.705  17.702   9.322
 2294POPC   PO433048   1.951  17.084   9.569
 2294POPC   GL133049   2.034  17.170   9.136
 2294POPC   GL233050   2.331  17.378   9.155
 2294POPC   C1A33051   1.837  17.315   8.743
 2294POPC   D2A33052   1.684  17.704   8.576
 2294POPC   C3A33053   1.671  17.693   8.117
 2294POPC   C4A33054   1.889  17.402   7.877
 2294POPC   C1B33055   2.277  17.568   8.776
 2294POPC   C2B33056   2.134  17.555   8.343
 2294POPC   C3B33057   2.373  17.663   7.984
 2294POPC   C4B33058   2.470  17.944   7.624
 2295POPC   NC333059  10.564  20.679   9.610
 2295POPC   PO433060  10.140  21.074   9.390
 2295POPC   GL133061  10.442  20.786   9.108
 2295POPC   GL233062  10.717  20.576   9.128
 2295POPC   C1A33063  10.713  20.835   8.695
 2295POPC   D2A33064  10.535  20.653   8.311
 2295POPC   C3A33065  10.646  20.680   7.875
 2295POPC   C4A33066  10.484  20.859   7.504
 2295POPC   C1B33067  10.587  20.343   8.740
 2295POPC   C2B33068  10.284  20.205   8.397
 2295POPC   C3B33069  10.232  20.343   7.951
 2295POPC   C4B33070  10.437  20.333   7.516
 2296POPC   NC333071  35.594  38.091   9.501
 2296POPC   PO433072  35.237  37.543   9.408
 2296POPC   GL133073  35.405  37.739   9.130
 2296POPC   GL233074  35.305  38.036   9.088
 2296POPC   C1A33075  35.510  37.643   8.744
 2296POPC   D2A33076  35.244  37.543   8.441
 2296POPC   C3A33077  35.480  37.354   8.164
 2296POPC   C4A33078  35.558  37.566   7.819
 2296POPC   C1B33079  35.053  37.938   8.759
 2296POPC   C2B33080  34.927  37.934   8.347
 2296POPC   C3B33081  35.141  37.796   7.993
 2296POPC   C4B33082  35.247  37.919   7.595
 2297POPC   NC333083  10.686  17.974   9.679
 2297POPC   PO433084  10.372  18.568   9.420
 2297POPC   GL133085  10.254  18.413   9.118
 2297POPC   GL233086  10.329  18.073   9.250
 2297POPC   C1A33087  10.357  18.589   8.722
 2297POPC   D2A33088  10.640  18.513   8.393
 2297POPC   C3A33089  10.453  18.625   8.002
 2297POPC   C4A33090  10.317  18.336   7.705
 2297POPC   C1B33091  10.354  18.030   8.797
 2297POPC   C2B33092  10.602  17.974   8.399
 2297POPC   C3B33093  10.745  18.180   8.015
 2297POPC   C4B33094  10.735  18.056   7.603
 2298POPC   NC333095   1.805  38.127   9.664
 2298POPC   PO433096   2.125  37.570   9.445
 2298POPC   GL133097   1.983  37.615   9.066
 2298POPC   GL233098   1.908  38.001   9.135
 2298POPC   C1A33099   2.015  37.417   8.631
 2298POPC   D2A33100   2.018  37.364   8.182
 2298POPC   C3A33101   2.254  37.593   7.891
 2298POPC   C4A33102   2.158  37.642   7.449
 2298POPC   C1B33103   1.925  37.921   8.676
 2298POPC   C2B33104   2.109  37.933   8.261
 2298POPC   C3B33105   1.909  37.957   7.853
 2298POPC   C4B33106   1.694  37.849   7.482
 2299POPC   NC333107  15.165  37.655   9.945
 2299POPC   PO433108  14.944  37.363   9.354
 2299POPC   GL133109  15.033  37.562   9.027
 2299POPC   GL233110  15.339  37.658   9.126
 2299POPC   C1A33111  15.089  37.486   8.623
 2299POPC   D2A33112  15.250  37.378   8.238
 2299POPC   C3A33113  14.964  37.315   7.909
 2299POPC   C4A33114  14.815  37.702   7.789
 2299POPC   C1B33115  15.537  37.696   8.804
 2299POPC   C2B33116  15.480  37.848   8.427
 2299POPC   C3B33117  15.595  37.737   8.042
 2299POPC   C4B33118  15.462  37.459   7.781
 2300POPC   NC333119   9.417  14.129   9.470
 2300POPC   PO433120   8.985  14.692   9.528
 2300POPC   GL133121   8.880  14.464   9.140
 2300POPC   GL233122   8.776  14.111   9.174
 2300POPC   C1A33123   9.013  14.519   8.719
 2300POPC   D2A33124   9.348  14.616   8.441
 2300POPC   C3A33125   9.160  14.592   8.024
 2300POPC   C4A33126   9.375  14.695   7.644
 2300POPC   C1B33127   8.913  14.008   8.746
 2300POPC   C2B33128   8.823  14.214   8.337
 2300POPC   C3B33129   8.886  14.075   7.913
 2300POPC   C4B33130   8.712  14.252   7.567
 2301POPC   NC333131  32.591   3.553   9.452
 2301POPC   PO433132  31.936   3.814   9.428
 2301POPC   GL133133  32.014   3.653   9.039
 2301POPC   GL233134  32.286   3.437   9.052
 2301POPC   C1A33135  32.162   3.653   8.609
 2301POPC   D2A33136  32.356   3.547   8.240
 2301POPC   C3A33137  32.030   3.570   7.904
 2301POPC   C4A33138  32.025   3.916   7.594
 2301POPC   C1B33139  32.425   3.163   8.717
 2301POPC   C2B33140  32.633   3.111   8.322
 2301POPC   C3B33141  32.492   2.978   7.933
 2301POPC   C4B33142  32.187   3.103   7.710
 2302POPC   NC333143  14.950  41.524   9.724
 2302POPC   PO433144  15.520  41.891   9.765
 2302POPC   GL133145  15.385  41.774   9.297
 2302POPC   GL233146  15.655  41.850   9.051
 2302POPC   C1A33147  15.245  41.582   8.847
 2302POPC   D2A33148  15.343  41.398   8.392
 2302POPC   C3A33149  15.238  41.528   7.942
 2302POPC   C4A33150  15.267  41.569   7.450
 2302POPC   C1B33151  15.659  41.759   8.605
 2302POPC   C2B33152  15.656  41.743   8.164
 2302POPC   C3B33153  15.594  41.845   7.725
 2302POPC   C4B33154  15.444  42.099   7.412
 2303POPC   NC333155  12.856   1.716   9.583
 2303POPC   PO433156  12.894   2.322   9.497
 2303POPC   GL133157  12.649   2.090   9.189
 2303POPC   GL233158  12.516   1.754   9.187
 2303POPC   C1A33159  12.811   2.046   8.787
 2303POPC   D2A33160  12.977   1.898   8.432
 2303POPC   C3A33161  12.782   2.117   8.117
 2303POPC   C4A33162  12.843   2.036   7.682
 2303POPC   C1B33163  12.621   1.575   8.765
 2303POPC   C2B33164  12.490   1.683   8.329
 2303POPC   C3B33165  12.677   1.631   7.959
 2303POPC   C4B33166  12.929   1.529   7.602
 2304POPC   NC333167  30.861  29.025   9.517
 2304POPC   PO433168  30.642  29.639   9.509
 2304POPC   GL133169  30.660  29.330   9.156
 2304POPC   GL233170  30.970  29.356   9.048
 2304POPC   C1A33171  30.717  28.983   8.813
 2304POPC   D2A33172  30.904  29.012   8.378
 2304POPC   C3A33173  30.667  29.131   7.983
 2304POPC   C4A33174  30.366  28.918   7.665
 2304POPC   C1B33175  30.813  29.462   8.634
 2304POPC   C2B33176  31.011  29.490   8.214
 2304POPC   C3B33177  30.967  29.502   7.759
 2304POPC   C4B33178  30.980  29.502   7.285
 2305POPC   NC333179  30.013  13.223   9.672
 2305POPC   PO433180  29.807  13.811   9.553
 2305POPC   GL133181  29.781  13.696   9.136
 2305POPC   GL233182  29.860  13.326   9.196
 2305POPC   C1A33183  29.978  13.806   8.753
 2305POPC   D2A33184  30.128  13.932   8.368
 2305POPC   C3A33185  29.852  13.708   8.132
 2305POPC   C4A33186  29.673  13.562   7.770
 2305POPC   C1B33187  29.694  13.334   8.806
 2305POPC   C2B33188  29.972  13.333   8.483
 2305POPC   C3B33189  29.913  13.211   8.087
 2305POPC   C4B33190  29.861  13.085   7.691
 2306POPC   NC333191   0.711  20.399   9.300
 2306POPC   PO433192   0.282  20.906   9.565
 2306POPC   GL133193   0.196  20.765   9.086
 2306POPC   GL233194   0.393  20.483   8.897
 2306POPC   C1A33195   0.172  20.800   8.605
 2306POPC   D2A33196   0.504  20.578   8.352
 2306POPC   C3A33197   0.376  20.527   7.945
 2306POPC   C4A33198   0.282  20.898   7.728
 2306POPC   C1B33199   0.726  20.771   8.763
 2306POPC   C2B33200   0.948  20.857   8.360
 2306POPC   C3B33201   0.759  20.861   7.930
 2306POPC   C4B33202   0.855  20.859   7.444
 2307POPC   NC333203  37.556  33.363   9.421
 2307POPC   PO433204  37.197  32.831   9.241
 2307POPC   GL133205  37.531  33.020   9.004
 2307POPC   GL233206  37.889  33.175   9.085
 2307POPC   C1A33207  37.489  32.858   8.610
 2307POPC   D2A33208  37.427  32.590   8.302
 2307POPC   C3A33209  37.457  32.778   7.913
 2307POPC   C4A33210  37.490  32.934   7.495
 2307POPC   C1B33211  37.872  33.213   8.633
 2307POPC   C2B33212  37.560  33.246   8.290
 2307POPC   C3B33213  37.558  33.294   7.874
 2307POPC   C4B33214  37.887  33.042   7.759
 2308POPC   NC333215  17.825   0.943   9.309
 2308POPC   PO433216  18.144   1.596   9.545
 2308POPC   GL133217  18.221   1.397   9.165
 2308POPC   GL233218  17.903   1.392   9.053
 2308POPC   C1A33219  18.446   1.389   8.767
 2308POPC   D2A33220  18.659   1.106   8.473
 2308POPC   C3A33221  18.484   1.068   8.045
 2308POPC   C4A33222  18.322   1.372   7.723
 2308POPC   C1B33223  18.081   1.047   8.763
 2308POPC   C2B33224  18.091   0.958   8.381
 2308POPC   C3B33225  17.988   1.194   8.075
 2308POPC   C4B33226  17.927   1.072   7.691
 2309POPC   NC333227  17.862  27.597   9.472
 2309POPC   PO433228  17.432  27.150   9.650
 2309POPC   GL133229  17.402  27.270   9.237
 2309POPC   GL233230  17.746  27.227   9.122
 2309POPC   C1A33231  17.303  27.286   8.796
 2309POPC   D2A33232  17.245  27.684   8.546
 2309POPC   C3A33233  17.222  27.622   8.114
 2309POPC   C4A33234  17.272  27.683   7.688
 2309POPC   C1B33235  17.727  27.549   8.774
 2309POPC   C2B33236  17.631  27.400   8.343
 2309POPC   C3B33237  17.716  27.587   7.929
 2309POPC   C4B33238  17.927  27.948   7.831
 2310POPC   NC333239  40.348   4.814   9.315
 2310POPC   PO433240  40.238   5.378   9.524
 2310POPC   GL133241  40.056   5.210   9.137
 2310POPC   GL233242  39.958   4.874   9.007
 2310POPC   C1A33243  39.828   5.273   8.769
 2310POPC   D2A33244  39.823   5.041   8.436
 2310POPC   C3A33245  39.851   5.223   8.054
 2310POPC   C4A33246  39.789   4.981   7.732
 2310POPC   C1B33247  40.262   4.955   8.695
 2310POPC   C2B33248  40.296   5.132   8.312
 2310POPC   C3B33249  40.248   4.922   7.954
 2310POPC   C4B33250  40.359   5.073   7.591
 2311POPC   NC333251  21.246  28.044   9.454
 2311POPC   PO433252  21.515  28.647   9.473
 2311POPC   GL133253  21.459  28.415   9.105
 2311POPC   GL233254  21.700  28.122   9.118
 2311POPC   C1A33255  21.266  28.551   8.717
 2311POPC   D2A33256  21.002  28.718   8.394
 2311POPC   C3A33257  21.177  28.694   7.985
 2311POPC   C4A33258  21.479  28.448   7.842
 2311POPC   C1B33259  21.758  28.315   8.688
 2311POPC   C2B33260  21.823  28.274   8.221
 2311POPC   C3B33261  21.620  27.985   7.952
 2311POPC   C4B33262  21.624  27.973   7.523
 2312POPC   NC333263  20.381  26.939   9.887
 2312POPC   PO433264  19.780  27.080   9.662
 2312POPC   GL133265  19.835  26.827   9.269
 2312POPC   GL233266  20.117  26.583   9.260
 2312POPC   C1A33267  19.703  26.738   8.840
 2312POPC   D2A33268  19.669  26.934   8.440
 2312POPC   C3A33269  19.710  26.723   8.044
 2312POPC   C4A33270  19.525  26.936   7.700
 2312POPC   C1B33271  20.025  26.312   8.878
 2312POPC   C2B33272  19.954  26.461   8.448
 2312POPC   C3B33273  20.166  26.447   8.045
 2312POPC   C4B33274  20.143  26.635   7.646
 2313POPC   NC333275  12.484   3.383   9.418
 2313POPC   PO433276  13.010   3.749   9.772
 2313POPC   GL133277  13.079   3.701   9.264
 2313POPC   GL233278  12.980   3.375   9.223
 2313POPC   C1A33279  13.210   3.751   8.827
 2313POPC   D2A33280  12.929   3.943   8.534
 2313POPC   C3A33281  12.797   3.779   8.149
 2313POPC   C4A33282  12.836   3.756   7.731
 2313POPC   C1B33283  12.941   3.333   8.781
 2313POPC   C2B33284  13.129   3.440   8.363
 2313POPC   C3B33285  12.968   3.303   7.949
 2313POPC   C4B33286  13.107   3.052   7.616
 2314POPC   NC333287   3.189  35.792   9.599
 2314POPC   PO433288   3.679  36.145   9.482
 2314POPC   GL133289   3.446  36.207   9.145
 2314POPC   GL233290   3.349  35.883   9.120
 2314POPC   C1A33291   3.424  36.221   8.720
 2314POPC   D2A33292   3.699  36.434   8.430
 2314POPC   C3A33293   3.583  36.332   8.041
 2314POPC   C4A33294   3.508  36.465   7.668
 2314POPC   C1B33295   3.595  35.756   8.771
 2314POPC   C2B33296   3.702  35.907   8.375
 2314POPC   C3B33297   3.531  35.837   7.984
 2314POPC   C4B33298   3.699  35.904   7.594
 2315POPC   NC333299  11.649  17.008   9.593
 2315POPC   PO433300  11.998  16.478   9.438
 2315POPC   GL133301  12.090  16.761   9.092
 2315POPC   GL233302  12.409  16.934   9.083
 2315POPC   C1A33303  12.209  16.639   8.678
 2315POPC   D2A33304  11.991  16.491   8.330
 2315POPC   C3A33305  12.204  16.511   7.952
 2315POPC   C4A33306  12.007  16.576   7.554
 2315POPC   C1B33307  12.275  17.149   8.683
 2315POPC   C2B33308  12.301  16.999   8.251
 2315POPC   C3B33309  12.164  17.022   7.818
 2315POPC   C4B33310  12.367  16.911   7.414
 2316POPC   NC333311  39.022  27.314   9.498
 2316POPC   PO433312  39.452  27.788   9.599
 2316POPC   GL133313  39.304  27.636   9.237
 2316POPC   GL233314  39.557  27.369   9.218
 2316POPC   C1A33315  39.068  27.575   8.850
 2316POPC   D2A33316  38.921  27.497   8.433
 2316POPC   C3A33317  39.209  27.492   8.096
 2316POPC   C4A33318  39.145  27.643   7.685
 2316POPC   C1B33319  39.604  27.672   8.852
 2316POPC   C2B33320  39.405  27.812   8.489
 2316POPC   C3B33321  39.572  27.926   8.089
 2316POPC   C4B33322  39.639  27.783   7.691
 2317POPC   NC333323  16.214  26.706  10.064
 2317POPC   PO433324  15.920  26.858   9.459
 2317POPC   GL133325  16.044  26.772   9.038
 2317POPC   GL233326  15.722  26.896   8.978
 2317POPC   C1A33327  16.098  26.865   8.579
 2317POPC   D2A33328  16.075  26.548   8.252
 2317POPC   C3A33329  16.061  26.735   7.868
 2317POPC   C4A33330  16.208  27.155   7.922
 2317POPC   C1B33331  15.621  26.718   8.588
 2317POPC   C2B33332  15.696  26.957   8.210
 2317POPC   C3B33333  15.697  27.104   7.797
 2317POPC   C4B33334  15.610  27.063   7.363
 2318POPC   NC333335  12.883  15.729   9.511
 2318POPC   PO433336  12.765  15.081   9.512
 2318POPC   GL133337  12.619  15.260   9.147
 2318POPC   GL233338  12.932  15.076   8.999
 2318POPC   C1A33339  12.556  15.310   8.705
 2318POPC   D2A33340  12.796  15.411   8.361
 2318POPC   C3A33341  12.798  15.169   7.986
 2318POPC   C4A33342  13.219  15.139   7.875
 2318POPC   C1B33343  12.565  14.834   8.872
 2318POPC   C2B33344  12.423  14.850   8.447
 2318POPC   C3B33345  12.527  14.715   8.044
 2318POPC   C4B33346  12.493  14.881   7.616
 2319POPC   NC333347   7.195  11.031   9.586
 2319POPC   PO433348   7.632  11.580   9.512
 2319POPC   GL133349   7.527  11.249   9.237
 2319POPC   GL233350   7.161  11.260   9.133
 2319POPC   C1A33351   7.739  11.103   8.880
 2319POPC   D2A33352   7.796  11.184   8.412
 2319POPC   C3A33353   7.577  11.003   8.048
 2319POPC   C4A33354   7.621  11.209   7.646
 2319POPC   C1B33355   7.079  11.242   8.701
 2319POPC   C2B33356   7.260  11.319   8.307
 2319POPC   C3B33357   7.160  11.321   7.856
 2319POPC   C4B33358   7.140  10.985   7.496
 2320POPC   NC333359  16.931  23.066   9.487
 2320POPC   PO433360  17.001  22.510   9.394
 2320POPC   GL133361  16.871  22.818   9.033
 2320POPC   GL233362  16.839  23.196   9.004
 2320POPC   C1A33363  16.742  22.912   8.586
 2320POPC   D2A33364  16.802  23.087   8.151
 2320POPC   C3A33365  16.684  22.761   7.842
 2320POPC   C4A33366  16.648  22.405   7.530
 2320POPC   C1B33367  16.464  23.289   8.781
 2320POPC   C2B33368  16.406  23.373   8.325
 2320POPC   C3B33369  16.393  23.240   7.864
 2320POPC   C4B33370  16.748  23.170   7.545
 2321POPC   NC333371  28.105  44.513   9.431
 2321POPC   PO433372  28.621  44.795   9.678
 2321POPC   GL133373  28.293  44.852   9.123
 2321POPC   GL233374  28.143  44.516   8.945
 2321POPC   C1A33375  28.508  44.709   8.674
 2321POPC   D2A33376  28.728  44.806   8.314
 2321POPC   C3A33377  28.423  44.611   8.085
 2321POPC   C4A33378  28.444  44.582   7.677
 2321POPC   C1B33379  28.177  44.333   8.544
 2321POPC   C2B33380  27.921  44.505   8.221
 2321POPC   C3B33381  27.936  44.570   7.810
 2321POPC   C4B33382  28.121  44.193   7.773
 2322POPC   NC333383  34.693   9.071   9.863
 2322POPC   PO433384  34.356   8.641   9.487
 2322POPC   GL133385  34.222   8.933   9.146
 2322POPC   GL233386  34.443   8.801   8.911
 2322POPC   C1A33387  34.390   9.275   8.827
 2322POPC   D2A33388  34.611   9.062   8.492
 2322POPC   C3A33389  34.453   8.951   8.106
 2322POPC   C4A33390  34.623   9.055   7.689
 2322POPC   C1B33391  34.507   8.469   8.652
 2322POPC   C2B33392  34.579   8.502   8.290
 2322POPC   C3B33393  34.783   8.585   7.944
 2322POPC   C4B33394  34.434   8.603   7.710
 2323POPC   NC333395  41.445  31.659   9.512
 2323POPC   PO433396  42.057  31.656   9.537
 2323POPC   GL133397  41.791  31.499   9.163
 2323POPC   GL233398  41.445  31.477   8.997
 2323POPC   C1A33399  41.826  31.215   8.795
 2323POPC   D2A33400  41.559  31.343   8.479
 2323POPC   C3A33401  41.625  31.345   8.056
 2323POPC   C4A33402  41.360  31.469   7.717
 2323POPC   C1B33403  41.434  31.812   8.653
 2323POPC   C2B33404  41.244  32.018   8.277
 2323POPC   C3B33405  41.244  31.961   7.820
 2323POPC   C4B33406  41.388  31.865   7.378
 2324POPC   NC333407  11.705  13.100   9.626
 2324POPC   PO433408  12.077  12.559   9.519
 2324POPC   GL133409  12.127  12.777   9.135
 2324POPC   GL233410  11.864  12.639   8.968
 2324POPC   C1A33411  12.270  12.824   8.691
 2324POPC   D2A33412  11.873  12.653   8.468
 2324POPC   C3A33413  11.895  12.699   8.053
 2324POPC   C4A33414  12.262  12.835   7.845
 2324POPC   C1B33415  11.881  13.103   8.786
 2324POPC   C2B33416  12.051  13.131   8.341
 2324POPC   C3B33417  11.837  13.216   7.957
 2324POPC   C4B33418  11.539  13.192   7.619
 2325POPC   NC333419   0.082  26.024   9.628
 2325POPC   PO433420  44.534  25.951   9.674
 2325POPC   GL133421  44.712  25.948   9.244
 2325POPC   GL233422  44.952  26.220   9.161
 2325POPC   C1A33423  44.671  25.966   8.774
 2325POPC   D2A33424  44.514  25.845   8.350
 2325POPC   C3A33425  44.590  26.104   7.998
 2325POPC   C4A33426  44.655  25.952   7.610
 2325POPC   C1B33427   0.091  26.276   8.721
 2325POPC   C2B33428   0.020  26.090   8.305
 2325POPC   C3B33429   0.096  26.003   7.868
 2325POPC   C4B33430   0.087  26.319   7.567
 2326POPC   NC333431   7.913  31.281   9.315
 2326POPC   PO433432   7.316  31.293   9.661
 2326POPC   GL133433   7.392  31.574   9.225
 2326POPC   GL233434   7.207  31.431   8.935
 2326POPC   C1A33435   7.617  31.739   8.853
 2326POPC   D2A33436   7.772  31.707   8.418
 2326POPC   C3A33437   7.577  31.415   8.147
 2326POPC   C4A33438   7.577  31.504   7.725
 2326POPC   C1B33439   7.210  31.099   8.595
 2326POPC   C2B33440   6.946  30.879   8.334
 2326POPC   C3B33441   6.872  31.023   7.957
 2326POPC   C4B33442   7.171  31.214   7.740
 2327POPC   NC333443  11.697  14.885   9.431
 2327POPC   PO433444  11.674  14.206   9.405
 2327POPC   GL133445  11.315  14.479   9.255
 2327POPC   GL233446  10.978  14.315   9.208
 2327POPC   C1A33447  11.183  14.620   8.843
 2327POPC   D2A33448  11.411  14.566   8.466
 2327POPC   C3A33449  11.237  14.571   8.064
 2327POPC   C4A33450  11.318  14.465   7.639
 2327POPC   C1B33451  11.010  14.095   8.785
 2327POPC   C2B33452  11.192  14.124   8.363
 2327POPC   C3B33453  11.257  14.054   7.957
 2327POPC   C4B33454  10.977  14.078   7.625
 2328POPC   NC333455  40.451  31.585   9.590
 2328POPC   PO433456  39.875  31.357   9.536
 2328POPC   GL133457  40.046  31.566   9.192
 2328POPC   GL233458  40.268  31.321   9.112
 2328POPC   C1A33459  39.858  31.518   8.766
 2328POPC   D2A33460  39.744  31.625   8.325
 2328POPC   C3A33461  39.988  31.611   7.917
 2328POPC   C4A33462  39.889  31.679   7.456
 2328POPC   C1B33463  40.358  31.464   8.690
 2328POPC   C2B33464  40.562  31.374   8.301
 2328POPC   C3B33465  40.346  31.201   7.939
 2328POPC   C4B33466  40.218  31.286   7.504
 2329POPC   NC333467   6.698  13.947   9.493
 2329POPC   PO433468   6.712  13.251   9.570
 2329POPC   GL133469   6.645  13.495   9.212
 2329POPC   GL233470   6.839  13.317   8.960
 2329POPC   C1A33471   6.597  13.772   8.867
 2329POPC   D2A33472   6.697  13.641   8.470
 2329POPC   C3A33473   6.501  13.837   8.152
 2329POPC   C4A33474   6.659  13.719   7.775
 2329POPC   C1B33475   6.403  13.315   8.765
 2329POPC   C2B33476   6.215  13.318   8.358
 2329POPC   C3B33477   6.366  13.357   7.939
 2329POPC   C4B33478   6.362  13.426   7.449
 2330POPC   NC333479  30.653   6.780   9.622
 2330POPC   PO433480  30.932   6.185   9.433
 2330POPC   GL133481  30.658   6.387   9.108
 2330POPC   GL233482  30.523   6.746   9.135
 2330POPC   C1A33483  30.792   6.576   8.728
 2330POPC   D2A33484  30.852   6.825   8.363
 2330POPC   C3A33485  30.814   6.570   8.000
 2330POPC   C4A33486  30.578   6.431   7.675
 2330POPC   C1B33487  30.474   6.998   8.759
 2330POPC   C2B33488  30.384   7.101   8.320
 2330POPC   C3B33489  30.590   7.016   7.931
 2330POPC   C4B33490  30.437   6.876   7.521
 2331POPC   NC333491  12.124  23.552   9.461
 2331POPC   PO433492  11.602  24.065   9.339
 2331POPC   GL133493  11.940  23.842   9.092
 2331POPC   GL233494  11.838  23.616   8.911
 2331POPC   C1A33495  12.265  23.853   8.756
 2331POPC   D2A33496  12.115  23.983   8.345
 2331POPC   C3A33497  12.281  23.882   7.933
 2331POPC   C4A33498  12.302  23.911   7.466
 2331POPC   C1B33499  12.154  23.364   8.673
 2331POPC   C2B33500  12.341  23.443   8.262
 2331POPC   C3B33501  12.104  23.411   7.888
 2331POPC   C4B33502  11.874  23.691   7.630
 2332POPC   NC333503  16.206  24.919   9.354
 2332POPC   PO433504  16.097  25.566   9.525
 2332POPC   GL133505  15.920  25.351   9.196
 2332POPC   GL233506  15.583  25.273   9.262
 2332POPC   C1A33507  16.068  25.318   8.772
 2332POPC   D2A33508  16.283  25.382   8.366
 2332POPC   C3A33509  16.150  25.160   7.973
 2332POPC   C4A33510  15.974  25.344   7.582
 2332POPC   C1B33511  15.566  25.288   8.818
 2332POPC   C2B33512  15.764  25.231   8.388
 2332POPC   C3B33513  15.660  25.276   7.991
 2332POPC   C4B33514  15.616  24.981   7.665
 2333POPC   NC333515   1.825  33.426   9.315
 2333POPC   PO433516   2.395  33.392   9.433
 2333POPC   GL133517   2.182  33.707   9.096
 2333POPC   GL233518   1.845  33.943   9.138
 2333POPC   C1A33519   1.943  33.679   8.705
 2333POPC   D2A33520   2.045  33.552   8.314
 2333POPC   C3A33521   1.748  33.527   7.971
 2333POPC   C4A33522   1.992  33.440   7.593
 2333POPC   C1B33523   1.755  34.158   8.727
 2333POPC   C2B33524   1.736  33.995   8.305
 2333POPC   C3B33525   2.029  33.964   7.957
 2333POPC   C4B33526   1.748  33.916   7.620
 2334POPC   NC333527  17.493  10.082   9.810
 2334POPC   PO433528  17.348  10.714   9.422
 2334POPC   GL133529  17.521  10.801   9.034
 2334POPC   GL233530  17.674  10.530   9.021
 2334POPC   C1A33531  17.719  10.810   8.616
 2334POPC   D2A33532  17.425  10.822   8.325
 2334POPC   C3A33533  17.554  10.729   7.921
 2334POPC   C4A33534  17.586  10.997   7.601
 2334POPC   C1B33535  17.769  10.297   8.686
 2334POPC   C2B33536  17.636  10.359   8.287
 2334POPC   C3B33537  17.783  10.264   7.901
 2334POPC   C4B33538  17.602  10.303   7.518
 2335POPC   NC333539  34.886  17.247   9.372
 2335POPC   PO433540  34.412  17.538   9.753
 2335POPC   GL133541  34.461  17.511   9.291
 2335POPC   GL233542  34.481  17.212   9.085
 2335POPC   C1A33543  34.608  17.628   8.832
 2335POPC   D2A33544  34.915  17.705   8.477
 2335POPC   C3A33545  34.775  17.588   8.071
 2335POPC   C4A33546  34.424  17.764   7.856
 2335POPC   C1B33547  34.775  17.178   8.715
 2335POPC   C2B33548  34.699  17.144   8.291
 2335POPC   C3B33549  34.485  17.205   7.877
 2335POPC   C4B33550  34.776  17.211   7.519
 2336POPC   NC333551  34.250  40.973   9.408
 2336POPC   PO433552  34.904  40.911   9.614
 2336POPC   GL133553  34.710  40.717   9.235
 2336POPC   GL233554  34.915  40.438   9.078
 2336POPC   C1A33555  34.589  40.899   8.821
 2336POPC   D2A33556  34.297  40.806   8.486
 2336POPC   C3A33557  34.366  41.018   8.116
 2336POPC   C4A33558  34.524  40.825   7.774
 2336POPC   C1B33559  34.961  40.576   8.655
 2336POPC   C2B33560  34.769  40.706   8.273
 2336POPC   C3B33561  34.946  40.571   7.912
 2336POPC   C4B33562  35.025  40.169   7.723
 2337POPC   NC333563   5.643  10.692   9.407
 2337POPC   PO433564   6.172  10.209   9.626
 2337POPC   GL133565   6.077  10.356   9.172
 2337POPC   GL233566   6.034  10.749   9.091
 2337POPC   C1A33567   6.003  10.185   8.733
 2337POPC   D2A33568   5.735  10.034   8.370
 2337POPC   C3A33569   5.793  10.323   8.028
 2337POPC   C4A33570   5.857  10.260   7.569
 2337POPC   C1B33571   5.745  10.633   8.753
 2337POPC   C2B33572   5.438  10.696   8.424
 2337POPC   C3B33573   5.494  10.876   8.030
 2337POPC   C4B33574   5.820  10.745   7.716
 2338POPC   NC333575  43.844   4.800   9.650
 2338POPC   PO433576  44.283   5.270   9.476
 2338POPC   GL133577  44.050   4.981   9.193
 2338POPC   GL233578  43.691   5.106   9.144
 2338POPC   C1A33579  43.914   4.895   8.751
 2338POPC   D2A33580  43.739   5.260   8.514
 2338POPC   C3A33581  43.828   5.285   8.097
 2338POPC   C4A33582  44.049   4.931   7.903
 2338POPC   C1B33583  43.404   4.980   8.789
 2338POPC   C2B33584  43.366   4.966   8.318
 2338POPC   C3B33585  43.543   4.838   7.925
 2338POPC   C4B33586  43.688   5.137   7.615
 2339POPC   NC333587  15.389  11.087   9.508
 2339POPC   PO433588  14.776  11.306   9.628
 2339POPC   GL133589  15.049  11.341   9.212
 2339POPC   GL233590  15.321  11.574   9.248
 2339POPC   C1A33591  15.342  11.299   8.814
 2339POPC   D2A33592  15.453  11.102   8.384
 2339POPC   C3A33593  15.450  11.019   7.938
 2339POPC   C4A33594  15.178  11.251   7.672
 2339POPC   C1B33595  15.064  11.708   8.848
 2339POPC   C2B33596  14.935  11.646   8.423
 2339POPC   C3B33597  15.132  11.641   8.025
 2339POPC   C4B33598  15.033  11.765   7.620
 2340POPC   NC333599  40.132  16.464   9.335
 2340POPC   PO433600  39.823  15.836   9.537
 2340POPC   GL133601  39.967  15.813   9.113
 2340POPC   GL233602  40.080  16.127   8.979
 2340POPC   C1A33603  39.771  15.878   8.691
 2340POPC   D2A33604  39.962  16.204   8.384
 2340POPC   C3A33605  40.010  16.060   7.941
 2340POPC   C4A33606  39.781  15.746   7.806
 2340POPC   C1B33607  40.277  15.926   8.632
 2340POPC   C2B33608  40.447  16.049   8.196
 2340POPC   C3B33609  40.480  15.954   7.735
 2340POPC   C4B33610  40.455  16.141   7.260
 2341POPC   NC333611  43.404  15.299   9.809
 2341POPC   PO433612  42.788  15.426   9.616
 2341POPC   GL133613  43.014  15.364   9.239
 2341POPC   GL233614  43.168  15.681   9.197
 2341POPC   C1A33615  42.987  15.139   8.816
 2341POPC   D2A33616  42.851  15.018   8.360
 2341POPC   C3A33617  43.151  14.977   7.998
 2341POPC   C4A33618  43.306  15.157   7.603
 2341POPC   C1B33619  43.006  15.654   8.784
 2341POPC   C2B33620  43.138  15.440   8.416
 2341POPC   C3B33621  43.168  15.500   7.980
 2341POPC   C4B33622  43.302  15.664   7.597
 2342POPC   NC333623  27.877   9.801   9.491
 2342POPC   PO433624  27.280   9.626   9.787
 2342POPC   GL133625  27.422   9.535   9.321
 2342POPC   GL233626  27.510   9.849   9.134
 2342POPC   C1A33627  27.523   9.399   8.856
 2342POPC   D2A33628  27.445   9.268   8.388
 2342POPC   C3A33629  27.554   9.549   8.003
 2342POPC   C4A33630  27.460   9.517   7.557
 2342POPC   C1B33631  27.530  10.064   8.726
 2342POPC   C2B33632  27.471   9.977   8.287
 2342POPC   C3B33633  27.656  10.090   7.877
 2342POPC   C4B33634  27.866   9.817   7.562
 2343POPC   NC333635  36.035  37.297   9.396
 2343POPC   PO433636  36.082  37.957   9.534
 2343POPC   GL133637  36.179  37.804   9.128
 2343POPC   GL233638  35.861  37.944   9.069
 2343POPC   C1A33639  36.057  37.656   8.684
 2343POPC   D2A33640  35.942  37.683   8.219
 2343POPC   C3A33641  36.298  37.571   7.904
 2343POPC   C4A33642  36.390  37.726   7.451
 2343POPC   C1B33643  35.671  38.125   8.741
 2343POPC   C2B33644  35.466  38.026   8.371
 2343POPC   C3B33645  35.618  38.064   7.958
 2343POPC   C4B33646  35.934  37.866   7.702
 2344POPC   NC333647  43.686   0.872   9.556
 2344POPC   PO433648  43.954   0.322   9.449
 2344POPC   GL133649  43.694   0.362   9.109
 2344POPC   GL233650  43.858   0.681   9.105
 2344POPC   C1A33651  43.610   0.484   8.677
 2344POPC   D2A33652  43.608   0.201   8.330
 2344POPC   C3A33653  43.751   0.088   7.934
 2344POPC   C4A33654  43.460   0.265   7.663
 2344POPC   C1B33655  44.108   0.638   8.746
 2344POPC   C2B33656  43.972   0.767   8.337
 2344POPC   C3B33657  43.920   0.564   7.949
 2344POPC   C4B33658  43.867   0.593   7.503
 2345POPC   NC333659  18.109  37.839   9.618
 2345POPC   PO433660  18.474  37.282   9.686
 2345POPC   GL133661  18.380  37.549   9.283
 2345POPC   GL233662  18.504  37.883   9.197
 2345POPC   C1A33663  18.094  37.672   8.921
 2345POPC   D2A33664  18.136  37.968   8.556
 2345POPC   C3A33665  18.147  37.781   8.144
 2345POPC   C4A33666  18.232  37.852   7.699
 2345POPC   C1B33667  18.571  37.760   8.770
 2345POPC   C2B33668  18.612  37.613   8.363
 2345POPC   C3B33669  18.647  37.792   7.969
 2345POPC   C4B33670  18.661  37.545   7.592
 2346POPC   NC333671  20.255  40.510   9.427
 2346POPC   PO433672  20.803  40.819   9.575
 2346POPC   GL133673  20.740  40.633   9.184
 2346POPC   GL233674  21.063  40.570   9.025
 2346POPC   C1A33675  20.482  40.851   8.856
 2346POPC   D2A33676  20.385  40.965   8.427
 2346POPC   C3A33677  20.419  40.586   8.172
 2346POPC   C4A33678  20.487  40.501   7.746
 2346POPC   C1B33679  20.972  41.007   8.914
 2346POPC   C2B33680  20.893  41.025   8.473
 2346POPC   C3B33681  20.893  41.009   8.027
 2346POPC   C4B33682  20.997  40.736   7.701
 2347POPC   NC333683  43.587   7.968   9.490
 2347POPC   PO433684  43.895   8.415   9.128
 2347POPC   GL133685  43.895   7.941   9.088
 2347POPC   GL233686  44.214   7.788   8.982
 2347POPC   C1A33687  43.748   7.776   8.724
 2347POPC   D2A33688  43.838   8.028   8.330
 2347POPC   C3A33689  43.994   7.916   7.921
 2347POPC   C4A33690  43.988   8.005   7.465
 2347POPC   C1B33691  44.245   8.110   8.625
 2347POPC   C2B33692  44.220   8.329   8.184
 2347POPC   C3B33693  44.023   8.432   7.754
 2347POPC   C4B33694  44.152   8.669   7.354
 2348POPC   NC333695  28.741  33.144   9.524
 2348POPC   PO433696  28.119  32.864   9.623
 2348POPC   GL133697  28.357  32.877   9.224
 2348POPC   GL233698  28.408  33.233   9.142
 2348POPC   C1A33699  28.506  32.837   8.784
 2348POPC   D2A33700  28.621  33.153   8.433
 2348POPC   C3A33701  28.501  33.039   8.053
 2348POPC   C4A33702  28.252  32.802   7.819
 2348POPC   C1B33703  28.165  33.191   8.772
 2348POPC   C2B33704  28.091  33.105   8.375
 2348POPC   C3B33705  28.121  33.399   8.086
 2348POPC   C4B33706  28.188  33.309   7.704
 2349POPC   NC333707  24.455  40.016   9.633
 2349POPC   PO433708  24.162  40.444   9.260
 2349POPC   GL133709  24.499  40.145   9.136
 2349POPC   GL233710  24.401  39.865   8.951
 2349POPC   C1A33711  24.871  40.103   8.874
 2349POPC   D2A33712  25.005  40.281   8.467
 2349POPC   C3A33713  24.702  40.242   8.127
 2349POPC   C4A33714  24.468  40.069   7.763
 2349POPC   C1B33715  24.438  40.107   8.551
 2349POPC   C2B33716  24.165  40.229   8.166
 2349POPC   C3B33717  23.978  40.205   7.731
 2349POPC   C4B33718  24.072  40.092   7.286
 2350POPC   NC333719   0.152  30.600   9.404
 2350POPC   PO433720   0.886  30.490   9.487
 2350POPC   GL133721   0.609  30.453   9.149
 2350POPC   GL233722   0.507  30.780   9.021
 2350POPC   C1A33723   0.668  30.362   8.711
 2350POPC   D2A33724   0.658  30.643   8.404
 2350POPC   C3A33725   0.620  30.485   7.976
 2350POPC   C4A33726   0.529  30.818   7.686
 2350POPC   C1B33727   0.213  30.877   8.682
 2350POPC   C2B33728   0.260  30.888   8.249
 2350POPC   C3B33729   0.136  31.049   7.886
 2350POPC   C4B33730   0.159  31.085   7.417
 2351POPC   NC333731  33.673  20.460   9.522
 2351POPC   PO433732  34.096  20.877   9.718
 2351POPC   GL133733  34.040  20.523   9.207
 2351POPC   GL233734  33.838  20.731   8.934
 2351POPC   C1A33735  34.181  20.446   8.750
 2351POPC   D2A33736  34.030  20.678   8.398
 2351POPC   C3A33737  33.946  20.463   7.979
 2351POPC   C4A33738  33.536  20.382   7.775
 2351POPC   C1B33739  33.687  21.015   8.629
 2351POPC   C2B33740  33.663  20.979   8.197
 2351POPC   C3B33741  33.735  21.139   7.827
 2351POPC   C4B33742  33.786  20.815   7.615
 2352POPC   NC333743  17.118   9.338   9.665
 2352POPC   PO433744  17.329   8.878   9.281
 2352POPC   GL133745  17.520   9.087   9.007
 2352POPC   GL233746  17.873   9.138   9.175
 2352POPC   C1A33747  17.273   9.073   8.601
 2352POPC   D2A33748  17.097   8.967   8.186
 2352POPC   C3A33749  17.201   9.161   7.804
 2352POPC   C4A33750  17.478   8.972   7.509
 2352POPC   C1B33751  17.939   8.882   8.813
 2352POPC   C2B33752  17.751   8.996   8.435
 2352POPC   C3B33753  17.661   9.022   8.015
 2352POPC   C4B33754  17.923   8.827   7.748
 2353POPC   NC333755  29.617  16.689   9.479
 2353POPC   PO433756  30.142  17.120   9.531
 2353POPC   GL133757  29.990  16.973   9.128
 2353POPC   GL233758  29.665  16.997   9.080
 2353POPC   C1A33759  29.990  16.717   8.750
 2353POPC   D2A33760  30.019  16.884   8.321
 2353POPC   C3A33761  29.898  16.587   8.012
 2353POPC   C4A33762  30.088  16.441   7.622
 2353POPC   C1B33763  29.688  17.116   8.642
 2353POPC   C2B33764  29.485  16.917   8.289
 2353POPC   C3B33765  29.492  16.906   7.863
 2353POPC   C4B33766  29.823  16.873   7.580
 2354POPC   NC333767   5.695   4.806   9.571
 2354POPC   PO433768   5.694   4.175   9.424
 2354POPC   GL133769   5.903   4.162   9.079
 2354POPC   GL233770   5.912   4.530   9.095
 2354POPC   C1A33771   6.047   4.230   8.678
 2354POPC   D2A33772   6.229   4.288   8.278
 2354POPC   C3A33773   5.902   4.236   8.025
 2354POPC   C4A33774   5.894   4.070   7.690
 2354POPC   C1B33775   6.148   4.745   8.760
 2354POPC   C2B33776   6.325   4.800   8.363
 2354POPC   C3B33777   6.146   4.726   7.983
 2354POPC   C4B33778   5.994   4.606   7.613
 2355POPC   NC333779  19.787  29.071   9.445
 2355POPC   PO433780  20.163  29.611   9.322
 2355POPC   GL133781  19.903  29.367   9.064
 2355POPC   GL233782  19.508  29.340   9.036
 2355POPC   C1A33783  19.848  29.158   8.700
 2355POPC   D2A33784  19.639  29.162   8.311
 2355POPC   C3A33785  19.992  29.069   8.049
 2355POPC   C4A33786  20.378  28.998   7.808
 2355POPC   C1B33787  19.427  28.910   8.802
 2355POPC   C2B33788  19.451  28.700   8.396
 2355POPC   C3B33789  19.588  28.776   7.949
 2355POPC   C4B33790  19.620  29.211   7.728
 2356POPC   NC333791  34.119  31.379   9.400
 2356POPC   PO433792  33.715  31.879   9.669
 2356POPC   GL133793  33.709  31.658   9.206
 2356POPC   GL233794  33.825  31.346   8.949
 2356POPC   C1A33795  33.750  31.771   8.742
 2356POPC   D2A33796  33.813  31.434   8.397
 2356POPC   C3A33797  33.740  31.495   7.932
 2356POPC   C4A33798  33.727  31.205   7.562
 2356POPC   C1B33799  34.188  31.246   8.697
 2356POPC   C2B33800  34.322  31.364   8.270
 2356POPC   C3B33801  34.147  31.207   7.868
 2356POPC   C4B33802  34.172  30.993   7.448
 2357POPC   NC333803  13.411   3.591   9.604
 2357POPC   PO433804  14.136   3.687   9.629
 2357POPC   GL133805  13.843   3.588   9.266
 2357POPC   GL233806  13.514   3.493   9.124
 2357POPC   C1A33807  13.869   3.573   8.785
 2357POPC   D2A33808  13.595   3.667   8.437
 2357POPC   C3A33809  13.677   3.707   7.977
 2357POPC   C4A33810  13.676   3.705   7.544
 2357POPC   C1B33811  13.455   3.257   8.729
 2357POPC   C2B33812  13.617   3.146   8.332
 2357POPC   C3B33813  13.472   3.259   7.944
 2357POPC   C4B33814  13.559   3.227   7.522
 2358POPC   NC333815   0.297  35.714   9.636
 2358POPC   PO433816   0.419  36.357   9.668
 2358POPC   GL133817   0.418  36.173   9.248
 2358POPC   GL233818   0.110  35.976   9.243
 2358POPC   C1A33819   0.471  36.365   8.809
 2358POPC   D2A33820   0.737  36.443   8.438
 2358POPC   C3A33821   0.548  36.245   8.088
 2358POPC   C4A33822   0.270  36.408   7.812
 2358POPC   C1B33823   0.198  35.918   8.816
 2358POPC   C2B33824   0.004  35.757   8.425
 2358POPC   C3B33825   0.252  35.752   8.015
 2358POPC   C4B33826   0.212  35.920   7.582
 2359POPC   NC333827  37.201  22.111   9.451
 2359POPC   PO433828  36.601  22.341   9.470
 2359POPC   GL133829  36.812  22.142   9.122
 2359POPC   GL233830  37.122  22.352   9.017
 2359POPC   C1A33831  36.722  22.153   8.704
 2359POPC   D2A33832  36.918  22.231   8.333
 2359POPC   C3A33833  36.626  22.108   8.050
 2359POPC   C4A33834  36.709  22.212   7.635
 2359POPC   C1B33835  37.215  22.024   8.722
 2359POPC   C2B33836  37.244  21.827   8.305
 2359POPC   C3B33837  37.093  21.961   7.892
 2359POPC   C4B33838  37.145  21.968   7.418
 2360POPC   NC333839   3.272  21.166   9.435
 2360POPC   PO433840   3.903  21.075   9.455
 2360POPC   GL133841   3.677  21.252   9.108
 2360POPC   GL233842   3.533  21.552   9.233
 2360POPC   C1A33843   3.467  21.120   8.718
 2360POPC   D2A33844   3.610  20.903   8.325
 2360POPC   C3A33845   3.560  21.208   8.003
 2360POPC   C4A33846   3.740  21.398   7.689
 2360POPC   C1B33847   3.503  21.631   8.771
 2360POPC   C2B33848   3.380  21.544   8.359
 2360POPC   C3B33849   3.278  21.627   7.912
 2360POPC   C4B33850   3.402  21.728   7.473
 2361POPC   NC333851   7.186  20.409   9.346
 2361POPC   PO433852   6.788  20.674   9.944
 2361POPC   GL133853   6.743  20.727   9.419
 2361POPC   GL233854   6.587  20.483   9.225
 2361POPC   C1A33855   6.705  20.838   8.897
 2361POPC   D2A33856   6.871  20.873   8.448
 2361POPC   C3A33857   6.611  20.737   8.062
 2361POPC   C4A33858   6.683  20.729   7.572
 2361POPC   C1B33859   6.380  20.434   8.849
 2361POPC   C2B33860   6.586  20.292   8.467
 2361POPC   C3B33861   6.357  20.119   8.122
 2361POPC   C4B33862   6.465  20.284   7.727
 2362POPC   NC333863   5.186  35.931   9.373
 2362POPC   PO433864   5.469  36.543   9.313
 2362POPC   GL133865   5.334  36.291   9.010
 2362POPC   GL233866   4.966  36.244   8.962
 2362POPC   C1A33867   5.412  35.972   8.726
 2362POPC   D2A33868   5.220  35.956   8.344
 2362POPC   C3A33869   5.283  36.250   8.019
 2362POPC   C4A33870   5.058  36.434   7.714
 2362POPC   C1B33871   4.845  35.842   8.789
 2362POPC   C2B33872   4.829  35.649   8.387
 2362POPC   C3B33873   4.865  35.877   7.960
 2362POPC   C4B33874   4.955  35.684   7.564
 2363POPC   NC333875  16.532  38.793   9.574
 2363POPC   PO433876  16.985  39.385   9.611
 2363POPC   GL133877  16.940  39.252   9.177
 2363POPC   GL233878  16.883  38.918   9.216
 2363POPC   C1A33879  16.631  39.202   8.791
 2363POPC   D2A33880  16.404  39.277   8.350
 2363POPC   C3A33881  16.633  39.390   7.931
 2363POPC   C4A33882  16.813  39.442   7.473
 2363POPC   C1B33883  17.009  38.802   8.824
 2363POPC   C2B33884  16.872  38.926   8.404
 2363POPC   C3B33885  16.611  38.886   8.046
 2363POPC   C4B33886  16.743  38.973   7.628
 2364POPC   NC333887  40.417  26.407   9.578
 2364POPC   PO433888  40.192  27.120   9.522
 2364POPC   GL133889  40.188  26.941   9.104
 2364POPC   GL233890  40.186  26.616   9.181
 2364POPC   C1A33891  39.996  26.751   8.727
 2364POPC   D2A33892  39.743  26.863   8.400
 2364POPC   C3A33893  39.919  26.941   8.005
 2364POPC   C4A33894  39.694  26.772   7.695
 2364POPC   C1B33895  40.357  26.424   8.870
 2364POPC   C2B33896  40.163  26.314   8.481
 2364POPC   C3B33897  39.988  26.441   8.098
 2364POPC   C4B33898  40.237  26.525   7.733
 2365POPC   NC333899  19.055   5.741   9.664
 2365POPC   PO433900  18.435   5.610   9.459
 2365POPC   GL133901  18.782   5.813   9.171
 2365POPC   GL233902  19.152   5.890   9.139
 2365POPC   C1A33903  18.895   5.758   8.698
 2365POPC   D2A33904  18.683   5.713   8.287
 2365POPC   C3A33905  18.885   5.869   7.912
 2365POPC   C4A33906  19.295   5.749   7.869
 2365POPC   C1B33907  19.132   6.192   8.755
 2365POPC   C2B33908  19.130   6.058   8.313
 2365POPC   C3B33909  19.298   6.245   7.925
 2365POPC   C4B33910  19.100   6.165   7.531
 2366POPC   NC333911  34.671   5.246   9.678
 2366POPC   PO433912  34.056   5.061   9.758
 2366POPC   GL133913  34.306   5.165   9.328
 2366POPC   GL233914  34.290   4.894   9.104
 2366POPC   C1A33915  34.282   5.371   8.856
 2366POPC   D2A33916  34.246   5.282   8.364
 2366POPC   C3A33917  34.586   5.303   8.011
 2366POPC   C4A33918  34.850   5.230   7.622
 2366POPC   C1B33919  34.472   4.930   8.672
 2366POPC   C2B33920  34.733   4.929   8.308
 2366POPC   C3B33921  34.695   4.795   7.874
 2366POPC   C4B33922  34.615   4.544   7.483
 2367POPC   NC333923  36.780  14.000   9.519
 2367POPC   PO433924  36.788  13.311   9.395
 2367POPC   GL133925  36.926  13.624   9.122
 2367POPC   GL233926  37.154  13.928   9.155
 2367POPC   C1A33927  36.816  13.559   8.708
 2367POPC   D2A33928  37.002  13.559   8.303
 2367POPC   C3A33929  36.795  13.551   7.906
 2367POPC   C4A33930  37.163  13.395   7.716
 2367POPC   C1B33931  36.883  14.071   8.785
 2367POPC   C2B33932  36.701  13.968   8.372
 2367POPC   C3B33933  36.962  14.031   8.010
 2367POPC   C4B33934  36.987  13.899   7.593
 2368POPC   NC333935  28.052   3.137   9.344
 2368POPC   PO433936  28.294   2.534   9.489
 2368POPC   GL133937  28.579   2.668   9.170
 2368POPC   GL233938  28.485   2.992   9.052
 2368POPC   C1A33939  28.671   2.572   8.763
 2368POPC   D2A33940  28.454   2.826   8.503
 2368POPC   C3A33941  28.408   2.719   8.100
 2368POPC   C4A33942  28.717   2.723   7.790
 2368POPC   C1B33943  28.793   3.138   8.729
 2368POPC   C2B33944  28.831   3.063   8.285
 2368POPC   C3B33945  28.630   3.195   7.962
 2368POPC   C4B33946  28.309   3.094   7.734
 2369POPC   NC333947  24.488  29.897   9.260
 2369POPC   PO433948  24.715  29.273   9.392
 2369POPC   GL133949  24.617  29.472   8.995
 2369POPC   GL233950  24.869  29.709   8.964
 2369POPC   C1A33951  24.445  29.803   8.651
 2369POPC   D2A33952  24.167  29.865   8.305
 2369POPC   C3A33953  24.266  29.712   7.944
 2369POPC   C4A33954  24.325  30.046   7.696
 2369POPC   C1B33955  24.897  29.590   8.582
 2369POPC   C2B33956  24.700  29.752   8.218
 2369POPC   C3B33957  24.802  29.898   7.835
 2369POPC   C4B33958  24.970  29.771   7.470
 2370POPC   NC333959   9.966  40.193   9.475
 2370POPC   PO433960  10.054  39.499   9.451
 2370POPC   GL133961  10.066  39.850   9.064
 2370POPC   GL233962  10.114  40.220   9.002
 2370POPC   C1A33963   9.958  39.741   8.610
 2370POPC   D2A33964   9.578  39.680   8.307
 2370POPC   C3A33965   9.575  39.979   7.949
 2370POPC   C4A33966   9.464  40.285   7.601
 2370POPC   C1B33967   9.932  40.263   8.609
 2370POPC   C2B33968  10.016  40.095   8.197
 2370POPC   C3B33969   9.923  40.346   7.808
 2370POPC   C4B33970   9.959  40.242   7.381
 2371POPC   NC333971  23.400  30.409   9.374
 2371POPC   PO433972  22.807  30.603   9.627
 2371POPC   GL133973  22.856  30.490   9.219
 2371POPC   GL233974  23.051  30.710   9.103
 2371POPC   C1A33975  22.748  30.344   8.815
 2371POPC   D2A33976  23.017  30.421   8.470
 2371POPC   C3A33977  22.953  30.596   8.078
 2371POPC   C4A33978  22.674  30.361   7.880
 2371POPC   C1B33979  22.928  30.866   8.713
 2371POPC   C2B33980  23.284  30.861   8.430
 2371POPC   C3B33981  23.325  30.950   8.027
 2371POPC   C4B33982  23.143  30.877   7.618
 2372POPC   NC333983   9.366  43.368   9.422
 2372POPC   PO433984   9.814  42.896   9.537
 2372POPC   GL133985   9.688  43.056   9.125
 2372POPC   GL233986   9.326  42.950   9.104
 2372POPC   C1A33987   9.900  43.232   8.715
 2372POPC   D2A33988   9.808  43.158   8.231
 2372POPC   C3A33989  10.157  43.147   7.884
 2372POPC   C4A33990  10.042  43.270   7.420
 2372POPC   C1B33991   9.493  42.889   8.681
 2372POPC   C2B33992   9.504  42.722   8.275
 2372POPC   C3B33993   9.477  42.736   7.830
 2372POPC   C4B33994   9.683  43.105   7.719
 2373POPC   NC333995  30.979  34.983   9.460
 2373POPC   PO433996  30.564  35.444   9.472
 2373POPC   GL133997  30.773  35.519   9.097
 2373POPC   GL233998  30.661  35.196   9.048
 2373POPC   C1A33999  30.649  35.531   8.670
 2373POPC   D2A34000  30.645  35.183   8.400
 2373POPC   C3A34001  30.676  35.333   8.021
 2373POPC   C4A34002  30.605  35.427   7.606
 2373POPC   C1B34003  30.321  35.070   8.775
 2373POPC   C2B34004  30.125  35.030   8.330
 2373POPC   C3B34005  30.215  35.181   7.895
 2373POPC   C4B34006  30.266  35.123   7.436
 2374POPC   NC334007   4.680  12.845   9.175
 2374POPC   PO434008   4.141  12.931   9.540
 2374POPC   GL134009   4.122  12.742   9.150
 2374POPC   GL234010   4.246  13.026   8.970
 2374POPC   C1A34011   4.022  12.682   8.695
 2374POPC   D2A34012   4.128  12.980   8.363
 2374POPC   C3A34013   4.057  12.813   7.966
 2374POPC   C4A34014   4.043  13.010   7.581
 2374POPC   C1B34015   4.570  12.997   8.592
 2374POPC   C2B34016   4.586  12.773   8.216
 2374POPC   C3B34017   4.595  12.877   7.817
 2374POPC   C4B34018   4.537  13.047   7.426
 2375POPC   NC334019   6.557  40.237   9.813
 2375POPC   PO434020   6.837  40.769   9.494
 2375POPC   GL134021   6.769  40.799   9.050
 2375POPC   GL234022   6.414  40.871   9.003
 2375POPC   C1A34023   6.869  40.698   8.634
 2375POPC   D2A34024   7.055  40.649   8.239
 2375POPC   C3A34025   6.820  40.634   7.883
 2375POPC   C4A34026   6.598  40.993   7.754
 2375POPC   C1B34027   6.400  40.484   8.695
 2375POPC   C2B34028   6.483  40.461   8.234
 2375POPC   C3B34029   6.262  40.643   7.858
 2375POPC   C4B34030   6.168  40.861   7.431
 2376POPC   NC334031   8.088  40.378   9.210
 2376POPC   PO434032   8.081  40.920   9.625
 2376POPC   GL134033   8.343  40.850   9.272
 2376POPC   GL234034   8.130  41.091   9.139
 2376POPC   C1A34035   8.444  40.781   8.829
 2376POPC   D2A34036   8.460  40.438   8.517
 2376POPC   C3A34037   8.300  40.532   8.116
 2376POPC   C4A34038   8.305  40.741   7.706
 2376POPC   C1B34039   8.030  41.156   8.754
 2376POPC   C2B34040   8.168  40.968   8.424
 2376POPC   C3B34041   7.957  40.907   8.080
 2376POPC   C4B34042   7.866  41.153   7.755
 2377POPC   NC334043  39.579  40.376   9.273
 2377POPC   PO434044  40.085  40.568   9.654
 2377POPC   GL134045  40.105  40.749   9.231
 2377POPC   GL234046  39.787  40.809   9.030
 2377POPC   C1A34047  40.277  40.828   8.805
 2377POPC   D2A34048  40.088  40.815   8.395
 2377POPC   C3A34049  40.110  40.884   7.957
 2377POPC   C4A34050  40.245  40.971   7.531
 2377POPC   C1B34051  39.725  40.545   8.641
 2377POPC   C2B34052  39.674  40.614   8.174
 2377POPC   C3B34053  39.720  40.677   7.701
 2377POPC   C4B34054  39.632  40.622   7.235
 2378POPC   NC334055  43.024  25.036   9.574
 2378POPC   PO434056  43.626  25.374   9.591
 2378POPC   GL134057  43.266  25.403   9.271
 2378POPC   GL234058  42.903  25.496   9.318
 2378POPC   C1A34059  43.088  25.175   8.904
 2378POPC   D2A34060  43.159  25.035   8.475
 2378POPC   C3A34061  42.928  25.216   8.136
 2378POPC   C4A34062  42.975  25.060   7.715
 2378POPC   C1B34063  42.873  25.647   8.887
 2378POPC   C2B34064  43.069  25.557   8.501
 2378POPC   C3B34065  43.319  25.526   8.098
 2378POPC   C4B34066  42.981  25.594   7.797
 2379POPC   NC334067  42.626   3.988   9.171
 2379POPC   PO434068  42.497   4.582   9.523
 2379POPC   GL134069  42.599   4.489   9.093
 2379POPC   GL234070  42.267   4.334   9.096
 2379POPC   C1A34071  42.468   4.353   8.632
 2379POPC   D2A34072  42.616   4.433   8.212
 2379POPC   C3A34073  42.611   4.090   7.915
 2379POPC   C4A34074  42.433   4.037   7.495
 2379POPC   C1B34075  41.980   4.105   8.860
 2379POPC   C2B34076  41.855   4.238   8.450
 2379POPC   C3B34077  42.081   4.282   8.065
 2379POPC   C4B34078  41.944   4.078   7.686
 2380POPC   NC334079   3.413  38.042   9.680
 2380POPC   PO434080   3.177  38.711   9.540
 2380POPC   GL134081   3.462  38.405   9.296
 2380POPC   GL234082   3.506  38.635   9.109
 2380POPC   C1A34083   3.667  38.241   8.870
 2380POPC   D2A34084   3.655  38.455   8.500
 2380POPC   C3A34085   3.642  38.249   8.141
 2380POPC   C4A34086   3.664  38.405   7.766
 2380POPC   C1B34087   3.469  38.856   8.768
 2380POPC   C2B34088   3.314  38.893   8.391
 2380POPC   C3B34089   3.469  38.818   8.009
 2380POPC   C4B34090   3.323  38.741   7.581
 2381POPC   NC334091   4.453  15.949   9.365
 2381POPC   PO434092   3.874  16.270   9.484
 2381POPC   GL134093   4.085  16.207   9.112
 2381POPC   GL234094   4.028  15.839   9.006
 2381POPC   C1A34095   4.211  16.173   8.709
 2381POPC   D2A34096   4.113  15.868   8.453
 2381POPC   C3A34097   4.107  16.023   8.080
 2381POPC   C4A34098   4.393  16.027   7.789
 2381POPC   C1B34099   4.447  15.697   8.791
 2381POPC   C2B34100   4.632  15.504   8.461
 2381POPC   C3B34101   4.609  15.662   8.095
 2381POPC   C4B34102   4.448  15.527   7.744
 2382POPC   NC334103  35.951  33.932   9.444
 2382POPC   PO434104  36.376  33.416   9.376
 2382POPC   GL134105  36.270  33.745   9.099
 2382POPC   GL234106  35.953  33.561   9.058
 2382POPC   C1A34107  36.055  34.001   8.777
 2382POPC   D2A34108  35.956  34.237   8.413
 2382POPC   C3A34109  36.314  34.168   8.186
 2382POPC   C4A34110  36.392  34.055   7.757
 2382POPC   C1B34111  36.205  33.462   8.689
 2382POPC   C2B34112  36.285  33.687   8.314
 2382POPC   C3B34113  36.018  33.798   7.970
 2382POPC   C4B34114  35.945  33.494   7.656
 2383POPC   NC334115  16.644  14.162   9.559
 2383POPC   PO434116  17.050  14.627   9.669
 2383POPC   GL134117  16.903  14.354   9.191
 2383POPC   GL234118  16.537  14.391   9.108
 2383POPC   C1A34119  16.800  14.358   8.704
 2383POPC   D2A34120  16.906  14.493   8.279
 2383POPC   C3A34121  16.710  14.252   7.928
 2383POPC   C4A34122  16.754  14.268   7.478
 2383POPC   C1B34123  16.484  14.751   8.812
 2383POPC   C2B34124  16.427  14.862   8.426
 2383POPC   C3B34125  16.581  14.805   8.040
 2383POPC   C4B34126  16.442  14.680   7.641
 2384POPC   NC334127  37.362  41.162   9.521
 2384POPC   PO434128  37.858  41.560   9.626
 2384POPC   GL134129  37.778  41.428   9.228
 2384POPC   GL234130  38.116  41.481   9.138
 2384POPC   C1A34131  37.645  41.291   8.822
 2384POPC   D2A34132  37.636  41.578   8.455
 2384POPC   C3A34133  37.387  41.483   8.096
 2384POPC   C4A34134  37.462  41.304   7.720
 2384POPC   C1B34135  38.081  41.552   8.738
 2384POPC   C2B34136  38.264  41.769   8.414
 2384POPC   C3B34137  38.141  41.878   8.019
 2384POPC   C4B34138  37.753  41.724   7.784
 2385POPC   NC334139  20.509  14.616   9.543
 2385POPC   PO434140  20.402  14.027   9.706
 2385POPC   GL134141  20.541  14.209   9.237
 2385POPC   GL234142  20.399  14.485   9.067
 2385POPC   C1A34143  20.760  14.306   8.783
 2385POPC   D2A34144  20.774  14.539   8.405
 2385POPC   C3A34145  20.810  14.375   7.969
 2385POPC   C4A34146  20.747  14.596   7.570
 2385POPC   C1B34147  20.293  14.148   8.731
 2385POPC   C2B34148  20.374  14.265   8.251
 2385POPC   C3B34149  20.324  14.345   7.788
 2385POPC   C4B34150  20.097  14.398   7.390
 2386POPC   NC334151  24.271  43.204   9.646
 2386POPC   PO434152  24.865  43.337   9.469
 2386POPC   GL134153  24.530  43.153   9.178
 2386POPC   GL234154  24.336  42.825   9.218
 2386POPC   C1A34155  24.611  43.171   8.734
 2386POPC   D2A34156  24.560  43.400   8.345
 2386POPC   C3A34157  24.669  43.197   8.000
 2386POPC   C4A34158  24.496  43.326   7.632
 2386POPC   C1B34159  24.158  42.951   8.819
 2386POPC   C2B34160  24.281  42.962   8.406
 2386POPC   C3B34161  24.171  43.143   8.050
 2386POPC   C4B34162  24.096  42.999   7.681
 2387POPC   NC334163   1.442  20.980   9.657
 2387POPC   PO434164   1.141  20.401   9.481
 2387POPC   GL134165   1.154  20.637   9.131
 2387POPC   GL234166   1.474  20.692   9.176
 2387POPC   C1A34167   1.173  20.484   8.726
 2387POPC   D2A34168   1.289  20.229   8.386
 2387POPC   C3A34169   1.039  20.425   8.084
 2387POPC   C4A34170   1.201  20.685   7.773
 2387POPC   C1B34171   1.582  20.822   8.778
 2387POPC   C2B34172   1.451  20.725   8.350
 2387POPC   C3B34173   1.592  20.934   7.975
 2387POPC   C4B34174   1.718  20.784   7.601
 2388POPC   NC334175  42.202  29.423   9.416
 2388POPC   PO434176  42.686  28.969   9.545
 2388POPC   GL134177  42.568  29.174   9.143
 2388POPC   GL234178  42.201  29.087   9.022
 2388POPC   C1A34179  42.534  29.384   8.747
 2388POPC   D2A34180  42.190  29.283   8.472
 2388POPC   C3A34181  42.310  29.180   8.044
 2388POPC   C4A34182  42.590  29.366   7.751
 2388POPC   C1B34183  41.943  28.849   8.713
 2388POPC   C2B34184  41.922  28.900   8.263
 2388POPC   C3B34185  41.854  28.980   7.857
 2388POPC   C4B34186  41.931  29.353   7.650
 2389POPC   NC334187  41.474   5.487   9.411
 2389POPC   PO434188  41.278   6.166   9.480
 2389POPC   GL134189  41.595   5.982   9.184
 2389POPC   GL234190  41.374   5.743   8.978
 2389POPC   C1A34191  41.645   6.098   8.756
 2389POPC   D2A34192  41.339   5.933   8.458
 2389POPC   C3A34193  41.395   6.046   8.015
 2389POPC   C4A34194  41.815   6.057   7.828
 2389POPC   C1B34195  41.730   5.607   8.670
 2389POPC   C2B34196  41.796   5.711   8.223
 2389POPC   C3B34197  41.548   5.597   7.824
 2389POPC   C4B34198  41.489   5.515   7.386
 2390POPC   NC334199   1.853  20.502   9.521
 2390POPC   PO434200   2.289  20.934   9.670
 2390POPC   GL134201   2.202  20.693   9.179
 2390POPC   GL234202   1.907  20.427   9.053
 2390POPC   C1A34203   2.092  20.685   8.688
 2390POPC   D2A34204   2.244  20.770   8.276
 2390POPC   C3A34205   2.064  20.576   7.934
 2390POPC   C4A34206   2.070  20.375   7.552
 2390POPC   C1B34207   1.678  20.329   8.717
 2390POPC   C2B34208   1.815  20.358   8.321
 2390POPC   C3B34209   1.571  20.405   7.957
 2390POPC   C4B34210   1.552  20.316   7.528
 2391POPC   NC334211  20.121  25.468   9.653
 2391POPC   PO434212  19.536  25.375   9.898
 2391POPC   GL134213  19.733  25.339   9.353
 2391POPC   GL234214  19.559  25.108   9.053
 2391POPC   C1A34215  19.897  25.415   8.895
 2391POPC   D2A34216  19.725  25.391   8.496
 2391POPC   C3A34217  20.008  25.608   8.217
 2391POPC   C4A34218  20.054  25.621   7.782
 2391POPC   C1B34219  19.479  24.822   8.722
 2391POPC   C2B34220  19.602  24.921   8.314
 2391POPC   C3B34221  19.794  25.173   8.022
 2391POPC   C4B34222  19.830  25.023   7.634
 2392POPC   NC334223  24.321  29.081   9.608
 2392POPC   PO434224  24.717  28.558   9.548
 2392POPC   GL134225  24.566  28.833   9.145
 2392POPC   GL234226  24.271  29.048   9.111
 2392POPC   C1A34227  24.579  29.033   8.701
 2392POPC   D2A34228  24.644  28.964   8.237
 2392POPC   C3A34229  24.713  29.321   7.921
 2392POPC   C4A34230  24.535  29.519   7.561
 2392POPC   C1B34231  24.168  29.361   8.797
 2392POPC   C2B34232  24.361  29.389   8.366
 2392POPC   C3B34233  24.226  29.182   7.988
 2392POPC   C4B34234  24.046  29.302   7.624
 2393POPC   NC334235  10.382  10.939   9.377
 2393POPC   PO434236  10.026  10.439   9.302
 2393POPC   GL134237  10.382  10.543   9.017
 2393POPC   GL234238  10.715  10.726   9.021
 2393POPC   C1A34239  10.381  10.668   8.597
 2393POPC   D2A34240  10.617  10.850   8.289
 2393POPC   C3A34241  10.528  10.688   7.891
 2393POPC   C4A34242  10.701  10.632   7.505
 2393POPC   C1B34243  10.855  10.456   8.633
 2393POPC   C2B34244  10.841  10.388   8.163
 2393POPC   C3B34245  10.712  10.187   7.764
 2393POPC   C4B34246  10.698  10.163   7.292
 2394POPC   NC334247  18.264  28.132   9.433
 2394POPC   PO434248  18.146  28.792   9.378
 2394POPC   GL134249  18.324  28.591   9.020
 2394POPC   GL234250  18.506  28.283   9.025
 2394POPC   C1A34251  18.227  28.415   8.596
 2394POPC   D2A34252  17.910  28.460   8.241
 2394POPC   C3A34253  18.142  28.618   7.865
 2394POPC   C4A34254  18.607  28.547   7.850
 2394POPC   C1B34255  18.309  27.932   8.789
 2394POPC   C2B34256  18.450  27.909   8.393
 2394POPC   C3B34257  18.335  28.160   8.068
 2394POPC   C4B34258  18.415  28.000   7.690
 2395POPC   NC334259  28.588  40.694   9.430
 2395POPC   PO434260  28.183  41.145   9.560
 2395POPC   GL134261  28.259  41.018   9.107
 2395POPC   GL234262  28.624  41.013   9.028
 2395POPC   C1A34263  28.232  40.769   8.680
 2395POPC   D2A34264  28.115  40.469   8.314
 2395POPC   C3A34265  27.974  40.726   7.939
 2395POPC   C4A34266  28.148  41.117   7.761
 2395POPC   C1B34267  28.730  40.682   8.766
 2395POPC   C2B34268  28.659  40.562   8.369
 2395POPC   C3B34269  28.483  40.717   8.026
 2395POPC   C4B34270  28.503  40.775   7.608
 2396POPC   NC334271  18.377   2.065   9.651
 2396POPC   PO434272  17.745   2.302   9.473
 2396POPC   GL134273  17.983   2.060   9.124
 2396POPC   GL234274  18.321   1.910   9.179
 2396POPC   C1A34275  18.129   1.951   8.717
 2396POPC   D2A34276  18.269   2.121   8.367
 2396POPC   C3A34277  18.287   1.863   8.010
 2396POPC   C4A34278  18.443   2.160   7.739
 2396POPC   C1B34279  18.608   1.864   8.844
 2396POPC   C2B34280  18.628   1.747   8.442
 2396POPC   C3B34281  18.663   1.542   8.082
 2396POPC   C4B34282  18.697   1.721   7.698
 2397POPC   NC334283  30.828  41.798   9.497
 2397POPC   PO434284  30.456  41.278   9.486
 2397POPC   GL134285  30.515  41.567   9.155
 2397POPC   GL234286  30.881  41.609   9.020
 2397POPC   C1A34287  30.465  41.754   8.769
 2397POPC   D2A34288  30.761  41.620   8.481
 2397POPC   C3A34289  30.681  41.759   8.122
 2397POPC   C4A34290  30.463  41.587   7.814
 2397POPC   C1B34291  31.115  41.288   8.736
 2397POPC   C2B34292  31.098  41.111   8.347
 2397POPC   C3B34293  30.888  41.294   7.977
 2397POPC   C4B34294  30.929  41.652   7.656
 2398POPC   NC334295   3.020  15.611   9.480
 2398POPC   PO434296   2.791  14.998   9.513
 2398POPC   GL134297   2.718  15.261   9.159
 2398POPC   GL234298   3.067  15.239   9.129
 2398POPC   C1A34299   2.759  15.143   8.697
 2398POPC   D2A34300   2.684  15.261   8.267
 2398POPC   C3A34301   2.601  15.016   7.897
 2398POPC   C4A34302   2.425  15.227   7.552
 2398POPC   C1B34303   3.066  15.518   8.834
 2398POPC   C2B34304   3.167  15.505   8.415
 2398POPC   C3B34305   3.142  15.240   8.058
 2398POPC   C4B34306   2.974  15.290   7.666
 2399POPC   NC334307   8.329  36.921   9.517
 2399POPC   PO434308   7.689  36.784   9.359
 2399POPC   GL134309   8.013  37.013   9.107
 2399POPC   GL234310   8.413  37.021   9.037
 2399POPC   C1A34311   7.991  37.268   8.775
 2399POPC   D2A34312   8.025  37.209   8.342
 2399POPC   C3A34313   7.852  37.180   7.930
 2399POPC   C4A34314   7.929  36.978   7.514
 2399POPC   C1B34315   8.312  36.857   8.637
 2399POPC   C2B34316   8.462  36.947   8.217
 2399POPC   C3B34317   8.366  37.108   7.807
 2399POPC   C4B34318   8.434  36.902   7.404
 2400POPC   NC334319  29.923  44.246   9.359
 2400POPC   PO434320  29.896  43.559   9.639
 2400POPC   GL134321  29.755  43.543   9.199
 2400POPC   GL234322  29.667  43.870   9.110
 2400POPC   C1A34323  29.961  43.525   8.762
 2400POPC   D2A34324  29.872  43.404   8.350
 2400POPC   C3A34325  30.076  43.590   8.008
 2400POPC   C4A34326  29.862  43.741   7.667
 2400POPC   C1B34327  29.817  44.034   8.718
 2400POPC   C2B34328  30.089  43.957   8.376
 2400POPC   C3B34329  30.030  44.114   7.966
 2400POPC   C4B34330  29.600  44.215   7.872
 2401POPC   NC334331   8.139  18.260   9.645
 2401POPC   PO434332   7.763  17.868   9.312
 2401POPC   GL134333   8.174  18.048   9.167
 2401POPC   GL234334   8.260  18.419   9.183
 2401POPC   C1A34335   8.352  18.122   8.772
 2401POPC   D2A34336   8.198  17.961   8.408
 2401POPC   C3A34337   8.193  18.212   8.067
 2401POPC   C4A34338   8.292  18.101   7.687
 2401POPC   C1B34339   8.220  18.605   8.787
 2401POPC   C2B34340   8.426  18.515   8.393
 2401POPC   C3B34341   8.385  18.714   7.991
 2401POPC   C4B34342   8.548  18.669   7.604
 2402POPC   NC334343   3.585   0.950   9.594
 2402POPC   PO434344   3.225   1.621   9.602
 2402POPC   GL134345   3.453   1.331   9.279
 2402POPC   GL234346   3.406   0.969   9.139
 2402POPC   C1A34347   3.681   1.301   8.879
 2402POPC   D2A34348   3.526   1.421   8.479
 2402POPC   C3A34349   3.680   1.290   8.094
 2402POPC   C4A34350   3.584   1.340   7.681
 2402POPC   C1B34351   3.263   1.009   8.726
 2402POPC   C2B34352   3.144   1.096   8.311
 2402POPC   C3B34353   3.293   0.973   7.910
 2402POPC   C4B34354   3.338   0.886   7.457
 2403POPC   NC334355   7.960  17.480   9.472
 2403POPC   PO434356   8.657  17.491   9.552
 2403POPC   GL134357   8.374  17.540   9.205
 2403POPC   GL234358   8.337  17.219   9.102
 2403POPC   C1A34359   8.279  17.610   8.773
 2403POPC   D2A34360   8.468  17.523   8.362
 2403POPC   C3A34361   8.269  17.660   7.979
 2403POPC   C4A34362   8.536  17.526   7.641
 2403POPC   C1B34363   8.040  17.139   8.755
 2403POPC   C2B34364   7.987  16.949   8.343
 2403POPC   C3B34365   8.196  17.146   8.002
 2403POPC   C4B34366   8.030  17.337   7.619
 2404POPC   NC334367   4.251   0.015   9.367
 2404POPC   PO434368   3.973   0.596   9.666
 2404POPC   GL134369   4.082   0.491   9.222
 2404POPC   GL234370   4.436   0.436   9.158
 2404POPC   C1A34371   4.141   0.429   8.757
 2404POPC   D2A34372   4.123   0.639   8.378
 2404POPC   C3A34373   4.077   0.424   7.951
 2404POPC   C4A34374   4.092   0.711   7.603
 2404POPC   C1B34375   4.653   0.322   8.773
 2404POPC   C2B34376   4.543   0.308   8.359
 2404POPC   C3B34377   4.553   0.217   7.937
 2404POPC   C4B34378   4.478   0.371   7.543
 2405POPC   NC334379  38.842  29.042   9.457
 2405POPC   PO434380  39.379  29.355   9.271
 2405POPC   GL134381  39.038  29.280   8.992
 2405POPC   GL234382  38.979  28.910   8.998
 2405POPC   C1A34383  39.170  29.322   8.544
 2405POPC   D2A34384  39.598  29.176   8.398
 2405POPC   C3A34385  39.575  29.062   7.989
 2405POPC   C4A34386  39.349  29.350   7.764
 2405POPC   C1B34387  39.331  28.895   8.757
 2405POPC   C2B34388  39.272  28.793   8.327
 2405POPC   C3B34389  39.077  28.885   7.948
 2405POPC   C4B34390  38.836  29.240   7.796
 2406POPC   NC334391  38.729  15.385   9.388
 2406POPC   PO434392  38.308  14.914   9.593
 2406POPC   GL134393  38.445  15.027   9.171
 2406POPC   GL234394  38.254  15.359   9.134
 2406POPC   C1A34395  38.659  15.125   8.773
 2406POPC   D2A34396  38.466  15.001   8.373
 2406POPC   C3A34397  38.686  15.039   7.983
 2406POPC   C4A34398  38.449  15.104   7.653
 2406POPC   C1B34399  38.214  15.340   8.669
 2406POPC   C2B34400  38.469  15.502   8.349
 2406POPC   C3B34401  38.435  15.511   7.942
 2406POPC   C4B34402  38.182  15.575   7.626
 2407POPC   NC334403   7.553  34.540   9.580
 2407POPC   PO434404   6.992  34.739   9.401
 2407POPC   GL134405   7.307  34.680   9.128
 2407POPC   GL234406   7.066  34.575   8.907
 2407POPC   C1A34407   7.528  34.750   8.743
 2407POPC   D2A34408   7.363  34.629   8.339
 2407POPC   C3A34409   7.586  34.676   7.919
 2407POPC   C4A34410   7.541  34.823   7.478
 2407POPC   C1B34411   7.334  34.254   8.743
 2407POPC   C2B34412   7.297  34.118   8.322
 2407POPC   C3B34413   7.161  34.325   7.950
 2407POPC   C4B34414   7.345  34.362   7.566
 2408POPC   NC334415  27.726   8.029   9.478
 2408POPC   PO434416  27.427   8.638   9.728
 2408POPC   GL134417  27.518   8.493   9.292
 2408POPC   GL234418  27.245   8.267   9.219
 2408POPC   C1A34419  27.748   8.411   8.869
 2408POPC   D2A34420  27.778   8.129   8.468
 2408POPC   C3A34421  27.646   8.252   8.037
 2408POPC   C4A34422  27.929   8.293   7.719
 2408POPC   C1B34423  27.354   8.092   8.795
 2408POPC   C2B34424  27.223   8.213   8.352
 2408POPC   C3B34425  27.148   8.056   7.905
 2408POPC   C4B34426  27.403   7.969   7.534
 2409POPC   NC334427  44.633   4.993   9.322
 2409POPC   PO434428   0.084   5.556   9.386
 2409POPC   GL134429  44.897   5.318   9.044
 2409POPC   GL234430  44.966   4.931   8.978
 2409POPC   C1A34431  44.534   5.393   8.799
 2409POPC   D2A34432  44.286   5.151   8.518
 2409POPC   C3A34433  44.409   5.230   8.114
 2409POPC   C4A34434  44.554   5.034   7.721
 2409POPC   C1B34435  44.789   4.990   8.604
 2409POPC   C2B34436  44.893   5.086   8.190
 2409POPC   C3B34437   0.052   4.871   7.855
 2409POPC   C4B34438  44.843   4.618   7.593
 2410POPC   NC334439  20.622  32.618   9.453
 2410POPC   PO434440  20.735  31.942   9.512
 2410POPC   GL134441  20.508  32.109   9.168
 2410POPC   GL234442  20.238  32.317   9.211
 2410POPC   C1A34443  20.337  32.062   8.766
 2410POPC   D2A34444  20.300  32.296   8.398
 2410POPC   C3A34445  20.463  32.129   8.018
 2410POPC   C4A34446  20.841  32.040   7.801
 2410POPC   C1B34447  20.449  32.542   8.850
 2410POPC   C2B34448  20.752  32.528   8.535
 2410POPC   C3B34449  20.632  32.616   8.157
 2410POPC   C4B34450  20.604  32.555   7.736
 2411POPC   NC334451  29.082  21.654   9.590
 2411POPC   PO434452  29.659  21.360   9.575
 2411POPC   GL134453  29.414  21.386   9.250
 2411POPC   GL234454  29.443  21.072   9.131
 2411POPC   C1A34455  29.255  21.643   8.960
 2411POPC   D2A34456  29.251  21.687   8.471
 2411POPC   C3A34457  29.263  21.423   8.099
 2411POPC   C4A34458  29.290  21.518   7.676
 2411POPC   C1B34459  29.281  21.200   8.740
 2411POPC   C2B34460  28.934  21.250   8.464
 2411POPC   C3B34461  28.829  21.149   8.029
 2411POPC   C4B34462  29.180  20.984   7.808
 2412POPC   NC334463  13.307  34.706   9.304
 2412POPC   PO434464  12.710  34.745   9.541
 2412POPC   GL134465  12.822  34.558   9.163
 2412POPC   GL234466  12.507  34.438   9.119
 2412POPC   C1A34467  12.855  34.472   8.724
 2412POPC   D2A34468  13.040  34.643   8.357
 2412POPC   C3A34469  12.872  34.488   7.952
 2412POPC   C4A34470  12.897  34.470   7.510
 2412POPC   C1B34471  12.406  34.733   8.772
 2412POPC   C2B34472  12.486  34.647   8.323
 2412POPC   C3B34473  12.514  34.836   7.907
 2412POPC   C4B34474  12.465  34.760   7.463
 2413POPC   NC334475  40.435  37.324   9.335
 2413POPC   PO434476  39.976  36.984   9.705
 2413POPC   GL134477  40.123  36.804   9.220
 2413POPC   GL234478  40.170  37.046   8.926
 2413POPC   C1A34479  39.908  36.625   8.854
 2413POPC   D2A34480  39.701  36.667   8.454
 2413POPC   C3A34481  39.938  36.880   8.077
 2413POPC   C4A34482  39.907  37.209   7.747
 2413POPC   C1B34483  40.448  37.254   8.698
 2413POPC   C2B34484  40.603  37.140   8.349
 2413POPC   C3B34485  40.337  37.217   8.044
 2413POPC   C4B34486  40.391  37.113   7.640
 2414POPC   NC334487  19.707  32.783   9.508
 2414POPC   PO434488  19.369  33.344   9.508
 2414POPC   GL134489  19.622  33.123   9.149
 2414POPC   GL234490  19.853  32.851   9.047
 2414POPC   C1A34491  19.482  33.008   8.741
 2414POPC   D2A34492  19.726  32.995   8.382
 2414POPC   C3A34493  19.540  33.147   8.016
 2414POPC   C4A34494  19.791  33.048   7.675
 2414POPC   C1B34495  20.115  32.971   8.752
 2414POPC   C2B34496  20.210  32.799   8.369
 2414POPC   C3B34497  20.248  32.902   7.923
 2414POPC   C4B34498  20.185  32.712   7.506
 2415POPC   NC334499  38.018  41.905   9.378
 2415POPC   PO434500  37.719  42.474   9.421
 2415POPC   GL134501  37.678  42.244   9.078
 2415POPC   GL234502  37.663  41.885   9.013
 2415POPC   C1A34503  37.553  42.347   8.690
 2415POPC   D2A34504  37.399  42.302   8.294
 2415POPC   C3A34505  37.444  42.599   7.990
 2415POPC   C4A34506  37.176  42.508   7.627
 2415POPC   C1B34507  37.996  42.050   8.743
 2415POPC   C2B34508  37.850  42.097   8.354
 2415POPC   C3B34509  37.761  42.208   7.930
 2415POPC   C4B34510  38.038  42.120   7.587
 2416POPC   NC334511  32.774  21.798   9.437
 2416POPC   PO434512  33.271  22.223   9.471
 2416POPC   GL134513  33.127  21.993   9.148
 2416POPC   GL234514  32.828  22.171   9.082
 2416POPC   C1A34515  33.253  21.923   8.787
 2416POPC   D2A34516  33.384  22.148   8.503
 2416POPC   C3A34517  33.071  22.196   8.214
 2416POPC   C4A34518  33.106  22.447   7.887
 2416POPC   C1B34519  32.761  22.003   8.672
 2416POPC   C2B34520  32.695  21.841   8.264
 2416POPC   C3B34521  32.726  22.055   7.841
 2416POPC   C4B34522  32.497  22.093   7.439
 2417POPC   NC334523  20.465  33.435   9.522
 2417POPC   PO434524  20.190  32.777   9.446
 2417POPC   GL134525  20.501  33.021   9.137
 2417POPC   GL234526  20.649  33.378   9.028
 2417POPC   C1A34527  20.625  32.988   8.695
 2417POPC   D2A34528  20.586  33.153   8.292
 2417POPC   C3A34529  20.773  33.032   7.906
 2417POPC   C4A34530  20.550  33.076   7.523
 2417POPC   C1B34531  20.974  33.338   8.661
 2417POPC   C2B34532  21.000  33.437   8.200
 2417POPC   C3B34533  20.748  33.528   7.801
 2417POPC   C4B34534  20.569  33.584   7.373
 2418POPC   NC334535  22.085  41.298   9.400
 2418POPC   PO434536  22.266  41.933   9.350
 2418POPC   GL134537  22.100  41.689   9.011
 2418POPC   GL234538  22.003  41.324   8.894
 2418POPC   C1A34539  22.040  41.719   8.588
 2418POPC   D2A34540  21.785  41.502   8.342
 2418POPC   C3A34541  22.050  41.516   7.999
 2418POPC   C4A34542  22.261  41.580   7.593
 2418POPC   C1B34543  22.354  41.293   8.617
 2418POPC   C2B34544  22.486  41.144   8.204
 2418POPC   C3B34545  22.261  41.104   7.811
 2418POPC   C4B34546  22.210  41.156   7.362
 2419POPC   NC334547  40.923   8.319   9.538
 2419POPC   PO434548  40.314   8.016   9.693
 2419POPC   GL134549  40.535   8.089   9.242
 2419POPC   GL234550  40.770   8.350   9.079
 2419POPC   C1A34551  40.641   8.002   8.771
 2419POPC   D2A34552  40.604   8.207   8.411
 2419POPC   C3A34553  40.668   7.927   8.110
 2419POPC   C4A34554  40.860   7.922   7.733
 2419POPC   C1B34555  40.990   8.430   8.697
 2419POPC   C2B34556  41.082   8.233   8.279
 2419POPC   C3B34557  40.837   8.390   7.950
 2419POPC   C4B34558  40.956   8.530   7.565
 2420POPC   NC334559   4.726   4.873   9.334
 2420POPC   PO434560   5.326   5.101   9.507
 2420POPC   GL134561   5.112   5.123   9.140
 2420POPC   GL234562   4.789   5.350   9.148
 2420POPC   C1A34563   5.136   4.807   8.816
 2420POPC   D2A34564   5.246   4.616   8.425
 2420POPC   C3A34565   5.270   4.976   8.163
 2420POPC   C4A34566   5.039   4.967   7.814
 2420POPC   C1B34567   4.834   5.213   8.713
 2420POPC   C2B34568   4.723   5.049   8.318
 2420POPC   C3B34569   4.720   5.314   7.994
 2420POPC   C4B34570   4.984   5.478   7.702
 2421POPC   NC334571  26.487   5.448   9.949
 2421POPC   PO434572  26.930   5.054   9.554
 2421POPC   GL134573  26.858   5.204   9.162
 2421POPC   GL234574  26.945   5.529   9.258
 2421POPC   C1A34575  26.811   5.108   8.702
 2421POPC   D2A34576  27.096   5.053   8.315
 2421POPC   C3A34577  26.887   4.935   7.913
 2421POPC   C4A34578  26.968   4.693   7.529
 2421POPC   C1B34579  26.854   5.612   8.840
 2421POPC   C2B34580  26.978   5.528   8.421
 2421POPC   C3B34581  26.901   5.442   7.987
 2421POPC   C4B34582  26.731   5.755   7.683
 2422POPC   NC334583  26.381  13.138   9.368
 2422POPC   PO434584  25.717  12.963   9.230
 2422POPC   GL134585  26.056  12.909   9.024
 2422POPC   GL234586  26.341  12.698   9.085
 2422POPC   C1A34587  26.051  12.736   8.613
 2422POPC   D2A34588  25.708  12.515   8.432
 2422POPC   C3A34589  25.654  12.651   8.009
 2422POPC   C4A34590  26.035  12.572   7.791
 2422POPC   C1B34591  26.454  13.019   8.739
 2422POPC   C2B34592  26.232  13.202   8.391
 2422POPC   C3B34593  26.311  12.961   8.018
 2422POPC   C4B34594  26.535  12.557   7.957
 2423POPC   NC334595  43.840   5.464   9.479
 2423POPC   PO434596  43.696   6.078   9.522
 2423POPC   GL134597  43.981   5.999   9.184
 2423POPC   GL234598  44.200   5.705   9.211
 2423POPC   C1A34599  43.787   5.886   8.811
 2423POPC   D2A34600  43.622   5.765   8.431
 2423POPC   C3A34601  43.621   6.038   8.069
 2423POPC   C4A34602  43.829   5.970   7.703
 2423POPC   C1B34603  44.039   5.458   8.866
 2423POPC   C2B34604  44.117   5.626   8.448
 2423POPC   C3B34605  44.166   5.706   8.011
 2423POPC   C4B34606  44.162   5.391   7.706
 2424POPC   NC334607  32.342   7.783   9.537
 2424POPC   PO434608  32.224   7.135   9.526
 2424POPC   GL134609  32.294   7.285   9.115
 2424POPC   GL234610  32.541   7.522   9.116
 2424POPC   C1A34611  32.077   7.307   8.687
 2424POPC   D2A34612  31.800   7.408   8.350
 2424POPC   C3A34613  32.016   7.324   7.958
 2424POPC   C4A34614  32.378   7.259   7.680
 2424POPC   C1B34615  32.136   7.744   8.915
 2424POPC   C2B34616  32.124   7.835   8.470
 2424POPC   C3B34617  32.316   7.737   8.056
 2424POPC   C4B34618  32.130   7.719   7.643
 2425POPC   NC334619  19.543  42.017   9.347
 2425POPC   PO434620  20.005  42.599   9.414
 2425POPC   GL134621  19.765  42.429   9.097
 2425POPC   GL234622  20.077  42.357   8.918
 2425POPC   C1A34623  19.674  42.505   8.661
 2425POPC   D2A34624  20.071  42.595   8.399
 2425POPC   C3A34625  19.993  42.345   8.047
 2425POPC   C4A34626  19.621  42.350   7.804
 2425POPC   C1B34627  19.946  42.120   8.526
 2425POPC   C2B34628  19.593  42.082   8.295
 2425POPC   C3B34629  19.620  41.858   7.927
 2425POPC   C4B34630  19.982  42.024   7.643
 2426POPC   NC334631  25.153  29.581   9.369
 2426POPC   PO434632  25.476  29.022   9.505
 2426POPC   GL134633  25.366  28.938   9.087
 2426POPC   GL234634  25.043  29.156   8.990
 2426POPC   C1A34635  25.394  28.903   8.672
 2426POPC   D2A34636  25.092  29.142   8.469
 2426POPC   C3A34637  25.158  29.133   8.070
 2426POPC   C4A34638  25.058  28.974   7.676
 2426POPC   C1B34639  25.407  29.385   8.817
 2426POPC   C2B34640  25.581  29.355   8.420
 2426POPC   C3B34641  25.620  29.457   7.998
 2426POPC   C4B34642  25.277  29.442   7.686
 2427POPC   NC334643  10.314  31.816   9.340
 2427POPC   PO434644  10.630  31.262   9.671
 2427POPC   GL134645  10.607  31.308   9.214
 2427POPC   GL234646  10.285  31.384   9.067
 2427POPC   C1A34647  10.750  31.376   8.765
 2427POPC   D2A34648  10.467  31.594   8.454
 2427POPC   C3A34649  10.513  31.522   8.000
 2427POPC   C4A34650  10.538  31.579   7.564
 2427POPC   C1B34651  10.009  31.459   8.700
 2427POPC   C2B34652   9.996  31.422   8.237
 2427POPC   C3B34653  10.132  31.188   7.868
 2427POPC   C4B34654  10.276  30.942   7.489
 2428POPC   NC334655   6.856  43.839   9.735
 2428POPC   PO434656   6.415  44.178   9.429
 2428POPC   GL134657   6.604  43.787   9.272
 2428POPC   GL234658   6.790  43.983   9.106
 2428POPC   C1A34659   6.759  43.554   8.870
 2428POPC   D2A34660   6.978  43.732   8.520
 2428POPC   C3A34661   6.888  43.659   8.101
 2428POPC   C4A34662   6.773  43.867   7.697
 2428POPC   C1B34663   6.730  44.209   8.745
 2428POPC   C2B34664   6.631  44.065   8.367
 2428POPC   C3B34665   6.479  44.118   8.004
 2428POPC   C4B34666   6.802  44.378   7.804
 2429POPC   NC334667   5.980  35.562   9.439
 2429POPC   PO434668   5.653  34.932   9.514
 2429POPC   GL134669   5.818  35.100   9.162
 2429POPC   GL234670   6.149  35.107   9.197
 2429POPC   C1A34671   5.695  35.354   8.823
 2429POPC   D2A34672   5.599  35.560   8.428
 2429POPC   C3A34673   5.626  35.233   8.099
 2429POPC   C4A34674   5.701  35.449   7.705
 2429POPC   C1B34675   6.206  35.240   8.812
 2429POPC   C2B34676   6.050  35.329   8.435
 2429POPC   C3B34677   6.066  35.464   8.043
 2429POPC   C4B34678   6.120  35.133   7.741
 2430POPC   NC334679  31.550  38.514   9.619
 2430POPC   PO434680  31.779  38.074   9.194
 2430POPC   GL134681  31.543  38.478   9.105
 2430POPC   GL234682  31.765  38.766   9.217
 2430POPC   C1A34683  31.224  38.491   8.761
 2430POPC   D2A34684  31.405  38.608   8.362
 2430POPC   C3A34685  31.342  38.361   8.023
 2430POPC   C4A34686  31.090  38.419   7.681
 2430POPC   C1B34687  31.905  38.700   8.792
 2430POPC   C2B34688  31.904  38.849   8.373
 2430POPC   C3B34689  31.775  38.639   7.989
 2430POPC   C4B34690  31.475  38.741   7.688
 2431POPC   NC334691  27.973  34.750   9.665
 2431POPC   PO434692  27.407  34.922   9.506
 2431POPC   GL134693  27.715  34.613   9.253
 2431POPC   GL234694  28.090  34.739   9.168
 2431POPC   C1A34695  27.541  34.414   8.878
 2431POPC   D2A34696  27.263  34.502   8.523
 2431POPC   C3A34697  27.416  34.600   8.102
 2431POPC   C4A34698  27.225  34.620   7.675
 2431POPC   C1B34699  28.054  34.447   8.840
 2431POPC   C2B34700  27.821  34.427   8.451
 2431POPC   C3B34701  27.929  34.550   8.045
 2431POPC   C4B34702  27.692  34.311   7.757
 2432POPC   NC334703   5.525  32.171   9.591
 2432POPC   PO434704   6.025  32.590   9.743
 2432POPC   GL134705   5.948  32.526   9.284
 2432POPC   GL234706   5.774  32.219   9.162
 2432POPC   C1A34707   5.963  32.618   8.839
 2432POPC   D2A34708   5.742  32.419   8.481
 2432POPC   C3A34709   5.969  32.297   8.092
 2432POPC   C4A34710   5.880  32.258   7.659
 2432POPC   C1B34711   5.676  31.964   8.767
 2432POPC   C2B34712   5.702  31.730   8.328
 2432POPC   C3B34713   5.663  31.836   7.883
 2432POPC   C4B34714   5.493  31.980   7.480
 2433POPC   NC334715  36.483  30.813   9.688
 2433POPC   PO434716  35.990  30.319   9.528
 2433POPC   GL134717  36.065  30.545   9.142
 2433POPC   GL234718  36.391  30.769   9.156
 2433POPC   C1A34719  36.104  30.524   8.688
 2433POPC   D2A34720  36.476  30.566   8.444
 2433POPC   C3A34721  36.338  30.478   8.022
 2433POPC   C4A34722  36.015  30.472   7.659
 2433POPC   C1B34723  36.336  30.975   8.734
 2433POPC   C2B34724  36.104  30.903   8.314
 2433POPC   C3B34725  36.177  30.938   7.868
 2433POPC   C4B34726  36.462  31.240   7.729
 2434POPC   NC334727  27.262  10.099   9.703
 2434POPC   PO434728  27.895  10.294   9.512
 2434POPC   GL134729  27.615  10.375   9.146
 2434POPC   GL234730  27.277  10.307   9.214
 2434POPC   C1A34731  27.655  10.584   8.734
 2434POPC   D2A34732  27.675  10.446   8.289
 2434POPC   C3A34733  27.798  10.616   7.887
 2434POPC   C4A34734  28.035  10.906   7.651
 2434POPC   C1B34735  27.165  10.460   8.807
 2434POPC   C2B34736  27.167  10.597   8.403
 2434POPC   C3B34737  27.243  10.367   8.026
 2434POPC   C4B34738  27.366  10.507   7.641
 2435POPC   NC334739  38.339  20.146   9.506
 2435POPC   PO434740  38.769  19.602   9.548
 2435POPC   GL134741  38.645  19.779   9.141
 2435POPC   GL234742  38.280  19.831   9.078
 2435POPC   C1A34743  38.712  19.751   8.725
 2435POPC   D2A34744  38.435  19.825   8.418
 2435POPC   C3A34745  38.698  19.821   8.079
 2435POPC   C4A34746  38.510  19.597   7.783
 2435POPC   C1B34747  38.272  20.197   8.781
 2435POPC   C2B34748  38.212  20.317   8.358
 2435POPC   C3B34749  38.239  20.066   7.998
 2435POPC   C4B34750  38.103  19.901   7.627
 2436POPC   NC334751  38.248  12.520   9.447
 2436POPC   PO434752  38.306  11.861   9.605
 2436POPC   GL134753  38.443  12.030   9.185
 2436POPC   GL234754  38.666  12.328   9.194
 2436POPC   C1A34755  38.394  11.972   8.742
 2436POPC   D2A34756  38.173  11.860   8.368
 2436POPC   C3A34757  38.297  12.060   8.005
 2436POPC   C4A34758  38.586  11.924   7.761
 2436POPC   C1B34759  38.794  12.318   8.777
 2436POPC   C2B34760  38.643  12.248   8.348
 2436POPC   C3B34761  38.740  12.382   7.905
 2436POPC   C4B34762  38.408  12.404   7.565
 2437POPC   NC334763  28.691  13.900   9.209
 2437POPC   PO434764  28.327  13.559   9.665
 2437POPC   GL134765  28.303  13.530   9.199
 2437POPC   GL234766  28.625  13.511   8.926
 2437POPC   C1A34767  28.127  13.654   8.822
 2437POPC   D2A34768  28.349  13.769   8.464
 2437POPC   C3A34769  28.063  13.691   8.150
 2437POPC   C4A34770  28.048  13.489   7.792
 2437POPC   C1B34771  28.890  13.671   8.576
 2437POPC   C2B34772  28.753  13.740   8.149
 2437POPC   C3B34773  28.513  13.714   7.768
 2437POPC   C4B34774  28.628  13.878   7.305
 2438POPC   NC334775  21.496  29.122   9.572
 2438POPC   PO434776  20.984  29.169   9.261
 2438POPC   GL134777  21.325  29.068   9.045
 2438POPC   GL234778  21.637  29.258   9.070
 2438POPC   C1A34779  21.339  29.071   8.607
 2438POPC   D2A34780  21.522  29.274   8.250
 2438POPC   C3A34781  21.286  29.193   7.874
 2438POPC   C4A34782  21.316  29.339   7.443
 2438POPC   C1B34783  21.726  28.832   8.853
 2438POPC   C2B34784  21.673  28.730   8.406
 2438POPC   C3B34785  21.721  28.869   7.997
 2438POPC   C4B34786  21.565  28.894   7.578
 2439POPC   NC334787  19.947   5.290   9.645
 2439POPC   PO434788  19.597   4.713   9.632
 2439POPC   GL134789  19.534   5.102   9.297
 2439POPC   GL234790  19.837   5.270   9.143
 2439POPC   C1A34791  19.434   5.308   8.833
 2439POPC   D2A34792  19.546   5.404   8.353
 2439POPC   C3A34793  19.575   5.169   7.942
 2439POPC   C4A34794  19.803   4.934   7.604
 2439POPC   C1B34795  19.942   5.298   8.678
 2439POPC   C2B34796  20.019   5.217   8.203
 2439POPC   C3B34797  20.218   5.188   7.778
 2439POPC   C4B34798  20.457   5.407   7.437
 2440POPC   NC334799  39.964  16.228   9.748
 2440POPC   PO434800  40.239  16.806   9.626
 2440POPC   GL134801  40.047  16.906   9.136
 2440POPC   GL234802  39.721  16.865   9.105
 2440POPC   C1A34803  40.087  16.681   8.726
 2440POPC   D2A34804  40.199  16.780   8.318
 2440POPC   C3A34805  39.988  16.570   8.026
 2440POPC   C4A34806  39.717  16.596   7.725
 2440POPC   C1B34807  39.748  17.061   8.683
 2440POPC   C2B34808  39.980  17.236   8.325
 2440POPC   C3B34809  39.927  17.070   7.906
 2440POPC   C4B34810  39.484  17.014   7.849
 2441POPC   NC334811  17.022   0.573   9.579
 2441POPC   PO434812  16.877  44.914   9.718
 2441POPC   GL134813  16.809   0.240   9.255
 2441POPC   GL234814  16.915   0.570   9.077
 2441POPC   C1A34815  16.850   0.139   8.783
 2441POPC   D2A34816  16.653   0.197   8.396
 2441POPC   C3A34817  16.846   0.231   8.008
 2441POPC   C4A34818  16.568   0.210   7.650
 2441POPC   C1B34819  16.829   0.629   8.651
 2441POPC   C2B34820  17.163   0.565   8.368
 2441POPC   C3B34821  17.155   0.794   7.966
 2441POPC   C4B34822  16.780   0.678   7.736
 2442POPC   NC334823   4.018  18.962   9.452
 2442POPC   PO434824   3.389  19.287   9.469
 2442POPC   GL134825   3.537  18.994   9.177
 2442POPC   GL234826   3.248  18.922   8.979
 2442POPC   C1A34827   3.724  18.833   8.794
 2442POPC   D2A34828   3.746  18.782   8.339
 2442POPC   C3A34829   3.775  19.180   8.125
 2442POPC   C4A34830   3.499  19.303   7.785
 2442POPC   C1B34831   3.412  19.265   8.721
 2442POPC   C2B34832   3.364  19.428   8.321
 2442POPC   C3B34833   3.284  19.008   8.135
 2442POPC   C4B34834   3.123  18.854   7.769
 2443POPC   NC334835  22.318  11.852   9.597
 2443POPC   PO434836  21.962  12.367   9.346
 2443POPC   GL134837  22.254  12.143   9.073
 2443POPC   GL234838  22.223  11.816   9.076
 2443POPC   C1A34839  22.327  12.204   8.666
 2443POPC   D2A34840  22.069  12.130   8.322
 2443POPC   C3A34841  22.162  12.372   7.961
 2443POPC   C4A34842  22.130  12.141   7.631
 2443POPC   C1B34843  22.145  11.670   8.691
 2443POPC   C2B34844  22.363  11.661   8.343
 2443POPC   C3B34845  22.204  11.759   7.967
 2443POPC   C4B34846  22.493  11.719   7.682
 2444POPC   NC334847  28.202   1.156   9.579
 2444POPC   PO434848  28.811   1.169   9.504
 2444POPC   GL134849  28.528   1.251   9.202
 2444POPC   GL234850  28.353   0.934   9.149
 2444POPC   C1A34851  28.416   1.319   8.773
 2444POPC   D2A34852  28.258   1.496   8.396
 2444POPC   C3A34853  28.449   1.360   8.023
 2444POPC   C4A34854  28.189   1.455   7.634
 2444POPC   C1B34855  28.393   0.794   8.724
 2444POPC   C2B34856  28.294   0.966   8.320
 2444POPC   C3B34857  28.139   0.979   7.885
 2444POPC   C4B34858  28.309   0.988   7.449
 2445POPC   NC334859  10.975   2.101   9.440
 2445POPC   PO434860  11.642   2.215   9.301
 2445POPC   GL134861  11.380   2.026   9.019
 2445POPC   GL234862  11.117   2.251   8.977
 2445POPC   C1A34863  11.380   2.112   8.569
 2445POPC   D2A34864  11.182   1.948   8.210
 2445POPC   C3A34865  11.411   1.739   7.868
 2445POPC   C4A34866  11.444   1.809   7.402
 2445POPC   C1B34867  10.820   2.240   8.621
 2445POPC   C2B34868  10.874   2.435   8.235
 2445POPC   C3B34869  11.151   2.350   7.882
 2445POPC   C4B34870  11.155   2.350   7.420
 2446POPC   NC334871  16.544  23.988   9.491
 2446POPC   PO434872  16.913  23.506   9.416
 2446POPC   GL134873  16.661  23.694   9.083
 2446POPC   GL234874  16.836  24.018   9.064
 2446POPC   C1A34875  16.691  23.707   8.636
 2446POPC   D2A34876  16.903  23.596   8.278
 2446POPC   C3A34877  16.777  23.574   7.863
 2446POPC   C4A34878  17.035  23.638   7.500
 2446POPC   C1B34879  16.481  24.135   8.820
 2446POPC   C2B34880  16.449  24.071   8.387
 2446POPC   C3B34881  16.715  24.047   8.034
 2446POPC   C4B34882  16.694  23.991   7.560
 2447POPC   NC334883  42.528  15.779   9.859
 2447POPC   PO434884  42.883  16.272   9.445
 2447POPC   GL134885  42.997  16.137   9.037
 2447POPC   GL234886  43.352  16.180   9.041
 2447POPC   C1A34887  43.104  16.138   8.587
 2447POPC   D2A34888  42.953  15.892   8.275
 2447POPC   C3A34889  43.165  16.017   7.954
 2447POPC   C4A34890  43.125  16.167   7.582
 2447POPC   C1B34891  43.475  15.832   8.755
 2447POPC   C2B34892  43.472  15.820   8.304
 2447POPC   C3B34893  43.660  15.896   7.892
 2447POPC   C4B34894  43.617  16.031   7.441
 2448POPC   NC334895  43.590   4.119   9.403
 2448POPC   PO434896  44.192   4.464   9.541
 2448POPC   GL134897  43.944   4.466   9.166
 2448POPC   GL234898  43.600   4.610   9.228
 2448POPC   C1A34899  43.920   4.136   8.836
 2448POPC   D2A34900  43.753   4.050   8.436
 2448POPC   C3A34901  44.054   4.233   8.153
 2448POPC   C4A34902  44.088   4.209   7.734
 2448POPC   C1B34903  43.558   4.500   8.788
 2448POPC   C2B34904  43.697   4.563   8.359
 2448POPC   C3B34905  43.577   4.313   7.983
 2448POPC   C4B34906  43.423   4.308   7.561
 2449POPC   NC334907  10.986  41.515   9.342
 2449POPC   PO434908  11.527  41.294   9.672
 2449POPC   GL134909  11.458  41.402   9.167
 2449POPC   GL234910  11.534  41.767   8.985
 2449POPC   C1A34911  11.255  41.459   8.713
 2449POPC   D2A34912  11.490  41.478   8.327
 2449POPC   C3A34913  11.293  41.492   7.944
 2449POPC   C4A34914  11.014  41.183   7.819
 2449POPC   C1B34915  11.787  41.834   8.600
 2449POPC   C2B34916  11.754  41.872   8.127
 2449POPC   C3B34917  11.582  41.817   7.687
 2449POPC   C4B34918  11.503  42.002   7.234
 2450POPC   NC334919  34.908  37.861   9.449
 2450POPC   PO434920  34.614  37.220   9.493
 2450POPC   GL134921  34.781  37.458   9.156
 2450POPC   GL234922  34.587  37.784   9.068
 2450POPC   C1A34923  34.808  37.473   8.722
 2450POPC   D2A34924  34.531  37.625   8.412
 2450POPC   C3A34925  34.713  37.518   8.011
 2450POPC   C4A34926  34.795  37.707   7.573
 2450POPC   C1B34927  34.309  37.997   8.774
 2450POPC   C2B34928  34.140  37.952   8.370
 2450POPC   C3B34929  34.303  37.863   7.967
 2450POPC   C4B34930  34.311  37.817   7.529
 2451POPC   NC334931  24.823  26.479   9.454
 2451POPC   PO434932  24.473  25.875   9.469
 2451POPC   GL134933  24.544  26.159   9.133
 2451POPC   GL234934  24.730  25.998   8.927
 2451POPC   C1A34935  24.381  26.258   8.695
 2451POPC   D2A34936  24.296  26.031   8.323
 2451POPC   C3A34937  24.266  26.171   7.933
 2451POPC   C4A34938  24.107  25.945   7.570
 2451POPC   C1B34939  24.895  26.325   8.689
 2451POPC   C2B34940  24.783  26.352   8.283
 2451POPC   C3B34941  24.937  26.317   7.894
 2451POPC   C4B34942  24.653  26.161   7.618
 2452POPC   NC334943  11.583   0.304   9.664
 2452POPC   PO434944  11.009   0.683   9.558
 2452POPC   GL134945  11.065   0.625   9.162
 2452POPC   GL234946  10.859   0.908   9.111
 2452POPC   C1A34947  11.105   0.312   8.852
 2452POPC   D2A34948  11.274   0.307   8.438
 2452POPC   C3A34949  11.064   0.302   8.087
 2452POPC   C4A34950  11.070   0.164   7.688
 2452POPC   C1B34951  10.960   1.056   8.701
 2452POPC   C2B34952  11.088   0.793   8.345
 2452POPC   C3B34953  11.154   0.771   7.915
 2452POPC   C4B34954  11.116   0.658   7.474
 2453POPC   NC334955   8.650   4.435   9.491
 2453POPC   PO434956   9.291   4.505   9.519
 2453POPC   GL134957   9.213   4.268   9.128
 2453POPC   GL234958   8.856   4.143   9.079
 2453POPC   C1A34959   9.077   4.396   8.700
 2453POPC   D2A34960   9.230   4.389   8.294
 2453POPC   C3A34961   9.046   4.423   7.900
 2453POPC   C4A34962   9.107   4.187   7.519
 2453POPC   C1B34963   8.826   3.944   8.655
 2453POPC   C2B34964   8.884   4.009   8.194
 2453POPC   C3B34965   8.675   4.104   7.787
 2453POPC   C4B34966   8.652   4.053   7.319
 2454POPC   NC334967  27.827   4.439   9.570
 2454POPC   PO434968  27.271   4.115   9.525
 2454POPC   GL134969  27.469   4.375   9.211
 2454POPC   GL234970  27.732   4.163   9.088
 2454POPC   C1A34971  27.482   4.501   8.792
 2454POPC   D2A34972  27.691   4.330   8.446
 2454POPC   C3A34973  27.549   4.308   8.022
 2454POPC   C4A34974  27.516   4.699   7.782
 2454POPC   C1B34975  28.062   4.148   8.751
 2454POPC   C2B34976  28.013   3.958   8.349
 2454POPC   C3B34977  28.054   4.094   7.918
 2454POPC   C4B34978  27.812   4.326   7.584
 2455POPC   NC334979   9.634  11.622   9.600
 2455POPC   PO434980  10.257  11.406   9.415
 2455POPC   GL134981   9.991  11.609   9.049
 2455POPC   GL234982   9.650  11.610   9.105
 2455POPC   C1A34983   9.888  11.540   8.592
 2455POPC   D2A34984   9.754  11.175   8.355
 2455POPC   C3A34985   9.852  11.101   7.919
 2455POPC   C4A34986   9.782  10.828   7.581
 2455POPC   C1B34987   9.412  11.492   8.788
 2455POPC   C2B34988   9.343  11.476   8.382
 2455POPC   C3B34989   9.617  11.551   8.024
 2455POPC   C4B34990   9.586  11.524   7.546
 2456POPC   NC334991  12.624  32.333   9.583
 2456POPC   PO434992  12.428  32.879   9.369
 2456POPC   GL134993  12.603  32.592   9.078
 2456POPC   GL234994  12.865  32.317   9.117
 2456POPC   C1A34995  12.563  32.347   8.711
 2456POPC   D2A34996  12.652  32.177   8.307
 2456POPC   C3A34997  12.543  32.312   7.921
 2456POPC   C4A34998  12.680  32.646   7.634
 2456POPC   C1B34999  12.995  32.027   8.757
 2456POPC   C2B35000  12.959  31.792   8.372
 2456POPC   C3B35001  12.968  31.922   7.928
 2456POPC   C4B35002  13.183  31.839   7.513
 2457POPC   NC335003  43.639  19.968   9.520
 2457POPC   PO435004  44.036  19.492   9.520
 2457POPC   GL135005  43.932  19.737   9.188
 2457POPC   GL235006  43.725  19.508   9.120
 2457POPC   C1A35007  43.784  19.873   8.781
 2457POPC   D2A35008  43.750  19.708   8.390
 2457POPC   C3A35009  43.965  19.876   8.071
 2457POPC   C4A35010  43.795  19.866   7.730
 2457POPC   C1B35011  44.004  19.412   8.769
 2457POPC   C2B35012  44.091  19.330   8.319
 2457POPC   C3B35013  43.827  19.378   7.944
 2457POPC   C4B35014  44.010  19.437   7.520
 2458POPC   NC335015  14.838  17.093   9.329
 2458POPC   PO435016  14.953  16.473   9.376
 2458POPC   GL135017  15.189  16.688   9.063
 2458POPC   GL235018  15.508  16.887   9.127
 2458POPC   C1A35019  15.318  16.506   8.684
 2458POPC   D2A35020  15.103  16.320   8.316
 2458POPC   C3A35021  15.190  16.473   7.893
 2458POPC   C4A35022  15.109  16.858   7.669
 2458POPC   C1B35023  15.459  17.017   8.690
 2458POPC   C2B35024  15.374  16.817   8.282
 2458POPC   C3B35025  15.559  16.864   7.898
 2458POPC   C4B35026  15.549  17.070   7.487
 2459POPC   NC335027  26.709  44.479   9.445
 2459POPC   PO435028  27.092  44.970   9.642
 2459POPC   GL135029  27.062  44.802   9.222
 2459POPC   GL235030  27.150  44.424   9.161
 2459POPC   C1A35031  26.876  44.750   8.811
 2459POPC   D2A35032  27.036  44.812   8.421
 2459POPC   C3A35033  26.858  44.843   8.011
 2459POPC   C4A35034  26.435  44.832   7.885
 2459POPC   C1B35035  27.162  44.317   8.692
 2459POPC   C2B35036  26.782  44.373   8.424
 2459POPC   C3B35037  26.638  44.373   8.017
 2459POPC   C4B35038  26.936  44.432   7.709
 2460POPC   NC335039  11.050  32.062   9.361
 2460POPC   PO435040  11.507  32.549   9.577
 2460POPC   GL135041  11.341  32.433   9.160
 2460POPC   GL235042  10.984  32.544   9.202
 2460POPC   C1A35043  11.417  32.108   8.807
 2460POPC   D2A35044  11.629  31.916   8.444
 2460POPC   C3A35045  11.494  32.068   8.051
 2460POPC   C4A35046  11.417  32.515   7.998
 2460POPC   C1B35047  10.977  32.383   8.774
 2460POPC   C2B35048  11.124  32.262   8.347
 2460POPC   C3B35049  11.005  32.253   7.877
 2460POPC   C4B35050  10.722  32.382   7.517
 2461POPC   NC335051  39.645  41.219   9.369
 2461POPC   PO435052  40.112  41.567   9.631
 2461POPC   GL135053  40.297  41.565   9.229
 2461POPC   GL235054  40.149  41.250   9.139
 2461POPC   C1A35055  40.271  41.620   8.798
 2461POPC   D2A35056  40.041  41.638   8.421
 2461POPC   C3A35057  40.106  41.395   8.102
 2461POPC   C4A35058  40.202  41.637   7.742
 2461POPC   C1B35059  39.948  41.214   8.735
 2461POPC   C2B35060  39.672  41.217   8.398
 2461POPC   C3B35061  39.626  41.112   7.992
 2461POPC   C4B35062  39.875  41.258   7.681
 2462POPC   NC335063   2.158  34.736   9.564
 2462POPC   PO435064   1.690  34.347   9.426
 2462POPC   GL135065   1.867  34.546   9.105
 2462POPC   GL235066   1.918  34.887   9.148
 2462POPC   C1A35067   2.047  34.585   8.714
 2462POPC   D2A35068   2.142  34.322   8.364
 2462POPC   C3A35069   2.123  34.667   8.079
 2462POPC   C4A35070   2.269  34.620   7.693
 2462POPC   C1B35071   1.768  35.093   8.822
 2462POPC   C2B35072   1.757  34.996   8.413
 2462POPC   C3B35073   1.615  34.903   8.008
 2462POPC   C4B35074   1.805  34.839   7.622
 2463POPC   NC335075  27.107  11.076   9.559
 2463POPC   PO435076  26.545  11.466   9.412
 2463POPC   GL135077  26.791  11.232   9.122
 2463POPC   GL235078  27.132  11.332   9.127
 2463POPC   C1A35079  26.664  11.250   8.700
 2463POPC   D2A35080  26.800  11.037   8.354
 2463POPC   C3A35081  26.519  11.088   8.009
 2463POPC   C4A35082  26.548  11.271   7.618
 2463POPC   C1B35083  27.107  11.500   8.725
 2463POPC   C2B35084  26.911  11.551   8.331
 2463POPC   C3B35085  26.972  11.315   7.952
 2463POPC   C4B35086  27.042  11.467   7.547
 2464POPC   NC335087  38.160  34.824   9.406
 2464POPC   PO435088  38.533  34.157   9.431
 2464POPC   GL135089  38.478  34.488   9.161
 2464POPC   GL235090  38.142  34.405   9.093
 2464POPC   C1A35091  38.719  34.600   8.789
 2464POPC   D2A35092  38.714  34.297   8.474
 2464POPC   C3A35093  38.518  34.376   8.112
 2464POPC   C4A35094  38.659  34.323   7.721
 2464POPC   C1B35095  38.230  34.732   8.761
 2464POPC   C2B35096  38.427  34.789   8.383
 2464POPC   C3B35097  38.291  34.820   7.974
 2464POPC   C4B35098  38.472  34.927   7.594
 2465POPC   NC335099  38.787  10.400   9.316
 2465POPC   PO435100  39.308  10.812   9.514
 2465POPC   GL135101  39.174  10.668   9.110
 2465POPC   GL235102  39.305  10.329   9.172
 2465POPC   C1A35103  39.008  10.464   8.716
 2465POPC   D2A35104  39.112  10.147   8.392
 2465POPC   C3A35105  39.056  10.388   7.999
 2465POPC   C4A35106  39.088  10.788   7.769
 2465POPC   C1B35107  39.493  10.398   8.762
 2465POPC   C2B35108  39.421  10.557   8.371
 2465POPC   C3B35109  39.558  10.646   7.975
 2465POPC   C4B35110  39.491  10.484   7.608
 2466POPC   NC335111  17.107  12.689   9.365
 2466POPC   PO435112  16.398  12.892   9.464
 2466POPC   GL135113  16.667  12.817   9.115
 2466POPC   GL235114  16.995  13.025   9.011
 2466POPC   C1A35115  16.517  12.895   8.719
 2466POPC   D2A35116  16.314  12.662   8.416
 2466POPC   C3A35117  16.413  12.853   8.025
 2466POPC   C4A35118  16.549  12.883   7.605
 2466POPC   C1B35119  16.968  12.682   8.710
 2466POPC   C2B35120  16.818  12.656   8.314
 2466POPC   C3B35121  16.925  12.823   7.938
 2466POPC   C4B35122  16.942  13.238   7.701
 2467POPC   NC335123  25.083  41.911   9.468
 2467POPC   PO435124  25.472  42.564   9.506
 2467POPC   GL135125  25.297  42.420   9.148
 2467POPC   GL235126  25.366  42.073   9.074
 2467POPC   C1A35127  25.461  42.419   8.732
 2467POPC   D2A35128  25.369  42.183   8.396
 2467POPC   C3A35129  25.511  42.182   8.008
 2467POPC   C4A35130  25.405  42.328   7.624
 2467POPC   C1B35131  25.004  42.188   8.785
 2467POPC   C2B35132  24.872  42.300   8.345
 2467POPC   C3B35133  24.994  42.138   7.904
 2467POPC   C4B35134  25.246  41.856   7.568
 2468POPC   NC335135  42.870  19.942   9.281
 2468POPC   PO435136  43.375  19.559   9.529
 2468POPC   GL135137  43.276  19.718   9.123
 2468POPC   GL235138  43.361  20.062   9.104
 2468POPC   C1A35139  42.975  19.520   8.792
 2468POPC   D2A35140  42.787  19.752   8.465
 2468POPC   C3A35141  42.829  19.717   8.033
 2468POPC   C4A35142  42.835  20.023   7.705
 2468POPC   C1B35143  43.280  19.922   8.667
 2468POPC   C2B35144  43.147  20.076   8.297
 2468POPC   C3B35145  43.308  19.914   7.944
 2468POPC   C4B35146  43.164  19.635   7.613
 2469POPC   NC335147   4.360  32.347   9.796
 2469POPC   PO435148   5.059  32.213   9.691
 2469POPC   GL135149   5.140  32.142   9.254
 2469POPC   GL235150   4.841  32.213   9.194
 2469POPC   C1A35151   5.113  32.044   8.793
 2469POPC   D2A35152   5.326  32.072   8.398
 2469POPC   C3A35153   5.097  32.105   8.026
 2469POPC   C4A35154   5.096  32.252   7.622
 2469POPC   C1B35155   4.857  32.478   8.829
 2469POPC   C2B35156   4.888  32.393   8.401
 2469POPC   C3B35157   4.835  32.560   7.983
 2469POPC   C4B35158   4.625  32.422   7.611
 2470POPC   NC335159   9.020  18.707   9.489
 2470POPC   PO435160   8.637  19.193   9.507
 2470POPC   GL135161   9.006  19.180   9.239
 2470POPC   GL235162   8.987  18.868   9.017
 2470POPC   C1A35163   9.094  19.322   8.839
 2470POPC   D2A35164   9.011  19.066   8.475
 2470POPC   C3A35165   9.077  19.235   8.086
 2470POPC   C4A35166   8.982  19.021   7.720
 2470POPC   C1B35167   9.381  18.901   8.786
 2470POPC   C2B35168   9.472  18.819   8.347
 2470POPC   C3B35169   9.441  18.864   7.879
 2470POPC   C4B35170   9.478  18.731   7.415
 2471POPC   NC335171  19.003  16.932   9.530
 2471POPC   PO435172  18.666  16.357   9.466
 2471POPC   GL135173  18.926  16.589   9.142
 2471POPC   GL235174  19.278  16.546   9.285
 2471POPC   C1A35175  18.931  16.759   8.667
 2471POPC   D2A35176  18.938  16.525   8.242
 2471POPC   C3A35177  18.839  16.652   7.823
 2471POPC   C4A35178  18.463  16.787   7.581
 2471POPC   C1B35179  19.342  16.488   8.849
 2471POPC   C2B35180  19.400  16.531   8.412
 2471POPC   C3B35181  19.372  16.424   7.963
 2471POPC   C4B35182  19.310  16.598   7.521
 2472POPC   NC335183  43.277  16.640   9.479
 2472POPC   PO435184  42.739  17.004   9.588
 2472POPC   GL135185  42.908  16.817   9.189
 2472POPC   GL235186  43.253  16.970   9.090
 2472POPC   C1A35187  43.035  16.587   8.814
 2472POPC   D2A35188  43.031  16.690   8.379
 2472POPC   C3A35189  43.049  16.512   8.005
 2472POPC   C4A35190  42.859  16.581   7.630
 2472POPC   C1B35191  43.325  16.974   8.655
 2472POPC   C2B35192  43.640  16.894   8.333
 2472POPC   C3B35193  43.712  16.837   7.905
 2472POPC   C4B35194  43.320  16.872   7.679
 2473POPC   NC335195  43.295  33.733   9.541
 2473POPC   PO435196  42.728  33.920   9.521
 2473POPC   GL135197  42.941  33.762   9.157
 2473POPC   GL235198  43.309  33.725   9.023
 2473POPC   C1A35199  42.935  33.608   8.738
 2473POPC   D2A35200  43.166  33.759   8.407
 2473POPC   C3A35201  42.976  33.654   8.046
 2473POPC   C4A35202  43.227  33.679   7.697
 2473POPC   C1B35203  43.161  34.067   8.804
 2473POPC   C2B35204  42.906  34.198   8.444
 2473POPC   C3B35205  43.017  34.161   8.008
 2473POPC   C4B35206  43.008  34.129   7.563
 2474POPC   NC335207   4.346   2.712   9.568
 2474POPC   PO435208   4.273   3.324   9.477
 2474POPC   GL135209   4.324   2.921   9.127
 2474POPC   GL235210   4.592   2.661   9.133
 2474POPC   C1A35211   4.538   2.901   8.684
 2474POPC   D2A35212   4.649   3.181   8.330
 2474POPC   C3A35213   4.508   3.043   7.911
 2474POPC   C4A35214   4.243   2.794   7.616
 2474POPC   C1B35215   4.394   2.433   8.803
 2474POPC   C2B35216   4.223   2.539   8.394
 2474POPC   C3B35217   4.437   2.547   8.012
 2474POPC   C4B35218   4.519   2.368   7.591
 2475POPC   NC335219  21.124  33.664   9.411
 2475POPC   PO435220  20.972  34.110   9.206
 2475POPC   GL135221  21.149  33.801   8.929
 2475POPC   GL235222  21.477  33.846   9.037
 2475POPC   C1A35223  21.337  33.666   8.556
 2475POPC   D2A35224  21.356  33.882   8.184
 2475POPC   C3A35225  21.242  33.704   7.824
 2475POPC   C4A35226  21.082  33.705   7.374
 2475POPC   C1B35227  21.597  34.089   8.653
 2475POPC   C2B35228  21.829  34.023   8.265
 2475POPC   C3B35229  21.788  33.824   7.844
 2475POPC   C4B35230  21.934  33.881   7.392
 2476POPC   NC335231  42.383   0.811   9.927
 2476POPC   PO435232  42.271   0.266   9.496
 2476POPC   GL135233  42.288   0.382   9.065
 2476POPC   GL235234  42.623   0.562   9.032
 2476POPC   C1A35235  42.304   0.375   8.621
 2476POPC   D2A35236  42.530   0.655   8.353
 2476POPC   C3A35237  42.473   0.530   7.915
 2476POPC   C4A35238  42.463   0.582   7.446
 2476POPC   C1B35239  42.784   0.270   8.696
 2476POPC   C2B35240  42.700   0.169   8.280
 2476POPC   C3B35241  42.646   0.004   7.884
 2476POPC   C4B35242  42.629   0.060   7.463
 2477POPC   NC335243  42.370  31.876   9.811
 2477POPC   PO435244  42.550  31.413   9.314
 2477POPC   GL135245  42.514  31.581   8.907
 2477POPC   GL235246  42.319  31.290   8.852
 2477POPC   C1A35247  42.439  31.669   8.478
 2477POPC   D2A35248  42.513  31.290   8.301
 2477POPC   C3A35249  42.413  31.245   7.885
 2477POPC   C4A35250  42.463  31.640   7.654
 2477POPC   C1B35251  42.037  31.683   8.786
 2477POPC   C2B35252  41.910  31.775   8.414
 2477POPC   C3B35253  42.081  31.619   8.050
 2477POPC   C4B35254  41.860  31.650   7.692
 2478POPC   NC335255  34.433  12.556   9.739
 2478POPC   PO435256  35.024  12.696   9.438
 2478POPC   GL135257  34.746  12.761   9.076
 2478POPC   GL235258  34.544  13.040   8.997
 2478POPC   C1A35259  34.635  12.688   8.628
 2478POPC   D2A35260  34.774  12.892   8.262
 2478POPC   C3A35261  34.880  12.712   7.897
 2478POPC   C4A35262  34.852  12.857   7.482
 2478POPC   C1B35263  34.189  12.985   8.723
 2478POPC   C2B35264  34.287  13.028   8.300
 2478POPC   C3B35265  34.400  12.917   7.875
 2478POPC   C4B35266  34.343  12.955   7.430
 2479POPC   NC335267   3.628  34.103   9.506
 2479POPC   PO435268   3.754  33.366   9.544
 2479POPC   GL135269   3.533  33.671   9.238
 2479POPC   GL235270   3.194  33.607   9.132
 2479POPC   C1A35271   3.478  33.853   8.803
 2479POPC   D2A35272   3.478  33.656   8.393
 2479POPC   C3A35273   3.524  33.872   8.022
 2479POPC   C4A35274   3.377  34.151   7.723
 2479POPC   C1B35275   3.177  33.401   8.735
 2479POPC   C2B35276   3.123  33.285   8.292
 2479POPC   C3B35277   3.249  33.459   7.952
 2479POPC   C4B35278   3.215  33.625   7.556
 2480POPC   NC335279  22.324  22.591   9.531
 2480POPC   PO435280  21.957  23.224   9.541
 2480POPC   GL135281  22.172  23.172   9.189
 2480POPC   GL235282  22.263  23.488   9.172
 2480POPC   C1A35283  22.388  23.166   8.809
 2480POPC   D2A35284  22.280  22.923   8.503
 2480POPC   C3A35285  22.398  22.960   8.090
 2480POPC   C4A35286  22.326  22.736   7.773
 2480POPC   C1B35287  21.934  23.449   8.796
 2480POPC   C2B35288  21.737  23.303   8.416
 2480POPC   C3B35289  21.911  23.128   8.060
 2480POPC   C4B35290  22.131  23.225   7.710
 2481POPC   NC335291   7.814  43.935   9.568
 2481POPC   PO435292   7.195  44.139   9.647
 2481POPC   GL135293   7.241  43.858   9.294
 2481POPC   GL235294   7.559  43.788   9.155
 2481POPC   C1A35295   7.214  44.024   8.843
 2481POPC   D2A35296   7.178  44.217   8.392
 2481POPC   C3A35297   7.195  44.030   7.946
 2481POPC   C4A35298   7.162  44.158   7.497
 2481POPC   C1B35299   7.594  43.708   8.697
 2481POPC   C2B35300   7.571  43.843   8.283
 2481POPC   C3B35301   7.878  43.759   7.953
 2481POPC   C4B35302   8.134  43.824   7.595
 2482POPC   NC335303  33.900  11.729   9.793
 2482POPC   PO435304  34.048  12.384   9.551
 2482POPC   GL135305  33.881  12.220   9.174
 2482POPC   GL235306  33.545  12.288   9.211
 2482POPC   C1A35307  33.925  12.332   8.697
 2482POPC   D2A35308  33.699  12.288   8.284
 2482POPC   C3A35309  33.942  12.117   7.897
 2482POPC   C4A35310  34.019  11.870   7.498
 2482POPC   C1B35311  33.584  11.983   8.823
 2482POPC   C2B35312  33.400  11.797   8.468
 2482POPC   C3B35313  33.559  11.817   8.108
 2482POPC   C4B35314  33.605  11.671   7.741
 2483POPC   NC335315   5.736   0.636   9.463
 2483POPC   PO435316   6.297   0.388   9.536
 2483POPC   GL135317   6.075   0.402   9.165
 2483POPC   GL235318   5.745   0.303   9.035
 2483POPC   C1A35319   6.120   0.527   8.766
 2483POPC   D2A35320   5.852   0.336   8.509
 2483POPC   C3A35321   5.859   0.477   8.125
 2483POPC   C4A35322   5.852   0.406   7.704
 2483POPC   C1B35323   5.594  44.939   8.734
 2483POPC   C2B35324   5.528   0.000   8.300
 2483POPC   C3B35325   5.485   0.137   7.914
 2483POPC   C4B35326   5.642  44.954   7.546
 2484POPC   NC335327  33.349  35.726   9.453
 2484POPC   PO435328  33.077  35.064   9.432
 2484POPC   GL135329  33.058  35.449   9.129
 2484POPC   GL235330  33.334  35.603   8.967
 2484POPC   C1A35331  32.868  35.585   8.744
 2484POPC   D2A35332  32.712  35.270   8.492
 2484POPC   C3A35333  32.666  35.329   8.092
 2484POPC   C4A35334  32.929  35.418   7.797
 2484POPC   C1B35335  33.256  35.244   8.691
 2484POPC   C2B35336  33.164  35.250   8.249
 2484POPC   C3B35337  33.260  35.045   7.876
 2484POPC   C4B35338  33.365  35.236   7.513
 2485POPC   NC335339   9.193  28.737   9.770
 2485POPC   PO435340   8.998  29.222   9.642
 2485POPC   GL135341   9.009  29.325   9.196
 2485POPC   GL235342   9.168  29.662   9.184
 2485POPC   C1A35343   8.803  29.217   8.798
 2485POPC   D2A35344   9.041  29.216   8.400
 2485POPC   C3A35345   9.025  29.024   7.985
 2485POPC   C4A35346   9.280  28.999   7.595
 2485POPC   C1B35347   9.094  29.622   8.740
 2485POPC   C2B35348   8.921  29.705   8.313
 2485POPC   C3B35349   8.909  29.537   7.884
 2485POPC   C4B35350   8.648  29.618   7.495
 2486POPC   NC335351  23.361  31.302   9.625
 2486POPC   PO435352  23.914  31.680   9.687
 2486POPC   GL135353  23.790  31.410   9.319
 2486POPC   GL235354  23.500  31.589   9.210
 2486POPC   C1A35355  23.792  31.187   8.895
 2486POPC   D2A35356  23.636  31.264   8.460
 2486POPC   C3A35357  23.811  31.188   8.076
 2486POPC   C4A35358  23.781  31.522   7.751
 2486POPC   C1B35359  23.295  31.715   8.841
 2486POPC   C2B35360  23.457  31.755   8.426
 2486POPC   C3B35361  23.596  31.901   8.049
 2486POPC   C4B35362  23.374  31.872   7.669
 2487POPC   NC335363  38.479   6.321   9.461
 2487POPC   PO435364  38.541   7.019   9.431
 2487POPC   GL135365  38.595   6.688   9.137
 2487POPC   GL235366  38.224   6.626   9.126
 2487POPC   C1A35367  38.734   6.599   8.736
 2487POPC   D2A35368  38.586   6.893   8.426
 2487POPC   C3A35369  38.642   6.762   8.026
 2487POPC   C4A35370  38.863   6.439   7.849
 2487POPC   C1B35371  38.244   6.494   8.694
 2487POPC   C2B35372  38.429   6.353   8.303
 2487POPC   C3B35373  38.369   6.361   7.872
 2487POPC   C4B35374  38.223   6.788   7.732
 2488POPC   NC335375  40.254   4.228   9.606
 2488POPC   PO435376  39.935   4.845   9.518
 2488POPC   GL135377  39.932   4.432   9.232
 2488POPC   GL235378  40.236   4.391   9.053
 2488POPC   C1A35379  39.858   4.460   8.735
 2488POPC   D2A35380  40.089   4.600   8.357
 2488POPC   C3A35381  40.070   4.386   7.966
 2488POPC   C4A35382  39.732   4.340   7.675
 2488POPC   C1B35383  40.443   4.372   8.665
 2488POPC   C2B35384  40.488   4.205   8.257
 2488POPC   C3B35385  40.453   4.014   7.852
 2488POPC   C4B35386  40.265   4.153   7.488
 2489POPC   NC335387  13.395  43.937   9.496
 2489POPC   PO435388  14.053  44.256   9.541
 2489POPC   GL135389  13.750  44.211   9.246
 2489POPC   GL235390  13.752  43.865   9.099
 2489POPC   C1A35391  13.613  44.280   8.858
 2489POPC   D2A35392  13.497  43.993   8.525
 2489POPC   C3A35393  13.569  44.101   8.097
 2489POPC   C4A35394  13.709  43.997   7.704
 2489POPC   C1B35395  13.703  43.586   8.755
 2489POPC   C2B35396  13.742  43.397   8.366
 2489POPC   C3B35397  13.695  43.576   7.992
 2489POPC   C4B35398  13.670  43.494   7.586
 2490POPC   NC335399  36.758  32.766   9.349
 2490POPC   PO435400  37.200  33.176   9.655
 2490POPC   GL135401  37.131  33.321   9.145
 2490POPC   GL235402  36.813  33.156   9.004
 2490POPC   C1A35403  37.180  33.277   8.656
 2490POPC   D2A35404  37.106  33.017   8.234
 2490POPC   C3A35405  37.064  33.137   7.774
 2490POPC   C4A35406  36.827  33.342   7.432
 2490POPC   C1B35407  36.941  32.810   8.673
 2490POPC   C2B35408  36.850  32.569   8.325
 2490POPC   C3B35409  36.787  32.722   7.932
 2490POPC   C4B35410  37.064  32.652   7.612
 2491POPC   NC335411   7.172  21.996   9.584
 2491POPC   PO435412   7.660  22.393   9.526
 2491POPC   GL135413   7.473  22.130   9.172
 2491POPC   GL235414   7.112  22.028   9.080
 2491POPC   C1A35415   7.518  21.973   8.735
 2491POPC   D2A35416   7.631  22.181   8.313
 2491POPC   C3A35417   7.622  21.927   7.932
 2491POPC   C4A35418   7.496  22.032   7.517
 2491POPC   C1B35419   7.068  21.739   8.713
 2491POPC   C2B35420   7.233  21.810   8.280
 2491POPC   C3B35421   7.104  22.001   7.864
 2491POPC   C4B35422   7.069  21.765   7.441
 2492POPC   NC335423  19.351  10.692   9.573
 2492POPC   PO435424  18.693  10.768   9.616
 2492POPC   GL135425  18.960  10.632   9.222
 2492POPC   GL235426  19.282  10.787   9.095
 2492POPC   C1A35427  18.814  10.590   8.771
 2492POPC   D2A35428  18.628  10.383   8.410
 2492POPC   C3A35429  18.783  10.529   8.035
 2492POPC   C4A35430  18.868  10.379   7.646
 2492POPC   C1B35431  19.294  10.455   8.813
 2492POPC   C2B35432  19.136  10.365   8.407
 2492POPC   C3B35433  19.282  10.383   8.028
 2492POPC   C4B35434  19.204  10.711   7.761
 2493POPC   NC335435  17.713   1.830   9.478
 2493POPC   PO435436  17.143   2.010   9.652
 2493POPC   GL135437  17.109   2.056   9.192
 2493POPC   GL235438  17.433   2.147   9.120
 2493POPC   C1A35439  17.198   1.914   8.728
 2493POPC   D2A35440  17.406   1.774   8.332
 2493POPC   C3A35441  17.435   2.054   7.960
 2493POPC   C4A35442  17.372   1.767   7.635
 2493POPC   C1B35443  17.612   2.259   8.760
 2493POPC   C2B35444  17.749   2.157   8.385
 2493POPC   C3B35445  17.920   2.197   7.997
 2493POPC   C4B35446  17.836   2.059   7.589
 2494POPC   NC335447  19.301  17.461   9.310
 2494POPC   PO435448  18.770  17.343   9.563
 2494POPC   GL135449  18.879  17.223   9.107
 2494POPC   GL235450  19.169  17.024   9.038
 2494POPC   C1A35451  18.971  17.289   8.642
 2494POPC   D2A35452  19.158  17.142   8.230
 2494POPC   C3A35453  19.150  17.469   7.895
 2494POPC   C4A35454  19.008  17.859   7.672
 2494POPC   C1B35455  19.394  16.983   8.673
 2494POPC   C2B35456  19.682  17.110   8.336
 2494POPC   C3B35457  19.656  17.250   7.930
 2494POPC   C4B35458  19.395  17.142   7.591
 2495POPC   NC335459   7.079  34.244   9.362
 2495POPC   PO435460   6.424  34.296   9.540
 2495POPC   GL135461   6.602  34.469   9.159
 2495POPC   GL235462   6.713  34.163   9.012
 2495POPC   C1A35463   6.553  34.821   8.843
 2495POPC   D2A35464   6.403  34.924   8.421
 2495POPC   C3A35465   6.583  34.927   8.003
 2495POPC   C4A35466   6.549  34.854   7.534
 2495POPC   C1B35467   6.699  34.380   8.627
 2495POPC   C2B35468   6.815  34.539   8.257
 2495POPC   C3B35469   6.668  34.449   7.845
 2495POPC   C4B35470   6.818  34.325   7.454
 2496POPC   NC335471  26.974  29.355   9.625
 2496POPC   PO435472  26.814  30.021   9.486
 2496POPC   GL135473  26.716  29.992   9.090
 2496POPC   GL235474  26.719  29.622   9.082
 2496POPC   C1A35475  26.762  30.155   8.707
 2496POPC   D2A35476  26.969  30.037   8.328
 2496POPC   C3A35477  26.815  30.174   7.941
 2496POPC   C4A35478  26.912  29.851   7.714
 2496POPC   C1B35479  26.576  29.670   8.672
 2496POPC   C2B35480  26.387  29.594   8.305
 2496POPC   C3B35481  26.477  29.726   7.914
 2496POPC   C4B35482  26.475  29.515   7.528
 2497POPC   NC335483  11.286  39.096   9.508
 2497POPC   PO435484  11.540  39.665   9.735
 2497POPC   GL135485  11.368  39.529   9.257
 2497POPC   GL235486  11.629  39.290   9.179
 2497POPC   C1A35487  11.204  39.374   8.844
 2497POPC   D2A35488  11.256  38.975   8.573
 2497POPC   C3A35489  11.285  39.038   8.100
 2497POPC   C4A35490  11.156  39.024   7.646
 2497POPC   C1B35491  11.703  39.427   8.751
 2497POPC   C2B35492  11.513  39.390   8.403
 2497POPC   C3B35493  11.651  39.445   8.034
 2497POPC   C4B35494  11.356  39.465   7.785
 2498POPC   NC335495   7.949  41.352   9.580
 2498POPC   PO435496   8.335  41.903   9.449
 2498POPC   GL135497   8.249  41.596   9.154
 2498POPC   GL235498   8.547  41.404   9.203
 2498POPC   C1A35499   8.112  41.644   8.719
 2498POPC   D2A35500   7.883  41.687   8.327
 2498POPC   C3A35501   8.072  41.630   7.910
 2498POPC   C4A35502   8.025  41.944   7.587
 2498POPC   C1B35503   8.511  41.307   8.767
 2498POPC   C2B35504   8.407  41.439   8.343
 2498POPC   C3B35505   8.376  41.170   7.995
 2498POPC   C4B35506   8.320  41.228   7.559
 2499POPC   NC335507  38.747  38.861   9.342
 2499POPC   PO435508  39.192  39.288   9.696
 2499POPC   GL135509  39.245  39.389   9.271
 2499POPC   GL235510  39.457  39.101   9.247
 2499POPC   C1A35511  39.135  39.475   8.837
 2499POPC   D2A35512  39.143  39.275   8.447
 2499POPC   C3A35513  38.960  39.338   8.043
 2499POPC   C4A35514  39.026  38.988   7.793
 2499POPC   C1B35515  39.595  39.138   8.848
 2499POPC   C2B35516  39.595  39.029   8.437
 2499POPC   C3B35517  39.489  39.190   8.061
 2499POPC   C4B35518  39.368  39.403   7.715
 2500POPC   NC335519  33.333  13.584   9.812
 2500POPC   PO435520  32.733  13.345   9.440
 2500POPC   GL135521  32.835  13.601   9.099
 2500POPC   GL235522  32.994  13.925   9.215
 2500POPC   C1A35523  32.971  13.470   8.688
 2500POPC   D2A35524  32.881  13.204   8.340
 2500POPC   C3A35525  32.963  13.434   8.018
 2500POPC   C4A35526  33.296  13.576   7.808
 2500POPC   C1B35527  32.887  13.982   8.772
 2500POPC   C2B35528  32.847  13.822   8.342
 2500POPC   C3B35529  33.060  13.959   8.006
 2500POPC   C4B35530  32.918  14.184   7.713
 2501POPC   NC335531  16.943  28.970   9.444
 2501POPC   PO435532  16.608  29.483   9.701
 2501POPC   GL135533  16.598  29.482   9.283
 2501POPC   GL235534  16.946  29.434   9.174
 2501POPC   C1A35535  16.476  29.241   8.922
 2501POPC   D2A35536  16.506  29.376   8.507
 2501POPC   C3A35537  16.415  29.118   8.155
 2501POPC   C4A35538  16.659  29.001   7.776
 2501POPC   C1B35539  17.000  29.183   8.802
 2501POPC   C2B35540  16.897  29.015   8.412
 2501POPC   C3B35541  16.881  29.318   8.103
 2501POPC   C4B35542  17.012  29.370   7.689
 2502POPC   NC335543  11.163  44.442   9.379
 2502POPC   PO435544  11.404  44.891   9.766
 2502POPC   GL135545  11.298  44.912   9.276
 2502POPC   GL235546  11.553  44.633   9.164
 2502POPC   C1A35547  11.269  44.836   8.796
 2502POPC   D2A35548  11.042  44.855   8.371
 2502POPC   C3A35549  11.154  44.724   7.956
 2502POPC   C4A35550  11.140  44.534   7.549
 2502POPC   C1B35551  11.727  44.423   8.825
 2502POPC   C2B35552  11.566  44.441   8.420
 2502POPC   C3B35553  11.637  44.522   8.012
 2502POPC   C4B35554  11.671  44.349   7.615
 2503POPC   NC335555   7.448   3.705   9.636
 2503POPC   PO435556   7.114   3.262   9.516
 2503POPC   GL135557   7.272   3.472   9.113
 2503POPC   GL235558   7.366   3.808   9.130
 2503POPC   C1A35559   7.294   3.612   8.659
 2503POPC   D2A35560   7.005   3.624   8.280
 2503POPC   C3A35561   7.272   3.719   7.896
 2503POPC   C4A35562   7.550   3.448   7.653
 2503POPC   C1B35563   7.779   3.826   8.840
 2503POPC   C2B35564   7.860   3.929   8.429
 2503POPC   C3B35565   7.828   3.732   8.018
 2503POPC   C4B35566   7.739   3.925   7.626
 2504POPC   NC335567   9.679  33.973   9.531
 2504POPC   PO435568   9.936  33.267   9.577
 2504POPC   GL135569   9.877  33.577   9.260
 2504POPC   GL235570   9.506  33.615   9.174
 2504POPC   C1A35571   9.874  33.804   8.886
 2504POPC   D2A35572   9.755  33.842   8.468
 2504POPC   C3A35573  10.049  33.778   8.155
 2504POPC   C4A35574   9.970  33.636   7.740
 2504POPC   C1B35575   9.328  33.843   8.790
 2504POPC   C2B35576   9.251  33.865   8.339
 2504POPC   C3B35577   9.546  33.739   7.995
 2504POPC   C4B35578   9.495  33.692   7.511
 2505POPC   NC335579  31.262  16.292   9.452
 2505POPC   PO435580  31.346  15.632   9.371
 2505POPC   GL135581  31.385  15.937   9.092
 2505POPC   GL235582  31.629  16.201   9.134
 2505POPC   C1A35583  31.481  15.856   8.696
 2505POPC   D2A35584  31.369  15.722   8.311
 2505POPC   C3A35585  31.644  15.570   8.044
 2505POPC   C4A35586  31.490  15.683   7.664
 2505POPC   C1B35587  31.346  16.346   8.793
 2505POPC   C2B35588  31.321  16.222   8.371
 2505POPC   C3B35589  31.552  16.101   7.977
 2505POPC   C4B35590  31.361  16.268   7.582
 2506POPC   NC335591  12.001  16.055   9.624
 2506POPC   PO435592  11.851  15.402   9.759
 2506POPC   GL135593  12.065  15.650   9.315
 2506POPC   GL235594  12.111  16.026   9.146
 2506POPC   C1A35595  12.168  15.639   8.827
 2506POPC   D2A35596  12.352  15.678   8.393
 2506POPC   C3A35597  12.226  15.877   7.997
 2506POPC   C4A35598  12.083  15.698   7.597
 2506POPC   C1B35599  12.011  16.127   8.724
 2506POPC   C2B35600  11.777  15.863   8.433
 2506POPC   C3B35601  11.731  15.744   8.013
 2506POPC   C4B35602  11.853  16.129   7.791
 2507POPC   NC335603  35.741  29.157   9.709
 2507POPC   PO435604  36.223  28.746   9.413
 2507POPC   GL135605  36.052  29.016   9.079
 2507POPC   GL235606  36.137  29.330   9.137
 2507POPC   C1A35607  36.155  29.126   8.641
 2507POPC   D2A35608  36.039  28.930   8.256
 2507POPC   C3A35609  36.335  28.982   7.913
 2507POPC   C4A35610  36.288  28.859   7.491
 2507POPC   C1B35611  36.046  29.615   8.765
 2507POPC   C2B35612  36.274  29.624   8.376
 2507POPC   C3B35613  36.265  29.484   7.945
 2507POPC   C4B35614  36.122  29.333   7.536
 2508POPC   NC335615   5.995  12.389   9.474
 2508POPC   PO435616   5.723  13.134   9.472
 2508POPC   GL135617   5.676  12.915   9.091
 2508POPC   GL235618   5.702  12.575   9.096
 2508POPC   C1A35619   5.851  12.894   8.671
 2508POPC   D2A35620   6.172  12.804   8.382
 2508POPC   C3A35621   6.016  12.897   8.012
 2508POPC   C4A35622   5.976  13.165   7.673
 2508POPC   C1B35623   5.719  12.403   8.683
 2508POPC   C2B35624   5.614  12.533   8.263
 2508POPC   C3B35625   5.799  12.421   7.868
 2508POPC   C4B35626   5.944  12.675   7.516
 2509POPC   NC335627  17.306  44.452   9.351
 2509POPC   PO435628  17.894  44.804   9.492
 2509POPC   GL135629  17.642  44.819   9.088
 2509POPC   GL235630  17.532  44.489   8.914
 2509POPC   C1A35631  17.800  44.811   8.663
 2509POPC   D2A35632  17.577  44.540   8.378
 2509POPC   C3A35633  17.688  44.631   7.965
 2509POPC   C4A35634  17.733   0.019   7.803
 2509POPC   C1B35635  17.201  44.665   8.693
 2509POPC   C2B35636  17.059  44.867   8.341
 2509POPC   C3B35637  17.220  44.869   7.913
 2509POPC   C4B35638  16.965  44.955   7.548
 2510POPC   NC335639  18.768  14.446   9.450
 2510POPC   PO435640  18.064  14.375   9.514
 2510POPC   GL135641  18.109  14.274   9.072
 2510POPC   GL235642  18.462  14.172   9.052
 2510POPC   C1A35643  18.236  14.400   8.649
 2510POPC   D2A35644  18.551  14.381   8.347
 2510POPC   C3A35645  18.490  14.582   7.937
 2510POPC   C4A35646  18.134  14.434   7.681
 2510POPC   C1B35647  18.548  13.938   8.669
 2510POPC   C2B35648  18.671  13.882   8.229
 2510POPC   C3B35649  18.462  14.084   7.880
 2510POPC   C4B35650  18.509  14.170   7.430
 2511POPC   NC335651  41.908   9.919   9.440
 2511POPC   PO435652  42.456   9.806   9.537
 2511POPC   GL135653  42.326   9.883   9.126
 2511POPC   GL235654  42.111   9.651   9.010
 2511POPC   C1A35655  42.469   9.872   8.694
 2511POPC   D2A35656  42.566   9.558   8.342
 2511POPC   C3A35657  42.556   9.784   7.946
 2511POPC   C4A35658  42.439   9.740   7.527
 2511POPC   C1B35659  42.095   9.536   8.595
 2511POPC   C2B35660  42.147   9.843   8.271
 2511POPC   C3B35661  42.028   9.852   7.843
 2511POPC   C4B35662  41.615   9.703   7.692
 2512POPC   NC335663  42.110   2.356   9.533
 2512POPC   PO435664  42.760   2.624   9.483
 2512POPC   GL135665  42.468   2.837   9.190
 2512POPC   GL235666  42.130   2.781   9.249
 2512POPC   C1A35667  42.321   2.946   8.779
 2512POPC   D2A35668  42.459   2.830   8.388
 2512POPC   C3A35669  42.265   2.829   8.014
 2512POPC   C4A35670  42.371   2.558   7.691
 2512POPC   C1B35671  41.998   2.523   8.891
 2512POPC   C2B35672  41.979   2.576   8.456
 2512POPC   C3B35673  41.962   2.430   8.028
 2512POPC   C4B35674  41.876   2.689   7.627
 2513POPC   NC335675  14.142  37.791   9.550
 2513POPC   PO435676  14.750  37.635   9.742
 2513POPC   GL135677  14.572  37.729   9.266
 2513POPC   GL235678  14.267  37.600   9.086
 2513POPC   C1A35679  14.660  37.859   8.841
 2513POPC   D2A35680  14.351  37.966   8.522
 2513POPC   C3A35681  14.501  38.088   8.119
 2513POPC   C4A35682  14.396  37.951   7.705
 2513POPC   C1B35683  14.570  37.387   8.801
 2513POPC   C2B35684  14.625  37.511   8.392
 2513POPC   C3B35685  14.362  37.559   8.057
 2513POPC   C4B35686  14.454  37.318   7.712
 2514POPC   NC335687  44.810   4.542   9.637
 2514POPC   PO435688  44.798   3.873   9.433
 2514POPC   GL135689  44.822   4.217   9.148
 2514POPC   GL235690  44.577   4.496   9.172
 2514POPC   C1A35691  44.892   4.458   8.762
 2514POPC   D2A35692  44.750   4.552   8.344
 2514POPC   C3A35693  44.578   4.186   8.147
 2514POPC   C4A35694  44.597   4.139   7.725
 2514POPC   C1B35695  44.393   4.675   8.772
 2514POPC   C2B35696  44.245   4.680   8.323
 2514POPC   C3B35697  44.407   4.584   7.892
 2514POPC   C4B35698  44.376   4.492   7.429
 2515POPC   NC335699   0.865  17.458   9.541
 2515POPC   PO435700   1.514  17.268   9.345
 2515POPC   GL135701   1.230  17.536   9.146
 2515POPC   GL235702   0.954  17.317   9.046
 2515POPC   C1A35703   1.160  17.714   8.750
 2515POPC   D2A35704   1.231  17.533   8.362
 2515POPC   C3A35705   1.131  17.688   8.021
 2515POPC   C4A35706   0.997  17.439   7.733
 2515POPC   C1B35707   1.323  17.233   8.756
 2515POPC   C2B35708   1.479  17.095   8.403
 2515POPC   C3B35709   1.413  17.190   7.962
 2515POPC   C4B35710   1.296  17.073   7.538
 2516POPC   NC335711  13.103  35.929   9.477
 2516POPC   PO435712  12.482  36.391   9.544
 2516POPC   GL135713  12.763  36.205   9.226
 2516POPC   GL235714  13.058  36.386   9.145
 2516POPC   C1A35715  12.944  36.038   8.775
 2516POPC   D2A35716  13.201  36.099   8.393
 2516POPC   C3A35717  12.946  36.000   7.997
 2516POPC   C4A35718  12.797  35.837   7.546
 2516POPC   C1B35719  12.663  36.463   8.833
 2516POPC   C2B35720  12.597  36.255   8.465
 2516POPC   C3B35721  12.431  36.265   8.113
 2516POPC   C4B35722  12.664  36.375   7.808
 2517POPC   NC335723  39.990  17.226   9.527
 2517POPC   PO435724  39.900  17.922   9.569
 2517POPC   GL135725  40.051  17.620   9.196
 2517POPC   GL235726  39.784  17.384   9.086
 2517POPC   C1A35727  40.187  17.459   8.753
 2517POPC   D2A35728  40.418  17.530   8.347
 2517POPC   C3A35729  40.167  17.531   7.946
 2517POPC   C4A35730  40.092  17.802   7.576
 2517POPC   C1B35731  39.759  17.733   8.790
 2517POPC   C2B35732  39.943  17.778   8.375
 2517POPC   C3B35733  39.716  17.790   8.011
 2517POPC   C4B35734  39.666  17.482   7.714
 2518POPC   NC335735  42.734   8.482   9.399
 2518POPC   PO435736  42.075   8.228   9.466
 2518POPC   GL135737  42.307   8.180   9.151
 2518POPC   GL235738  42.553   7.925   9.229
 2518POPC   C1A35739  42.310   8.340   8.769
 2518POPC   D2A35740  42.489   8.550   8.449
 2518POPC   C3A35741  42.402   8.350   8.094
 2518POPC   C4A35742  42.252   8.222   7.727
 2518POPC   C1B35743  42.408   7.833   8.801
 2518POPC   C2B35744  42.513   7.962   8.406
 2518POPC   C3B35745  42.413   7.830   7.999
 2518POPC   C4B35746  42.574   7.843   7.565
 2519POPC   NC335747  40.580  41.355   9.616
 2519POPC   PO435748  41.017  41.844   9.529
 2519POPC   GL135749  40.834  41.586   9.220
 2519POPC   GL235750  41.043  41.314   9.099
 2519POPC   C1A35751  40.780  41.656   8.786
 2519POPC   D2A35752  40.863  41.461   8.397
 2519POPC   C3A35753  40.563  41.647   8.132
 2519POPC   C4A35754  40.655  41.876   7.759
 2519POPC   C1B35755  40.621  41.198   8.916
 2519POPC   C2B35756  40.408  41.224   8.499
 2519POPC   C3B35757  40.551  41.101   8.091
 2519POPC   C4B35758  40.616  41.334   7.733
 2520POPC   NC335759  33.809  44.303   9.795
 2520POPC   PO435760  33.519  43.811   9.537
 2520POPC   GL135761  33.691  43.945   9.176
 2520POPC   GL235762  33.699  44.316   9.210
 2520POPC   C1A35763  33.687  43.742   8.765
 2520POPC   D2A35764  33.634  43.901   8.336
 2520POPC   C3A35765  33.637  43.629   7.966
 2520POPC   C4A35766  33.648  43.730   7.535
 2520POPC   C1B35767  33.524  44.225   8.781
 2520POPC   C2B35768  33.563  44.433   8.408
 2520POPC   C3B35769  33.551  44.270   7.999
 2520POPC   C4B35770  33.742  44.230   7.605
 2521POPC   NC335771  39.011   6.077   9.716
 2521POPC   PO435772  39.552   5.910   9.460
 2521POPC   GL135773  39.308   5.965   9.115
 2521POPC   GL235774  38.998   5.825   9.196
 2521POPC   C1A35775  39.244   5.885   8.685
 2521POPC   D2A35776  39.149   5.614   8.341
 2521POPC   C3A35777  39.364   5.699   7.943
 2521POPC   C4A35778  39.116   5.559   7.602
 2521POPC   C1B35779  38.823   6.108   8.901
 2521POPC   C2B35780  38.802   6.059   8.456
 2521POPC   C3B35781  38.945   5.970   8.025
 2521POPC   C4B35782  39.133   6.069   7.613
 2522POPC   NC335783  35.721   6.871   9.736
 2522POPC   PO435784  36.276   6.682   9.582
 2522POPC   GL135785  36.100   6.746   9.199
 2522POPC   GL235786  36.420   6.927   9.134
 2522POPC   C1A35787  35.873   6.710   8.791
 2522POPC   D2A35788  35.773   6.980   8.444
 2522POPC   C3A35789  35.742   6.688   8.107
 2522POPC   C4A35790  35.916   6.654   7.699
 2522POPC   C1B35791  36.383   6.703   8.767
 2522POPC   C2B35792  36.182   6.665   8.380
 2522POPC   C3B35793  36.287   6.505   7.992
 2522POPC   C4B35794  36.325   6.371   7.548
 2523POPC   NC335795  12.791  14.600   9.483
 2523POPC   PO435796  12.620  13.898   9.506
 2523POPC   GL135797  12.712  14.169   9.181
 2523POPC   GL235798  13.051  14.170   9.119
 2523POPC   C1A35799  12.704  14.082   8.741
 2523POPC   D2A35800  12.713  14.379   8.413
 2523POPC   C3A35801  12.822  14.248   8.020
 2523POPC   C4A35802  12.611  14.378   7.681
 2523POPC   C1B35803  12.980  14.524   8.850
 2523POPC   C2B35804  12.947  14.837   8.522
 2523POPC   C3B35805  13.033  14.713   8.130
 2523POPC   C4B35806  13.022  14.679   7.732
 2524POPC   NC335807  30.638  33.455   9.564
 2524POPC   PO435808  30.470  32.839   9.489
 2524POPC   GL135809  30.700  32.993   9.152
 2524POPC   GL235810  30.827  33.338   9.063
 2524POPC   C1A35811  30.909  32.938   8.772
 2524POPC   D2A35812  30.834  33.136   8.392
 2524POPC   C3A35813  31.119  33.156   8.046
 2524POPC   C4A35814  30.915  33.090   7.673
 2524POPC   C1B35815  30.461  33.229   8.768
 2524POPC   C2B35816  30.288  32.973   8.430
 2524POPC   C3B35817  30.438  32.981   8.009
 2524POPC   C4B35818  30.393  33.084   7.583
 2525POPC   NC335819  35.787  21.370   9.445
 2525POPC   PO435820  36.479  21.442   9.450
 2525POPC   GL135821  36.222  21.201   9.196
 2525POPC   GL235822  36.114  21.537   9.089
 2525POPC   C1A35823  36.129  21.156   8.751
 2525POPC   D2A35824  36.085  21.461   8.423
 2525POPC   C3A35825  36.327  21.396   8.076
 2525POPC   C4A35826  36.176  21.530   7.711
 2525POPC   C1B35827  35.792  21.654   8.816
 2525POPC   C2B35828  35.611  21.719   8.404
 2525POPC   C3B35829  35.670  21.625   7.990
 2525POPC   C4B35830  35.768  21.265   7.791
 2526POPC   NC335831  12.041  38.382   9.563
 2526POPC   PO435832  11.639  37.876   9.484
 2526POPC   GL135833  11.869  38.147   9.163
 2526POPC   GL235834  11.815  38.521   9.119
 2526POPC   C1A35835  12.253  38.079   8.908
 2526POPC   D2A35836  12.498  38.255   8.551
 2526POPC   C3A35837  12.353  38.088   8.177
 2526POPC   C4A35838  12.282  38.090   7.768
 2526POPC   C1B35839  12.100  38.559   8.737
 2526POPC   C2B35840  12.102  38.547   8.256
 2526POPC   C3B35841  11.898  38.511   7.807
 2526POPC   C4B35842  11.731  38.660   7.370
 2527POPC   NC335843  18.611   1.529   9.505
 2527POPC   PO435844  19.060   0.948   9.520
 2527POPC   GL135845  18.977   1.144   9.160
 2527POPC   GL235846  19.316   1.135   9.085
 2527POPC   C1A35847  18.960   1.472   8.829
 2527POPC   D2A35848  19.085   1.474   8.393
 2527POPC   C3A35849  18.984   1.165   8.075
 2527POPC   C4A35850  18.821   1.218   7.666
 2527POPC   C1B35851  19.156   1.002   8.682
 2527POPC   C2B35852  19.395   1.007   8.319
 2527POPC   C3B35853  19.445   1.366   8.041
 2527POPC   C4B35854  19.326   1.261   7.646
 2528POPC   NC335855  40.043  22.578   9.446
 2528POPC   PO435856  40.001  21.885   9.319
 2528POPC   GL135857  39.740  22.042   9.034
 2528POPC   GL235858  39.684  22.400   9.088
 2528POPC   C1A35859  39.776  21.934   8.613
 2528POPC   D2A35860  40.190  21.955   8.431
 2528POPC   C3A35861  40.137  22.059   8.004
 2528POPC   C4A35862  40.217  21.810   7.657
 2528POPC   C1B35863  40.058  22.375   8.790
 2528POPC   C2B35864  40.176  22.496   8.373
 2528POPC   C3B35865  40.114  22.571   7.937
 2528POPC   C4B35866  40.200  22.383   7.554
 2529POPC   NC335867   2.582  17.995   9.289
 2529POPC   PO435868   1.870  18.165   9.310
 2529POPC   GL135869   2.187  18.207   9.022
 2529POPC   GL235870   2.443  18.465   9.105
 2529POPC   C1A35871   2.125  18.044   8.630
 2529POPC   D2A35872   1.856  18.138   8.311
 2529POPC   C3A35873   2.073  18.075   7.971
 2529POPC   C4A35874   1.896  17.892   7.639
 2529POPC   C1B35875   2.282  18.636   8.744
 2529POPC   C2B35876   2.269  18.449   8.341
 2529POPC   C3B35877   2.166  18.583   7.949
 2529POPC   C4B35878   2.211  18.354   7.545
 2530POPC   NC335879  21.765  11.990   9.164
 2530POPC   PO435880  21.155  12.117   9.450
 2530POPC   GL135881  21.277  12.070   9.053
 2530POPC   GL235882  21.349  11.715   9.007
 2530POPC   C1A35883  21.217  12.098   8.632
 2530POPC   D2A35884  20.920  12.012   8.341
 2530POPC   C3A35885  21.136  12.022   8.000
 2530POPC   C4A35886  21.206  12.385   7.831
 2530POPC   C1B35887  21.631  11.742   8.613
 2530POPC   C2B35888  21.575  12.010   8.267
 2530POPC   C3B35889  21.674  12.154   7.872
 2530POPC   C4B35890  21.740  11.762   7.650
 2531POPC   NC335891   6.942   4.476   9.558
 2531POPC   PO435892   7.571   4.140   9.661
 2531POPC   GL135893   7.618   4.238   9.187
 2531POPC   GL235894   7.301   4.336   9.163
 2531POPC   C1A35895   7.411   4.126   8.735
 2531POPC   D2A35896   7.223   4.082   8.369
 2531POPC   C3A35897   7.516   4.136   8.063
 2531POPC   C4A35898   7.343   4.258   7.723
 2531POPC   C1B35899   7.558   4.591   8.820
 2531POPC   C2B35900   7.580   4.497   8.405
 2531POPC   C3B35901   7.583   4.662   7.981
 2531POPC   C4B35902   7.746   4.875   7.624
 2532POPC   NC335903   1.128   0.996   9.430
 2532POPC   PO435904   1.692   1.434   9.509
 2532POPC   GL135905   1.435   1.525   9.150
 2532POPC   GL235906   1.109   1.357   9.035
 2532POPC   C1A35907   1.436   1.533   8.700
 2532POPC   D2A35908   1.312   1.189   8.422
 2532POPC   C3A35909   1.486   1.310   8.036
 2532POPC   C4A35910   1.416   1.128   7.654
 2532POPC   C1B35911   0.841   1.287   8.669
 2532POPC   C2B35912   0.783   0.981   8.332
 2532POPC   C3B35913   1.051   0.958   7.978
 2532POPC   C4B35914   0.998   1.386   7.859
 2533POPC   NC335915   6.119   7.497   9.582
 2533POPC   PO435916   5.479   7.335   9.532
 2533POPC   GL135917   5.566   7.404   9.134
 2533POPC   GL235918   5.891   7.516   9.138
 2533POPC   C1A35919   5.684   7.241   8.748
 2533POPC   D2A35920   5.682   7.430   8.371
 2533POPC   C3A35921   5.624   7.210   8.019
 2533POPC   C4A35922   5.597   7.484   7.695
 2533POPC   C1B35923   6.129   7.529   8.784
 2533POPC   C2B35924   6.123   7.698   8.381
 2533POPC   C3B35925   6.058   7.541   7.974
 2533POPC   C4B35926   6.022   7.691   7.521
 2534POPC   NC335927  44.444  37.939   9.477
 2534POPC   PO435928   0.050  37.813   9.773
 2534POPC   GL135929  44.841  37.665   9.297
 2534POPC   GL235930  44.495  37.513   9.204
 2534POPC   C1A35931  44.677  37.789   8.835
 2534POPC   D2A35932  44.461  37.758   8.426
 2534POPC   C3A35933  44.709  37.706   8.068
 2534POPC   C4A35934  44.888  37.761   7.662
 2534POPC   C1B35935  44.254  37.509   8.832
 2534POPC   C2B35936  44.284  37.183   8.498
 2534POPC   C3B35937  44.340  37.276   8.047
 2534POPC   C4B35938  44.385  37.578   7.713
 2535POPC   NC335939   7.686   3.073   9.441
 2535POPC   PO435940   7.489   2.445   9.416
 2535POPC   GL135941   7.492   2.676   9.063
 2535POPC   GL235942   7.293   2.960   9.131
 2535POPC   C1A35943   7.369   2.572   8.653
 2535POPC   D2A35944   7.588   2.751   8.321
 2535POPC   C3A35945   7.485   2.838   7.895
 2535POPC   C4A35946   7.789   2.994   7.593
 2535POPC   C1B35947   7.458   3.103   8.724
 2535POPC   C2B35948   7.408   3.257   8.274
 2535POPC   C3B35949   7.122   3.225   7.912
 2535POPC   C4B35950   6.805   3.063   7.639
 2536POPC   NC335951   2.184  19.559   9.507
 2536POPC   PO435952   1.728  20.070   9.614
 2536POPC   GL135953   1.927  19.938   9.230
 2536POPC   GL235954   1.717  19.652   9.254
 2536POPC   C1A35955   2.098  20.018   8.785
 2536POPC   D2A35956   2.204  19.875   8.354
 2536POPC   C3A35957   2.268  20.090   7.967
 2536POPC   C4A35958   2.126  19.830   7.601
 2536POPC   C1B35959   1.981  19.513   8.903
 2536POPC   C2B35960   1.958  19.437   8.513
 2536POPC   C3B35961   1.923  19.482   8.080
 2536POPC   C4B35962   1.803  19.363   7.661
 2537POPC   NC335963   7.386  19.448   9.466
 2537POPC   PO435964   7.502  20.135   9.598
 2537POPC   GL135965   7.426  19.957   9.191
 2537POPC   GL235966   7.127  19.785   9.148
 2537POPC   C1A35967   7.524  19.817   8.769
 2537POPC   D2A35968   7.506  19.590   8.378
 2537POPC   C3A35969   7.595  19.808   8.004
 2537POPC   C4A35970   7.430  19.987   7.658
 2537POPC   C1B35971   7.072  19.553   8.740
 2537POPC   C2B35972   7.002  19.419   8.295
 2537POPC   C3B35973   7.070  19.644   7.863
 2537POPC   C4B35974   6.983  19.892   7.440
 2538POPC   NC335975  13.875  11.280   9.523
 2538POPC   PO435976  13.323  11.425   9.918
 2538POPC   GL135977  13.387  11.275   9.427
 2538POPC   GL235978  13.496  10.988   9.309
 2538POPC   C1A35979  13.625  11.290   8.925
 2538POPC   D2A35980  13.695  11.510   8.517
 2538POPC   C3A35981  13.487  11.404   8.135
 2538POPC   C4A35982  13.783  11.225   7.796
 2538POPC   C1B35983  13.257  10.961   8.915
 2538POPC   C2B35984  13.444  11.027   8.498
 2538POPC   C3B35985  13.500  10.892   8.074
 2538POPC   C4B35986  13.464  10.880   7.610
 2539POPC   NC335987  11.262   9.560   9.547
 2539POPC   PO435988  11.366  10.006   9.653
 2539POPC   GL135989  11.398   9.915   9.188
 2539POPC   GL235990  11.550   9.591   9.101
 2539POPC   C1A35991  11.266  10.052   8.765
 2539POPC   D2A35992  11.022   9.956   8.386
 2539POPC   C3A35993  11.181   9.995   7.944
 2539POPC   C4A35994  11.035   9.828   7.527
 2539POPC   C1B35995  11.432   9.578   8.640
 2539POPC   C2B35996  11.276   9.540   8.203
 2539POPC   C3B35997  11.403   9.518   7.754
 2539POPC   C4B35998  11.640   9.199   7.479
 2540POPC   NC335999  41.580  30.491   9.477
 2540POPC   PO436000  41.479  31.186   9.423
 2540POPC   GL136001  41.508  30.902   9.072
 2540POPC   GL236002  41.767  30.631   9.016
 2540POPC   C1A36003  41.522  30.851   8.627
 2540POPC   D2A36004  41.833  30.891   8.323
 2540POPC   C3A36005  41.632  30.834   7.954
 2540POPC   C4A36006  41.227  30.745   7.845
 2540POPC   C1B36007  41.625  30.367   8.680
 2540POPC   C2B36008  41.485  30.425   8.254
 2540POPC   C3B36009  41.565  30.341   7.818
 2540POPC   C4B36010  41.809  30.616   7.511
 2541POPC   NC336011  42.876  39.426   9.461
 2541POPC   PO436012  43.087  38.804   9.247
 2541POPC   GL136013  42.883  39.141   8.997
 2541POPC   GL236014  43.019  39.498   8.997
 2541POPC   C1A36015  42.932  39.286   8.549
 2541POPC   D2A36016  43.363  39.286   8.362
 2541POPC   C3A36017  43.352  38.964   8.060
 2541POPC   C4A36018  43.071  39.005   7.703
 2541POPC   C1B36019  42.868  39.801   8.719
 2541POPC   C2B36020  42.774  39.709   8.300
 2541POPC   C3B36021  42.997  39.416   8.024
 2541POPC   C4B36022  43.391  39.436   7.834
 2542POPC   NC336023  23.594  15.171   9.396
 2542POPC   PO436024  24.107  14.836   9.466
 2542POPC   GL136025  23.848  14.815   9.077
 2542POPC   GL236026  23.725  15.141   8.925
 2542POPC   C1A36027  23.647  14.736   8.659
 2542POPC   D2A36028  23.471  14.930   8.280
 2542POPC   C3A36029  23.713  15.054   7.948
 2542POPC   C4A36030  23.824  14.892   7.562
 2542POPC   C1B36031  23.434  15.307   8.624
 2542POPC   C2B36032  23.429  15.446   8.182
 2542POPC   C3B36033  23.593  15.744   7.861
 2542POPC   C4B36034  23.479  15.817   7.401
 2543POPC   NC336035  30.189  41.104   9.164
 2543POPC   PO436036  29.747  41.451   9.529
 2543POPC   GL136037  29.687  41.708   9.178
 2543POPC   GL236038  30.019  41.732   9.069
 2543POPC   C1A36039  29.607  41.790   8.740
 2543POPC   D2A36040  29.839  41.791   8.334
 2543POPC   C3A36041  29.604  41.652   7.987
 2543POPC   C4A36042  29.701  41.403   7.618
 2543POPC   C1B36043  30.029  41.487   8.693
 2543POPC   C2B36044  30.269  41.457   8.338
 2543POPC   C3B36045  30.050  41.394   7.984
 2543POPC   C4B36046  30.180  41.255   7.558
 2544POPC   NC336047  26.047  15.527   9.782
 2544POPC   PO436048  26.386  16.014   9.511
 2544POPC   GL136049  26.082  15.819   9.253
 2544POPC   GL236050  25.960  16.127   9.102
 2544POPC   C1A36051  26.026  15.684   8.819
 2544POPC   D2A36052  25.870  15.719   8.392
 2544POPC   C3A36053  26.169  15.865   8.089
 2544POPC   C4A36054  26.255  15.826   7.632
 2544POPC   C1B36055  25.715  16.129   8.698
 2544POPC   C2B36056  25.790  16.210   8.238
 2544POPC   C3B36057  25.821  16.091   7.780
 2544POPC   C4B36058  25.942  16.092   7.318
 2545POPC   NC336059  30.089   7.003   9.410
 2545POPC   PO436060  29.859   7.679   9.374
 2545POPC   GL136061  29.972   7.393   9.095
 2545POPC   GL236062  29.695   7.159   9.065
 2545POPC   C1A36063  30.156   7.427   8.700
 2545POPC   D2A36064  30.263   7.717   8.363
 2545POPC   C3A36065  30.133   7.493   7.998
 2545POPC   C4A36066  30.083   7.068   7.850
 2545POPC   C1B36067  29.661   7.348   8.686
 2545POPC   C2B36068  29.843   7.178   8.333
 2545POPC   C3B36069  29.648   7.311   7.987
 2545POPC   C4B36070  29.805   7.355   7.560
 2546POPC   NC336071  36.931  17.937   9.217
 2546POPC   PO436072  37.205  18.442   9.619
 2546POPC   GL136073  37.099  18.633   9.226
 2546POPC   GL236074  36.796  18.439   9.216
 2546POPC   C1A36075  37.160  18.484   8.825
 2546POPC   D2A36076  37.024  18.171   8.525
 2546POPC   C3A36077  37.007  18.330   8.095
 2546POPC   C4A36078  37.011  18.132   7.702
 2546POPC   C1B36079  36.612  18.338   8.791
 2546POPC   C2B36080  36.563  18.296   8.347
 2546POPC   C3B36081  36.576  18.051   7.975
 2546POPC   C4B36082  36.547  18.359   7.721
 2547POPC   NC336083  15.634  25.685   9.559
 2547POPC   PO436084  15.801  26.394   9.647
 2547POPC   GL136085  15.826  26.302   9.181
 2547POPC   GL236086  15.946  25.981   9.251
 2547POPC   C1A36087  15.934  26.328   8.729
 2547POPC   D2A36088  15.672  26.280   8.328
 2547POPC   C3A36089  15.847  26.133   7.967
 2547POPC   C4A36090  15.556  25.779   7.935
 2547POPC   C1B36091  16.033  25.819   8.847
 2547POPC   C2B36092  16.061  25.897   8.396
 2547POPC   C3B36093  16.083  25.676   7.992
 2547POPC   C4B36094  16.423  25.544   7.724
 2548POPC   NC336095  11.196  29.454   9.560
 2548POPC   PO436096  10.992  28.975   9.372
 2548POPC   GL136097  11.178  29.269   9.081
 2548POPC   GL236098  10.985  29.545   9.057
 2548POPC   C1A36099  11.353  29.373   8.682
 2548POPC   D2A36100  11.276  29.185   8.294
 2548POPC   C3A36101  11.322  29.461   7.940
 2548POPC   C4A36102  11.710  29.450   7.687
 2548POPC   C1B36103  10.857  29.395   8.615
 2548POPC   C2B36104  10.833  29.371   8.137
 2548POPC   C3B36105  10.904  29.232   7.701
 2548POPC   C4B36106  10.837  29.206   7.229
 2549POPC   NC336107  35.435  38.966   9.475
 2549POPC   PO436108  35.139  38.288   9.500
 2549POPC   GL136109  35.340  38.528   9.204
 2549POPC   GL236110  35.701  38.455   9.152
 2549POPC   C1A36111  35.301  38.456   8.776
 2549POPC   D2A36112  35.162  38.609   8.400
 2549POPC   C3A36113  35.152  38.310   8.080
 2549POPC   C4A36114  35.281  38.412   7.699
 2549POPC   C1B36115  35.695  38.780   8.830
 2549POPC   C2B36116  35.775  38.693   8.408
 2549POPC   C3B36117  35.579  38.600   8.055
 2549POPC   C4B36118  35.411  38.921   7.768
 2550POPC   NC336119  17.082  24.809   9.300
 2550POPC   PO436120  16.536  24.433   9.395
 2550POPC   GL136121  16.586  24.699   9.068
 2550POPC   GL236122  16.861  24.519   8.947
 2550POPC   C1A36123  16.482  24.611   8.640
 2550POPC   D2A36124  16.773  24.478   8.341
 2550POPC   C3A36125  16.550  24.578   7.990
 2550POPC   C4A36126  16.559  24.624   7.530
 2550POPC   C1B36127  16.947  24.861   8.669
 2550POPC   C2B36128  17.140  24.852   8.303
 2550POPC   C3B36129  17.023  24.768   7.909
 2550POPC   C4B36130  16.949  24.379   7.737
 2551POPC   NC336131  38.063  38.215   9.669
 2551POPC   PO436132  37.600  38.671   9.486
 2551POPC   GL136133  37.514  38.427   9.145
 2551POPC   GL236134  37.866  38.307   9.187
 2551POPC   C1A36135  37.461  38.520   8.710
 2551POPC   D2A36136  37.721  38.520   8.340
 2551POPC   C3A36137  37.623  38.422   7.942
 2551POPC   C4A36138  37.518  38.180   7.561
 2551POPC   C1B36139  37.794  38.123   8.797
 2551POPC   C2B36140  37.873  38.036   8.393
 2551POPC   C3B36141  38.079  38.212   8.063
 2551POPC   C4B36142  38.030  38.322   7.660
 2552POPC   NC336143  10.999  36.989   9.263
 2552POPC   PO436144  11.212  37.454   9.684
 2552POPC   GL136145  11.180  37.519   9.241
 2552POPC   GL236146  10.835  37.654   9.191
 2552POPC   C1A36147  11.247  37.732   8.829
 2552POPC   D2A36148  11.476  37.868   8.442
 2552POPC   C3A36149  11.353  37.999   8.045
 2552POPC   C4A36150  11.300  37.780   7.681
 2552POPC   C1B36151  10.734  37.785   8.734
 2552POPC   C2B36152  10.886  37.897   8.323
 2552POPC   C3B36153  11.018  37.556   8.042
 2552POPC   C4B36154  10.985  37.336   7.654
 2553POPC   NC336155  41.717  33.465   9.442
 2553POPC   PO436156  41.637  34.093   9.397
 2553POPC   GL136157  41.520  33.793   9.109
 2553POPC   GL236158  41.272  33.561   9.179
 2553POPC   C1A36159  41.685  33.719   8.743
 2553POPC   D2A36160  41.648  34.038   8.437
 2553POPC   C3A36161  41.858  33.903   8.076
 2553POPC   C4A36162  41.738  33.918   7.658
 2553POPC   C1B36163  41.221  33.511   8.709
 2553POPC   C2B36164  41.434  33.582   8.322
 2553POPC   C3B36165  41.334  33.821   7.977
 2553POPC   C4B36166  41.412  33.535   7.668
 2554POPC   NC336167  43.298  20.819   9.498
 2554POPC   PO436168  42.791  20.371   9.415
 2554POPC   GL136169  42.974  20.722   9.122
 2554POPC   GL236170  43.294  20.588   9.060
 2554POPC   C1A36171  42.952  20.885   8.680
 2554POPC   D2A36172  42.731  20.553   8.386
 2554POPC   C3A36173  42.934  20.439   8.005
 2554POPC   C4A36174  43.196  20.568   7.710
 2554POPC   C1B36175  43.062  20.380   8.749
 2554POPC   C2B36176  43.255  20.573   8.402
 2554POPC   C3B36177  43.544  20.663   8.098
 2554POPC   C4B36178  43.613  20.314   7.844
 2555POPC   NC336179  29.962  30.094   9.807
 2555POPC   PO436180  29.414  29.867   9.553
 2555POPC   GL136181  29.733  29.967   9.204
 2555POPC   GL236182  30.052  30.134   9.301
 2555POPC   C1A36183  29.934  29.862   8.793
 2555POPC   D2A36184  29.757  29.793   8.363
 2555POPC   C3A36185  29.860  29.693   7.929
 2555POPC   C4A36186  30.200  29.707   7.623
 2555POPC   C1B36187  29.977  30.357   8.928
 2555POPC   C2B36188  29.832  30.273   8.503
 2555POPC   C3B36189  29.948  30.194   8.079
 2555POPC   C4B36190  29.911  30.118   7.629
 2556POPC   NC336191  22.454  22.084  10.027
 2556POPC   PO436192  22.061  22.233   9.629
 2556POPC   GL136193  22.269  22.222   9.185
 2556POPC   GL236194  22.518  21.971   9.078
 2556POPC   C1A36195  22.343  22.497   8.800
 2556POPC   D2A36196  22.327  22.465   8.315
 2556POPC   C3A36197  22.012  22.400   7.987
 2556POPC   C4A36198  22.214  22.264   7.613
 2556POPC   C1B36199  22.374  22.020   8.617
 2556POPC   C2B36200  22.314  21.989   8.132
 2556POPC   C3B36201  22.429  21.798   7.738
 2556POPC   C4B36202  22.354  21.833   7.295
 2557POPC   NC336203  23.278  22.520   9.665
 2557POPC   PO436204  22.954  23.141   9.530
 2557POPC   GL136205  22.808  23.158   9.138
 2557POPC   GL236206  22.601  22.868   9.156
 2557POPC   C1A36207  22.904  23.332   8.740
 2557POPC   D2A36208  22.699  23.223   8.396
 2557POPC   C3A36209  22.879  23.150   8.009
 2557POPC   C4A36210  22.978  22.809   7.830
 2557POPC   C1B36211  22.763  22.815   8.725
 2557POPC   C2B36212  22.785  22.670   8.290
 2557POPC   C3B36213  22.678  22.421   7.892
 2557POPC   C4B36214  22.723  22.622   7.442
 2558POPC   NC336215  43.679  19.181   9.520
 2558POPC   PO436216  44.332  18.925   9.714
 2558POPC   GL136217  44.165  19.069   9.249
 2558POPC   GL236218  43.794  19.008   9.073
 2558POPC   C1A36219  44.190  18.936   8.789
 2558POPC   D2A36220  43.802  18.969   8.517
 2558POPC   C3A36221  43.955  18.808   8.133
 2558POPC   C4A36222  44.190  19.040   7.825
 2558POPC   C1B36223  43.772  18.614   8.877
 2558POPC   C2B36224  43.545  18.520   8.490
 2558POPC   C3B36225  43.424  18.782   8.166
 2558POPC   C4B36226  43.601  18.877   7.772
 2559POPC   NC336227  40.124  23.259   9.230
 2559POPC   PO436228  40.456  22.744   9.318
 2559POPC   GL136229  40.298  22.842   8.955
 2559POPC   GL236230  39.951  22.836   8.988
 2559POPC   C1A36231  40.356  23.090   8.587
 2559POPC   D2A36232  40.107  23.021   8.225
 2559POPC   C3A36233  40.217  23.052   7.792
 2559POPC   C4A36234  39.998  22.840   7.441
 2559POPC   C1B36235  39.733  23.134   8.733
 2559POPC   C2B36236  39.601  23.368   8.411
 2559POPC   C3B36237  39.625  23.147   8.085
 2559POPC   C4B36238  39.723  23.184   7.725
 2560POPC   NC336239  34.695  17.878   9.880
 2560POPC   PO436240  34.630  18.431   9.493
 2560POPC   GL136241  34.449  18.309   9.122
 2560POPC   GL236242  34.603  17.990   9.165
 2560POPC   C1A36243  34.546  18.562   8.756
 2560POPC   D2A36244  34.823  18.592   8.380
 2560POPC   C3A36245  34.510  18.587   8.119
 2560POPC   C4A36246  34.401  18.287   7.817
 2560POPC   C1B36247  34.775  18.108   8.777
 2560POPC   C2B36248  34.549  18.160   8.432
 2560POPC   C3B36249  34.771  18.100   8.119
 2560POPC   C4B36250  34.909  17.955   7.759
 2561POPC   NC336251  30.667  13.070   9.500
 2561POPC   PO436252  30.801  13.711   9.600
 2561POPC   GL136253  30.595  13.788   9.188
 2561POPC   GL236254  30.263  13.679   9.318
 2561POPC   C1A36255  30.752  13.888   8.768
 2561POPC   D2A36256  30.680  13.878   8.334
 2561POPC   C3A36257  30.864  13.481   8.174
 2561POPC   C4A36258  30.828  13.279   7.779
 2561POPC   C1B36259  30.281  13.444   8.929
 2561POPC   C2B36260  30.475  13.455   8.536
 2561POPC   C3B36261  30.344  13.527   8.129
 2561POPC   C4B36262  30.183  13.493   7.742
 2562POPC   NC336263  38.856  38.799   9.843
 2562POPC   PO436264  38.392  39.178   9.468
 2562POPC   GL136265  38.434  39.197   9.089
 2562POPC   GL236266  38.482  39.569   9.109
 2562POPC   C1A36267  38.437  38.965   8.721
 2562POPC   D2A36268  38.607  39.171   8.389
 2562POPC   C3A36269  38.515  39.017   8.006
 2562POPC   C4A36270  38.586  39.271   7.669
 2562POPC   C1B36271  38.267  39.491   8.719
 2562POPC   C2B36272  38.213  39.611   8.329
 2562POPC   C3B36273  38.512  39.642   8.023
 2562POPC   C4B36274  38.472  39.810   7.622
 2563POPC   NC336275  43.767  29.275   9.346
 2563POPC   PO436276  44.241  28.820   9.590
 2563POPC   GL136277  44.088  28.962   9.128
 2563POPC   GL236278  43.761  28.788   9.058
 2563POPC   C1A36279  44.133  29.284   8.732
 2563POPC   D2A36280  43.998  29.478   8.287
 2563POPC   C3A36281  44.218  29.379   7.849
 2563POPC   C4A36282  44.115  29.059   7.495
 2563POPC   C1B36283  43.655  29.100   8.751
 2563POPC   C2B36284  43.744  29.011   8.361
 2563POPC   C3B36285  43.853  29.056   7.971
 2563POPC   C4B36286  43.626  29.139   7.629
 2564POPC   NC336287  11.840   2.600   9.479
 2564POPC   PO436288  11.187   2.879   9.564
 2564POPC   GL136289  11.205   2.720   9.161
 2564POPC   GL236290  11.531   2.841   9.126
 2564POPC   C1A36291  11.059   2.673   8.707
 2564POPC   D2A36292  10.981   2.950   8.382
 2564POPC   C3A36293  11.084   2.857   8.019
 2564POPC   C4A36294  11.074   2.790   7.638
 2564POPC   C1B36295  11.555   2.599   8.736
 2564POPC   C2B36296  11.375   2.557   8.300
 2564POPC   C3B36297  11.547   2.696   7.857
 2564POPC   C4B36298  11.722   3.062   7.596
 2565POPC   NC336299  38.336  23.048   9.575
 2565POPC   PO436300  38.833  22.657   9.458
 2565POPC   GL136301  38.547  22.869   9.141
 2565POPC   GL236302  38.249  23.133   9.099
 2565POPC   C1A36303  38.445  22.717   8.745
 2565POPC   D2A36304  38.601  22.522   8.403
 2565POPC   C3A36305  38.425  22.702   8.058
 2565POPC   C4A36306  38.618  22.613   7.658
 2565POPC   C1B36307  38.419  23.234   8.737
 2565POPC   C2B36308  38.238  23.095   8.386
 2565POPC   C3B36309  38.290  23.272   8.041
 2565POPC   C4B36310  38.472  23.090   7.743
 2566POPC   NC336311   7.981  32.115   9.327
 2566POPC   PO436312   7.328  32.139   9.377
 2566POPC   GL136313   7.292  32.329   9.021
 2566POPC   GL236314   7.633  32.462   9.034
 2566POPC   C1A36315   7.134  32.379   8.615
 2566POPC   D2A36316   7.371  32.482   8.239
 2566POPC   C3A36317   7.392  32.096   8.038
 2566POPC   C4A36318   7.396  31.953   7.603
 2566POPC   C1B36319   7.643  32.213   8.637
 2566POPC   C2B36320   7.869  32.167   8.249
 2566POPC   C3B36321   7.846  31.979   7.850
 2566POPC   C4B36322   7.656  32.394   7.728
 2567POPC   NC336323  39.222  32.634   9.844
 2567POPC   PO436324  38.892  33.241   9.605
 2567POPC   GL136325  39.065  32.905   9.315
 2567POPC   GL236326  38.883  32.973   9.055
 2567POPC   C1A36327  39.332  32.864   8.886
 2567POPC   D2A36328  39.402  33.038   8.460
 2567POPC   C3A36329  39.156  33.050   8.108
 2567POPC   C4A36330  39.101  32.879   7.698
 2567POPC   C1B36331  39.095  33.303   8.858
 2567POPC   C2B36332  39.138  33.475   8.500
 2567POPC   C3B36333  39.114  33.561   8.142
 2567POPC   C4B36334  39.097  33.439   7.764
 2568POPC   NC336335  42.076   7.772   9.413
 2568POPC   PO436336  42.574   7.365   9.549
 2568POPC   GL136337  42.422   7.400   9.155
 2568POPC   GL236338  42.397   7.039   9.150
 2568POPC   C1A36339  42.560   7.361   8.732
 2568POPC   D2A36340  42.417   7.469   8.372
 2568POPC   C3A36341  42.654   7.380   8.051
 2568POPC   C4A36342  42.492   7.373   7.708
 2568POPC   C1B36343  42.213   6.980   8.763
 2568POPC   C2B36344  42.047   7.135   8.386
 2568POPC   C3B36345  42.059   7.301   7.990
 2568POPC   C4B36346  42.016   7.168   7.570
 2569POPC   NC336347  15.371   8.775   9.756
 2569POPC   PO436348  15.688   9.214   9.521
 2569POPC   GL136349  15.585   9.080   9.078
 2569POPC   GL236350  15.458   8.754   9.133
 2569POPC   C1A36351  15.718   9.106   8.630
 2569POPC   D2A36352  15.550   9.343   8.269
 2569POPC   C3A36353  15.320   9.048   8.001
 2569POPC   C4A36354  15.406   8.817   7.647
 2569POPC   C1B36355  15.343   8.747   8.674
 2569POPC   C2B36356  15.280   8.595   8.227
 2569POPC   C3B36357  15.028   8.527   7.840
 2569POPC   C4B36358  15.091   8.490   7.382
 2570POPC   NC336359  28.865  34.136   9.493
 2570POPC   PO436360  29.096  34.803   9.496
 2570POPC   GL136361  28.995  34.777   9.114
 2570POPC   GL236362  29.099  34.436   9.125
 2570POPC   C1A36363  29.047  34.740   8.691
 2570POPC   D2A36364  29.133  34.522   8.340
 2570POPC   C3A36365  28.950  34.739   8.000
 2570POPC   C4A36366  29.104  34.995   7.661
 2570POPC   C1B36367  29.297  34.243   8.768
 2570POPC   C2B36368  29.269  34.010   8.381
 2570POPC   C3B36369  29.212  34.161   7.983
 2570POPC   C4B36370  29.112  34.393   7.655
 2571POPC   NC336371  31.578   0.415   9.617
 2571POPC   PO436372  30.943   0.556   9.644
 2571POPC   GL136373  31.270   0.615   9.281
 2571POPC   GL236374  31.454   0.314   9.137
 2571POPC   C1A36375  31.528   0.775   8.928
 2571POPC   D2A36376  31.657   0.749   8.485
 2571POPC   C3A36377  31.391   0.661   8.095
 2571POPC   C4A36378  31.327   0.627   7.635
 2571POPC   C1B36379  31.388   0.259   8.706
 2571POPC   C2B36380  31.352   0.058   8.309
 2571POPC   C3B36381  31.520   0.170   7.899
 2571POPC   C4B36382  31.679   0.230   7.480
 2572POPC   NC336383  20.064   8.181   9.647
 2572POPC   PO436384  19.456   7.980   9.759
 2572POPC   GL136385  19.613   8.243   9.382
 2572POPC   GL236386  19.359   8.230   9.128
 2572POPC   C1A36387  19.821   8.390   8.962
 2572POPC   D2A36388  19.984   8.269   8.559
 2572POPC   C3A36389  19.934   8.330   8.099
 2572POPC   C4A36390  19.988   8.030   7.744
 2572POPC   C1B36391  19.505   8.106   8.699
 2572POPC   C2B36392  19.521   8.033   8.249
 2572POPC   C3B36393  19.487   7.925   7.820
 2572POPC   C4B36394  19.578   7.975   7.390
 2573POPC   NC336395  42.108  19.359   9.261
 2573POPC   PO436396  42.683  19.583   9.507
 2573POPC   GL136397  42.721  19.211   9.177
 2573POPC   GL236398  42.409  18.974   9.130
 2573POPC   C1A36399  42.716  19.071   8.723
 2573POPC   D2A36400  42.552  19.195   8.281
 2573POPC   C3A36401  42.429  18.904   7.907
 2573POPC   C4A36402  42.598  18.896   7.455
 2573POPC   C1B36403  42.176  19.022   8.700
 2573POPC   C2B36404  42.056  19.051   8.255
 2573POPC   C3B36405  41.829  18.814   7.913
 2573POPC   C4B36406  42.070  18.878   7.509
 2574POPC   NC336407  38.027  23.748   9.307
 2574POPC   PO436408  37.430  23.846   9.442
 2574POPC   GL136409  37.608  23.635   9.066
 2574POPC   GL236410  37.758  23.326   9.148
 2574POPC   C1A36411  37.430  23.496   8.694
 2574POPC   D2A36412  37.523  23.712   8.325
 2574POPC   C3A36413  37.335  23.600   7.962
 2574POPC   C4A36414  37.351  23.907   7.647
 2574POPC   C1B36415  37.918  23.373   8.715
 2574POPC   C2B36416  37.778  23.283   8.277
 2574POPC   C3B36417  37.865  23.509   7.920
 2574POPC   C4B36418  37.787  23.909   7.916
 2575POPC   NC336419  12.545  12.455   9.519
 2575POPC   PO436420  12.044  11.958   9.587
 2575POPC   GL136421  11.949  12.167   9.178
 2575POPC   GL236422  12.252  12.271   9.132
 2575POPC   C1A36423  11.818  12.126   8.748
 2575POPC   D2A36424  12.094  11.973   8.409
 2575POPC   C3A36425  12.008  12.129   8.020
 2575POPC   C4A36426  12.135  11.943   7.625
 2575POPC   C1B36427  12.264  12.342   8.704
 2575POPC   C2B36428  12.338  12.498   8.268
 2575POPC   C3B36429  12.439  12.334   7.862
 2575POPC   C4B36430  12.469  12.261   7.441
 2576POPC   NC336431   3.600   1.630   9.876
 2576POPC   PO436432   3.644   2.134   9.503
 2576POPC   GL136433   3.566   2.111   9.085
 2576POPC   GL236434   3.597   1.771   9.061
 2576POPC   C1A36435   3.277   1.958   8.734
 2576POPC   D2A36436   3.417   1.955   8.351
 2576POPC   C3A36437   3.726   2.244   8.267
 2576POPC   C4A36438   3.612   2.150   7.874
 2576POPC   C1B36439   3.849   1.759   8.677
 2576POPC   C2B36440   3.868   1.743   8.218
 2576POPC   C3B36441   3.927   1.752   7.757
 2576POPC   C4B36442   3.905   1.571   7.332
 2577POPC   NC336443  23.639  43.328   9.540
 2577POPC   PO436444  24.010  42.807   9.616
 2577POPC   GL136445  23.792  42.902   9.246
 2577POPC   GL236446  23.985  43.209   9.205
 2577POPC   C1A36447  23.605  42.834   8.822
 2577POPC   D2A36448  23.783  42.978   8.461
 2577POPC   C3A36449  23.769  42.802   8.078
 2577POPC   C4A36450  23.651  43.180   7.864
 2577POPC   C1B36451  24.174  43.460   8.896
 2577POPC   C2B36452  24.063  43.436   8.475
 2577POPC   C3B36453  23.907  43.564   8.072
 2577POPC   C4B36454  24.033  43.528   7.650
 2578POPC   NC336455  42.270  42.781   9.551
 2578POPC   PO436456  42.539  42.152   9.533
 2578POPC   GL136457  42.359  42.314   9.158
 2578POPC   GL236458  42.607  42.377   8.945
 2578POPC   C1A36459  42.111  42.204   8.789
 2578POPC   D2A36460  42.305  42.327   8.444
 2578POPC   C3A36461  42.130  42.376   8.062
 2578POPC   C4A36462  42.530  42.422   7.846
 2578POPC   C1B36463  42.527  41.936   8.799
 2578POPC   C2B36464  42.284  41.827   8.411
 2578POPC   C3B36465  42.315  41.916   7.946
 2578POPC   C4B36466  42.355  41.834   7.481
 2579POPC   NC336467  10.778  43.849   9.922
 2579POPC   PO436468  10.512  44.094   9.414
 2579POPC   GL136469  10.390  43.939   9.056
 2579POPC   GL236470  10.303  43.622   9.191
 2579POPC   C1A36471  10.423  44.070   8.670
 2579POPC   D2A36472  10.644  44.060   8.288
 2579POPC   C3A36473  10.476  43.937   7.900
 2579POPC   C4A36474  10.488  43.523   7.764
 2579POPC   C1B36475  10.396  43.491   8.766
 2579POPC   C2B36476  10.211  43.471   8.343
 2579POPC   C3B36477  10.039  43.628   7.977
 2579POPC   C4B36478   9.948  44.017   7.842
 2580POPC   NC336479  34.025  35.878   9.606
 2580POPC   PO436480  33.410  36.222   9.551
 2580POPC   GL136481  33.669  36.141   9.213
 2580POPC   GL236482  33.775  35.794   9.158
 2580POPC   C1A36483  33.727  36.439   8.869
 2580POPC   D2A36484  33.918  36.444   8.460
 2580POPC   C3A36485  33.768  36.375   8.043
 2580POPC   C4A36486  33.964  36.298   7.659
 2580POPC   C1B36487  33.918  35.964   8.769
 2580POPC   C2B36488  33.723  35.909   8.356
 2580POPC   C3B36489  33.851  35.855   7.935
 2580POPC   C4B36490  34.103  35.832   7.581
 2581POPC   NC336491  13.752  35.715   9.670
 2581POPC   PO436492  13.418  36.294   9.573
 2581POPC   GL136493  13.594  36.282   9.192
 2581POPC   GL236494  13.603  35.953   9.238
 2581POPC   C1A36495  13.698  36.253   8.778
 2581POPC   D2A36496  13.780  36.072   8.397
 2581POPC   C3A36497  13.879  36.241   8.017
 2581POPC   C4A36498  13.580  36.309   7.695
 2581POPC   C1B36499  13.414  35.838   8.861
 2581POPC   C2B36500  13.515  35.646   8.481
 2581POPC   C3B36501  13.502  35.831   8.049
 2581POPC   C4B36502  13.301  35.768   7.680
 2582POPC   NC336503  15.016  20.487   9.559
 2582POPC   PO436504  15.583  20.656   9.551
 2582POPC   GL136505  15.331  20.639   9.153
 2582POPC   GL236506  15.524  20.472   8.901
 2582POPC   C1A36507  14.956  20.547   8.849
 2582POPC   D2A36508  14.891  20.338   8.417
 2582POPC   C3A36509  14.765  20.518   7.993
 2582POPC   C4A36510  14.866  20.565   7.562
 2582POPC   C1B36511  15.331  20.734   8.573
 2582POPC   C2B36512  15.223  20.667   8.158
 2582POPC   C3B36513  15.163  20.930   7.820
 2582POPC   C4B36514  15.442  21.154   7.516
 2583POPC   NC336515   3.695  30.607   9.450
 2583POPC   PO436516   3.097  30.939   9.361
 2583POPC   GL136517   3.416  30.795   9.086
 2583POPC   GL236518   3.747  30.968   9.088
 2583POPC   C1A36519   3.578  30.689   8.689
 2583POPC   D2A36520   3.298  30.668   8.345
 2583POPC   C3A36521   3.359  30.536   7.917
 2583POPC   C4A36522   3.214  30.544   7.453
 2583POPC   C1B36523   3.866  31.117   8.685
 2583POPC   C2B36524   3.772  30.957   8.294
 2583POPC   C3B36525   3.845  30.907   7.894
 2583POPC   C4B36526   3.856  31.089   7.511
 2584POPC   NC336527  42.370  35.366   9.545
 2584POPC   PO436528  42.502  34.941   9.060
 2584POPC   GL136529  42.607  35.393   9.071
 2584POPC   GL236530  42.295  35.601   9.084
 2584POPC   C1A36531  42.552  35.549   8.646
 2584POPC   D2A36532  42.385  35.248   8.354
 2584POPC   C3A36533  42.565  35.271   7.968
 2584POPC   C4A36534  42.774  35.042   7.707
 2584POPC   C1B36535  41.997  35.700   8.761
 2584POPC   C2B36536  41.943  35.485   8.347
 2584POPC   C3B36537  41.996  35.648   7.914
 2584POPC   C4B36538  42.287  35.487   7.608
 2585POPC   NC336539  10.961   0.194   9.577
 2585POPC   PO436540  10.279   0.457   9.544
 2585POPC   GL136541  10.599   0.418   9.283
 2585POPC   GL236542  10.516   0.091   9.199
 2585POPC   C1A36543  10.633   0.505   8.870
 2585POPC   D2A36544  10.723   0.300   8.486
 2585POPC   C3A36545  10.438   0.423   8.147
 2585POPC   C4A36546  10.699   0.558   7.792
 2585POPC   C1B36547  10.316   0.094   8.782
 2585POPC   C2B36548  10.412  44.917   8.368
 2585POPC   C3B36549  10.662   0.011   7.978
 2585POPC   C4B36550  10.415   0.159   7.651
 2586POPC   NC336551  33.527  36.705   9.528
 2586POPC   PO436552  34.052  37.031   9.407
 2586POPC   GL136553  33.807  36.915   9.106
 2586POPC   GL236554  33.571  37.156   9.223
 2586POPC   C1A36555  33.981  36.909   8.692
 2586POPC   D2A36556  34.097  36.885   8.251
 2586POPC   C3A36557  33.839  37.028   7.938
 2586POPC   C4A36558  33.702  36.735   7.654
 2586POPC   C1B36559  33.433  37.091   8.808
 2586POPC   C2B36560  33.598  37.116   8.413
 2586POPC   C3B36561  33.453  36.789   8.162
 2586POPC   C4B36562  33.323  37.036   7.841
 2587POPC   NC336563  33.610   6.583   9.723
 2587POPC   PO436564  34.005   7.056   9.429
 2587POPC   GL136565  33.919   6.717   9.143
 2587POPC   GL236566  33.621   6.509   9.184
 2587POPC   C1A36567  33.832   6.755   8.742
 2587POPC   D2A36568  33.519   6.739   8.490
 2587POPC   C3A36569  33.693   6.725   8.108
 2587POPC   C4A36570  33.578   6.737   7.723
 2587POPC   C1B36571  33.575   6.274   8.807
 2587POPC   C2B36572  33.428   6.250   8.396
 2587POPC   C3B36573  33.430   6.286   7.979
 2587POPC   C4B36574  33.634   6.251   7.611
 2588POPC   NC336575  29.804  35.754   9.439
 2588POPC   PO436576  30.353  36.110   9.476
 2588POPC   GL136577  30.075  36.204   9.145
 2588POPC   GL236578  29.708  36.159   9.153
 2588POPC   C1A36579  30.089  36.126   8.733
 2588POPC   D2A36580  30.303  36.039   8.378
 2588POPC   C3A36581  29.992  36.053   8.080
 2588POPC   C4A36582  29.968  36.055   7.636
 2588POPC   C1B36583  29.617  36.337   8.758
 2588POPC   C2B36584  29.740  36.468   8.358
 2588POPC   C3B36585  29.654  36.421   7.949
 2588POPC   C4B36586  29.519  35.984   7.843
 2589POPC   NC336587  22.590  25.183   9.490
 2589POPC   PO436588  23.271  25.452   9.568
 2589POPC   GL136589  23.053  25.282   9.198
 2589POPC   GL236590  22.741  25.449   9.097
 2589POPC   C1A36591  22.970  25.179   8.744
 2589POPC   D2A36592  22.753  25.329   8.368
 2589POPC   C3A36593  22.881  25.054   8.052
 2589POPC   C4A36594  23.088  25.070   7.676
 2589POPC   C1B36595  22.834  25.695   8.729
 2589POPC   C2B36596  23.040  25.752   8.343
 2589POPC   C3B36597  23.098  25.528   7.971
 2589POPC   C4B36598  22.735  25.452   7.719
 2590POPC   NC336599  18.508  35.464   9.452
 2590POPC   PO436600  17.847  35.218   9.342
 2590POPC   GL136601  18.077  35.377   9.065
 2590POPC   GL236602  18.305  35.132   9.108
 2590POPC   C1A36603  18.005  35.245   8.640
 2590POPC   D2A36604  17.987  35.117   8.194
 2590POPC   C3A36605  18.012  35.370   7.840
 2590POPC   C4A36606  18.339  35.550   7.561
 2590POPC   C1B36607  18.489  35.346   8.746
 2590POPC   C2B36608  18.438  35.326   8.287
 2590POPC   C3B36609  18.444  35.099   7.884
 2590POPC   C4B36610  18.765  35.188   7.551
 2591POPC   NC336611  10.553  22.393   9.587
 2591POPC   PO436612  10.647  21.717   9.349
 2591POPC   GL136613  10.455  22.063   9.176
 2591POPC   GL236614  10.716  22.301   9.128
 2591POPC   C1A36615  10.394  22.203   8.749
 2591POPC   D2A36616  10.643  22.210   8.405
 2591POPC   C3A36617  10.433  22.021   8.081
 2591POPC   C4A36618  10.279  22.264   7.735
 2591POPC   C1B36619  10.908  22.027   8.845
 2591POPC   C2B36620  11.125  22.082   8.487
 2591POPC   C3B36621  10.965  21.948   8.097
 2591POPC   C4B36622  10.782  22.089   7.713
 2592POPC   NC336623  13.711  19.047   9.705
 2592POPC   PO436624  13.894  19.602   9.522
 2592POPC   GL136625  13.717  19.233   9.207
 2592POPC   GL236626  13.719  18.886   9.019
 2592POPC   C1A36627  13.603  19.304   8.756
 2592POPC   D2A36628  13.507  19.456   8.326
 2592POPC   C3A36629  13.799  19.303   7.971
 2592POPC   C4A36630  14.042  19.116   7.604
 2592POPC   C1B36631  13.349  18.753   8.757
 2592POPC   C2B36632  13.100  18.735   8.376
 2592POPC   C3B36633  13.307  18.859   8.021
 2592POPC   C4B36634  13.650  18.826   7.743
 2593POPC   NC336635  16.284  40.820   9.435
 2593POPC   PO436636  15.718  40.457   9.425
 2593POPC   GL136637  15.916  40.633   9.084
 2593POPC   GL236638  15.905  40.979   9.136
 2593POPC   C1A36639  15.876  40.792   8.665
 2593POPC   D2A36640  15.564  40.940   8.414
 2593POPC   C3A36641  15.646  40.690   8.085
 2593POPC   C4A36642  15.965  40.828   7.839
 2593POPC   C1B36643  16.241  41.112   8.808
 2593POPC   C2B36644  16.298  41.014   8.360
 2593POPC   C3B36645  16.246  41.253   7.978
 2593POPC   C4B36646  16.197  41.160   7.527
 2594POPC   NC336647   9.457  14.954   9.627
 2594POPC   PO436648  10.251  14.904   9.619
 2594POPC   GL136649  10.012  15.045   9.244
 2594POPC   GL236650   9.682  15.045   9.192
 2594POPC   C1A36651   9.962  15.109   8.761
 2594POPC   D2A36652   9.798  14.901   8.380
 2594POPC   C3A36653   9.965  14.957   7.962
 2594POPC   C4A36654  10.085  15.304   7.676
 2594POPC   C1B36655   9.383  14.930   8.881
 2594POPC   C2B36656   9.214  15.094   8.522
 2594POPC   C3B36657   9.397  15.035   8.111
 2594POPC   C4B36658   9.572  15.172   7.735
 2595POPC   NC336659  17.332  43.680   9.436
 2595POPC   PO436660  17.696  44.223   9.348
 2595POPC   GL136661  17.496  44.000   9.047
 2595POPC   GL236662  17.691  43.686   9.066
 2595POPC   C1A36663  17.423  44.018   8.594
 2595POPC   D2A36664  17.377  43.628   8.328
 2595POPC   C3A36665  17.266  43.822   7.961
 2595POPC   C4A36666  17.516  44.156   8.064
 2595POPC   C1B36667  17.857  43.788   8.689
 2595POPC   C2B36668  17.906  43.920   8.298
 2595POPC   C3B36669  17.759  43.709   7.928
 2595POPC   C4B36670  17.609  43.843   7.507
 2596POPC   NC336671  38.682  19.214   9.797
 2596POPC   PO436672  39.306  19.220   9.568
 2596POPC   GL136673  39.241  19.164   9.170
 2596POPC   GL236674  38.996  19.399   9.131
 2596POPC   C1A36675  39.168  18.927   8.806
 2596POPC   D2A36676  39.063  19.035   8.385
 2596POPC   C3A36677  39.333  18.985   8.034
 2596POPC   C4A36678  39.101  18.914   7.663
 2596POPC   C1B36679  39.184  19.439   8.723
 2596POPC   C2B36680  39.142  19.537   8.305
 2596POPC   C3B36681  39.469  19.592   8.042
 2596POPC   C4B36682  39.314  19.435   7.703
 2597POPC   NC336683   5.042  12.088   9.437
 2597POPC   PO436684   5.507  11.650   9.740
 2597POPC   GL136685   5.336  11.753   9.189
 2597POPC   GL236686   5.350  12.149   8.990
 2597POPC   C1A36687   5.106  11.805   8.743
 2597POPC   D2A36688   5.199  12.092   8.360
 2597POPC   C3A36689   4.989  11.903   8.007
 2597POPC   C4A36690   5.058  11.712   7.609
 2597POPC   C1B36691   4.948  12.318   8.751
 2597POPC   C2B36692   4.721  12.268   8.312
 2597POPC   C3B36693   4.845  12.383   7.887
 2597POPC   C4B36694   4.888  12.156   7.475
 2598POPC   NC336695  33.499  34.774   9.312
 2598POPC   PO436696  33.790  35.408   9.517
 2598POPC   GL136697  33.717  35.245   9.105
 2598POPC   GL236698  33.932  34.941   9.084
 2598POPC   C1A36699  33.746  35.445   8.691
 2598POPC   D2A36700  33.981  35.421   8.288
 2598POPC   C3A36701  33.720  35.352   7.924
 2598POPC   C4A36702  33.384  35.623   7.929
 2598POPC   C1B36703  34.148  35.110   8.708
 2598POPC   C2B36704  34.158  34.932   8.282
 2598POPC   C3B36705  34.132  35.050   7.853
 2598POPC   C4B36706  34.082  35.323   7.453
 2599POPC   NC336707   9.917   3.286   9.506
 2599POPC   PO436708   9.554   3.864   9.413
 2599POPC   GL136709   9.487   3.569   9.115
 2599POPC   GL236710   9.444   3.241   9.240
 2599POPC   C1A36711   9.634   3.514   8.698
 2599POPC   D2A36712   9.947   3.635   8.391
 2599POPC   C3A36713   9.861   3.515   7.973
 2599POPC   C4A36714   9.525   3.610   7.719
 2599POPC   C1B36715   9.373   3.088   8.797
 2599POPC   C2B36716   9.570   3.167   8.322
 2599POPC   C3B36717   9.548   3.115   7.869
 2599POPC   C4B36718   9.802   3.233   7.505
 2600POPC   NC336719  19.564  37.192   9.442
 2600POPC   PO436720  20.030  36.649   9.544
 2600POPC   GL136721  19.713  36.785   9.173
 2600POPC   GL236722  19.734  37.136   8.969
 2600POPC   C1A36723  19.728  36.705   8.728
 2600POPC   D2A36724  19.907  36.547   8.357
 2600POPC   C3A36725  19.763  36.738   8.000
 2600POPC   C4A36726  19.828  36.619   7.622
 2600POPC   C1B36727  20.074  37.133   8.655
 2600POPC   C2B36728  20.213  36.936   8.262
 2600POPC   C3B36729  20.173  37.052   7.830
 2600POPC   C4B36730  19.870  37.113   7.513
 2601POPC   NC336731   3.558   6.121   9.531
 2601POPC   PO436732   2.995   5.785   9.450
 2601POPC   GL136733   3.399   5.764   9.179
 2601POPC   GL236734   3.772   5.893   9.129
 2601POPC   C1A36735   3.420   5.898   8.752
 2601POPC   D2A36736   3.141   5.888   8.415
 2601POPC   C3A36737   3.382   5.997   8.071
 2601POPC   C4A36738   3.496   5.824   7.682
 2601POPC   C1B36739   3.790   5.548   8.836
 2601POPC   C2B36740   3.534   5.450   8.485
 2601POPC   C3B36741   3.667   5.493   8.082
 2601POPC   C4B36742   3.925   5.458   7.725
 2602POPC   NC336743  32.295  21.190   9.474
 2602POPC   PO436744  32.356  21.861   9.290
 2602POPC   GL136745  32.442  21.473   9.056
 2602POPC   GL236746  32.104  21.311   9.031
 2602POPC   C1A36747  32.499  21.233   8.642
 2602POPC   D2A36748  32.536  21.182   8.167
 2602POPC   C3A36749  32.441  21.538   7.874
 2602POPC   C4A36750  32.451  21.572   7.410
 2602POPC   C1B36751  31.969  21.131   8.677
 2602POPC   C2B36752  32.066  20.928   8.292
 2602POPC   C3B36753  32.069  21.104   7.910
 2602POPC   C4B36754  31.998  21.401   7.614
 2603POPC   NC336755  18.737  11.201   9.441
 2603POPC   PO436756  19.428  11.143   9.452
 2603POPC   GL136757  19.128  11.288   9.114
 2603POPC   GL236758  18.822  11.064   8.969
 2603POPC   C1A36759  18.971  11.499   8.762
 2603POPC   D2A36760  19.097  11.393   8.365
 2603POPC   C3A36761  19.125  11.512   7.963
 2603POPC   C4A36762  19.390  11.160   7.882
 2603POPC   C1B36763  19.155  10.984   8.666
 2603POPC   C2B36764  19.142  10.861   8.255
 2603POPC   C3B36765  18.883  11.050   7.946
 2603POPC   C4B36766  18.977  11.222   7.549
 2604POPC   NC336767  41.097  28.959   9.327
 2604POPC   PO436768  41.829  29.029   9.405
 2604POPC   GL136769  41.604  29.016   9.044
 2604POPC   GL236770  41.282  29.181   8.911
 2604POPC   C1A36771  41.766  29.361   8.789
 2604POPC   D2A36772  41.493  29.544   8.484
 2604POPC   C3A36773  41.609  29.382   8.077
 2604POPC   C4A36774  41.411  29.390   7.657
 2604POPC   C1B36775  41.492  29.026   8.534
 2604POPC   C2B36776  41.423  28.855   8.170
 2604POPC   C3B36777  41.352  28.884   7.758
 2604POPC   C4B36778  41.576  28.943   7.385
 2605POPC   NC336779  41.005  20.947   9.630
 2605POPC   PO436780  40.686  21.453   9.567
 2605POPC   GL136781  40.715  21.326   9.197
 2605POPC   GL236782  40.463  21.598   9.106
 2605POPC   C1A36783  40.949  21.170   8.864
 2605POPC   D2A36784  40.773  21.267   8.486
 2605POPC   C3A36785  40.990  21.415   8.170
 2605POPC   C4A36786  40.862  21.159   7.842
 2605POPC   C1B36787  40.809  21.684   8.836
 2605POPC   C2B36788  40.719  21.812   8.451
 2605POPC   C3B36789  40.535  21.746   8.096
 2605POPC   C4B36790  40.718  21.644   7.760
 2606POPC   NC336791  14.439  42.326   9.478
 2606POPC   PO436792  14.917  42.653   9.167
 2606POPC   GL136793  14.546  42.454   8.991
 2606POPC   GL236794  14.165  42.483   9.061
 2606POPC   C1A36795  14.422  42.154   8.675
 2606POPC   D2A36796  14.637  41.999   8.303
 2606POPC   C3A36797  14.807  42.306   7.999
 2606POPC   C4A36798  14.583  42.644   7.795
 2606POPC   C1B36799  14.214  42.636   8.657
 2606POPC   C2B36800  14.427  42.526   8.281
 2606POPC   C3B36801  14.277  42.249   7.942
 2606POPC   C4B36802  13.852  42.229   7.775
 2607POPC   NC336803  14.025  32.479   9.498
 2607POPC   PO436804  14.554  32.130   9.465
 2607POPC   GL136805  14.342  32.054   9.121
 2607POPC   GL236806  14.323  32.411   9.062
 2607POPC   C1A36807  14.465  31.848   8.770
 2607POPC   D2A36808  14.604  31.981   8.384
 2607POPC   C3A36809  14.308  31.992   8.065
 2607POPC   C4A36810  14.517  32.071   7.721
 2607POPC   C1B36811  14.084  32.670   8.785
 2607POPC   C2B36812  13.941  32.542   8.362
 2607POPC   C3B36813  14.210  32.531   7.989
 2607POPC   C4B36814  14.320  32.502   7.553
 2608POPC   NC336815  39.687  31.792   9.571
 2608POPC   PO436816  39.065  31.452   9.543
 2608POPC   GL136817  39.126  31.294   9.186
 2608POPC   GL236818  38.854  31.130   9.137
 2608POPC   C1A36819  39.394  31.284   8.854
 2608POPC   D2A36820  39.274  31.544   8.517
 2608POPC   C3A36821  39.300  31.411   8.086
 2608POPC   C4A36822  39.432  31.648   7.726
 2608POPC   C1B36823  38.896  31.243   8.709
 2608POPC   C2B36824  38.876  31.081   8.300
 2608POPC   C3B36825  38.859  31.180   7.881
 2608POPC   C4B36826  39.222  31.179   7.608
 2609POPC   NC336827  28.912   0.875   9.848
 2609POPC   PO436828  29.042   0.343   9.413
 2609POPC   GL136829  28.983   0.489   8.983
 2609POPC   GL236830  29.287   0.601   9.017
 2609POPC   C1A36831  28.857   0.592   8.573
 2609POPC   D2A36832  28.767   0.337   8.180
 2609POPC   C3A36833  28.944   0.466   7.768
 2609POPC   C4A36834  28.965   0.511   7.295
 2609POPC   C1B36835  29.306   0.293   8.681
 2609POPC   C2B36836  29.246   0.453   8.288
 2609POPC   C3B36837  29.389   0.242   7.990
 2609POPC   C4B36838  29.393   0.246   7.579
 2610POPC   NC336839  15.706  34.591   9.420
 2610POPC   PO436840  16.342  34.728   9.503
 2610POPC   GL136841  16.097  34.761   9.151
 2610POPC   GL236842  16.079  34.387   9.157
 2610POPC   C1A36843  15.858  34.722   8.772
 2610POPC   D2A36844  16.047  34.824   8.372
 2610POPC   C3A36845  15.826  34.678   8.024
 2610POPC   C4A36846  15.749  34.863   7.626
 2610POPC   C1B36847  15.864  34.210   8.819
 2610POPC   C2B36848  15.889  34.305   8.409
 2610POPC   C3B36849  15.620  34.196   8.067
 2610POPC   C4B36850  15.523  34.394   7.688
 2611POPC   NC336851  41.291  38.888   9.721
 2611POPC   PO436852  41.605  39.418   9.488
 2611POPC   GL136853  41.689  39.304   9.084
 2611POPC   GL236854  41.654  38.976   9.091
 2611POPC   C1A36855  41.528  39.217   8.671
 2611POPC   D2A36856  41.599  38.998   8.304
 2611POPC   C3A36857  41.599  39.236   7.961
 2611POPC   C4A36858  41.263  39.077   7.774
 2611POPC   C1B36859  42.048  39.070   8.808
 2611POPC   C2B36860  42.109  38.968   8.359
 2611POPC   C3B36861  42.025  38.934   7.899
 2611POPC   C4B36862  41.718  39.011   7.511
 2612POPC   NC336863  19.137   7.864   9.446
 2612POPC   PO436864  18.808   7.292   9.430
 2612POPC   GL136865  18.697   7.244   9.005
 2612POPC   GL236866  19.000   7.098   8.945
 2612POPC   C1A36867  18.800   7.533   8.624
 2612POPC   D2A36868  19.098   7.512   8.274
 2612POPC   C3A36869  19.051   7.626   7.833
 2612POPC   C4A36870  19.287   7.461   7.470
 2612POPC   C1B36871  18.827   7.022   8.546
 2612POPC   C2B36872  18.778   7.118   8.128
 2612POPC   C3B36873  18.996   7.123   7.734
 2612POPC   C4B36874  18.965   6.993   7.294
 2613POPC   NC336875   4.349  29.594   9.688
 2613POPC   PO436876   3.735  29.452   9.494
 2613POPC   GL136877   4.076  29.218   9.225
 2613POPC   GL236878   4.436  29.336   9.240
 2613POPC   C1A36879   4.178  29.028   8.779
 2613POPC   D2A36880   4.315  29.095   8.335
 2613POPC   C3A36881   4.294  28.963   7.867
 2613POPC   C4A36882   4.583  28.891   7.503
 2613POPC   C1B36883   4.366  29.503   8.846
 2613POPC   C2B36884   4.454  29.618   8.432
 2613POPC   C3B36885   4.450  29.447   7.997
 2613POPC   C4B36886   4.451  29.392   7.548
 2614POPC   NC336887  16.563   9.985   9.453
 2614POPC   PO436888  16.313   9.551   9.913
 2614POPC   GL136889  16.383   9.531   9.363
 2614POPC   GL236890  16.775   9.565   9.251
 2614POPC   C1A36891  16.454   9.693   8.881
 2614POPC   D2A36892  16.636   9.810   8.480
 2614POPC   C3A36893  16.475   9.798   8.069
 2614POPC   C4A36894  16.466   9.606   7.699
 2614POPC   C1B36895  16.986   9.744   8.867
 2614POPC   C2B36896  17.126   9.909   8.435
 2614POPC   C3B36897  16.986   9.767   8.032
 2614POPC   C4B36898  16.832  10.012   7.709
 2615POPC   NC336899  17.557  31.220   9.466
 2615POPC   PO436900  17.321  31.825   9.403
 2615POPC   GL136901  17.330  31.587   9.074
 2615POPC   GL236902  17.575  31.347   8.991
 2615POPC   C1A36903  17.372  31.723   8.667
 2615POPC   D2A36904  17.601  31.902   8.355
 2615POPC   C3A36905  17.633  31.596   8.035
 2615POPC   C4A36906  17.291  31.568   7.759
 2615POPC   C1B36907  17.350  31.176   8.708
 2615POPC   C2B36908  17.605  31.108   8.370
 2615POPC   C3B36909  17.489  31.104   7.984
 2615POPC   C4B36910  17.172  31.075   7.719
 2616POPC   NC336911  30.792  20.766   9.456
 2616POPC   PO436912  30.427  20.221   9.326
 2616POPC   GL136913  30.677  20.434   9.076
 2616POPC   GL236914  31.037  20.413   9.149
 2616POPC   C1A36915  30.700  20.707   8.748
 2616POPC   D2A36916  30.516  20.910   8.381
 2616POPC   C3A36917  30.649  20.723   8.022
 2616POPC   C4A36918  30.417  20.602   7.666
 2616POPC   C1B36919  30.998  20.274   8.709
 2616POPC   C2B36920  31.016  20.408   8.264
 2616POPC   C3B36921  30.831  20.261   7.852
 2616POPC   C4B36922  30.825  20.400   7.422
 2617POPC   NC336923  28.762  14.713   9.487
 2617POPC   PO436924  29.492  14.668   9.482
 2617POPC   GL136925  29.297  14.394   9.178
 2617POPC   GL236926  28.957  14.351   9.203
 2617POPC   C1A36927  29.200  14.268   8.755
 2617POPC   D2A36928  29.229  14.490   8.361
 2617POPC   C3A36929  29.251  14.209   8.059
 2617POPC   C4A36930  29.426  14.113   7.678
 2617POPC   C1B36931  28.704  14.394   8.828
 2617POPC   C2B36932  28.775  14.183   8.432
 2617POPC   C3B36933  28.766  14.367   8.041
 2617POPC   C4B36934  29.006  14.517   7.700
 2618POPC   NC336935  28.308  42.733   9.519
 2618POPC   PO436936  28.779  42.259   9.642
 2618POPC   GL136937  28.541  42.320   9.250
 2618POPC   GL236938  28.214  42.130   9.239
 2618POPC   C1A36939  28.293  42.461   8.858
 2618POPC   D2A36940  28.055  42.447   8.451
 2618POPC   C3A36941  28.276  42.622   8.068
 2618POPC   C4A36942  28.155  42.514   7.671
 2618POPC   C1B36943  28.455  41.960   8.882
 2618POPC   C2B36944  28.386  42.054   8.466
 2618POPC   C3B36945  28.303  42.119   8.049
 2618POPC   C4B36946  28.535  42.181   7.636
 2619POPC   NC336947  22.466  29.308   9.418
 2619POPC   PO436948  21.920  29.050   9.713
 2619POPC   GL136949  22.061  29.023   9.269
 2619POPC   GL236950  22.391  28.840   9.236
 2619POPC   C1A36951  22.130  29.159   8.846
 2619POPC   D2A36952  22.198  28.959   8.448
 2619POPC   C3A36953  22.131  29.204   8.052
 2619POPC   C4A36954  21.778  29.323   7.764
 2619POPC   C1B36955  22.599  28.911   8.834
 2619POPC   C2B36956  22.691  28.756   8.432
 2619POPC   C3B36957  22.603  28.898   8.014
 2619POPC   C4B36958  22.283  28.903   7.655
 2620POPC   NC336959  23.208  23.453   9.307
 2620POPC   PO436960  23.853  23.566   9.510
 2620POPC   GL136961  23.637  23.663   9.114
 2620POPC   GL236962  23.626  23.297   9.052
 2620POPC   C1A36963  23.693  23.875   8.693
 2620POPC   D2A36964  23.927  23.982   8.291
 2620POPC   C3A36965  23.664  23.954   7.894
 2620POPC   C4A36966  23.635  23.753   7.485
 2620POPC   C1B36967  23.471  23.354   8.648
 2620POPC   C2B36968  23.609  23.570   8.277
 2620POPC   C3B36969  23.736  23.435   7.892
 2620POPC   C4B36970  23.540  23.241   7.519
 2621POPC   NC336971   4.175  38.067   9.559
 2621POPC   PO436972   4.582  37.511   9.539
 2621POPC   GL136973   4.280  37.649   9.267
 2621POPC   GL236974   4.499  37.937   9.202
 2621POPC   C1A36975   4.106  37.840   8.881
 2621POPC   D2A36976   3.933  37.997   8.474
 2621POPC   C3A36977   3.976  37.776   8.088
 2621POPC   C4A36978   4.246  37.784   7.728
 2621POPC   C1B36979   4.587  38.117   8.838
 2621POPC   C2B36980   4.438  38.018   8.479
 2621POPC   C3B36981   4.549  37.950   8.110
 2621POPC   C4B36982   4.598  38.158   7.737
 2622POPC   NC336983  19.570  24.843   9.470
 2622POPC   PO436984  20.030  24.338   9.498
 2622POPC   GL136985  19.872  24.540   9.160
 2622POPC   GL236986  20.174  24.731   9.133
 2622POPC   C1A36987  19.722  24.374   8.771
 2622POPC   D2A36988  19.501  24.408   8.356
 2622POPC   C3A36989  19.728  24.416   7.954
 2622POPC   C4A36990  19.676  24.566   7.531
 2622POPC   C1B36991  19.985  24.858   8.761
 2622POPC   C2B36992  19.974  24.618   8.393
 2622POPC   C3B36993  20.101  24.749   8.017
 2622POPC   C4B36994  20.190  24.645   7.635
 2623POPC   NC336995  33.908   8.517   9.498
 2623POPC   PO436996  33.548   9.159   9.427
 2623POPC   GL136997  33.580   9.040   9.021
 2623POPC   GL236998  33.744   8.746   9.049
 2623POPC   C1A36999  33.909   9.160   8.741
 2623POPC   D2A37000  34.118   9.305   8.368
 2623POPC   C3A37001  33.757   9.250   8.117
 2623POPC   C4A37002  33.481   9.066   7.854
 2623POPC   C1B37003  34.018   8.632   8.692
 2623POPC   C2B37004  34.056   8.594   8.230
 2623POPC   C3B37005  34.002   8.839   7.871
 2623POPC   C4B37006  34.165   9.253   7.835
 2624POPC   NC337007   5.403  29.308   9.546
 2624POPC   PO437008   4.778  29.542   9.577
 2624POPC   GL137009   4.973  29.317   9.231
 2624POPC   GL237010   5.282  29.506   9.098
 2624POPC   C1A37011   4.765  29.105   8.882
 2624POPC   D2A37012   4.783  29.217   8.455
 2624POPC   C3A37013   4.778  29.014   8.072
 2624POPC   C4A37014   5.021  29.029   7.716
 2624POPC   C1B37015   5.255  29.228   8.755
 2624POPC   C2B37016   5.261  29.086   8.289
 2624POPC   C3B37017   5.480  29.135   7.875
 2624POPC   C4B37018   5.471  28.819   7.505
 2625POPC   NC337019  44.152  20.824   9.450
 2625POPC   PO437020  43.637  20.423   9.457
 2625POPC   GL137021  43.824  20.606   9.094
 2625POPC   GL237022  43.949  20.292   9.031
 2625POPC   C1A37023  43.896  20.689   8.617
 2625POPC   D2A37024  44.168  20.867   8.316
 2625POPC   C3A37025  44.086  20.812   7.865
 2625POPC   C4A37026  43.743  20.726   7.593
 2625POPC   C1B37027  43.581  20.327   8.744
 2625POPC   C2B37028  43.643  20.215   8.355
 2625POPC   C3B37029  43.992  20.385   8.162
 2625POPC   C4B37030  44.149  20.272   7.752
 2626POPC   NC337031  43.201  28.379   9.549
 2626POPC   PO437032  42.672  28.154   9.201
 2626POPC   GL137033  42.964  28.416   9.049
 2626POPC   GL237034  43.319  28.486   9.063
 2626POPC   C1A37035  42.906  28.428   8.633
 2626POPC   D2A37036  42.979  28.169   8.284
 2626POPC   C3A37037  42.927  28.414   7.930
 2626POPC   C4A37038  42.680  28.429   7.565
 2626POPC   C1B37039  43.331  28.716   8.710
 2626POPC   C2B37040  43.129  28.736   8.305
 2626POPC   C3B37041  43.351  28.843   7.967
 2626POPC   C4B37042  43.415  28.452   7.764
 2627POPC   NC337043  28.125   3.584   9.832
 2627POPC   PO437044  28.637   3.617   9.413
 2627POPC   GL137045  28.587   3.508   9.029
 2627POPC   GL237046  28.257   3.633   9.036
 2627POPC   C1A37047  28.617   3.665   8.611
 2627POPC   D2A37048  28.473   3.855   8.210
 2627POPC   C3A37049  28.275   3.592   7.912
 2627POPC   C4A37050  28.391   3.515   7.467
 2627POPC   C1B37051  28.239   3.300   8.699
 2627POPC   C2B37052  28.214   3.201   8.260
 2627POPC   C3B37053  27.872   3.172   7.973
 2627POPC   C4B37054  27.894   3.422   7.613
 2628POPC   NC337055  28.621  28.876   9.463
 2628POPC   PO437056  29.229  28.976   9.503
 2628POPC   GL137057  29.009  29.199   9.175
 2628POPC   GL237058  28.744  29.406   9.238
 2628POPC   C1A37059  29.145  29.513   8.867
 2628POPC   D2A37060  29.127  29.387   8.434
 2628POPC   C3A37061  29.351  29.622   8.130
 2628POPC   C4A37062  29.426  29.358   7.803
 2628POPC   C1B37063  28.716  29.263   8.759
 2628POPC   C2B37064  28.714  29.092   8.317
 2628POPC   C3B37065  28.911  29.174   7.901
 2628POPC   C4B37066  28.936  28.891   7.552
 2629POPC   NC337067  28.661  13.919   9.849
 2629POPC   PO437068  28.330  14.559   9.636
 2629POPC   GL137069  28.124  14.575   9.255
 2629POPC   GL237070  28.282  14.256   9.190
 2629POPC   C1A37071  28.268  14.683   8.842
 2629POPC   D2A37072  28.389  14.508   8.436
 2629POPC   C3A37073  28.218  14.592   8.055
 2629POPC   C4A37074  28.419  14.691   7.703
 2629POPC   C1B37075  28.187  14.166   8.771
 2629POPC   C2B37076  28.029  14.174   8.352
 2629POPC   C3B37077  28.332  14.100   8.047
 2629POPC   C4B37078  28.471  14.204   7.657
 2630POPC   NC337079   2.334  21.375   9.439
 2630POPC   PO437080   1.827  20.959   9.410
 2630POPC   GL137081   2.010  21.173   9.096
 2630POPC   GL237082   1.978  21.533   9.103
 2630POPC   C1A37083   2.096  21.192   8.686
 2630POPC   D2A37084   1.842  21.051   8.401
 2630POPC   C3A37085   2.016  21.212   8.070
 2630POPC   C4A37086   2.146  21.021   7.719
 2630POPC   C1B37087   2.135  21.707   8.695
 2630POPC   C2B37088   2.288  21.670   8.248
 2630POPC   C3B37089   2.095  21.643   7.810
 2630POPC   C4B37090   1.996  21.806   7.383
 2631POPC   NC337091  15.436   0.542   9.468
 2631POPC   PO437092  15.112   0.008   9.477
 2631POPC   GL137093  15.309   0.175   9.131
 2631POPC   GL237094  15.098   0.452   9.095
 2631POPC   C1A37095  15.352   0.174   8.689
 2631POPC   D2A37096  15.606   0.399   8.374
 2631POPC   C3A37097  15.537   0.321   7.962
 2631POPC   C4A37098  15.482   0.366   7.491
 2631POPC   C1B37099  14.917   0.664   8.742
 2631POPC   C2B37100  15.057   0.464   8.362
 2631POPC   C3B37101  15.097   0.116   8.098
 2631POPC   C4B37102  15.070   0.368   7.752
 2632POPC   NC337103  28.840   2.338   9.449
 2632POPC   PO437104  29.202   2.916   9.316
 2632POPC   GL137105  29.125   2.602   9.069
 2632POPC   GL237106  29.409   2.396   9.219
 2632POPC   C1A37107  29.126   2.745   8.639
 2632POPC   D2A37108  28.956   2.564   8.249
 2632POPC   C3A37109  29.202   2.798   7.984
 2632POPC   C4A37110  29.147   3.203   7.852
 2632POPC   C1B37111  29.369   2.263   8.789
 2632POPC   C2B37112  29.426   2.433   8.397
 2632POPC   C3B37113  29.484   2.275   8.028
 2632POPC   C4B37114  29.510   2.521   7.692
 2633POPC   NC337115  24.872  24.494   9.667
 2633POPC   PO437116  24.315  24.355   9.368
 2633POPC   GL137117  24.663  24.459   9.156
 2633POPC   GL237118  24.917  24.224   9.226
 2633POPC   C1A37119  24.537  24.550   8.737
 2633POPC   D2A37120  24.559  24.784   8.382
 2633POPC   C3A37121  24.521  24.530   8.029
 2633POPC   C4A37122  24.339  24.465   7.623
 2633POPC   C1B37123  24.968  24.304   8.781
 2633POPC   C2B37124  24.942  24.442   8.398
 2633POPC   C3B37125  24.981  24.241   8.044
 2633POPC   C4B37126  24.817  24.272   7.675
 2634POPC   NC337127  14.881  35.068   9.436
 2634POPC   PO437128  15.180  35.592   9.617
 2634POPC   GL137129  15.232  35.374   9.213
 2634POPC   GL237130  14.891  35.444   9.106
 2634POPC   C1A37131  15.228  35.317   8.743
 2634POPC   D2A37132  15.276  35.020   8.328
 2634POPC   C3A37133  15.389  35.213   7.927
 2634POPC   C4A37134  15.156  35.553   7.778
 2634POPC   C1B37135  14.738  35.229   8.747
 2634POPC   C2B37136  14.878  35.373   8.336
 2634POPC   C3B37137  14.868  35.133   7.975
 2634POPC   C4B37138  14.904  35.109   7.542
 2635POPC   NC337139  38.394  40.357   9.931
 2635POPC   PO437140  38.469  40.786   9.457
 2635POPC   GL137141  38.684  40.751   9.069
 2635POPC   GL237142  38.396  40.582   8.942
 2635POPC   C1A37143  38.713  40.765   8.609
 2635POPC   D2A37144  38.357  40.710   8.335
 2635POPC   C3A37145  38.315  41.028   7.994
 2635POPC   C4A37146  38.585  41.156   7.647
 2635POPC   C1B37147  38.022  40.549   8.704
 2635POPC   C2B37148  37.811  40.463   8.314
 2635POPC   C3B37149  38.026  40.598   7.970
 2635POPC   C4B37150  38.322  40.691   7.634
 2636POPC   NC337151   2.448  37.911   9.453
 2636POPC   PO437152   3.122  37.625   9.495
 2636POPC   GL137153   2.819  37.640   9.146
 2636POPC   GL237154   2.638  37.955   8.983
 2636POPC   C1A37155   2.683  37.481   8.757
 2636POPC   D2A37156   2.520  37.545   8.336
 2636POPC   C3A37157   2.782  37.527   7.948
 2636POPC   C4A37158   2.620  37.432   7.524
 2636POPC   C1B37159   2.933  37.934   8.644
 2636POPC   C2B37160   2.995  37.947   8.218
 2636POPC   C3B37161   2.638  38.030   8.048
 2636POPC   C4B37162   2.453  38.013   7.705
 2637POPC   NC337163  39.457  18.072   9.544
 2637POPC   PO437164  39.441  17.356   9.519
 2637POPC   GL137165  39.294  17.506   9.155
 2637POPC   GL237166  39.147  17.800   9.205
 2637POPC   C1A37167  39.327  17.349   8.752
 2637POPC   D2A37168  39.527  17.469   8.398
 2637POPC   C3A37169  39.301  17.420   8.056
 2637POPC   C4A37170  39.166  17.527   7.636
 2637POPC   C1B37171  39.275  17.861   8.783
 2637POPC   C2B37172  39.370  17.979   8.388
 2637POPC   C3B37173  39.193  17.910   8.020
 2637POPC   C4B37174  39.376  18.006   7.686
 2638POPC   NC337175   0.488  40.009   9.493
 2638POPC   PO437176  44.828  40.117   9.377
 2638POPC   GL137177   0.133  39.860   9.075
 2638POPC   GL237178   0.496  40.015   9.002
 2638POPC   C1A37179   0.370  39.646   8.693
 2638POPC   D2A37180   0.647  39.849   8.390
 2638POPC   C3A37181   0.440  39.979   8.017
 2638POPC   C4A37182   0.122  39.802   7.746
 2638POPC   C1B37183   0.652  40.302   8.687
 2638POPC   C2B37184   0.958  40.276   8.375
 2638POPC   C3B37185   0.972  40.054   8.018
 2638POPC   C4B37186   0.812  40.031   7.607
 2639POPC   NC337187  15.519  29.648   9.414
 2639POPC   PO437188  16.093  29.925   9.642
 2639POPC   GL137189  16.248  29.948   9.221
 2639POPC   GL237190  15.896  29.944   9.146
 2639POPC   C1A37191  16.239  30.120   8.807
 2639POPC   D2A37192  16.202  29.875   8.447
 2639POPC   C3A37193  16.301  30.118   8.077
 2639POPC   C4A37194  16.170  29.900   7.719
 2639POPC   C1B37195  15.682  29.927   8.801
 2639POPC   C2B37196  15.627  29.759   8.430
 2639POPC   C3B37197  15.826  29.802   8.095
 2639POPC   C4B37198  15.637  29.916   7.727
 2640POPC   NC337199  25.251  27.380   9.520
 2640POPC   PO437200  25.902  27.559   9.419
 2640POPC   GL137201  25.629  27.835   9.111
 2640POPC   GL237202  25.269  27.969   9.162
 2640POPC   C1A37203  25.557  27.869   8.643
 2640POPC   D2A37204  25.526  27.846   8.173
 2640POPC   C3A37205  25.465  27.441   7.963
 2640POPC   C4A37206  25.445  27.355   7.517
 2640POPC   C1B37207  25.095  27.728   8.797
 2640POPC   C2B37208  24.928  27.822   8.380
 2640POPC   C3B37209  25.043  27.714   7.955
 2640POPC   C4B37210  24.986  27.298   7.753
 2641POPC   NC337211  31.674  20.672   9.732
 2641POPC   PO437212  32.318  20.699   9.505
 2641POPC   GL137213  32.202  20.796   9.121
 2641POPC   GL237214  32.155  20.452   9.065
 2641POPC   C1A37215  32.311  20.752   8.695
 2641POPC   D2A37216  32.550  20.679   8.325
 2641POPC   C3A37217  32.357  20.684   7.932
 2641POPC   C4A37218  32.057  20.670   7.617
 2641POPC   C1B37219  32.004  20.243   8.698
 2641POPC   C2B37220  32.075  20.420   8.311
 2641POPC   C3B37221  32.068  20.256   7.916
 2641POPC   C4B37222  31.714  20.061   7.721
 2642POPC   NC337223  42.958  24.125   9.759
 2642POPC   PO437224  43.314  23.614   9.502
 2642POPC   GL137225  43.024  23.807   9.187
 2642POPC   GL237226  43.276  23.928   8.941
 2642POPC   C1A37227  42.869  23.756   8.733
 2642POPC   D2A37228  43.102  23.549   8.391
 2642POPC   C3A37229  43.016  23.713   7.993
 2642POPC   C4A37230  42.976  23.750   7.547
 2642POPC   C1B37231  43.398  23.492   8.817
 2642POPC   C2B37232  43.614  23.456   8.417
 2642POPC   C3B37233  43.543  23.707   8.063
 2642POPC   C4B37234  43.415  23.566   7.679
 2643POPC   NC337235  11.538  19.087   9.329
 2643POPC   PO437236  10.985  18.725   9.419
 2643POPC   GL137237  11.105  19.014   9.080
 2643POPC   GL237238  11.134  19.396   9.139
 2643POPC   C1A37239  11.385  18.886   8.736
 2643POPC   D2A37240  11.299  18.648   8.399
 2643POPC   C3A37241  11.382  18.919   8.072
 2643POPC   C4A37242  11.478  18.837   7.667
 2643POPC   C1B37243  11.446  19.469   8.782
 2643POPC   C2B37244  11.672  19.259   8.452
 2643POPC   C3B37245  11.723  19.287   8.014
 2643POPC   C4B37246  11.625  19.651   7.796
 2644POPC   NC337247  43.609  18.453   9.566
 2644POPC   PO437248  44.286  18.357   9.436
 2644POPC   GL137249  43.911  18.196   9.230
 2644POPC   GL237250  44.085  17.980   9.070
 2644POPC   C1A37251  43.673  18.132   8.815
 2644POPC   D2A37252  43.911  18.142   8.407
 2644POPC   C3A37253  43.699  18.332   8.051
 2644POPC   C4A37254  43.576  18.111   7.727
 2644POPC   C1B37255  44.233  18.320   8.780
 2644POPC   C2B37256  44.415  18.341   8.357
 2644POPC   C3B37257  44.201  18.263   7.956
 2644POPC   C4B37258  43.983  18.542   7.665
 2645POPC   NC337259  18.822   2.877   9.769
 2645POPC   PO437260  19.180   2.902   9.244
 2645POPC   GL137261  19.032   2.644   8.963
 2645POPC   GL237262  18.720   2.731   9.177
 2645POPC   C1A37263  19.188   2.484   8.580
 2645POPC   D2A37264  19.260   2.373   8.170
 2645POPC   C3A37265  19.153   2.671   7.879
 2645POPC   C4A37266  19.128   2.713   7.436
 2645POPC   C1B37267  18.653   2.877   8.764
 2645POPC   C2B37268  18.833   2.784   8.365
 2645POPC   C3B37269  18.726   2.939   7.982
 2645POPC   C4B37270  18.947   3.217   7.728
 2646POPC   NC337271  30.521  14.079   9.591
 2646POPC   PO437272  31.171  14.167   9.361
 2646POPC   GL137273  30.789  14.297   9.085
 2646POPC   GL237274  30.479  14.421   9.201
 2646POPC   C1A37275  30.634  14.630   8.755
 2646POPC   D2A37276  30.421  14.840   8.371
 2646POPC   C3A37277  30.582  14.678   7.924
 2646POPC   C4A37278  30.801  14.598   7.484
 2646POPC   C1B37279  30.348  14.194   8.809
 2646POPC   C2B37280  30.451  14.330   8.387
 2646POPC   C3B37281  30.453  14.182   7.981
 2646POPC   C4B37282  30.627  13.809   7.813
 2647POPC   NC337283  19.366  25.669   9.528
 2647POPC   PO437284  18.912  26.135   9.518
 2647POPC   GL137285  19.028  25.911   9.189
 2647POPC   GL237286  19.315  26.023   9.125
 2647POPC   C1A37287  18.962  26.020   8.768
 2647POPC   D2A37288  19.069  26.114   8.360
 2647POPC   C3A37289  18.796  26.212   8.050
 2647POPC   C4A37290  18.828  26.274   7.667
 2647POPC   C1B37291  19.359  25.661   8.873
 2647POPC   C2B37292  19.321  25.696   8.464
 2647POPC   C3B37293  19.516  25.715   8.088
 2647POPC   C4B37294  19.390  25.955   7.705
 2648POPC   NC337295  28.258   8.877   9.465
 2648POPC   PO437296  28.771   8.499   9.417
 2648POPC   GL137297  28.599   8.776   9.112
 2648POPC   GL237298  28.457   9.148   9.098
 2648POPC   C1A37299  28.637   8.854   8.697
 2648POPC   D2A37300  28.797   8.605   8.350
 2648POPC   C3A37301  28.673   8.838   7.980
 2648POPC   C4A37302  28.321   8.907   7.732
 2648POPC   C1B37303  28.433   9.360   8.736
 2648POPC   C2B37304  28.391   9.176   8.339
 2648POPC   C3B37305  28.209   9.329   7.983
 2648POPC   C4B37306  28.159   9.373   7.523
 2649POPC   NC337307  29.571   5.677   9.746
 2649POPC   PO437308  30.152   5.588   9.460
 2649POPC   GL137309  29.901   5.875   9.270
 2649POPC   GL237310  29.565   5.813   9.205
 2649POPC   C1A37311  29.931   5.874   8.823
 2649POPC   D2A37312  29.860   5.723   8.421
 2649POPC   C3A37313  29.862   6.060   8.129
 2649POPC   C4A37314  30.054   5.753   7.886
 2649POPC   C1B37315  29.459   5.699   8.764
 2649POPC   C2B37316  29.380   5.879   8.352
 2649POPC   C3B37317  29.525   5.705   7.982
 2649POPC   C4B37318  29.571   5.513   7.590
 2650POPC   NC337319   5.542  43.344   9.581
 2650POPC   PO437320   6.066  43.024   9.810
 2650POPC   GL137321   5.946  43.065   9.341
 2650POPC   GL237322   5.876  43.417   9.219
 2650POPC   C1A37323   5.781  42.952   8.918
 2650POPC   D2A37324   5.699  43.083   8.488
 2650POPC   C3A37325   5.723  42.842   8.095
 2650POPC   C4A37326   6.037  42.860   7.763
 2650POPC   C1B37327   6.021  43.438   8.820
 2650POPC   C2B37328   5.981  43.504   8.414
 2650POPC   C3B37329   6.049  43.253   8.107
 2650POPC   C4B37330   5.931  43.368   7.758
 2651POPC   NC337331  43.233  26.607   9.605
 2651POPC   PO437332  43.382  27.292   9.606
 2651POPC   GL137333  43.261  27.006   9.190
 2651POPC   GL237334  43.087  26.648   9.132
 2651POPC   C1A37335  43.412  26.884   8.744
 2651POPC   D2A37336  43.547  26.814   8.290
 2651POPC   C3A37337  43.289  27.047   7.996
 2651POPC   C4A37338  42.859  27.155   7.856
 2651POPC   C1B37339  42.998  26.587   8.729
 2651POPC   C2B37340  43.036  26.751   8.364
 2651POPC   C3B37341  42.964  26.672   7.988
 2651POPC   C4B37342  43.274  26.599   7.606
 2652POPC   NC337343  22.658  27.067   9.472
 2652POPC   PO437344  22.911  26.385   9.558
 2652POPC   GL137345  22.882  26.542   9.150
 2652POPC   GL237346  22.835  26.908   9.041
 2652POPC   C1A37347  23.099  26.599   8.760
 2652POPC   D2A37348  23.013  26.902   8.447
 2652POPC   C3A37349  23.028  26.729   8.045
 2652POPC   C4A37350  23.150  26.958   7.666
 2652POPC   C1B37351  22.453  26.999   8.762
 2652POPC   C2B37352  22.308  26.894   8.340
 2652POPC   C3B37353  22.561  27.048   8.003
 2652POPC   C4B37354  22.682  26.792   7.675
 2653POPC   NC337355  28.994   3.321   9.344
 2653POPC   PO437356  29.624   3.474   9.453
 2653POPC   GL137357  29.405   3.549   9.083
 2653POPC   GL237358  29.070   3.753   9.049
 2653POPC   C1A37359  29.374   3.273   8.751
 2653POPC   D2A37360  29.270   3.271   8.346
 2653POPC   C3A37361  29.370   3.632   8.095
 2653POPC   C4A37362  29.443   3.624   7.701
 2653POPC   C1B37363  29.141   3.726   8.573
 2653POPC   C2B37364  28.890   3.587   8.177
 2653POPC   C3B37365  28.839   3.575   7.712
 2653POPC   C4B37366  28.824   3.725   7.254
 2654POPC   NC337367  19.864  31.037   9.499
 2654POPC   PO437368  19.586  31.649   9.544
 2654POPC   GL137369  19.601  31.488   9.155
 2654POPC   GL237370  19.830  31.251   9.061
 2654POPC   C1A37371  19.512  31.472   8.728
 2654POPC   D2A37372  19.792  31.497   8.414
 2654POPC   C3A37373  19.556  31.423   8.084
 2654POPC   C4A37374  19.867  31.281   7.853
 2654POPC   C1B37375  19.830  31.059   8.685
 2654POPC   C2B37376  20.076  31.047   8.330
 2654POPC   C3B37377  20.296  30.999   7.976
 2654POPC   C4B37378  20.202  31.039   7.539
 2655POPC   NC337379   8.806  29.633   9.553
 2655POPC   PO437380   9.042  30.210   9.495
 2655POPC   GL137381   8.799  30.024   9.135
 2655POPC   GL237382   8.663  29.691   9.068
 2655POPC   C1A37383   8.884  30.085   8.685
 2655POPC   D2A37384   8.955  30.250   8.259
 2655POPC   C3A37385   9.165  29.989   7.956
 2655POPC   C4A37386   9.010  29.963   7.554
 2655POPC   C1B37387   8.543  29.690   8.663
 2655POPC   C2B37388   8.515  30.004   8.322
 2655POPC   C3B37389   8.636  29.976   7.919
 2655POPC   C4B37390   8.481  30.104   7.540
 2656POPC   NC337391  22.699  30.085   9.494
 2656POPC   PO437392  23.396  29.886   9.446
 2656POPC   GL137393  23.093  30.022   9.150
 2656POPC   GL237394  22.830  29.748   9.050
 2656POPC   C1A37395  23.120  30.001   8.727
 2656POPC   D2A37396  22.855  29.813   8.459
 2656POPC   C3A37397  22.987  30.034   8.126
 2656POPC   C4A37398  22.981  29.962   7.705
 2656POPC   C1B37399  22.543  29.478   8.757
 2656POPC   C2B37400  22.376  29.597   8.329
 2656POPC   C3B37401  22.586  29.763   7.942
 2656POPC   C4B37402  22.615  29.711   7.429
 2657POPC   NC337403   7.406  18.659   9.530
 2657POPC   PO437404   7.016  19.199   9.378
 2657POPC   GL137405   7.283  19.119   9.060
 2657POPC   GL237406   7.373  18.769   9.032
 2657POPC   C1A37407   7.562  19.233   8.747
 2657POPC   D2A37408   7.660  19.067   8.334
 2657POPC   C3A37409   7.399  19.252   8.002
 2657POPC   C4A37410   7.442  19.428   7.600
 2657POPC   C1B37411   7.713  18.720   8.749
 2657POPC   C2B37412   7.893  18.529   8.399
 2657POPC   C3B37413   7.883  18.682   8.048
 2657POPC   C4B37414   7.724  18.942   7.771
 2658POPC   NC337415   2.307  15.075   9.495
 2658POPC   PO437416   1.904  15.662   9.531
 2658POPC   GL137417   2.096  15.441   9.173
 2658POPC   GL237418   1.945  15.109   9.134
 2658POPC   C1A37419   2.280  15.315   8.760
 2658POPC   D2A37420   2.227  15.484   8.328
 2658POPC   C3A37421   2.106  15.260   7.945
 2658POPC   C4A37422   1.918  15.286   7.545
 2658POPC   C1B37423   1.779  15.291   8.742
 2658POPC   C2B37424   1.749  15.245   8.302
 2658POPC   C3B37425   1.573  15.378   7.897
 2658POPC   C4B37426   1.421  15.125   7.513
 2659POPC   NC337427   7.067  31.766   9.535
 2659POPC   PO437428   6.629  31.166   9.448
 2659POPC   GL137429   6.698  31.360   9.060
 2659POPC   GL237430   6.769  31.719   9.113
 2659POPC   C1A37431   6.806  31.439   8.636
 2659POPC   D2A37432   6.744  31.746   8.338
 2659POPC   C3A37433   6.645  31.531   7.937
 2659POPC   C4A37434   6.400  31.173   7.817
 2659POPC   C1B37435   7.072  31.895   8.820
 2659POPC   C2B37436   7.257  31.793   8.433
 2659POPC   C3B37437   7.144  31.657   8.004
 2659POPC   C4B37438   7.013  31.640   7.561
 2660POPC   NC337439  31.588   4.082   9.306
 2660POPC   PO437440  31.316   4.634   9.419
 2660POPC   GL137441  31.143   4.445   9.078
 2660POPC   GL237442  31.089   4.098   9.137
 2660POPC   C1A37443  31.294   4.526   8.674
 2660POPC   D2A37444  31.305   4.781   8.326
 2660POPC   C3A37445  31.313   4.534   7.998
 2660POPC   C4A37446  31.527   4.293   7.732
 2660POPC   C1B37447  31.227   4.016   8.733
 2660POPC   C2B37448  31.138   4.130   8.329
 2660POPC   C3B37449  31.169   4.000   7.909
 2660POPC   C4B37450  31.164   3.977   7.437
 2661POPC   NC337451   2.730  20.981   9.576
 2661POPC   PO437452   3.040  21.575   9.517
 2661POPC   GL137453   2.797  21.482   9.158
 2661POPC   GL237454   3.097  21.406   8.999
 2661POPC   C1A37455   2.553  21.412   8.762
 2661POPC   D2A37456   2.509  21.204   8.344
 2661POPC   C3A37457   2.500  21.322   7.898
 2661POPC   C4A37458   2.572  21.137   7.458
 2661POPC   C1B37459   2.991  21.226   8.609
 2661POPC   C2B37460   3.136  21.099   8.256
 2661POPC   C3B37461   2.989  21.193   7.877
 2661POPC   C4B37462   2.965  21.449   7.519
 2662POPC   NC337463   2.060   7.178   9.591
 2662POPC   PO437464   2.191   7.813   9.596
 2662POPC   GL137465   2.215   7.498   9.211
 2662POPC   GL237466   2.347   7.159   9.173
 2662POPC   C1A37467   2.127   7.445   8.762
 2662POPC   D2A37468   1.935   7.638   8.380
 2662POPC   C3A37469   2.075   7.677   7.907
 2662POPC   C4A37470   2.040   7.846   7.456
 2662POPC   C1B37471   2.321   6.898   8.816
 2662POPC   C2B37472   2.300   7.111   8.418
 2662POPC   C3B37473   2.034   7.223   8.091
 2662POPC   C4B37474   2.214   7.097   7.706
 2663POPC   NC337475  27.221  13.412   9.438
 2663POPC   PO437476  26.726  13.859   9.353
 2663POPC   GL137477  26.649  13.501   9.078
 2663POPC   GL237478  26.982  13.376   8.990
 2663POPC   C1A37479  26.647  13.486   8.618
 2663POPC   D2A37480  26.477  13.622   8.213
 2663POPC   C3A37481  26.663  13.466   7.828
 2663POPC   C4A37482  26.858  13.663   7.444
 2663POPC   C1B37483  27.072  13.765   8.788
 2663POPC   C2B37484  27.079  13.881   8.351
 2663POPC   C3B37485  27.026  13.807   7.909
 2663POPC   C4B37486  27.311  13.863   7.540
 2664POPC   NC337487  36.582  34.518   9.550
 2664POPC   PO437488  37.271  34.780   9.474
 2664POPC   GL137489  36.951  34.574   9.179
 2664POPC   GL237490  36.634  34.692   9.081
 2664POPC   C1A37491  36.917  34.389   8.763
 2664POPC   D2A37492  36.784  34.594   8.379
 2664POPC   C3A37493  36.744  34.361   8.020
 2664POPC   C4A37494  37.002  34.164   7.740
 2664POPC   C1B37495  36.905  34.911   8.793
 2664POPC   C2B37496  37.063  35.015   8.421
 2664POPC   C3B37497  37.127  34.909   8.021
 2664POPC   C4B37498  36.867  34.722   7.703
 2665POPC   NC337499  15.675  14.041   9.344
 2665POPC   PO437500  16.243  14.501   9.488
 2665POPC   GL137501  15.991  14.423   9.130
 2665POPC   GL237502  16.081  14.069   9.022
 2665POPC   C1A37503  15.757  14.385   8.752
 2665POPC   D2A37504  15.839  14.227   8.342
 2665POPC   C3A37505  15.717  14.498   7.993
 2665POPC   C4A37506  15.930  14.740   7.693
 2665POPC   C1B37507  16.254  14.323   8.700
 2665POPC   C2B37508  16.401  14.366   8.340
 2665POPC   C3B37509  16.212  14.434   8.009
 2665POPC   C4B37510  16.228  14.217   7.626
 2666POPC   NC337511   5.884   6.030   9.662
 2666POPC   PO437512   6.087   5.455   9.414
 2666POPC   GL137513   5.920   5.722   9.099
 2666POPC   GL237514   5.753   6.043   9.157
 2666POPC   C1A37515   6.009   5.736   8.673
 2666POPC   D2A37516   5.854   5.572   8.312
 2666POPC   C3A37517   6.086   5.640   7.965
 2666POPC   C4A37518   5.965   5.692   7.591
 2666POPC   C1B37519   5.779   6.217   8.724
 2666POPC   C2B37520   5.919   6.116   8.316
 2666POPC   C3B37521   5.746   6.028   7.925
 2666POPC   C4B37522   5.806   6.195   7.512
 2667POPC   NC337523  13.630   1.944   9.467
 2667POPC   PO437524  13.665   2.547   9.377
 2667POPC   GL137525  13.766   2.253   9.060
 2667POPC   GL237526  14.110   2.119   9.032
 2667POPC   C1A37527  13.758   2.216   8.631
 2667POPC   D2A37528  13.552   2.038   8.308
 2667POPC   C3A37529  13.710   2.106   7.921
 2667POPC   C4A37530  13.409   2.034   7.615
 2667POPC   C1B37531  13.921   1.760   8.853
 2667POPC   C2B37532  13.906   1.595   8.443
 2667POPC   C3B37533  13.750   1.592   8.038
 2667POPC   C4B37534  13.902   1.686   7.637
 2668POPC   NC337535   3.979   9.182   9.459
 2668POPC   PO437536   3.380   8.886   9.605
 2668POPC   GL137537   3.551   9.036   9.217
 2668POPC   GL237538   3.456   9.352   9.072
 2668POPC   C1A37539   3.793   8.914   8.855
 2668POPC   D2A37540   3.809   9.110   8.464
 2668POPC   C3A37541   3.612   8.944   8.130
 2668POPC   C4A37542   3.323   9.019   7.806
 2668POPC   C1B37543   3.841   9.453   8.849
 2668POPC   C2B37544   3.999   9.577   8.429
 2668POPC   C3B37545   3.810   9.424   8.046
 2668POPC   C4B37546   3.802   9.169   7.674
 2669POPC   NC337547  25.441  41.123   9.518
 2669POPC   PO437548  25.419  41.731   9.747
 2669POPC   GL137549  25.326  41.537   9.249
 2669POPC   GL237550  25.561  41.317   9.078
 2669POPC   C1A37551  25.233  41.663   8.801
 2669POPC   D2A37552  25.026  41.811   8.418
 2669POPC   C3A37553  25.198  41.656   8.047
 2669POPC   C4A37554  25.175  41.244   7.860
 2669POPC   C1B37555  25.203  41.154   8.836
 2669POPC   C2B37556  25.310  41.260   8.415
 2669POPC   C3B37557  25.647  41.292   8.109
 2669POPC   C4B37558  25.594  41.516   7.739
 2670POPC   NC337559  40.535  38.977   9.534
 2670POPC   PO437560  40.773  39.580   9.492
 2670POPC   GL137561  40.904  39.211   9.278
 2670POPC   GL237562  41.191  39.297   9.117
 2670POPC   C1A37563  40.751  39.039   8.892
 2670POPC   D2A37564  40.565  39.220   8.521
 2670POPC   C3A37565  40.736  39.076   8.141
 2670POPC   C4A37566  40.759  39.230   7.723
 2670POPC   C1B37567  41.053  39.411   8.686
 2670POPC   C2B37568  41.173  39.330   8.244
 2670POPC   C3B37569  41.162  39.571   7.849
 2670POPC   C4B37570  40.987  39.599   7.429
 2671POPC   NC337571  14.543  33.877   9.606
 2671POPC   PO437572  13.874  33.643   9.441
 2671POPC   GL137573  14.262  33.607   9.220
 2671POPC   GL237574  14.257  33.954   9.144
 2671POPC   C1A37575  14.453  33.596   8.795
 2671POPC   D2A37576  14.433  33.916   8.481
 2671POPC   C3A37577  14.507  33.755   8.087
 2671POPC   C4A37578  14.482  33.623   7.681
 2671POPC   C1B37579  14.522  34.240   8.896
 2671POPC   C2B37580  14.439  34.436   8.493
 2671POPC   C3B37581  14.385  34.256   8.081
 2671POPC   C4B37582  14.565  34.128   7.725
 2672POPC   NC337583  23.799  21.828   9.526
 2672POPC   PO437584  23.929  21.245   9.397
 2672POPC   GL137585  23.862  21.581   9.077
 2672POPC   GL237586  23.576  21.440   8.956
 2672POPC   C1A37587  23.796  21.765   8.628
 2672POPC   D2A37588  23.620  21.579   8.236
 2672POPC   C3A37589  23.864  21.381   7.894
 2672POPC   C4A37590  23.813  21.296   7.438
 2672POPC   C1B37591  23.893  21.235   8.682
 2672POPC   C2B37592  23.824  21.045   8.270
 2672POPC   C3B37593  23.489  21.037   7.893
 2672POPC   C4B37594  23.180  21.104   7.514
 2673POPC   NC337595  39.454  15.441   9.473
 2673POPC   PO437596  38.972  14.975   9.353
 2673POPC   GL137597  39.274  15.111   9.112
 2673POPC   GL237598  39.140  15.402   9.071
 2673POPC   C1A37599  39.264  15.099   8.693
 2673POPC   D2A37600  38.990  15.089   8.391
 2673POPC   C3A37601  39.143  14.847   8.098
 2673POPC   C4A37602  39.225  15.120   7.812
 2673POPC   C1B37603  39.006  15.551   8.721
 2673POPC   C2B37604  39.213  15.589   8.350
 2673POPC   C3B37605  38.922  15.505   8.068
 2673POPC   C4B37606  38.850  15.431   7.654
 2674POPC   NC337607  25.417  39.718   9.628
 2674POPC   PO437608  24.892  39.951   9.735
 2674POPC   GL137609  25.157  40.074   9.305
 2674POPC   GL237610  25.527  40.166   9.264
 2674POPC   C1A37611  25.347  39.938   8.845
 2674POPC   D2A37612  25.309  39.860   8.371
 2674POPC   C3A37613  25.132  39.994   7.945
 2674POPC   C4A37614  25.257  39.762   7.528
 2674POPC   C1B37615  25.546  40.398   8.847
 2674POPC   C2B37616  25.528  40.323   8.388
 2674POPC   C3B37617  25.611  40.184   7.952
 2674POPC   C4B37618  25.368  40.293   7.583
 2675POPC   NC337619  40.081  42.831   9.438
 2675POPC   PO437620  40.354  43.503   9.456
 2675POPC   GL137621  40.323  43.187   9.147
 2675POPC   GL237622  39.957  43.111   8.995
 2675POPC   C1A37623  40.389  42.931   8.789
 2675POPC   D2A37624  40.111  42.998   8.418
 2675POPC   C3A37625  40.226  43.134   8.016
 2675POPC   C4A37626  40.376  42.869   7.714
 2675POPC   C1B37627  39.643  42.987   8.629
 2675POPC   C2B37628  39.667  42.837   8.169
 2675POPC   C3B37629  39.849  42.914   7.730
 2675POPC   C4B37630  39.652  42.777   7.320
 2676POPC   NC337631  29.111  39.647   9.503
 2676POPC   PO437632  29.422  39.086   9.521
 2676POPC   GL137633  29.319  39.248   9.152
 2676POPC   GL237634  28.954  39.260   9.115
 2676POPC   C1A37635  29.545  39.210   8.766
 2676POPC   D2A37636  29.478  39.039   8.349
 2676POPC   C3A37637  29.440  39.389   8.155
 2676POPC   C4A37638  29.322  39.684   7.832
 2676POPC   C1B37639  29.071  39.431   8.723
 2676POPC   C2B37640  29.061  39.631   8.333
 2676POPC   C3B37641  28.970  39.302   7.968
 2676POPC   C4B37642  28.698  38.911   7.898
 2677POPC   NC337643  19.602  42.841   9.456
 2677POPC   PO437644  20.118  43.277   9.572
 2677POPC   GL137645  19.921  43.135   9.201
 2677POPC   GL237646  19.746  43.437   9.111
 2677POPC   C1A37647  19.917  42.921   8.791
 2677POPC   D2A37648  19.741  42.972   8.356
 2677POPC   C3A37649  19.949  42.848   7.943
 2677POPC   C4A37650  19.676  42.810   7.573
 2677POPC   C1B37651  19.659  43.339   8.700
 2677POPC   C2B37652  19.803  43.476   8.298
 2677POPC   C3B37653  19.688  43.281   7.873
 2677POPC   C4B37654  19.850  43.244   7.416
 2678POPC   NC337655   4.794  43.238   9.531
 2678POPC   PO437656   5.362  42.921   9.507
 2678POPC   GL137657   5.328  43.127   9.127
 2678POPC   GL237658   5.174  43.439   9.213
 2678POPC   C1A37659   5.213  43.148   8.669
 2678POPC   D2A37660   5.055  42.929   8.282
 2678POPC   C3A37661   5.028  43.053   7.840
 2678POPC   C4A37662   5.120  43.452   7.618
 2678POPC   C1B37663   5.499  43.542   8.874
 2678POPC   C2B37664   5.485  43.562   8.431
 2678POPC   C3B37665   5.435  43.279   8.077
 2678POPC   C4B37666   5.527  43.090   7.670
 2679POPC   NC337667  39.091  42.870   9.459
 2679POPC   PO437668  39.642  43.214   9.405
 2679POPC   GL137669  39.443  42.989   9.099
 2679POPC   GL237670  39.524  42.657   9.212
 2679POPC   C1A37671  39.091  43.074   8.797
 2679POPC   D2A37672  38.846  43.095   8.364
 2679POPC   C3A37673  39.113  43.105   7.980
 2679POPC   C4A37674  39.522  43.267   7.877
 2679POPC   C1B37675  39.300  42.584   8.827
 2679POPC   C2B37676  39.197  42.734   8.438
 2679POPC   C3B37677  39.115  42.598   8.059
 2679POPC   C4B37678  39.380  42.676   7.739
 2680POPC   NC337679   4.858  25.483   9.626
 2680POPC   PO437680   4.252  25.512   9.651
 2680POPC   GL137681   4.525  25.503   9.226
 2680POPC   GL237682   4.596  25.155   9.105
 2680POPC   C1A37683   4.457  25.491   8.736
 2680POPC   D2A37684   4.159  25.310   8.391
 2680POPC   C3A37685   4.204  25.499   7.970
 2680POPC   C4A37686   4.607  25.646   7.904
 2680POPC   C1B37687   4.531  24.999   8.658
 2680POPC   C2B37688   4.646  25.214   8.264
 2680POPC   C3B37689   4.510  25.102   7.860
 2680POPC   C4B37690   4.518  24.837   7.485
 2681POPC   NC337691  30.322  35.017   9.472
 2681POPC   PO437692  29.712  35.303   9.467
 2681POPC   GL137693  29.997  35.288   9.137
 2681POPC   GL237694  30.215  35.598   9.142
 2681POPC   C1A37695  29.830  35.138   8.741
 2681POPC   D2A37696  29.683  35.413   8.427
 2681POPC   C3A37697  29.812  35.496   8.003
 2681POPC   C4A37698  29.763  35.182   7.670
 2681POPC   C1B37699  30.117  35.584   8.715
 2681POPC   C2B37700  30.264  35.525   8.311
 2681POPC   C3B37701  30.307  35.688   7.928
 2681POPC   C4B37702  30.098  35.569   7.569
 2682POPC   NC337703  21.088  42.287   9.521
 2682POPC   PO437704  21.592  41.905   9.475
 2682POPC   GL137705  21.313  42.017   9.136
 2682POPC   GL237706  21.390  42.350   9.102
 2682POPC   C1A37707  21.242  42.170   8.683
 2682POPC   D2A37708  21.222  42.306   8.282
 2682POPC   C3A37709  21.525  42.400   8.030
 2682POPC   C4A37710  21.388  42.079   7.761
 2682POPC   C1B37711  21.223  42.678   8.806
 2682POPC   C2B37712  21.281  42.816   8.365
 2682POPC   C3B37713  21.108  42.712   7.939
 2682POPC   C4B37714  20.895  42.366   7.775
 2683POPC   NC337715  11.367  15.349   9.670
 2683POPC   PO437716  11.134  15.979   9.369
 2683POPC   GL137717  11.540  16.011   9.152
 2683POPC   GL237718  11.673  15.726   8.950
 2683POPC   C1A37719  11.483  16.162   8.744
 2683POPC   D2A37720  11.175  16.156   8.445
 2683POPC   C3A37721  11.423  16.164   8.103
 2683POPC   C4A37722  11.357  15.971   7.732
 2683POPC   C1B37723  11.339  15.654   8.613
 2683POPC   C2B37724  11.230  15.694   8.219
 2683POPC   C3B37725  11.253  15.504   7.866
 2683POPC   C4B37726  11.588  15.571   7.549
 2684POPC   NC337727   1.119  32.080   9.618
 2684POPC   PO437728   0.783  32.593   9.356
 2684POPC   GL137729   0.929  32.159   9.145
 2684POPC   GL237730   1.231  31.930   9.150
 2684POPC   C1A37731   0.951  32.040   8.714
 2684POPC   D2A37732   0.896  32.309   8.368
 2684POPC   C3A37733   0.937  32.100   7.980
 2684POPC   C4A37734   1.059  32.342   7.698
 2684POPC   C1B37735   1.418  32.242   8.868
 2684POPC   C2B37736   1.395  32.228   8.447
 2684POPC   C3B37737   1.454  32.192   8.043
 2684POPC   C4B37738   1.623  32.158   7.676
 2685POPC   NC337739   8.349  35.917   9.687
 2685POPC   PO437740   7.815  36.245   9.634
 2685POPC   GL137741   8.050  36.187   9.233
 2685POPC   GL237742   8.051  35.831   9.263
 2685POPC   C1A37743   8.205  36.324   8.779
 2685POPC   D2A37744   8.313  36.447   8.321
 2685POPC   C3A37745   8.305  36.196   7.955
 2685POPC   C4A37746   7.999  35.919   7.805
 2685POPC   C1B37747   8.115  35.812   8.820
 2685POPC   C2B37748   8.195  35.920   8.388
 2685POPC   C3B37749   8.438  35.712   8.062
 2685POPC   C4B37750   8.413  35.719   7.612
 2686POPC   NC337751   0.527   4.807   9.472
 2686POPC   PO437752   0.178   4.300   9.535
 2686POPC   GL137753   0.221   4.537   9.177
 2686POPC   GL237754   0.561   4.407   9.139
 2686POPC   C1A37755   0.346   4.690   8.756
 2686POPC   D2A37756   0.362   4.443   8.386
 2686POPC   C3A37757   0.121   4.406   8.021
 2686POPC   C4A37758   0.203   4.250   7.621
 2686POPC   C1B37759   0.330   4.163   8.836
 2686POPC   C2B37760   0.471   3.892   8.506
 2686POPC   C3B37761   0.499   4.033   8.093
 2686POPC   C4B37762   0.740   4.056   7.722
 2687POPC   NC337763  16.571  35.072   9.274
 2687POPC   PO437764  16.911  34.537   9.549
 2687POPC   GL137765  16.856  34.664   9.159
 2687POPC   GL237766  16.554  34.568   9.081
 2687POPC   C1A37767  16.777  34.819   8.724
 2687POPC   D2A37768  16.572  34.847   8.393
 2687POPC   C3A37769  16.837  34.859   8.087
 2687POPC   C4A37770  16.898  34.519   7.838
 2687POPC   C1B37771  16.315  34.520   8.723
 2687POPC   C2B37772  16.382  34.385   8.328
 2687POPC   C3B37773  16.373  34.604   7.966
 2687POPC   C4B37774  16.501  34.583   7.553
 2688POPC   NC337775   3.775   3.451   9.651
 2688POPC   PO437776   3.264   3.870   9.607
 2688POPC   GL137777   3.544   3.776   9.203
 2688POPC   GL237778   3.673   3.443   9.121
 2688POPC   C1A37779   3.498   3.710   8.711
 2688POPC   D2A37780   3.378   3.654   8.257
 2688POPC   C3A37781   3.657   3.617   7.892
 2688POPC   C4A37782   3.447   3.710   7.499
 2688POPC   C1B37783   3.668   3.198   8.724
 2688POPC   C2B37784   3.668   3.234   8.269
 2688POPC   C3B37785   3.505   3.041   7.908
 2688POPC   C4B37786   3.526   3.198   7.483
 2689POPC   NC337787   3.267  29.563   9.469
 2689POPC   PO437788   3.402  30.221   9.511
 2689POPC   GL137789   3.693  30.147   9.162
 2689POPC   GL237790   3.594  29.790   9.106
 2689POPC   C1A37791   3.603  30.187   8.733
 2689POPC   D2A37792   3.396  30.142   8.336
 2689POPC   C3A37793   3.648  30.116   7.980
 2689POPC   C4A37794   4.050  30.254   7.866
 2689POPC   C1B37795   3.469  29.698   8.664
 2689POPC   C2B37796   3.545  29.622   8.216
 2689POPC   C3B37797   3.469  29.493   7.787
 2689POPC   C4B37798   3.235  29.591   7.381
 2690POPC   NC337799  31.206   5.086   9.418
 2690POPC   PO437800  31.740   5.599   9.489
 2690POPC   GL137801  31.712   5.282   9.152
 2690POPC   GL237802  31.413   5.428   9.112
 2690POPC   C1A37803  31.624   4.996   8.745
 2690POPC   D2A37804  31.706   5.161   8.295
 2690POPC   C3A37805  31.658   4.912   7.929
 2690POPC   C4A37806  31.302   4.966   7.684
 2690POPC   C1B37807  31.519   5.473   8.687
 2690POPC   C2B37808  31.208   5.260   8.409
 2690POPC   C3B37809  31.086   5.378   7.993
 2690POPC   C4B37810  31.499   5.415   7.868
 2691POPC   NC337811   3.369  44.963   5.656
 2691POPC   PO437812   3.559   0.458   5.269
 2691POPC   GL137813   3.631   0.470   5.764
 2691POPC   GL237814   3.364   0.447   5.863
 2691POPC   C1A37815   3.623   0.281   6.237
 2691POPC   D2A37816   3.391   0.362   6.631
 2691POPC   C3A37817   3.632   0.298   6.994
 2691POPC   C4A37818   3.703   0.546   7.322
 2691POPC   C1B37819   3.217   0.675   6.246
 2691POPC   C2B37820   3.001   0.711   6.655
 2691POPC   C3B37821   3.185   0.606   7.069
 2691POPC   C4B37822   3.285   0.249   7.367
 2692POPC   NC337823   0.248  34.374   5.171
 2692POPC   PO437824  44.653  34.744   5.267
 2692POPC   GL137825  44.517  34.617   5.709
 2692POPC   GL237826  44.660  34.898   5.901
 2692POPC   C1A37827  44.652  34.449   6.146
 2692POPC   D2A37828  44.597  34.582   6.569
 2692POPC   C3A37829  44.627  34.346   6.961
 2692POPC   C4A37830  44.430  34.236   7.360
 2692POPC   C1B37831   0.023  34.833   6.208
 2692POPC   C2B37832   0.123  34.634   6.594
 2692POPC   C3B37833  44.914  34.769   6.939
 2692POPC   C4B37834  44.783  34.761   7.329
 2693POPC   NC337835  21.740  27.519   5.428
 2693POPC   PO437836  21.146  27.770   5.256
 2693POPC   GL137837  21.237  27.728   5.692
 2693POPC   GL237838  21.334  27.374   5.733
 2693POPC   C1A37839  21.237  27.790   6.144
 2693POPC   D2A37840  21.547  27.780   6.492
 2693POPC   C3A37841  21.353  27.898   6.864
 2693POPC   C4A37842  21.226  27.850   7.260
 2693POPC   C1B37843  21.229  27.281   6.179
 2693POPC   C2B37844  21.120  27.503   6.578
 2693POPC   C3B37845  20.985  27.463   7.013
 2693POPC   C4B37846  21.040  27.421   7.477
 2694POPC   NC337847   0.614   3.972   5.400
 2694POPC   PO437848   0.495   3.309   5.320
 2694POPC   GL137849   0.385   3.346   5.710
 2694POPC   GL237850   0.576   3.614   5.765
 2694POPC   C1A37851   0.356   3.228   6.141
 2694POPC   D2A37852   0.168   3.430   6.507
 2694POPC   C3A37853   0.369   3.482   6.906
 2694POPC   C4A37854   0.209   3.473   7.312
 2694POPC   C1B37855   0.733   3.867   6.101
 2694POPC   C2B37856   0.573   3.841   6.508
 2694POPC   C3B37857   0.699   3.955   6.919
 2694POPC   C4B37858   0.699   3.739   7.276
 2695POPC   NC337859   2.676  31.822   5.529
 2695POPC   PO437860   3.004  31.305   5.435
 2695POPC   GL137861   2.878  31.478   5.828
 2695POPC   GL237862   2.540  31.369   5.774
 2695POPC   C1A37863   2.974  31.783   6.182
 2695POPC   D2A37864   2.838  31.872   6.608
 2695POPC   C3A37865   2.981  31.608   6.893
 2695POPC   C4A37866   2.989  31.506   7.252
 2695POPC   C1B37867   2.537  31.507   6.208
 2695POPC   C2B37868   2.650  31.373   6.610
 2695POPC   C3B37869   2.511  31.405   7.060
 2695POPC   C4B37870   2.582  31.162   7.467
 2696POPC   NC337871  21.115  25.956   5.475
 2696POPC   PO437872  21.488  26.438   5.517
 2696POPC   GL137873  21.256  26.299   5.879
 2696POPC   GL237874  20.956  26.471   5.904
 2696POPC   C1A37875  21.373  25.993   6.222
 2696POPC   D2A37876  21.656  25.854   6.582
 2696POPC   C3A37877  21.510  25.912   7.020
 2696POPC   C4A37878  21.522  26.282   7.307
 2696POPC   C1B37879  20.944  26.267   6.324
 2696POPC   C2B37880  20.981  26.061   6.745
 2696POPC   C3B37881  21.045  26.145   7.182
 2696POPC   C4B37882  21.085  26.303   7.612
 2697POPC   NC337883  19.686   3.348   5.387
 2697POPC   PO437884  19.794   3.982   5.512
 2697POPC   GL137885  19.616   3.626   5.846
 2697POPC   GL237886  19.562   3.235   5.857
 2697POPC   C1A37887  19.832   3.432   6.246
 2697POPC   D2A37888  20.019   3.330   6.687
 2697POPC   C3A37889  19.923   3.658   7.039
 2697POPC   C4A37890  19.535   3.868   7.183
 2697POPC   C1B37891  19.442   3.107   6.274
 2697POPC   C2B37892  19.518   3.359   6.656
 2697POPC   C3B37893  19.639   3.247   7.066
 2697POPC   C4B37894  19.812   3.018   7.394
 2698POPC   NC337895   6.763  40.567   5.495
 2698POPC   PO437896   6.363  41.108   5.468
 2698POPC   GL137897   6.601  40.935   5.815
 2698POPC   GL237898   6.908  41.127   5.797
 2698POPC   C1A37899   6.518  40.699   6.229
 2698POPC   D2A37900   6.512  40.412   6.588
 2698POPC   C3A37901   6.467  40.589   6.999
 2698POPC   C4A37902   6.597  40.587   7.414
 2698POPC   C1B37903   6.980  40.896   6.185
 2698POPC   C2B37904   6.938  40.695   6.597
 2698POPC   C3B37905   6.912  40.852   7.023
 2698POPC   C4B37906   7.055  40.773   7.450
 2699POPC   NC337907   1.494  32.208   5.521
 2699POPC   PO437908   2.229  31.936   5.472
 2699POPC   GL137909   1.948  32.104   5.803
 2699POPC   GL237910   1.977  32.448   5.789
 2699POPC   C1A37911   2.025  32.253   6.255
 2699POPC   D2A37912   1.904  32.122   6.669
 2699POPC   C3A37913   2.122  32.298   7.051
 2699POPC   C4A37914   2.111  32.169   7.506
 2699POPC   C1B37915   1.647  32.552   6.141
 2699POPC   C2B37916   1.821  32.627   6.564
 2699POPC   C3B37917   1.748  32.665   6.994
 2699POPC   C4B37918   1.803  32.542   7.411
 2700POPC   NC337919  20.225  31.949   5.658
 2700POPC   PO437920  20.753  32.204   5.272
 2700POPC   GL137921  20.731  32.190   5.775
 2700POPC   GL237922  20.453  32.322   5.984
 2700POPC   C1A37923  20.834  32.230   6.259
 2700POPC   D2A37924  20.618  32.050   6.611
 2700POPC   C3A37925  20.790  32.064   7.015
 2700POPC   C4A37926  20.849  32.313   7.368
 2700POPC   C1B37927  20.228  32.220   6.326
 2700POPC   C2B37928  20.241  32.423   6.712
 2700POPC   C3B37929  20.378  32.372   7.140
 2700POPC   C4B37930  20.265  32.209   7.552
 2701POPC   NC337931  14.569  25.944   5.174
 2701POPC   PO437932  14.309  26.564   5.147
 2701POPC   GL137933  14.283  26.197   5.564
 2701POPC   GL237934  14.550  25.945   5.713
 2701POPC   C1A37935  14.306  26.192   6.070
 2701POPC   D2A37936  14.455  26.214   6.507
 2701POPC   C3A37937  14.215  26.220   6.880
 2701POPC   C4A37938  14.303  26.184   7.337
 2701POPC   C1B37939  14.407  25.686   6.136
 2701POPC   C2B37940  14.292  25.754   6.613
 2701POPC   C3B37941  14.486  25.804   7.040
 2701POPC   C4B37942  14.393  25.722   7.528
 2702POPC   NC337943  42.925   3.138   5.370
 2702POPC   PO437944  43.259   2.537   5.483
 2702POPC   GL137945  43.026   2.809   5.797
 2702POPC   GL237946  43.290   2.959   5.956
 2702POPC   C1A37947  42.887   2.934   6.258
 2702POPC   D2A37948  43.117   2.804   6.657
 2702POPC   C3A37949  42.922   2.814   7.046
 2702POPC   C4A37950  43.008   2.994   7.421
 2702POPC   C1B37951  43.245   2.552   6.209
 2702POPC   C2B37952  43.472   2.416   6.585
 2702POPC   C3B37953  43.277   2.415   6.990
 2702POPC   C4B37954  43.358   2.334   7.425
 2703POPC   NC337955   7.027  38.292   5.448
 2703POPC   PO437956   7.642  38.624   5.485
 2703POPC   GL137957   7.557  38.626   5.904
 2703POPC   GL237958   7.198  38.600   5.844
 2703POPC   C1A37959   7.484  38.697   6.337
 2703POPC   D2A37960   7.311  38.789   6.730
 2703POPC   C3A37961   7.547  38.644   7.091
 2703POPC   C4A37962   7.853  38.621   7.408
 2703POPC   C1B37963   7.328  38.233   6.115
 2703POPC   C2B37964   7.248  38.271   6.550
 2703POPC   C3B37965   7.307  38.185   6.983
 2703POPC   C4B37966   7.138  38.401   7.320
 2704POPC   NC337967  24.468  10.230   5.226
 2704POPC   PO437968  24.287  10.850   5.484
 2704POPC   GL137969  24.483  10.537   5.732
 2704POPC   GL237970  24.226  10.491   5.984
 2704POPC   C1A37971  24.711  10.455   6.098
 2704POPC   D2A37972  24.504  10.299   6.462
 2704POPC   C3A37973  24.564  10.538   6.818
 2704POPC   C4A37974  24.574  10.592   7.262
 2704POPC   C1B37975  24.205  10.731   6.383
 2704POPC   C2B37976  24.072  10.660   6.846
 2704POPC   C3B37977  24.157  10.311   7.195
 2704POPC   C4B37978  24.364  10.192   7.627
 2705POPC   NC337979  20.986   9.389   5.399
 2705POPC   PO437980  20.641   9.961   5.521
 2705POPC   GL137981  20.475   9.822   5.867
 2705POPC   GL237982  20.543   9.493   5.760
 2705POPC   C1A37983  20.487   9.646   6.277
 2705POPC   D2A37984  20.659   9.714   6.676
 2705POPC   C3A37985  20.426   9.973   6.900
 2705POPC   C4A37986  20.381  10.164   7.270
 2705POPC   C1B37987  20.836   9.333   6.064
 2705POPC   C2B37988  20.791   9.248   6.522
 2705POPC   C3B37989  20.869   9.349   6.963
 2705POPC   C4B37990  20.729   9.708   7.262
 2706POPC   NC337991  34.193   5.962   5.519
 2706POPC   PO437992  34.854   5.722   5.613
 2706POPC   GL137993  34.702   5.859   6.019
 2706POPC   GL237994  34.433   6.045   5.950
 2706POPC   C1A37995  34.406   5.753   6.371
 2706POPC   D2A37996  34.319   5.836   6.815
 2706POPC   C3A37997  34.600   5.633   7.177
 2706POPC   C4A37998  34.436   5.499   7.566
 2706POPC   C1B37999  34.454   6.272   6.333
 2706POPC   C2B38000  34.533   6.310   6.760
 2706POPC   C3B38001  34.534   6.122   7.172
 2706POPC   C4B38002  34.412   5.999   7.588
 2707POPC   NC338003   6.584  28.909   5.551
 2707POPC   PO438004   6.819  29.463   5.628
 2707POPC   GL138005   6.493  29.497   5.958
 2707POPC   GL238006   6.390  29.161   5.980
 2707POPC   C1A38007   6.442  29.574   6.388
 2707POPC   D2A38008   6.642  29.436   6.757
 2707POPC   C3A38009   6.409  29.422   7.133
 2707POPC   C4A38010   6.356  29.046   7.371
 2707POPC   C1B38011   6.744  29.165   6.278
 2707POPC   C2B38012   6.899  28.995   6.681
 2707POPC   C3B38013   6.826  29.091   7.124
 2707POPC   C4B38014   6.860  29.464   7.363
 2708POPC   NC338015  12.626  44.103   5.646
 2708POPC   PO438016  12.902  43.562   5.340
 2708POPC   GL138017  12.973  43.746   5.774
 2708POPC   GL238018  13.241  43.536   5.784
 2708POPC   C1A38019  12.836  43.950   6.231
 2708POPC   D2A38020  12.537  44.179   6.500
 2708POPC   C3A38021  12.685  44.121   6.925
 2708POPC   C4A38022  12.695  44.342   7.306
 2708POPC   C1B38023  12.998  43.482   6.209
 2708POPC   C2B38024  13.088  43.638   6.609
 2708POPC   C3B38025  13.031  43.736   7.019
 2708POPC   C4B38026  12.875  43.863   7.406
 2709POPC   NC338027  16.582  11.858   5.070
 2709POPC   PO438028  16.693  11.139   5.262
 2709POPC   GL138029  16.599  11.128   5.705
 2709POPC   GL238030  16.913  11.088   5.848
 2709POPC   C1A38031  16.495  11.085   6.148
 2709POPC   D2A38032  16.488  11.319   6.507
 2709POPC   C3A38033  16.431  11.175   6.893
 2709POPC   C4A38034  16.623  11.297   7.261
 2709POPC   C1B38035  16.828  11.494   6.103
 2709POPC   C2B38036  16.791  11.727   6.501
 2709POPC   C3B38037  16.878  11.614   6.932
 2709POPC   C4B38038  17.166  11.541   7.276
 2710POPC   NC338039  16.790  29.800   5.411
 2710POPC   PO438040  16.153  30.030   5.396
 2710POPC   GL138041  16.558  30.095   5.756
 2710POPC   GL238042  16.963  29.970   5.844
 2710POPC   C1A38043  16.594  29.850   6.167
 2710POPC   D2A38044  16.296  29.789   6.508
 2710POPC   C3A38045  16.326  30.053   6.860
 2710POPC   C4A38046  16.414  30.049   7.297
 2710POPC   C1B38047  16.972  30.178   6.221
 2710POPC   C2B38048  16.787  30.058   6.598
 2710POPC   C3B38049  16.822  29.939   7.002
 2710POPC   C4B38050  16.934  30.191   7.326
 2711POPC   NC338051  23.227  44.915   5.508
 2711POPC   PO438052  22.728  44.565   5.579
 2711POPC   GL138053  22.781  44.778   5.947
 2711POPC   GL238054  23.112  44.680   5.977
 2711POPC   C1A38055  22.793  44.795   6.387
 2711POPC   D2A38056  22.921  44.528   6.699
 2711POPC   C3A38057  22.858  44.684   7.107
 2711POPC   C4A38058  22.595  44.501   7.422
 2711POPC   C1B38059  23.189   0.071   6.217
 2711POPC   C2B38060  23.266   0.255   6.627
 2711POPC   C3B38061  23.188   0.087   7.023
 2711POPC   C4B38062  23.316  44.758   7.320
 2712POPC   NC338063  40.403   1.067   5.419
 2712POPC   PO438064  39.812   0.981   5.430
 2712POPC   GL138065  39.882   1.186   5.834
 2712POPC   GL238066  40.257   1.197   5.910
 2712POPC   C1A38067  39.886   1.211   6.303
 2712POPC   D2A38068  40.172   1.223   6.681
 2712POPC   C3A38069  39.982   1.288   7.079
 2712POPC   C4A38070  39.758   1.007   7.348
 2712POPC   C1B38071  40.532   1.135   6.288
 2712POPC   C2B38072  40.614   0.959   6.712
 2712POPC   C3B38073  40.415   1.001   7.133
 2712POPC   C4B38074  40.240   1.215   7.517
 2713POPC   NC338075  34.650   6.861   5.459
 2713POPC   PO438076  34.197   6.421   5.641
 2713POPC   GL138077  34.575   6.529   5.857
 2713POPC   GL238078  34.848   6.298   5.761
 2713POPC   C1A38079  34.616   6.750   6.227
 2713POPC   D2A38080  34.653   6.972   6.605
 2713POPC   C3A38081  34.528   6.788   6.965
 2713POPC   C4A38082  34.333   6.556   7.287
 2713POPC   C1B38083  34.965   6.354   6.202
 2713POPC   C2B38084  34.959   6.540   6.628
 2713POPC   C3B38085  34.902   6.466   7.088
 2713POPC   C4B38086  35.098   6.663   7.439
 2714POPC   NC338087  31.202  11.785   5.397
 2714POPC   PO438088  31.346  12.504   5.411
 2714POPC   GL138089  31.295  12.178   5.740
 2714POPC   GL238090  31.556  11.921   5.764
 2714POPC   C1A38091  31.446  12.250   6.163
 2714POPC   D2A38092  31.597  12.475   6.546
 2714POPC   C3A38093  31.323  12.450   6.905
 2714POPC   C4A38094  31.369  12.290   7.339
 2714POPC   C1B38095  31.777  11.858   6.170
 2714POPC   C2B38096  31.850  11.999   6.592
 2714POPC   C3B38097  31.721  12.048   7.030
 2714POPC   C4B38098  31.906  11.850   7.384
 2715POPC   NC338099   1.192  43.467   5.430
 2715POPC   PO438100   1.370  42.861   5.338
 2715POPC   GL138101   1.228  43.096   5.762
 2715POPC   GL238102   1.500  43.378   5.820
 2715POPC   C1A38103   1.032  43.291   6.156
 2715POPC   D2A38104   0.872  43.189   6.577
 2715POPC   C3A38105   1.071  43.394   6.955
 2715POPC   C4A38106   0.975  43.365   7.413
 2715POPC   C1B38107   1.526  43.159   6.221
 2715POPC   C2B38108   1.364  43.034   6.633
 2715POPC   C3B38109   1.573  43.233   6.955
 2715POPC   C4B38110   1.480  43.393   7.347
 2716POPC   NC338111   9.096  42.523   5.345
 2716POPC   PO438112   9.121  41.982   5.713
 2716POPC   GL138113   9.124  42.386   5.866
 2716POPC   GL238114   8.814  42.443   5.862
 2716POPC   C1A38115   9.188  42.490   6.287
 2716POPC   D2A38116   9.049  42.624   6.674
 2716POPC   C3A38117   9.329  42.457   6.980
 2716POPC   C4A38118   9.374  42.341   7.414
 2716POPC   C1B38119   8.721  42.313   6.261
 2716POPC   C2B38120   8.856  42.154   6.673
 2716POPC   C3B38121   8.856  42.314   7.100
 2716POPC   C4B38122   8.884  42.347   7.557
 2717POPC   NC338123  11.266  41.823   5.419
 2717POPC   PO438124  11.001  41.184   5.395
 2717POPC   GL138125  11.001  41.481   5.711
 2717POPC   GL238126  11.317  41.387   5.801
 2717POPC   C1A38127  11.031  41.752   6.114
 2717POPC   D2A38128  10.931  41.612   6.563
 2717POPC   C3A38129  11.110  41.589   7.016
 2717POPC   C4A38130  11.125  41.761   7.457
 2717POPC   C1B38131  11.662  41.297   6.081
 2717POPC   C2B38132  11.642  41.184   6.519
 2717POPC   C3B38133  11.634  41.428   6.916
 2717POPC   C4B38134  11.498  41.444   7.350
 2718POPC   NC338135  30.685  33.160   5.624
 2718POPC   PO438136  30.706  33.788   5.357
 2718POPC   GL138137  30.605  33.657   5.768
 2718POPC   GL238138  30.467  33.977   5.830
 2718POPC   C1A38139  30.754  33.754   6.195
 2718POPC   D2A38140  30.877  33.928   6.582
 2718POPC   C3A38141  30.891  33.671   6.941
 2718POPC   C4A38142  31.106  33.805   7.309
 2718POPC   C1B38143  30.463  34.177   6.246
 2718POPC   C2B38144  30.395  34.112   6.673
 2718POPC   C3B38145  30.651  34.144   7.024
 2718POPC   C4B38146  30.489  34.187   7.424
 2719POPC   NC338147  25.190   7.916   4.931
 2719POPC   PO438148  25.278   8.365   5.217
 2719POPC   GL138149  25.183   8.433   5.679
 2719POPC   GL238150  25.520   8.542   5.789
 2719POPC   C1A38151  25.138   8.495   6.157
 2719POPC   D2A38152  25.405   8.386   6.542
 2719POPC   C3A38153  25.321   8.217   6.988
 2719POPC   C4A38154  25.500   7.832   7.267
 2719POPC   C1B38155  25.550   8.799   6.170
 2719POPC   C2B38156  25.586   8.854   6.592
 2719POPC   C3B38157  25.709   8.566   6.938
 2719POPC   C4B38158  25.738   8.279   7.289
 2720POPC   NC338159  40.863  26.259   5.413
 2720POPC   PO438160  40.489  25.686   5.415
 2720POPC   GL138161  40.629  25.963   5.750
 2720POPC   GL238162  40.975  25.871   5.803
 2720POPC   C1A38163  40.654  25.972   6.201
 2720POPC   D2A38164  40.695  25.721   6.568
 2720POPC   C3A38165  40.863  25.902   6.923
 2720POPC   C4A38166  40.691  25.852   7.307
 2720POPC   C1B38167  41.082  26.227   6.070
 2720POPC   C2B38168  40.977  26.477   6.428
 2720POPC   C3B38169  41.059  26.421   6.857
 2720POPC   C4B38170  41.020  26.304   7.275
 2721POPC   NC338171  32.960   9.241   5.413
 2721POPC   PO438172  32.706   8.551   5.489
 2721POPC   GL138173  32.902   8.699   5.923
 2721POPC   GL238174  33.128   8.998   5.922
 2721POPC   C1A38175  32.959   8.904   6.390
 2721POPC   D2A38176  32.719   9.032   6.774
 2721POPC   C3A38177  32.632   8.681   7.026
 2721POPC   C4A38178  33.017   8.572   7.174
 2721POPC   C1B38179  33.370   8.662   6.165
 2721POPC   C2B38180  33.420   8.704   6.634
 2721POPC   C3B38181  33.232   9.008   6.947
 2721POPC   C4B38182  33.347   9.221   7.332
 2722POPC   NC338183  28.695  12.459   5.378
 2722POPC   PO438184  29.228  12.961   5.496
 2722POPC   GL138185  29.105  12.823   5.885
 2722POPC   GL238186  28.893  12.544   5.860
 2722POPC   C1A38187  29.365  12.724   6.226
 2722POPC   D2A38188  29.587  12.961   6.518
 2722POPC   C3A38189  29.450  12.986   6.926
 2722POPC   C4A38190  29.296  12.860   7.333
 2722POPC   C1B38191  28.832  12.683   6.298
 2722POPC   C2B38192  29.060  12.847   6.626
 2722POPC   C3B38193  28.895  12.877   7.016
 2722POPC   C4B38194  28.695  12.531   7.239
 2723POPC   NC338195   5.293  24.206   5.022
 2723POPC   PO438196   4.978  23.713   5.418
 2723POPC   GL138197   5.086  23.553   5.855
 2723POPC   GL238198   4.826  23.288   5.838
 2723POPC   C1A38199   5.323  23.518   6.274
 2723POPC   D2A38200   5.321  23.717   6.686
 2723POPC   C3A38201   5.126  23.644   7.102
 2723POPC   C4A38202   5.110  23.545   7.561
 2723POPC   C1B38203   4.842  23.358   6.266
 2723POPC   C2B38204   4.851  23.511   6.681
 2723POPC   C3B38205   4.669  23.425   7.093
 2723POPC   C4B38206   4.615  23.312   7.540
 2724POPC   NC338207  22.323  44.509   5.378
 2724POPC   PO438208  21.860  44.934   5.509
 2724POPC   GL138209  22.261  44.833   5.780
 2724POPC   GL238210  22.339  44.476   5.908
 2724POPC   C1A38211  22.312  44.905   6.211
 2724POPC   D2A38212  22.340  44.546   6.465
 2724POPC   C3A38213  22.388  44.571   6.908
 2724POPC   C4A38214  22.264  44.228   7.170
 2724POPC   C1B38215  21.927  44.567   6.105
 2724POPC   C2B38216  21.757  44.488   6.514
 2724POPC   C3B38217  21.871  44.510   6.961
 2724POPC   C4B38218  22.106  44.679   7.360
 2725POPC   NC338219  28.905  36.934   5.425
 2725POPC   PO438220  29.332  36.468   5.690
 2725POPC   GL138221  29.188  36.860   5.848
 2725POPC   GL238222  28.865  36.727   5.897
 2725POPC   C1A38223  28.974  37.132   6.183
 2725POPC   D2A38224  29.159  37.181   6.589
 2725POPC   C3A38225  28.993  37.082   6.964
 2725POPC   C4A38226  29.170  36.845   7.270
 2725POPC   C1B38227  29.089  36.603   6.308
 2725POPC   C2B38228  29.093  36.571   6.772
 2725POPC   C3B38229  28.771  36.622   7.075
 2725POPC   C4B38230  28.758  36.753   7.559
 2726POPC   NC338231  28.005   0.469   5.382
 2726POPC   PO438232  28.416   0.949   5.209
 2726POPC   GL138233  28.437   0.832   5.730
 2726POPC   GL238234  28.226   0.543   5.843
 2726POPC   C1A38235  28.689   0.826   6.206
 2726POPC   D2A38236  28.844   0.704   6.692
 2726POPC   C3A38237  28.518   0.620   7.035
 2726POPC   C4A38238  28.361   0.237   7.120
 2726POPC   C1B38239  28.191   0.708   6.247
 2726POPC   C2B38240  28.279   0.477   6.600
 2726POPC   C3B38241  27.979   0.468   6.894
 2726POPC   C4B38242  27.985   0.664   7.247
 2727POPC   NC338243  26.295  12.393   5.159
 2727POPC   PO438244  25.768  12.039   5.255
 2727POPC   GL138245  26.142  11.960   5.655
 2727POPC   GL238246  26.271  12.328   5.831
 2727POPC   C1A38247  26.093  11.934   6.122
 2727POPC   D2A38248  25.752  12.140   6.408
 2727POPC   C3A38249  25.844  12.165   6.855
 2727POPC   C4A38250  26.120  11.962   7.160
 2727POPC   C1B38251  26.239  12.412   6.284
 2727POPC   C2B38252  26.373  12.250   6.690
 2727POPC   C3B38253  26.259  12.448   7.088
 2727POPC   C4B38254  25.883  12.389   7.337
 2728POPC   NC338255   8.123  14.084   5.299
 2728POPC   PO438256   8.171  13.424   5.462
 2728POPC   GL138257   8.263  13.564   5.853
 2728POPC   GL238258   8.306  13.914   5.799
 2728POPC   C1A38259   8.035  13.444   6.240
 2728POPC   D2A38260   8.199  13.413   6.653
 2728POPC   C3A38261   8.040  13.325   7.078
 2728POPC   C4A38262   8.421  13.541   7.204
 2728POPC   C1B38263   8.191  13.937   6.229
 2728POPC   C2B38264   8.262  13.972   6.665
 2728POPC   C3B38265   8.005  13.819   6.957
 2728POPC   C4B38266   7.981  13.760   7.364
 2729POPC   NC338267  44.431  41.019   5.455
 2729POPC   PO438268  44.943  40.640   5.348
 2729POPC   GL138269  44.640  40.597   5.697
 2729POPC   GL238270  44.643  40.940   5.904
 2729POPC   C1A38271  44.418  40.537   6.099
 2729POPC   D2A38272  44.543  40.768   6.438
 2729POPC   C3A38273  44.572  40.638   6.852
 2729POPC   C4A38274  44.311  40.818   7.139
 2729POPC   C1B38275  44.961  41.010   6.237
 2729POPC   C2B38276  44.896  41.049   6.662
 2729POPC   C3B38277  44.778  41.065   7.070
 2729POPC   C4B38278   0.046  41.141   7.425
 2730POPC   NC338279  13.066  38.106   5.485
 2730POPC   PO438280  12.537  38.476   5.449
 2730POPC   GL138281  12.725  38.359   5.806
 2730POPC   GL238282  13.088  38.414   5.898
 2730POPC   C1A38283  12.649  38.470   6.208
 2730POPC   D2A38284  12.907  38.558   6.507
 2730POPC   C3A38285  12.775  38.428   6.903
 2730POPC   C4A38286  12.993  38.442   7.277
 2730POPC   C1B38287  13.128  38.105   6.244
 2730POPC   C2B38288  13.163  37.861   6.658
 2730POPC   C3B38289  13.095  37.954   7.122
 2730POPC   C4B38290  12.983  38.037   7.578
 2731POPC   NC338291  42.805   3.666   5.376
 2731POPC   PO438292  43.395   3.645   5.653
 2731POPC   GL138293  42.996   3.639   5.870
 2731POPC   GL238294  42.875   3.304   5.858
 2731POPC   C1A38295  42.801   3.741   6.307
 2731POPC   D2A38296  43.024   3.866   6.696
 2731POPC   C3A38297  43.046   3.632   7.111
 2731POPC   C4A38298  42.956   3.504   7.536
 2731POPC   C1B38299  43.139   3.361   6.256
 2731POPC   C2B38300  43.055   3.321   6.682
 2731POPC   C3B38301  43.311   3.178   7.015
 2731POPC   C4B38302  43.402   3.289   7.456
 2732POPC   NC338303  26.228   1.810   5.383
 2732POPC   PO438304  25.983   2.431   5.406
 2732POPC   GL138305  25.971   2.125   5.755
 2732POPC   GL238306  25.689   1.909   5.623
 2732POPC   C1A38307  26.173   1.947   6.184
 2732POPC   D2A38308  26.294   1.872   6.658
 2732POPC   C3A38309  26.035   2.070   6.996
 2732POPC   C4A38310  25.580   2.148   7.031
 2732POPC   C1B38311  25.662   1.888   6.095
 2732POPC   C2B38312  25.806   1.667   6.481
 2732POPC   C3B38313  25.995   1.385   6.803
 2732POPC   C4B38314  26.153   1.611   7.168
 2733POPC   NC338315  20.518  31.805   5.163
 2733POPC   PO438316  20.829  31.224   5.405
 2733POPC   GL138317  20.777  31.636   5.663
 2733POPC   GL238318  21.046  31.487   5.849
 2733POPC   C1A38319  20.642  31.791   6.116
 2733POPC   D2A38320  20.393  31.615   6.481
 2733POPC   C3A38321  20.497  31.641   6.923
 2733POPC   C4A38322  20.443  31.364   7.250
 2733POPC   C1B38323  20.900  31.389   6.259
 2733POPC   C2B38324  20.921  31.624   6.644
 2733POPC   C3B38325  21.012  31.565   7.082
 2733POPC   C4B38326  20.758  31.721   7.419
 2734POPC   NC338327  24.522  26.163   5.195
 2734POPC   PO438328  25.034  26.207   5.627
 2734POPC   GL138329  24.695  26.027   5.832
 2734POPC   GL238330  24.542  25.708   5.750
 2734POPC   C1A38331  24.580  26.069   6.241
 2734POPC   D2A38332  24.782  25.984   6.601
 2734POPC   C3A38333  24.464  25.908   6.874
 2734POPC   C4A38334  24.366  26.163   7.204
 2734POPC   C1B38335  24.568  25.553   6.166
 2734POPC   C2B38336  24.768  25.463   6.560
 2734POPC   C3B38337  24.669  25.448   6.997
 2734POPC   C4B38338  24.672  25.758   7.323
 2735POPC   NC338339  27.149  36.239   5.394
 2735POPC   PO438340  26.530  36.387   5.408
 2735POPC   GL138341  26.751  36.204   5.772
 2735POPC   GL238342  27.066  36.301   5.911
 2735POPC   C1A38343  26.710  35.996   6.196
 2735POPC   D2A38344  26.607  36.069   6.663
 2735POPC   C3A38345  26.768  35.990   7.089
 2735POPC   C4A38346  26.699  36.202   7.471
 2735POPC   C1B38347  27.042  36.322   6.380
 2735POPC   C2B38348  27.079  36.301   6.838
 2735POPC   C3B38349  26.992  36.512   7.204
 2735POPC   C4B38350  27.060  36.488   7.685
 2736POPC   NC338351  32.394   7.039   5.470
 2736POPC   PO438352  32.506   6.369   5.357
 2736POPC   GL138353  32.648   6.575   5.723
 2736POPC   GL238354  32.320   6.644   5.838
 2736POPC   C1A38355  32.665   6.459   6.168
 2736POPC   D2A38356  32.351   6.492   6.498
 2736POPC   C3A38357  32.494   6.495   6.916
 2736POPC   C4A38358  32.338   6.476   7.323
 2736POPC   C1B38359  32.385   6.921   6.206
 2736POPC   C2B38360  32.115   6.955   6.608
 2736POPC   C3B38361  32.017   6.751   7.029
 2736POPC   C4B38362  32.071   6.882   7.486
 2737POPC   NC338363   5.000   6.268   5.427
 2737POPC   PO438364   5.596   5.911   5.487
 2737POPC   GL138365   5.296   6.018   5.789
 2737POPC   GL238366   5.050   5.808   5.635
 2737POPC   C1A38367   5.283   6.054   6.244
 2737POPC   D2A38368   5.436   6.001   6.682
 2737POPC   C3A38369   5.216   6.092   7.070
 2737POPC   C4A38370   5.178   5.712   7.299
 2737POPC   C1B38371   5.019   5.625   6.022
 2737POPC   C2B38372   4.995   5.673   6.465
 2737POPC   C3B38373   4.866   5.762   6.878
 2737POPC   C4B38374   4.729   5.508   7.196
 2738POPC   NC338375  17.208   6.944   5.029
 2738POPC   PO438376  16.786   6.572   5.492
 2738POPC   GL138377  16.814   6.733   5.899
 2738POPC   GL238378  16.568   6.989   5.749
 2738POPC   C1A38379  17.056   6.592   6.307
 2738POPC   D2A38380  17.076   6.722   6.774
 2738POPC   C3A38381  16.764   6.581   7.077
 2738POPC   C4A38382  16.307   6.498   6.997
 2738POPC   C1B38383  16.476   6.973   6.182
 2738POPC   C2B38384  16.654   7.001   6.619
 2738POPC   C3B38385  16.733   7.113   7.055
 2738POPC   C4B38386  16.464   6.929   7.363
 2739POPC   NC338387  42.768  15.284   5.280
 2739POPC   PO438388  42.155  15.309   5.391
 2739POPC   GL138389  42.356  15.366   5.796
 2739POPC   GL238390  42.046  15.454   5.935
 2739POPC   C1A38391  42.385  15.207   6.242
 2739POPC   D2A38392  42.291  15.100   6.675
 2739POPC   C3A38393  42.535  15.214   7.039
 2739POPC   C4A38394  42.419  15.342   7.453
 2739POPC   C1B38395  42.234  15.688   6.288
 2739POPC   C2B38396  42.275  15.623   6.732
 2739POPC   C3B38397  42.073  15.463   7.094
 2739POPC   C4B38398  41.912  15.475   7.512
 2740POPC   NC338399  30.846  43.266   5.406
 2740POPC   PO438400  30.294  42.877   5.580
 2740POPC   GL138401  30.481  42.789   5.961
 2740POPC   GL238402  30.829  42.758   5.894
 2740POPC   C1A38403  30.570  43.049   6.359
 2740POPC   D2A38404  30.488  43.406   6.660
 2740POPC   C3A38405  30.365  43.225   7.044
 2740POPC   C4A38406  30.576  42.861   7.197
 2740POPC   C1B38407  31.054  42.989   6.239
 2740POPC   C2B38408  31.035  43.046   6.674
 2740POPC   C3B38409  31.050  42.791   7.017
 2740POPC   C4B38410  31.010  42.868   7.480
 2741POPC   NC338411   3.918  22.504   5.461
 2741POPC   PO438412   3.609  21.904   5.646
 2741POPC   GL138413   3.726  22.232   5.867
 2741POPC   GL238414   3.470  22.435   5.752
 2741POPC   C1A38415   3.876  22.275   6.262
 2741POPC   D2A38416   4.028  22.388   6.642
 2741POPC   C3A38417   3.704  22.366   6.957
 2741POPC   C4A38418   3.723  22.158   7.353
 2741POPC   C1B38419   3.348  22.452   6.162
 2741POPC   C2B38420   3.431  22.202   6.526
 2741POPC   C3B38421   3.180  22.167   6.869
 2741POPC   C4B38422   3.234  22.203   7.268
 2742POPC   NC338423  20.061  43.873   5.139
 2742POPC   PO438424  19.761  44.294   5.498
 2742POPC   GL138425  19.954  43.940   5.733
 2742POPC   GL238426  19.667  43.796   5.904
 2742POPC   C1A38427  20.081  43.945   6.185
 2742POPC   D2A38428  19.810  44.075   6.547
 2742POPC   C3A38429  19.966  44.020   6.992
 2742POPC   C4A38430  19.751  44.016   7.406
 2742POPC   C1B38431  19.354  43.614   6.230
 2742POPC   C2B38432  19.294  43.811   6.652
 2742POPC   C3B38433  19.500  43.801   7.018
 2742POPC   C4B38434  19.487  43.575   7.418
 2743POPC   NC338435  12.117   2.664   5.358
 2743POPC   PO438436  11.985   3.321   5.420
 2743POPC   GL138437  11.927   2.934   5.751
 2743POPC   GL238438  12.249   2.767   5.920
 2743POPC   C1A38439  11.842   2.762   6.209
 2743POPC   D2A38440  12.116   2.811   6.613
 2743POPC   C3A38441  11.867   2.838   7.010
 2743POPC   C4A38442  11.765   2.607   7.371
 2743POPC   C1B38443  12.531   2.628   6.310
 2743POPC   C2B38444  12.486   2.450   6.758
 2743POPC   C3B38445  12.362   2.720   7.141
 2743POPC   C4B38446  12.239   3.139   7.320
 2744POPC   NC338447  17.781  25.057   5.435
 2744POPC   PO438448  17.200  25.347   5.531
 2744POPC   GL138449  17.576  25.356   5.801
 2744POPC   GL238450  17.726  25.068   5.957
 2744POPC   C1A38451  17.682  25.522   6.175
 2744POPC   D2A38452  17.437  25.473   6.518
 2744POPC   C3A38453  17.658  25.345   6.848
 2744POPC   C4A38454  17.625  25.308   7.258
 2744POPC   C1B38455  17.884  25.109   6.359
 2744POPC   C2B38456  18.058  25.045   6.727
 2744POPC   C3B38457  17.744  24.851   6.970
 2744POPC   C4B38458  17.598  24.823   7.369
 2745POPC   NC338459  27.222  14.860   5.445
 2745POPC   PO438460  26.510  14.945   5.564
 2745POPC   GL138461  26.811  14.977   5.885
 2745POPC   GL238462  26.968  15.264   5.769
 2745POPC   C1A38463  26.860  14.940   6.339
 2745POPC   D2A38464  26.846  14.767   6.742
 2745POPC   C3A38465  26.872  15.018   7.134
 2745POPC   C4A38466  26.665  15.378   7.325
 2745POPC   C1B38467  27.045  15.388   6.223
 2745POPC   C2B38468  27.016  15.291   6.708
 2745POPC   C3B38469  27.152  15.462   7.148
 2745POPC   C4B38470  27.394  15.596   7.518
 2746POPC   NC338471  41.366   1.272   5.177
 2746POPC   PO438472  40.733   1.368   5.397
 2746POPC   GL138473  40.772   1.298   5.814
 2746POPC   GL238474  40.769   0.954   5.857
 2746POPC   C1A38475  41.018   1.320   6.201
 2746POPC   D2A38476  41.110   1.159   6.627
 2746POPC   C3A38477  40.859   1.318   6.986
 2746POPC   C4A38478  40.450   1.518   7.139
 2746POPC   C1B38479  40.954   0.806   6.275
 2746POPC   C2B38480  41.030   0.657   6.725
 2746POPC   C3B38481  40.889   0.793   7.140
 2746POPC   C4B38482  40.654   0.749   7.538
 2747POPC   NC338483  43.012  26.457   5.268
 2747POPC   PO438484  42.745  27.077   5.370
 2747POPC   GL138485  42.691  26.894   5.786
 2747POPC   GL238486  42.722  26.568   5.670
 2747POPC   C1A38487  42.847  26.888   6.234
 2747POPC   D2A38488  43.133  26.830   6.594
 2747POPC   C3A38489  43.059  26.892   7.053
 2747POPC   C4A38490  43.180  27.067   7.463
 2747POPC   C1B38491  42.751  26.394   6.092
 2747POPC   C2B38492  42.930  26.365   6.492
 2747POPC   C3B38493  43.202  26.388   6.851
 2747POPC   C4B38494  42.970  26.412   7.228
 2748POPC   NC338495   1.149  18.620   5.246
 2748POPC   PO438496   1.530  18.107   5.503
 2748POPC   GL138497   1.343  18.317   5.852
 2748POPC   GL238498   1.015  18.490   5.744
 2748POPC   C1A38499   1.434  18.333   6.289
 2748POPC   D2A38500   1.208  18.313   6.663
 2748POPC   C3A38501   1.344  18.235   7.057
 2748POPC   C4A38502   1.386  18.098   7.471
 2748POPC   C1B38503   0.832  18.488   6.168
 2748POPC   C2B38504   0.889  18.683   6.591
 2748POPC   C3B38505   0.770  18.554   6.977
 2748POPC   C4B38506   0.982  18.465   7.352
 2749POPC   NC338507  15.271  22.237   5.489
 2749POPC   PO438508  14.959  22.522   5.979
 2749POPC   GL138509  15.095  22.119   6.072
 2749POPC   GL238510  15.372  21.957   5.923
 2749POPC   C1A38511  15.166  21.986   6.500
 2749POPC   D2A38512  15.377  22.245   6.799
 2749POPC   C3A38513  15.209  22.322   7.171
 2749POPC   C4A38514  14.830  22.131   7.234
 2749POPC   C1B38515  15.638  21.936   6.297
 2749POPC   C2B38516  15.576  21.774   6.734
 2749POPC   C3B38517  15.243  21.802   7.058
 2749POPC   C4B38518  15.262  21.937   7.507
 2750POPC   NC338519  18.355  17.546   5.320
 2750POPC   PO438520  18.493  16.932   5.405
 2750POPC   GL138521  18.471  17.255   5.745
 2750POPC   GL238522  18.156  17.431   5.797
 2750POPC   C1A38523  18.545  17.498   6.160
 2750POPC   D2A38524  18.492  17.351   6.601
 2750POPC   C3A38525  18.495  17.625   6.994
 2750POPC   C4A38526  18.555  17.686   7.466
 2750POPC   C1B38527  18.053  17.399   6.270
 2750POPC   C2B38528  18.052  17.637   6.667
 2750POPC   C3B38529  17.995  17.584   7.116
 2750POPC   C4B38530  17.775  17.243   7.320
 2751POPC   NC338531  41.173  43.826   5.550
 2751POPC   PO438532  41.718  43.470   5.542
 2751POPC   GL138533  41.573  43.740   5.910
 2751POPC   GL238534  41.299  44.025   5.991
 2751POPC   C1A38535  41.675  43.951   6.309
 2751POPC   D2A38536  41.949  44.022   6.677
 2751POPC   C3A38537  41.699  43.932   7.030
 2751POPC   C4A38538  41.361  44.122   7.192
 2751POPC   C1B38539  41.200  43.675   6.245
 2751POPC   C2B38540  41.367  43.605   6.652
 2751POPC   C3B38541  41.146  43.666   7.049
 2751POPC   C4B38542  41.333  43.663   7.445
 2752POPC   NC338543  25.829  12.330   5.610
 2752POPC   PO438544  25.973  12.999   5.446
 2752POPC   GL138545  26.077  12.823   5.865
 2752POPC   GL238546  25.821  12.607   6.037
 2752POPC   C1A38547  26.324  12.937   6.263
 2752POPC   D2A38548  26.316  12.787   6.703
 2752POPC   C3A38549  26.286  13.077   7.096
 2752POPC   C4A38550  26.224  13.180   7.565
 2752POPC   C1B38551  25.826  12.988   6.290
 2752POPC   C2B38552  25.905  13.119   6.690
 2752POPC   C3B38553  25.881  12.796   6.986
 2752POPC   C4B38554  25.871  12.875   7.410
 2753POPC   NC338555  30.097   3.211   5.188
 2753POPC   PO438556  29.767   3.745   5.278
 2753POPC   GL138557  29.983   3.623   5.707
 2753POPC   GL238558  29.985   3.262   5.778
 2753POPC   C1A38559  29.833   3.597   6.164
 2753POPC   D2A38560  29.790   3.359   6.561
 2753POPC   C3A38561  29.666   3.606   6.917
 2753POPC   C4A38562  29.676   3.397   7.265
 2753POPC   C1B38563  30.242   3.295   6.148
 2753POPC   C2B38564  30.289   3.484   6.534
 2753POPC   C3B38565  30.141   3.472   6.939
 2753POPC   C4B38566  30.256   3.488   7.343
 2754POPC   NC338567  30.346   9.029   5.534
 2754POPC   PO438568  31.041   8.783   5.430
 2754POPC   GL138569  30.783   8.827   5.802
 2754POPC   GL238570  30.500   8.595   5.850
 2754POPC   C1A38571  30.615   9.055   6.175
 2754POPC   D2A38572  30.246   9.130   6.422
 2754POPC   C3A38573  30.385   9.103   6.831
 2754POPC   C4A38574  30.362   9.010   7.226
 2754POPC   C1B38575  30.681   8.556   6.250
 2754POPC   C2B38576  30.546   8.629   6.648
 2754POPC   C3B38577  30.677   8.643   7.045
 2754POPC   C4B38578  30.952   8.594   7.346
 2755POPC   NC338579  24.692  24.701   5.209
 2755POPC   PO438580  24.200  24.326   5.279
 2755POPC   GL138581  24.357  24.473   5.687
 2755POPC   GL238582  24.648  24.670   5.727
 2755POPC   C1A38583  24.328  24.636   6.113
 2755POPC   D2A38584  24.442  24.530   6.549
 2755POPC   C3A38585  24.328  24.833   6.870
 2755POPC   C4A38586  24.314  24.914   7.314
 2755POPC   C1B38587  24.771  24.398   6.105
 2755POPC   C2B38588  24.916  24.296   6.536
 2755POPC   C3B38589  24.744  24.208   6.920
 2755POPC   C4B38590  24.574  24.499   7.179
 2756POPC   NC338591  29.685  32.815   5.392
 2756POPC   PO438592  30.363  33.110   5.301
 2756POPC   GL138593  30.058  33.051   5.683
 2756POPC   GL238594  29.832  33.341   5.582
 2756POPC   C1A38595  29.897  32.921   6.178
 2756POPC   D2A38596  29.588  32.965   6.583
 2756POPC   C3A38597  29.713  32.918   7.038
 2756POPC   C4A38598  30.107  32.794   7.210
 2756POPC   C1B38599  29.885  33.403   6.017
 2756POPC   C2B38600  29.975  33.346   6.452
 2756POPC   C3B38601  29.901  33.378   6.878
 2756POPC   C4B38602  30.058  33.317   7.277
 2757POPC   NC338603  11.658  33.924   5.460
 2757POPC   PO438604  11.139  33.475   5.428
 2757POPC   GL138605  11.191  33.652   5.850
 2757POPC   GL238606  11.294  34.007   5.847
 2757POPC   C1A38607  10.941  33.655   6.253
 2757POPC   D2A38608  10.970  33.504   6.687
 2757POPC   C3A38609  11.228  33.735   6.965
 2757POPC   C4A38610  11.215  33.602   7.370
 2757POPC   C1B38611  11.389  33.891   6.279
 2757POPC   C2B38612  11.597  33.918   6.656
 2757POPC   C3B38613  11.629  34.142   7.024
 2757POPC   C4B38614  11.306  34.116   7.295
 2758POPC   NC338615  24.849  41.600   5.328
 2758POPC   PO438616  24.199  41.554   5.144
 2758POPC   GL138617  24.257  41.514   5.643
 2758POPC   GL238618  24.608  41.541   5.783
 2758POPC   C1A38619  24.232  41.444   6.118
 2758POPC   D2A38620  24.388  41.634   6.504
 2758POPC   C3A38621  24.221  41.754   6.904
 2758POPC   C4A38622  24.415  41.780   7.308
 2758POPC   C1B38623  24.753  41.303   6.164
 2758POPC   C2B38624  24.851  41.423   6.594
 2758POPC   C3B38625  24.722  41.509   7.002
 2758POPC   C4B38626  24.909  41.362   7.397
 2759POPC   NC338627  29.499  18.046   5.132
 2759POPC   PO438628  29.726  18.567   5.548
 2759POPC   GL138629  30.015  18.440   5.841
 2759POPC   GL238630  30.157  18.093   5.844
 2759POPC   C1A38631  29.976  18.361   6.268
 2759POPC   D2A38632  30.058  18.212   6.666
 2759POPC   C3A38633  29.851  18.350   7.064
 2759POPC   C4A38634  29.511  18.179   7.351
 2759POPC   C1B38635  30.308  17.867   6.230
 2759POPC   C2B38636  30.416  17.818   6.693
 2759POPC   C3B38637  30.162  17.913   7.062
 2759POPC   C4B38638  30.067  18.155   7.491
 2760POPC   NC338639  30.301   6.715   5.428
 2760POPC   PO438640  29.702   6.430   5.337
 2760POPC   GL138641  29.896   6.604   5.715
 2760POPC   GL238642  29.907   6.343   5.932
 2760POPC   C1A38643  30.096   6.770   6.105
 2760POPC   D2A38644  30.131   6.920   6.548
 2760POPC   C3A38645  29.818   6.688   6.844
 2760POPC   C4A38646  29.788   6.404   7.190
 2760POPC   C1B38647  30.177   6.216   6.243
 2760POPC   C2B38648  30.196   6.419   6.630
 2760POPC   C3B38649  30.299   6.704   6.994
 2760POPC   C4B38650  30.286   6.445   7.277
 2761POPC   NC338651   0.833   2.202   5.511
 2761POPC   PO438652   0.235   1.771   5.499
 2761POPC   GL138653   0.402   1.917   5.887
 2761POPC   GL238654   0.777   1.896   5.928
 2761POPC   C1A38655   0.511   2.186   6.254
 2761POPC   D2A38656   0.264   2.331   6.600
 2761POPC   C3A38657   0.357   2.047   6.910
 2761POPC   C4A38658   0.484   2.181   7.291
 2761POPC   C1B38659   0.601   1.634   6.246
 2761POPC   C2B38660   0.499   1.584   6.680
 2761POPC   C3B38661   0.737   1.721   7.050
 2761POPC   C4B38662   0.828   1.857   7.477
 2762POPC   NC338663   0.601  32.617   5.333
 2762POPC   PO438664  44.997  32.515   5.533
 2762POPC   GL138665   0.290  32.289   5.823
 2762POPC   GL238666   0.593  32.114   5.723
 2762POPC   C1A38667   0.515  32.368   6.224
 2762POPC   D2A38668   0.587  32.686   6.548
 2762POPC   C3A38669   0.631  32.498   6.966
 2762POPC   C4A38670   0.310  32.250   7.179
 2762POPC   C1B38671   0.719  31.921   6.156
 2762POPC   C2B38672   0.825  32.099   6.566
 2762POPC   C3B38673   0.658  31.960   6.952
 2762POPC   C4B38674   0.722  32.012   7.401
 2763POPC   NC338675  42.626  32.276   5.441
 2763POPC   PO438676  42.039  32.438   5.114
 2763POPC   GL138677  42.216  32.542   5.627
 2763POPC   GL238678  42.569  32.535   5.870
 2763POPC   C1A38679  42.128  32.452   6.101
 2763POPC   D2A38680  42.023  32.478   6.558
 2763POPC   C3A38681  42.307  32.368   6.934
 2763POPC   C4A38682  42.353  31.994   7.205
 2763POPC   C1B38683  42.586  32.582   6.342
 2763POPC   C2B38684  42.751  32.285   6.676
 2763POPC   C3B38685  42.794  32.218   7.116
 2763POPC   C4B38686  42.551  32.377   7.485
 2764POPC   NC338687  20.026  24.690   5.130
 2764POPC   PO438688  19.636  24.266   5.430
 2764POPC   GL138689  19.919  24.467   5.690
 2764POPC   GL238690  19.626  24.598   5.827
 2764POPC   C1A38691  20.059  24.526   6.128
 2764POPC   D2A38692  19.877  24.613   6.549
 2764POPC   C3A38693  20.091  24.547   6.945
 2764POPC   C4A38694  20.109  24.912   7.220
 2764POPC   C1B38695  19.562  24.374   6.210
 2764POPC   C2B38696  19.458  24.326   6.652
 2764POPC   C3B38697  19.622  24.320   7.084
 2764POPC   C4B38698  19.827  24.093   7.461
 2765POPC   NC338699  13.528  38.225   4.805
 2765POPC   PO438700  13.515  38.277   5.499
 2765POPC   GL138701  13.640  38.468   5.928
 2765POPC   GL238702  13.962  38.702   5.952
 2765POPC   C1A38703  13.507  38.454   6.378
 2765POPC   D2A38704  13.281  38.343   6.770
 2765POPC   C3A38705  13.399  38.641   7.053
 2765POPC   C4A38706  13.715  38.545   7.306
 2765POPC   C1B38707  13.940  38.838   6.407
 2765POPC   C2B38708  13.899  38.644   6.832
 2765POPC   C3B38709  14.177  38.678   7.220
 2765POPC   C4B38710  13.980  38.803   7.638
 2766POPC   NC338711   1.699   8.111   4.913
 2766POPC   PO438712   2.163   8.190   5.391
 2766POPC   GL138713   2.043   8.015   5.760
 2766POPC   GL238714   1.895   8.280   5.915
 2766POPC   C1A38715   2.229   7.968   6.201
 2766POPC   D2A38716   2.264   8.222   6.579
 2766POPC   C3A38717   2.158   8.145   7.025
 2766POPC   C4A38718   2.170   8.373   7.416
 2766POPC   C1B38719   1.706   7.893   6.136
 2766POPC   C2B38720   1.544   7.868   6.549
 2766POPC   C3B38721   1.651   8.045   6.911
 2766POPC   C4B38722   1.716   8.203   7.311
 2767POPC   NC338723  37.708  30.529   5.383
 2767POPC   PO438724  37.189  31.022   5.410
 2767POPC   GL138725  37.442  30.785   5.749
 2767POPC   GL238726  37.857  30.738   5.816
 2767POPC   C1A38727  37.511  30.612   6.162
 2767POPC   D2A38728  37.618  30.857   6.520
 2767POPC   C3A38729  37.405  30.795   6.900
 2767POPC   C4A38730  37.586  30.698   7.288
 2767POPC   C1B38731  38.093  30.974   6.135
 2767POPC   C2B38732  38.135  31.094   6.559
 2767POPC   C3B38733  37.934  30.953   6.918
 2767POPC   C4B38734  37.830  31.173   7.251
 2768POPC   NC338735  41.019   4.815   5.414
 2768POPC   PO438736  40.630   5.402   5.362
 2768POPC   GL138737  40.742   5.170   5.699
 2768POPC   GL238738  40.452   5.252   5.833
 2768POPC   C1A38739  40.892   5.244   6.130
 2768POPC   D2A38740  40.914   4.945   6.489
 2768POPC   C3A38741  41.104   5.028   6.866
 2768POPC   C4A38742  41.137   5.171   7.265
 2768POPC   C1B38743  40.481   4.967   6.158
 2768POPC   C2B38744  40.513   5.276   6.485
 2768POPC   C3B38745  40.692   5.337   6.855
 2768POPC   C4B38746  40.645   5.061   7.179
 2769POPC   NC338747  29.610  40.405   5.399
 2769POPC   PO438748  29.131  40.944   5.406
 2769POPC   GL138749  28.950  40.746   5.774
 2769POPC   GL238750  29.275  40.828   5.948
 2769POPC   C1A38751  28.849  40.827   6.213
 2769POPC   D2A38752  29.223  40.844   6.506
 2769POPC   C3A38753  29.110  40.682   6.909
 2769POPC   C4A38754  28.818  40.834   7.208
 2769POPC   C1B38755  29.195  40.448   6.159
 2769POPC   C2B38756  29.262  40.316   6.562
 2769POPC   C3B38757  29.518  40.326   6.904
 2769POPC   C4B38758  29.470  40.584   7.268
 2770POPC   NC338759  39.601   4.659   5.324
 2770POPC   PO438760  40.292   4.627   5.431
 2770POPC   GL138761  40.381   4.502   5.857
 2770POPC   GL238762  40.039   4.393   5.955
 2770POPC   C1A38763  40.387   4.478   6.298
 2770POPC   D2A38764  40.127   4.374   6.605
 2770POPC   C3A38765  40.260   4.259   6.988
 2770POPC   C4A38766  39.873   4.369   7.190
 2770POPC   C1B38767  40.146   4.020   6.236
 2770POPC   C2B38768  40.053   3.865   6.689
 2770POPC   C3B38769  39.978   3.865   7.161
 2770POPC   C4B38770  39.871   3.847   7.625
 2771POPC   NC338771  18.448  33.204   5.385
 2771POPC   PO438772  17.809  33.132   5.628
 2771POPC   GL138773  18.064  33.004   5.948
 2771POPC   GL238774  18.405  33.101   5.876
 2771POPC   C1A38775  17.978  32.917   6.373
 2771POPC   D2A38776  18.219  32.808   6.708
 2771POPC   C3A38777  18.056  33.005   7.062
 2771POPC   C4A38778  17.974  32.730   7.395
 2771POPC   C1B38779  18.519  32.950   6.277
 2771POPC   C2B38780  18.727  32.779   6.633
 2771POPC   C3B38781  18.609  33.031   6.977
 2771POPC   C4B38782  18.445  32.896   7.377
 2772POPC   NC338783  38.685  19.982   5.614
 2772POPC   PO438784  38.255  19.529   5.553
 2772POPC   GL138785  38.362  19.718   5.915
 2772POPC   GL238786  38.290  20.084   5.914
 2772POPC   C1A38787  38.229  19.691   6.319
 2772POPC   D2A38788  38.354  19.443   6.643
 2772POPC   C3A38789  38.235  19.647   6.997
 2772POPC   C4A38790  38.505  19.738   7.312
 2772POPC   C1B38791  38.574  20.071   6.275
 2772POPC   C2B38792  38.593  19.918   6.671
 2772POPC   C3B38793  38.710  20.092   7.032
 2772POPC   C4B38794  38.377  20.220   7.325
 2773POPC   NC338795  38.907  29.304   5.326
 2773POPC   PO438796  39.440  28.885   5.436
 2773POPC   GL138797  39.152  28.968   5.786
 2773POPC   GL238798  39.175  29.328   5.806
 2773POPC   C1A38799  39.217  29.083   6.241
 2773POPC   D2A38800  39.290  29.102   6.662
 2773POPC   C3A38801  39.472  29.022   7.031
 2773POPC   C4A38802  39.208  29.067   7.384
 2773POPC   C1B38803  38.918  29.490   6.192
 2773POPC   C2B38804  38.829  29.312   6.628
 2773POPC   C3B38805  39.056  29.426   7.011
 2773POPC   C4B38806  39.006  29.557   7.445
 2774POPC   NC338807  40.840  31.888   5.406
 2774POPC   PO438808  40.632  32.567   5.284
 2774POPC   GL138809  40.707  32.442   5.730
 2774POPC   GL238810  40.587  32.123   5.800
 2774POPC   C1A38811  40.944  32.335   6.132
 2774POPC   D2A38812  41.046  32.355   6.578
 2774POPC   C3A38813  40.855  32.401   7.027
 2774POPC   C4A38814  41.058  32.237   7.416
 2774POPC   C1B38815  40.432  32.354   6.168
 2774POPC   C2B38816  40.534  32.545   6.590
 2774POPC   C3B38817  40.302  32.501   7.004
 2774POPC   C4B38818  40.406  32.540   7.419
 2775POPC   NC338819   0.352  40.602   5.164
 2775POPC   PO438820   0.206  39.894   5.303
 2775POPC   GL138821   0.424  40.039   5.699
 2775POPC   GL238822   0.178  40.242   5.813
 2775POPC   C1A38823   0.643  39.825   6.072
 2775POPC   D2A38824   0.471  39.721   6.484
 2775POPC   C3A38825   0.612  39.692   6.925
 2775POPC   C4A38826   0.425  39.804   7.334
 2775POPC   C1B38827   0.201  40.084   6.245
 2775POPC   C2B38828   0.337  40.157   6.706
 2775POPC   C3B38829   0.202  40.234   7.143
 2775POPC   C4B38830   0.359  40.272   7.593
 2776POPC   NC338831  43.553  30.890   5.044
 2776POPC   PO438832  43.988  30.603   5.530
 2776POPC   GL138833  43.872  30.758   5.893
 2776POPC   GL238834  44.212  30.826   5.978
 2776POPC   C1A38835  43.686  30.647   6.266
 2776POPC   D2A38836  43.836  30.561   6.660
 2776POPC   C3A38837  43.667  30.606   7.069
 2776POPC   C4A38838  43.921  30.500   7.435
 2776POPC   C1B38839  44.235  31.073   6.335
 2776POPC   C2B38840  44.325  31.021   6.754
 2776POPC   C3B38841  44.096  30.915   7.087
 2776POPC   C4B38842  43.949  31.206   7.351
 2777POPC   NC338843  40.560  28.568   5.396
 2777POPC   PO438844  41.225  28.351   5.321
 2777POPC   GL138845  40.927  28.347   5.675
 2777POPC   GL238846  40.932  28.062   5.884
 2777POPC   C1A38847  40.750  28.501   6.080
 2777POPC   D2A38848  40.435  28.352   6.404
 2777POPC   C3A38849  40.615  28.317   6.831
 2777POPC   C4A38850  40.848  28.405   7.194
 2777POPC   C1B38851  41.110  28.156   6.278
 2777POPC   C2B38852  41.113  28.376   6.657
 2777POPC   C3B38853  41.252  28.164   7.014
 2777POPC   C4B38854  41.089  28.019   7.438
 2778POPC   NC338855  33.603  33.694   5.405
 2778POPC   PO438856  34.192  33.940   5.447
 2778POPC   GL138857  33.901  33.926   5.791
 2778POPC   GL238858  33.626  34.163   5.824
 2778POPC   C1A38859  33.681  33.732   6.162
 2778POPC   D2A38860  33.675  33.422   6.522
 2778POPC   C3A38861  33.915  33.576   6.890
 2778POPC   C4A38862  33.664  33.646   7.243
 2778POPC   C1B38863  33.436  34.242   6.213
 2778POPC   C2B38864  33.510  34.057   6.631
 2778POPC   C3B38865  33.766  34.091   7.029
 2778POPC   C4B38866  33.719  34.068   7.511
 2779POPC   NC338867  20.312  44.279   5.590
 2779POPC   PO438868  20.638  43.674   5.422
 2779POPC   GL138869  20.511  43.846   5.838
 2779POPC   GL238870  20.762  44.020   5.880
 2779POPC   C1A38871  20.655  43.734   6.280
 2779POPC   D2A38872  20.750  43.967   6.663
 2779POPC   C3A38873  20.588  43.868   7.065
 2779POPC   C4A38874  20.657  43.653   7.470
 2779POPC   C1B38875  20.519  44.240   6.251
 2779POPC   C2B38876  20.293  44.232   6.630
 2779POPC   C3B38877  20.405  44.335   7.050
 2779POPC   C4B38878  20.684  44.283   7.386
 2780POPC   NC338879  41.106   1.597   5.513
 2780POPC   PO438880  41.244   0.884   5.385
 2780POPC   GL138881  41.270   1.121   5.773
 2780POPC   GL238882  41.541   1.369   5.721
 2780POPC   C1A38883  41.436   1.019   6.216
 2780POPC   D2A38884  41.788   0.908   6.519
 2780POPC   C3A38885  41.719   1.079   6.951
 2780POPC   C4A38886  41.312   1.075   7.088
 2780POPC   C1B38887  41.768   1.415   6.142
 2780POPC   C2B38888  41.565   1.405   6.551
 2780POPC   C3B38889  41.342   1.561   6.899
 2780POPC   C4B38890  41.613   1.529   7.202
 2781POPC   NC338891  17.608  33.664   5.097
 2781POPC   PO438892  17.213  33.672   5.648
 2781POPC   GL138893  17.460  33.852   5.939
 2781POPC   GL238894  17.779  33.997   5.842
 2781POPC   C1A38895  17.369  33.775   6.318
 2781POPC   D2A38896  17.207  33.965   6.612
 2781POPC   C3A38897  17.345  33.745   6.944
 2781POPC   C4A38898  17.282  33.924   7.289
 2781POPC   C1B38899  17.874  33.814   6.242
 2781POPC   C2B38900  17.787  33.795   6.695
 2781POPC   C3B38901  17.849  33.882   7.149
 2781POPC   C4B38902  18.016  33.605   7.489
 2782POPC   NC338903  35.706  42.105   5.347
 2782POPC   PO438904  35.338  41.526   5.336
 2782POPC   GL138905  35.436  41.569   5.771
 2782POPC   GL238906  35.624  41.861   5.793
 2782POPC   C1A38907  35.308  41.463   6.180
 2782POPC   D2A38908  35.114  41.559   6.578
 2782POPC   C3A38909  35.380  41.431   6.891
 2782POPC   C4A38910  35.326  41.355   7.266
 2782POPC   C1B38911  35.754  41.735   6.201
 2782POPC   C2B38912  35.563  41.841   6.582
 2782POPC   C3B38913  35.462  41.942   6.995
 2782POPC   C4B38914  35.709  41.714   7.286
 2783POPC   NC338915   8.254  30.098   5.319
 2783POPC   PO438916   7.703  29.802   5.305
 2783POPC   GL138917   8.057  29.789   5.672
 2783POPC   GL238918   8.120  30.117   5.857
 2783POPC   C1A38919   8.227  29.664   6.088
 2783POPC   D2A38920   7.949  29.650   6.460
 2783POPC   C3A38921   8.031  29.909   6.833
 2783POPC   C4A38922   8.369  29.778   7.097
 2783POPC   C1B38923   8.192  30.099   6.338
 2783POPC   C2B38924   8.481  30.111   6.699
 2783POPC   C3B38925   8.304  30.275   7.101
 2783POPC   C4B38926   7.937  30.175   7.373
 2784POPC   NC338927  26.435  27.676   5.519
 2784POPC   PO438928  27.068  27.425   5.365
 2784POPC   GL138929  26.904  27.531   5.783
 2784POPC   GL238930  27.161  27.269   5.875
 2784POPC   C1A38931  26.618  27.669   6.176
 2784POPC   D2A38932  26.455  27.834   6.583
 2784POPC   C3A38933  26.642  27.704   6.971
 2784POPC   C4A38934  26.889  27.580   7.318
 2784POPC   C1B38935  26.948  27.283   6.216
 2784POPC   C2B38936  26.890  27.457   6.582
 2784POPC   C3B38937  27.130  27.406   6.920
 2784POPC   C4B38938  27.069  27.099   7.208
 2785POPC   NC338939  37.605  18.851   5.514
 2785POPC   PO438940  38.002  19.164   5.175
 2785POPC   GL138941  38.000  19.112   5.677
 2785POPC   GL238942  37.686  19.276   5.884
 2785POPC   C1A38943  38.004  18.906   6.084
 2785POPC   D2A38944  37.818  19.083   6.447
 2785POPC   C3A38945  37.873  18.916   6.846
 2785POPC   C4A38946  37.835  19.280   7.080
 2785POPC   C1B38947  37.348  19.110   6.204
 2785POPC   C2B38948  37.370  18.843   6.611
 2785POPC   C3B38949  37.392  18.980   7.041
 2785POPC   C4B38950  37.368  18.869   7.491
 2786POPC   NC338951   4.194   2.391   5.372
 2786POPC   PO438952   4.373   1.760   5.357
 2786POPC   GL138953   4.326   2.002   5.715
 2786POPC   GL238954   4.657   2.008   5.843
 2786POPC   C1A38955   4.212   2.070   6.142
 2786POPC   D2A38956   4.334   1.896   6.525
 2786POPC   C3A38957   4.279   2.111   6.914
 2786POPC   C4A38958   4.196   2.013   7.317
 2786POPC   C1B38959   4.610   2.382   6.124
 2786POPC   C2B38960   4.534   2.405   6.569
 2786POPC   C3B38961   4.786   2.186   6.894
 2786POPC   C4B38962   4.688   2.010   7.272
 2787POPC   NC338963  44.086  27.751   5.437
 2787POPC   PO438964  43.411  27.766   5.586
 2787POPC   GL138965  43.553  27.766   5.949
 2787POPC   GL238966  43.903  27.694   5.914
 2787POPC   C1A38967  43.638  27.689   6.372
 2787POPC   D2A38968  43.858  27.847   6.701
 2787POPC   C3A38969  43.758  27.754   7.097
 2787POPC   C4A38970  43.482  27.432   7.270
 2787POPC   C1B38971  44.103  27.504   6.290
 2787POPC   C2B38972  44.305  27.616   6.674
 2787POPC   C3B38973  44.236  27.458   7.069
 2787POPC   C4B38974  43.958  27.319   7.346
 2788POPC   NC338975  22.529  41.353   5.408
 2788POPC   PO438976  22.976  41.862   5.317
 2788POPC   GL138977  23.027  41.677   5.789
 2788POPC   GL238978  22.741  41.538   5.839
 2788POPC   C1A38979  22.829  41.815   6.248
 2788POPC   D2A38980  22.698  41.739   6.665
 2788POPC   C3A38981  23.058  41.828   6.938
 2788POPC   C4A38982  22.963  42.144   7.198
 2788POPC   C1B38983  22.888  41.290   6.203
 2788POPC   C2B38984  22.970  41.325   6.641
 2788POPC   C3B38985  22.930  41.362   7.084
 2788POPC   C4B38986  22.702  41.327   7.484
 2789POPC   NC338987  12.992  17.843   5.429
 2789POPC   PO438988  12.421  17.612   5.745
 2789POPC   GL138989  12.845  17.414   5.803
 2789POPC   GL238990  13.137  17.644   5.867
 2789POPC   C1A38991  13.038  17.267   6.202
 2789POPC   D2A38992  12.919  17.481   6.568
 2789POPC   C3A38993  13.065  17.361   6.955
 2789POPC   C4A38994  12.796  17.487   7.252
 2789POPC   C1B38995  13.107  17.858   6.233
 2789POPC   C2B38996  13.265  17.850   6.635
 2789POPC   C3B38997  13.107  17.875   7.040
 2789POPC   C4B38998  13.200  17.720   7.412
 2790POPC   NC338999   1.182  32.825   5.375
 2790POPC   PO439000   1.658  33.353   5.335
 2790POPC   GL139001   1.393  33.163   5.704
 2790POPC   GL239002   1.045  33.141   5.741
 2790POPC   C1A39003   1.386  32.999   6.148
 2790POPC   D2A39004   1.554  33.060   6.578
 2790POPC   C3A39005   1.320  32.938   6.953
 2790POPC   C4A39006   1.510  32.980   7.344
 2790POPC   C1B39007   0.878  33.116   6.129
 2790POPC   C2B39008   0.990  33.016   6.544
 2790POPC   C3B39009   0.913  33.247   6.898
 2790POPC   C4B39010   1.087  33.273   7.292
 2791POPC   NC339011  31.558  16.354   5.437
 2791POPC   PO439012  31.199  15.829   5.442
 2791POPC   GL139013  31.371  16.015   5.803
 2791POPC   GL239014  31.762  16.040   5.785
 2791POPC   C1A39015  31.475  15.821   6.199
 2791POPC   D2A39016  31.365  15.654   6.582
 2791POPC   C3A39017  31.585  15.619   6.938
 2791POPC   C4A39018  31.492  15.924   7.225
 2791POPC   C1B39019  31.840  16.164   6.218
 2791POPC   C2B39020  31.736  16.067   6.652
 2791POPC   C3B39021  31.947  15.994   7.044
 2791POPC   C4B39022  31.946  15.611   7.314
 2792POPC   NC339023   0.517  14.892   5.186
 2792POPC   PO439024   0.283  14.382   5.228
 2792POPC   GL139025   0.376  14.195   5.673
 2792POPC   GL239026   0.716  14.273   5.816
 2792POPC   C1A39027   0.320  14.199   6.162
 2792POPC   D2A39028   0.324  14.499   6.538
 2792POPC   C3A39029   0.251  14.372   6.988
 2792POPC   C4A39030   0.388  14.383   7.446
 2792POPC   C1B39031   0.760  14.443   6.248
 2792POPC   C2B39032   0.736  14.207   6.645
 2792POPC   C3B39033   0.762  14.258   7.114
 2792POPC   C4B39034   0.899  14.436   7.542
 2793POPC   NC339035   3.049  41.730   5.244
 2793POPC   PO439036   2.458  41.665   5.509
 2793POPC   GL139037   2.622  41.438   5.799
 2793POPC   GL239038   2.379  41.202   5.817
 2793POPC   C1A39039   2.864  41.539   6.152
 2793POPC   D2A39040   2.738  41.841   6.435
 2793POPC   C3A39041   2.834  41.770   6.856
 2793POPC   C4A39042   2.557  41.788   7.221
 2793POPC   C1B39043   2.619  41.099   6.198
 2793POPC   C2B39044   2.810  41.262   6.580
 2793POPC   C3B39045   2.697  41.290   7.008
 2793POPC   C4B39046   2.995  41.491   7.258
 2794POPC   NC339047   3.016  18.307   5.268
 2794POPC   PO439048   2.480  18.286   5.757
 2794POPC   GL139049   2.693  18.573   5.956
 2794POPC   GL239050   2.992  18.520   5.782
 2794POPC   C1A39051   2.668  18.654   6.395
 2794POPC   D2A39052   2.409  18.782   6.758
 2794POPC   C3A39053   2.556  18.545   7.106
 2794POPC   C4A39054   2.655  18.132   7.093
 2794POPC   C1B39055   3.048  18.285   6.218
 2794POPC   C2B39056   3.047  18.283   6.694
 2794POPC   C3B39057   3.101  18.374   7.133
 2794POPC   C4B39058   3.260  18.412   7.540
 2795POPC   NC339059  23.609  43.586   5.437
 2795POPC   PO439060  23.363  44.247   5.523
 2795POPC   GL139061  23.670  44.013   5.842
 2795POPC   GL239062  23.879  43.682   5.858
 2795POPC   C1A39063  23.904  43.997   6.245
 2795POPC   D2A39064  23.962  43.729   6.622
 2795POPC   C3A39065  23.805  44.030   6.948
 2795POPC   C4A39066  23.466  44.009   7.259
 2795POPC   C1B39067  23.524  43.561   6.167
 2795POPC   C2B39068  23.338  43.479   6.604
 2795POPC   C3B39069  23.559  43.564   7.019
 2795POPC   C4B39070  24.029  43.608   7.134
 2796POPC   NC339071   7.393   2.511   5.621
 2796POPC   PO439072   7.217   3.052   5.181
 2796POPC   GL139073   7.285   3.038   5.682
 2796POPC   GL239074   7.636   2.945   5.806
 2796POPC   C1A39075   7.294   3.084   6.165
 2796POPC   D2A39076   7.356   2.810   6.519
 2796POPC   C3A39077   7.283   2.885   6.967
 2796POPC   C4A39078   7.263   2.995   7.429
 2796POPC   C1B39079   7.801   2.846   6.253
 2796POPC   C2B39080   7.799   2.910   6.742
 2796POPC   C3B39081   7.721   2.721   7.154
 2796POPC   C4B39082   7.440   2.541   7.458
 2797POPC   NC339083  33.977  15.802   5.450
 2797POPC   PO439084  33.365  15.473   5.523
 2797POPC   GL139085  33.583  15.766   5.766
 2797POPC   GL239086  33.793  15.503   5.870
 2797POPC   C1A39087  33.804  16.027   6.092
 2797POPC   D2A39088  33.736  16.186   6.512
 2797POPC   C3A39089  33.836  16.059   6.944
 2797POPC   C4A39090  33.803  16.268   7.335
 2797POPC   C1B39091  33.572  15.611   6.252
 2797POPC   C2B39092  33.640  15.676   6.650
 2797POPC   C3B39093  33.533  15.495   7.023
 2797POPC   C4B39094  33.781  15.500   7.391
 2798POPC   NC339095  42.852  37.905   5.481
 2798POPC   PO439096  42.181  37.867   5.353
 2798POPC   GL139097  42.434  37.698   5.717
 2798POPC   GL239098  42.418  37.342   5.767
 2798POPC   C1A39099  42.676  37.768   6.127
 2798POPC   D2A39100  42.778  37.924   6.564
 2798POPC   C3A39101  42.571  37.897   6.985
 2798POPC   C4A39102  42.782  37.793   7.373
 2798POPC   C1B39103  42.235  37.520   6.180
 2798POPC   C2B39104  42.177  37.726   6.629
 2798POPC   C3B39105  42.207  37.553   7.082
 2798POPC   C4B39106  42.549  37.344   7.335
 2799POPC   NC339107   0.138   8.494   5.129
 2799POPC   PO439108   0.440   9.113   5.379
 2799POPC   GL139109   0.530   8.808   5.746
 2799POPC   GL239110   0.860   8.701   5.813
 2799POPC   C1A39111   0.424   8.697   6.194
 2799POPC   D2A39112   0.387   8.892   6.631
 2799POPC   C3A39113   0.446   8.721   7.073
 2799POPC   C4A39114   0.201   8.865   7.464
 2799POPC   C1B39115   0.811   9.031   6.131
 2799POPC   C2B39116   0.881   9.069   6.579
 2799POPC   C3B39117   0.893   9.028   7.040
 2799POPC   C4B39118   0.962   8.616   7.166
 2800POPC   NC339119  14.021  31.540   5.391
 2800POPC   PO439120  14.639  31.296   5.375
 2800POPC   GL139121  14.488  31.196   5.806
 2800POPC   GL239122  14.141  31.348   5.891
 2800POPC   C1A39123  14.487  31.311   6.271
 2800POPC   D2A39124  14.406  31.358   6.735
 2800POPC   C3A39125  14.642  31.652   6.994
 2800POPC   C4A39126  14.590  31.648   7.442
 2800POPC   C1B39127  14.241  31.747   6.166
 2800POPC   C2B39128  14.323  31.862   6.630
 2800POPC   C3B39129  14.143  31.781   7.087
 2800POPC   C4B39130  14.074  31.973   7.545
 2801POPC   NC339131  18.934  37.072   5.474
 2801POPC   PO439132  19.459  36.741   5.439
 2801POPC   GL139133  19.172  36.792   5.822
 2801POPC   GL239134  19.156  37.123   5.928
 2801POPC   C1A39135  18.900  36.773   6.210
 2801POPC   D2A39136  18.670  36.733   6.573
 2801POPC   C3A39137  18.837  36.810   6.997
 2801POPC   C4A39138  18.964  36.711   7.417
 2801POPC   C1B39139  18.910  37.275   6.277
 2801POPC   C2B39140  18.764  37.233   6.698
 2801POPC   C3B39141  19.027  37.266   7.091
 2801POPC   C4B39142  19.038  37.225   7.531
 2802POPC   NC339143  29.411  22.715   5.402
 2802POPC   PO439144  29.955  23.153   5.351
 2802POPC   GL139145  29.968  22.851   5.728
 2802POPC   GL239146  29.659  22.710   5.848
 2802POPC   C1A39147  30.044  22.840   6.190
 2802POPC   D2A39148  30.215  22.917   6.606
 2802POPC   C3A39149  29.999  22.685   6.926
 2802POPC   C4A39150  29.796  22.597   7.298
 2802POPC   C1B39151  29.525  22.854   6.223
 2802POPC   C2B39152  29.675  22.969   6.624
 2802POPC   C3B39153  29.499  22.931   7.046
 2802POPC   C4B39154  29.564  23.005   7.510
 2803POPC   NC339155  25.335  44.527   5.257
 2803POPC   PO439156  25.543   0.198   5.291
 2803POPC   GL139157  25.390  44.848   5.640
 2803POPC   GL239158  25.030  44.792   5.692
 2803POPC   C1A39159  25.464  44.657   6.085
 2803POPC   D2A39160  25.652  44.691   6.528
 2803POPC   C3A39161  25.563  44.526   6.926
 2803POPC   C4A39162  25.424  44.775   7.279
 2803POPC   C1B39163  25.015  44.919   6.140
 2803POPC   C2B39164  24.956  44.795   6.555
 2803POPC   C3B39165  24.979  44.784   7.003
 2803POPC   C4B39166  25.133  44.385   7.170
 2804POPC   NC339167  40.774  42.701   5.271
 2804POPC   PO439168  41.033  42.086   5.378
 2804POPC   GL139169  41.066  42.286   5.779
 2804POPC   GL239170  40.755  42.456   5.742
 2804POPC   C1A39171  40.865  42.226   6.192
 2804POPC   D2A39172  40.554  42.304   6.527
 2804POPC   C3A39173  40.814  42.232   6.898
 2804POPC   C4A39174  40.724  42.106   7.302
 2804POPC   C1B39175  40.620  42.666   6.114
 2804POPC   C2B39176  40.774  42.753   6.535
 2804POPC   C3B39177  40.553  42.652   6.935
 2804POPC   C4B39178  40.471  42.529   7.350
 2805POPC   NC339179  27.942  36.074   5.467
 2805POPC   PO439180  27.314  35.802   5.419
 2805POPC   GL139181  27.523  36.103   5.762
 2805POPC   GL239182  27.743  36.412   5.822
 2805POPC   C1A39183  27.733  36.072   6.199
 2805POPC   D2A39184  27.501  36.199   6.576
 2805POPC   C3A39185  27.594  36.127   7.003
 2805POPC   C4A39186  27.657  35.785   7.245
 2805POPC   C1B39187  27.463  36.510   6.164
 2805POPC   C2B39188  27.341  36.689   6.578
 2805POPC   C3B39189  27.469  36.634   6.976
 2805POPC   C4B39190  27.472  36.485   7.350
 2806POPC   NC339191  43.775  29.346   5.273
 2806POPC   PO439192  44.289  28.993   5.281
 2806POPC   GL139193  44.106  29.142   5.705
 2806POPC   GL239194  43.905  29.440   5.765
 2806POPC   C1A39195  43.956  29.033   6.118
 2806POPC   D2A39196  44.062  29.220   6.528
 2806POPC   C3A39197  44.008  29.076   6.946
 2806POPC   C4A39198  43.625  29.181   7.123
 2806POPC   C1B39199  43.795  29.547   6.176
 2806POPC   C2B39200  43.706  29.737   6.558
 2806POPC   C3B39201  43.839  29.607   6.938
 2806POPC   C4B39202  43.945  29.522   7.366
 2807POPC   NC339203  15.919  37.150   5.204
 2807POPC   PO439204  16.121  36.643   5.554
 2807POPC   GL139205  15.817  36.771   5.829
 2807POPC   GL239206  15.786  37.125   5.772
 2807POPC   C1A39207  15.738  36.743   6.257
 2807POPC   D2A39208  15.491  36.562   6.558
 2807POPC   C3A39209  15.710  36.591   6.909
 2807POPC   C4A39210  15.897  36.912   7.162
 2807POPC   C1B39211  16.020  37.168   6.191
 2807POPC   C2B39212  16.086  37.062   6.660
 2807POPC   C3B39213  16.123  37.336   7.052
 2807POPC   C4B39214  16.169  37.189   7.517
 2808POPC   NC339215  35.535   5.234   5.467
 2808POPC   PO439216  34.959   4.811   5.523
 2808POPC   GL139217  35.191   5.077   5.797
 2808POPC   GL239218  35.472   4.880   5.859
 2808POPC   C1A39219  35.285   5.328   6.162
 2808POPC   D2A39220  35.001   5.353   6.510
 2808POPC   C3A39221  35.020   5.386   6.959
 2808POPC   C4A39222  35.236   5.205   7.294
 2808POPC   C1B39223  35.365   4.860   6.308
 2808POPC   C2B39224  35.561   5.106   6.654
 2808POPC   C3B39225  35.618   4.969   7.090
 2808POPC   C4B39226  35.529   4.565   7.309
 2809POPC   NC339227  20.625  16.207   5.566
 2809POPC   PO439228  20.718  16.723   5.206
 2809POPC   GL139229  20.631  16.679   5.721
 2809POPC   GL239230  20.330  16.854   5.793
 2809POPC   C1A39231  20.680  16.432   6.175
 2809POPC   D2A39232  20.379  16.495   6.530
 2809POPC   C3A39233  20.606  16.636   6.877
 2809POPC   C4A39234  20.653  16.743   7.280
 2809POPC   C1B39235  20.484  16.887   6.197
 2809POPC   C2B39236  20.396  17.017   6.603
 2809POPC   C3B39237  20.385  17.115   7.053
 2809POPC   C4B39238  20.446  17.207   7.509
 2810POPC   NC339239   0.011  21.617   5.279
 2810POPC   PO439240  44.631  21.096   5.589
 2810POPC   GL139241  44.548  21.288   5.955
 2810POPC   GL239242  44.389  21.599   5.858
 2810POPC   C1A39243  44.502  21.132   6.382
 2810POPC   D2A39244  44.217  21.136   6.743
 2810POPC   C3A39245  44.327  21.378   7.100
 2810POPC   C4A39246  44.612  21.255   7.349
 2810POPC   C1B39247  44.532  21.657   6.297
 2810POPC   C2B39248  44.544  21.561   6.690
 2810POPC   C3B39249  44.756  21.629   7.059
 2810POPC   C4B39250  44.610  21.767   7.489
 2811POPC   NC339251  30.857   7.673   5.408
 2811POPC   PO439252  30.428   7.102   5.193
 2811POPC   GL139253  30.526   7.157   5.655
 2811POPC   GL239254  30.626   7.504   5.811
 2811POPC   C1A39255  30.433   7.140   6.122
 2811POPC   D2A39256  30.641   7.197   6.527
 2811POPC   C3A39257  30.490   7.357   6.927
 2811POPC   C4A39258  30.251   7.273   7.296
 2811POPC   C1B39259  30.909   7.730   6.088
 2811POPC   C2B39260  30.787   7.675   6.496
 2811POPC   C3B39261  30.864   7.755   6.922
 2811POPC   C4B39262  30.885   7.474   7.260
 2812POPC   NC339263   9.322  35.043   5.405
 2812POPC   PO439264   8.647  35.416   5.336
 2812POPC   GL139265   8.828  35.147   5.697
 2812POPC   GL239266   9.144  35.286   5.808
 2812POPC   C1A39267   8.835  35.094   6.174
 2812POPC   D2A39268   8.803  35.375   6.530
 2812POPC   C3A39269   8.808  35.205   6.935
 2812POPC   C4A39270   9.066  35.181   7.296
 2812POPC   C1B39271   9.360  35.444   6.156
 2812POPC   C2B39272   9.266  35.657   6.529
 2812POPC   C3B39273   9.290  35.488   6.927
 2812POPC   C4B39274   9.218  35.664   7.327
 2813POPC   NC339275  11.057  15.664   5.498
 2813POPC   PO439276  11.367  16.276   5.438
 2813POPC   GL139277  11.192  16.068   5.811
 2813POPC   GL239278  11.360  15.754   5.890
 2813POPC   C1A39279  11.277  16.118   6.253
 2813POPC   D2A39280  11.554  16.234   6.551
 2813POPC   C3A39281  11.331  16.171   6.916
 2813POPC   C4A39282  11.174  16.199   7.324
 2813POPC   C1B39283  11.147  15.637   6.264
 2813POPC   C2B39284  11.390  15.723   6.657
 2813POPC   C3B39285  11.290  15.685   7.099
 2813POPC   C4B39286  10.927  15.384   7.097
 2814POPC   NC339287  14.169  16.481   5.311
 2814POPC   PO439288  14.338  17.143   5.561
 2814POPC   GL139289  14.530  16.855   5.830
 2814POPC   GL239290  14.508  16.508   5.718
 2814POPC   C1A39291  14.588  16.827   6.264
 2814POPC   D2A39292  14.406  16.809   6.664
 2814POPC   C3A39293  14.703  16.785   6.987
 2814POPC   C4A39294  14.773  17.034   7.333
 2814POPC   C1B39295  14.289  16.441   6.114
 2814POPC   C2B39296  14.077  16.454   6.521
 2814POPC   C3B39297  14.221  16.404   6.954
 2814POPC   C4B39298  13.967  16.442   7.275
 2815POPC   NC339299  30.103  16.402   5.544
 2815POPC   PO439300  29.623  16.947   5.575
 2815POPC   GL139301  29.742  16.611   5.837
 2815POPC   GL239302  30.085  16.780   5.901
 2815POPC   C1A39303  29.767  16.576   6.251
 2815POPC   D2A39304  29.963  16.879   6.488
 2815POPC   C3A39305  29.899  16.683   6.848
 2815POPC   C4A39306  29.778  16.530   7.213
 2815POPC   C1B39307  30.251  16.485   6.224
 2815POPC   C2B39308  30.167  16.312   6.620
 2815POPC   C3B39309  30.289  16.396   7.068
 2815POPC   C4B39310  30.536  16.577   7.408
 2816POPC   NC339311  39.039  31.689   5.322
 2816POPC   PO439312  39.571  31.258   5.414
 2816POPC   GL139313  39.308  31.451   5.739
 2816POPC   GL239314  39.051  31.235   5.811
 2816POPC   C1A39315  39.134  31.601   6.155
 2816POPC   D2A39316  39.276  31.760   6.544
 2816POPC   C3A39317  39.124  31.626   6.931
 2816POPC   C4A39318  39.021  31.571   7.362
 2816POPC   C1B39319  39.142  31.071   6.226
 2816POPC   C2B39320  39.107  31.105   6.667
 2816POPC   C3B39321  39.032  31.145   7.084
 2816POPC   C4B39322  38.737  31.138   7.387
 2817POPC   NC339323  10.612  13.841   5.515
 2817POPC   PO439324  10.806  13.148   5.488
 2817POPC   GL139325  10.544  13.406   5.808
 2817POPC   GL239326  10.186  13.341   5.878
 2817POPC   C1A39327  10.475  13.696   6.196
 2817POPC   D2A39328  10.517  13.934   6.607
 2817POPC   C3A39329  10.552  13.723   6.979
 2817POPC   C4A39330  10.602  13.343   7.169
 2817POPC   C1B39331  10.355  13.222   6.280
 2817POPC   C2B39332  10.368  13.336   6.696
 2817POPC   C3B39333  10.111  13.456   7.047
 2817POPC   C4B39334  10.163  13.259   7.478
 2818POPC   NC339335  17.805   4.518   5.313
 2818POPC   PO439336  17.227   4.134   5.502
 2818POPC   GL139337  17.426   4.210   5.875
 2818POPC   GL239338  17.623   4.459   5.806
 2818POPC   C1A39339  17.597   4.160   6.288
 2818POPC   D2A39340  17.398   3.922   6.633
 2818POPC   C3A39341  17.535   4.115   6.977
 2818POPC   C4A39342  17.681   4.129   7.371
 2818POPC   C1B39343  17.356   4.611   6.170
 2818POPC   C2B39344  17.478   4.577   6.595
 2818POPC   C3B39345  17.327   4.572   7.007
 2818POPC   C4B39346  17.537   4.596   7.434
 2819POPC   NC339347  41.716  39.053   5.615
 2819POPC   PO439348  41.155  39.088   5.438
 2819POPC   GL139349  41.307  39.267   5.844
 2819POPC   GL239350  41.620  39.486   5.915
 2819POPC   C1A39351  41.422  39.205   6.269
 2819POPC   D2A39352  41.191  39.336   6.604
 2819POPC   C3A39353  41.392  39.270   6.997
 2819POPC   C4A39354  41.447  39.416   7.418
 2819POPC   C1B39355  41.861  39.496   6.300
 2819POPC   C2B39356  41.801  39.206   6.651
 2819POPC   C3B39357  41.909  39.299   7.070
 2819POPC   C4B39358  41.816  39.708   7.218
 2820POPC   NC339359   9.198  10.980   5.515
 2820POPC   PO439360   9.053  11.625   5.376
 2820POPC   GL139361   8.923  11.387   5.783
 2820POPC   GL239362   8.598  11.195   5.769
 2820POPC   C1A39363   8.758  11.475   6.245
 2820POPC   D2A39364   8.815  11.634   6.700
 2820POPC   C3A39365   8.816  11.596   7.147
 2820POPC   C4A39366   8.941  11.273   7.512
 2820POPC   C1B39367   8.720  10.973   6.155
 2820POPC   C2B39368   8.727  11.112   6.618
 2820POPC   C3B39369   8.842  11.087   7.057
 2820POPC   C4B39370   8.593  10.943   7.416
 2821POPC   NC339371  26.152  26.710   5.396
 2821POPC   PO439372  25.556  26.550   5.197
 2821POPC   GL139373  25.743  26.662   5.688
 2821POPC   GL239374  26.096  26.861   5.868
 2821POPC   C1A39375  25.646  26.966   6.053
 2821POPC   D2A39376  25.982  27.080   6.372
 2821POPC   C3A39377  25.909  27.093   6.854
 2821POPC   C4A39378  25.693  26.978   7.259
 2821POPC   C1B39379  26.330  26.701   6.264
 2821POPC   C2B39380  26.309  26.798   6.711
 2821POPC   C3B39381  26.250  26.862   7.172
 2821POPC   C4B39382  26.355  26.709   7.588
 2822POPC   NC339383  30.368  13.756   5.242
 2822POPC   PO439384  30.931  13.410   5.548
 2822POPC   GL139385  30.757  13.704   5.829
 2822POPC   GL239386  30.390  13.803   5.765
 2822POPC   C1A39387  30.970  13.718   6.248
 2822POPC   D2A39388  31.084  13.388   6.572
 2822POPC   C3A39389  30.863  13.445   6.965
 2822POPC   C4A39390  30.907  13.581   7.381
 2822POPC   C1B39391  30.474  13.897   6.209
 2822POPC   C2B39392  30.579  13.670   6.592
 2822POPC   C3B39393  30.345  13.571   6.984
 2822POPC   C4B39394  30.406  13.752   7.372
 2823POPC   NC339395  26.310  25.680   5.164
 2823POPC   PO439396  25.913  26.186   5.508
 2823POPC   GL139397  25.913  26.109   5.919
 2823POPC   GL239398  26.190  26.359   5.918
 2823POPC   C1A39399  26.104  26.087   6.346
 2823POPC   D2A39400  26.463  26.022   6.632
 2823POPC   C3A39401  26.364  25.939   7.042
 2823POPC   C4A39402  25.954  25.910   7.195
 2823POPC   C1B39403  25.855  26.532   6.187
 2823POPC   C2B39404  25.727  26.502   6.598
 2823POPC   C3B39405  26.015  26.292   6.850
 2823POPC   C4B39406  26.124  26.376   7.265
 2824POPC   NC339407  36.815  41.087   5.443
 2824POPC   PO439408  37.440  40.737   5.441
 2824POPC   GL139409  37.122  40.821   5.789
 2824POPC   GL239410  36.755  40.710   5.782
 2824POPC   C1A39411  37.062  40.638   6.211
 2824POPC   D2A39412  37.087  40.490   6.637
 2824POPC   C3A39413  37.121  40.778   6.883
 2824POPC   C4A39414  36.977  40.781   7.232
 2824POPC   C1B39415  36.710  40.993   6.144
 2824POPC   C2B39416  36.694  40.826   6.543
 2824POPC   C3B39417  36.600  40.651   6.908
 2824POPC   C4B39418  36.467  40.819   7.276
 2825POPC   NC339419  43.200  38.551   5.484
 2825POPC   PO439420  43.399  37.908   5.398
 2825POPC   GL139421  43.360  38.151   5.791
 2825POPC   GL239422  43.037  38.117   5.901
 2825POPC   C1A39423  43.308  38.489   6.152
 2825POPC   D2A39424  43.347  38.823   6.495
 2825POPC   C3A39425  43.480  38.814   6.915
 2825POPC   C4A39426  43.105  38.705   7.116
 2825POPC   C1B39427  42.823  38.313   6.225
 2825POPC   C2B39428  43.002  38.438   6.592
 2825POPC   C3B39429  42.937  38.249   6.946
 2825POPC   C4B39430  42.987  38.250   7.344
 2826POPC   NC339431  37.434  25.976   5.001
 2826POPC   PO439432  37.996  26.112   5.382
 2826POPC   GL139433  37.694  26.239   5.713
 2826POPC   GL239434  37.519  25.941   5.822
 2826POPC   C1A39435  37.584  26.320   6.167
 2826POPC   D2A39436  37.753  26.276   6.598
 2826POPC   C3A39437  37.506  26.263   6.977
 2826POPC   C4A39438  37.532  26.360   7.409
 2826POPC   C1B39439  37.508  25.708   6.190
 2826POPC   C2B39440  37.700  25.747   6.575
 2826POPC   C3B39441  37.457  25.735   6.930
 2826POPC   C4B39442  37.555  25.859   7.347
 2827POPC   NC339443  29.441  44.540   5.473
 2827POPC   PO439444  29.353   0.168   5.193
 2827POPC   GL139445  29.197  44.941   5.652
 2827POPC   GL239446  29.417  44.826   5.918
 2827POPC   C1A39447  28.905  44.851   6.045
 2827POPC   D2A39448  28.796  44.631   6.477
 2827POPC   C3A39449  28.897  44.611   6.951
 2827POPC   C4A39450  28.897  44.589   7.457
 2827POPC   C1B39451  29.296  44.724   6.345
 2827POPC   C2B39452  29.283  44.861   6.750
 2827POPC   C3B39453  29.464  44.658   7.086
 2827POPC   C4B39454  29.688  44.898   7.314
 2828POPC   NC339455   4.064  21.799   5.615
 2828POPC   PO439456   4.381  22.401   5.506
 2828POPC   GL139457   4.254  22.202   5.892
 2828POPC   GL239458   4.589  22.068   5.927
 2828POPC   C1A39459   4.258  21.946   6.299
 2828POPC   D2A39460   4.452  22.039   6.694
 2828POPC   C3A39461   4.148  22.091   7.035
 2828POPC   C4A39462   4.139  22.467   7.283
 2828POPC   C1B39463   4.581  22.375   6.270
 2828POPC   C2B39464   4.496  22.570   6.668
 2828POPC   C3B39465   4.626  22.376   7.054
 2828POPC   C4B39466   4.589  21.923   7.208
 2829POPC   NC339467  36.687  14.767   5.512
 2829POPC   PO439468  36.792  15.425   5.408
 2829POPC   GL139469  36.980  15.338   5.799
 2829POPC   GL239470  36.972  14.988   5.860
 2829POPC   C1A39471  36.834  15.300   6.225
 2829POPC   D2A39472  36.905  15.063   6.594
 2829POPC   C3A39473  36.788  15.295   6.931
 2829POPC   C4A39474  36.916  15.272   7.334
 2829POPC   C1B39475  37.153  14.763   6.220
 2829POPC   C2B39476  37.228  14.652   6.652
 2829POPC   C3B39477  37.081  14.796   7.080
 2829POPC   C4B39478  37.147  14.795   7.524
 2830POPC   NC339479   4.910  43.326   5.326
 2830POPC   PO439480   5.550  43.080   5.273
 2830POPC   GL139481   5.304  43.137   5.704
 2830POPC   GL239482   4.951  43.007   5.741
 2830POPC   C1A39483   5.160  43.215   6.176
 2830POPC   D2A39484   5.078  43.045   6.616
 2830POPC   C3A39485   5.092  43.327   6.956
 2830POPC   C4A39486   5.427  43.363   7.243
 2830POPC   C1B39487   4.799  42.811   6.159
 2830POPC   C2B39488   4.906  42.571   6.552
 2830POPC   C3B39489   4.925  42.679   7.024
 2830POPC   C4B39490   4.929  43.028   7.323
 2831POPC   NC339491  15.542  10.713   5.298
 2831POPC   PO439492  14.924  10.988   5.494
 2831POPC   GL139493  15.091  11.173   5.854
 2831POPC   GL239494  15.347  11.406   5.789
 2831POPC   C1A39495  14.931  11.352   6.225
 2831POPC   D2A39496  14.914  11.180   6.640
 2831POPC   C3A39497  14.803  11.459   6.942
 2831POPC   C4A39498  15.177  11.486   7.213
 2831POPC   C1B39499  15.545  11.076   6.074
 2831POPC   C2B39500  15.492  10.936   6.511
 2831POPC   C3B39501  15.399  11.149   6.876
 2831POPC   C4B39502  15.478  11.082   7.292
 2832POPC   NC339503   2.714   6.974   5.429
 2832POPC   PO439504   2.974   7.550   5.164
 2832POPC   GL139505   2.954   7.510   5.654
 2832POPC   GL239506   2.677   7.283   5.849
 2832POPC   C1A39507   3.104   7.419   6.100
 2832POPC   D2A39508   2.894   7.064   6.340
 2832POPC   C3A39509   2.860   7.040   6.798
 2832POPC   C4A39510   2.714   7.302   7.150
 2832POPC   C1B39511   2.415   6.995   6.148
 2832POPC   C2B39512   2.359   6.958   6.623
 2832POPC   C3B39513   2.399   6.924   7.090
 2832POPC   C4B39514   2.493   6.739   7.499
 2833POPC   NC339515  36.011  16.984   5.048
 2833POPC   PO439516  35.779  16.883   5.646
 2833POPC   GL139517  35.780  16.787   6.049
 2833POPC   GL239518  36.115  16.735   6.018
 2833POPC   C1A39519  35.909  16.806   6.477
 2833POPC   D2A39520  36.181  16.968   6.768
 2833POPC   C3A39521  35.924  16.967   7.091
 2833POPC   C4A39522  35.940  16.638   7.324
 2833POPC   C1B39523  36.411  16.798   6.329
 2833POPC   C2B39524  36.608  16.630   6.673
 2833POPC   C3B39525  36.551  16.573   7.096
 2833POPC   C4B39526  36.405  16.921   7.275
 2834POPC   NC339527  39.104  15.228   5.360
 2834POPC   PO439528  39.573  15.556   5.678
 2834POPC   GL139529  39.256  15.264   5.856
 2834POPC   GL239530  39.109  14.919   5.796
 2834POPC   C1A39531  39.027  15.216   6.244
 2834POPC   D2A39532  39.128  15.466   6.604
 2834POPC   C3A39533  39.064  15.332   7.012
 2834POPC   C4A39534  39.310  15.326   7.372
 2834POPC   C1B39535  39.427  14.847   6.126
 2834POPC   C2B39536  39.375  14.964   6.555
 2834POPC   C3B39537  39.063  14.850   6.835
 2834POPC   C4B39538  39.299  14.853   7.187
 2835POPC   NC339539  17.385  29.990   5.518
 2835POPC   PO439540  18.004  29.698   5.503
 2835POPC   GL139541  17.744  29.810   5.855
 2835POPC   GL239542  17.551  30.127   5.976
 2835POPC   C1A39543  17.840  29.806   6.273
 2835POPC   D2A39544  17.670  29.976   6.627
 2835POPC   C3A39545  17.849  29.875   7.008
 2835POPC   C4A39546  17.671  29.869   7.405
 2835POPC   C1B39547  17.328  29.812   6.204
 2835POPC   C2B39548  17.230  29.735   6.625
 2835POPC   C3B39549  17.321  29.947   7.032
 2835POPC   C4B39550  17.167  29.777   7.443
 2836POPC   NC339551  23.876  13.384   5.584
 2836POPC   PO439552  23.534  13.944   5.448
 2836POPC   GL139553  23.388  13.883   5.884
 2836POPC   GL239554  23.503  13.541   5.923
 2836POPC   C1A39555  23.493  13.819   6.330
 2836POPC   D2A39556  23.883  13.840   6.526
 2836POPC   C3A39557  23.767  13.709   6.905
 2836POPC   C4A39558  23.585  13.779   7.254
 2836POPC   C1B39559  23.812  13.397   6.231
 2836POPC   C2B39560  23.999  13.343   6.631
 2836POPC   C3B39561  24.118  13.380   7.032
 2836POPC   C4B39562  23.785  13.299   7.344
 2837POPC   NC339563   7.965  32.416   5.783
 2837POPC   PO439564   8.315  31.910   5.498
 2837POPC   GL139565   8.340  32.102   5.887
 2837POPC   GL239566   8.465  32.456   5.921
 2837POPC   C1A39567   8.130  31.978   6.265
 2837POPC   D2A39568   8.028  32.182   6.648
 2837POPC   C3A39569   8.164  31.989   7.055
 2837POPC   C4A39570   7.969  32.210   7.388
 2837POPC   C1B39571   8.398  32.433   6.357
 2837POPC   C2B39572   8.688  32.438   6.691
 2837POPC   C3B39573   8.604  32.637   7.067
 2837POPC   C4B39574   8.193  32.503   7.026
 2838POPC   NC339575  38.676  12.210   5.445
 2838POPC   PO439576  38.011  11.861   5.498
 2838POPC   GL139577  38.213  12.027   5.852
 2838POPC   GL239578  38.557  11.946   5.864
 2838POPC   C1A39579  38.294  12.087   6.295
 2838POPC   D2A39580  38.156  11.962   6.689
 2838POPC   C3A39581  38.378  12.141   6.998
 2838POPC   C4A39582  38.298  11.950   7.357
 2838POPC   C1B39583  38.788  12.172   6.173
 2838POPC   C2B39584  38.719  12.388   6.553
 2838POPC   C3B39585  38.873  12.355   6.955
 2838POPC   C4B39586  38.775  12.127   7.328
 2839POPC   NC339587  40.174  21.513   5.369
 2839POPC   PO439588  39.862  20.976   5.383
 2839POPC   GL139589  40.029  21.128   5.807
 2839POPC   GL239590  40.104  21.464   5.864
 2839POPC   C1A39591  40.229  21.078   6.197
 2839POPC   D2A39592  40.146  21.367   6.510
 2839POPC   C3A39593  40.175  21.154   6.896
 2839POPC   C4A39594  40.074  21.339   7.254
 2839POPC   C1B39595  39.867  21.738   6.124
 2839POPC   C2B39596  39.670  21.682   6.515
 2839POPC   C3B39597  39.892  21.666   6.880
 2839POPC   C4B39598  39.742  21.705   7.300
 2840POPC   NC339599   8.419  37.389   5.400
 2840POPC   PO439600   8.029  37.862   5.032
 2840POPC   GL139601   8.239  37.884   5.565
 2840POPC   GL239602   8.304  37.600   5.841
 2840POPC   C1A39603   8.360  38.027   6.072
 2840POPC   D2A39604   8.180  38.088   6.523
 2840POPC   C3A39605   8.198  37.843   6.919
 2840POPC   C4A39606   8.182  37.939   7.355
 2840POPC   C1B39607   8.041  37.644   6.239
 2840POPC   C2B39608   7.972  37.451   6.659
 2840POPC   C3B39609   7.866  37.335   7.095
 2840POPC   C4B39610   7.987  37.480   7.535
 2841POPC   NC339611  17.149  43.795   5.357
 2841POPC   PO439612  17.531  44.361   5.439
 2841POPC   GL139613  17.316  44.071   5.750
 2841POPC   GL239614  17.479  43.715   5.756
 2841POPC   C1A39615  17.253  43.989   6.194
 2841POPC   D2A39616  17.458  43.936   6.626
 2841POPC   C3A39617  17.169  43.944   6.990
 2841POPC   C4A39618  17.132  43.977   7.448
 2841POPC   C1B39619  17.483  43.530   6.176
 2841POPC   C2B39620  17.682  43.487   6.599
 2841POPC   C3B39621  17.528  43.579   7.007
 2841POPC   C4B39622  17.736  43.411   7.328
 2842POPC   NC339623  38.253  34.314   5.385
 2842POPC   PO439624  38.797  34.500   5.725
 2842POPC   GL139625  38.376  34.419   5.911
 2842POPC   GL239626  38.068  34.623   5.886
 2842POPC   C1A39627  38.413  34.619   6.312
 2842POPC   D2A39628  38.760  34.731   6.578
 2842POPC   C3A39629  38.540  34.577   6.879
 2842POPC   C4A39630  38.583  34.558   7.276
 2842POPC   C1B39631  37.930  34.443   6.280
 2842POPC   C2B39632  38.040  34.510   6.733
 2842POPC   C3B39633  38.136  34.338   7.163
 2842POPC   C4B39634  38.194  34.462   7.621
 2843POPC   NC339635  18.866   6.858   5.429
 2843POPC   PO439636  18.846   6.192   5.519
 2843POPC   GL139637  18.822   6.471   5.837
 2843POPC   GL239638  19.070   6.742   5.883
 2843POPC   C1A39639  18.880   6.403   6.276
 2843POPC   D2A39640  19.177   6.427   6.610
 2843POPC   C3A39641  18.998   6.579   6.967
 2843POPC   C4A39642  18.738   6.388   7.240
 2843POPC   C1B39643  19.325   6.956   6.198
 2843POPC   C2B39644  19.364   6.926   6.646
 2843POPC   C3B39645  19.501   6.638   6.984
 2843POPC   C4B39646  19.306   6.612   7.383
 2844POPC   NC339647  10.249  11.127   5.451
 2844POPC   PO439648  11.030  11.192   5.555
 2844POPC   GL139649  10.740  11.217   5.882
 2844POPC   GL239650  10.407  11.077   5.946
 2844POPC   C1A39651  10.613  11.439   6.242
 2844POPC   D2A39652  10.413  11.269   6.603
 2844POPC   C3A39653  10.283  11.437   6.992
 2844POPC   C4A39654  10.449  11.464   7.413
 2844POPC   C1B39655  10.692  10.925   6.303
 2844POPC   C2B39656  10.836  10.980   6.749
 2844POPC   C3B39657  10.653  11.034   7.175
 2844POPC   C4B39658  10.773  11.125   7.640
 2845POPC   NC339659  36.150  37.889   5.215
 2845POPC   PO439660  36.394  37.367   5.688
 2845POPC   GL139661  36.092  37.606   5.907
 2845POPC   GL239662  36.056  37.905   5.738
 2845POPC   C1A39663  35.922  37.891   6.220
 2845POPC   D2A39664  36.023  38.086   6.584
 2845POPC   C3A39665  36.213  37.831   6.865
 2845POPC   C4A39666  36.072  37.510   7.109
 2845POPC   C1B39667  36.340  38.153   6.055
 2845POPC   C2B39668  36.367  38.417   6.406
 2845POPC   C3B39669  36.348  38.374   6.857
 2845POPC   C4B39670  36.533  38.170   7.204
 2846POPC   NC339671  30.974   3.626   5.430
 2846POPC   PO439672  30.539   3.111   5.298
 2846POPC   GL139673  30.591   3.387   5.728
 2846POPC   GL239674  30.787   3.729   5.872
 2846POPC   C1A39675  30.761   3.335   6.178
 2846POPC   D2A39676  30.788   3.550   6.562
 2846POPC   C3A39677  30.625   3.309   6.909
 2846POPC   C4A39678  30.754   3.265   7.331
 2846POPC   C1B39679  30.461   3.792   6.162
 2846POPC   C2B39680  30.476   3.959   6.570
 2846POPC   C3B39681  30.522   3.805   6.985
 2846POPC   C4B39682  30.692   3.746   7.380
 2847POPC   NC339683  32.658  31.603   5.417
 2847POPC   PO439684  32.012  31.935   5.496
 2847POPC   GL139685  32.078  31.628   5.855
 2847POPC   GL239686  32.351  31.467   5.787
 2847POPC   C1A39687  32.060  31.417   6.224
 2847POPC   D2A39688  31.906  31.508   6.612
 2847POPC   C3A39689  32.192  31.372   6.902
 2847POPC   C4A39690  31.992  31.450   7.270
 2847POPC   C1B39691  32.580  31.552   6.159
 2847POPC   C2B39692  32.741  31.424   6.563
 2847POPC   C3B39693  32.711  31.272   6.967
 2847POPC   C4B39694  32.510  31.498   7.309
 2848POPC   NC339695   7.911  17.732   5.342
 2848POPC   PO439696   8.346  17.253   5.552
 2848POPC   GL139697   8.043  17.442   5.807
 2848POPC   GL239698   8.028  17.808   5.822
 2848POPC   C1A39699   8.189  17.496   6.231
 2848POPC   D2A39700   8.209  17.265   6.593
 2848POPC   C3A39701   8.052  17.371   6.978
 2848POPC   C4A39702   8.366  17.263   7.248
 2848POPC   C1B39703   8.176  17.991   6.154
 2848POPC   C2B39704   7.993  17.894   6.538
 2848POPC   C3B39705   8.138  17.930   6.968
 2848POPC   C4B39706   8.165  17.738   7.360
 2849POPC   NC339707  11.678  15.904   5.488
 2849POPC   PO439708  12.323  16.022   5.472
 2849POPC   GL139709  12.062  16.137   5.861
 2849POPC   GL239710  11.684  16.208   5.905
 2849POPC   C1A39711  12.174  16.183   6.311
 2849POPC   D2A39712  12.500  16.126   6.652
 2849POPC   C3A39713  12.342  15.910   7.039
 2849POPC   C4A39714  12.165  16.134   7.381
 2849POPC   C1B39715  11.742  15.867   6.216
 2849POPC   C2B39716  11.917  15.861   6.637
 2849POPC   C3B39717  11.871  16.158   6.961
 2849POPC   C4B39718  11.657  16.060   7.329
 2850POPC   NC339719  40.319  35.717   5.432
 2850POPC   PO439720  39.890  35.250   5.412
 2850POPC   GL139721  40.066  35.213   5.854
 2850POPC   GL239722  40.172  35.552   5.922
 2850POPC   C1A39723  40.007  35.213   6.318
 2850POPC   D2A39724  39.741  35.005   6.632
 2850POPC   C3A39725  39.876  35.142   7.034
 2850POPC   C4A39726  40.194  35.414   7.171
 2850POPC   C1B39727  39.764  35.641   6.181
 2850POPC   C2B39728  39.657  35.526   6.635
 2850POPC   C3B39729  39.770  35.667   7.064
 2850POPC   C4B39730  40.072  35.813   7.469
 2851POPC   NC339731  23.971   0.304   5.253
 2851POPC   PO439732  23.357   0.350   5.433
 2851POPC   GL139733  23.581   0.434   5.801
 2851POPC   GL239734  23.918   0.273   5.769
 2851POPC   C1A39735  23.604   0.375   6.251
 2851POPC   D2A39736  23.759   0.550   6.640
 2851POPC   C3A39737  23.594   0.428   7.023
 2851POPC   C4A39738  23.525   0.215   7.405
 2851POPC   C1B39739  24.092   0.462   6.142
 2851POPC   C2B39740  24.207   0.335   6.540
 2851POPC   C3B39741  24.097   0.238   6.967
 2851POPC   C4B39742  24.030   0.516   7.296
 2852POPC   NC339743   1.876   9.463   5.367
 2852POPC   PO439744   2.239  10.022   5.485
 2852POPC   GL139745   2.148   9.740   5.869
 2852POPC   GL239746   2.127   9.371   5.841
 2852POPC   C1A39747   2.210   9.641   6.311
 2852POPC   D2A39748   2.134   9.856   6.714
 2852POPC   C3A39749   2.221   9.739   7.140
 2852POPC   C4A39750   2.031   9.683   7.560
 2852POPC   C1B39751   1.754   9.431   6.145
 2852POPC   C2B39752   1.691   9.556   6.594
 2852POPC   C3B39753   1.711   9.660   7.048
 2852POPC   C4B39754   1.528   9.724   7.479
 2853POPC   NC339755  27.588  10.003   5.407
 2853POPC   PO439756  27.853  10.648   5.507
 2853POPC   GL139757  27.620  10.689   5.824
 2853POPC   GL239758  27.476  10.377   5.842
 2853POPC   C1A39759  27.782  10.835   6.195
 2853POPC   D2A39760  27.618  10.821   6.604
 2853POPC   C3A39761  27.842  10.733   6.972
 2853POPC   C4A39762  27.621  10.835   7.336
 2853POPC   C1B39763  27.749  10.339   6.229
 2853POPC   C2B39764  27.658  10.306   6.670
 2853POPC   C3B39765  27.458  10.418   7.071
 2853POPC   C4B39766  27.779  10.367   7.409
 2854POPC   NC339767   3.546   2.727   5.348
 2854POPC   PO439768   3.780   3.376   5.531
 2854POPC   GL139769   3.566   2.999   5.794
 2854POPC   GL239770   3.479   2.603   5.829
 2854POPC   C1A39771   3.464   2.912   6.223
 2854POPC   D2A39772   3.348   2.930   6.639
 2854POPC   C3A39773   3.613   2.846   6.981
 2854POPC   C4A39774   3.327   2.777   7.290
 2854POPC   C1B39775   3.450   2.374   6.241
 2854POPC   C2B39776   3.391   2.177   6.654
 2854POPC   C3B39777   3.553   2.352   7.018
 2854POPC   C4B39778   3.969   2.474   7.178
 2855POPC   NC339779  33.916  34.350   5.422
 2855POPC   PO439780  33.562  34.912   5.483
 2855POPC   GL139781  33.535  34.685   5.835
 2855POPC   GL239782  33.903  34.633   5.837
 2855POPC   C1A39783  33.638  34.737   6.280
 2855POPC   D2A39784  33.818  34.458   6.577
 2855POPC   C3A39785  33.948  34.577   6.995
 2855POPC   C4A39786  33.594  34.506   7.286
 2855POPC   C1B39787  34.163  34.773   6.159
 2855POPC   C2B39788  34.053  34.916   6.582
 2855POPC   C3B39789  34.117  35.081   6.969
 2855POPC   C4B39790  34.250  34.858   7.356
 2856POPC   NC339791  28.080   4.543   5.545
 2856POPC   PO439792  28.742   4.228   5.438
 2856POPC   GL139793  28.564   4.221   5.845
 2856POPC   GL239794  28.796   3.968   5.992
 2856POPC   C1A39795  28.365   4.428   6.218
 2856POPC   D2A39796  28.263   4.218   6.609
 2856POPC   C3A39797  28.070   4.360   6.968
 2856POPC   C4A39798  28.253   4.327   7.359
 2856POPC   C1B39799  28.889   4.376   6.232
 2856POPC   C2B39800  28.716   4.549   6.637
 2856POPC   C3B39801  28.660   4.360   7.041
 2856POPC   C4B39802  28.735   4.367   7.487
 2857POPC   NC339803  18.626  41.883   5.433
 2857POPC   PO439804  18.001  41.669   5.286
 2857POPC   GL139805  18.244  41.639   5.682
 2857POPC   GL239806  18.131  41.309   5.755
 2857POPC   C1A39807  18.390  41.830   6.105
 2857POPC   D2A39808  18.199  41.880   6.539
 2857POPC   C3A39809  18.387  41.972   6.966
 2857POPC   C4A39810  18.498  41.869   7.385
 2857POPC   C1B39811  18.422  41.298   6.108
 2857POPC   C2B39812  18.480  41.201   6.550
 2857POPC   C3B39813  18.377  41.473   6.868
 2857POPC   C4B39814  18.216  41.479   7.286
 2858POPC   NC339815  43.761   4.622   5.391
 2858POPC   PO439816  43.609   5.338   5.357
 2858POPC   GL139817  43.802   5.115   5.741
 2858POPC   GL239818  43.599   4.818   5.843
 2858POPC   C1A39819  43.990   4.924   6.145
 2858POPC   D2A39820  43.931   5.122   6.568
 2858POPC   C3A39821  44.211   5.040   6.928
 2858POPC   C4A39822  44.163   5.001   7.393
 2858POPC   C1B39823  43.516   5.083   6.207
 2858POPC   C2B39824  43.332   5.237   6.555
 2858POPC   C3B39825  43.434   4.991   6.860
 2858POPC   C4B39826  43.746   5.039   7.119
 2859POPC   NC339827  16.125  28.820   5.520
 2859POPC   PO439828  15.691  28.336   5.469
 2859POPC   GL139829  15.762  28.223   5.892
 2859POPC   GL239830  15.988  28.515   5.953
 2859POPC   C1A39831  15.744  28.131   6.338
 2859POPC   D2A39832  16.025  28.273   6.667
 2859POPC   C3A39833  15.806  28.297   7.035
 2859POPC   C4A39834  15.658  28.135   7.441
 2859POPC   C1B39835  16.158  28.832   6.257
 2859POPC   C2B39836  16.303  28.735   6.688
 2859POPC   C3B39837  16.138  28.683   7.107
 2859POPC   C4B39838  15.787  28.646   7.399
 2860POPC   NC339839  20.988  29.953   5.345
 2860POPC   PO439840  21.411  29.443   5.502
 2860POPC   GL139841  21.142  29.730   5.778
 2860POPC   GL239842  21.411  29.949   5.813
 2860POPC   C1A39843  21.085  30.046   6.159
 2860POPC   D2A39844  21.181  29.824   6.512
 2860POPC   C3A39845  21.328  29.904   6.920
 2860POPC   C4A39846  21.473  30.172   7.239
 2860POPC   C1B39847  21.606  29.848   6.199
 2860POPC   C2B39848  21.868  29.950   6.564
 2860POPC   C3B39849  21.845  29.951   7.000
 2860POPC   C4B39850  21.747  29.722   7.412
 2861POPC   NC339851   7.581  40.835   5.422
 2861POPC   PO439852   7.129  40.494   5.212
 2861POPC   GL139853   7.194  40.690   5.727
 2861POPC   GL239854   7.403  40.913   5.877
 2861POPC   C1A39855   7.321  40.535   6.202
 2861POPC   D2A39856   7.598  40.529   6.559
 2861POPC   C3A39857   7.365  40.579   6.925
 2861POPC   C4A39858   7.463  40.499   7.316
 2861POPC   C1B39859   7.518  41.033   6.232
 2861POPC   C2B39860   7.352  40.981   6.604
 2861POPC   C3B39861   7.369  41.090   7.010
 2861POPC   C4B39862   7.499  41.004   7.434
 2862POPC   NC339863  13.928   0.989   5.512
 2862POPC   PO439864  13.304   1.078   5.648
 2862POPC   GL139865  13.477   1.432   5.847
 2862POPC   GL239866  13.813   1.504   5.733
 2862POPC   C1A39867  13.301   1.523   6.226
 2862POPC   D2A39868  13.445   1.483   6.625
 2862POPC   C3A39869  13.457   1.161   6.902
 2862POPC   C4A39870  13.270   1.310   7.240
 2862POPC   C1B39871  13.969   1.697   6.119
 2862POPC   C2B39872  13.853   1.794   6.566
 2862POPC   C3B39873  13.985   1.603   6.952
 2862POPC   C4B39874  13.800   1.311   7.263
 2863POPC   NC339875  11.012  14.937   5.448
 2863POPC   PO439876  11.487  15.472   5.479
 2863POPC   GL139877  11.500  15.242   5.855
 2863POPC   GL239878  11.363  14.916   5.829
 2863POPC   C1A39879  11.338  15.169   6.265
 2863POPC   D2A39880  11.093  15.253   6.623
 2863POPC   C3A39881  11.431  15.230   6.938
 2863POPC   C4A39882  11.703  15.176   7.275
 2863POPC   C1B39883  11.291  14.664   6.202
 2863POPC   C2B39884  11.036  14.615   6.588
 2863POPC   C3B39885  11.096  14.848   6.943
 2863POPC   C4B39886  11.375  14.787   7.257
 2864POPC   NC339887  36.226  10.042   5.425
 2864POPC   PO439888  36.330   9.412   5.408
 2864POPC   GL139889  36.097   9.603   5.757
 2864POPC   GL239890  35.893   9.900   5.801
 2864POPC   C1A39891  36.014   9.585   6.211
 2864POPC   D2A39892  35.895   9.746   6.584
 2864POPC   C3A39893  36.021   9.511   6.914
 2864POPC   C4A39894  36.262   9.626   7.266
 2864POPC   C1B39895  36.234  10.044   6.100
 2864POPC   C2B39896  36.404   9.886   6.500
 2864POPC   C3B39897  36.269   9.976   6.891
 2864POPC   C4B39898  36.208  10.144   7.290
 2865POPC   NC339899   5.797  16.132   5.356
 2865POPC   PO439900   5.528  15.517   5.465
 2865POPC   GL139901   5.773  15.815   5.767
 2865POPC   GL239902   5.622  16.130   5.821
 2865POPC   C1A39903   6.102  16.039   6.040
 2865POPC   D2A39904   6.152  16.082   6.493
 2865POPC   C3A39905   5.931  15.802   6.763
 2865POPC   C4A39906   5.991  15.867   7.191
 2865POPC   C1B39907   5.653  16.159   6.241
 2865POPC   C2B39908   5.468  16.097   6.636
 2865POPC   C3B39909   5.520  15.963   7.044
 2865POPC   C4B39910   5.654  16.165   7.430
 2866POPC   NC339911   7.518  13.295   5.184
 2866POPC   PO439912   7.239  12.778   5.063
 2866POPC   GL139913   7.291  12.967   5.549
 2866POPC   GL239914   7.099  12.819   5.828
 2866POPC   C1A39915   7.561  12.943   5.989
 2866POPC   D2A39916   7.550  12.802   6.473
 2866POPC   C3A39917   7.632  13.057   6.875
 2866POPC   C4A39918   7.714  13.003   7.335
 2866POPC   C1B39919   7.123  13.023   6.278
 2866POPC   C2B39920   7.133  13.001   6.763
 2866POPC   C3B39921   7.257  12.766   7.151
 2866POPC   C4B39922   7.259  12.724   7.625
 2867POPC   NC339923  10.269  16.074   5.412
 2867POPC   PO439924  10.637  15.491   5.510
 2867POPC   GL139925  10.566  15.783   5.842
 2867POPC   GL239926  10.667  16.129   5.753
 2867POPC   C1A39927  10.667  15.845   6.296
 2867POPC   D2A39928  10.858  15.752   6.735
 2867POPC   C3A39929  10.559  15.807   7.113
 2867POPC   C4A39930  10.146  15.658   7.295
 2867POPC   C1B39931  10.801  16.310   6.156
 2867POPC   C2B39932  10.744  16.242   6.613
 2867POPC   C3B39933  10.764  16.281   7.051
 2867POPC   C4B39934  10.703  16.179   7.505
 2868POPC   NC339935  41.172  22.715   5.570
 2868POPC   PO439936  41.874  22.644   5.513
 2868POPC   GL139937  41.668  22.877   5.876
 2868POPC   GL239938  41.396  23.126   5.889
 2868POPC   C1A39939  41.555  22.932   6.321
 2868POPC   D2A39940  41.225  22.756   6.541
 2868POPC   C3A39941  41.377  22.773   6.928
 2868POPC   C4A39942  41.668  22.711   7.245
 2868POPC   C1B39943  41.124  23.233   6.289
 2868POPC   C2B39944  41.126  23.248   6.761
 2868POPC   C3B39945  41.385  23.248   7.154
 2868POPC   C4B39946  41.268  23.253   7.627
 2869POPC   NC339947  27.892   9.291   5.652
 2869POPC   PO439948  28.050   9.872   5.354
 2869POPC   GL139949  28.177   9.696   5.761
 2869POPC   GL239950  28.446   9.464   5.664
 2869POPC   C1A39951  28.061   9.694   6.212
 2869POPC   D2A39952  28.108  10.035   6.508
 2869POPC   C3A39953  28.364   9.967   6.872
 2869POPC   C4A39954  28.173  10.060   7.244
 2869POPC   C1B39955  28.651   9.498   6.081
 2869POPC   C2B39956  28.484   9.563   6.496
 2869POPC   C3B39957  28.552   9.482   6.936
 2869POPC   C4B39958  28.517   9.693   7.321
 2870POPC   NC339959  30.871  19.510   5.504
 2870POPC   PO439960  30.558  18.939   5.535
 2870POPC   GL139961  30.742  19.157   5.870
 2870POPC   GL239962  31.097  19.044   5.893
 2870POPC   C1A39963  30.629  19.008   6.256
 2870POPC   D2A39964  30.658  18.740   6.596
 2870POPC   C3A39965  30.476  18.882   6.949
 2870POPC   C4A39966  30.481  19.100   7.310
 2870POPC   C1B39967  31.073  19.223   6.311
 2870POPC   C2B39968  30.888  19.182   6.717
 2870POPC   C3B39969  30.982  19.124   7.141
 2870POPC   C4B39970  30.856  19.366   7.538
 2871POPC   NC339971   1.472  16.671   5.472
 2871POPC   PO439972   0.861  16.977   5.421
 2871POPC   GL139973   1.142  16.926   5.773
 2871POPC   GL239974   1.139  16.564   5.850
 2871POPC   C1A39975   1.231  16.975   6.207
 2871POPC   D2A39976   0.949  16.909   6.556
 2871POPC   C3A39977   1.106  16.917   6.977
 2871POPC   C4A39978   1.488  16.779   7.177
 2871POPC   C1B39979   1.125  16.480   6.282
 2871POPC   C2B39980   1.341  16.573   6.664
 2871POPC   C3B39981   1.165  16.413   7.039
 2871POPC   C4B39982   1.042  16.254   7.419
 2872POPC   NC339983  27.364   6.360   5.424
 2872POPC   PO439984  27.668   5.715   5.395
 2872POPC   GL139985  27.759   5.888   5.857
 2872POPC   GL239986  27.927   6.224   5.929
 2872POPC   C1A39987  27.642   5.713   6.276
 2872POPC   D2A39988  27.618   5.554   6.686
 2872POPC   C3A39989  27.401   5.861   6.929
 2872POPC   C4A39990  27.599   6.025   7.240
 2872POPC   C1B39991  27.804   6.205   6.378
 2872POPC   C2B39992  27.801   6.260   6.833
 2872POPC   C3B39993  27.963   6.355   7.244
 2872POPC   C4B39994  27.899   6.313   7.709
 2873POPC   NC339995  37.758   5.793   5.282
 2873POPC   PO439996  37.358   6.321   5.384
 2873POPC   GL139997  37.559   6.107   5.737
 2873POPC   GL239998  37.912   6.102   5.686
 2873POPC   C1A39999  37.534   6.183   6.193
 2873POPC   D2A40000  37.792   6.076   6.556
 2873POPC   C3A40001  37.566   6.088   6.971
 2873POPC   C4A40002  37.701   6.163   7.386
 2873POPC   C1B40003  37.973   5.882   6.087
 2873POPC   C2B40004  38.133   5.705   6.484
 2873POPC   C3B40005  38.049   5.822   6.931
 2873POPC   C4B40006  37.773   5.685   7.229
 2874POPC   NC340007   2.150   4.648   5.695
 2874POPC   PO440008   1.610   4.993   5.461
 2874POPC   GL140009   1.859   5.045   5.853
 2874POPC   GL240010   1.805   4.749   6.049
 2874POPC   C1A40011   1.982   5.189   6.285
 2874POPC   D2A40012   1.933   5.017   6.691
 2874POPC   C3A40013   1.971   5.087   7.089
 2874POPC   C4A40014   1.728   4.893   7.395
 2874POPC   C1B40015   2.158   4.715   6.349
 2874POPC   C2B40016   2.437   4.942   6.625
 2874POPC   C3B40017   2.473   4.790   7.032
 2874POPC   C4B40018   2.247   4.785   7.414
 2875POPC   NC340019   9.999  33.652   5.400
 2875POPC   PO440020   9.893  34.359   5.573
 2875POPC   GL140021   9.979  34.046   5.921
 2875POPC   GL240022   9.969  33.659   5.912
 2875POPC   C1A40023  10.034  33.951   6.362
 2875POPC   D2A40024   9.748  34.017   6.685
 2875POPC   C3A40025   9.986  34.103   7.019
 2875POPC   C4A40026   9.895  33.965   7.381
 2875POPC   C1B40027   9.590  33.731   6.189
 2875POPC   C2B40028   9.463  33.583   6.610
 2875POPC   C3B40029   9.677  33.618   7.011
 2875POPC   C4B40030   9.860  33.359   7.303
 2876POPC   NC340031  24.725  13.046   5.371
 2876POPC   PO440032  24.436  12.501   5.571
 2876POPC   GL140033  24.387  12.704   5.974
 2876POPC   GL240034  24.244  13.032   5.883
 2876POPC   C1A40035  24.570  12.780   6.426
 2876POPC   D2A40036  24.988  12.969   6.573
 2876POPC   C3A40037  24.953  13.000   7.018
 2876POPC   C4A40038  24.575  12.751   7.096
 2876POPC   C1B40039  24.088  12.953   6.324
 2876POPC   C2B40040  24.188  12.901   6.804
 2876POPC   C3B40041  24.159  12.954   7.287
 2876POPC   C4B40042  24.065  13.079   7.747
 2877POPC   NC340043  23.484  15.032   4.936
 2877POPC   PO440044  23.629  15.409   5.439
 2877POPC   GL140045  23.622  15.123   5.820
 2877POPC   GL240046  23.378  14.867   5.906
 2877POPC   C1A40047  23.571  15.211   6.268
 2877POPC   D2A40048  23.800  15.207   6.666
 2877POPC   C3A40049  23.700  15.401   7.075
 2877POPC   C4A40050  23.679  15.368   7.528
 2877POPC   C1B40051  23.502  14.711   6.328
 2877POPC   C2B40052  23.763  14.702   6.751
 2877POPC   C3B40053  23.983  14.957   7.080
 2877POPC   C4B40054  24.157  15.262   7.386
 2878POPC   NC340055  34.967  34.844   5.492
 2878POPC   PO440056  34.289  34.655   5.358
 2878POPC   GL140057  34.558  34.561   5.722
 2878POPC   GL240058  34.557  34.868   5.807
 2878POPC   C1A40059  34.550  34.410   6.149
 2878POPC   D2A40060  34.327  34.491   6.547
 2878POPC   C3A40061  34.458  34.712   6.888
 2878POPC   C4A40062  34.538  34.436   7.198
 2878POPC   C1B40063  34.858  34.801   6.150
 2878POPC   C2B40064  34.877  34.640   6.589
 2878POPC   C3B40065  34.956  34.735   7.020
 2878POPC   C4B40066  34.819  34.834   7.393
 2879POPC   NC340067   6.009  15.442   5.484
 2879POPC   PO440068   5.858  14.789   5.510
 2879POPC   GL140069   6.014  15.076   5.838
 2879POPC   GL240070   5.727  15.322   5.918
 2879POPC   C1A40071   6.054  15.143   6.284
 2879POPC   D2A40072   6.235  15.149   6.695
 2879POPC   C3A40073   5.924  14.963   6.938
 2879POPC   C4A40074   5.935  14.755   7.292
 2879POPC   C1B40075   5.561  15.628   6.259
 2879POPC   C2B40076   5.427  15.578   6.707
 2879POPC   C3B40077   5.671  15.453   7.091
 2879POPC   C4B40078   6.136  15.373   7.170
 2880POPC   NC340079  14.585  44.717   5.552
 2880POPC   PO440080  13.871  44.758   5.385
 2880POPC   GL140081  13.952  44.994   5.805
 2880POPC   GL240082  14.258  44.852   5.915
 2880POPC   C1A40083  13.988  44.989   6.300
 2880POPC   D2A40084  14.319  44.987   6.595
 2880POPC   C3A40085  14.216  44.925   7.017
 2880POPC   C4A40086  14.010  44.632   7.304
 2880POPC   C1B40087  14.481  44.610   6.257
 2880POPC   C2B40088  14.614  44.545   6.687
 2880POPC   C3B40089  14.470  44.442   7.118
 2880POPC   C4B40090  14.516  44.529   7.564
 2881POPC   NC340091  20.860  23.430   5.479
 2881POPC   PO440092  20.228  23.463   5.494
 2881POPC   GL140093  20.442  23.730   5.793
 2881POPC   GL240094  20.798  23.880   5.827
 2881POPC   C1A40095  20.527  23.708   6.233
 2881POPC   D2A40096  20.700  23.930   6.560
 2881POPC   C3A40097  20.521  23.756   6.926
 2881POPC   C4A40098  20.416  23.553   7.313
 2881POPC   C1B40099  21.039  23.706   6.209
 2881POPC   C2B40100  21.101  23.611   6.670
 2881POPC   C3B40101  20.981  23.593   7.105
 2881POPC   C4B40102  20.908  23.523   7.552
 2882POPC   NC340103  40.565   9.010   5.445
 2882POPC   PO440104  41.085   8.560   5.389
 2882POPC   GL140105  40.975   8.904   5.745
 2882POPC   GL240106  40.646   8.968   5.935
 2882POPC   C1A40107  41.034   8.846   6.227
 2882POPC   D2A40108  41.129   8.918   6.666
 2882POPC   C3A40109  41.025   8.630   7.023
 2882POPC   C4A40110  40.763   8.888   7.282
 2882POPC   C1B40111  40.719   9.228   6.310
 2882POPC   C2B40112  40.541   9.205   6.706
 2882POPC   C3B40113  40.598   9.380   7.115
 2882POPC   C4B40114  40.476   9.243   7.512
 2883POPC   NC340115  44.886  20.666   5.560
 2883POPC   PO440116  44.340  20.359   5.379
 2883POPC   GL140117  44.390  20.461   5.820
 2883POPC   GL240118  44.570  20.768   5.980
 2883POPC   C1A40119  44.512  20.332   6.226
 2883POPC   D2A40120  44.779  20.582   6.504
 2883POPC   C3A40121  44.677  20.520   6.936
 2883POPC   C4A40122  44.475  20.855   7.101
 2883POPC   C1B40123  44.965  20.968   6.156
 2883POPC   C2B40124   0.111  21.007   6.568
 2883POPC   C3B40125  44.949  21.115   6.969
 2883POPC   C4B40126  44.937  20.843   7.341
 2884POPC   NC340127  42.643  27.538   5.232
 2884POPC   PO440128  42.034  27.763   5.221
 2884POPC   GL140129  42.257  27.667   5.644
 2884POPC   GL240130  42.458  27.370   5.714
 2884POPC   C1A40131  42.298  27.718   6.108
 2884POPC   D2A40132  42.023  27.652   6.501
 2884POPC   C3A40133  42.198  27.533   6.931
 2884POPC   C4A40134  42.569  27.657   7.193
 2884POPC   C1B40135  42.266  27.203   6.128
 2884POPC   C2B40136  42.483  27.073   6.539
 2884POPC   C3B40137  42.606  27.138   6.957
 2884POPC   C4B40138  42.644  27.187   7.377
 2885POPC   NC340139   7.638   1.053   5.767
 2885POPC   PO440140   7.055   1.298   5.490
 2885POPC   GL140141   7.212   1.312   5.895
 2885POPC   GL240142   7.066   0.958   5.875
 2885POPC   C1A40143   7.400   1.419   6.335
 2885POPC   D2A40144   7.518   1.407   6.809
 2885POPC   C3A40145   7.722   1.004   6.931
 2885POPC   C4A40146   7.878   0.831   7.301
 2885POPC   C1B40147   7.026   1.041   6.289
 2885POPC   C2B40148   7.275   0.987   6.641
 2885POPC   C3B40149   7.228   0.970   7.075
 2885POPC   C4B40150   7.411   1.306   7.324
 2886POPC   NC340151  24.725  11.087   5.406
 2886POPC   PO440152  25.269  11.443   5.179
 2886POPC   GL140153  25.289  11.184   5.574
 2886POPC   GL240154  25.030  11.201   5.808
 2886POPC   C1A40155  25.480  11.198   6.021
 2886POPC   D2A40156  25.337  11.145   6.463
 2886POPC   C3A40157  25.491  11.165   6.905
 2886POPC   C4A40158  25.405  10.886   7.248
 2886POPC   C1B40159  25.045  11.457   6.159
 2886POPC   C2B40160  24.778  11.592   6.454
 2886POPC   C3B40161  24.950  11.656   6.854
 2886POPC   C4B40162  25.018  11.655   7.287
 2887POPC   NC340163  15.961   3.265   5.209
 2887POPC   PO440164  16.103   2.640   5.416
 2887POPC   GL140165  16.198   2.558   5.856
 2887POPC   GL240166  15.938   2.722   5.960
 2887POPC   C1A40167  16.290   2.702   6.309
 2887POPC   D2A40168  16.020   2.667   6.711
 2887POPC   C3A40169  16.188   2.412   7.040
 2887POPC   C4A40170  16.470   2.729   7.159
 2887POPC   C1B40171  15.809   2.915   6.321
 2887POPC   C2B40172  15.830   3.291   6.590
 2887POPC   C3B40173  15.667   3.270   6.995
 2887POPC   C4B40174  15.668   2.861   7.103
 2888POPC   NC340175  25.766  23.238   5.429
 2888POPC   PO440176  26.267  22.850   5.390
 2888POPC   GL140177  26.157  23.044   5.756
 2888POPC   GL240178  26.376  23.305   5.854
 2888POPC   C1A40179  26.072  22.900   6.199
 2888POPC   D2A40180  25.773  22.904   6.547
 2888POPC   C3A40181  25.883  22.716   6.930
 2888POPC   C4A40182  26.142  22.747   7.279
 2888POPC   C1B40183  26.012  23.396   6.088
 2888POPC   C2B40184  25.896  23.389   6.492
 2888POPC   C3B40185  26.016  23.241   6.889
 2888POPC   C4B40186  25.755  23.131   7.206
 2889POPC   NC340187  36.991  39.447   5.440
 2889POPC   PO440188  37.170  38.813   5.273
 2889POPC   GL140189  37.220  39.081   5.735
 2889POPC   GL240190  37.236  39.457   5.887
 2889POPC   C1A40191  37.028  39.131   6.204
 2889POPC   D2A40192  36.795  39.119   6.648
 2889POPC   C3A40193  36.959  39.189   7.076
 2889POPC   C4A40194  36.919  38.986   7.487
 2889POPC   C1B40195  37.105  39.633   6.265
 2889POPC   C2B40196  36.782  39.614   6.522
 2889POPC   C3B40197  36.722  39.605   6.905
 2889POPC   C4B40198  37.048  39.736   7.154
 2890POPC   NC340199  43.879  17.791   5.487
 2890POPC   PO440200  44.154  18.486   5.510
 2890POPC   GL140201  43.836  18.321   5.776
 2890POPC   GL240202  43.523  18.513   5.850
 2890POPC   C1A40203  43.741  18.126   6.169
 2890POPC   D2A40204  43.758  18.346   6.558
 2890POPC   C3A40205  43.742  18.101   6.911
 2890POPC   C4A40206  43.868  18.165   7.318
 2890POPC   C1B40207  43.355  18.458   6.232
 2890POPC   C2B40208  43.157  18.565   6.602
 2890POPC   C3B40209  43.399  18.475   6.954
 2890POPC   C4B40210  43.549  18.565   7.368
 2891POPC   NC340211   1.702   7.491   5.595
 2891POPC   PO440212   2.320   7.207   5.490
 2891POPC   GL140213   2.090   7.239   5.851
 2891POPC   GL240214   2.216   7.552   5.902
 2891POPC   C1A40215   1.988   7.305   6.312
 2891POPC   D2A40216   1.994   7.557   6.712
 2891POPC   C3A40217   1.973   7.301   7.123
 2891POPC   C4A40218   1.819   7.375   7.568
 2891POPC   C1B40219   2.471   7.480   6.277
 2891POPC   C2B40220   2.499   7.446   6.714
 2891POPC   C3B40221   2.361   7.662   7.093
 2891POPC   C4B40222   2.413   7.523   7.530
 2892POPC   NC340223   9.739   4.616   5.640
 2892POPC   PO440224   9.708   4.038   5.483
 2892POPC   GL140225   9.527   4.078   5.899
 2892POPC   GL240226   9.293   4.372   5.877
 2892POPC   C1A40227   9.627   3.939   6.330
 2892POPC   D2A40228   9.689   4.184   6.704
 2892POPC   C3A40229   9.919   4.153   7.082
 2892POPC   C4A40230  10.193   4.157   7.452
 2892POPC   C1B40231   9.350   4.394   6.343
 2892POPC   C2B40232   9.334   4.521   6.809
 2892POPC   C3B40233   9.472   4.484   7.246
 2892POPC   C4B40234   9.533   4.442   7.705
 2893POPC   NC340235   2.908  30.881   5.283
 2893POPC   PO440236   2.479  30.427   5.462
 2893POPC   GL140237   2.817  30.598   5.748
 2893POPC   GL240238   2.873  30.955   5.794
 2893POPC   C1A40239   2.784  30.650   6.210
 2893POPC   D2A40240   2.931  30.496   6.602
 2893POPC   C3A40241   2.752  30.547   6.991
 2893POPC   C4A40242   2.664  30.668   7.380
 2893POPC   C1B40243   2.910  31.152   6.194
 2893POPC   C2B40244   3.007  30.996   6.565
 2893POPC   C3B40245   2.864  31.053   6.961
 2893POPC   C4B40246   3.046  31.003   7.311
 2894POPC   NC340247  17.845  29.210   5.439
 2894POPC   PO440248  17.163  29.527   5.491
 2894POPC   GL140249  17.373  29.407   5.879
 2894POPC   GL240250  17.557  29.073   5.859
 2894POPC   C1A40251  17.570  29.352   6.309
 2894POPC   D2A40252  17.798  29.480   6.686
 2894POPC   C3A40253  17.511  29.476   7.008
 2894POPC   C4A40254  17.058  29.468   7.032
 2894POPC   C1B40255  17.207  29.003   6.171
 2894POPC   C2B40256  17.148  29.175   6.602
 2894POPC   C3B40257  17.278  28.999   6.997
 2894POPC   C4B40258  17.685  29.017   7.172
 2895POPC   NC340259  15.276   0.049   5.385
 2895POPC   PO440260  14.949  44.429   5.495
 2895POPC   GL140261  15.160  44.469   5.878
 2895POPC   GL240262  15.355  44.730   5.779
 2895POPC   C1A40263  15.210  44.717   6.288
 2895POPC   D2A40264  15.066  44.913   6.688
 2895POPC   C3A40265  15.024  44.604   7.045
 2895POPC   C4A40266  15.034  44.585   7.531
 2895POPC   C1B40267  15.631  44.514   6.088
 2895POPC   C2B40268  15.621  44.435   6.535
 2895POPC   C3B40269  15.694  44.312   6.962
 2895POPC   C4B40270  15.469  44.497   7.290
 2896POPC   NC340271  23.195  42.252   5.227
 2896POPC   PO440272  23.825  42.385   5.372
 2896POPC   GL140273  23.630  42.285   5.754
 2896POPC   GL240274  23.724  42.583   5.949
 2896POPC   C1A40275  23.588  42.096   6.165
 2896POPC   D2A40276  23.742  41.953   6.569
 2896POPC   C3A40277  23.565  42.223   6.906
 2896POPC   C4A40278  23.773  42.353   7.281
 2896POPC   C1B40279  23.780  42.531   6.393
 2896POPC   C2B40280  23.809  42.648   6.809
 2896POPC   C3B40281  23.566  42.807   7.128
 2896POPC   C4B40282  23.636  42.765   7.581
 2897POPC   NC340283  10.598  32.743   5.690
 2897POPC   PO440284  10.367  33.339   5.440
 2897POPC   GL140285  10.372  33.316   5.829
 2897POPC   GL240286  10.726  33.407   5.848
 2897POPC   C1A40287  10.330  33.225   6.254
 2897POPC   D2A40288  10.633  33.158   6.545
 2897POPC   C3A40289  10.475  33.253   6.940
 2897POPC   C4A40290  10.546  32.985   7.264
 2897POPC   C1B40291  11.034  33.176   6.127
 2897POPC   C2B40292  11.148  32.983   6.526
 2897POPC   C3B40293  10.917  32.865   6.895
 2897POPC   C4B40294  11.049  33.029   7.277
 2898POPC   NC340295   7.599  21.864   5.222
 2898POPC   PO440296   7.163  21.399   5.441
 2898POPC   GL140297   7.249  21.382   5.872
 2898POPC   GL240298   6.961  21.151   5.946
 2898POPC   C1A40299   7.622  21.307   6.194
 2898POPC   D2A40300   7.772  21.470   6.630
 2898POPC   C3A40301   7.635  21.220   7.009
 2898POPC   C4A40302   7.275  21.314   7.291
 2898POPC   C1B40303   7.153  21.173   6.359
 2898POPC   C2B40304   7.131  21.155   6.821
 2898POPC   C3B40305   6.853  21.063   7.178
 2898POPC   C4B40306   6.944  21.169   7.639
 2899POPC   NC340307   8.757  12.026   5.494
 2899POPC   PO440308   9.435  12.171   5.399
 2899POPC   GL140309   9.136  12.239   5.761
 2899POPC   GL240310   9.074  11.879   5.892
 2899POPC   C1A40311   8.819  12.239   6.137
 2899POPC   D2A40312   8.910  12.112   6.569
 2899POPC   C3A40313   8.713  12.098   6.986
 2899POPC   C4A40314   8.820  12.097   7.425
 2899POPC   C1B40315   9.195  11.726   6.322
 2899POPC   C2B40316   9.325  11.834   6.736
 2899POPC   C3B40317   9.221  11.939   7.148
 2899POPC   C4B40318   9.127  11.713   7.539
 2900POPC   NC340319  32.952   0.989   5.321
 2900POPC   PO440320  32.765   1.627   5.426
 2900POPC   GL140321  32.826   1.408   5.845
 2900POPC   GL240322  32.864   1.020   5.849
 2900POPC   C1A40323  33.134   1.348   6.199
 2900POPC   D2A40324  33.260   1.246   6.656
 2900POPC   C3A40325  32.969   1.284   7.024
 2900POPC   C4A40326  32.889   1.425   7.433
 2900POPC   C1B40327  32.978   0.867   6.265
 2900POPC   C2B40328  32.799   0.929   6.674
 2900POPC   C3B40329  32.788   0.790   7.101
 2900POPC   C4B40330  32.960   0.909   7.516
 2901POPC   NC340331  38.208   9.136   5.427
 2901POPC   PO440332  38.767   8.781   5.474
 2901POPC   GL140333  38.591   9.006   5.801
 2901POPC   GL240334  38.304   8.866   5.862
 2901POPC   C1A40335  38.608   9.059   6.268
 2901POPC   D2A40336  38.810   9.199   6.656
 2901POPC   C3A40337  38.717   8.957   7.017
 2901POPC   C4A40338  38.351   9.093   7.185
 2901POPC   C1B40339  38.298   8.636   6.232
 2901POPC   C2B40340  38.274   8.795   6.644
 2901POPC   C3B40341  38.071   8.658   7.003
 2901POPC   C4B40342  38.182   8.682   7.402
 2902POPC   NC340343  14.053  35.699   5.685
 2902POPC   PO440344  14.359  36.151   5.304
 2902POPC   GL140345  14.420  36.071   5.771
 2902POPC   GL240346  14.113  36.149   5.943
 2902POPC   C1A40347  14.544  36.018   6.244
 2902POPC   D2A40348  14.727  35.879   6.659
 2902POPC   C3A40349  14.550  35.844   7.101
 2902POPC   C4A40350  14.354  35.936   7.537
 2902POPC   C1B40351  14.238  36.430   6.305
 2902POPC   C2B40352  14.444  36.326   6.721
 2902POPC   C3B40353  14.273  36.281   7.139
 2902POPC   C4B40354  14.071  36.365   7.551
 2903POPC   NC340355  13.248  41.752   5.356
 2903POPC   PO440356  12.625  41.399   5.332
 2903POPC   GL140357  12.706  41.519   5.769
 2903POPC   GL240358  12.882  41.833   5.780
 2903POPC   C1A40359  12.574  41.395   6.193
 2903POPC   D2A40360  12.821  41.360   6.572
 2903POPC   C3A40361  12.665  41.375   6.973
 2903POPC   C4A40362  12.887  41.373   7.375
 2903POPC   C1B40363  12.980  41.692   6.203
 2903POPC   C2B40364  12.919  41.860   6.633
 2903POPC   C3B40365  12.916  41.799   7.074
 2903POPC   C4B40366  12.963  41.896   7.509
 2904POPC   NC340367  15.048  24.184   5.477
 2904POPC   PO440368  15.322  24.895   5.495
 2904POPC   GL140369  15.184  24.643   5.798
 2904POPC   GL240370  14.856  24.562   5.776
 2904POPC   C1A40371  15.360  24.512   6.178
 2904POPC   D2A40372  15.276  24.297   6.557
 2904POPC   C3A40373  15.366  24.463   6.951
 2904POPC   C4A40374  15.308  24.180   7.272
 2904POPC   C1B40375  14.875  24.734   6.201
 2904POPC   C2B40376  14.815  24.546   6.645
 2904POPC   C3B40377  14.885  24.252   6.987
 2904POPC   C4B40378  14.964  24.512   7.365
 2905POPC   NC340379   8.552  32.340   5.437
 2905POPC   PO440380   9.134  31.971   5.509
 2905POPC   GL140381   8.901  32.190   5.810
 2905POPC   GL240382   8.806  31.928   5.938
 2905POPC   C1A40383   8.961  32.350   6.238
 2905POPC   D2A40384   9.035  32.065   6.621
 2905POPC   C3A40385   9.042  32.285   7.026
 2905POPC   C4A40386   9.300  32.494   7.261
 2905POPC   C1B40387   8.629  31.982   6.298
 2905POPC   C2B40388   8.471  31.898   6.657
 2905POPC   C3B40389   8.699  31.926   7.010
 2905POPC   C4B40390   8.608  32.184   7.335
 2906POPC   NC340391  42.350   8.429   4.955
 2906POPC   PO440392  42.430   7.942   5.514
 2906POPC   GL140393  42.263   8.149   5.823
 2906POPC   GL240394  41.897   8.064   5.804
 2906POPC   C1A40395  42.402   8.226   6.207
 2906POPC   D2A40396  42.555   8.328   6.589
 2906POPC   C3A40397  42.326   8.348   6.933
 2906POPC   C4A40398  42.535   8.425   7.334
 2906POPC   C1B40399  41.933   8.415   6.115
 2906POPC   C2B40400  41.941   8.444   6.558
 2906POPC   C3B40401  41.906   8.629   6.987
 2906POPC   C4B40402  42.033   8.494   7.364
 2907POPC   NC340403  17.644   1.205   5.303
 2907POPC   PO440404  17.081   0.870   5.366
 2907POPC   GL140405  17.286   1.094   5.752
 2907POPC   GL240406  17.621   1.209   5.798
 2907POPC   C1A40407  17.330   1.190   6.198
 2907POPC   D2A40408  17.494   0.992   6.546
 2907POPC   C3A40409  17.356   1.061   6.921
 2907POPC   C4A40410  17.645   1.064   7.275
 2907POPC   C1B40411  17.724   1.517   6.102
 2907POPC   C2B40412  17.558   1.543   6.516
 2907POPC   C3B40413  17.671   1.445   6.924
 2907POPC   C4B40414  17.321   1.445   7.247
 2908POPC   NC340415  43.397  24.294   5.406
 2908POPC   PO440416  42.914  24.777   5.302
 2908POPC   GL140417  43.143  24.630   5.726
 2908POPC   GL240418  43.187  24.279   5.857
 2908POPC   C1A40419  43.227  24.621   6.222
 2908POPC   D2A40420  43.467  24.516   6.648
 2908POPC   C3A40421  43.270  24.606   7.074
 2908POPC   C4A40422  42.904  24.853   7.247
 2908POPC   C1B40423  42.915  24.155   6.197
 2908POPC   C2B40424  42.934  24.005   6.608
 2908POPC   C3B40425  43.208  24.144   6.861
 2908POPC   C4B40426  43.183  24.152   7.293
 2909POPC   NC340427  19.315  42.712   5.513
 2909POPC   PO440428  18.960  42.217   5.332
 2909POPC   GL140429  18.958  42.394   5.753
 2909POPC   GL240430  19.293  42.303   5.817
 2909POPC   C1A40431  18.999  42.361   6.234
 2909POPC   D2A40432  19.105  42.063   6.576
 2909POPC   C3A40433  19.124  42.243   6.974
 2909POPC   C4A40434  18.905  42.168   7.330
 2909POPC   C1B40435  19.477  42.547   6.170
 2909POPC   C2B40436  19.457  42.466   6.614
 2909POPC   C3B40437  19.488  42.648   7.038
 2909POPC   C4B40438  19.315  42.482   7.420
 2910POPC   NC340439  20.924  25.106   5.350
 2910POPC   PO440440  20.339  24.952   5.343
 2910POPC   GL140441  20.519  25.135   5.756
 2910POPC   GL240442  20.716  25.454   5.701
 2910POPC   C1A40443  20.405  25.290   6.212
 2910POPC   D2A40444  20.224  25.535   6.583
 2910POPC   C3A40445  20.311  25.286   6.921
 2910POPC   C4A40446  20.566  25.243   7.216
 2910POPC   C1B40447  20.905  25.441   6.091
 2910POPC   C2B40448  20.991  25.180   6.426
 2910POPC   C3B40449  20.877  25.314   6.839
 2910POPC   C4B40450  20.991  25.598   7.212
 2911POPC   NC340451  18.403  16.490   5.336
 2911POPC   PO440452  18.084  16.000   5.413
 2911POPC   GL140453  18.367  15.960   5.767
 2911POPC   GL240454  18.452  15.647   5.638
 2911POPC   C1A40455  18.264  15.938   6.250
 2911POPC   D2A40456  18.412  15.943   6.689
 2911POPC   C3A40457  18.180  16.038   7.050
 2911POPC   C4A40458  18.178  16.401   7.325
 2911POPC   C1B40459  18.558  15.574   6.078
 2911POPC   C2B40460  18.519  15.491   6.512
 2911POPC   C3B40461  18.713  15.570   6.901
 2911POPC   C4B40462  18.428  15.633   7.238
 2912POPC   NC340463  20.295  30.169   5.508
 2912POPC   PO440464  20.678  29.622   5.496
 2912POPC   GL140465  20.581  29.805   5.858
 2912POPC   GL240466  20.695  30.118   5.842
 2912POPC   C1A40467  20.715  29.716   6.293
 2912POPC   D2A40468  20.815  29.527   6.680
 2912POPC   C3A40469  20.493  29.634   6.911
 2912POPC   C4A40470  20.519  29.925   7.162
 2912POPC   C1B40471  20.382  30.108   6.210
 2912POPC   C2B40472  20.432  30.098   6.649
 2912POPC   C3B40473  20.839  30.065   6.806
 2912POPC   C4B40474  20.976  30.138   7.213
 2913POPC   NC340475  10.098  21.663   5.566
 2913POPC   PO440476   9.723  21.058   5.346
 2913POPC   GL140477   9.782  21.272   5.732
 2913POPC   GL240478  10.088  21.196   5.775
 2913POPC   C1A40479   9.826  21.487   6.164
 2913POPC   D2A40480   9.966  21.298   6.551
 2913POPC   C3A40481   9.877  21.433   6.973
 2913POPC   C4A40482   9.864  21.563   7.422
 2913POPC   C1B40483  10.249  21.056   6.159
 2913POPC   C2B40484  10.223  20.850   6.559
 2913POPC   C3B40485  10.292  21.103   6.925
 2913POPC   C4B40486  10.113  21.119   7.288
 2914POPC   NC340487  18.728   3.643   5.525
 2914POPC   PO440488  19.227   3.231   5.419
 2914POPC   GL140489  19.092   3.420   5.809
 2914POPC   GL240490  18.780   3.234   5.867
 2914POPC   C1A40491  19.212   3.540   6.235
 2914POPC   D2A40492  19.036   3.271   6.593
 2914POPC   C3A40493  19.153   3.507   6.983
 2914POPC   C4A40494  19.280   3.399   7.383
 2914POPC   C1B40495  18.732   3.441   6.213
 2914POPC   C2B40496  18.765   3.687   6.613
 2914POPC   C3B40497  18.645   3.477   6.986
 2914POPC   C4B40498  18.814   3.597   7.389
 2915POPC   NC340499  25.859  42.080   5.285
 2915POPC   PO440500  26.219  41.493   5.268
 2915POPC   GL140501  26.091  41.747   5.637
 2915POPC   GL240502  26.058  41.464   5.841
 2915POPC   C1A40503  26.217  41.949   6.048
 2915POPC   D2A40504  26.242  41.895   6.515
 2915POPC   C3A40505  25.964  41.853   6.871
 2915POPC   C4A40506  26.120  41.774   7.300
 2915POPC   C1B40507  25.894  41.579   6.241
 2915POPC   C2B40508  26.047  41.402   6.609
 2915POPC   C3B40509  25.983  41.345   7.026
 2915POPC   C4B40510  25.946  41.303   7.452
 2916POPC   NC340511  41.534   4.424   5.224
 2916POPC   PO440512  42.113   4.580   5.480
 2916POPC   GL140513  41.719   4.535   5.693
 2916POPC   GL240514  41.572   4.182   5.685
 2916POPC   C1A40515  41.632   4.513   6.136
 2916POPC   D2A40516  41.282   4.500   6.440
 2916POPC   C3A40517  41.233   4.290   6.858
 2916POPC   C4A40518  41.492   4.287   7.247
 2916POPC   C1B40519  41.561   4.001   6.099
 2916POPC   C2B40520  41.378   3.947   6.489
 2916POPC   C3B40521  41.546   3.881   6.913
 2916POPC   C4B40522  41.644   3.812   7.357
 2917POPC   NC340523  12.005  22.682   5.457
 2917POPC   PO440524  12.345  23.357   5.485
 2917POPC   GL140525  12.155  23.105   5.818
 2917POPC   GL240526  12.064  22.774   5.935
 2917POPC   C1A40527  12.339  23.045   6.250
 2917POPC   D2A40528  12.186  22.835   6.582
 2917POPC   C3A40529  12.337  23.076   6.931
 2917POPC   C4A40530  12.245  22.912   7.302
 2917POPC   C1B40531  11.791  22.919   6.230
 2917POPC   C2B40532  11.611  22.845   6.605
 2917POPC   C3B40533  11.841  22.896   6.958
 2917POPC   C4B40534  11.780  22.732   7.325
 2918POPC   NC340535  38.067  15.844   5.200
 2918POPC   PO440536  38.664  15.900   5.445
 2918POPC   GL140537  38.750  16.065   5.846
 2918POPC   GL240538  39.034  15.809   5.930
 2918POPC   C1A40539  38.462  16.078   6.207
 2918POPC   D2A40540  38.276  15.694   6.414
 2918POPC   C3A40541  38.059  15.796   6.777
 2918POPC   C4A40542  38.267  15.899   7.150
 2918POPC   C1B40543  38.811  15.724   6.287
 2918POPC   C2B40544  38.667  15.921   6.659
 2918POPC   C3B40545  38.766  15.753   7.019
 2918POPC   C4B40546  39.058  15.753   7.326
 2919POPC   NC340547   6.724  44.918   5.257
 2919POPC   PO440548   6.572   0.563   5.157
 2919POPC   GL140549   6.598   0.540   5.669
 2919POPC   GL240550   6.632   0.194   5.763
 2919POPC   C1A40551   6.714   0.625   6.144
 2919POPC   D2A40552   6.516   0.549   6.604
 2919POPC   C3A40553   6.568   0.693   7.083
 2919POPC   C4A40554   6.590   0.829   7.559
 2919POPC   C1B40555   6.455   0.195   6.188
 2919POPC   C2B40556   6.293   0.085   6.578
 2919POPC   C3B40557   6.395   0.185   6.966
 2919POPC   C4B40558   6.642   0.220   7.300
 2920POPC   NC340559   1.677  20.200   5.365
 2920POPC   PO440560   1.913  20.901   5.497
 2920POPC   GL140561   1.909  20.654   5.850
 2920POPC   GL240562   1.959  20.279   5.774
 2920POPC   C1A40563   1.830  20.665   6.299
 2920POPC   D2A40564   1.965  20.642   6.726
 2920POPC   C3A40565   1.793  20.578   7.107
 2920POPC   C4A40566   2.100  20.819   7.265
 2920POPC   C1B40567   2.223  20.339   6.119
 2920POPC   C2B40568   2.197  20.220   6.542
 2920POPC   C3B40569   2.191  20.243   7.000
 2920POPC   C4B40570   1.866  20.068   7.221
 2921POPC   NC340571  37.108  10.672   5.640
 2921POPC   PO440572  36.548  10.386   5.352
 2921POPC   GL140573  36.591  10.340   5.792
 2921POPC   GL240574  36.916  10.212   5.849
 2921POPC   C1A40575  36.592  10.610   6.170
 2921POPC   D2A40576  36.837  10.770   6.533
 2921POPC   C3A40577  36.891  10.581   6.940
 2921POPC   C4A40578  36.660  10.388   7.319
 2921POPC   C1B40579  37.021  10.355   6.216
 2921POPC   C2B40580  36.782  10.247   6.531
 2921POPC   C3B40581  36.793  10.080   6.891
 2921POPC   C4B40582  37.146  10.190   7.168
 2922POPC   NC340583  16.964  14.552   5.436
 2922POPC   PO440584  16.826  13.927   5.338
 2922POPC   GL140585  16.557  14.008   5.733
 2922POPC   GL240586  16.826  14.235   5.826
 2922POPC   C1A40587  16.485  14.190   6.199
 2922POPC   D2A40588  16.797  14.358   6.516
 2922POPC   C3A40589  16.754  14.220   6.941
 2922POPC   C4A40590  16.358  14.253   7.134
 2922POPC   C1B40591  16.738  14.625   6.064
 2922POPC   C2B40592  16.415  14.696   6.373
 2922POPC   C3B40593  16.428  14.673   6.816
 2922POPC   C4B40594  16.675  14.682   7.198
 2923POPC   NC340595  23.200  13.587   5.510
 2923POPC   PO440596  22.779  14.099   5.466
 2923POPC   GL140597  22.871  13.881   5.868
 2923POPC   GL240598  22.970  13.509   5.983
 2923POPC   C1A40599  23.003  13.927   6.262
 2923POPC   D2A40600  23.015  13.678   6.609
 2923POPC   C3A40601  22.760  13.750   6.969
 2923POPC   C4A40602  23.084  13.794   7.207
 2923POPC   C1B40603  23.252  13.255   6.259
 2923POPC   C2B40604  23.473  13.384   6.621
 2923POPC   C3B40605  23.368  13.374   7.027
 2923POPC   C4B40606  23.294  13.028   7.296
 2924POPC   NC340607  27.471  27.663   5.364
 2924POPC   PO440608  27.545  27.067   5.576
 2924POPC   GL140609  27.623  27.481   5.824
 2924POPC   GL240610  27.361  27.776   5.850
 2924POPC   C1A40611  27.661  27.670   6.244
 2924POPC   D2A40612  27.451  27.688   6.629
 2924POPC   C3A40613  27.643  27.567   7.006
 2924POPC   C4A40614  27.537  27.249   7.287
 2924POPC   C1B40615  27.106  27.801   6.235
 2924POPC   C2B40616  27.012  27.927   6.683
 2924POPC   C3B40617  27.251  27.903   7.073
 2924POPC   C4B40618  27.395  27.709   7.460
 2925POPC   NC340619  39.899  31.630   5.493
 2925POPC   PO440620  40.452  31.156   5.519
 2925POPC   GL140621  40.175  31.332   5.841
 2925POPC   GL240622  39.807  31.264   5.869
 2925POPC   C1A40623  40.040  31.592   6.200
 2925POPC   D2A40624  39.818  31.740   6.560
 2925POPC   C3A40625  39.971  31.573   6.965
 2925POPC   C4A40626  40.366  31.694   7.219
 2925POPC   C1B40627  39.581  31.335   6.283
 2925POPC   C2B40628  39.533  31.363   6.765
 2925POPC   C3B40629  39.539  31.350   7.233
 2925POPC   C4B40630  39.742  31.235   7.671
 2926POPC   NC340631  10.836  12.639   5.429
 2926POPC   PO440632  11.476  12.854   5.330
 2926POPC   GL140633  11.232  12.865   5.697
 2926POPC   GL240634  11.244  12.542   5.726
 2926POPC   C1A40635  11.184  12.969   6.124
 2926POPC   D2A40636  11.254  13.160   6.507
 2926POPC   C3A40637  11.238  12.897   6.859
 2926POPC   C4A40638  11.334  12.894   7.261
 2926POPC   C1B40639  11.494  12.570   6.087
 2926POPC   C2B40640  11.544  12.746   6.486
 2926POPC   C3B40641  11.645  12.571   6.892
 2926POPC   C4B40642  11.482  12.392   7.284
 2927POPC   NC340643  19.311  14.162   5.140
 2927POPC   PO440644  18.888  14.544   5.465
 2927POPC   GL140645  19.087  14.551   5.868
 2927POPC   GL240646  18.923  14.859   5.893
 2927POPC   C1A40647  19.378  14.496   6.234
 2927POPC   D2A40648  19.575  14.512   6.646
 2927POPC   C3A40649  19.344  14.247   6.944
 2927POPC   C4A40650  19.027  14.072   7.256
 2927POPC   C1B40651  18.940  14.759   6.316
 2927POPC   C2B40652  18.999  14.550   6.704
 2927POPC   C3B40653  18.959  14.564   7.143
 2927POPC   C4B40654  19.055  14.841   7.474
 2928POPC   NC340655   1.020  36.469   5.684
 2928POPC   PO440656   1.326  35.978   5.462
 2928POPC   GL140657   1.298  36.043   5.845
 2928POPC   GL240658   1.492  36.309   5.889
 2928POPC   C1A40659   1.216  35.893   6.224
 2928POPC   D2A40660   1.165  36.048   6.648
 2928POPC   C3A40661   1.435  36.014   7.010
 2928POPC   C4A40662   1.209  35.940   7.391
 2928POPC   C1B40663   1.294  36.406   6.295
 2928POPC   C2B40664   1.348  36.534   6.731
 2928POPC   C3B40665   1.340  36.589   7.187
 2928POPC   C4B40666   1.159  36.432   7.560
 2929POPC   NC340667  44.270   0.079   5.456
 2929POPC   PO440668  43.733   0.386   5.528
 2929POPC   GL140669  43.958   0.249   5.834
 2929POPC   GL240670  43.928   0.562   5.966
 2929POPC   C1A40671  44.092   0.176   6.236
 2929POPC   D2A40672  43.924   0.482   6.530
 2929POPC   C3A40673  44.022   0.400   6.979
 2929POPC   C4A40674  43.755   0.145   7.254
 2929POPC   C1B40675  43.549   0.529   6.138
 2929POPC   C2B40676  43.433   0.704   6.503
 2929POPC   C3B40677  43.553   0.590   6.875
 2929POPC   C4B40678  43.423   0.542   7.242
 2930POPC   NC340679  38.487  17.490   5.319
 2930POPC   PO440680  38.879  17.893   5.685
 2930POPC   GL140681  38.528  17.661   5.862
 2930POPC   GL240682  38.348  17.310   5.774
 2930POPC   C1A40683  38.444  17.820   6.278
 2930POPC   D2A40684  38.160  17.937   6.598
 2930POPC   C3A40685  38.389  17.865   6.935
 2930POPC   C4A40686  38.585  17.672   7.216
 2930POPC   C1B40687  38.192  17.390   6.184
 2930POPC   C2B40688  38.326  17.429   6.611
 2930POPC   C3B40689  38.199  17.342   7.026
 2930POPC   C4B40690  38.367  16.982   7.264
 2931POPC   NC340691  28.031   8.501   5.057
 2931POPC   PO440692  28.292   8.978   5.557
 2931POPC   GL140693  28.059   8.904   5.958
 2931POPC   GL240694  28.212   9.213   6.067
 2931POPC   C1A40695  27.961   8.931   6.402
 2931POPC   D2A40696  28.247   9.145   6.662
 2931POPC   C3A40697  28.231   9.109   7.086
 2931POPC   C4A40698  28.377   8.761   7.239
 2931POPC   C1B40699  28.558   8.969   6.259
 2931POPC   C2B40700  28.787   9.124   6.622
 2931POPC   C3B40701  28.801   9.034   7.063
 2931POPC   C4B40702  28.633   9.184   7.453
 2932POPC   NC340703  33.274  35.276   5.573
 2932POPC   PO440704  33.860  35.566   5.361
 2932POPC   GL140705  33.830  35.498   5.799
 2932POPC   GL240706  34.012  35.165   5.810
 2932POPC   C1A40707  33.717  35.646   6.259
 2932POPC   D2A40708  33.745  35.762   6.686
 2932POPC   C3A40709  33.652  35.487   7.042
 2932POPC   C4A40710  33.672  35.620   7.476
 2932POPC   C1B40711  33.858  35.181   6.192
 2932POPC   C2B40712  33.656  35.227   6.581
 2932POPC   C3B40713  33.582  34.893   6.817
 2932POPC   C4B40714  33.669  35.000   7.183
 2933POPC   NC340715  18.808  28.071   5.647
 2933POPC   PO440716  18.134  28.016   5.469
 2933POPC   GL140717  18.018  28.120   5.846
 2933POPC   GL240718  18.330  28.287   5.873
 2933POPC   C1A40719  18.003  28.312   6.254
 2933POPC   D2A40720  18.090  28.522   6.645
 2933POPC   C3A40721  18.047  28.321   7.043
 2933POPC   C4A40722  18.074  28.286   7.477
 2933POPC   C1B40723  18.548  28.210   6.252
 2933POPC   C2B40724  18.623  28.399   6.626
 2933POPC   C3B40725  18.834  28.347   7.014
 2933POPC   C4B40726  18.547  28.393   7.364
 2934POPC   NC340727  10.449  44.912   5.626
 2934POPC   PO440728  10.693  44.371   5.397
 2934POPC   GL140729  10.613  44.460   5.829
 2934POPC   GL240730  10.274  44.449   5.832
 2934POPC   C1A40731  10.552  44.648   6.255
 2934POPC   D2A40732  10.389  44.792   6.661
 2934POPC   C3A40733  10.527  44.625   7.006
 2934POPC   C4A40734  10.744  44.357   7.292
 2934POPC   C1B40735  10.169  44.295   6.232
 2934POPC   C2B40736  10.290  44.161   6.647
 2934POPC   C3B40737  10.220  44.116   7.090
 2934POPC   C4B40738  10.292  44.232   7.520
 2935POPC   NC340739   4.074   1.406   5.452
 2935POPC   PO440740   4.689   1.233   5.445
 2935POPC   GL140741   4.508   1.494   5.772
 2935POPC   GL240742   4.358   1.190   5.836
 2935POPC   C1A40743   4.236   1.554   6.148
 2935POPC   D2A40744   4.317   1.358   6.541
 2935POPC   C3A40745   4.230   1.568   6.920
 2935POPC   C4A40746   4.431   1.557   7.302
 2935POPC   C1B40747   4.174   1.019   6.188
 2935POPC   C2B40748   4.273   0.847   6.572
 2935POPC   C3B40749   4.124   1.046   6.917
 2935POPC   C4B40750   4.291   1.069   7.290
 2936POPC   NC340751  31.006  12.335   5.124
 2936POPC   PO440752  30.712  11.757   5.360
 2936POPC   GL140753  30.812  11.964   5.716
 2936POPC   GL240754  30.479  12.035   5.766
 2936POPC   C1A40755  30.934  12.088   6.136
 2936POPC   D2A40756  31.160  12.091   6.553
 2936POPC   C3A40757  30.914  12.156   6.926
 2936POPC   C4A40758  30.576  12.235   7.189
 2936POPC   C1B40759  30.494  11.802   6.145
 2936POPC   C2B40760  30.644  11.919   6.552
 2936POPC   C3B40761  30.577  11.758   6.959
 2936POPC   C4B40762  30.210  11.851   7.174
 2937POPC   NC340763  43.884  16.353   5.294
 2937POPC   PO440764  43.607  16.915   5.284
 2937POPC   GL140765  43.761  16.728   5.687
 2937POPC   GL240766  43.522  16.479   5.740
 2937POPC   C1A40767  43.987  16.825   6.083
 2937POPC   D2A40768  44.048  16.724   6.515
 2937POPC   C3A40769  44.185  16.992   6.844
 2937POPC   C4A40770  44.227  16.775   7.230
 2937POPC   C1B40771  43.521  16.539   6.196
 2937POPC   C2B40772  43.535  16.773   6.596
 2937POPC   C3B40773  43.760  16.719   6.987
 2937POPC   C4B40774  43.739  16.916   7.381
 2938POPC   NC340775  36.297  13.168   5.600
 2938POPC   PO440776  35.659  13.105   5.526
 2938POPC   GL140777  35.935  12.854   5.815
 2938POPC   GL240778  36.281  12.666   5.772
 2938POPC   C1A40779  36.095  13.025   6.206
 2938POPC   D2A40780  35.978  12.887   6.574
 2938POPC   C3A40781  36.192  13.013   6.911
 2938POPC   C4A40782  35.957  13.187   7.232
 2938POPC   C1B40783  36.147  12.531   6.204
 2938POPC   C2B40784  36.008  12.377   6.614
 2938POPC   C3B40785  35.923  12.579   6.994
 2938POPC   C4B40786  36.170  12.728   7.317
 2939POPC   NC340787  37.424  32.874   5.448
 2939POPC   PO440788  37.909  33.352   5.503
 2939POPC   GL140789  37.740  33.113   5.794
 2939POPC   GL240790  37.995  32.881   5.719
 2939POPC   C1A40791  37.573  33.135   6.215
 2939POPC   D2A40792  37.818  33.116   6.592
 2939POPC   C3A40793  37.612  33.056   6.988
 2939POPC   C4A40794  37.827  33.284   7.303
 2939POPC   C1B40795  37.961  32.804   6.143
 2939POPC   C2B40796  37.958  32.616   6.535
 2939POPC   C3B40797  38.061  32.791   6.970
 2939POPC   C4B40798  37.930  32.680   7.406
 2940POPC   NC340799  13.149  36.483   5.447
 2940POPC   PO440800  12.743  35.956   5.222
 2940POPC   GL140801  12.721  36.026   5.701
 2940POPC   GL240802  12.679  36.409   5.719
 2940POPC   C1A40803  12.900  36.019   6.183
 2940POPC   D2A40804  13.027  36.222   6.615
 2940POPC   C3A40805  13.028  36.052   7.074
 2940POPC   C4A40806  13.106  36.225   7.540
 2940POPC   C1B40807  12.459  36.257   6.086
 2940POPC   C2B40808  12.499  36.095   6.505
 2940POPC   C3B40809  12.582  36.275   6.901
 2940POPC   C4B40810  12.662  36.294   7.317
 2941POPC   NC340811  13.109  27.041   5.280
 2941POPC   PO440812  13.200  26.400   5.446
 2941POPC   GL140813  13.037  26.642   5.785
 2941POPC   GL240814  13.096  26.993   5.795
 2941POPC   C1A40815  13.205  26.706   6.222
 2941POPC   D2A40816  13.029  26.815   6.605
 2941POPC   C3A40817  13.221  26.786   6.990
 2941POPC   C4A40818  12.982  26.541   7.305
 2941POPC   C1B40819  13.056  27.201   6.227
 2941POPC   C2B40820  12.921  27.308   6.695
 2941POPC   C3B40821  12.877  27.174   7.153
 2941POPC   C4B40822  12.949  27.412   7.546
 2942POPC   NC340823  30.215  38.297   5.492
 2942POPC   PO440824  29.508  38.216   5.386
 2942POPC   GL140825  29.587  38.476   5.807
 2942POPC   GL240826  29.810  38.725   6.017
 2942POPC   C1A40827  29.511  38.432   6.290
 2942POPC   D2A40828  29.583  38.341   6.717
 2942POPC   C3A40829  29.789  38.634   6.960
 2942POPC   C4A40830  29.799  38.405   7.344
 2942POPC   C1B40831  30.015  38.370   6.290
 2942POPC   C2B40832  30.112  38.306   6.716
 2942POPC   C3B40833  30.276  38.461   7.111
 2942POPC   C4B40834  30.237  38.335   7.582
 2943POPC   NC340835  37.341  29.746   5.641
 2943POPC   PO440836  37.575  30.165   5.068
 2943POPC   GL140837  37.854  30.082   5.569
 2943POPC   GL240838  37.986  29.756   5.617
 2943POPC   C1A40839  37.820  30.128   6.071
 2943POPC   D2A40840  37.476  29.959   6.403
 2943POPC   C3A40841  37.543  29.956   6.885
 2943POPC   C4A40842  37.768  30.184   7.216
 2943POPC   C1B40843  37.928  29.633   6.077
 2943POPC   C2B40844  37.943  29.760   6.531
 2943POPC   C3B40845  38.061  29.706   6.955
 2943POPC   C4B40846  37.919  29.695   7.373
 2944POPC   NC340847  40.844  30.897   5.536
 2944POPC   PO440848  41.062  31.500   5.254
 2944POPC   GL140849  41.002  31.409   5.760
 2944POPC   GL240850  40.729  31.184   5.933
 2944POPC   C1A40851  41.040  31.393   6.261
 2944POPC   D2A40852  40.837  31.250   6.674
 2944POPC   C3A40853  40.850  31.607   6.972
 2944POPC   C4A40854  40.916  31.671   7.429
 2944POPC   C1B40855  40.461  31.279   6.267
 2944POPC   C2B40856  40.369  31.506   6.631
 2944POPC   C3B40857  40.363  31.248   6.962
 2944POPC   C4B40858  40.655  31.223   7.238
 2945POPC   NC340859  17.665  41.347   5.296
 2945POPC   PO440860  17.383  41.892   5.453
 2945POPC   GL140861  17.424  41.549   5.736
 2945POPC   GL240862  17.739  41.649   5.775
 2945POPC   C1A40863  17.378  41.468   6.199
 2945POPC   D2A40864  17.238  41.705   6.583
 2945POPC   C3A40865  17.457  41.567   6.945
 2945POPC   C4A40866  17.412  41.354   7.362
 2945POPC   C1B40867  17.934  41.585   6.171
 2945POPC   C2B40868  17.887  41.464   6.605
 2945POPC   C3B40869  17.937  41.730   6.963
 2945POPC   C4B40870  17.755  41.698   7.351
 2946POPC   NC340871  24.816  14.361   5.657
 2946POPC   PO440872  24.408  14.215   5.169
 2946POPC   GL140873  24.259  14.260   5.669
 2946POPC   GL240874  24.376  14.556   5.877
 2946POPC   C1A40875  24.285  14.146   6.168
 2946POPC   D2A40876  24.630  14.092   6.523
 2946POPC   C3A40877  24.707  14.131   6.999
 2946POPC   C4A40878  24.331  14.326   7.180
 2946POPC   C1B40879  24.564  14.563   6.314
 2946POPC   C2B40880  24.557  14.559   6.771
 2946POPC   C3B40881  24.723  14.694   7.171
 2946POPC   C4B40882  24.923  14.856   7.573
 2947POPC   NC340883   2.401  35.748   5.111
 2947POPC   PO440884   2.586  35.171   5.492
 2947POPC   GL140885   2.882  35.379   5.810
 2947POPC   GL240886   2.619  35.368   6.016
 2947POPC   C1A40887   2.951  35.642   6.238
 2947POPC   D2A40888   2.698  35.480   6.605
 2947POPC   C3A40889   2.820  35.646   6.975
 2947POPC   C4A40890   3.027  35.607   7.341
 2947POPC   C1B40891   2.803  35.088   6.296
 2947POPC   C2B40892   2.663  34.984   6.716
 2947POPC   C3B40893   2.912  35.146   7.073
 2947POPC   C4B40894   2.703  35.238   7.455
 2948POPC   NC340895  34.638  23.806   5.343
 2948POPC   PO440896  35.081  24.193   5.388
 2948POPC   GL140897  34.929  23.874   5.790
 2948POPC   GL240898  34.586  23.690   5.843
 2948POPC   C1A40899  34.889  23.586   6.226
 2948POPC   D2A40900  34.679  23.600   6.664
 2948POPC   C3A40901  34.811  23.421   7.085
 2948POPC   C4A40902  34.721  23.505   7.522
 2948POPC   C1B40903  34.339  23.529   6.243
 2948POPC   C2B40904  34.170  23.532   6.700
 2948POPC   C3B40905  34.348  23.660   7.133
 2948POPC   C4B40906  34.253  23.716   7.592
 2949POPC   NC340907   1.712   8.481   5.462
 2949POPC   PO440908   2.138   9.084   5.388
 2949POPC   GL140909   2.124   8.814   5.760
 2949POPC   GL240910   2.354   8.507   5.793
 2949POPC   C1A40911   1.917   8.943   6.154
 2949POPC   D2A40912   2.039   9.201   6.519
 2949POPC   C3A40913   1.811   9.137   6.897
 2949POPC   C4A40914   1.890   9.251   7.289
 2949POPC   C1B40915   2.293   8.624   6.234
 2949POPC   C2B40916   2.091   8.711   6.650
 2949POPC   C3B40917   1.888   8.638   7.054
 2949POPC   C4B40918   1.787   8.766   7.485
 2950POPC   NC340919  15.283   1.515   5.172
 2950POPC   PO440920  14.712   1.077   5.304
 2950POPC   GL140921  14.904   1.271   5.698
 2950POPC   GL240922  15.288   1.299   5.747
 2950POPC   C1A40923  14.977   1.255   6.154
 2950POPC   D2A40924  14.860   1.360   6.563
 2950POPC   C3A40925  15.176   1.278   6.892
 2950POPC   C4A40926  15.070   1.168   7.306
 2950POPC   C1B40927  15.430   1.509   6.167
 2950POPC   C2B40928  15.288   1.677   6.579
 2950POPC   C3B40929  15.486   1.666   7.009
 2950POPC   C4B40930  15.541   1.350   7.294
 2951POPC   NC340931  16.965  10.657   5.563
 2951POPC   PO440932  17.407  10.191   5.415
 2951POPC   GL140933  17.349  10.415   5.825
 2951POPC   GL240934  17.337  10.771   5.895
 2951POPC   C1A40935  17.460  10.266   6.253
 2951POPC   D2A40936  17.661  10.131   6.632
 2951POPC   C3A40937  17.525  10.274   7.015
 2951POPC   C4A40938  17.637  10.694   7.191
 2951POPC   C1B40939  17.367  10.745   6.340
 2951POPC   C2B40940  17.295  10.770   6.765
 2951POPC   C3B40941  17.103  10.570   7.097
 2951POPC   C4B40942  17.206  10.612   7.530
 2952POPC   NC340943  28.073  12.776   5.477
 2952POPC   PO440944  27.452  12.923   5.349
 2952POPC   GL140945  27.586  12.741   5.723
 2952POPC   GL240946  27.782  13.033   5.805
 2952POPC   C1A40947  27.739  12.608   6.139
 2952POPC   D2A40948  27.956  12.617   6.533
 2952POPC   C3A40949  27.802  12.461   6.920
 2952POPC   C4A40950  27.815  12.680   7.282
 2952POPC   C1B40951  27.447  13.082   6.097
 2952POPC   C2B40952  27.561  12.960   6.493
 2952POPC   C3B40953  27.667  12.986   6.907
 2952POPC   C4B40954  27.514  13.085   7.320
 2953POPC   NC340955  43.643  41.102   5.451
 2953POPC   PO440956  44.149  40.624   5.511
 2953POPC   GL140957  44.069  40.918   5.830
 2953POPC   GL240958  43.725  40.817   5.880
 2953POPC   C1A40959  44.061  40.897   6.287
 2953POPC   D2A40960  44.041  40.697   6.707
 2953POPC   C3A40961  43.763  40.871   7.019
 2953POPC   C4A40962  43.899  41.096   7.324
 2953POPC   C1B40963  43.562  40.751   6.296
 2953POPC   C2B40964  43.418  40.653   6.692
 2953POPC   C3B40965  43.435  40.485   7.124
 2953POPC   C4B40966  43.612  40.715   7.514
 2954POPC   NC340967  41.411  16.543   5.038
 2954POPC   PO440968  41.722  16.784   5.609
 2954POPC   GL140969  41.598  16.848   5.952
 2954POPC   GL240970  41.250  16.903   5.949
 2954POPC   C1A40971  41.784  16.787   6.331
 2954POPC   D2A40972  41.666  16.969   6.694
 2954POPC   C3A40973  41.649  16.704   7.024
 2954POPC   C4A40974  41.601  16.857   7.452
 2954POPC   C1B40975  41.255  16.639   6.308
 2954POPC   C2B40976  41.209  16.653   6.734
 2954POPC   C3B40977  41.158  16.816   7.131
 2954POPC   C4B40978  41.220  16.553   7.471
 2955POPC   NC340979  28.052  32.523   5.652
 2955POPC   PO440980  28.651  32.193   5.522
 2955POPC   GL140981  28.519  32.052   5.893
 2955POPC   GL240982  28.406  32.370   5.977
 2955POPC   C1A40983  28.509  32.048   6.349
 2955POPC   D2A40984  28.491  32.408   6.635
 2955POPC   C3A40985  28.541  32.261   7.054
 2955POPC   C4A40986  28.221  32.014   7.258
 2955POPC   C1B40987  28.087  32.432   6.298
 2955POPC   C2B40988  27.914  32.543   6.679
 2955POPC   C3B40989  28.000  32.449   7.090
 2955POPC   C4B40990  28.257  32.497   7.417
 2956POPC   NC340991  24.491   0.044   5.402
 2956POPC   PO440992  24.860  44.485   5.178
 2956POPC   GL140993  24.580  44.547   5.625
 2956POPC   GL240994  24.314  44.780   5.824
 2956POPC   C1A40995  24.645  44.555   6.116
 2956POPC   D2A40996  24.419  44.624   6.518
 2956POPC   C3A40997  24.594  44.461   6.908
 2956POPC   C4A40998  24.692  44.487   7.370
 2956POPC   C1B40999  24.095  44.489   6.116
 2956POPC   C2B41000  23.882  44.545   6.528
 2956POPC   C3B41001  24.075  44.623   6.909
 2956POPC   C4B41002  24.210  44.447   7.279
 2957POPC   NC341003  37.944  36.225   5.432
 2957POPC   PO441004  37.531  35.680   5.424
 2957POPC   GL141005  37.538  35.895   5.815
 2957POPC   GL241006  37.569  36.267   5.801
 2957POPC   C1A41007  37.607  35.953   6.251
 2957POPC   D2A41008  37.712  35.820   6.663
 2957POPC   C3A41009  37.500  36.007   7.034
 2957POPC   C4A41010  37.412  35.756   7.410
 2957POPC   C1B41011  37.762  36.436   6.173
 2957POPC   C2B41012  37.868  36.307   6.569
 2957POPC   C3B41013  38.032  36.154   6.937
 2957POPC   C4B41014  37.847  36.360   7.252
 2958POPC   NC341015  33.524  10.033   5.488
 2958POPC   PO441016  34.159   9.962   5.524
 2958POPC   GL141017  33.862   9.702   5.727
 2958POPC   GL241018  33.783   9.967   5.953
 2958POPC   C1A41019  33.802   9.508   6.131
 2958POPC   D2A41020  33.699   9.680   6.533
 2958POPC   C3A41021  33.998   9.634   6.863
 2958POPC   C4A41022  33.846   9.587   7.236
 2958POPC   C1B41023  34.117   9.898   6.307
 2958POPC   C2B41024  34.033  10.111   6.730
 2958POPC   C3B41025  33.672  10.047   7.060
 2958POPC   C4B41026  33.699  10.004   7.561
 2959POPC   NC341027   8.160   7.277   5.309
 2959POPC   PO441028   8.167   7.943   5.454
 2959POPC   GL141029   8.071   7.608   5.707
 2959POPC   GL241030   8.355   7.462   5.818
 2959POPC   C1A41031   7.914   7.399   6.109
 2959POPC   D2A41032   8.023   7.322   6.557
 2959POPC   C3A41033   8.085   7.446   6.991
 2959POPC   C4A41034   7.868   7.293   7.352
 2959POPC   C1B41035   8.252   7.750   6.192
 2959POPC   C2B41036   8.365   7.724   6.657
 2959POPC   C3B41037   8.506   7.758   7.124
 2959POPC   C4B41038   8.527   7.784   7.608
 2960POPC   NC341039  11.318   1.417   5.461
 2960POPC   PO441040  11.157   0.820   5.640
 2960POPC   GL141041  11.521   0.995   5.836
 2960POPC   GL241042  11.602   1.349   5.874
 2960POPC   C1A41043  11.547   0.979   6.253
 2960POPC   D2A41044  11.318   1.215   6.527
 2960POPC   C3A41045  11.382   1.025   6.903
 2960POPC   C4A41046  11.353   1.083   7.312
 2960POPC   C1B41047  11.753   1.447   6.293
 2960POPC   C2B41048  11.773   1.359   6.718
 2960POPC   C3B41049  11.658   1.459   7.113
 2960POPC   C4B41050  11.690   1.391   7.565
 2961POPC   NC341051   5.584  27.896   5.424
 2961POPC   PO441052   5.437  28.562   5.401
 2961POPC   GL141053   5.377  28.408   5.839
 2961POPC   GL241054   5.327  28.057   5.925
 2961POPC   C1A41055   5.200  28.556   6.239
 2961POPC   D2A41056   4.838  28.462   6.558
 2961POPC   C3A41057   4.890  28.475   7.035
 2961POPC   C4A41058   5.074  28.484   7.484
 2961POPC   C1B41059   5.216  28.080   6.372
 2961POPC   C2B41060   5.297  28.333   6.738
 2961POPC   C3B41061   5.286  28.153   7.148
 2961POPC   C4B41062   5.368  27.929   7.522
 2962POPC   NC341063  13.889  32.510   5.530
 2962POPC   PO441064  13.252  32.287   5.495
 2962POPC   GL141065  13.537  32.283   5.846
 2962POPC   GL241066  13.757  32.012   5.937
 2962POPC   C1A41067  13.518  32.434   6.260
 2962POPC   D2A41068  13.490  32.689   6.629
 2962POPC   C3A41069  13.551  32.448   6.945
 2962POPC   C4A41070  13.377  32.367   7.297
 2962POPC   C1B41071  13.896  32.083   6.348
 2962POPC   C2B41072  13.841  32.057   6.779
 2962POPC   C3B41073  14.012  32.297   7.134
 2962POPC   C4B41074  13.827  32.435   7.506
 2963POPC   NC341075   8.693  42.025   5.533
 2963POPC   PO441076   8.883  41.440   5.262
 2963POPC   GL141077   8.907  41.524   5.727
 2963POPC   GL241078   8.593  41.638   5.834
 2963POPC   C1A41079   9.061  41.421   6.182
 2963POPC   D2A41080   9.268  41.246   6.592
 2963POPC   C3A41081   9.054  41.398   6.985
 2963POPC   C4A41082   8.736  41.352   7.277
 2963POPC   C1B41083   8.704  41.790   6.247
 2963POPC   C2B41084   8.642  41.655   6.661
 2963POPC   C3B41085   8.754  41.812   7.052
 2963POPC   C4B41086   8.868  41.851   7.473
 2964POPC   NC341087   5.571  42.681   5.026
 2964POPC   PO441088   6.003  43.054   5.525
 2964POPC   GL141089   5.899  43.254   5.882
 2964POPC   GL241090   6.076  43.544   5.821
 2964POPC   C1A41091   5.637  43.488   6.166
 2964POPC   D2A41092   5.446  43.426   6.582
 2964POPC   C3A41093   5.794  43.305   6.879
 2964POPC   C4A41094   5.890  43.132   7.300
 2964POPC   C1B41095   6.288  43.467   6.210
 2964POPC   C2B41096   6.307  43.566   6.641
 2964POPC   C3B41097   6.303  43.360   7.058
 2964POPC   C4B41098   6.348  43.284   7.496
 2965POPC   NC341099  10.061  21.338   5.196
 2965POPC   PO441100  10.572  21.624   5.525
 2965POPC   GL141101  10.536  21.405   5.896
 2965POPC   GL241102  10.303  21.616   6.018
 2965POPC   C1A41103  10.621  21.386   6.349
 2965POPC   D2A41104  10.926  21.460   6.659
 2965POPC   C3A41105  10.716  21.382   7.006
 2965POPC   C4A41106  10.640  21.323   7.421
 2965POPC   C1B41107  10.236  21.752   6.412
 2965POPC   C2B41108  10.335  21.597   6.767
 2965POPC   C3B41109  10.305  21.654   7.193
 2965POPC   C4B41110  10.388  21.775   7.621
 2966POPC   NC341111  15.571  30.315   5.639
 2966POPC   PO441112  15.975  30.829   5.461
 2966POPC   GL141113  15.935  30.641   5.848
 2966POPC   GL241114  16.097  30.346   5.834
 2966POPC   C1A41115  15.793  30.653   6.270
 2966POPC   D2A41116  15.866  30.963   6.567
 2966POPC   C3A41117  15.830  30.921   6.996
 2966POPC   C4A41118  15.925  30.804   7.402
 2966POPC   C1B41119  16.295  30.307   6.257
 2966POPC   C2B41120  16.103  30.476   6.651
 2966POPC   C3B41121  16.107  30.452   7.105
 2966POPC   C4B41122  16.132  30.380   7.581
 2967POPC   NC341123  12.989  32.024   5.206
 2967POPC   PO441124  12.717  31.444   5.445
 2967POPC   GL141125  12.915  31.406   5.830
 2967POPC   GL241126  12.864  31.769   5.851
 2967POPC   C1A41127  13.080  31.252   6.222
 2967POPC   D2A41128  13.103  31.372   6.652
 2967POPC   C3A41129  12.742  31.337   6.921
 2967POPC   C4A41130  12.721  31.378   7.364
 2967POPC   C1B41131  12.860  31.771   6.292
 2967POPC   C2B41132  12.723  31.978   6.667
 2967POPC   C3B41133  12.881  31.825   7.056
 2967POPC   C4B41134  13.181  31.483   7.148
 2968POPC   NC341135  30.436  29.397   5.509
 2968POPC   PO441136  31.056  29.472   5.543
 2968POPC   GL141137  30.768  29.447   5.908
 2968POPC   GL241138  30.672  29.091   5.943
 2968POPC   C1A41139  30.579  29.429   6.336
 2968POPC   D2A41140  30.807  29.420   6.733
 2968POPC   C3A41141  30.640  29.205   7.067
 2968POPC   C4A41142  30.519  29.368   7.466
 2968POPC   C1B41143  30.428  28.938   6.319
 2968POPC   C2B41144  30.271  29.010   6.729
 2968POPC   C3B41145  30.300  28.849   7.153
 2968POPC   C4B41146  30.641  28.595   7.349
 2969POPC   NC341147  25.680  24.385   5.024
 2969POPC   PO441148  26.234  24.407   5.468
 2969POPC   GL141149  25.974  24.622   5.804
 2969POPC   GL241150  26.224  24.735   5.960
 2969POPC   C1A41151  25.802  24.381   6.178
 2969POPC   D2A41152  25.963  24.218   6.567
 2969POPC   C3A41153  25.791  24.252   6.941
 2969POPC   C4A41154  25.717  24.371   7.325
 2969POPC   C1B41155  26.164  24.664   6.398
 2969POPC   C2B41156  26.201  24.578   6.828
 2969POPC   C3B41157  26.218  24.484   7.254
 2969POPC   C4B41158  26.351  24.760   7.619
 2970POPC   NC341159  32.075  33.532   5.372
 2970POPC   PO441160  32.457  34.075   5.346
 2970POPC   GL141161  32.181  33.905   5.752
 2970POPC   GL241162  31.953  33.577   5.852
 2970POPC   C1A41163  32.136  33.871   6.233
 2970POPC   D2A41164  32.021  34.027   6.665
 2970POPC   C3A41165  32.282  33.877   7.015
 2970POPC   C4A41166  32.382  33.905   7.447
 2970POPC   C1B41167  31.750  33.484   6.224
 2970POPC   C2B41168  31.760  33.590   6.628
 2970POPC   C3B41169  31.920  33.500   7.038
 2970POPC   C4B41170  31.978  33.599   7.485
 2971POPC   NC341171   7.524  22.648   5.573
 2971POPC   PO441172   7.248  23.259   5.379
 2971POPC   GL141173   7.342  23.046   5.821
 2971POPC   GL241174   7.143  22.729   5.884
 2971POPC   C1A41175   7.565  22.838   6.200
 2971POPC   D2A41176   7.784  22.661   6.568
 2971POPC   C3A41177   7.701  22.794   7.011
 2971POPC   C4A41178   7.580  22.497   7.340
 2971POPC   C1B41179   7.165  22.557   6.263
 2971POPC   C2B41180   7.272  22.790   6.630
 2971POPC   C3B41181   7.215  22.650   7.028
 2971POPC   C4B41182   7.233  22.855   7.442
 2972POPC   NC341183  43.215  20.963   5.540
 2972POPC   PO441184  43.087  20.322   5.485
 2972POPC   GL141185  42.833  20.406   5.815
 2972POPC   GL241186  43.058  20.651   5.920
 2972POPC   C1A41187  42.838  20.310   6.240
 2972POPC   D2A41188  43.147  20.421   6.543
 2972POPC   C3A41189  42.983  20.282   6.920
 2972POPC   C4A41190  42.880  20.393   7.337
 2972POPC   C1B41191  43.433  20.592   6.138
 2972POPC   C2B41192  43.651  20.655   6.494
 2972POPC   C3B41193  43.549  20.467   6.857
 2972POPC   C4B41194  43.405  20.556   7.253
 2973POPC   NC341195  11.321  13.296   5.445
 2973POPC   PO441196  11.091  14.026   5.438
 2973POPC   GL141197  11.365  13.761   5.670
 2973POPC   GL241198  11.068  13.556   5.807
 2973POPC   C1A41199  11.530  13.644   6.064
 2973POPC   D2A41200  11.267  13.654   6.408
 2973POPC   C3A41201  11.283  13.800   6.838
 2973POPC   C4A41202  10.989  13.755   7.225
 2973POPC   C1B41203  10.880  13.384   6.189
 2973POPC   C2B41204  10.835  13.523   6.615
 2973POPC   C3B41205  11.062  13.351   6.943
 2973POPC   C4B41206  11.472  13.436   7.162
 2974POPC   NC341207  15.783  13.501   5.201
 2974POPC   PO441208  15.278  13.926   5.515
 2974POPC   GL141209  15.020  13.680   5.753
 2974POPC   GL241210  15.307  13.483   5.843
 2974POPC   C1A41211  14.924  13.634   6.179
 2974POPC   D2A41212  15.069  13.454   6.570
 2974POPC   C3A41213  15.014  13.687   6.920
 2974POPC   C4A41214  15.145  13.706   7.304
 2974POPC   C1B41215  15.464  13.520   6.255
 2974POPC   C2B41216  15.474  13.746   6.653
 2974POPC   C3B41217  15.574  13.601   7.045
 2974POPC   C4B41218  15.615  13.774   7.467
 2975POPC   NC341219  10.671  19.655   5.508
 2975POPC   PO441220  10.352  20.293   5.486
 2975POPC   GL141221  10.523  20.043   5.830
 2975POPC   GL241222  10.386  19.709   5.921
 2975POPC   C1A41223  10.505  20.052   6.278
 2975POPC   D2A41224  10.638  19.881   6.662
 2975POPC   C3A41225  10.439  20.006   7.046
 2975POPC   C4A41226  10.770  19.944   7.324
 2975POPC   C1B41227  10.664  19.553   6.247
 2975POPC   C2B41228  10.519  19.375   6.641
 2975POPC   C3B41229  10.613  19.519   7.062
 2975POPC   C4B41230  10.708  19.461   7.505
 2976POPC   NC341231  12.550   0.472   5.301
 2976POPC   PO441232  11.938   0.289   5.501
 2976POPC   GL141233  11.978   0.619   5.802
 2976POPC   GL241234  12.323   0.769   5.733
 2976POPC   C1A41235  11.842   0.541   6.227
 2976POPC   D2A41236  11.673   0.626   6.633
 2976POPC   C3A41237  11.979   0.556   6.960
 2976POPC   C4A41238  11.957   0.557   7.412
 2976POPC   C1B41239  12.349   0.678   6.196
 2976POPC   C2B41240  12.264   0.363   6.550
 2976POPC   C3B41241  12.314   0.165   6.990
 2976POPC   C4B41242  12.385   0.301   7.443
 2977POPC   NC341243  13.408  25.655   5.503
 2977POPC   PO441244  13.747  25.131   5.099
 2977POPC   GL141245  13.722  25.228   5.598
 2977POPC   GL241246  13.565  25.036   5.898
 2977POPC   C1A41247  13.794  25.475   6.026
 2977POPC   D2A41248  13.560  25.335   6.422
 2977POPC   C3A41249  13.648  25.346   6.868
 2977POPC   C4A41250  13.719  25.036   7.174
 2977POPC   C1B41251  13.224  25.008   6.239
 2977POPC   C2B41252  13.087  25.008   6.678
 2977POPC   C3B41253  13.215  25.119   7.089
 2977POPC   C4B41254  13.452  25.415   7.362
 2978POPC   NC341255  16.570  32.399   5.488
 2978POPC   PO441256  16.901  31.757   5.459
 2978POPC   GL141257  16.859  32.122   5.822
 2978POPC   GL241258  16.502  32.200   5.959
 2978POPC   C1A41259  16.922  32.414   6.224
 2978POPC   D2A41260  17.057  32.397   6.690
 2978POPC   C3A41261  16.886  32.259   7.100
 2978POPC   C4A41262  16.759  31.869   7.244
 2978POPC   C1B41263  16.401  32.539   6.259
 2978POPC   C2B41264  16.405  32.739   6.696
 2978POPC   C3B41265  16.443  32.601   7.088
 2978POPC   C4B41266  16.326  32.177   7.188
 2979POPC   NC341267  40.497  29.329   5.483
 2979POPC   PO441268  41.131  28.986   5.385
 2979POPC   GL141269  40.920  29.172   5.764
 2979POPC   GL241270  41.031  29.484   5.876
 2979POPC   C1A41271  40.749  29.062   6.195
 2979POPC   D2A41272  40.733  28.746   6.534
 2979POPC   C3A41273  40.792  28.871   6.957
 2979POPC   C4A41274  40.673  28.826   7.387
 2979POPC   C1B41275  40.882  29.566   6.303
 2979POPC   C2B41276  40.731  29.314   6.677
 2979POPC   C3B41277  40.555  29.284   7.135
 2979POPC   C4B41278  40.453  29.398   7.594
 2980POPC   NC341279  25.804  24.230   5.547
 2980POPC   PO441280  26.172  23.614   5.475
 2980POPC   GL141281  26.073  23.859   5.802
 2980POPC   GL241282  26.391  23.810   5.963
 2980POPC   C1A41283  25.952  23.874   6.206
 2980POPC   D2A41284  26.196  23.773   6.566
 2980POPC   C3A41285  25.968  23.756   6.951
 2980POPC   C4A41286  26.051  23.979   7.308
 2980POPC   C1B41287  26.327  24.211   6.145
 2980POPC   C2B41288  26.476  24.220   6.550
 2980POPC   C3B41289  26.401  24.088   6.954
 2980POPC   C4B41290  26.580  23.930   7.342
 2981POPC   NC341291  44.481   3.188   5.540
 2981POPC   PO441292  44.849   2.686   5.270
 2981POPC   GL141293  44.613   2.685   5.715
 2981POPC   GL241294  44.904   2.642   5.941
 2981POPC   C1A41295  44.466   2.672   6.200
 2981POPC   D2A41296  44.498   2.910   6.604
 2981POPC   C3A41297  44.658   2.699   6.969
 2981POPC   C4A41298  44.561   2.877   7.356
 2981POPC   C1B41299  44.886   2.976   6.286
 2981POPC   C2B41300   0.004   2.977   6.680
 2981POPC   C3B41301  44.917   3.154   7.046
 2981POPC   C4B41302   0.018   3.049   7.481
 2982POPC   NC341303  41.974  35.400   5.507
 2982POPC   PO441304  41.387  35.617   5.251
 2982POPC   GL141305  41.446  35.326   5.625
 2982POPC   GL241306  41.374  35.601   5.837
 2982POPC   C1A41307  41.455  35.164   6.088
 2982POPC   D2A41308  41.680  34.996   6.428
 2982POPC   C3A41309  41.669  35.118   6.852
 2982POPC   C4A41310  41.464  35.170   7.213
 2982POPC   C1B41311  41.078  35.472   6.176
 2982POPC   C2B41312  41.244  35.316   6.556
 2982POPC   C3B41313  41.087  35.358   6.948
 2982POPC   C4B41314  41.171  35.564   7.296
 2983POPC   NC341315   6.508   9.290   5.465
 2983POPC   PO441316   6.947   8.861   5.536
 2983POPC   GL141317   6.635   8.705   5.813
 2983POPC   GL241318   6.596   9.031   5.931
 2983POPC   C1A41319   6.566   8.623   6.274
 2983POPC   D2A41320   6.765   8.511   6.682
 2983POPC   C3A41321   6.717   8.870   6.924
 2983POPC   C4A41322   6.366   8.901   7.223
 2983POPC   C1B41323   6.880   9.230   6.235
 2983POPC   C2B41324   6.851   9.409   6.656
 2983POPC   C3B41325   6.833   9.361   7.098
 2983POPC   C4B41326   6.829   9.004   7.397
 2984POPC   NC341327  26.418  30.963   5.434
 2984POPC   PO441328  26.273  31.704   5.400
 2984POPC   GL141329  26.285  31.408   5.746
 2984POPC   GL241330  26.013  31.131   5.771
 2984POPC   C1A41331  26.222  31.470   6.174
 2984POPC   D2A41332  26.088  31.625   6.548
 2984POPC   C3A41333  26.287  31.432   6.888
 2984POPC   C4A41334  26.235  31.641   7.267
 2984POPC   C1B41335  25.769  31.212   6.164
 2984POPC   C2B41336  25.725  31.276   6.612
 2984POPC   C3B41337  25.773  31.484   6.993
 2984POPC   C4B41338  25.601  31.190   7.231
 2985POPC   NC341339  18.632  38.025   5.499
 2985POPC   PO441340  18.057  37.816   5.234
 2985POPC   GL141341  18.128  37.999   5.631
 2985POPC   GL241342  18.304  37.713   5.754
 2985POPC   C1A41343  18.205  38.093   6.089
 2985POPC   D2A41344  18.041  37.992   6.499
 2985POPC   C3A41345  18.225  37.974   6.900
 2985POPC   C4A41346  18.384  37.753   7.232
 2985POPC   C1B41347  18.190  37.576   6.167
 2985POPC   C2B41348  18.373  37.583   6.574
 2985POPC   C3B41349  18.248  37.373   6.927
 2985POPC   C4B41350  18.545  37.236   7.181
 2986POPC   NC341351  10.894   3.343   5.379
 2986POPC   PO441352  10.175   3.278   5.373
 2986POPC   GL141353  10.316   3.326   5.816
 2986POPC   GL241354  10.426   3.656   5.824
 2986POPC   C1A41355  10.546   3.371   6.250
 2986POPC   D2A41356  10.315   3.354   6.628
 2986POPC   C3A41357  10.537   3.382   6.996
 2986POPC   C4A41358  10.427   3.521   7.401
 2986POPC   C1B41359  10.414   3.885   6.230
 2986POPC   C2B41360  10.572   3.780   6.664
 2986POPC   C3B41361  10.529   3.929   7.086
 2986POPC   C4B41362  10.694   4.042   7.502
 2987POPC   NC341363  34.733  22.078   5.354
 2987POPC   PO441364  35.079  22.551   5.574
 2987POPC   GL141365  34.812  22.217   5.855
 2987POPC   GL241366  34.775  21.842   5.817
 2987POPC   C1A41367  34.561  22.135   6.262
 2987POPC   D2A41368  34.507  22.355   6.676
 2987POPC   C3A41369  34.454  22.248   7.126
 2987POPC   C4A41370  34.348  22.481   7.515
 2987POPC   C1B41371  34.875  21.743   6.265
 2987POPC   C2B41372  34.759  21.877   6.708
 2987POPC   C3B41373  34.750  21.831   7.176
 2987POPC   C4B41374  34.913  22.122   7.496
 2988POPC   NC341375   6.439  42.989   5.366
 2988POPC   PO441376   6.783  43.553   5.148
 2988POPC   GL141377   6.720  43.361   5.632
 2988POPC   GL241378   6.425  43.157   5.822
 2988POPC   C1A41379   6.783  43.282   6.118
 2988POPC   D2A41380   6.749  43.030   6.494
 2988POPC   C3A41381   6.805  43.229   6.881
 2988POPC   C4A41382   6.779  43.071   7.291
 2988POPC   C1B41383   6.234  42.949   6.180
 2988POPC   C2B41384   6.244  43.058   6.611
 2988POPC   C3B41385   6.427  42.874   6.945
 2988POPC   C4B41386   6.272  42.792   7.322
 2989POPC   NC341387  38.084  42.611   5.573
 2989POPC   PO441388  38.159  43.254   5.510
 2989POPC   GL141389  38.132  43.008   5.938
 2989POPC   GL241390  38.350  42.723   6.020
 2989POPC   C1A41391  38.252  43.032   6.430
 2989POPC   D2A41392  38.336  42.943   6.901
 2989POPC   C3A41393  38.447  43.280   7.188
 2989POPC   C4A41394  38.742  43.294   7.567
 2989POPC   C1B41395  38.723  42.928   6.246
 2989POPC   C2B41396  38.825  42.894   6.714
 2989POPC   C3B41397  38.794  42.917   7.190
 2989POPC   C4B41398  38.862  42.793   7.648
 2990POPC   NC341399   0.391  18.971   5.354
 2990POPC   PO441400   1.022  18.968   5.502
 2990POPC   GL141401   0.741  18.928   5.846
 2990POPC   GL241402   0.492  19.202   5.829
 2990POPC   C1A41403   0.596  18.962   6.286
 2990POPC   D2A41404   0.447  19.291   6.587
 2990POPC   C3A41405   0.305  19.130   6.999
 2990POPC   C4A41406   0.544  18.891   7.338
 2990POPC   C1B41407   0.131  19.077   6.119
 2990POPC   C2B41408   0.095  18.907   6.542
 2990POPC   C3B41409   0.049  18.687   6.950
 2990POPC   C4B41410  44.915  18.630   7.395
 2991POPC   NC341411  35.472  43.690   5.191
 2991POPC   PO441412  34.986  43.932   5.446
 2991POPC   GL141413  35.051  43.870   5.885
 2991POPC   GL241414  35.175  43.547   5.896
 2991POPC   C1A41415  35.203  43.846   6.330
 2991POPC   D2A41416  35.446  43.639   6.650
 2991POPC   C3A41417  35.501  43.826   7.045
 2991POPC   C4A41418  35.779  43.977   7.386
 2991POPC   C1B41419  34.837  43.509   6.231
 2991POPC   C2B41420  34.925  43.488   6.681
 2991POPC   C3B41421  34.994  43.736   7.089
 2991POPC   C4B41422  34.823  43.676   7.531
 2992POPC   NC341423  37.930  37.819   5.470
 2992POPC   PO441424  37.273  37.507   5.478
 2992POPC   GL141425  37.519  37.667   5.868
 2992POPC   GL241426  37.890  37.774   5.958
 2992POPC   C1A41427  37.530  37.822   6.315
 2992POPC   D2A41428  37.700  38.034   6.683
 2992POPC   C3A41429  37.420  38.000   7.035
 2992POPC   C4A41430  37.409  37.625   7.256
 2992POPC   C1B41431  38.076  37.769   6.369
 2992POPC   C2B41432  38.072  37.536   6.759
 2992POPC   C3B41433  37.865  37.724   7.085
 2992POPC   C4B41434  37.894  38.150   7.196
 2993POPC   NC341435  13.291  16.018   5.433
 2993POPC   PO441436  13.993  16.027   5.371
 2993POPC   GL141437  13.740  16.020   5.732
 2993POPC   GL241438  13.514  15.741   5.804
 2993POPC   C1A41439  13.792  16.265   6.097
 2993POPC   D2A41440  13.586  16.341   6.491
 2993POPC   C3A41441  13.744  16.147   6.875
 2993POPC   C4A41442  13.522  16.194   7.264
 2993POPC   C1B41443  13.408  15.925   6.179
 2993POPC   C2B41444  13.348  15.884   6.607
 2993POPC   C3B41445  13.343  15.790   7.024
 2993POPC   C4B41446  13.762  15.644   7.111
 2994POPC   NC341447  42.808  18.620   5.482
 2994POPC   PO441448  43.238  18.151   5.288
 2994POPC   GL141449  43.141  18.185   5.732
 2994POPC   GL241450  43.450  17.980   5.762
 2994POPC   C1A41451  42.870  18.288   6.129
 2994POPC   D2A41452  42.764  18.175   6.571
 2994POPC   C3A41453  42.769  18.483   6.943
 2994POPC   C4A41454  43.031  18.476   7.314
 2994POPC   C1B41455  43.263  17.952   6.178
 2994POPC   C2B41456  43.306  18.083   6.587
 2994POPC   C3B41457  43.102  18.069   6.952
 2994POPC   C4B41458  43.362  18.072   7.283
 2995POPC   NC341459  22.438  28.990   5.218
 2995POPC   PO441460  22.082  29.465   5.542
 2995POPC   GL141461  22.333  29.223   5.817
 2995POPC   GL241462  22.490  28.907   5.712
 2995POPC   C1A41463  22.262  29.238   6.264
 2995POPC   D2A41464  22.010  29.254   6.629
 2995POPC   C3A41465  22.148  29.000   6.953
 2995POPC   C4A41466  21.947  28.770   7.267
 2995POPC   C1B41467  22.237  28.752   6.060
 2995POPC   C2B41468  22.398  28.577   6.450
 2995POPC   C3B41469  22.564  28.648   6.829
 2995POPC   C4B41470  22.428  28.608   7.230
 2996POPC   NC341471  31.133   6.160   5.414
 2996POPC   PO441472  31.726   5.843   5.376
 2996POPC   GL141473  31.498   5.751   5.776
 2996POPC   GL241474  31.226   5.947   5.907
 2996POPC   C1A41475  31.663   5.747   6.203
 2996POPC   D2A41476  31.534   5.875   6.588
 2996POPC   C3A41477  31.757   5.799   6.925
 2996POPC   C4A41478  31.582   5.922   7.252
 2996POPC   C1B41479  31.086   5.882   6.358
 2996POPC   C2B41480  31.114   6.027   6.832
 2996POPC   C3B41481  31.177   6.217   7.262
 2996POPC   C4B41482  31.002   6.187   7.711
 2997POPC   NC341483  27.938  36.830   5.489
 2997POPC   PO441484  28.524  37.244   5.403
 2997POPC   GL141485  28.394  36.979   5.719
 2997POPC   GL241486  28.152  37.228   5.786
 2997POPC   C1A41487  28.456  36.906   6.161
 2997POPC   D2A41488  28.680  36.833   6.548
 2997POPC   C3A41489  28.354  36.704   6.813
 2997POPC   C4A41490  28.341  36.817   7.244
 2997POPC   C1B41491  28.079  37.270   6.198
 2997POPC   C2B41492  28.102  37.084   6.576
 2997POPC   C3B41493  27.963  37.024   6.964
 2997POPC   C4B41494  28.115  37.266   7.283
 2998POPC   NC341495  13.997  12.214   5.497
 2998POPC   PO441496  14.593  12.284   5.172
 2998POPC   GL141497  14.648  12.054   5.601
 2998POPC   GL241498  14.334  12.030   5.812
 2998POPC   C1A41499  14.771  11.978   6.064
 2998POPC   D2A41500  14.756  11.772   6.488
 2998POPC   C3A41501  14.524  11.946   6.854
 2998POPC   C4A41502  14.725  11.965   7.261
 2998POPC   C1B41503  14.406  12.350   6.168
 2998POPC   C2B41504  14.321  12.475   6.607
 2998POPC   C3B41505  14.215  12.376   7.030
 2998POPC   C4B41506  14.229  12.110   7.397
 2999POPC   NC341507  11.455  19.319   5.025
 2999POPC   PO441508  11.142  19.854   5.462
 2999POPC   GL141509  11.028  19.764   5.883
 2999POPC   GL241510  11.401  19.698   5.934
 2999POPC   C1A41511  11.051  19.959   6.314
 2999POPC   D2A41512  11.387  19.833   6.640
 2999POPC   C3A41513  11.268  19.919   7.070
 2999POPC   C4A41514  11.230  19.840   7.526
 2999POPC   C1B41515  11.187  19.479   6.288
 2999POPC   C2B41516  11.038  19.461   6.737
 2999POPC   C3B41517  11.100  19.452   7.211
 2999POPC   C4B41518  11.152  19.374   7.735
 3000POPC   NC341519  25.011  11.817   5.351
 3000POPC   PO441520  25.391  12.259   5.743
 3000POPC   GL141521  25.150  11.937   5.911
 3000POPC   GL241522  25.308  11.660   5.760
 3000POPC   C1A41523  25.178  11.921   6.373
 3000POPC   D2A41524  25.296  12.126   6.764
 3000POPC   C3A41525  24.993  12.122   7.128
 3000POPC   C4A41526  24.951  12.146   7.607
 3000POPC   C1B41527  25.581  11.687   6.158
 3000POPC   C2B41528  25.515  11.615   6.611
 3000POPC   C3B41529  25.448  11.702   7.032
 3000POPC   C4B41530  25.497  12.079   7.240
 3001POPC   NC341531  44.743  29.249   5.283
 3001POPC   PO441532   0.070  29.368   5.780
 3001POPC   GL141533  44.616  29.271   5.780
 3001POPC   GL241534  44.409  29.540   5.603
 3001POPC   C1A41535  44.451  29.092   6.145
 3001POPC   D2A41536  44.577  29.239   6.544
 3001POPC   C3A41537  44.519  28.984   6.880
 3001POPC   C4A41538  44.557  28.892   7.278
 3001POPC   C1B41539  44.311  29.592   6.073
 3001POPC   C2B41540  44.293  29.670   6.532
 3001POPC   C3B41541  44.333  29.469   6.951
 3001POPC   C4B41542  44.434  29.436   7.375
 3002POPC   NC341543  14.773  15.063   5.435
 3002POPC   PO441544  14.042  15.047   5.359
 3002POPC   GL141545  14.282  15.241   5.740
 3002POPC   GL241546  14.544  15.021   5.884
 3002POPC   C1A41547  14.383  15.363   6.197
 3002POPC   D2A41548  14.442  15.206   6.607
 3002POPC   C3A41549  14.363  15.468   6.960
 3002POPC   C4A41550  14.287  15.298   7.366
 3002POPC   C1B41551  14.639  14.821   6.279
 3002POPC   C2B41552  14.754  14.789   6.699
 3002POPC   C3B41553  14.617  15.016   7.050
 3002POPC   C4B41554  14.580  14.905   7.483
 3003POPC   NC341555  17.266  13.874   5.446
 3003POPC   PO441556  17.877  13.571   5.407
 3003POPC   GL141557  17.558  13.620   5.796
 3003POPC   GL241558  17.319  13.333   5.865
 3003POPC   C1A41559  17.381  13.696   6.242
 3003POPC   D2A41560  17.254  13.845   6.672
 3003POPC   C3A41561  17.473  13.696   7.049
 3003POPC   C4A41562  17.849  13.527   7.323
 3003POPC   C1B41563  17.648  13.275   6.185
 3003POPC   C2B41564  17.675  13.454   6.613
 3003POPC   C3B41565  17.602  13.222   6.998
 3003POPC   C4B41566  17.364  13.287   7.401
 3004POPC   NC341567  41.528   8.743   5.431
 3004POPC   PO441568  41.802   9.344   5.489
 3004POPC   GL141569  41.817   8.985   5.781
 3004POPC   GL241570  41.483   8.925   5.931
 3004POPC   C1A41571  41.902   8.936   6.226
 3004POPC   D2A41572  41.691   9.002   6.622
 3004POPC   C3A41573  41.905   9.146   6.992
 3004POPC   C4A41574  41.879   8.968   7.399
 3004POPC   C1B41575  41.492   8.636   6.315
 3004POPC   C2B41576  41.475   8.551   6.749
 3004POPC   C3B41577  41.471   8.869   7.080
 3004POPC   C4B41578  41.281   8.888   7.456
 3005POPC   NC341579  22.390  14.639   5.373
 3005POPC   PO441580  21.842  14.260   5.607
 3005POPC   GL141581  22.164  14.470   5.810
 3005POPC   GL241582  22.342  14.176   5.872
 3005POPC   C1A41583  22.162  14.626   6.229
 3005POPC   D2A41584  21.781  14.637   6.508
 3005POPC   C3A41585  21.851  14.668   6.934
 3005POPC   C4A41586  21.926  14.304   7.134
 3005POPC   C1B41587  22.214  14.119   6.336
 3005POPC   C2B41588  22.255  14.382   6.738
 3005POPC   C3B41589  22.426  14.334   7.192
 3005POPC   C4B41590  22.494  14.597   7.578
 3006POPC   NC341591  22.189  12.463   5.483
 3006POPC   PO441592  22.042  11.807   5.379
 3006POPC   GL141593  22.121  11.990   5.777
 3006POPC   GL241594  22.387  12.230   5.873
 3006POPC   C1A41595  21.967  11.911   6.157
 3006POPC   D2A41596  22.019  12.116   6.540
 3006POPC   C3A41597  21.858  11.977   6.922
 3006POPC   C4A41598  21.750  12.180   7.311
 3006POPC   C1B41599  22.466  12.051   6.242
 3006POPC   C2B41600  22.505  11.861   6.614
 3006POPC   C3B41601  22.370  12.038   6.949
 3006POPC   C4B41602  22.506  12.065   7.306
 3007POPC   NC341603  14.877   0.673   5.526
 3007POPC   PO441604  15.499   0.472   5.433
 3007POPC   GL141605  15.282   0.407   5.802
 3007POPC   GL241606  15.341   0.778   5.834
 3007POPC   C1A41607  15.154   0.227   6.214
 3007POPC   D2A41608  15.236   0.427   6.607
 3007POPC   C3A41609  15.373   0.282   6.989
 3007POPC   C4A41610  15.118   0.057   7.292
 3007POPC   C1B41611  15.087   0.739   6.190
 3007POPC   C2B41612  15.069   0.902   6.575
 3007POPC   C3B41613  15.189   0.769   6.982
 3007POPC   C4B41614  15.024   0.619   7.324
 3008POPC   NC341615  26.331  41.013   5.295
 3008POPC   PO441616  25.918  40.542   5.199
 3008POPC   GL141617  26.058  40.564   5.643
 3008POPC   GL241618  26.070  40.899   5.779
 3008POPC   C1A41619  25.943  40.460   6.062
 3008POPC   D2A41620  25.821  40.528   6.480
 3008POPC   C3A41621  25.966  40.471   6.917
 3008POPC   C4A41622  25.998  40.847   7.168
 3008POPC   C1B41623  25.958  40.972   6.223
 3008POPC   C2B41624  26.167  40.889   6.638
 3008POPC   C3B41625  26.428  41.082   6.957
 3008POPC   C4B41626  26.441  41.343   7.332
 3009POPC   NC341627  39.809  26.814   5.580
 3009POPC   PO441628  40.427  26.490   5.512
 3009POPC   GL141629  40.262  26.723   5.930
 3009POPC   GL241630  39.942  26.644   6.014
 3009POPC   C1A41631  40.126  26.992   6.325
 3009POPC   D2A41632  39.768  27.005   6.591
 3009POPC   C3A41633  39.914  26.948   7.002
 3009POPC   C4A41634  39.834  27.270   7.268
 3009POPC   C1B41635  39.794  26.543   6.360
 3009POPC   C2B41636  40.086  26.592   6.652
 3009POPC   C3B41637  40.085  26.422   6.971
 3009POPC   C4B41638  39.922  26.544   7.332
 3010POPC   NC341639  33.223   1.654   5.575
 3010POPC   PO441640  33.164   2.183   5.148
 3010POPC   GL141641  33.027   2.298   5.705
 3010POPC   GL241642  32.657   2.309   5.802
 3010POPC   C1A41643  33.161   2.088   6.175
 3010POPC   D2A41644  33.056   1.745   6.496
 3010POPC   C3A41645  33.240   1.721   6.901
 3010POPC   C4A41646  33.047   1.864   7.254
 3010POPC   C1B41647  32.759   2.388   6.242
 3010POPC   C2B41648  32.980   2.229   6.638
 3010POPC   C3B41649  33.181   2.291   7.028
 3010POPC   C4B41650  33.001   2.552   7.337
 3011POPC   NC341651  25.751  41.206   5.511
 3011POPC   PO441652  25.286  41.721   5.412
 3011POPC   GL141653  25.142  41.518   5.798
 3011POPC   GL241654  25.273  41.171   5.780
 3011POPC   C1A41655  25.128  41.669   6.238
 3011POPC   D2A41656  25.257  41.960   6.576
 3011POPC   C3A41657  25.281  41.892   7.025
 3011POPC   C4A41658  25.611  41.650   7.238
 3011POPC   C1B41659  25.470  41.236   6.192
 3011POPC   C2B41660  25.467  41.468   6.596
 3011POPC   C3B41661  25.238  41.387   6.977
 3011POPC   C4B41662  25.393  41.204   7.370
 3012POPC   NC341663  23.341  30.167   5.645
 3012POPC   PO441664  23.762  29.694   5.328
 3012POPC   GL141665  23.790  29.855   5.794
 3012POPC   GL241666  23.803  30.219   5.894
 3012POPC   C1A41667  23.700  29.874   6.283
 3012POPC   D2A41668  23.668  30.151   6.696
 3012POPC   C3A41669  23.625  30.023   7.168
 3012POPC   C4A41670  23.468  30.138   7.619
 3012POPC   C1B41671  24.083  30.238   6.276
 3012POPC   C2B41672  24.169  30.052   6.689
 3012POPC   C3B41673  24.101  30.270   7.089
 3012POPC   C4B41674  23.934  30.302   7.510
 3013POPC   NC341675  26.200  44.251   5.676
 3013POPC   PO441676  25.816  44.550   5.217
 3013POPC   GL141677  25.843  44.614   5.697
 3013POPC   GL241678  26.148  44.775   5.767
 3013POPC   C1A41679  25.958  44.513   6.183
 3013POPC   D2A41680  26.172  44.663   6.591
 3013POPC   C3A41681  26.182  44.515   7.014
 3013POPC   C4A41682  25.890  44.434   7.333
 3013POPC   C1B41683  26.374  44.826   6.145
 3013POPC   C2B41684  26.371   0.111   6.494
 3013POPC   C3B41685  26.344   0.026   6.960
 3013POPC   C4B41686  26.210  44.888   7.415
 3014POPC   NC341687  28.908  15.410   5.595
 3014POPC   PO441688  28.391  15.020   5.486
 3014POPC   GL141689  28.322  15.197   5.900
 3014POPC   GL241690  28.646  15.155   5.948
 3014POPC   C1A41691  28.359  15.362   6.358
 3014POPC   D2A41692  28.110  15.460   6.733
 3014POPC   C3A41693  28.286  15.472   7.151
 3014POPC   C4A41694  28.732  15.369   7.273
 3014POPC   C1B41695  28.572  14.915   6.289
 3014POPC   C2B41696  28.711  15.074   6.601
 3014POPC   C3B41697  28.487  15.096   6.894
 3014POPC   C4B41698  28.460  14.926   7.264
 3015POPC   NC341699  29.986  30.276   5.353
 3015POPC   PO441700  29.405  29.925   5.490
 3015POPC   GL141701  29.715  30.117   5.782
 3015POPC   GL241702  30.066  29.974   5.784
 3015POPC   C1A41703  29.910  30.282   6.169
 3015POPC   D2A41704  30.017  30.143   6.584
 3015POPC   C3A41705  29.746  30.100   6.958
 3015POPC   C4A41706  30.018  29.861   7.183
 3015POPC   C1B41707  30.124  29.780   6.221
 3015POPC   C2B41708  30.084  29.478   6.599
 3015POPC   C3B41709  30.157  29.388   7.055
 3015POPC   C4B41710  30.012  29.251   7.459
 3016POPC   NC341711  30.510  14.719   5.468
 3016POPC   PO441712  30.701  14.044   5.402
 3016POPC   GL141713  30.823  14.222   5.821
 3016POPC   GL241714  30.545  14.453   5.904
 3016POPC   C1A41715  30.827  14.263   6.293
 3016POPC   D2A41716  30.896  14.578   6.617
 3016POPC   C3A41717  30.851  14.353   7.002
 3016POPC   C4A41718  30.698  13.944   7.007
 3016POPC   C1B41719  30.402  14.784   6.201
 3016POPC   C2B41720  30.437  14.781   6.652
 3016POPC   C3B41721  30.447  14.651   7.081
 3016POPC   C4B41722  30.319  14.779   7.490
 3017POPC   NC341723  42.830  23.316   5.497
 3017POPC   PO441724  43.258  23.842   5.397
 3017POPC   GL141725  43.113  23.775   5.822
 3017POPC   GL241726  43.158  23.443   5.870
 3017POPC   C1A41727  43.249  23.757   6.282
 3017POPC   D2A41728  43.414  23.662   6.704
 3017POPC   C3A41729  43.094  23.697   7.044
 3017POPC   C4A41730  42.719  23.933   7.129
 3017POPC   C1B41731  42.825  23.492   6.188
 3017POPC   C2B41732  42.963  23.420   6.605
 3017POPC   C3B41733  43.240  23.236   6.928
 3017POPC   C4B41734  43.149  23.283   7.356
 3018POPC   NC341735  16.949   7.676   5.193
 3018POPC   PO441736  16.562   7.814   5.766
 3018POPC   GL141737  16.691   7.466   5.974
 3018POPC   GL241738  16.944   7.331   5.804
 3018POPC   C1A41739  16.746   7.512   6.381
 3018POPC   D2A41740  16.608   7.814   6.623
 3018POPC   C3A41741  16.739   7.637   6.994
 3018POPC   C4A41742  16.854   7.705   7.403
 3018POPC   C1B41743  16.968   7.094   6.232
 3018POPC   C2B41744  17.103   7.236   6.641
 3018POPC   C3B41745  17.338   7.144   6.986
 3018POPC   C4B41746  17.198   7.001   7.383
 3019POPC   NC341747  11.769  42.643   5.091
 3019POPC   PO441748  11.310  42.293   5.367
 3019POPC   GL141749  11.213  42.248   5.779
 3019POPC   GL241750  11.366  42.581   5.831
 3019POPC   C1A41751  11.111  42.319   6.208
 3019POPC   D2A41752  10.960  42.158   6.579
 3019POPC   C3A41753  10.888  42.494   6.869
 3019POPC   C4A41754  11.101  42.424   7.234
 3019POPC   C1B41755  11.561  42.586   6.255
 3019POPC   C2B41756  11.393  42.490   6.673
 3019POPC   C3B41757  11.581  42.490   7.073
 3019POPC   C4B41758  11.945  42.634   7.196
 3020POPC   NC341759  24.739  13.681   5.177
 3020POPC   PO441760  24.280  13.227   5.391
 3020POPC   GL141761  24.556  13.428   5.670
 3020POPC   GL241762  24.515  13.795   5.651
 3020POPC   C1A41763  24.678  13.296   6.087
 3020POPC   D2A41764  24.866  13.454   6.463
 3020POPC   C3A41765  24.614  13.332   6.823
 3020POPC   C4A41766  24.646  13.611   7.152
 3020POPC   C1B41767  24.281  13.645   6.049
 3020POPC   C2B41768  24.370  13.656   6.491
 3020POPC   C3B41769  24.274  13.863   6.889
 3020POPC   C4B41770  24.071  13.890   7.292
 3021POPC   NC341771   3.279  31.657   5.587
 3021POPC   PO441772   3.974  31.366   5.402
 3021POPC   GL141773   3.736  31.282   5.746
 3021POPC   GL241774   3.729  31.614   5.821
 3021POPC   C1A41775   3.445  31.265   6.112
 3021POPC   D2A41776   3.229  31.445   6.485
 3021POPC   C3A41777   3.342  31.236   6.883
 3021POPC   C4A41778   3.452  31.346   7.295
 3021POPC   C1B41779   3.512  31.766   6.183
 3021POPC   C2B41780   3.364  31.951   6.558
 3021POPC   C3B41781   3.462  31.749   6.930
 3021POPC   C4B41782   3.444  31.868   7.325
 3022POPC   NC341783  41.720  12.893   5.410
 3022POPC   PO441784  41.161  12.891   5.403
 3022POPC   GL141785  41.238  12.837   5.878
 3022POPC   GL241786  41.590  12.783   5.924
 3022POPC   C1A41787  41.331  12.930   6.355
 3022POPC   D2A41788  41.344  12.682   6.767
 3022POPC   C3A41789  41.373  12.924   7.141
 3022POPC   C4A41790  41.516  13.340   7.243
 3022POPC   C1B41791  41.596  12.501   6.298
 3022POPC   C2B41792  41.798  12.443   6.709
 3022POPC   C3B41793  41.722  12.435   7.152
 3022POPC   C4B41794  41.489  12.577   7.484
 3023POPC   NC341795  10.179  15.423   5.571
 3023POPC   PO441796  10.558  14.809   5.480
 3023POPC   GL141797  10.599  15.095   5.825
 3023POPC   GL241798  10.950  15.244   5.877
 3023POPC   C1A41799  10.521  15.360   6.204
 3023POPC   D2A41800  10.370  15.565   6.609
 3023POPC   C3A41801  10.442  15.321   6.969
 3023POPC   C4A41802  10.247  15.063   7.262
 3023POPC   C1B41803  10.851  14.955   6.236
 3023POPC   C2B41804  10.582  14.986   6.585
 3023POPC   C3B41805  10.595  14.825   6.981
 3023POPC   C4B41806  10.796  14.946   7.367
 3024POPC   NC341807  32.020   9.509   5.626
 3024POPC   PO441808  31.521   9.799   5.213
 3024POPC   GL141809  31.511   9.735   5.709
 3024POPC   GL241810  31.538   9.413   5.838
 3024POPC   C1A41811  31.357   9.860   6.145
 3024POPC   D2A41812  31.476   9.715   6.594
 3024POPC   C3A41813  31.207   9.585   6.936
 3024POPC   C4A41814  31.053   9.603   7.356
 3024POPC   C1B41815  31.785   9.610   6.203
 3024POPC   C2B41816  31.931   9.449   6.581
 3024POPC   C3B41817  31.740   9.365   6.978
 3024POPC   C4B41818  31.417   9.246   7.267
 3025POPC   NC341819  43.834  38.081   5.409
 3025POPC   PO441820  43.933  37.330   5.384
 3025POPC   GL141821  43.831  37.593   5.707
 3025POPC   GL241822  44.196  37.660   5.751
 3025POPC   C1A41823  43.651  37.619   6.131
 3025POPC   D2A41824  43.859  37.609   6.566
 3025POPC   C3A41825  43.714  37.772   6.975
 3025POPC   C4A41826  43.900  38.127   7.233
 3025POPC   C1B41827  44.112  37.420   6.134
 3025POPC   C2B41828  44.123  37.172   6.532
 3025POPC   C3B41829  44.204  37.387   6.919
 3025POPC   C4B41830  44.140  37.652   7.259
 3026POPC   NC341831   9.493  13.379   5.403
 3026POPC   PO441832  10.180  13.614   5.430
 3026POPC   GL141833   9.841  13.716   5.762
 3026POPC   GL241834   9.648  13.444   5.896
 3026POPC   C1A41835   9.951  13.917   6.142
 3026POPC   D2A41836  10.049  13.688   6.511
 3026POPC   C3A41837   9.725  13.744   6.797
 3026POPC   C4A41838   9.780  13.797   7.236
 3026POPC   C1B41839   9.422  13.798   6.112
 3026POPC   C2B41840   9.276  13.947   6.545
 3026POPC   C3B41841   9.290  13.896   7.010
 3026POPC   C4B41842   9.367  13.493   7.189
 3027POPC   NC341843  41.214  36.001   5.484
 3027POPC   PO441844  40.657  36.279   5.536
 3027POPC   GL141845  40.613  35.936   5.811
 3027POPC   GL241846  40.872  35.709   5.784
 3027POPC   C1A41847  40.661  35.975   6.228
 3027POPC   D2A41848  40.486  36.134   6.593
 3027POPC   C3A41849  40.713  36.064   6.930
 3027POPC   C4A41850  40.627  35.926   7.314
 3027POPC   C1B41851  41.153  35.980   6.110
 3027POPC   C2B41852  41.100  36.103   6.530
 3027POPC   C3B41853  41.182  35.882   6.901
 3027POPC   C4B41854  41.129  36.064   7.297
 3028POPC   NC341855  32.664   5.341   5.704
 3028POPC   PO441856  33.293   5.022   5.516
 3028POPC   GL141857  33.010   4.988   5.891
 3028POPC   GL241858  32.815   4.667   5.866
 3028POPC   C1A41859  32.977   5.223   6.304
 3028POPC   D2A41860  33.194   5.300   6.676
 3028POPC   C3A41861  32.913   5.227   6.983
 3028POPC   C4A41862  32.833   5.220   7.400
 3028POPC   C1B41863  32.794   4.745   6.318
 3028POPC   C2B41864  33.030   4.813   6.696
 3028POPC   C3B41865  32.981   4.759   7.172
 3028POPC   C4B41866  32.716   4.765   7.605
 3029POPC   NC341867  40.188  32.637   5.488
 3029POPC   PO441868  40.185  31.986   5.515
 3029POPC   GL141869  40.017  32.256   5.804
 3029POPC   GL241870  39.681  32.386   5.714
 3029POPC   C1A41871  39.947  32.158   6.223
 3029POPC   D2A41872  40.040  32.355   6.579
 3029POPC   C3A41873  40.011  32.090   6.930
 3029POPC   C4A41874  40.102  32.135   7.364
 3029POPC   C1B41875  39.704  32.598   6.104
 3029POPC   C2B41876  39.635  32.695   6.529
 3029POPC   C3B41877  39.780  32.616   6.944
 3029POPC   C4B41878  39.636  32.319   7.216
 3030POPC   NC341879  39.393  38.087   5.339
 3030POPC   PO441880  38.964  38.683   5.498
 3030POPC   GL141881  39.100  38.654   5.894
 3030POPC   GL241882  38.990  38.961   6.039
 3030POPC   C1A41883  39.204  38.327   6.234
 3030POPC   D2A41884  39.460  38.143   6.568
 3030POPC   C3A41885  39.393  38.289   7.007
 3030POPC   C4A41886  39.630  38.590   7.245
 3030POPC   C1B41887  39.381  38.824   6.276
 3030POPC   C2B41888  39.500  38.682   6.674
 3030POPC   C3B41889  39.216  38.804   6.991
 3030POPC   C4B41890  39.140  38.699   7.390
 3031POPC   NC341891   9.825   2.923   5.301
 3031POPC   PO441892  10.132   2.425   5.504
 3031POPC   GL141893   9.885   2.605   5.841
 3031POPC   GL241894   9.616   2.846   5.758
 3031POPC   C1A41895   9.688   2.422   6.233
 3031POPC   D2A41896   9.401   2.367   6.606
 3031POPC   C3A41897   9.537   2.525   7.007
 3031POPC   C4A41898   9.910   2.711   7.139
 3031POPC   C1B41899   9.703   2.958   6.180
 3031POPC   C2B41900   9.537   2.884   6.573
 3031POPC   C3B41901   9.574   3.074   6.977
 3031POPC   C4B41902   9.416   2.944   7.361
 3032POPC   NC341903   7.724   8.369   4.973
 3032POPC   PO441904   7.300   7.964   5.470
 3032POPC   GL141905   7.201   8.055   5.860
 3032POPC   GL241906   7.491   8.216   5.906
 3032POPC   C1A41907   7.215   7.888   6.276
 3032POPC   D2A41908   7.100   8.118   6.632
 3032POPC   C3A41909   7.312   8.100   7.009
 3032POPC   C4A41910   7.064   8.154   7.331
 3032POPC   C1B41911   7.413   8.359   6.287
 3032POPC   C2B41912   7.621   8.282   6.629
 3032POPC   C3B41913   7.666   8.465   7.016
 3032POPC   C4B41914   7.808   8.140   7.218
 3033POPC   NC341915  17.318  26.767   5.451
 3033POPC   PO441916  17.878  27.052   5.399
 3033POPC   GL141917  17.674  26.835   5.821
 3033POPC   GL241918  17.349  26.594   5.936
 3033POPC   C1A41919  17.598  26.833   6.280
 3033POPC   D2A41920  17.403  26.788   6.682
 3033POPC   C3A41921  17.654  26.854   7.002
 3033POPC   C4A41922  17.584  26.837   7.384
 3033POPC   C1B41923  17.276  26.407   6.343
 3033POPC   C2B41924  17.057  26.402   6.738
 3033POPC   C3B41925  17.163  26.519   7.162
 3033POPC   C4B41926  17.309  26.363   7.594
 3034POPC   NC341927   7.536   5.154   5.381
 3034POPC   PO441928   6.942   5.447   5.581
 3034POPC   GL141929   7.233   5.195   5.798
 3034POPC   GL241930   7.239   4.861   5.841
 3034POPC   C1A41931   7.428   5.243   6.175
 3034POPC   D2A41932   7.559   5.070   6.556
 3034POPC   C3A41933   7.481   5.271   6.931
 3034POPC   C4A41934   7.374   5.161   7.319
 3034POPC   C1B41935   7.305   4.692   6.271
 3034POPC   C2B41936   7.575   4.571   6.631
 3034POPC   C3B41937   7.547   4.756   7.056
 3034POPC   C4B41938   7.296   4.686   7.459
 3035POPC   NC341939   3.053  17.019   5.434
 3035POPC   PO441940   2.784  16.428   5.463
 3035POPC   GL141941   2.750  16.709   5.782
 3035POPC   GL241942   2.545  16.966   5.820
 3035POPC   C1A41943   2.563  16.639   6.192
 3035POPC   D2A41944   2.698  16.809   6.548
 3035POPC   C3A41945   2.789  16.481   6.817
 3035POPC   C4A41946   2.817  16.539   7.246
 3035POPC   C1B41947   2.439  17.171   6.212
 3035POPC   C2B41948   2.257  17.084   6.625
 3035POPC   C3B41949   2.469  16.890   6.993
 3035POPC   C4B41950   2.933  16.989   7.022
 3036POPC   NC341951  28.947  32.693   5.531
 3036POPC   PO441952  29.364  33.156   5.284
 3036POPC   GL141953  29.419  33.093   5.752
 3036POPC   GL241954  29.250  32.816   5.933
 3036POPC   C1A41955  29.450  33.237   6.183
 3036POPC   D2A41956  29.487  33.484   6.593
 3036POPC   C3A41957  29.348  33.276   6.951
 3036POPC   C4A41958  29.195  32.927   7.154
 3036POPC   C1B41959  28.988  33.058   6.272
 3036POPC   C2B41960  28.958  33.020   6.686
 3036POPC   C3B41961  28.808  32.694   6.918
 3036POPC   C4B41962  28.714  32.694   7.340
 3037POPC   NC341963  42.604  33.267   5.574
 3037POPC   PO441964  42.901  32.669   5.508
 3037POPC   GL141965  42.965  32.958   5.842
 3037POPC   GL241966  43.132  33.275   5.719
 3037POPC   C1A41967  43.153  32.979   6.245
 3037POPC   D2A41968  43.481  32.971   6.544
 3037POPC   C3A41969  43.325  32.972   6.975
 3037POPC   C4A41970  43.330  32.851   7.423
 3037POPC   C1B41971  42.995  33.436   6.119
 3037POPC   C2B41972  43.174  33.397   6.548
 3037POPC   C3B41973  43.344  33.543   6.935
 3037POPC   C4B41974  43.275  33.354   7.317
 3038POPC   NC341975  30.775   6.700   5.191
 3038POPC   PO441976  30.274   6.280   5.576
 3038POPC   GL141977  30.469   6.531   5.865
 3038POPC   GL241978  30.770   6.667   5.720
 3038POPC   C1A41979  30.531   6.610   6.270
 3038POPC   D2A41980  30.643   6.709   6.643
 3038POPC   C3A41981  30.967   6.531   6.884
 3038POPC   C4A41982  30.823   6.601   7.276
 3038POPC   C1B41983  30.908   6.912   6.114
 3038POPC   C2B41984  31.080   6.928   6.559
 3038POPC   C3B41985  30.940   7.033   7.015
 3038POPC   C4B41986  30.925   7.039   7.517
 3039POPC   NC341987  33.436  16.580   5.218
 3039POPC   PO441988  33.901  16.951   5.535
 3039POPC   GL141989  33.897  16.709   5.898
 3039POPC   GL241990  33.795  16.380   5.730
 3039POPC   C1A41991  34.034  16.649   6.325
 3039POPC   D2A41992  34.033  16.526   6.769
 3039POPC   C3A41993  33.885  16.766   7.112
 3039POPC   C4A41994  33.868  16.757   7.537
 3039POPC   C1B41995  33.526  16.466   6.118
 3039POPC   C2B41996  33.557  16.681   6.507
 3039POPC   C3B41997  33.520  16.501   6.889
 3039POPC   C4B41998  33.436  16.622   7.288
 3040POPC   NC341999   3.639   4.712   5.499
 3040POPC   PO442000   3.648   4.127   5.218
 3040POPC   GL142001   3.408   4.168   5.673
 3040POPC   GL242002   3.333   4.495   5.836
 3040POPC   C1A42003   3.495   4.162   6.184
 3040POPC   D2A42004   3.833   4.309   6.516
 3040POPC   C3A42005   3.784   4.278   6.975
 3040POPC   C4A42006   3.444   4.152   7.225
 3040POPC   C1B42007   3.195   4.555   6.281
 3040POPC   C2B42008   3.366   4.484   6.727
 3040POPC   C3B42009   3.521   4.687   7.135
 3040POPC   C4B42010   3.338   4.855   7.534
 3041POPC   NC342011  33.264  31.054   5.383
 3041POPC   PO442012  33.115  31.721   5.510
 3041POPC   GL142013  33.023  31.559   5.889
 3041POPC   GL242014  32.986  31.250   5.811
 3041POPC   C1A42015  33.135  31.657   6.317
 3041POPC   D2A42016  33.284  31.848   6.677
 3041POPC   C3A42017  33.134  31.595   6.994
 3041POPC   C4A42018  33.367  31.446   7.325
 3041POPC   C1B42019  32.970  31.099   6.234
 3041POPC   C2B42020  33.232  31.188   6.609
 3041POPC   C3B42021  33.234  31.069   7.040
 3041POPC   C4B42022  32.929  31.205   7.417
 3042POPC   NC342023  34.867   7.968   5.174
 3042POPC   PO442024  34.813   8.514   5.567
 3042POPC   GL142025  34.507   8.198   5.768
 3042POPC   GL242026  34.488   7.824   5.823
 3042POPC   C1A42027  34.287   8.238   6.154
 3042POPC   D2A42028  34.405   8.467   6.528
 3042POPC   C3A42029  34.303   8.294   6.912
 3042POPC   C4A42030  34.394   8.320   7.300
 3042POPC   C1B42031  34.613   7.849   6.251
 3042POPC   C2B42032  34.405   7.853   6.647
 3042POPC   C3B42033  34.593   7.880   7.055
 3042POPC   C4B42034  34.953   7.996   7.263
 3043POPC   NC342035  32.444  37.831   5.362
 3043POPC   PO442036  31.915  37.462   5.192
 3043POPC   GL142037  32.087  37.547   5.658
 3043POPC   GL242038  32.422  37.559   5.781
 3043POPC   C1A42039  32.099  37.742   6.134
 3043POPC   D2A42040  32.142  38.053   6.508
 3043POPC   C3A42041  32.222  37.914   6.941
 3043POPC   C4A42042  31.975  37.719   7.262
 3043POPC   C1B42043  32.532  37.455   6.167
 3043POPC   C2B42044  32.458  37.602   6.543
 3043POPC   C3B42045  32.688  37.561   6.902
 3043POPC   C4B42046  32.485  37.575   7.259
 3044POPC   NC342047  35.493  36.366   5.404
 3044POPC   PO442048  35.035  36.995   5.463
 3044POPC   GL142049  35.358  36.989   5.790
 3044POPC   GL242050  35.578  36.697   5.807
 3044POPC   C1A42051  35.410  37.018   6.245
 3044POPC   D2A42052  35.216  36.791   6.601
 3044POPC   C3A42053  35.195  36.984   7.008
 3044POPC   C4A42054  35.098  36.894   7.438
 3044POPC   C1B42055  35.419  36.499   6.193
 3044POPC   C2B42056  35.552  36.292   6.581
 3044POPC   C3B42057  35.447  36.509   6.960
 3044POPC   C4B42058  35.561  36.756   7.286
 3045POPC   NC342059  35.845  14.660   5.339
 3045POPC   PO442060  36.415  14.334   5.574
 3045POPC   GL142061  36.303  14.494   5.943
 3045POPC   GL242062  36.023  14.367   6.076
 3045POPC   C1A42063  36.344  14.570   6.394
 3045POPC   D2A42064  36.048  14.437   6.698
 3045POPC   C3A42065  36.159  14.576   7.086
 3045POPC   C4A42066  36.288  14.419   7.463
 3045POPC   C1B42067  35.651  14.416   6.359
 3045POPC   C2B42068  35.491  14.229   6.666
 3045POPC   C3B42069  35.701  14.142   6.986
 3045POPC   C4B42070  35.772  14.360   7.316
 3046POPC   NC342071  30.590   4.547   5.441
 3046POPC   PO442072  31.033   4.083   5.402
 3046POPC   GL142073  30.942   4.343   5.785
 3046POPC   GL242074  30.969   4.719   5.752
 3046POPC   C1A42075  30.698   4.287   6.184
 3046POPC   D2A42076  30.403   4.455   6.496
 3046POPC   C3A42077  30.475   4.311   6.939
 3046POPC   C4A42078  30.753   4.206   7.240
 3046POPC   C1B42079  31.070   4.655   6.218
 3046POPC   C2B42080  30.935   4.477   6.650
 3046POPC   C3B42081  31.165   4.427   7.069
 3046POPC   C4B42082  31.075   4.480   7.539
 3047POPC   NC342083  38.061  17.026   5.345
 3047POPC   PO442084  38.050  16.277   5.369
 3047POPC   GL142085  37.901  16.465   5.783
 3047POPC   GL242086  38.038  16.829   5.818
 3047POPC   C1A42087  37.609  16.517   6.172
 3047POPC   D2A42088  37.614  16.767   6.590
 3047POPC   C3A42089  37.367  16.964   6.935
 3047POPC   C4A42090  37.465  16.863   7.368
 3047POPC   C1B42091  37.948  16.934   6.234
 3047POPC   C2B42092  38.132  16.851   6.646
 3047POPC   C3B42093  37.897  16.886   7.037
 3047POPC   C4B42094  37.867  17.169   7.386
 3048POPC   NC342095  44.973  36.316   5.236
 3048POPC   PO442096  44.890  37.045   5.350
 3048POPC   GL142097  44.991  37.025   5.815
 3048POPC   GL242098  44.689  37.222   5.830
 3048POPC   C1A42099  44.954  36.911   6.296
 3048POPC   D2A42100  44.538  36.715   6.491
 3048POPC   C3A42101  44.546  36.613   6.922
 3048POPC   C4A42102  44.944  36.735   7.104
 3048POPC   C1B42103  44.528  37.161   6.220
 3048POPC   C2B42104  44.646  37.194   6.644
 3048POPC   C3B42105  44.590  37.096   7.064
 3048POPC   C4B42106  44.490  37.102   7.498
 3049POPC   NC342107  14.391  23.566   5.348
 3049POPC   PO442108  14.699  24.059   5.769
 3049POPC   GL142109  14.270  23.816   5.845
 3049POPC   GL242110  14.193  23.419   5.797
 3049POPC   C1A42111  14.176  23.957   6.275
 3049POPC   D2A42112  14.504  23.914   6.609
 3049POPC   C3A42113  14.384  23.978   7.043
 3049POPC   C4A42114  14.466  23.716   7.424
 3049POPC   C1B42115  14.202  23.451   6.235
 3049POPC   C2B42116  14.120  23.525   6.661
 3049POPC   C3B42117  14.325  23.423   7.029
 3049POPC   C4B42118  14.151  23.299   7.418
 3050POPC   NC342119  35.360  18.898   5.288
 3050POPC   PO442120  35.854  19.281   5.474
 3050POPC   GL142121  35.599  18.973   5.757
 3050POPC   GL242122  35.275  18.732   5.757
 3050POPC   C1A42123  35.415  19.038   6.169
 3050POPC   D2A42124  35.188  19.214   6.507
 3050POPC   C3A42125  35.405  19.160   6.877
 3050POPC   C4A42126  35.266  19.162   7.255
 3050POPC   C1B42127  35.153  18.609   6.171
 3050POPC   C2B42128  35.315  18.724   6.603
 3050POPC   C3B42129  35.067  18.767   6.985
 3050POPC   C4B42130  35.107  18.737   7.444
 3051POPC   NC342131  24.429  28.144   5.429
 3051POPC   PO442132  24.397  28.839   5.400
 3051POPC   GL142133  24.498  28.531   5.763
 3051POPC   GL242134  24.266  28.229   5.891
 3051POPC   C1A42135  24.635  28.433   6.180
 3051POPC   D2A42136  24.379  28.248   6.499
 3051POPC   C3A42137  24.475  28.186   6.919
 3051POPC   C4A42138  24.385  28.261   7.373
 3051POPC   C1B42139  24.120  28.549   6.174
 3051POPC   C2B42140  23.930  28.552   6.584
 3051POPC   C3B42141  24.129  28.598   6.961
 3051POPC   C4B42142  24.173  28.778   7.367
 3052POPC   NC342143  11.147  36.225   5.218
 3052POPC   PO442144  11.693  36.540   5.375
 3052POPC   GL142145  11.446  36.263   5.655
 3052POPC   GL242146  11.114  36.285   5.739
 3052POPC   C1A42147  11.449  36.109   6.097
 3052POPC   D2A42148  11.550  35.799   6.396
 3052POPC   C3A42149  11.341  35.700   6.808
 3052POPC   C4A42150  11.397  35.900   7.216
 3052POPC   C1B42151  10.997  36.318   6.159
 3052POPC   C2B42152  11.094  36.067   6.502
 3052POPC   C3B42153  11.043  36.133   6.919
 3052POPC   C4B42154  10.833  36.009   7.277
 3053POPC   NC342155  30.424  40.854   5.593
 3053POPC   PO442156  30.881  40.329   5.444
 3053POPC   GL142157  30.904  40.714   5.731
 3053POPC   GL242158  30.646  40.517   5.888
 3053POPC   C1A42159  30.835  41.019   6.139
 3053POPC   D2A42160  30.738  41.238   6.580
 3053POPC   C3A42161  30.662  41.000   6.992
 3053POPC   C4A42162  30.475  40.602   7.145
 3053POPC   C1B42163  30.922  40.534   6.215
 3053POPC   C2B42164  30.888  40.718   6.610
 3053POPC   C3B42165  30.993  40.591   7.022
 3053POPC   C4B42166  30.865  40.327   7.312
 3054POPC   NC342167  27.211  10.764   5.437
 3054POPC   PO442168  26.578  10.423   5.487
 3054POPC   GL142169  26.914  10.438   5.789
 3054POPC   GL242170  27.025  10.779   5.904
 3054POPC   C1A42171  26.866  10.369   6.212
 3054POPC   D2A42172  26.545  10.414   6.494
 3054POPC   C3A42173  26.769  10.435   6.869
 3054POPC   C4A42174  26.604  10.326   7.239
 3054POPC   C1B42175  27.294  10.639   6.226
 3054POPC   C2B42176  27.200  10.532   6.611
 3054POPC   C3B42177  27.173  10.836   6.922
 3054POPC   C4B42178  27.033  10.629   7.269
 3055POPC   NC342179  17.290  11.572   5.345
 3055POPC   PO442180  17.329  10.884   5.361
 3055POPC   GL142181  17.529  11.189   5.669
 3055POPC   GL242182  17.313  11.415   5.818
 3055POPC   C1A42183  17.726  11.224   6.106
 3055POPC   D2A42184  17.641  11.123   6.551
 3055POPC   C3A42185  17.412  11.368   6.847
 3055POPC   C4A42186  17.649  11.350   7.233
 3055POPC   C1B42187  17.236  11.215   6.213
 3055POPC   C2B42188  16.985  11.214   6.551
 3055POPC   C3B42189  16.962  11.103   6.956
 3055POPC   C4B42190  17.247  11.033   7.236
 3056POPC   NC342191  33.061  11.617   5.427
 3056POPC   PO442192  33.263  11.041   5.190
 3056POPC   GL142193  33.070  11.158   5.696
 3056POPC   GL242194  33.077  11.481   5.902
 3056POPC   C1A42195  33.155  11.067   6.173
 3056POPC   D2A42196  33.147  11.344   6.540
 3056POPC   C3A42197  33.280  11.205   6.946
 3056POPC   C4A42198  33.135  11.258   7.400
 3056POPC   C1B42199  32.774  11.538   6.259
 3056POPC   C2B42200  32.643  11.347   6.659
 3056POPC   C3B42201  32.826  11.444   7.019
 3056POPC   C4B42202  32.703  11.550   7.409
 3057POPC   NC342203  18.169  14.011   5.369
 3057POPC   PO442204  18.132  14.679   5.252
 3057POPC   GL142205  18.342  14.458   5.600
 3057POPC   GL242206  18.260  14.731   5.796
 3057POPC   C1A42207  18.207  14.197   5.996
 3057POPC   D2A42208  18.062  14.295   6.412
 3057POPC   C3A42209  18.188  14.260   6.851
 3057POPC   C4A42210  18.019  14.530   7.179
 3057POPC   C1B42211  18.545  14.554   6.087
 3057POPC   C2B42212  18.499  14.587   6.545
 3057POPC   C3B42213  18.457  14.714   6.981
 3057POPC   C4B42214  18.537  14.675   7.432
 3058POPC   NC342215  24.471   9.232   5.161
 3058POPC   PO442216  24.737   9.005   5.675
 3058POPC   GL142217  24.466   8.996   5.982
 3058POPC   GL242218  24.400   8.649   5.933
 3058POPC   C1A42219  24.537   9.159   6.384
 3058POPC   D2A42220  24.799   9.239   6.713
 3058POPC   C3A42221  24.622   9.119   7.104
 3058POPC   C4A42222  24.546   8.975   7.512
 3058POPC   C1B42223  24.667   8.656   6.313
 3058POPC   C2B42224  24.572   8.752   6.743
 3058POPC   C3B42225  24.550   8.598   7.162
 3058POPC   C4B42226  24.248   8.542   7.499
 3059POPC   NC342227  14.923  36.572   5.300
 3059POPC   PO442228  15.328  36.016   5.514
 3059POPC   GL142229  15.120  36.069   5.875
 3059POPC   GL242230  15.134  36.414   5.803
 3059POPC   C1A42231  15.088  36.138   6.325
 3059POPC   D2A42232  14.965  36.388   6.659
 3059POPC   C3A42233  14.893  36.237   7.064
 3059POPC   C4A42234  14.905  36.004   7.445
 3059POPC   C1B42235  15.520  36.313   6.088
 3059POPC   C2B42236  15.610  36.080   6.453
 3059POPC   C3B42237  15.382  36.145   6.825
 3059POPC   C4B42238  15.431  36.233   7.231
 3060POPC   NC342239  30.806  38.491   5.409
 3060POPC   PO442240  30.234  38.673   5.768
 3060POPC   GL142241  30.459  38.444   5.981
 3060POPC   GL242242  30.791  38.440   5.925
 3060POPC   C1A42243  30.529  38.442   6.402
 3060POPC   D2A42244  30.826  38.681   6.631
 3060POPC   C3A42245  30.876  38.433   6.997
 3060POPC   C4A42246  30.702  38.476   7.381
 3060POPC   C1B42247  30.863  38.101   6.168
 3060POPC   C2B42248  30.921  38.152   6.567
 3060POPC   C3B42249  31.032  37.943   6.936
 3060POPC   C4B42250  31.088  38.063   7.324
 3061POPC   NC342251  31.452  42.139   5.269
 3061POPC   PO442252  31.048  42.799   5.370
 3061POPC   GL142253  31.245  42.537   5.696
 3061POPC   GL242254  31.545  42.327   5.727
 3061POPC   C1A42255  31.151  42.401   6.114
 3061POPC   D2A42256  31.277  42.163   6.467
 3061POPC   C3A42257  31.123  42.300   6.843
 3061POPC   C4A42258  31.351  42.381   7.190
 3061POPC   C1B42259  31.662  42.355   6.158
 3061POPC   C2B42260  31.820  42.369   6.566
 3061POPC   C3B42261  31.832  42.243   6.991
 3061POPC   C4B42262  31.824  42.487   7.374
 3062POPC   NC342263  39.438  38.729   5.474
 3062POPC   PO442264  39.271  39.314   5.213
 3062POPC   GL142265  39.286  39.212   5.663
 3062POPC   GL242266  39.019  39.429   5.800
 3062POPC   C1A42267  39.400  39.310   6.102
 3062POPC   D2A42268  39.222  39.289   6.518
 3062POPC   C3A42269  39.515  39.185   6.824
 3062POPC   C4A42270  39.396  39.248   7.232
 3062POPC   C1B42271  38.813  39.407   6.233
 3062POPC   C2B42272  38.847  39.651   6.652
 3062POPC   C3B42273  39.039  39.609   7.075
 3062POPC   C4B42274  38.958  39.620   7.545
 3063POPC   NC342275  42.759   7.605   5.440
 3063POPC   PO442276  43.367   7.323   5.372
 3063POPC   GL142277  43.156   7.167   5.772
 3063POPC   GL242278  42.805   7.206   5.828
 3063POPC   C1A42279  43.102   6.905   6.148
 3063POPC   D2A42280  42.916   6.869   6.558
 3063POPC   C3A42281  42.972   7.218   6.805
 3063POPC   C4A42282  43.208   7.195   7.167
 3063POPC   C1B42283  42.880   7.363   6.287
 3063POPC   C2B42284  43.125   7.644   6.571
 3063POPC   C3B42285  43.125   7.692   7.001
 3063POPC   C4B42286  42.796   7.490   7.247
 3064POPC   NC342287  27.925   5.345   5.280
 3064POPC   PO442288  27.625   4.718   5.449
 3064POPC   GL142289  27.730   4.968   5.803
 3064POPC   GL242290  27.772   4.703   5.990
 3064POPC   C1A42291  27.688   5.143   6.223
 3064POPC   D2A42292  27.627   4.918   6.633
 3064POPC   C3A42293  27.380   5.160   6.902
 3064POPC   C4A42294  27.495   5.451   7.229
 3064POPC   C1B42295  27.381   4.679   6.259
 3064POPC   C2B42296  27.123   4.780   6.631
 3064POPC   C3B42297  27.162   4.728   7.060
 3064POPC   C4B42298  27.414   4.949   7.363
 3065POPC   NC342299  16.955   1.325   5.449
 3065POPC   PO442300  16.336   1.018   5.468
 3065POPC   GL142301  16.554   1.138   5.819
 3065POPC   GL242302  16.811   0.901   5.818
 3065POPC   C1A42303  16.441   1.078   6.269
 3065POPC   D2A42304  16.562   1.022   6.710
 3065POPC   C3A42305  16.421   1.357   6.967
 3065POPC   C4A42306  16.527   1.440   7.379
 3065POPC   C1B42307  16.921   0.902   6.284
 3065POPC   C2B42308  17.005   1.237   6.610
 3065POPC   C3B42309  16.897   1.219   7.069
 3065POPC   C4B42310  17.014   1.080   7.481
 3066POPC   NC342311  38.582  43.075   5.550
 3066POPC   PO442312  39.135  42.951   5.386
 3066POPC   GL142313  39.279  42.881   5.809
 3066POPC   GL242314  39.454  43.198   5.875
 3066POPC   C1A42315  39.273  42.925   6.275
 3066POPC   D2A42316  39.245  43.215   6.609
 3066POPC   C3A42317  39.279  43.025   7.003
 3066POPC   C4A42318  39.246  43.084   7.457
 3066POPC   C1B42319  39.616  43.404   6.272
 3066POPC   C2B42320  39.629  43.555   6.727
 3066POPC   C3B42321  39.377  43.512   7.119
 3066POPC   C4B42322  39.227  43.574   7.564
 3067POPC   NC342323   6.314  32.267   5.513
 3067POPC   PO442324   7.093  32.417   5.439
 3067POPC   GL142325   6.911  32.261   5.860
 3067POPC   GL242326   6.665  32.046   5.804
 3067POPC   C1A42327   6.631  32.221   6.265
 3067POPC   D2A42328   6.407  32.442   6.566
 3067POPC   C3A42329   6.656  32.502   6.926
 3067POPC   C4A42330   6.501  32.385   7.304
 3067POPC   C1B42331   6.329  31.851   6.085
 3067POPC   C2B42332   6.216  31.945   6.524
 3067POPC   C3B42333   6.496  32.003   6.895
 3067POPC   C4B42334   6.625  31.887   7.335
 3068POPC   NC342335   6.528  16.283   5.417
 3068POPC   PO442336   6.756  16.951   5.333
 3068POPC   GL142337   6.559  16.750   5.684
 3068POPC   GL242338   6.758  16.503   5.851
 3068POPC   C1A42339   6.463  16.852   6.137
 3068POPC   D2A42340   6.775  16.865   6.477
 3068POPC   C3A42341   6.634  17.028   6.858
 3068POPC   C4A42342   6.429  16.843   7.199
 3068POPC   C1B42343   6.542  16.362   6.251
 3068POPC   C2B42344   6.393  16.517   6.672
 3068POPC   C3B42345   6.582  16.381   7.068
 3068POPC   C4B42346   6.924  16.415   7.409
 3069POPC   NC342347  35.127  39.018   5.274
 3069POPC   PO442348  35.750  39.329   5.432
 3069POPC   GL142349  35.558  39.352   5.814
 3069POPC   GL242350  35.230  39.241   5.725
 3069POPC   C1A42351  35.384  39.361   6.217
 3069POPC   D2A42352  35.410  39.202   6.598
 3069POPC   C3A42353  35.350  39.419   6.934
 3069POPC   C4A42354  35.435  39.207   7.300
 3069POPC   C1B42355  35.134  38.928   6.036
 3069POPC   C2B42356  34.984  38.922   6.447
 3069POPC   C3B42357  35.056  38.862   6.886
 3069POPC   C4B42358  34.912  39.174   7.171
 3070POPC   NC342359  34.185  38.321   5.349
 3070POPC   PO442360  33.555  38.361   5.405
 3070POPC   GL142361  33.897  38.393   5.775
 3070POPC   GL242362  34.004  38.740   5.917
 3070POPC   C1A42363  33.815  38.373   6.214
 3070POPC   D2A42364  33.796  38.652   6.562
 3070POPC   C3A42365  33.779  38.429   6.924
 3070POPC   C4A42366  33.688  38.404   7.345
 3070POPC   C1B42367  34.132  38.948   6.308
 3070POPC   C2B42368  33.967  39.127   6.674
 3070POPC   C3B42369  33.908  38.908   7.044
 3070POPC   C4B42370  34.120  38.643   7.332
 3071POPC   NC342371  31.818  19.214   5.380
 3071POPC   PO442372  31.311  18.896   5.446
 3071POPC   GL142373  31.611  18.925   5.805
 3071POPC   GL242374  31.637  19.264   5.857
 3071POPC   C1A42375  31.491  18.970   6.259
 3071POPC   D2A42376  31.281  18.845   6.672
 3071POPC   C3A42377  31.509  18.978   7.058
 3071POPC   C4A42378  31.410  19.246   7.420
 3071POPC   C1B42379  31.761  19.410   6.253
 3071POPC   C2B42380  31.814  19.217   6.666
 3071POPC   C3B42381  31.890  19.322   7.126
 3071POPC   C4B42382  31.888  19.083   7.499
 3072POPC   NC342383  29.636  34.317   5.555
 3072POPC   PO442384  30.170  34.544   5.199
 3072POPC   GL142385  30.130  34.652   5.665
 3072POPC   GL242386  30.106  34.353   5.853
 3072POPC   C1A42387  29.852  34.747   6.054
 3072POPC   D2A42388  29.643  34.712   6.486
 3072POPC   C3A42389  29.879  34.833   6.880
 3072POPC   C4A42390  29.890  34.822   7.328
 3072POPC   C1B42391  29.966  34.295   6.302
 3072POPC   C2B42392  29.898  34.326   6.749
 3072POPC   C3B42393  29.760  34.357   7.154
 3072POPC   C4B42394  30.025  34.360   7.487
 3073POPC   NC342395  26.741  31.763   5.348
 3073POPC   PO442396  26.924  31.070   5.441
 3073POPC   GL142397  26.819  31.394   5.714
 3073POPC   GL242398  27.111  31.540   5.868
 3073POPC   C1A42399  26.725  31.341   6.144
 3073POPC   D2A42400  26.630  31.553   6.507
 3073POPC   C3A42401  26.826  31.483   6.883
 3073POPC   C4A42402  26.653  31.322   7.271
 3073POPC   C1B42403  27.066  31.791   6.273
 3073POPC   C2B42404  26.953  32.037   6.672
 3073POPC   C3B42405  27.180  31.968   7.071
 3073POPC   C4B42406  27.139  31.556   7.296
 3074POPC   NC342407   1.384   6.270   5.431
 3074POPC   PO442408   1.101   5.596   5.358
 3074POPC   GL142409   1.311   5.744   5.712
 3074POPC   GL242410   1.142   6.023   5.864
 3074POPC   C1A42411   1.346   5.622   6.153
 3074POPC   D2A42412   1.080   5.506   6.547
 3074POPC   C3A42413   1.179   5.625   6.985
 3074POPC   C4A42414   1.475   5.841   7.251
 3074POPC   C1B42415   1.024   5.976   6.310
 3074POPC   C2B42416   1.145   6.084   6.716
 3074POPC   C3B42417   0.876   6.053   7.070
 3074POPC   C4B42418   1.001   5.835   7.432
 3075POPC   NC342419   4.215  35.113   5.514
 3075POPC   PO442420   4.084  35.773   5.614
 3075POPC   GL142421   4.170  35.541   5.929
 3075POPC   GL242422   4.424  35.278   5.944
 3075POPC   C1A42423   4.069  35.376   6.301
 3075POPC   D2A42424   4.367  35.341   6.597
 3075POPC   C3A42425   4.234  35.530   6.970
 3075POPC   C4A42426   4.201  35.129   7.194
 3075POPC   C1B42427   4.630  35.597   6.180
 3075POPC   C2B42428   4.838  35.643   6.569
 3075POPC   C3B42429   4.726  35.436   6.939
 3075POPC   C4B42430   4.569  35.441   7.343
 3076POPC   NC342431  19.507  30.675   5.327
 3076POPC   PO442432  20.168  30.617   5.504
 3076POPC   GL142433  19.885  30.723   5.863
 3076POPC   GL242434  19.621  30.960   5.774
 3076POPC   C1A42435  19.927  30.643   6.326
 3076POPC   D2A42436  20.031  31.007   6.624
 3076POPC   C3A42437  20.201  30.898   7.036
 3076POPC   C4A42438  19.935  30.661   7.312
 3076POPC   C1B42439  19.611  31.032   6.231
 3076POPC   C2B42440  19.523  30.857   6.626
 3076POPC   C3B42441  19.667  30.977   7.013
 3076POPC   C4B42442  19.692  31.072   7.428
 3077POPC   NC342443  10.646  35.781   5.519
 3077POPC   PO442444  10.795  36.494   5.405
 3077POPC   GL142445  10.610  36.243   5.808
 3077POPC   GL242446  10.714  35.946   5.999
 3077POPC   C1A42447  10.498  36.360   6.249
 3077POPC   D2A42448  10.579  36.083   6.605
 3077POPC   C3A42449  10.509  36.288   7.002
 3077POPC   C4A42450  10.328  36.090   7.363
 3077POPC   C1B42451  10.273  35.894   6.185
 3077POPC   C2B42452  10.181  35.728   6.609
 3077POPC   C3B42453  10.324  35.696   7.019
 3077POPC   C4B42454  10.529  35.620   7.402
 3078POPC   NC342455   6.723  30.375   5.552
 3078POPC   PO442456   6.463  30.986   5.378
 3078POPC   GL142457   6.460  30.773   5.769
 3078POPC   GL242458   6.816  30.816   5.810
 3078POPC   C1A42459   6.578  30.564   6.187
 3078POPC   D2A42460   6.559  30.343   6.578
 3078POPC   C3A42461   6.445  30.552   6.953
 3078POPC   C4A42462   6.339  30.409   7.370
 3078POPC   C1B42463   7.043  30.780   6.192
 3078POPC   C2B42464   6.854  30.795   6.608
 3078POPC   C3B42465   6.967  30.735   7.056
 3078POPC   C4B42466   6.838  30.932   7.447
 3079POPC   NC342467  39.354  18.921   5.325
 3079POPC   PO442468  39.686  19.310   5.692
 3079POPC   GL142469  39.282  19.170   5.803
 3079POPC   GL242470  39.108  18.835   5.778
 3079POPC   C1A42471  39.118  19.242   6.185
 3079POPC   D2A42472  39.304  19.136   6.568
 3079POPC   C3A42473  39.369  19.431   6.883
 3079POPC   C4A42474  39.216  19.245   7.251
 3079POPC   C1B42475  39.298  18.770   6.182
 3079POPC   C2B42476  39.591  18.690   6.523
 3079POPC   C3B42477  39.543  18.865   6.931
 3079POPC   C4B42478  39.293  18.725   7.246
 3080POPC   NC342479  40.191  25.317   5.355
 3080POPC   PO442480  39.575  24.995   5.227
 3080POPC   GL142481  39.894  25.036   5.703
 3080POPC   GL242482  40.154  25.338   5.856
 3080POPC   C1A42483  40.201  24.937   6.119
 3080POPC   D2A42484  40.334  25.305   6.422
 3080POPC   C3A42485  40.026  25.431   6.781
 3080POPC   C4A42486  40.008  25.234   7.213
 3080POPC   C1B42487  39.842  25.343   6.201
 3080POPC   C2B42488  39.622  25.651   6.458
 3080POPC   C3B42489  39.543  25.717   6.885
 3080POPC   C4B42490  39.557  25.465   7.239
 3081POPC   NC342491   4.805  21.482   5.379
 3081POPC   PO442492   5.136  20.943   5.443
 3081POPC   GL142493   5.099  21.264   5.762
 3081POPC   GL242494   5.383  21.504   5.779
 3081POPC   C1A42495   4.984  21.554   6.118
 3081POPC   D2A42496   5.122  21.724   6.530
 3081POPC   C3A42497   4.887  21.732   6.857
 3081POPC   C4A42498   4.785  21.432   7.130
 3081POPC   C1B42499   5.430  21.290   6.172
 3081POPC   C2B42500   5.500  21.414   6.583
 3081POPC   C3B42501   5.274  21.349   6.934
 3081POPC   C4B42502   5.252  21.631   7.234
 3082POPC   NC342503   1.464  34.428   5.166
 3082POPC   PO442504   1.289  34.162   5.792
 3082POPC   GL142505   1.094  34.554   5.825
 3082POPC   GL242506   1.384  34.690   5.656
 3082POPC   C1A42507   0.941  34.589   6.268
 3082POPC   D2A42508   1.132  34.649   6.668
 3082POPC   C3A42509   0.878  34.705   7.012
 3082POPC   C4A42510   0.890  34.530   7.445
 3082POPC   C1B42511   1.428  34.749   6.141
 3082POPC   C2B42512   1.548  34.414   6.449
 3082POPC   C3B42513   1.544  34.460   6.908
 3082POPC   C4B42514   1.518  34.846   7.172
 3083POPC   NC342515  11.949  34.297   5.075
 3083POPC   PO442516  12.046  33.685   5.346
 3083POPC   GL142517  12.063  33.637   5.803
 3083POPC   GL242518  11.756  33.786   5.929
 3083POPC   C1A42519  12.370  33.712   6.168
 3083POPC   D2A42520  12.293  33.934   6.565
 3083POPC   C3A42521  12.284  33.782   7.008
 3083POPC   C4A42522  12.172  33.955   7.418
 3083POPC   C1B42523  11.884  33.691   6.317
 3083POPC   C2B42524  11.957  33.525   6.693
 3083POPC   C3B42525  11.739  33.631   7.047
 3083POPC   C4B42526  11.688  33.799   7.440
 3084POPC   NC342527   3.099  15.410   5.311
 3084POPC   PO442528   2.400  15.504   5.443
 3084POPC   GL142529   2.714  15.311   5.768
 3084POPC   GL242530   2.877  14.962   5.798
 3084POPC   C1A42531   2.657  15.330   6.216
 3084POPC   D2A42532   2.662  15.037   6.581
 3084POPC   C3A42533   2.615  15.220   7.004
 3084POPC   C4A42534   2.789  14.965   7.334
 3084POPC   C1B42535   3.105  15.127   6.133
 3084POPC   C2B42536   3.075  15.321   6.513
 3084POPC   C3B42537   3.096  15.096   6.885
 3084POPC   C4B42538   3.259  15.157   7.236
 3085POPC   NC342539  16.144  27.495   5.466
 3085POPC   PO442540  15.546  27.381   5.726
 3085POPC   GL142541  15.914  27.520   5.933
 3085POPC   GL242542  16.064  27.189   5.878
 3085POPC   C1A42543  16.029  27.665   6.379
 3085POPC   D2A42544  15.785  27.787   6.761
 3085POPC   C3A42545  15.984  27.852   7.152
 3085POPC   C4A42546  16.298  27.802   7.410
 3085POPC   C1B42547  15.882  27.163   6.289
 3085POPC   C2B42548  16.003  27.225   6.699
 3085POPC   C3B42549  15.932  27.356   7.110
 3085POPC   C4B42550  15.966  27.456   7.551
 3086POPC   NC342551  44.274  28.418   5.001
 3086POPC   PO442552  44.447  28.035   5.505
 3086POPC   GL142553  44.318  28.338   5.854
 3086POPC   GL242554  44.570  28.575   5.991
 3086POPC   C1A42555  44.141  28.523   6.261
 3086POPC   D2A42556  44.182  28.644   6.695
 3086POPC   C3A42557  44.502  28.449   6.953
 3086POPC   C4A42558  44.588  28.392   7.384
 3086POPC   C1B42559  44.663  28.301   6.352
 3086POPC   C2B42560  44.751  28.041   6.744
 3086POPC   C3B42561  44.982  28.227   7.106
 3086POPC   C4B42562   0.045  28.194   7.567
 3087POPC   NC342563   1.228  42.539   5.057
 3087POPC   PO442564   0.835  42.020   5.253
 3087POPC   GL142565   0.997  42.231   5.675
 3087POPC   GL242566   1.065  42.606   5.680
 3087POPC   C1A42567   1.217  42.348   6.098
 3087POPC   D2A42568   1.402  42.538   6.494
 3087POPC   C3A42569   1.233  42.434   6.909
 3087POPC   C4A42570   1.316  42.491   7.353
 3087POPC   C1B42571   0.958  42.779   6.126
 3087POPC   C2B42572   0.857  42.670   6.571
 3087POPC   C3B42573   0.934  42.866   6.958
 3087POPC   C4B42574   1.223  42.966   7.204
 3088POPC   NC342575  28.704  24.408   5.182
 3088POPC   PO442576  28.154  24.634   5.504
 3088POPC   GL142577  28.165  24.480   5.872
 3088POPC   GL242578  28.046  24.803   5.989
 3088POPC   C1A42579  28.304  24.380   6.278
 3088POPC   D2A42580  28.358  24.107   6.632
 3088POPC   C3A42581  28.277  24.290   7.051
 3088POPC   C4A42582  28.419  24.406   7.485
 3088POPC   C1B42583  28.073  24.838   6.424
 3088POPC   C2B42584  28.365  24.682   6.735
 3088POPC   C3B42585  28.578  24.749   7.139
 3088POPC   C4B42586  28.586  24.957   7.546
 3089POPC   NC342587  13.885   4.207   5.426
 3089POPC   PO442588  13.252   4.264   5.447
 3089POPC   GL142589  13.358   4.028   5.784
 3089POPC   GL242590  13.633   4.276   5.865
 3089POPC   C1A42591  13.514   3.882   6.161
 3089POPC   D2A42592  13.785   4.035   6.472
 3089POPC   C3A42593  13.695   4.126   6.900
 3089POPC   C4A42594  13.982   4.462   7.113
 3089POPC   C1B42595  13.496   4.411   6.260
 3089POPC   C2B42596  13.454   4.506   6.675
 3089POPC   C3B42597  13.450   4.572   7.116
 3089POPC   C4B42598  13.245   4.882   7.398
 3090POPC   NC342599  10.527   2.544   5.705
 3090POPC   PO442600  11.076   2.923   5.506
 3090POPC   GL142601  10.957   2.720   5.886
 3090POPC   GL242602  10.656   2.959   5.973
 3090POPC   C1A42603  10.776   2.598   6.315
 3090POPC   D2A42604  10.542   2.888   6.608
 3090POPC   C3A42605  10.417   2.759   7.016
 3090POPC   C4A42606  10.665   2.689   7.371
 3090POPC   C1B42607  10.224   2.954   6.212
 3090POPC   C2B42608  10.027   2.953   6.657
 3090POPC   C3B42609  10.081   3.172   7.068
 3090POPC   C4B42610  10.252   3.014   7.475
 3091POPC   NC342611  29.018  31.907   5.576
 3091POPC   PO442612  29.420  32.418   5.495
 3091POPC   GL142613  29.271  32.273   5.886
 3091POPC   GL242614  28.925  32.384   5.943
 3091POPC   C1A42615  29.145  32.026   6.257
 3091POPC   D2A42616  28.988  32.144   6.668
 3091POPC   C3A42617  29.219  31.947   6.989
 3091POPC   C4A42618  29.039  31.935   7.387
 3091POPC   C1B42619  29.045  32.555   6.357
 3091POPC   C2B42620  29.282  32.563   6.766
 3091POPC   C3B42621  29.159  32.417   7.205
 3091POPC   C4B42622  29.156  32.361   7.668
 3092POPC   NC342623  38.432  20.892   5.285
 3092POPC   PO442624  38.847  20.328   5.363
 3092POPC   GL142625  38.469  20.502   5.672
 3092POPC   GL242626  38.384  20.871   5.793
 3092POPC   C1A42627  38.447  20.544   6.160
 3092POPC   D2A42628  38.625  20.542   6.589
 3092POPC   C3A42629  38.387  20.505   6.908
 3092POPC   C4A42630  38.359  20.723   7.281
 3092POPC   C1B42631  38.253  21.021   6.254
 3092POPC   C2B42632  38.240  20.981   6.744
 3092POPC   C3B42633  38.106  21.132   7.171
 3092POPC   C4B42634  38.240  21.049   7.661
 3093POPC   NC342635   1.221   7.148   5.300
 3093POPC   PO442636   0.760   7.643   5.434
 3093POPC   GL142637   1.031   7.412   5.752
 3093POPC   GL242638   1.315   7.559   5.913
 3093POPC   C1A42639   0.951   7.427   6.241
 3093POPC   D2A42640   1.049   7.704   6.619
 3093POPC   C3A42641   1.082   7.572   7.048
 3093POPC   C4A42642   0.971   7.154   7.162
 3093POPC   C1B42643   1.472   7.408   6.330
 3093POPC   C2B42644   1.519   7.403   6.799
 3093POPC   C3B42645   1.571   7.630   7.196
 3093POPC   C4B42646   1.297   7.519   7.529
 3094POPC   NC342647   4.055   4.047   5.422
 3094POPC   PO442648   4.448   3.574   5.482
 3094POPC   GL142649   4.162   3.676   5.847
 3094POPC   GL242650   3.800   3.828   5.826
 3094POPC   C1A42651   4.281   3.540   6.285
 3094POPC   D2A42652   4.325   3.308   6.676
 3094POPC   C3A42653   4.325   3.514   7.078
 3094POPC   C4A42654   4.386   3.311   7.487
 3094POPC   C1B42655   3.901   3.868   6.270
 3094POPC   C2B42656   4.063   3.872   6.708
 3094POPC   C3B42657   3.807   3.781   7.076
 3094POPC   C4B42658   3.909   3.531   7.397
 3095POPC   NC342659  23.220  22.495   5.579
 3095POPC   PO442660  22.632  22.252   5.359
 3095POPC   GL142661  22.763  22.351   5.790
 3095POPC   GL242662  22.973  22.076   5.799
 3095POPC   C1A42663  22.800  22.411   6.264
 3095POPC   D2A42664  22.649  22.495   6.685
 3095POPC   C3A42665  22.874  22.318   7.019
 3095POPC   C4A42666  23.273  22.480   7.145
 3095POPC   C1B42667  22.832  21.924   6.206
 3095POPC   C2B42668  22.727  21.956   6.648
 3095POPC   C3B42669  22.787  21.754   7.053
 3095POPC   C4B42670  22.980  21.680   7.465
 3096POPC   NC342671  34.779   3.540   5.371
 3096POPC   PO442672  34.437   4.051   5.440
 3096POPC   GL142673  34.638   3.847   5.785
 3096POPC   GL242674  34.482   3.532   5.806
 3096POPC   C1A42675  34.619   3.793   6.241
 3096POPC   D2A42676  34.447   3.635   6.628
 3096POPC   C3A42677  34.714   3.593   6.991
 3096POPC   C4A42678  34.498   3.527   7.374
 3096POPC   C1B42679  34.768   3.323   6.103
 3096POPC   C2B42680  34.776   3.240   6.563
 3096POPC   C3B42681  34.663   3.077   6.994
 3096POPC   C4B42682  34.732   3.058   7.451
 3097POPC   NC342683  10.617  38.751   5.673
 3097POPC   PO442684  10.282  38.355   5.182
 3097POPC   GL142685  10.288  38.329   5.693
 3097POPC   GL242686  10.042  38.133   5.884
 3097POPC   C1A42687  10.336  38.403   6.188
 3097POPC   D2A42688  10.642  38.315   6.536
 3097POPC   C3A42689  10.652  38.546   6.937
 3097POPC   C4A42690  10.675  38.292   7.326
 3097POPC   C1B42691  10.018  37.991   6.273
 3097POPC   C2B42692  10.063  38.245   6.620
 3097POPC   C3B42693  10.240  38.265   6.999
 3097POPC   C4B42694  10.260  38.599   7.280
 3098POPC   NC342695  10.716  39.451   5.299
 3098POPC   PO442696  10.085  39.330   5.281
 3098POPC   GL142697  10.421  39.239   5.664
 3098POPC   GL242698  10.788  39.269   5.792
 3098POPC   C1A42699  10.376  39.201   6.156
 3098POPC   D2A42700  10.477  38.987   6.570
 3098POPC   C3A42701  10.348  39.197   6.974
 3098POPC   C4A42702  10.509  39.209   7.403
 3098POPC   C1B42703  10.886  39.096   6.212
 3098POPC   C2B42704  10.879  39.315   6.633
 3098POPC   C3B42705  10.961  39.169   7.070
 3098POPC   C4B42706  10.977  39.437   7.437
 3099POPC   NC342707  42.102  40.333   5.584
 3099POPC   PO442708  41.988  39.600   5.587
 3099POPC   GL142709  42.291  39.720   5.947
 3099POPC   GL242710  42.586  39.879   5.777
 3099POPC   C1A42711  42.346  39.726   6.416
 3099POPC   D2A42712  42.030  39.851   6.748
 3099POPC   C3A42713  42.198  40.034   7.157
 3099POPC   C4A42714  42.190  39.818   7.565
 3099POPC   C1B42715  42.623  40.125   6.159
 3099POPC   C2B42716  42.661  40.202   6.593
 3099POPC   C3B42717  42.677  40.035   7.010
 3099POPC   C4B42718  42.646  39.993   7.459
 3100POPC   NC342719   7.105  36.128   5.485
 3100POPC   PO442720   7.739  36.292   5.600
 3100POPC   GL142721   7.431  36.223   5.889
 3100POPC   GL242722   7.406  35.868   5.783
 3100POPC   C1A42723   7.446  36.206   6.345
 3100POPC   D2A42724   7.607  36.020   6.744
 3100POPC   C3A42725   7.583  36.221   7.148
 3100POPC   C4A42726   7.556  36.034   7.570
 3100POPC   C1B42727   7.323  35.716   6.151
 3100POPC   C2B42728   7.162  35.803   6.509
 3100POPC   C3B42729   7.141  35.854   6.892
 3100POPC   C4B42730   7.431  35.723   7.180
 3101POPC   NC342731  34.284  40.310   5.515
 3101POPC   PO442732  34.498  40.990   5.392
 3101POPC   GL142733  34.521  40.719   5.755
 3101POPC   GL242734  34.192  40.706   5.851
 3101POPC   C1A42735  34.704  40.621   6.173
 3101POPC   D2A42736  35.024  40.648   6.503
 3101POPC   C3A42737  34.862  40.544   6.915
 3101POPC   C4A42738  34.697  40.654   7.320
 3101POPC   C1B42739  34.200  40.541   6.256
 3101POPC   C2B42740  34.402  40.570   6.655
 3101POPC   C3B42741  34.284  40.448   7.072
 3101POPC   C4B42742  34.192  40.720   7.403
 3102POPC   NC342743  18.888  27.979   5.117
 3102POPC   PO442744  18.924  28.553   5.374
 3102POPC   GL142745  19.027  28.624   5.791
 3102POPC   GL242746  18.736  28.594   5.929
 3102POPC   C1A42747  19.120  28.322   6.157
 3102POPC   D2A42748  19.050  28.116   6.525
 3102POPC   C3A42749  19.350  28.128   6.819
 3102POPC   C4A42750  19.287  28.176   7.225
 3102POPC   C1B42751  18.882  28.756   6.329
 3102POPC   C2B42752  18.925  28.807   6.773
 3102POPC   C3B42753  19.102  28.747   7.168
 3102POPC   C4B42754  19.015  28.485   7.547
 3103POPC   NC342755  39.507  11.659   5.505
 3103POPC   PO442756  38.789  11.728   5.444
 3103POPC   GL142757  39.068  11.868   5.804
 3103POPC   GL242758  39.383  12.088   5.807
 3103POPC   C1A42759  39.164  11.844   6.252
 3103POPC   D2A42760  39.148  12.084   6.620
 3103POPC   C3A42761  39.069  11.868   6.998
 3103POPC   C4A42762  39.277  11.689   7.334
 3103POPC   C1B42763  39.633  12.049   6.215
 3103POPC   C2B42764  39.594  11.834   6.603
 3103POPC   C3B42765  39.568  11.958   7.028
 3103POPC   C4B42766  39.774  12.268   7.260
 3104POPC   NC342767  12.895  40.149   5.338
 3104POPC   PO442768  13.254  39.688   5.663
 3104POPC   GL142769  13.015  39.891   5.918
 3104POPC   GL242770  12.706  39.984   5.777
 3104POPC   C1A42771  12.976  40.033   6.306
 3104POPC   D2A42772  12.959  40.122   6.689
 3104POPC   C3A42773  13.076  39.891   7.005
 3104POPC   C4A42774  13.095  39.845   7.401
 3104POPC   C1B42775  12.497  39.988   6.166
 3104POPC   C2B42776  12.490  39.883   6.591
 3104POPC   C3B42777  12.587  40.021   7.006
 3104POPC   C4B42778  12.359  40.147   7.310
 3105POPC   NC342779  33.120   2.605   5.285
 3105POPC   PO442780  33.068   3.165   5.356
 3105POPC   GL142781  33.055   2.858   5.719
 3105POPC   GL242782  32.752   2.808   5.856
 3105POPC   C1A42783  33.152   2.721   6.162
 3105POPC   D2A42784  33.339   2.581   6.560
 3105POPC   C3A42785  33.231   2.797   6.953
 3105POPC   C4A42786  32.856   2.999   7.061
 3105POPC   C1B42787  32.676   2.922   6.251
 3105POPC   C2B42788  32.850   2.771   6.602
 3105POPC   C3B42789  32.703   2.528   6.944
 3105POPC   C4B42790  32.529   2.753   7.349
 3106POPC   NC342791  35.815  40.553   5.235
 3106POPC   PO442792  36.447  40.810   5.370
 3106POPC   GL142793  36.213  40.709   5.718
 3106POPC   GL242794  36.272  41.028   5.882
 3106POPC   C1A42795  35.939  40.710   6.106
 3106POPC   D2A42796  35.788  40.848   6.518
 3106POPC   C3A42797  36.020  40.877   6.922
 3106POPC   C4A42798  35.973  40.609   7.285
 3106POPC   C1B42799  36.240  41.064   6.355
 3106POPC   C2B42800  36.399  41.188   6.769
 3106POPC   C3B42801  36.381  41.291   7.215
 3106POPC   C4B42802  36.256  41.096   7.634
 3107POPC   NC342803   1.132  31.335   5.197
 3107POPC   PO442804   0.916  31.319   5.811
 3107POPC   GL142805   1.085  31.594   6.048
 3107POPC   GL242806   1.318  31.780   5.942
 3107POPC   C1A42807   1.128  31.678   6.448
 3107POPC   D2A42808   1.273  31.415   6.770
 3107POPC   C3A42809   0.913  31.356   7.020
 3107POPC   C4A42810   0.845  31.216   7.432
 3107POPC   C1B42811   1.621  31.784   6.261
 3107POPC   C2B42812   1.760  31.591   6.641
 3107POPC   C3B42813   1.634  31.663   7.034
 3107POPC   C4B42814   1.669  32.085   7.167
 3108POPC   NC342815  11.182  43.381   5.424
 3108POPC   PO442816  11.769  42.991   5.403
 3108POPC   GL142817  11.589  43.059   5.796
 3108POPC   GL242818  11.234  43.087   5.827
 3108POPC   C1A42819  11.598  43.097   6.236
 3108POPC   D2A42820  11.698  42.948   6.636
 3108POPC   C3A42821  11.633  43.216   6.973
 3108POPC   C4A42822  11.660  43.048   7.374
 3108POPC   C1B42823  11.118  42.874   6.198
 3108POPC   C2B42824  11.156  42.940   6.633
 3108POPC   C3B42825  11.263  42.887   7.076
 3108POPC   C4B42826  11.163  43.061   7.510
 3109POPC   NC342827  22.065  16.384   5.193
 3109POPC   PO442828  21.859  15.782   5.438
 3109POPC   GL142829  21.899  15.754   5.869
 3109POPC   GL242830  22.026  16.103   5.928
 3109POPC   C1A42831  22.120  15.704   6.263
 3109POPC   D2A42832  22.330  15.886   6.619
 3109POPC   C3A42833  22.176  15.713   7.004
 3109POPC   C4A42834  22.046  15.869   7.391
 3109POPC   C1B42835  22.086  16.271   6.379
 3109POPC   C2B42836  22.061  16.285   6.858
 3109POPC   C3B42837  21.999  16.368   7.303
 3109POPC   C4B42838  21.926  16.241   7.749
 3110POPC   NC342839  16.862  23.512   5.566
 3110POPC   PO442840  16.463  23.978   5.515
 3110POPC   GL142841  16.637  23.860   5.907
 3110POPC   GL242842  16.518  23.519   5.959
 3110POPC   C1A42843  16.723  23.801   6.348
 3110POPC   D2A42844  16.459  23.677   6.697
 3110POPC   C3A42845  16.622  23.869   7.050
 3110POPC   C4A42846  17.053  23.872   7.027
 3110POPC   C1B42847  16.806  23.313   6.265
 3110POPC   C2B42848  16.900  23.437   6.689
 3110POPC   C3B42849  16.857  23.385   7.096
 3110POPC   C4B42850  17.220  23.198   7.326
 3111POPC   NC342851  28.577  33.412   5.504
 3111POPC   PO442852  28.244  32.856   5.402
 3111POPC   GL142853  28.481  32.862   5.797
 3111POPC   GL242854  28.483  33.204   5.970
 3111POPC   C1A42855  28.555  32.771   6.244
 3111POPC   D2A42856  28.441  33.030   6.583
 3111POPC   C3A42857  28.319  32.825   6.942
 3111POPC   C4A42858  28.242  32.988   7.334
 3111POPC   C1B42859  28.646  33.462   6.319
 3111POPC   C2B42860  28.665  33.451   6.792
 3111POPC   C3B42861  28.685  33.172   7.130
 3111POPC   C4B42862  28.663  33.144   7.586
 3112POPC   NC342863   0.756  30.522   5.377
 3112POPC   PO442864   0.226  30.840   5.297
 3112POPC   GL142865   0.143  30.667   5.743
 3112POPC   GL242866   0.293  30.358   5.849
 3112POPC   C1A42867   0.156  30.674   6.210
 3112POPC   D2A42868   0.293  30.439   6.596
 3112POPC   C3A42869   0.238  30.659   6.996
 3112POPC   C4A42870   0.564  30.916   7.163
 3112POPC   C1B42871   0.644  30.500   6.172
 3112POPC   C2B42872   0.857  30.398   6.595
 3112POPC   C3B42873   0.835  30.512   7.040
 3112POPC   C4B42874   0.557  30.431   7.366
 3113POPC   NC342875  27.340  33.723   5.138
 3113POPC   PO442876  27.933  33.540   5.418
 3113POPC   GL142877  27.740  33.766   5.775
 3113POPC   GL242878  27.389  33.777   5.774
 3113POPC   C1A42879  27.796  33.949   6.183
 3113POPC   D2A42880  27.998  33.985   6.589
 3113POPC   C3A42881  27.795  33.827   6.947
 3113POPC   C4A42882  27.736  33.987   7.375
 3113POPC   C1B42883  27.479  33.536   6.182
 3113POPC   C2B42884  27.348  33.554   6.623
 3113POPC   C3B42885  27.259  33.757   7.009
 3113POPC   C4B42886  27.414  33.602   7.373
 3114POPC   NC342887  27.447  42.222   5.388
 3114POPC   PO442888  28.034  42.016   5.482
 3114POPC   GL142889  27.828  42.327   5.773
 3114POPC   GL242890  27.461  42.286   5.878
 3114POPC   C1A42891  27.800  42.451   6.218
 3114POPC   D2A42892  27.965  42.325   6.622
 3114POPC   C3A42893  27.710  42.349   6.995
 3114POPC   C4A42894  27.407  42.048   7.175
 3114POPC   C1B42895  27.287  42.615   6.089
 3114POPC   C2B42896  27.393  42.697   6.484
 3114POPC   C3B42897  27.231  42.541   6.837
 3114POPC   C4B42898  27.318  42.590   7.215
 3115POPC   NC342899  23.060   0.703   5.360
 3115POPC   PO442900  22.642   0.182   5.103
 3115POPC   GL142901  22.727   0.168   5.628
 3115POPC   GL242902  23.022   0.280   5.791
 3115POPC   C1A42903  22.684   0.267   6.148
 3115POPC   D2A42904  22.830   0.566   6.517
 3115POPC   C3A42905  22.801   0.438   6.959
 3115POPC   C4A42906  22.561   0.086   7.132
 3115POPC   C1B42907  23.155   0.575   6.100
 3115POPC   C2B42908  23.313   0.759   6.496
 3115POPC   C3B42909  23.221   0.773   6.931
 3115POPC   C4B42910  23.162   0.549   7.308
 3116POPC   NC342911  18.641  42.658   5.343
 3116POPC   PO442912  18.286  42.195   5.520
 3116POPC   GL142913  18.244  42.521   5.782
 3116POPC   GL242914  17.876  42.520   5.757
 3116POPC   C1A42915  18.461  42.456   6.190
 3116POPC   D2A42916  18.605  42.231   6.580
 3116POPC   C3A42917  18.568  42.448   7.008
 3116POPC   C4A42918  18.445  42.364   7.443
 3116POPC   C1B42919  17.995  42.199   6.112
 3116POPC   C2B42920  18.056  42.374   6.519
 3116POPC   C3B42921  17.984  42.301   6.937
 3116POPC   C4B42922  18.018  42.117   7.331
 3117POPC   NC342923  26.447  14.625   5.248
 3117POPC   PO442924  25.965  14.117   5.433
 3117POPC   GL142925  26.052  14.300   5.822
 3117POPC   GL242926  26.299  14.493   5.789
 3117POPC   C1A42927  26.196  14.123   6.220
 3117POPC   D2A42928  25.951  14.158   6.623
 3117POPC   C3A42929  26.133  14.198   7.022
 3117POPC   C4A42930  26.133  14.005   7.404
 3117POPC   C1B42931  26.081  14.620   6.223
 3117POPC   C2B42932  25.922  14.677   6.659
 3117POPC   C3B42933  25.975  14.748   7.105
 3117POPC   C4B42934  25.950  14.502   7.483
 3118POPC   NC342935  17.551  34.728   5.355
 3118POPC   PO442936  17.719  34.067   5.285
 3118POPC   GL142937  17.411  34.269   5.619
 3118POPC   GL242938  17.654  34.501   5.813
 3118POPC   C1A42939  17.298  34.279   6.108
 3118POPC   D2A42940  17.623  34.234   6.445
 3118POPC   C3A42941  17.535  34.230   6.895
 3118POPC   C4A42942  17.373  34.429   7.252
 3118POPC   C1B42943  17.554  34.713   6.227
 3118POPC   C2B42944  17.526  34.711   6.685
 3118POPC   C3B42945  17.778  34.657   7.061
 3118POPC   C4B42946  17.821  34.882   7.440
 3119POPC   NC342947  42.456  36.404   5.377
 3119POPC   PO442948  42.117  35.814   5.360
 3119POPC   GL142949  42.226  36.078   5.730
 3119POPC   GL242950  42.035  36.399   5.686
 3119POPC   C1A42951  42.345  36.040   6.179
 3119POPC   D2A42952  42.532  36.251   6.559
 3119POPC   C3A42953  42.635  36.048   6.960
 3119POPC   C4A42954  42.451  35.721   7.196
 3119POPC   C1B42955  42.080  36.489   6.138
 3119POPC   C2B42956  42.008  36.267   6.527
 3119POPC   C3B42957  42.098  36.089   6.936
 3119POPC   C4B42958  42.048  36.283   7.335
 3120POPC   NC342959   9.255  20.967   5.440
 3120POPC   PO442960   8.926  20.355   5.382
 3120POPC   GL142961   9.050  20.441   5.806
 3120POPC   GL242962   8.970  20.810   5.846
 3120POPC   C1A42963   8.878  20.482   6.257
 3120POPC   D2A42964   9.081  20.246   6.610
 3120POPC   C3A42965   8.983  20.375   7.038
 3120POPC   C4A42966   8.682  20.707   7.183
 3120POPC   C1B42967   9.307  20.719   6.164
 3120POPC   C2B42968   9.190  20.756   6.600
 3120POPC   C3B42969   9.161  20.842   7.025
 3120POPC   C4B42970   8.983  21.170   7.245
 3121POPC   NC342971  33.396  12.250   5.459
 3121POPC   PO442972  34.029  12.040   5.418
 3121POPC   GL142973  33.777  12.046   5.776
 3121POPC   GL242974  33.474  11.831   5.794
 3121POPC   C1A42975  33.807  11.923   6.204
 3121POPC   D2A42976  33.606  12.120   6.524
 3121POPC   C3A42977  33.793  12.140   6.932
 3121POPC   C4A42978  33.798  12.301   7.352
 3121POPC   C1B42979  33.332  11.739   6.252
 3121POPC   C2B42980  33.478  11.672   6.693
 3121POPC   C3B42981  33.301  11.688   7.059
 3121POPC   C4B42982  33.538  11.892   7.298
 3122POPC   NC342983  29.544   9.614   5.487
 3122POPC   PO442984  30.025  10.090   5.384
 3122POPC   GL142985  29.887   9.899   5.751
 3122POPC   GL242986  29.774  10.218   5.837
 3122POPC   C1A42987  29.892   9.564   6.099
 3122POPC   D2A42988  29.783   9.414   6.517
 3122POPC   C3A42989  29.930   9.608   6.896
 3122POPC   C4A42990  30.214   9.489   7.227
 3122POPC   C1B42991  29.765  10.050   6.237
 3122POPC   C2B42992  29.869  10.060   6.640
 3122POPC   C3B42993  29.736  10.118   7.037
 3122POPC   C4B42994  29.913   9.879   7.340
 3123POPC   NC342995   6.460  22.215   5.442
 3123POPC   PO442996   7.121  22.396   5.511
 3123POPC   GL142997   6.784  22.365   5.822
 3123POPC   GL242998   6.718  22.027   5.856
 3123POPC   C1A42999   6.730  22.290   6.287
 3123POPC   D2A43000   6.837  22.532   6.650
 3123POPC   C3A43001   6.733  22.345   6.995
 3123POPC   C4A43002   6.495  22.469   7.328
 3123POPC   C1B43003   6.398  21.908   6.173
 3123POPC   C2B43004   6.218  21.941   6.598
 3123POPC   C3B43005   6.334  21.764   7.001
 3123POPC   C4B43006   6.619  21.952   7.299
 3124POPC   NC343007  35.619   7.515   5.445
 3124POPC   PO443008  34.961   7.204   5.562
 3124POPC   GL143009  35.236   7.256   5.938
 3124POPC   GL243010  35.362   7.560   5.992
 3124POPC   C1A43011  35.500   7.204   6.356
 3124POPC   D2A43012  35.611   7.420   6.731
 3124POPC   C3A43013  35.559   7.115   7.031
 3124POPC   C4A43014  35.308   7.157   7.382
 3124POPC   C1B43015  35.144   7.809   6.313
 3124POPC   C2B43016  35.099   7.753   6.744
 3124POPC   C3B43017  35.355   7.740   7.096
 3124POPC   C4B43018  35.254   7.637   7.535
 3125POPC   NC343019  21.398  10.863   5.616
 3125POPC   PO443020  21.094  11.499   5.459
 3125POPC   GL143021  21.387  11.398   5.815
 3125POPC   GL243022  21.765  11.427   5.719
 3125POPC   C1A43023  21.269  11.279   6.249
 3125POPC   D2A43024  21.233  11.503   6.662
 3125POPC   C3A43025  21.070  11.441   7.086
 3125POPC   C4A43026  21.337  11.491   7.440
 3125POPC   C1B43027  21.836  11.385   6.148
 3125POPC   C2B43028  21.684  11.243   6.545
 3125POPC   C3B43029  21.691  11.479   6.891
 3125POPC   C4B43030  21.790  11.384   7.273
 3126POPC   NC343031  11.595  37.720   5.244
 3126POPC   PO443032  12.308  37.586   5.258
 3126POPC   GL143033  12.169  37.593   5.715
 3126POPC   GL243034  11.854  37.403   5.781
 3126POPC   C1A43035  12.212  37.593   6.179
 3126POPC   D2A43036  12.231  37.832   6.546
 3126POPC   C3A43037  12.219  37.618   6.933
 3126POPC   C4A43038  12.170  37.737   7.387
 3126POPC   C1B43039  11.804  37.285   6.237
 3126POPC   C2B43040  11.862  37.332   6.709
 3126POPC   C3B43041  11.862  37.349   7.184
 3126POPC   C4B43042  11.784  37.436   7.647
 3127POPC   NC343043  43.158  25.758   5.470
 3127POPC   PO443044  42.824  26.098   5.058
 3127POPC   GL143045  42.779  26.061   5.600
 3127POPC   GL243046  43.049  26.115   5.825
 3127POPC   C1A43047  42.733  25.872   6.096
 3127POPC   D2A43048  42.947  25.843   6.504
 3127POPC   C3A43049  42.862  26.024   6.914
 3127POPC   C4A43050  42.991  25.902   7.342
 3127POPC   C1B43051  43.269  26.114   6.204
 3127POPC   C2B43052  43.440  25.979   6.597
 3127POPC   C3B43053  43.386  25.880   7.006
 3127POPC   C4B43054  43.419  26.199   7.298
 3128POPC   NC343055   1.722   1.753   5.595
 3128POPC   PO443056   1.059   1.797   5.492
 3128POPC   GL143057   1.282   1.919   5.827
 3128POPC   GL243058   1.401   2.236   5.738
 3128POPC   C1A43059   1.236   1.870   6.248
 3128POPC   D2A43060   0.956   1.828   6.575
 3128POPC   C3A43061   1.184   1.902   6.923
 3128POPC   C4A43062   0.986   2.203   7.158
 3128POPC   C1B43063   1.539   2.293   6.171
 3128POPC   C2B43064   1.610   2.078   6.559
 3128POPC   C3B43065   1.575   2.216   6.942
 3128POPC   C4B43066   1.528   1.990   7.304
 3129POPC   NC343067  19.538  19.566   5.594
 3129POPC   PO443068  20.089  19.522   5.569
 3129POPC   GL143069  19.966  19.715   5.964
 3129POPC   GL243070  19.692  19.943   5.936
 3129POPC   C1A43071  19.933  19.872   6.405
 3129POPC   D2A43072  19.887  20.037   6.807
 3129POPC   C3A43073  19.937  19.690   7.094
 3129POPC   C4A43074  19.812  19.677   7.538
 3129POPC   C1B43075  19.477  19.696   6.281
 3129POPC   C2B43076  19.514  19.675   6.758
 3129POPC   C3B43077  19.468  19.936   7.137
 3129POPC   C4B43078  19.427  20.020   7.575
 3130POPC   NC343079  18.931   0.960   5.030
 3130POPC   PO443080  18.665   1.287   5.581
 3130POPC   GL143081  18.813   1.077   5.921
 3130POPC   GL243082  19.040   1.373   5.985
 3130POPC   C1A43083  18.887   1.111   6.359
 3130POPC   D2A43084  18.768   1.395   6.619
 3130POPC   C3A43085  19.038   1.308   6.919
 3130POPC   C4A43086  19.063   1.019   7.261
 3130POPC   C1B43087  19.372   1.452   6.269
 3130POPC   C2B43088  19.488   1.501   6.680
 3130POPC   C3B43089  19.288   1.760   6.993
 3130POPC   C4B43090  19.055   1.599   7.341
 3131POPC   NC343091   8.258   0.912   5.452
 3131POPC   PO443092   7.827   1.451   5.610
 3131POPC   GL143093   8.215   1.329   5.830
 3131POPC   GL243094   8.162   0.988   5.947
 3131POPC   C1A43095   8.458   1.328   6.250
 3131POPC   D2A43096   8.563   1.198   6.694
 3131POPC   C3A43097   8.275   1.383   7.005
 3131POPC   C4A43098   7.900   1.374   7.237
 3131POPC   C1B43099   8.262   0.763   6.329
 3131POPC   C2B43100   8.144   0.656   6.771
 3131POPC   C3B43101   8.356   0.878   7.098
 3131POPC   C4B43102   8.273   1.106   7.487
 3132POPC   NC343103  33.185  36.488   5.463
 3132POPC   PO443104  32.903  35.926   5.204
 3132POPC   GL143105  32.961  35.953   5.710
 3132POPC   GL243106  33.205  36.159   5.895
 3132POPC   C1A43107  32.748  35.927   6.144
 3132POPC   D2A43108  32.837  35.848   6.592
 3132POPC   C3A43109  32.730  36.031   6.956
 3132POPC   C4A43110  33.029  36.165   7.242
 3132POPC   C1B43111  33.053  36.290   6.335
 3132POPC   C2B43112  32.959  36.458   6.745
 3132POPC   C3B43113  32.955  36.654   7.147
 3132POPC   C4B43114  33.278  36.529   7.490
 3133POPC   NC343115  34.444  19.128   5.236
 3133POPC   PO443116  34.952  18.671   5.283
 3133POPC   GL143117  34.800  18.964   5.638
 3133POPC   GL243118  34.430  18.959   5.757
 3133POPC   C1A43119  34.875  19.068   6.088
 3133POPC   D2A43120  34.818  18.847   6.498
 3133POPC   C3A43121  34.662  19.092   6.852
 3133POPC   C4A43122  34.742  19.061   7.302
 3133POPC   C1B43123  34.321  19.290   6.077
 3133POPC   C2B43124  34.257  19.378   6.540
 3133POPC   C3B43125  34.138  19.159   6.951
 3133POPC   C4B43126  34.235  19.199   7.390
 3134POPC   NC343127  35.528  21.473   5.358
 3134POPC   PO443128  35.027  21.085   5.501
 3134POPC   GL143129  35.217  21.197   5.855
 3134POPC   GL243130  35.198  21.518   5.779
 3134POPC   C1A43131  35.402  21.063   6.250
 3134POPC   D2A43132  35.643  21.208   6.588
 3134POPC   C3A43133  35.470  21.201   6.989
 3134POPC   C4A43134  35.425  21.075   7.402
 3134POPC   C1B43135  35.337  21.580   6.192
 3134POPC   C2B43136  35.171  21.416   6.560
 3134POPC   C3B43137  35.125  21.589   6.938
 3134POPC   C4B43138  35.250  21.628   7.335
 3135POPC   NC343139  41.658  17.207   5.406
 3135POPC   PO443140  41.132  17.670   5.292
 3135POPC   GL143141  41.445  17.706   5.674
 3135POPC   GL243142  41.417  17.374   5.821
 3135POPC   C1A43143  41.682  17.697   6.112
 3135POPC   D2A43144  41.520  17.636   6.566
 3135POPC   C3A43145  41.729  17.417   6.948
 3135POPC   C4A43146  41.793  17.641   7.322
 3135POPC   C1B43147  41.508  17.233   6.249
 3135POPC   C2B43148  41.207  17.179   6.561
 3135POPC   C3B43149  41.224  17.391   6.936
 3135POPC   C4B43150  41.354  17.289   7.332
 3136POPC   NC343151  12.307  38.846   5.593
 3136POPC   PO443152  12.667  39.457   5.304
 3136POPC   GL143153  12.775  39.465   5.742
 3136POPC   GL243154  12.569  39.211   5.843
 3136POPC   C1A43155  12.728  39.542   6.198
 3136POPC   D2A43156  12.923  39.604   6.603
 3136POPC   C3A43157  12.770  39.435   7.003
 3136POPC   C4A43158  13.043  39.123   7.224
 3136POPC   C1B43159  12.617  38.995   6.257
 3136POPC   C2B43160  12.495  38.830   6.674
 3136POPC   C3B43161  12.608  38.869   7.123
 3136POPC   C4B43162  12.461  39.116   7.481
 3137POPC   NC343163  13.929   1.907   5.386
 3137POPC   PO443164  13.253   1.870   5.474
 3137POPC   GL143165  13.558   1.962   5.792
 3137POPC   GL243166  13.786   2.245   5.739
 3137POPC   C1A43167  13.548   2.018   6.224
 3137POPC   D2A43168  13.514   2.208   6.622
 3137POPC   C3A43169  13.446   1.902   6.899
 3137POPC   C4A43170  13.587   1.760   7.235
 3137POPC   C1B43171  14.020   2.212   6.118
 3137POPC   C2B43172  14.086   2.250   6.567
 3137POPC   C3B43173  13.909   2.134   6.979
 3137POPC   C4B43174  13.872   2.142   7.422
 3138POPC   NC343175  41.689  33.545   5.440
 3138POPC   PO443176  41.450  32.907   5.281
 3138POPC   GL143177  41.523  33.017   5.723
 3138POPC   GL243178  41.857  32.918   5.781
 3138POPC   C1A43179  41.325  33.139   6.137
 3138POPC   D2A43180  41.254  33.217   6.595
 3138POPC   C3A43181  41.407  32.980   6.995
 3138POPC   C4A43182  41.550  33.088   7.440
 3138POPC   C1B43183  41.808  32.931   6.247
 3138POPC   C2B43184  41.771  33.156   6.665
 3138POPC   C3B43185  41.932  33.188   7.111
 3138POPC   C4B43186  42.050  32.956   7.533
 3139POPC   NC343187  39.110  16.028   5.478
 3139POPC   PO443188  39.564  15.600   5.130
 3139POPC   GL143189  39.612  16.042   5.585
 3139POPC   GL243190  39.333  16.229   5.878
 3139POPC   C1A43191  39.702  16.020   6.117
 3139POPC   D2A43192  39.343  15.921   6.448
 3139POPC   C3A43193  39.428  15.766   6.894
 3139POPC   C4A43194  39.567  15.829   7.312
 3139POPC   C1B43195  38.994  16.275   6.237
 3139POPC   C2B43196  38.977  16.350   6.702
 3139POPC   C3B43197  39.166  16.182   7.091
 3139POPC   C4B43198  38.952  16.200   7.533
 3140POPC   NC343199   4.492  41.075   5.401
 3140POPC   PO443200   4.202  41.667   5.515
 3140POPC   GL143201   4.345  41.520   5.883
 3140POPC   GL243202   4.216  41.188   5.920
 3140POPC   C1A43203   4.480  41.739   6.254
 3140POPC   D2A43204   4.699  41.743   6.640
 3140POPC   C3A43205   4.453  41.919   6.897
 3140POPC   C4A43206   4.464  41.825   7.283
 3140POPC   C1B43207   4.082  41.421   6.323
 3140POPC   C2B43208   4.290  41.439   6.715
 3140POPC   C3B43209   4.410  41.324   7.108
 3140POPC   C4B43210   4.187  41.447   7.455
 3141POPC   NC343211  18.966  16.999   5.486
 3141POPC   PO443212  18.761  17.622   5.487
 3141POPC   GL143213  18.944  17.390   5.862
 3141POPC   GL243214  19.245  17.211   5.895
 3141POPC   C1A43215  18.788  17.046   6.145
 3141POPC   D2A43216  18.865  16.945   6.600
 3141POPC   C3A43217  18.812  17.229   6.986
 3141POPC   C4A43218  18.999  17.440   7.373
 3141POPC   C1B43219  19.121  17.344   6.374
 3141POPC   C2B43220  19.018  17.643   6.730
 3141POPC   C3B43221  19.203  17.830   7.139
 3141POPC   C4B43222  19.468  17.656   7.512
 3142POPC   NC343223   5.226  39.533   5.269
 3142POPC   PO443224   4.866  39.031   5.489
 3142POPC   GL143225   5.139  39.204   5.783
 3142POPC   GL243226   5.406  39.450   5.744
 3142POPC   C1A43227   5.069  39.174   6.204
 3142POPC   D2A43228   4.898  39.048   6.581
 3142POPC   C3A43229   4.836  39.325   6.921
 3142POPC   C4A43230   5.054  39.209   7.261
 3142POPC   C1B43231   5.561  39.282   6.126
 3142POPC   C2B43232   5.407  39.425   6.515
 3142POPC   C3B43233   5.571  39.488   6.883
 3142POPC   C4B43234   5.526  39.388   7.279
 3143POPC   NC343235  14.700  41.988   5.710
 3143POPC   PO443236  14.432  41.446   5.282
 3143POPC   GL143237  14.405  41.315   5.735
 3143POPC   GL243238  14.658  41.496   5.955
 3143POPC   C1A43239  14.205  41.393   6.146
 3143POPC   D2A43240  14.353  41.391   6.569
 3143POPC   C3A43241  14.222  41.568   6.967
 3143POPC   C4A43242  14.364  41.510   7.401
 3143POPC   C1B43243  14.552  41.790   6.312
 3143POPC   C2B43244  14.611  41.800   6.743
 3143POPC   C3B43245  14.519  41.972   7.143
 3143POPC   C4B43246  14.579  41.952   7.610
 3144POPC   NC343247  39.916   9.315   5.422
 3144POPC   PO443248  40.198   8.720   5.352
 3144POPC   GL143249  40.124   8.916   5.769
 3144POPC   GL243250  40.208   9.258   5.851
 3144POPC   C1A43251  39.780   8.978   6.113
 3144POPC   D2A43252  39.626   8.820   6.525
 3144POPC   C3A43253  39.692   8.962   6.953
 3144POPC   C4A43254  39.722   8.756   7.344
 3144POPC   C1B43255  40.250   9.059   6.256
 3144POPC   C2B43256  40.038   9.173   6.627
 3144POPC   C3B43257  40.170   9.101   7.063
 3144POPC   C4B43258  40.271   8.781   7.317
 3145POPC   NC343259  20.891  10.470   5.113
 3145POPC   PO443260  21.451  10.413   5.453
 3145POPC   GL143261  21.388  10.400   5.881
 3145POPC   GL243262  21.598  10.657   6.045
 3145POPC   C1A43263  21.306  10.203   6.261
 3145POPC   D2A43264  21.421  10.146   6.692
 3145POPC   C3A43265  21.220  10.478   6.971
 3145POPC   C4A43266  21.334  10.473   7.429
 3145POPC   C1B43267  21.239  10.735   6.302
 3145POPC   C2B43268  21.169  10.978   6.677
 3145POPC   C3B43269  21.426  11.063   7.021
 3145POPC   C4B43270  21.307  10.982   7.422
 3146POPC   NC343271  42.600  44.773   5.503
 3146POPC   PO443272  42.005  44.455   5.479
 3146POPC   GL143273  42.182  44.666   5.813
 3146POPC   GL243274  42.178   0.039   5.788
 3146POPC   C1A43275  42.446  44.612   6.189
 3146POPC   D2A43276  42.662  44.621   6.594
 3146POPC   C3A43277  42.552  44.316   6.926
 3146POPC   C4A43278  42.165  44.175   7.150
 3146POPC   C1B43279  41.982  44.888   6.208
 3146POPC   C2B43280  42.125  44.678   6.609
 3146POPC   C3B43281  42.339  44.786   6.980
 3146POPC   C4B43282  42.175   0.022   7.271
 3147POPC   NC343283   3.792  41.881   5.383
 3147POPC   PO443284   3.358  41.307   5.260
 3147POPC   GL143285   3.471  41.555   5.623
 3147POPC   GL243286   3.807  41.536   5.797
 3147POPC   C1A43287   3.377  41.583   6.059
 3147POPC   D2A43288   3.575  41.579   6.428
 3147POPC   C3A43289   3.283  41.483   6.737
 3147POPC   C4A43290   3.394  41.718   7.066
 3147POPC   C1B43291   3.724  41.182   6.068
 3147POPC   C2B43292   3.718  41.100   6.525
 3147POPC   C3B43293   3.781  41.352   6.894
 3147POPC   C4B43294   3.699  41.414   7.344
 3148POPC   NC343295  20.062  33.909   5.278
 3148POPC   PO443296  19.568  33.450   5.377
 3148POPC   GL143297  19.730  33.662   5.753
 3148POPC   GL243298  20.018  33.888   5.814
 3148POPC   C1A43299  19.617  33.816   6.174
 3148POPC   D2A43300  19.799  33.903   6.573
 3148POPC   C3A43301  19.638  33.750   6.964
 3148POPC   C4A43302  19.825  33.951   7.372
 3148POPC   C1B43303  20.097  33.558   6.171
 3148POPC   C2B43304  20.189  33.445   6.638
 3148POPC   C3B43305  20.123  33.610   7.094
 3148POPC   C4B43306  20.118  33.568   7.591
 3149POPC   NC343307  43.755  43.422   5.097
 3149POPC   PO443308  44.117  42.928   5.480
 3149POPC   GL143309  44.161  43.038   5.863
 3149POPC   GL243310  44.269  43.380   5.786
 3149POPC   C1A43311  43.808  42.991   6.171
 3149POPC   D2A43312  43.695  43.182   6.537
 3149POPC   C3A43313  43.716  42.875   6.853
 3149POPC   C4A43314  43.630  43.059   7.230
 3149POPC   C1B43315  44.123  43.402   6.210
 3149POPC   C2B43316  44.190  43.278   6.598
 3149POPC   C3B43317  43.992  43.337   6.970
 3149POPC   C4B43318  44.152  43.059   7.264
 3150POPC   NC343319  11.992  33.217   5.308
 3150POPC   PO443320  12.412  32.825   5.571
 3150POPC   GL143321  12.187  33.116   5.803
 3150POPC   GL243322  11.998  32.846   5.958
 3150POPC   C1A43323  12.124  33.258   6.235
 3150POPC   D2A43324  11.814  33.066   6.485
 3150POPC   C3A43325  11.852  33.073   6.927
 3150POPC   C4A43326  12.113  33.314   7.168
 3150POPC   C1B43327  12.378  32.818   6.214
 3150POPC   C2B43328  12.577  32.947   6.569
 3150POPC   C3B43329  12.363  32.939   6.928
 3150POPC   C4B43330  12.325  32.689   7.255
 3151POPC   NC343331  30.786  44.921   5.169
 3151POPC   PO443332  30.462  44.426   5.450
 3151POPC   GL143333  30.618  44.560   5.821
 3151POPC   GL243334  30.968  44.603   5.822
 3151POPC   C1A43335  30.667  44.422   6.230
 3151POPC   D2A43336  30.757  44.649   6.563
 3151POPC   C3A43337  30.773  44.497   6.924
 3151POPC   C4A43338  30.470  44.633   7.166
 3151POPC   C1B43339  30.921  44.926   6.150
 3151POPC   C2B43340  31.112  44.988   6.578
 3151POPC   C3B43341  30.966  44.995   7.008
 3151POPC   C4B43342  30.911  44.722   7.379
 3152POPC   NC343343  24.162  11.252   5.660
 3152POPC   PO443344  24.716  11.541   5.577
 3152POPC   GL143345  24.565  11.361   5.962
 3152POPC   GL243346  24.558  10.997   5.927
 3152POPC   C1A43347  24.283  11.315   6.306
 3152POPC   D2A43348  24.391  11.357   6.710
 3152POPC   C3A43349  24.476  11.023   6.999
 3152POPC   C4A43350  24.445  11.045   7.470
 3152POPC   C1B43351  24.657  10.963   6.373
 3152POPC   C2B43352  24.887  11.143   6.700
 3152POPC   C3B43353  24.978  11.174   7.121
 3152POPC   C4B43354  24.931  10.906   7.449
 3153POPC   NC343355  15.041  13.191   5.503
 3153POPC   PO443356  15.424  12.530   5.466
 3153POPC   GL143357  15.286  12.763   5.817
 3153POPC   GL243358  15.511  13.023   5.972
 3153POPC   C1A43359  15.256  12.687   6.268
 3153POPC   D2A43360  15.244  12.967   6.634
 3153POPC   C3A43361  15.156  12.751   7.011
 3153POPC   C4A43362  14.954  12.828   7.401
 3153POPC   C1B43363  15.073  13.143   6.150
 3153POPC   C2B43364  14.669  13.199   6.391
 3153POPC   C3B43365  14.714  13.230   6.856
 3153POPC   C4B43366  15.111  13.236   7.121
 3154POPC   NC343367  31.869  12.508   5.575
 3154POPC   PO443368  32.003  11.794   5.491
 3154POPC   GL143369  32.050  12.099   5.803
 3154POPC   GL243370  32.373  12.255   5.876
 3154POPC   C1A43371  31.973  12.331   6.194
 3154POPC   D2A43372  32.280  12.315   6.500
 3154POPC   C3A43373  32.174  12.250   6.916
 3154POPC   C4A43374  32.177  12.394   7.330
 3154POPC   C1B43375  32.292  11.889   6.187
 3154POPC   C2B43376  32.394  11.799   6.598
 3154POPC   C3B43377  32.327  11.635   6.995
 3154POPC   C4B43378  32.393  11.939   7.265
 3155POPC   NC343379  30.323  35.828   5.507
 3155POPC   PO443380  29.837  36.104   5.127
 3155POPC   GL143381  29.993  36.245   5.585
 3155POPC   GL243382  29.800  36.426   5.842
 3155POPC   C1A43383  30.012  36.018   6.021
 3155POPC   D2A43384  29.970  36.120   6.424
 3155POPC   C3A43385  30.134  35.852   6.749
 3155POPC   C4A43386  30.019  35.888   7.166
 3155POPC   C1B43387  29.650  36.684   6.217
 3155POPC   C2B43388  29.525  36.810   6.637
 3155POPC   C3B43389  29.657  36.727   7.067
 3155POPC   C4B43390  29.937  36.422   7.279
 3156POPC   NC343391  17.365  39.044   5.619
 3156POPC   PO443392  17.806  39.428   5.330
 3156POPC   GL143393  17.741  39.351   5.802
 3156POPC   GL243394  17.391  39.467   5.901
 3156POPC   C1A43395  17.673  39.294   6.289
 3156POPC   D2A43396  17.488  39.136   6.689
 3156POPC   C3A43397  17.586  39.221   7.108
 3156POPC   C4A43398  18.024  39.275   7.262
 3156POPC   C1B43399  17.204  39.691   6.225
 3156POPC   C2B43400  17.371  39.657   6.624
 3156POPC   C3B43401  17.231  39.635   7.049
 3156POPC   C4B43402  17.264  39.684   7.489
 3157POPC   NC343403  22.475  13.769   5.577
 3157POPC   PO443404  21.922  13.597   5.339
 3157POPC   GL143405  21.995  13.795   5.763
 3157POPC   GL243406  22.264  13.694   6.022
 3157POPC   C1A43407  21.802  13.813   6.161
 3157POPC   D2A43408  22.033  13.622   6.485
 3157POPC   C3A43409  21.982  13.903   6.790
 3157POPC   C4A43410  22.019  13.825   7.190
 3157POPC   C1B43411  22.550  13.658   6.354
 3157POPC   C2B43412  22.474  13.414   6.733
 3157POPC   C3B43413  22.340  13.427   7.177
 3157POPC   C4B43414  22.474  13.361   7.631
 3158POPC   NC343415  13.365   3.056   5.531
 3158POPC   PO443416  13.983   3.080   5.670
 3158POPC   GL143417  13.758   3.369   5.952
 3158POPC   GL243418  13.414   3.479   5.839
 3158POPC   C1A43419  13.715   3.493   6.397
 3158POPC   D2A43420  13.408   3.723   6.658
 3158POPC   C3A43421  13.579   3.602   7.050
 3158POPC   C4A43422  13.981   3.446   7.213
 3158POPC   C1B43423  13.252   3.377   6.255
 3158POPC   C2B43424  13.386   3.207   6.679
 3158POPC   C3B43425  13.179   3.253   7.103
 3158POPC   C4B43426  13.191   3.569   7.428
 3159POPC   NC343427  25.777  33.177   5.480
 3159POPC   PO443428  26.412  33.001   5.474
 3159POPC   GL143429  26.379  33.014   5.917
 3159POPC   GL243430  26.121  33.242   5.865
 3159POPC   C1A43431  26.128  32.800   6.259
 3159POPC   D2A43432  25.989  32.625   6.660
 3159POPC   C3A43433  26.159  32.868   6.979
 3159POPC   C4A43434  26.347  32.703   7.316
 3159POPC   C1B43435  25.920  33.270   6.262
 3159POPC   C2B43436  25.803  33.105   6.669
 3159POPC   C3B43437  25.694  33.057   7.100
 3159POPC   C4B43438  25.623  33.306   7.472
 3160POPC   NC343439  33.004  37.081   5.413
 3160POPC   PO443440  32.843  36.515   5.761
 3160POPC   GL143441  32.888  36.893   5.923
 3160POPC   GL243442  32.671  37.106   5.807
 3160POPC   C1A43443  32.920  37.150   6.288
 3160POPC   D2A43444  33.178  37.202   6.639
 3160POPC   C3A43445  33.074  37.157   7.046
 3160POPC   C4A43446  33.375  36.993   7.329
 3160POPC   C1B43447  32.469  36.917   6.213
 3160POPC   C2B43448  32.600  36.929   6.663
 3160POPC   C3B43449  32.581  37.092   7.092
 3160POPC   C4B43450  32.543  37.168   7.558
 3161POPC   NC343451   5.630   8.815   5.526
 3161POPC   PO443452   6.050   9.301   5.560
 3161POPC   GL143453   6.073   9.083   5.914
 3161POPC   GL243454   5.718   9.110   5.960
 3161POPC   C1A43455   6.052   9.158   6.347
 3161POPC   D2A43456   5.689   9.169   6.549
 3161POPC   C3A43457   5.787   9.285   6.953
 3161POPC   C4A43458   5.996   9.228   7.313
 3161POPC   C1B43459   5.717   8.767   6.217
 3161POPC   C2B43460   5.467   8.605   6.541
 3161POPC   C3B43461   5.457   8.866   6.889
 3161POPC   C4B43462   5.654   8.853   7.291
 3162POPC   NC343463  21.001  30.771   5.323
 3162POPC   PO443464  21.461  30.239   5.415
 3162POPC   GL143465  21.293  30.564   5.691
 3162POPC   GL243466  21.582  30.749   5.868
 3162POPC   C1A43467  21.132  30.729   6.082
 3162POPC   D2A43468  21.369  30.773   6.461
 3162POPC   C3A43469  21.210  30.822   6.867
 3162POPC   C4A43470  21.069  30.633   7.230
 3162POPC   C1B43471  21.521  30.366   6.123
 3162POPC   C2B43472  21.458  30.269   6.555
 3162POPC   C3B43473  21.627  30.512   6.896
 3162POPC   C4B43474  21.895  30.454   7.258
 3163POPC   NC343475   5.644  14.200   5.353
 3163POPC   PO443476   6.342  14.243   5.595
 3163POPC   GL143477   5.953  14.298   5.756
 3163POPC   GL243478   5.993  14.576   5.979
 3163POPC   C1A43479   5.728  14.181   6.137
 3163POPC   D2A43480   5.809  14.513   6.464
 3163POPC   C3A43481   5.823  14.427   6.906
 3163POPC   C4A43482   5.534  14.461   7.242
 3163POPC   C1B43483   6.229  14.241   6.229
 3163POPC   C2B43484   6.299  14.091   6.628
 3163POPC   C3B43485   6.273  14.238   7.040
 3163POPC   C4B43486   5.971  14.183   7.383
 3164POPC   NC343487  18.133  30.167   5.457
 3164POPC   PO443488  18.398  30.782   5.316
 3164POPC   GL143489  18.293  30.814   5.764
 3164POPC   GL243490  18.093  30.530   5.802
 3164POPC   C1A43491  18.270  30.725   6.225
 3164POPC   D2A43492  18.238  30.491   6.601
 3164POPC   C3A43493  18.210  30.746   6.954
 3164POPC   C4A43494  18.425  30.863   7.277
 3164POPC   C1B43495  17.987  30.300   6.164
 3164POPC   C2B43496  17.752  30.448   6.497
 3164POPC   C3B43497  17.845  30.371   6.920
 3164POPC   C4B43498  18.047  30.454   7.346
 3165POPC   NC343499   6.053   5.849   5.306
 3165POPC   PO443500   6.103   6.446   5.685
 3165POPC   GL143501   5.921   6.030   5.864
 3165POPC   GL243502   6.004   5.699   5.778
 3165POPC   C1A43503   5.778   5.829   6.233
 3165POPC   D2A43504   6.061   6.012   6.519
 3165POPC   C3A43505   5.901   6.090   6.898
 3165POPC   C4A43506   5.666   5.829   7.175
 3165POPC   C1B43507   6.202   5.540   6.121
 3165POPC   C2B43508   6.044   5.457   6.523
 3165POPC   C3B43509   6.066   5.609   6.896
 3165POPC   C4B43510   6.121   5.385   7.222
 3166POPC   NC343511  32.327  18.396   5.435
 3166POPC   PO443512  31.789  18.017   5.437
 3166POPC   GL143513  31.981  18.153   5.815
 3166POPC   GL243514  32.012  18.531   5.830
 3166POPC   C1A43515  32.209  17.949   6.171
 3166POPC   D2A43516  32.492  18.114   6.481
 3166POPC   C3A43517  32.405  17.959   6.878
 3166POPC   C4A43518  32.304  18.069   7.279
 3166POPC   C1B43519  32.116  18.437   6.272
 3166POPC   C2B43520  32.135  18.372   6.726
 3166POPC   C3B43521  32.450  18.493   7.025
 3166POPC   C4B43522  32.305  18.581   7.441
 3167POPC   NC343523  44.178  30.261   5.272
 3167POPC   PO443524  43.671  29.763   5.439
 3167POPC   GL143525  43.853  29.981   5.805
 3167POPC   GL243526  44.235  30.034   5.768
 3167POPC   C1A43527  43.623  30.113   6.203
 3167POPC   D2A43528  43.393  30.261   6.580
 3167POPC   C3A43529  43.615  30.099   6.941
 3167POPC   C4A43530  43.743  30.001   7.357
 3167POPC   C1B43531  44.116  30.246   6.174
 3167POPC   C2B43532  44.064  30.107   6.628
 3167POPC   C3B43533  44.191  29.953   7.068
 3167POPC   C4B43534  44.213  29.951   7.537
 3168POPC   NC343535  20.223   5.756   5.568
 3168POPC   PO443536  19.583   5.614   5.460
 3168POPC   GL143537  19.622   5.835   5.868
 3168POPC   GL243538  19.658   6.185   5.834
 3168POPC   C1A43539  19.783   5.714   6.291
 3168POPC   D2A43540  19.935   5.513   6.674
 3168POPC   C3A43541  19.760   5.710   7.018
 3168POPC   C4A43542  19.982   5.892   7.387
 3168POPC   C1B43543  19.947   6.197   6.212
 3168POPC   C2B43544  19.926   6.062   6.655
 3168POPC   C3B43545  19.886   6.273   7.054
 3168POPC   C4B43546  19.913   6.672   7.280
 3169POPC   NC343547  11.591  16.896   5.394
 3169POPC   PO443548  12.235  16.845   5.318
 3169POPC   GL143549  12.129  16.642   5.721
 3169POPC   GL243550  11.792  16.714   5.898
 3169POPC   C1A43551  12.264  16.677   6.150
 3169POPC   D2A43552  12.113  17.007   6.444
 3169POPC   C3A43553  12.139  16.915   6.901
 3169POPC   C4A43554  12.305  16.521   7.076
 3169POPC   C1B43555  11.580  16.886   6.294
 3169POPC   C2B43556  11.591  16.725   6.714
 3169POPC   C3B43557  11.743  16.656   7.121
 3169POPC   C4B43558  11.886  17.034   7.366
 3170POPC   NC343559  36.642   9.171   5.164
 3170POPC   PO443560  36.975   8.649   5.448
 3170POPC   GL143561  37.088   9.002   5.704
 3170POPC   GL243562  36.939   8.833   5.972
 3170POPC   C1A43563  37.077   9.304   6.107
 3170POPC   D2A43564  36.978   9.034   6.467
 3170POPC   C3A43565  36.904   9.142   6.892
 3170POPC   C4A43566  36.932   8.888   7.231
 3170POPC   C1B43567  36.785   8.493   6.236
 3170POPC   C2B43568  36.515   8.458   6.602
 3170POPC   C3B43569  36.509   8.608   7.024
 3170POPC   C4B43570  36.308   8.505   7.397
 3171POPC   NC343571  29.905  38.908   5.530
 3171POPC   PO443572  29.976  39.588   5.458
 3171POPC   GL143573  29.890  39.319   5.843
 3171POPC   GL243574  30.221  39.162   5.894
 3171POPC   C1A43575  29.912  39.168   6.298
 3171POPC   D2A43576  30.081  39.309   6.699
 3171POPC   C3A43577  29.784  39.289   7.056
 3171POPC   C4A43578  29.638  39.514   7.417
 3171POPC   C1B43579  30.417  38.992   6.299
 3171POPC   C2B43580  30.242  38.803   6.672
 3171POPC   C3B43581  30.199  38.978   7.083
 3171POPC   C4B43582  30.340  38.835   7.473
 3172POPC   NC343583  26.374  13.168   5.610
 3172POPC   PO443584  26.568  12.604   5.456
 3172POPC   GL143585  26.757  12.578   5.875
 3172POPC   GL243586  27.059  12.786   5.787
 3172POPC   C1A43587  26.727  12.627   6.353
 3172POPC   D2A43588  26.796  12.937   6.684
 3172POPC   C3A43589  26.685  12.760   7.101
 3172POPC   C4A43590  26.442  12.731   7.486
 3172POPC   C1B43591  27.217  12.603   6.176
 3172POPC   C2B43592  27.217  12.625   6.630
 3172POPC   C3B43593  27.183  12.864   7.001
 3172POPC   C4B43594  27.081  12.842   7.438
 3173POPC   NC343595  30.630  37.509   5.363
 3173POPC   PO443596  31.150  38.063   5.421
 3173POPC   GL143597  30.900  37.814   5.693
 3173POPC   GL243598  30.623  38.009   5.726
 3173POPC   C1A43599  30.720  37.610   6.088
 3173POPC   D2A43600  30.840  37.653   6.546
 3173POPC   C3A43601  30.674  37.567   6.978
 3173POPC   C4A43602  30.395  37.444   7.309
 3173POPC   C1B43603  30.345  37.973   6.093
 3173POPC   C2B43604  30.365  37.892   6.501
 3173POPC   C3B43605  30.521  38.050   6.854
 3173POPC   C4B43606  30.553  38.016   7.245
 3174POPC   NC343607   2.440  18.647   5.483
 3174POPC   PO443608   2.191  19.201   5.476
 3174POPC   GL143609   1.926  18.985   5.763
 3174POPC   GL243610   1.740  19.257   5.850
 3174POPC   C1A43611   1.746  18.833   6.160
 3174POPC   D2A43612   1.949  18.850   6.527
 3174POPC   C3A43613   1.805  18.632   6.882
 3174POPC   C4A43614   2.088  18.704   7.189
 3174POPC   C1B43615   2.002  19.284   6.195
 3174POPC   C2B43616   1.919  19.382   6.605
 3174POPC   C3B43617   1.980  19.141   6.950
 3174POPC   C4B43618   1.667  19.048   7.196
 3175POPC   NC343619  43.426  21.861   5.623
 3175POPC   PO443620  42.746  22.154   5.510
 3175POPC   GL143621  42.822  21.951   5.881
 3175POPC   GL243622  43.111  22.139   5.916
 3175POPC   C1A43623  42.881  21.960   6.341
 3175POPC   D2A43624  42.961  21.636   6.653
 3175POPC   C3A43625  42.985  21.815   7.053
 3175POPC   C4A43626  42.845  22.153   7.307
 3175POPC   C1B43627  43.373  22.144   6.264
 3175POPC   C2B43628  43.279  22.062   6.671
 3175POPC   C3B43629  43.268  22.240   7.049
 3175POPC   C4B43630  43.465  22.085   7.386
 3176POPC   NC343631  29.559  13.286   5.595
 3176POPC   PO443632  29.079  13.595   5.239
 3176POPC   GL143633  29.100  13.661   5.675
 3176POPC   GL243634  29.108  13.344   5.841
 3176POPC   C1A43635  29.066  13.733   6.159
 3176POPC   D2A43636  29.408  13.856   6.467
 3176POPC   C3A43637  29.361  13.787   6.942
 3176POPC   C4A43638  29.341  13.697   7.412
 3176POPC   C1B43639  29.190  13.219   6.277
 3176POPC   C2B43640  29.135  13.359   6.710
 3176POPC   C3B43641  29.116  13.318   7.165
 3176POPC   C4B43642  28.872  13.456   7.523
 3177POPC   NC343643  44.044   1.672   5.432
 3177POPC   PO443644  43.729   2.272   5.229
 3177POPC   GL143645  43.792   2.072   5.648
 3177POPC   GL243646  44.131   2.137   5.756
 3177POPC   C1A43647  43.820   1.871   6.090
 3177POPC   D2A43648  43.540   1.929   6.442
 3177POPC   C3A43649  43.564   1.983   6.907
 3177POPC   C4A43650  43.838   1.861   7.245
 3177POPC   C1B43651  44.038   2.316   6.195
 3177POPC   C2B43652  43.954   2.173   6.635
 3177POPC   C3B43653  43.900   2.347   7.075
 3177POPC   C4B43654  44.108   2.220   7.500
 3178POPC   NC343655  38.739  10.577   5.421
 3178POPC   PO443656  38.151  10.288   5.564
 3178POPC   GL143657  38.223  10.577   5.880
 3178POPC   GL243658  38.546  10.647   5.877
 3178POPC   C1A43659  38.277  10.614   6.325
 3178POPC   D2A43660  38.193  10.357   6.674
 3178POPC   C3A43661  38.392  10.594   6.966
 3178POPC   C4A43662  38.280  10.789   7.340
 3178POPC   C1B43663  38.744  10.443   6.192
 3178POPC   C2B43664  38.732  10.368   6.605
 3178POPC   C3B43665  38.887  10.467   6.989
 3178POPC   C4B43666  38.797  10.774   7.234
 3179POPC   NC343667  25.836  30.168   5.264
 3179POPC   PO443668  26.412  29.818   5.479
 3179POPC   GL143669  26.327  29.694   5.903
 3179POPC   GL243670  25.994  29.852   5.982
 3179POPC   C1A43671  26.210  29.635   6.353
 3179POPC   D2A43672  25.805  29.824   6.530
 3179POPC   C3A43673  25.852  29.905   6.968
 3179POPC   C4A43674  26.188  29.698   7.158
 3179POPC   C1B43675  25.996  30.218   6.265
 3179POPC   C2B43676  25.855  30.332   6.654
 3179POPC   C3B43677  25.997  30.417   7.049
 3179POPC   C4B43678  25.762  30.722   7.199
 3180POPC   NC343679  36.281   5.480   5.719
 3180POPC   PO443680  35.943   4.967   5.431
 3180POPC   GL143681  35.902   5.161   5.858
 3180POPC   GL243682  36.232   5.044   5.987
 3180POPC   C1A43683  35.952   5.331   6.297
 3180POPC   D2A43684  36.162   5.088   6.636
 3180POPC   C3A43685  36.070   5.208   7.044
 3180POPC   C4A43686  35.749   5.428   7.331
 3180POPC   C1B43687  36.340   4.674   6.238
 3180POPC   C2B43688  36.315   4.599   6.679
 3180POPC   C3B43689  36.480   4.832   7.022
 3180POPC   C4B43690  36.457   4.744   7.474
 3181POPC   NC343691  27.892  12.375   4.997
 3181POPC   PO443692  27.349  12.066   5.392
 3181POPC   GL143693  27.572  12.024   5.763
 3181POPC   GL243694  27.626  11.705   5.927
 3181POPC   C1A43695  27.432  12.141   6.155
 3181POPC   D2A43696  27.573  12.260   6.518
 3181POPC   C3A43697  27.351  12.199   6.885
 3181POPC   C4A43698  27.344  12.439   7.251
 3181POPC   C1B43699  27.715  11.785   6.389
 3181POPC   C2B43700  27.667  11.804   6.848
 3181POPC   C3B43701  27.727  12.046   7.254
 3181POPC   C4B43702  28.078  11.936   7.583
 3182POPC   NC343703   7.514  21.085   5.493
 3182POPC   PO443704   7.269  20.404   5.448
 3182POPC   GL143705   7.534  20.602   5.794
 3182POPC   GL243706   7.399  20.893   5.939
 3182POPC   C1A43707   7.733  20.696   6.258
 3182POPC   D2A43708   7.508  20.783   6.680
 3182POPC   C3A43709   7.588  20.699   7.148
 3182POPC   C4A43710   7.586  21.007   7.540
 3182POPC   C1B43711   7.209  20.674   6.241
 3182POPC   C2B43712   6.993  20.728   6.598
 3182POPC   C3B43713   7.071  20.635   6.989
 3182POPC   C4B43714   7.155  20.751   7.404
 3183POPC   NC343715  43.886  40.054   5.236
 3183POPC   PO443716  43.967  39.348   5.231
 3183POPC   GL143717  44.046  39.433   5.705
 3183POPC   GL243718  43.994  39.762   5.818
 3183POPC   C1A43719  44.199  39.178   6.107
 3183POPC   D2A43720  43.984  39.063   6.501
 3183POPC   C3A43721  44.166  39.115   6.914
 3183POPC   C4A43722  43.881  39.091   7.241
 3183POPC   C1B43723  43.864  39.533   6.199
 3183POPC   C2B43724  44.000  39.585   6.630
 3183POPC   C3B43725  43.951  39.582   7.066
 3183POPC   C4B43726  43.733  39.535   7.472
 3184POPC   NC343727  14.937  38.264   5.454
 3184POPC   PO443728  15.389  38.620   5.399
 3184POPC   GL143729  15.299  38.527   5.831
 3184POPC   GL243730  15.251  38.172   5.884
 3184POPC   C1A43731  15.440  38.486   6.273
 3184POPC   D2A43732  15.293  38.431   6.702
 3184POPC   C3A43733  15.092  38.747   6.994
 3184POPC   C4A43734  15.392  38.826   7.281
 3184POPC   C1B43735  15.008  38.155   6.259
 3184POPC   C2B43736  15.044  37.992   6.651
 3184POPC   C3B43737  15.290  38.051   7.032
 3184POPC   C4B43738  15.134  38.324   7.293
 3185POPC   NC343739  16.310   3.007   5.629
 3185POPC   PO443740  16.886   2.576   5.475
 3185POPC   GL143741  17.014   2.719   5.842
 3185POPC   GL243742  16.666   2.792   5.903
 3185POPC   C1A43743  16.943   2.650   6.285
 3185POPC   D2A43744  16.698   2.713   6.637
 3185POPC   C3A43745  16.964   2.641   6.954
 3185POPC   C4A43746  16.926   2.819   7.329
 3185POPC   C1B43747  16.703   3.115   6.189
 3185POPC   C2B43748  16.879   3.203   6.561
 3185POPC   C3B43749  16.751   3.139   6.960
 3185POPC   C4B43750  16.688   3.261   7.362
 3186POPC   NC343751  34.677  35.790   5.345
 3186POPC   PO443752  34.359  36.265   5.567
 3186POPC   GL143753  34.690  36.086   5.825
 3186POPC   GL243754  34.839  35.748   5.822
 3186POPC   C1A43755  34.635  36.093   6.270
 3186POPC   D2A43756  34.465  35.843   6.603
 3186POPC   C3A43757  34.541  36.127   6.930
 3186POPC   C4A43758  34.377  36.217   7.330
 3186POPC   C1B43759  34.735  35.610   6.214
 3186POPC   C2B43760  34.950  35.735   6.568
 3186POPC   C3B43761  34.858  35.704   6.985
 3186POPC   C4B43762  34.857  36.005   7.300
 3187POPC   NC343763  20.775  39.206   5.492
 3187POPC   PO443764  20.158  39.536   5.477
 3187POPC   GL143765  20.352  39.258   5.788
 3187POPC   GL243766  20.611  39.402   5.936
 3187POPC   C1A43767  20.319  39.091   6.243
 3187POPC   D2A43768  20.483  39.263   6.626
 3187POPC   C3A43769  20.408  39.154   7.062
 3187POPC   C4A43770  20.530  38.979   7.484
 3187POPC   C1B43771  20.824  39.638   6.234
 3187POPC   C2B43772  20.657  39.746   6.614
 3187POPC   C3B43773  20.778  39.560   6.988
 3187POPC   C4B43774  20.558  39.574   7.336
 3188POPC   NC343775  26.634   9.952   5.511
 3188POPC   PO443776  27.233  10.291   5.410
 3188POPC   GL143777  27.160   9.951   5.776
 3188POPC   GL243778  26.980   9.592   5.733
 3188POPC   C1A43779  26.883   9.860   6.177
 3188POPC   D2A43780  26.505   9.907   6.486
 3188POPC   C3A43781  26.680   9.932   6.906
 3188POPC   C4A43782  27.167   9.982   6.949
 3188POPC   C1B43783  26.725   9.380   6.097
 3188POPC   C2B43784  26.765   9.456   6.559
 3188POPC   C3B43785  26.876   9.483   7.000
 3188POPC   C4B43786  26.573   9.530   7.337
 3189POPC   NC343787  20.532  19.497   5.515
 3189POPC   PO443788  20.920  20.070   5.472
 3189POPC   GL143789  20.715  19.869   5.817
 3189POPC   GL243790  20.377  19.953   5.725
 3189POPC   C1A43791  20.726  19.690   6.261
 3189POPC   D2A43792  20.908  19.619   6.701
 3189POPC   C3A43793  20.705  19.760   7.100
 3189POPC   C4A43794  20.726  20.055   7.463
 3189POPC   C1B43795  20.356  20.028   6.181
 3189POPC   C2B43796  20.411  19.914   6.654
 3189POPC   C3B43797  20.310  20.071   7.085
 3189POPC   C4B43798  19.910  20.130   7.315
 3190POPC   NC343799  20.607  32.673   5.348
 3190POPC   PO443800  20.379  33.375   5.470
 3190POPC   GL143801  20.496  33.123   5.843
 3190POPC   GL243802  20.632  32.781   5.841
 3190POPC   C1A43803  20.521  33.188   6.281
 3190POPC   D2A43804  20.480  32.949   6.656
 3190POPC   C3A43805  20.508  33.201   6.999
 3190POPC   C4A43806  20.891  33.247   7.192
 3190POPC   C1B43807  20.774  32.731   6.277
 3190POPC   C2B43808  20.771  32.527   6.710
 3190POPC   C3B43809  20.716  32.745   7.128
 3190POPC   C4B43810  20.979  32.805   7.495
 3191POPC   NC343811  10.115  31.265   4.853
 3191POPC   PO443812   9.826  31.439   5.326
 3191POPC   GL143813   9.866  31.484   5.806
 3191POPC   GL243814   9.824  31.740   6.089
 3191POPC   C1A43815   9.889  31.289   6.264
 3191POPC   D2A43816   9.765  31.331   6.712
 3191POPC   C3A43817   9.995  31.192   7.068
 3191POPC   C4A43818  10.091  31.414   7.423
 3191POPC   C1B43819   9.530  31.654   6.405
 3191POPC   C2B43820   9.388  31.685   6.801
 3191POPC   C3B43821   9.695  31.622   7.141
 3191POPC   C4B43822   9.612  31.497   7.557
 3192POPC   NC343823  25.959  15.464   5.010
 3192POPC   PO443824  26.288  15.779   5.421
 3192POPC   GL143825  26.074  15.722   5.836
 3192POPC   GL243826  25.733  15.642   5.833
 3192POPC   C1A43827  26.052  15.789   6.294
 3192POPC   D2A43828  26.072  15.984   6.732
 3192POPC   C3A43829  26.274  15.755   7.086
 3192POPC   C4A43830  26.670  15.889   7.332
 3192POPC   C1B43831  25.554  15.612   6.257
 3192POPC   C2B43832  25.708  15.646   6.661
 3192POPC   C3B43833  25.686  15.710   7.091
 3192POPC   C4B43834  25.741  15.640   7.531
 3193POPC   NC343835  22.487  11.946   5.420
 3193POPC   PO443836  23.068  11.666   5.298
 3193POPC   GL143837  22.936  11.947   5.663
 3193POPC   GL243838  22.677  11.803   5.863
 3193POPC   C1A43839  22.937  12.202   6.059
 3193POPC   D2A43840  23.163  12.290   6.441
 3193POPC   C3A43841  22.884  12.197   6.765
 3193POPC   C4A43842  22.937  12.250   7.173
 3193POPC   C1B43843  22.865  11.704   6.268
 3193POPC   C2B43844  22.897  11.529   6.691
 3193POPC   C3B43845  23.024  11.761   7.044
 3193POPC   C4B43846  22.940  11.855   7.475
 3194POPC   NC343847  11.531   9.774   5.071
 3194POPC   PO443848  11.489   9.465   5.383
 3194POPC   GL143849  11.484   9.664   5.823
 3194POPC   GL243850  11.323  10.002   5.850
 3194POPC   C1A43851  11.483   9.679   6.319
 3194POPC   D2A43852  11.317   9.477   6.719
 3194POPC   C3A43853  11.405   9.634   7.169
 3194POPC   C4A43854  11.529   9.955   7.503
 3194POPC   C1B43855  11.242  10.126   6.294
 3194POPC   C2B43856  11.113   9.969   6.708
 3194POPC   C3B43857  11.203  10.120   7.124
 3194POPC   C4B43858  11.142  10.347   7.524
 3195POPC   NC343859   6.900  10.046   5.451
 3195POPC   PO443860   6.369   9.661   5.240
 3195POPC   GL143861   6.507   9.781   5.707
 3195POPC   GL243862   6.739   9.545   5.843
 3195POPC   C1A43863   6.626   9.884   6.204
 3195POPC   D2A43864   6.776  10.047   6.584
 3195POPC   C3A43865   6.619   9.804   6.912
 3195POPC   C4A43866   6.761   9.843   7.323
 3195POPC   C1B43867   6.385   9.462   6.107
 3195POPC   C2B43868   6.362   9.545   6.524
 3195POPC   C3B43869   6.327   9.353   6.908
 3195POPC   C4B43870   6.393   9.517   7.294
 3196POPC   NC343871  21.614  23.421   5.350
 3196POPC   PO443872  21.126  23.896   5.422
 3196POPC   GL143873  21.304  23.989   5.796
 3196POPC   GL243874  21.351  23.630   5.792
 3196POPC   C1A43875  21.463  23.984   6.188
 3196POPC   D2A43876  21.568  23.743   6.512
 3196POPC   C3A43877  21.551  23.840   6.897
 3196POPC   C4A43878  21.850  23.629   7.076
 3196POPC   C1B43879  21.468  23.425   6.150
 3196POPC   C2B43880  21.490  23.247   6.574
 3196POPC   C3B43881  21.436  23.343   6.989
 3196POPC   C4B43882  21.237  23.203   7.344
 3197POPC   NC343883  14.327  24.287   5.633
 3197POPC   PO443884  14.574  24.862   5.461
 3197POPC   GL143885  14.399  24.751   5.873
 3197POPC   GL243886  14.046  24.743   5.751
 3197POPC   C1A43887  14.499  24.419   6.268
 3197POPC   D2A43888  14.309  24.371   6.691
 3197POPC   C3A43889  14.474  24.522   7.099
 3197POPC   C4A43890  14.580  24.223   7.451
 3197POPC   C1B43891  14.047  24.561   6.178
 3197POPC   C2B43892  14.067  24.803   6.601
 3197POPC   C3B43893  13.963  24.619   7.005
 3197POPC   C4B43894  13.924  24.314   7.327
 3198POPC   NC343895  12.792  21.395   5.257
 3198POPC   PO443896  13.407  21.156   5.418
 3198POPC   GL143897  13.022  21.179   5.673
 3198POPC   GL243898  12.872  21.488   5.776
 3198POPC   C1A43899  12.890  21.162   6.138
 3198POPC   D2A43900  13.013  21.405   6.507
 3198POPC   C3A43901  12.831  21.302   6.884
 3198POPC   C4A43902  12.962  21.066   7.221
 3198POPC   C1B43903  12.765  21.698   6.173
 3198POPC   C2B43904  12.680  21.885   6.583
 3198POPC   C3B43905  12.574  21.730   7.010
 3198POPC   C4B43906  12.638  21.441   7.360
 3199POPC   NC343907  21.017  41.717   5.468
 3199POPC   PO443908  20.493  41.266   5.489
 3199POPC   GL143909  20.444  41.458   5.887
 3199POPC   GL243910  20.670  41.748   5.855
 3199POPC   C1A43911  20.543  41.552   6.328
 3199POPC   D2A43912  20.461  41.775   6.741
 3199POPC   C3A43913  20.508  41.552   7.136
 3199POPC   C4A43914  20.687  41.448   7.574
 3199POPC   C1B43915  20.923  41.880   6.206
 3199POPC   C2B43916  20.900  42.017   6.634
 3199POPC   C3B43917  20.848  41.947   7.083
 3199POPC   C4B43918  20.951  41.869   7.541
 3200POPC   NC343919  18.976  31.748   5.390
 3200POPC   PO443920  19.617  31.855   5.674
 3200POPC   GL143921  19.235  31.581   5.830
 3200POPC   GL243922  18.832  31.549   5.842
 3200POPC   C1A43923  19.153  31.244   6.102
 3200POPC   D2A43924  19.066  31.377   6.519
 3200POPC   C3A43925  19.101  31.080   6.847
 3200POPC   C4A43926  19.221  31.041   7.274
 3200POPC   C1B43927  18.617  31.449   6.241
 3200POPC   C2B43928  18.591  31.388   6.699
 3200POPC   C3B43929  18.785  31.465   7.098
 3200POPC   C4B43930  18.535  31.573   7.476
 3201POPC   NC343931   7.022  11.581   5.103
 3201POPC   PO443932   6.433  11.217   5.313
 3201POPC   GL143933   6.581  11.461   5.668
 3201POPC   GL243934   6.909  11.558   5.612
 3201POPC   C1A43935   6.499  11.413   6.121
 3201POPC   D2A43936   6.524  11.057   6.420
 3201POPC   C3A43937   6.604  11.150   6.833
 3201POPC   C4A43938   6.696  11.088   7.248
 3201POPC   C1B43939   7.006  11.508   6.070
 3201POPC   C2B43940   6.948  11.403   6.521
 3201POPC   C3B43941   6.925  11.537   6.969
 3201POPC   C4B43942   7.101  11.455   7.360
 3202POPC   NC343943  10.945  44.833   5.221
 3202POPC   PO443944  11.523  44.458   5.487
 3202POPC   GL143945  11.205  44.523   5.873
 3202POPC   GL243946  10.973  44.807   5.744
 3202POPC   C1A43947  11.207  44.467   6.367
 3202POPC   D2A43948  11.445  44.713   6.716
 3202POPC   C3A43949  11.525  44.624   7.177
 3202POPC   C4A43950  11.535  44.847   7.581
 3202POPC   C1B43951  10.949  44.970   6.170
 3202POPC   C2B43952  10.929  44.861   6.621
 3202POPC   C3B43953  11.027  44.718   7.041
 3202POPC   C4B43954  10.773  44.884   7.388
 3203POPC   NC343955  31.904  11.288   5.491
 3203POPC   PO443956  31.227  11.325   5.321
 3203POPC   GL143957  31.421  11.414   5.719
 3203POPC   GL243958  31.149  11.587   5.854
 3203POPC   C1A43959  31.446  11.240   6.158
 3203POPC   D2A43960  31.594  11.132   6.572
 3203POPC   C3A43961  31.391  11.270   6.938
 3203POPC   C4A43962  31.443  11.478   7.337
 3203POPC   C1B43963  31.291  11.734   6.193
 3203POPC   C2B43964  31.474  11.642   6.558
 3203POPC   C3B43965  31.309  11.775   6.935
 3203POPC   C4B43966  31.084  11.850   7.277
 3204POPC   NC343967  29.706  32.042   5.518
 3204POPC   PO443968  30.111  32.578   5.448
 3204POPC   GL143969  30.079  32.570   5.863
 3204POPC   GL243970  29.722  32.571   5.863
 3204POPC   C1A43971  30.048  32.324   6.213
 3204POPC   D2A43972  30.063  32.046   6.530
 3204POPC   C3A43973  30.190  32.236   6.879
 3204POPC   C4A43974  30.083  32.147   7.262
 3204POPC   C1B43975  29.564  32.505   6.275
 3204POPC   C2B43976  29.794  32.500   6.663
 3204POPC   C3B43977  29.681  32.407   7.077
 3204POPC   C4B43978  29.573  32.120   7.421
 3205POPC   NC343979  30.354  22.891   5.380
 3205POPC   PO443980  30.951  22.718   5.361
 3205POPC   GL143981  30.688  22.677   5.770
 3205POPC   GL243982  30.469  22.941   5.896
 3205POPC   C1A43983  30.456  22.522   6.180
 3205POPC   D2A43984  30.346  22.409   6.617
 3205POPC   C3A43985  30.513  22.649   6.933
 3205POPC   C4A43986  30.389  23.019   7.131
 3205POPC   C1B43987  30.665  22.951   6.349
 3205POPC   C2B43988  30.687  23.181   6.759
 3205POPC   C3B43989  30.849  23.252   7.208
 3205POPC   C4B43990  31.064  23.089   7.602
 3206POPC   NC343991  29.292  38.602   5.259
 3206POPC   PO443992  28.786  38.187   5.278
 3206POPC   GL143993  29.068  38.333   5.634
 3206POPC   GL243994  28.866  38.198   5.850
 3206POPC   C1A43995  29.136  38.605   6.001
 3206POPC   D2A43996  29.020  38.440   6.437
 3206POPC   C3A43997  28.956  38.516   6.880
 3206POPC   C4A43998  29.318  38.494   7.145
 3206POPC   C1B43999  28.780  38.024   6.218
 3206POPC   C2B44000  28.727  38.071   6.659
 3206POPC   C3B44001  28.692  38.091   7.081
 3206POPC   C4B44002  28.984  38.169   7.368
 3207POPC   NC344003  17.741  15.750   5.214
 3207POPC   PO444004  17.107  15.935   5.453
 3207POPC   GL144005  17.386  15.784   5.786
 3207POPC   GL244006  17.132  15.683   6.009
 3207POPC   C1A44007  17.574  15.932   6.227
 3207POPC   D2A44008  17.874  16.013   6.606
 3207POPC   C3A44009  17.722  16.251   6.998
 3207POPC   C4A44010  17.721  16.198   7.466
 3207POPC   C1B44011  17.157  15.695   6.436
 3207POPC   C2B44012  17.537  15.610   6.644
 3207POPC   C3B44013  17.710  15.743   7.032
 3207POPC   C4B44014  17.352  15.919   7.248
 3208POPC   NC344015   3.148  43.374   5.405
 3208POPC   PO444016   3.788  43.108   5.553
 3208POPC   GL144017   3.425  43.135   5.799
 3208POPC   GL244018   3.345  42.801   5.820
 3208POPC   C1A44019   3.327  43.247   6.242
 3208POPC   D2A44020   3.275  43.027   6.663
 3208POPC   C3A44021   3.384  43.084   7.103
 3208POPC   C4A44022   3.499  43.331   7.480
 3208POPC   C1B44023   3.611  42.830   6.192
 3208POPC   C2B44024   3.733  42.741   6.609
 3208POPC   C3B44025   3.647  42.658   7.045
 3208POPC   C4B44026   3.848  42.972   7.327
 3209POPC   NC344027  28.495  44.319   5.456
 3209POPC   PO444028  28.752  43.667   5.436
 3209POPC   GL144029  28.574  43.842   5.802
 3209POPC   GL244030  28.278  43.962   5.781
 3209POPC   C1A44031  28.605  44.108   6.172
 3209POPC   D2A44032  28.477  44.248   6.582
 3209POPC   C3A44033  28.494  44.061   6.992
 3209POPC   C4A44034  28.208  43.988   7.329
 3209POPC   C1B44035  28.208  43.793   6.187
 3209POPC   C2B44036  28.105  43.892   6.615
 3209POPC   C3B44037  28.213  43.631   6.971
 3209POPC   C4B44038  28.122  43.456   7.371
 3210POPC   NC344039   5.413  38.003   5.487
 3210POPC   PO444040   6.075  37.874   5.221
 3210POPC   GL144041   5.806  37.697   5.635
 3210POPC   GL244042   5.957  37.400   5.892
 3210POPC   C1A44043   5.720  37.806   6.092
 3210POPC   D2A44044   5.825  37.732   6.558
 3210POPC   C3A44045   5.695  37.541   6.995
 3210POPC   C4A44046   5.515  37.729   7.426
 3210POPC   C1B44047   6.101  37.208   6.290
 3210POPC   C2B44048   6.231  37.401   6.682
 3210POPC   C3B44049   6.145  37.783   6.952
 3210POPC   C4B44050   6.017  37.793   7.324
 3211POPC   NC344051   7.158  21.865   5.538
 3211POPC   PO444052   7.638  22.315   5.280
 3211POPC   GL144053   7.567  22.164   5.740
 3211POPC   GL244054   7.244  22.165   5.932
 3211POPC   C1A44055   7.647  22.307   6.203
 3211POPC   D2A44056   7.888  22.156   6.583
 3211POPC   C3A44057   7.730  22.101   7.018
 3211POPC   C4A44058   7.521  21.721   7.104
 3211POPC   C1B44059   7.194  22.048   6.339
 3211POPC   C2B44060   7.349  22.272   6.690
 3211POPC   C3B44061   7.214  22.146   7.098
 3211POPC   C4B44062   7.003  22.291   7.442
 3212POPC   NC344063  10.666  38.170   5.349
 3212POPC   PO444064  10.096  37.840   5.491
 3212POPC   GL144065  10.466  37.850   5.731
 3212POPC   GL244066  10.463  37.538   5.846
 3212POPC   C1A44067  10.542  37.917   6.179
 3212POPC   D2A44068  10.399  37.841   6.603
 3212POPC   C3A44069  10.674  37.961   6.937
 3212POPC   C4A44070  10.375  37.811   7.188
 3212POPC   C1B44071  10.722  37.408   6.192
 3212POPC   C2B44072  10.696  37.248   6.588
 3212POPC   C3B44073  10.602  37.419   6.967
 3212POPC   C4B44074  10.548  37.404   7.418
 3213POPC   NC344075  20.158  29.404   5.465
 3213POPC   PO444076  19.865  28.746   5.650
 3213POPC   GL144077  19.989  29.077   5.839
 3213POPC   GL244078  19.693  29.270   5.662
 3213POPC   C1A44079  20.024  28.988   6.301
 3213POPC   D2A44080  19.764  28.931   6.685
 3213POPC   C3A44081  19.959  28.838   7.095
 3213POPC   C4A44082  19.940  28.838   7.565
 3213POPC   C1B44083  19.628  29.293   6.129
 3213POPC   C2B44084  19.846  29.435   6.518
 3213POPC   C3B44085  19.772  29.379   6.950
 3213POPC   C4B44086  19.979  29.294   7.333
 3214POPC   NC344087   5.199   8.414   5.098
 3214POPC   PO444088   4.937   7.857   5.496
 3214POPC   GL144089   5.005   8.141   5.853
 3214POPC   GL244090   4.683   8.236   5.885
 3214POPC   C1A44091   5.172   8.228   6.301
 3214POPC   D2A44092   5.486   8.093   6.633
 3214POPC   C3A44093   5.274   7.831   6.917
 3214POPC   C4A44094   5.056   7.945   7.258
 3214POPC   C1B44095   4.621   7.949   6.204
 3214POPC   C2B44096   4.845   7.934   6.592
 3214POPC   C3B44097   4.957   8.255   6.832
 3214POPC   C4B44098   4.846   8.406   7.228
 3215POPC   NC344099  14.879  11.447   5.447
 3215POPC   PO444100  14.234  11.095   5.328
 3215POPC   GL144101  14.380  11.431   5.650
 3215POPC   GL244102  14.583  11.189   5.848
 3215POPC   C1A44103  14.414  11.591   6.099
 3215POPC   D2A44104  14.446  11.363   6.502
 3215POPC   C3A44105  14.173  11.408   6.871
 3215POPC   C4A44106  14.344  11.612   7.214
 3215POPC   C1B44107  14.643  10.937   6.259
 3215POPC   C2B44108  14.497  10.902   6.728
 3215POPC   C3B44109  14.466  11.053   7.170
 3215POPC   C4B44110  14.673  10.915   7.601
 3216POPC   NC344111  44.593  42.827   5.538
 3216POPC   PO444112  44.982  43.403   5.335
 3216POPC   GL144113  44.798  43.266   5.732
 3216POPC   GL244114  44.977  42.968   5.846
 3216POPC   C1A44115  44.601  43.172   6.152
 3216POPC   D2A44116  44.703  43.344   6.560
 3216POPC   C3A44117  44.556  43.153   6.946
 3216POPC   C4A44118  44.679  43.359   7.288
 3216POPC   C1B44119  44.991  42.818   6.234
 3216POPC   C2B44120  44.776  42.816   6.629
 3216POPC   C3B44121  44.910  42.792   7.074
 3216POPC   C4B44122  44.694  42.897   7.474
 3217POPC   NC344123  41.461   6.933   5.566
 3217POPC   PO444124  41.508   7.611   5.312
 3217POPC   GL144125  41.451   7.733   5.721
 3217POPC   GL244126  41.312   7.392   5.767
 3217POPC   C1A44127  41.623   7.656   6.135
 3217POPC   D2A44128  41.870   7.498   6.487
 3217POPC   C3A44129  41.753   7.625   6.890
 3217POPC   C4A44130  41.799   7.492   7.256
 3217POPC   C1B44131  41.224   7.303   6.206
 3217POPC   C2B44132  41.364   7.492   6.584
 3217POPC   C3B44133  41.295   7.417   7.004
 3217POPC   C4B44134  41.379   7.234   7.374
 3218POPC   NC344135  37.005  35.314   5.178
 3218POPC   PO444136  36.591  35.562   5.628
 3218POPC   GL144137  36.804  35.299   5.860
 3218POPC   GL244138  36.722  35.057   5.672
 3218POPC   C1A44139  36.986  35.308   6.248
 3218POPC   D2A44140  36.895  35.519   6.603
 3218POPC   C3A44141  37.015  35.307   6.948
 3218POPC   C4A44142  36.970  35.555   7.285
 3218POPC   C1B44143  36.592  34.958   6.156
 3218POPC   C2B44144  36.586  35.117   6.580
 3218POPC   C3B44145  36.613  34.982   6.967
 3218POPC   C4B44146  36.976  34.891   7.240
 3219POPC   NC344147  11.447  29.773   5.457
 3219POPC   PO444148  10.882  30.137   5.389
 3219POPC   GL144149  11.160  30.117   5.803
 3219POPC   GL244150  11.208  29.784   5.906
 3219POPC   C1A44151  11.419  30.117   6.213
 3219POPC   D2A44152  11.442  29.768   6.536
 3219POPC   C3A44153  11.416  29.909   6.978
 3219POPC   C4A44154  11.102  30.173   7.154
 3219POPC   C1B44155  10.981  29.847   6.291
 3219POPC   C2B44156  10.972  29.873   6.743
 3219POPC   C3B44157  10.934  29.696   7.147
 3219POPC   C4B44158  10.974  29.784   7.603
 3220POPC   NC344159  34.224  39.319   5.397
 3220POPC   PO444160  34.970  39.468   5.293
 3220POPC   GL144161  34.732  39.399   5.665
 3220POPC   GL244162  34.646  39.052   5.665
 3220POPC   C1A44163  34.865  39.363   6.101
 3220POPC   D2A44164  34.979  39.450   6.526
 3220POPC   C3A44165  34.709  39.580   6.817
 3220POPC   C4A44166  34.524  39.569   7.191
 3220POPC   C1B44167  34.594  38.946   6.112
 3220POPC   C2B44168  34.536  39.164   6.549
 3220POPC   C3B44169  34.423  39.069   6.981
 3220POPC   C4B44170  34.610  38.733   7.221
 3221POPC   NC344171  19.942  33.203   5.555
 3221POPC   PO444172  19.503  32.785   5.324
 3221POPC   GL144173  19.733  32.759   5.743
 3221POPC   GL244174  20.109  32.775   5.775
 3221POPC   C1A44175  19.770  33.013   6.154
 3221POPC   D2A44176  19.699  33.376   6.470
 3221POPC   C3A44177  19.791  33.247   6.894
 3221POPC   C4A44178  19.638  32.945   7.176
 3221POPC   C1B44179  20.229  32.753   6.213
 3221POPC   C2B44180  19.988  32.866   6.599
 3221POPC   C3B44181  20.113  32.829   7.012
 3221POPC   C4B44182  20.100  33.158   7.300
 3222POPC   NC344183  38.272  27.539   5.354
 3222POPC   PO444184  38.912  27.442   5.282
 3222POPC   GL144185  38.763  27.629   5.704
 3222POPC   GL244186  38.387  27.608   5.834
 3222POPC   C1A44187  38.728  27.896   6.094
 3222POPC   D2A44188  38.461  27.818   6.479
 3222POPC   C3A44189  38.670  27.785   6.879
 3222POPC   C4A44190  38.858  27.694   7.268
 3222POPC   C1B44191  38.578  27.405   6.173
 3222POPC   C2B44192  38.572  27.298   6.624
 3222POPC   C3B44193  38.576  27.322   7.069
 3222POPC   C4B44194  38.217  27.144   7.287
 3223POPC   NC344195  16.298  17.030   5.175
 3223POPC   PO444196  16.243  16.436   5.497
 3223POPC   GL144197  16.133  16.587   5.908
 3223POPC   GL244198  16.201  16.936   5.804
 3223POPC   C1A44199  15.868  16.506   6.289
 3223POPC   D2A44200  15.624  16.701   6.626
 3223POPC   C3A44201  15.776  16.792   7.031
 3223POPC   C4A44202  16.100  16.527   7.202
 3223POPC   C1B44203  15.981  16.985   6.208
 3223POPC   C2B44204  16.096  16.899   6.628
 3223POPC   C3B44205  16.234  17.000   7.060
 3223POPC   C4B44206  16.060  17.076   7.459
 3224POPC   NC344207   0.623  29.580   5.158
 3224POPC   PO444208   0.405  30.159   5.386
 3224POPC   GL144209   0.542  29.921   5.793
 3224POPC   GL244210   0.266  29.793   5.986
 3224POPC   C1A44211   0.617  29.999   6.266
 3224POPC   D2A44212   0.763  29.854   6.646
 3224POPC   C3A44213   0.573  30.085   6.958
 3224POPC   C4A44214   0.664  29.930   7.357
 3224POPC   C1B44215   0.103  30.085   6.240
 3224POPC   C2B44216   0.177  29.941   6.650
 3224POPC   C3B44217   0.164  29.804   7.070
 3224POPC   C4B44218   0.118  30.189   7.220
 3225POPC   NC344219  42.857   2.290   5.496
 3225POPC   PO444220  42.232   1.930   5.539
 3225POPC   GL144221  42.548   2.043   5.845
 3225POPC   GL244222  42.630   1.720   5.926
 3225POPC   C1A44223  42.612   2.043   6.312
 3225POPC   D2A44224  42.388   1.960   6.682
 3225POPC   C3A44225  42.471   2.000   7.110
 3225POPC   C4A44226  42.141   2.212   7.363
 3225POPC   C1B44227  42.244   1.697   6.201
 3225POPC   C2B44228  42.044   1.595   6.610
 3225POPC   C3B44229  42.043   1.751   7.061
 3225POPC   C4B44230  41.907   1.771   7.511
 3226POPC   NC344231   1.071  19.415   5.474
 3226POPC   PO444232   1.613  18.938   5.363
 3226POPC   GL144233   1.408  18.840   5.789
 3226POPC   GL244234   1.255  19.119   5.890
 3226POPC   C1A44235   1.234  18.792   6.235
 3226POPC   D2A44236   1.428  18.846   6.607
 3226POPC   C3A44237   1.253  18.772   7.006
 3226POPC   C4A44238   1.454  18.637   7.393
 3226POPC   C1B44239   0.968  19.312   6.152
 3226POPC   C2B44240   0.995  19.179   6.550
 3226POPC   C3B44241   0.816  19.091   6.921
 3226POPC   C4B44242   1.005  19.148   7.290
 3227POPC   NC344243  33.513   5.436   5.635
 3227POPC   PO444244  33.788   5.941   5.275
 3227POPC   GL144245  33.733   5.925   5.775
 3227POPC   GL244246  33.774   6.259   5.900
 3227POPC   C1A44247  33.714   5.639   6.211
 3227POPC   D2A44248  33.558   5.647   6.644
 3227POPC   C3A44249  33.812   5.799   6.955
 3227POPC   C4A44250  34.081   5.626   7.241
 3227POPC   C1B44251  33.996   6.055   6.197
 3227POPC   C2B44252  33.906   6.112   6.577
 3227POPC   C3B44253  34.067   6.288   6.926
 3227POPC   C4B44254  34.016   6.140   7.319
 3228POPC   NC344255  18.820   5.064   5.438
 3228POPC   PO444256  19.402   4.785   5.504
 3228POPC   GL144257  19.048   4.870   5.846
 3228POPC   GL244258  19.022   5.259   5.890
 3228POPC   C1A44259  18.770   4.988   6.231
 3228POPC   D2A44260  18.894   5.219   6.606
 3228POPC   C3A44261  18.732   5.036   6.962
 3228POPC   C4A44262  18.927   5.153   7.329
 3228POPC   C1B44263  19.263   5.063   6.273
 3228POPC   C2B44264  19.365   4.993   6.726
 3228POPC   C3B44265  19.330   4.901   7.162
 3228POPC   C4B44266  19.296   4.875   7.612
 3229POPC   NC344267   5.030  10.115   5.143
 3229POPC   PO444268   5.016  10.594   5.565
 3229POPC   GL144269   4.952  10.446   5.966
 3229POPC   GL244270   5.287  10.316   5.976
 3229POPC   C1A44271   4.889  10.176   6.326
 3229POPC   D2A44272   5.037  10.447   6.635
 3229POPC   C3A44273   4.848  10.480   7.029
 3229POPC   C4A44274   5.040  10.428   7.403
 3229POPC   C1B44275   5.471  10.026   6.236
 3229POPC   C2B44276   5.300   9.962   6.600
 3229POPC   C3B44277   5.320  10.202   6.983
 3229POPC   C4B44278   5.424  10.083   7.373
 3230POPC   NC344279   2.510   8.765   5.369
 3230POPC   PO444280   3.194   8.914   5.271
 3230POPC   GL144281   2.911   8.937   5.695
 3230POPC   GL244282   2.577   9.121   5.734
 3230POPC   C1A44283   2.825   8.828   6.146
 3230POPC   D2A44284   3.095   8.882   6.538
 3230POPC   C3A44285   2.909   8.844   6.922
 3230POPC   C4A44286   2.718   9.026   7.213
 3230POPC   C1B44287   2.422   9.126   6.181
 3230POPC   C2B44288   2.507   9.026   6.623
 3230POPC   C3B44289   2.306   9.216   6.990
 3230POPC   C4B44290   2.387   9.353   7.431
 3231POPC   NC344291  21.923  26.545   5.421
 3231POPC   PO444292  22.407  26.094   5.113
 3231POPC   GL144293  22.232  26.068   5.608
 3231POPC   GL244294  22.407  26.274   5.892
 3231POPC   C1A44295  22.210  25.808   6.010
 3231POPC   D2A44296  22.151  25.719   6.467
 3231POPC   C3A44297  22.299  26.005   6.806
 3231POPC   C4A44298  22.240  26.020   7.233
 3231POPC   C1B44299  22.010  26.297   6.089
 3231POPC   C2B44300  21.964  26.265   6.523
 3231POPC   C3B44301  21.891  26.284   6.969
 3231POPC   C4B44302  21.994  26.454   7.419
 3232POPC   NC344303  14.660   4.843   5.308
 3232POPC   PO444304  14.237   4.486   5.494
 3232POPC   GL144305  14.353   4.848   5.731
 3232POPC   GL244306  14.704   4.868   5.847
 3232POPC   C1A44307  14.276   4.911   6.172
 3232POPC   D2A44308  14.473   4.906   6.581
 3232POPC   C3A44309  14.265   5.058   6.968
 3232POPC   C4A44310  14.072   4.927   7.364
 3232POPC   C1B44311  14.701   5.208   6.202
 3232POPC   C2B44312  14.585   5.415   6.624
 3232POPC   C3B44313  14.659   5.397   7.075
 3232POPC   C4B44314  14.526   5.157   7.410
 3233POPC   NC344315   4.887   3.806   5.427
 3233POPC   PO444316   5.341   3.384   5.113
 3233POPC   GL144317   5.222   3.417   5.645
 3233POPC   GL244318   4.868   3.417   5.783
 3233POPC   C1A44319   5.211   3.413   6.170
 3233POPC   D2A44320   4.918   3.347   6.585
 3233POPC   C3A44321   5.104   3.437   7.043
 3233POPC   C4A44322   5.358   3.492   7.469
 3233POPC   C1B44323   4.777   3.711   6.161
 3233POPC   C2B44324   4.634   3.770   6.604
 3233POPC   C3B44325   4.697   3.913   7.025
 3233POPC   C4B44326   4.639   3.761   7.449
 3234POPC   NC344327  10.928  21.312   5.569
 3234POPC   PO444328  11.564  21.504   5.393
 3234POPC   GL144329  11.393  21.382   5.787
 3234POPC   GL244330  11.350  21.737   5.868
 3234POPC   C1A44331  11.189  21.385   6.209
 3234POPC   D2A44332  11.441  21.352   6.581
 3234POPC   C3A44333  11.286  21.159   6.935
 3234POPC   C4A44334  11.136  21.378   7.278
 3234POPC   C1B44335  11.674  21.866   6.203
 3234POPC   C2B44336  11.799  21.712   6.624
 3234POPC   C3B44337  11.593  21.677   7.040
 3234POPC   C4B44338  11.730  21.699   7.498
 3235POPC   NC344339   2.084   4.652   5.182
 3235POPC   PO444340   1.680   4.216   5.531
 3235POPC   GL144341   1.766   4.172   5.917
 3235POPC   GL244342   2.116   4.111   5.892
 3235POPC   C1A44343   1.837   4.308   6.309
 3235POPC   D2A44344   2.012   4.347   6.685
 3235POPC   C3A44345   1.967   4.590   7.010
 3235POPC   C4A44346   1.837   4.407   7.389
 3235POPC   C1B44347   2.343   4.234   6.286
 3235POPC   C2B44348   2.505   4.260   6.740
 3235POPC   C3B44349   2.229   4.164   7.135
 3235POPC   C4B44350   2.281   4.319   7.604
 3236POPC   NC344351   9.414  15.685   5.515
 3236POPC   PO444352   9.789  15.155   5.599
 3236POPC   GL144353   9.678  15.115   6.002
 3236POPC   GL244354   9.688  14.742   5.962
 3236POPC   C1A44355   9.660  15.529   6.225
 3236POPC   D2A44356   9.832  15.739   6.597
 3236POPC   C3A44357   9.944  15.391   6.874
 3236POPC   C4A44358   9.775  15.271   7.258
 3236POPC   C1B44359   9.371  14.779   6.289
 3236POPC   C2B44360   9.441  14.966   6.721
 3236POPC   C3B44361   9.590  14.751   7.097
 3236POPC   C4B44362   9.846  14.822   7.467
 3237POPC   NC344363  27.308  35.313   5.433
 3237POPC   PO444364  27.933  35.156   5.575
 3237POPC   GL144365  27.708  35.295   5.910
 3237POPC   GL244366  27.516  35.595   5.839
 3237POPC   C1A44367  27.766  35.565   6.287
 3237POPC   D2A44368  27.620  35.702   6.692
 3237POPC   C3A44369  27.560  35.354   7.017
 3237POPC   C4A44370  27.653  35.298   7.479
 3237POPC   C1B44371  27.266  35.873   6.153
 3237POPC   C2B44372  27.097  35.855   6.572
 3237POPC   C3B44373  27.211  35.768   6.988
 3237POPC   C4B44374  27.214  35.524   7.375
 3238POPC   NC344375  32.020  13.327   5.533
 3238POPC   PO444376  32.332  12.645   5.505
 3238POPC   GL144377  32.286  12.818   5.877
 3238POPC   GL244378  32.383  13.161   5.849
 3238POPC   C1A44379  32.166  12.808   6.298
 3238POPC   D2A44380  31.975  12.878   6.687
 3238POPC   C3A44381  32.211  12.813   7.044
 3238POPC   C4A44382  32.065  12.892   7.479
 3238POPC   C1B44383  32.624  13.041   6.204
 3238POPC   C2B44384  32.476  13.093   6.623
 3238POPC   C3B44385  32.691  12.948   6.971
 3238POPC   C4B44386  32.571  12.944   7.402
 3239POPC   NC344387  27.435  11.611   5.454
 3239POPC   PO444388  28.119  11.431   5.460
 3239POPC   GL144389  27.916  11.217   5.807
 3239POPC   GL244390  27.544  11.195   5.759
 3239POPC   C1A44391  27.793  11.331   6.213
 3239POPC   D2A44392  27.572  11.330   6.598
 3239POPC   C3A44393  27.811  11.269   6.967
 3239POPC   C4A44394  27.972  11.596   7.218
 3239POPC   C1B44395  27.314  11.146   6.147
 3239POPC   C2B44396  27.068  11.304   6.482
 3239POPC   C3B44397  27.163  11.385   6.914
 3239POPC   C4B44398  27.389  11.274   7.244
 3240POPC   NC344399  39.410   1.170   5.360
 3240POPC   PO444400  38.992   1.542   5.317
 3240POPC   GL144401  39.123   1.374   5.751
 3240POPC   GL244402  39.200   1.015   5.811
 3240POPC   C1A44403  39.383   1.346   6.163
 3240POPC   D2A44404  39.388   1.157   6.610
 3240POPC   C3A44405  39.479   1.368   7.030
 3240POPC   C4A44406  39.340   1.386   7.465
 3240POPC   C1B44407  38.998   1.007   6.240
 3240POPC   C2B44408  38.910   0.952   6.697
 3240POPC   C3B44409  39.092   1.046   7.094
 3240POPC   C4B44410  39.266   0.896   7.458
 3241POPC   NC344411  13.169  14.300   5.569
 3241POPC   PO444412  13.710  14.444   5.228
 3241POPC   GL144413  13.765  14.325   5.668
 3241POPC   GL244414  13.607  14.623   5.738
 3241POPC   C1A44415  13.762  14.359   6.147
 3241POPC   D2A44416  13.485  14.521   6.492
 3241POPC   C3A44417  13.373  14.319   6.931
 3241POPC   C4A44418  13.647  14.056   7.206
 3241POPC   C1B44419  13.635  14.890   6.084
 3241POPC   C2B44420  13.618  15.025   6.497
 3241POPC   C3B44421  13.582  14.821   6.897
 3241POPC   C4B44422  13.736  14.583   7.215
 3242POPC   NC344423  23.408  40.965   5.369
 3242POPC   PO444424  22.784  40.943   5.419
 3242POPC   GL144425  23.055  41.144   5.718
 3242POPC   GL244426  22.982  40.863   5.931
 3242POPC   C1A44427  23.369  41.159   6.079
 3242POPC   D2A44428  23.203  40.934   6.423
 3242POPC   C3A44429  23.208  40.956   6.918
 3242POPC   C4A44430  23.018  40.769   7.314
 3242POPC   C1B44431  22.940  40.515   6.230
 3242POPC   C2B44432  22.693  40.369   6.584
 3242POPC   C3B44433  22.789  40.451   7.010
 3242POPC   C4B44434  22.696  40.354   7.467
 3243POPC   NC344435   2.826  33.293   5.460
 3243POPC   PO444436   2.481  32.829   5.440
 3243POPC   GL144437   2.627  32.989   5.846
 3243POPC   GL244438   2.760  33.324   5.960
 3243POPC   C1A44439   2.585  32.996   6.290
 3243POPC   D2A44440   2.663  33.163   6.667
 3243POPC   C3A44441   2.796  32.926   6.933
 3243POPC   C4A44442   2.694  32.966   7.303
 3243POPC   C1B44443   3.064  33.270   6.289
 3243POPC   C2B44444   3.240  33.252   6.723
 3243POPC   C3B44445   3.166  33.208   7.188
 3243POPC   C4B44446   3.056  33.117   7.633
 3244POPC   NC344447   4.845  22.381   5.388
 3244POPC   PO444448   5.195  21.778   5.400
 3244POPC   GL144449   5.069  22.005   5.755
 3244POPC   GL244450   5.181  22.367   5.796
 3244POPC   C1A44451   5.051  22.075   6.188
 3244POPC   D2A44452   5.379  22.216   6.475
 3244POPC   C3A44453   5.262  22.102   6.896
 3244POPC   C4A44454   5.047  22.132   7.280
 3244POPC   C1B44455   5.061  22.571   6.208
 3244POPC   C2B44456   4.986  22.484   6.657
 3244POPC   C3B44457   5.123  22.621   7.066
 3244POPC   C4B44458   5.036  22.585   7.501
 3245POPC   NC344459  16.751  22.685   5.064
 3245POPC   PO444460  16.936  23.108   5.376
 3245POPC   GL144461  16.888  23.034   5.828
 3245POPC   GL244462  16.535  22.991   5.925
 3245POPC   C1A44463  16.903  22.811   6.244
 3245POPC   D2A44464  16.708  22.944   6.649
 3245POPC   C3A44465  16.937  22.878   7.032
 3245POPC   C4A44466  17.039  22.732   7.456
 3245POPC   C1B44467  16.399  22.720   6.282
 3245POPC   C2B44468  16.452  22.479   6.660
 3245POPC   C3B44469  16.495  22.623   7.094
 3245POPC   C4B44470  16.344  22.865   7.463
 3246POPC   NC344471  41.033   7.500   5.311
 3246POPC   PO444472  40.427   7.159   5.477
 3246POPC   GL144473  40.675   7.470   5.738
 3246POPC   GL244474  40.932   7.722   5.824
 3246POPC   C1A44475  40.604   7.554   6.190
 3246POPC   D2A44476  40.296   7.655   6.524
 3246POPC   C3A44477  40.418   7.604   6.952
 3246POPC   C4A44478  40.583   7.817   7.320
 3246POPC   C1B44479  41.041   7.789   6.294
 3246POPC   C2B44480  40.855   7.491   6.641
 3246POPC   C3B44481  40.809   7.310   7.074
 3246POPC   C4B44482  40.969   7.509   7.460
 3247POPC   NC344483  41.726  35.916   5.117
 3247POPC   PO444484  41.350  36.453   5.416
 3247POPC   GL144485  41.544  36.255   5.794
 3247POPC   GL244486  41.724  35.943   5.685
 3247POPC   C1A44487  41.567  36.361   6.240
 3247POPC   D2A44488  41.438  36.638   6.573
 3247POPC   C3A44489  41.321  36.389   6.917
 3247POPC   C4A44490  41.607  36.111   7.149
 3247POPC   C1B44491  41.791  35.902   6.161
 3247POPC   C2B44492  41.613  35.937   6.624
 3247POPC   C3B44493  41.632  35.633   7.014
 3247POPC   C4B44494  41.945  35.764   7.344
 3248POPC   NC344495  19.310   9.605   5.179
 3248POPC   PO444496  18.817   9.150   5.454
 3248POPC   GL144497  19.079   9.144   5.829
 3248POPC   GL244498  19.420   9.250   5.724
 3248POPC   C1A44499  19.105   8.901   6.213
 3248POPC   D2A44500  18.986   8.743   6.589
 3248POPC   C3A44501  19.136   8.889   7.002
 3248POPC   C4A44502  19.107   9.178   7.323
 3248POPC   C1B44503  19.392   9.322   6.197
 3248POPC   C2B44504  19.264   9.218   6.637
 3248POPC   C3B44505  19.516   9.272   7.052
 3248POPC   C4B44506  19.521   9.258   7.579
 3249POPC   NC344507  12.420  20.484   5.435
 3249POPC   PO444508  11.744  20.539   5.202
 3249POPC   GL144509  11.987  20.721   5.601
 3249POPC   GL244510  11.881  20.452   5.786
 3249POPC   C1A44511  12.027  20.844   6.091
 3249POPC   D2A44512  12.186  20.674   6.499
 3249POPC   C3A44513  12.077  20.787   6.880
 3249POPC   C4A44514  12.062  20.895   7.278
 3249POPC   C1B44515  12.009  20.300   6.186
 3249POPC   C2B44516  12.187  20.140   6.559
 3249POPC   C3B44517  12.458  20.351   6.861
 3249POPC   C4B44518  12.363  20.448   7.281
 3250POPC   NC344519   8.711  11.306   5.244
 3250POPC   PO444520   8.183  11.665   5.408
 3250POPC   GL144521   8.091  11.383   5.777
 3250POPC   GL244522   7.812  11.137   5.719
 3250POPC   C1A44523   8.271  11.238   6.187
 3250POPC   D2A44524   8.323  11.427   6.587
 3250POPC   C3A44525   8.358  11.241   7.014
 3250POPC   C4A44526   8.437  11.437   7.411
 3250POPC   C1B44527   7.820  11.018   6.154
 3250POPC   C2B44528   7.801  11.235   6.518
 3250POPC   C3B44529   7.897  11.421   6.871
 3250POPC   C4B44530   7.934  11.501   7.258
 3251POPC   NC344531   0.900  37.934   5.378
 3251POPC   PO444532   1.469  37.526   5.430
 3251POPC   GL144533   1.318  37.546   5.859
 3251POPC   GL244534   1.306  37.885   5.950
 3251POPC   C1A44535   1.109  37.451   6.237
 3251POPC   D2A44536   1.105  37.726   6.592
 3251POPC   C3A44537   1.159  37.590   7.013
 3251POPC   C4A44538   0.955  37.352   7.328
 3251POPC   C1B44539   1.567  37.740   6.297
 3251POPC   C2B44540   1.621  37.716   6.752
 3251POPC   C3B44541   1.450  38.022   7.048
 3251POPC   C4B44542   1.004  38.131   7.160
 3252POPC   NC344543  40.774  39.342   5.449
 3252POPC   PO444544  40.630  38.757   5.378
 3252POPC   GL144545  40.811  38.955   5.790
 3252POPC   GL244546  40.797  39.328   5.935
 3252POPC   C1A44547  40.987  38.951   6.197
 3252POPC   D2A44548  40.745  39.095   6.549
 3252POPC   C3A44549  40.962  38.979   6.928
 3252POPC   C4A44550  41.058  39.079   7.328
 3252POPC   C1B44551  40.874  39.580   6.265
 3252POPC   C2B44552  40.649  39.586   6.623
 3252POPC   C3B44553  40.864  39.479   6.956
 3252POPC   C4B44554  40.616  39.295   7.228
 3253POPC   NC344555  42.275  31.344   5.543
 3253POPC   PO444556  42.258  32.018   5.578
 3253POPC   GL144557  42.067  31.683   5.886
 3253POPC   GL244558  42.233  31.344   6.049
 3253POPC   C1A44559  41.993  31.723   6.340
 3253POPC   D2A44560  42.235  31.888   6.695
 3253POPC   C3A44561  42.340  31.527   6.949
 3253POPC   C4A44562  42.152  31.416   7.317
 3253POPC   C1B44563  42.353  30.965   6.343
 3253POPC   C2B44564  42.684  30.923   6.687
 3253POPC   C3B44565  42.808  31.189   7.033
 3253POPC   C4B44566  42.612  31.211   7.422
 3254POPC   NC344567  20.319   7.784   5.471
 3254POPC   PO444568  20.176   7.125   5.437
 3254POPC   GL144569  20.449   7.269   5.786
 3254POPC   GL244570  20.618   7.590   5.848
 3254POPC   C1A44571  20.307   7.408   6.191
 3254POPC   D2A44572  20.317   7.637   6.574
 3254POPC   C3A44573  20.194   7.420   6.928
 3254POPC   C4A44574  20.391   7.304   7.346
 3254POPC   C1B44575  20.791   7.484   6.308
 3254POPC   C2B44576  20.699   7.347   6.777
 3254POPC   C3B44577  20.867   7.420   7.225
 3254POPC   C4B44578  21.052   7.629   7.603
 3255POPC   NC344579  26.451  11.489   5.322
 3255POPC   PO444580  27.137  11.248   5.411
 3255POPC   GL144581  26.998  11.345   5.790
 3255POPC   GL244582  26.874  11.636   5.626
 3255POPC   C1A44583  26.735  11.152   6.118
 3255POPC   D2A44584  26.818  10.862   6.474
 3255POPC   C3A44585  26.718  11.148   6.832
 3255POPC   C4A44586  26.858  11.109   7.238
 3255POPC   C1B44587  26.617  11.655   5.994
 3255POPC   C2B44588  26.700  11.704   6.442
 3255POPC   C3B44589  26.479  11.668   6.833
 3255POPC   C4B44590  26.651  11.571   7.215
 3256POPC   NC344591  23.323  10.535   5.426
 3256POPC   PO444592  22.734  10.400   5.602
 3256POPC   GL144593  22.713  10.585   5.958
 3256POPC   GL244594  22.915  10.823   5.890
 3256POPC   C1A44595  22.814  10.661   6.381
 3256POPC   D2A44596  22.547  10.762   6.716
 3256POPC   C3A44597  22.702  10.653   7.099
 3256POPC   C4A44598  22.802  10.268   7.257
 3256POPC   C1B44599  23.196  10.441   6.078
 3256POPC   C2B44600  23.222  10.311   6.495
 3256POPC   C3B44601  23.140  10.554   6.852
 3256POPC   C4B44602  23.211  10.605   7.270
 3257POPC   NC344603  19.487  38.612   4.942
 3257POPC   PO444604  19.792  38.312   5.453
 3257POPC   GL144605  19.693  38.615   5.791
 3257POPC   GL244606  19.860  38.366   5.985
 3257POPC   C1A44607  19.770  38.826   6.219
 3257POPC   D2A44608  19.793  38.571   6.604
 3257POPC   C3A44609  19.915  38.447   7.039
 3257POPC   C4A44610  19.992  38.307   7.484
 3257POPC   C1B44611  19.474  38.413   6.212
 3257POPC   C2B44612  19.291  38.685   6.528
 3257POPC   C3B44613  19.406  38.553   6.948
 3257POPC   C4B44614  19.535  38.505   7.397
 3258POPC   NC344615  35.314  30.265   5.445
 3258POPC   PO444616  35.839  29.799   5.571
 3258POPC   GL144617  35.377  29.752   5.788
 3258POPC   GL244618  35.171  30.067   5.896
 3258POPC   C1A44619  35.187  29.682   6.241
 3258POPC   D2A44620  35.243  29.956   6.645
 3258POPC   C3A44621  35.403  29.839   7.083
 3258POPC   C4A44622  35.123  29.635   7.394
 3258POPC   C1B44623  34.919  30.124   6.258
 3258POPC   C2B44624  34.803  30.245   6.695
 3258POPC   C3B44625  34.924  30.012   7.064
 3258POPC   C4B44626  35.062  30.154   7.497
 3259POPC   NC344627  32.468  20.093   5.411
 3259POPC   PO444628  32.067  19.595   5.393
 3259POPC   GL144629  32.109  19.623   5.829
 3259POPC   GL244630  32.458  19.718   5.804
 3259POPC   C1A44631  32.000  19.863   6.221
 3259POPC   D2A44632  32.175  19.771   6.606
 3259POPC   C3A44633  31.987  19.822   6.980
 3259POPC   C4A44634  32.150  19.722   7.362
 3259POPC   C1B44635  32.511  19.828   6.210
 3259POPC   C2B44636  32.615  20.046   6.603
 3259POPC   C3B44637  32.506  19.940   7.034
 3259POPC   C4B44638  32.801  20.141   7.267
 3260POPC   NC344639   0.664  43.867   5.401
 3260POPC   PO444640   0.187  44.245   5.352
 3260POPC   GL144641   0.309  44.010   5.759
 3260POPC   GL244642   0.670  44.093   5.869
 3260POPC   C1A44643   0.322  43.816   6.203
 3260POPC   D2A44644   0.324  43.964   6.649
 3260POPC   C3A44645   0.200  43.791   7.027
 3260POPC   C4A44646   0.215  44.117   7.350
 3260POPC   C1B44647   0.832  43.777   6.161
 3260POPC   C2B44648   0.733  43.665   6.572
 3260POPC   C3B44649   0.736  43.831   6.973
 3260POPC   C4B44650   0.594  43.708   7.353
 3261POPC   NC344651  29.321  35.255   5.415
 3261POPC   PO444652  29.225  34.554   5.528
 3261POPC   GL144653  29.061  34.521   5.908
 3261POPC   GL244654  29.341  34.756   6.016
 3261POPC   C1A44655  28.977  34.609   6.326
 3261POPC   D2A44656  29.086  34.900   6.603
 3261POPC   C3A44657  28.878  34.725   6.928
 3261POPC   C4A44658  28.888  34.694   7.329
 3261POPC   C1B44659  29.430  34.324   6.206
 3261POPC   C2B44660  29.399  34.254   6.649
 3261POPC   C3B44661  29.395  34.630   6.933
 3261POPC   C4B44662  29.409  34.685   7.378
 3262POPC   NC344663  34.840  12.880   5.566
 3262POPC   PO444664  34.275  12.919   5.166
 3262POPC   GL144665  34.332  12.911   5.629
 3262POPC   GL244666  34.449  12.580   5.735
 3262POPC   C1A44667  34.468  13.035   6.079
 3262POPC   D2A44668  34.294  13.124   6.503
 3262POPC   C3A44669  34.465  12.998   6.909
 3262POPC   C4A44670  34.925  13.012   6.997
 3262POPC   C1B44671  34.663  12.510   6.162
 3262POPC   C2B44672  34.631  12.612   6.615
 3262POPC   C3B44673  34.707  12.537   7.067
 3262POPC   C4B44674  34.532  12.465   7.480
 3263POPC   NC344675   1.364  31.237   5.720
 3263POPC   PO444676   1.211  30.669   5.300
 3263POPC   GL144677   1.225  30.739   5.766
 3263POPC   GL244678   1.584  30.732   5.742
 3263POPC   C1A44679   1.153  30.785   6.265
 3263POPC   D2A44680   0.990  30.906   6.714
 3263POPC   C3A44681   1.266  30.986   7.079
 3263POPC   C4A44682   1.466  30.768   7.379
 3263POPC   C1B44683   1.545  30.483   6.102
 3263POPC   C2B44684   1.542  30.538   6.559
 3263POPC   C3B44685   1.321  30.461   6.927
 3263POPC   C4B44686   1.080  30.052   7.053
 3264POPC   NC344687   4.575  39.444   5.482
 3264POPC   PO444688   4.075  38.961   5.404
 3264POPC   GL144689   4.191  39.199   5.766
 3264POPC   GL244690   4.563  39.160   5.900
 3264POPC   C1A44691   4.178  39.342   6.196
 3264POPC   D2A44692   4.465  39.342   6.549
 3264POPC   C3A44693   4.309  39.366   6.977
 3264POPC   C4A44694   4.470  39.442   7.391
 3264POPC   C1B44695   4.732  38.782   6.103
 3264POPC   C2B44696   4.557  38.681   6.489
 3264POPC   C3B44697   4.499  38.871   6.897
 3264POPC   C4B44698   4.635  38.930   7.324
 3265POPC   NC344699   0.846  40.011   5.404
 3265POPC   PO444700   1.531  40.131   5.515
 3265POPC   GL144701   1.175  40.072   5.794
 3265POPC   GL244702   0.888  40.291   5.870
 3265POPC   C1A44703   1.122  39.968   6.216
 3265POPC   D2A44704   1.384  40.055   6.555
 3265POPC   C3A44705   1.286  39.870   6.914
 3265POPC   C4A44706   1.152  39.823   7.292
 3265POPC   C1B44707   0.680  40.283   6.271
 3265POPC   C2B44708   0.849  40.073   6.646
 3265POPC   C3B44709   0.786  40.150   7.080
 3265POPC   C4B44710   0.623  40.540   7.204
 3266POPC   NC344711  15.810  25.028   5.491
 3266POPC   PO444712  16.065  24.453   5.190
 3266POPC   GL144713  15.980  24.439   5.671
 3266POPC   GL244714  15.692  24.607   5.755
 3266POPC   C1A44715  15.928  24.359   6.135
 3266POPC   D2A44716  16.163  24.468   6.507
 3266POPC   C3A44717  16.010  24.463   6.914
 3266POPC   C4A44718  16.197  24.734   7.187
 3266POPC   C1B44719  15.763  24.841   6.151
 3266POPC   C2B44720  15.681  24.673   6.559
 3266POPC   C3B44721  15.695  24.855   6.960
 3266POPC   C4B44722  15.726  24.609   7.326
 3267POPC   NC344723  24.796  20.762   5.344
 3267POPC   PO444724  24.717  20.214   5.424
 3267POPC   GL144725  24.632  20.393   5.855
 3267POPC   GL244726  24.810  20.711   5.868
 3267POPC   C1A44727  24.686  20.385   6.331
 3267POPC   D2A44728  24.414  20.356   6.688
 3267POPC   C3A44729  24.492  20.532   7.096
 3267POPC   C4A44730  24.526  20.240   7.446
 3267POPC   C1B44731  24.474  20.808   6.145
 3267POPC   C2B44732  24.491  20.840   6.584
 3267POPC   C3B44733  24.665  21.019   6.983
 3267POPC   C4B44734  24.546  20.952   7.399
 3268POPC   NC344735  11.231   2.411   5.513
 3268POPC   PO444736  11.125   1.773   5.218
 3268POPC   GL144737  11.264   1.889   5.683
 3268POPC   GL244738  10.969   1.700   5.745
 3268POPC   C1A44739  11.263   2.056   6.175
 3268POPC   D2A44740  10.962   2.085   6.566
 3268POPC   C3A44741  11.163   2.023   6.986
 3268POPC   C4A44742  11.559   2.217   7.125
 3268POPC   C1B44743  11.232   1.558   6.131
 3268POPC   C2B44744  11.376   1.718   6.573
 3268POPC   C3B44745  11.177   1.511   6.952
 3268POPC   C4B44746  11.050   1.477   7.381
 3269POPC   NC344747  28.892  18.362   5.398
 3269POPC   PO444748  28.290  18.088   5.364
 3269POPC   GL144749  28.503  18.220   5.757
 3269POPC   GL244750  28.662  17.960   5.959
 3269POPC   C1A44751  28.347  18.367   6.180
 3269POPC   D2A44752  28.327  18.260   6.655
 3269POPC   C3A44753  28.105  18.487   7.031
 3269POPC   C4A44754  28.165  18.346   7.468
 3269POPC   C1B44755  28.774  18.151   6.360
 3269POPC   C2B44756  28.808  18.075   6.793
 3269POPC   C3B44757  28.542  18.236   7.138
 3269POPC   C4B44758  28.671  18.410   7.532
 3270POPC   NC344759   5.555   5.451   5.582
 3270POPC   PO444760   5.105   4.984   5.384
 3270POPC   GL144761   5.130   5.146   5.793
 3270POPC   GL244762   5.155   4.798   5.867
 3270POPC   C1A44763   5.240   5.224   6.242
 3270POPC   D2A44764   5.461   5.504   6.539
 3270POPC   C3A44765   5.187   5.376   6.887
 3270POPC   C4A44766   5.174   5.200   7.315
 3270POPC   C1B44767   5.241   4.706   6.261
 3270POPC   C2B44768   5.085   4.795   6.643
 3270POPC   C3B44769   5.297   4.786   7.035
 3270POPC   C4B44770   5.052   4.709   7.383
 3271POPC   NC344771  24.432  32.380   5.371
 3271POPC   PO444772  25.055  31.988   5.279
 3271POPC   GL144773  24.700  31.967   5.622
 3271POPC   GL244774  24.361  31.974   5.704
 3271POPC   C1A44775  24.666  31.913   6.121
 3271POPC   D2A44776  24.514  31.973   6.579
 3271POPC   C3A44777  24.612  32.291   6.865
 3271POPC   C4A44778  24.666  32.297   7.298
 3271POPC   C1B44779  24.332  32.291   6.037
 3271POPC   C2B44780  24.252  32.397   6.499
 3271POPC   C3B44781  24.070  32.309   6.938
 3271POPC   C4B44782  23.896  32.585   7.280
 3272POPC   NC344783  43.015  39.975   5.397
 3272POPC   PO444784  43.495  40.462   5.572
 3272POPC   GL144785  43.105  40.206   5.829
 3272POPC   GL244786  43.088  39.791   5.839
 3272POPC   C1A44787  43.131  40.081   6.262
 3272POPC   D2A44788  43.164  40.222   6.669
 3272POPC   C3A44789  43.191  40.017   7.056
 3272POPC   C4A44790  43.100  40.200   7.436
 3272POPC   C1B44791  42.836  39.662   6.192
 3272POPC   C2B44792  42.919  39.752   6.620
 3272POPC   C3B44793  42.923  39.594   7.018
 3272POPC   C4B44794  43.055  39.610   7.452
 3273POPC   NC344795  10.067  20.683   5.370
 3273POPC   PO444796   9.608  20.201   5.430
 3273POPC   GL144797   9.595  20.472   5.788
 3273POPC   GL244798   9.799  20.762   5.784
 3273POPC   C1A44799   9.806  20.470   6.208
 3273POPC   D2A44800   9.900  20.427   6.645
 3273POPC   C3A44801   9.523  20.468   6.878
 3273POPC   C4A44802   9.772  20.427   7.197
 3273POPC   C1B44803   9.731  20.992   6.148
 3273POPC   C2B44804   9.680  20.868   6.536
 3273POPC   C3B44805   9.818  20.900   6.912
 3273POPC   C4B44806   9.610  20.913   7.260
 3274POPC   NC344807  31.538   8.659   5.412
 3274POPC   PO444808  31.087   8.109   5.396
 3274POPC   GL144809  31.311   8.363   5.752
 3274POPC   GL244810  31.539   8.118   5.905
 3274POPC   C1A44811  31.483   8.543   6.173
 3274POPC   D2A44812  31.555   8.271   6.504
 3274POPC   C3A44813  31.534   8.373   6.923
 3274POPC   C4A44814  31.837   8.228   7.163
 3274POPC   C1B44815  31.432   7.851   6.236
 3274POPC   C2B44816  31.227   7.904   6.588
 3274POPC   C3B44817  31.437   7.864   6.932
 3274POPC   C4B44818  31.259   7.799   7.274
 3275POPC   NC344819   8.665  13.655   5.481
 3275POPC   PO444820   9.420  13.849   5.402
 3275POPC   GL144821   9.157  13.613   5.701
 3275POPC   GL244822   9.005  13.902   5.792
 3275POPC   C1A44823   8.967  13.508   6.108
 3275POPC   D2A44824   8.713  13.519   6.490
 3275POPC   C3A44825   8.930  13.286   6.826
 3275POPC   C4A44826   8.899  13.332   7.260
 3275POPC   C1B44827   8.696  13.941   6.134
 3275POPC   C2B44828   8.756  14.046   6.568
 3275POPC   C3B44829   8.790  13.783   6.944
 3275POPC   C4B44830   8.913  13.820   7.389
 3276POPC   NC344831  23.336  23.429   5.350
 3276POPC   PO444832  22.791  23.756   5.531
 3276POPC   GL144833  22.980  23.729   5.890
 3276POPC   GL244834  23.310  23.770   5.930
 3276POPC   C1A44835  22.952  23.593   6.294
 3276POPC   D2A44836  23.172  23.722   6.624
 3276POPC   C3A44837  22.902  23.696   6.927
 3276POPC   C4A44838  22.726  23.859   7.262
 3276POPC   C1B44839  23.485  23.460   6.286
 3276POPC   C2B44840  23.188  23.191   6.498
 3276POPC   C3B44841  23.178  23.261   6.934
 3276POPC   C4B44842  23.229  23.542   7.268
 3277POPC   NC344843   5.666  21.810   5.400
 3277POPC   PO444844   6.036  22.392   5.441
 3277POPC   GL144845   5.955  22.079   5.776
 3277POPC   GL244846   5.582  22.030   5.844
 3277POPC   C1A44847   5.910  22.142   6.227
 3277POPC   D2A44848   5.876  22.390   6.599
 3277POPC   C3A44849   6.189  22.325   6.932
 3277POPC   C4A44850   6.130  22.128   7.330
 3277POPC   C1B44851   5.512  21.798   6.204
 3277POPC   C2B44852   5.717  21.856   6.615
 3277POPC   C3B44853   5.759  22.062   6.982
 3277POPC   C4B44854   5.550  22.007   7.345
 3278POPC   NC344855  44.070  33.531   4.999
 3278POPC   PO444856  44.099  34.057   5.361
 3278POPC   GL144857  43.972  33.769   5.698
 3278POPC   GL244858  44.201  33.530   5.812
 3278POPC   C1A44859  43.828  33.779   6.131
 3278POPC   D2A44860  43.841  33.995   6.526
 3278POPC   C3A44861  43.824  33.800   6.936
 3278POPC   C4A44862  43.982  33.978   7.318
 3278POPC   C1B44863  44.323  33.610   6.249
 3278POPC   C2B44864  44.202  33.470   6.671
 3278POPC   C3B44865  44.168  33.443   7.121
 3278POPC   C4B44866  44.317  33.619   7.463
 3279POPC   NC344867   9.006   2.348   5.284
 3279POPC   PO444868   9.393   1.752   5.464
 3279POPC   GL144869   9.160   2.082   5.723
 3279POPC   GL244870   8.813   2.243   5.760
 3279POPC   C1A44871   9.192   2.149   6.183
 3279POPC   D2A44872   9.182   1.885   6.579
 3279POPC   C3A44873   9.209   1.896   7.050
 3279POPC   C4A44874   9.039   1.641   7.409
 3279POPC   C1B44875   8.801   2.472   6.120
 3279POPC   C2B44876   8.804   2.265   6.527
 3279POPC   C3B44877   8.936   2.314   6.935
 3279POPC   C4B44878   9.009   2.227   7.395
 3280POPC   NC344879   8.350   9.662   5.576
 3280POPC   PO444880   7.766   9.424   5.427
 3280POPC   GL144881   7.917   9.568   5.828
 3280POPC   GL244882   7.983   9.895   5.918
 3280POPC   C1A44883   8.075   9.539   6.284
 3280POPC   D2A44884   8.216   9.745   6.684
 3280POPC   C3A44885   8.027   9.795   7.090
 3280POPC   C4A44886   8.278   9.815   7.487
 3280POPC   C1B44887   8.280  10.025   6.256
 3280POPC   C2B44888   8.469  10.187   6.661
 3280POPC   C3B44889   8.319  10.208   7.094
 3280POPC   C4B44890   7.983  10.226   7.452
 3281POPC   NC344891  26.978  28.516   5.541
 3281POPC   PO444892  26.521  28.107   5.698
 3281POPC   GL144893  26.818  28.221   5.957
 3281POPC   GL244894  26.716  28.557   5.968
 3281POPC   C1A44895  26.955  28.312   6.361
 3281POPC   D2A44896  26.712  28.348   6.725
 3281POPC   C3A44897  26.818  28.167   7.112
 3281POPC   C4A44898  26.552  27.965   7.414
 3281POPC   C1B44899  26.534  28.683   6.328
 3281POPC   C2B44900  26.488  28.845   6.730
 3281POPC   C3B44901  26.559  28.649   7.105
 3281POPC   C4B44902  27.016  28.657   7.165
 3282POPC   NC344903  39.353  27.264   4.881
 3282POPC   PO444904  39.291  26.753   5.341
 3282POPC   GL144905  39.300  26.856   5.768
 3282POPC   GL244906  38.959  26.776   5.873
 3282POPC   C1A44907  39.384  26.936   6.213
 3282POPC   D2A44908  39.025  27.033   6.511
 3282POPC   C3A44909  39.050  26.842   6.945
 3282POPC   C4A44910  39.435  26.852   7.252
 3282POPC   C1B44911  39.083  26.524   6.229
 3282POPC   C2B44912  39.165  26.369   6.640
 3282POPC   C3B44913  39.295  26.388   7.066
 3282POPC   C4B44914  39.001  26.418   7.379
 3283POPC   NC344915  24.815  33.013   5.452
 3283POPC   PO444916  24.197  32.781   5.420
 3283POPC   GL144917  24.507  32.736   5.776
 3283POPC   GL244918  24.539  33.080   5.945
 3283POPC   C1A44919  24.620  32.664   6.239
 3283POPC   D2A44920  24.548  32.824   6.678
 3283POPC   C3A44921  24.381  32.696   7.099
 3283POPC   C4A44922  24.321  32.990   7.434
 3283POPC   C1B44923  24.354  33.216   6.377
 3283POPC   C2B44924  24.253  33.431   6.805
 3283POPC   C3B44925  24.222  33.464   7.293
 3283POPC   C4B44926  24.128  33.377   7.752
 3284POPC   NC344927  31.379   4.412   5.364
 3284POPC   PO444928  31.780   3.911   5.497
 3284POPC   GL144929  31.425   4.121   5.782
 3284POPC   GL244930  31.436   4.519   5.845
 3284POPC   C1A44931  31.210   4.149   6.189
 3284POPC   D2A44932  31.460   3.990   6.521
 3284POPC   C3A44933  31.408   3.977   6.966
 3284POPC   C4A44934  31.660   4.128   7.294
 3284POPC   C1B44935  31.628   4.451   6.216
 3284POPC   C2B44936  31.457   4.522   6.598
 3284POPC   C3B44937  31.669   4.505   6.961
 3284POPC   C4B44938  31.540   4.646   7.367
 3285POPC   NC344939  11.231  30.445   5.427
 3285POPC   PO444940  11.157  31.061   5.310
 3285POPC   GL144941  11.194  30.851   5.753
 3285POPC   GL244942  11.508  30.676   5.804
 3285POPC   C1A44943  11.130  30.542   6.144
 3285POPC   D2A44944  11.115  30.331   6.588
 3285POPC   C3A44945  10.993  30.628   6.947
 3285POPC   C4A44946  11.035  30.965   7.266
 3285POPC   C1B44947  11.490  30.915   6.212
 3285POPC   C2B44948  11.396  30.756   6.622
 3285POPC   C3B44949  11.494  30.505   6.997
 3285POPC   C4B44950  11.505  30.737   7.362
 3286POPC   NC344951   5.030  28.772   5.438
 3286POPC   PO444952   5.329  29.370   5.264
 3286POPC   GL144953   5.156  29.313   5.702
 3286POPC   GL244954   4.922  29.566   5.832
 3286POPC   C1A44955   5.048  29.053   6.048
 3286POPC   D2A44956   4.978  28.944   6.456
 3286POPC   C3A44957   5.180  28.966   6.832
 3286POPC   C4A44958   5.024  28.935   7.224
 3286POPC   C1B44959   4.828  29.469   6.252
 3286POPC   C2B44960   4.856  29.382   6.672
 3286POPC   C3B44961   5.029  29.491   7.013
 3286POPC   C4B44962   4.903  29.399   7.379
 3287POPC   NC344963  30.595  31.644   5.312
 3287POPC   PO444964  31.063  31.142   5.176
 3287POPC   GL144965  30.781  31.245   5.619
 3287POPC   GL244966  30.788  31.610   5.788
 3287POPC   C1A44967  30.553  31.270   6.062
 3287POPC   D2A44968  30.689  31.445   6.490
 3287POPC   C3A44969  30.599  31.237   6.899
 3287POPC   C4A44970  30.735  31.167   7.346
 3287POPC   C1B44971  30.551  31.801   6.113
 3287POPC   C2B44972  30.565  31.937   6.550
 3287POPC   C3B44973  30.670  31.748   6.951
 3287POPC   C4B44974  30.458  31.831   7.327
 3288POPC   NC344975  34.666  36.629   5.608
 3288POPC   PO444976  34.222  37.189   5.449
 3288POPC   GL144977  34.474  37.138   5.860
 3288POPC   GL244978  34.851  37.222   5.870
 3288POPC   C1A44979  34.401  36.948   6.300
 3288POPC   D2A44980  34.596  36.565   6.530
 3288POPC   C3A44981  34.805  36.607   6.938
 3288POPC   C4A44982  34.599  36.876   7.239
 3288POPC   C1B44983  34.891  37.042   6.291
 3288POPC   C2B44984  34.742  37.086   6.736
 3288POPC   C3B44985  34.826  37.323   7.140
 3288POPC   C4B44986  34.744  37.208   7.607
 3289POPC   NC344987  27.325   0.621   5.405
 3289POPC   PO444988  27.545   0.016   5.285
 3289POPC   GL144989  27.635   0.282   5.694
 3289POPC   GL244990  27.368   0.197   5.908
 3289POPC   C1A44991  27.753   0.450   6.145
 3289POPC   D2A44992  27.606   0.588   6.554
 3289POPC   C3A44993  27.538   0.208   6.831
 3289POPC   C4A44994  27.676   0.225   7.278
 3289POPC   C1B44995  27.229   0.303   6.327
 3289POPC   C2B44996  27.109   0.513   6.718
 3289POPC   C3B44997  27.232   0.457   7.151
 3289POPC   C4B44998  27.505   0.685   7.420
 3290POPC   NC344999  11.653  21.971   5.370
 3290POPC   PO445000  11.145  22.406   5.283
 3290POPC   GL145001  11.276  22.321   5.751
 3290POPC   GL245002  11.640  22.467   5.784
 3290POPC   C1A45003  11.205  22.105   6.181
 3290POPC   D2A45004  11.268  21.848   6.549
 3290POPC   C3A45005  11.234  22.041   6.955
 3290POPC   C4A45006  11.261  21.875   7.379
 3290POPC   C1B45007  11.472  22.522   6.204
 3290POPC   C2B45008  11.243  22.446   6.589
 3290POPC   C3B45009  11.444  22.529   6.985
 3290POPC   C4B45010  11.599  22.235   7.274
 3291POPC   NC345011  31.081  33.491   5.269
 3291POPC   PO445012  31.683  33.792   5.383
 3291POPC   GL145013  31.632  33.952   5.803
 3291POPC   GL245014  31.437  33.645   5.812
 3291POPC   C1A45015  31.649  34.005   6.263
 3291POPC   D2A45016  31.411  33.984   6.651
 3291POPC   C3A45017  31.628  33.947   7.048
 3291POPC   C4A45018  31.558  33.983   7.502
 3291POPC   C1B45019  31.257  33.672   6.198
 3291POPC   C2B45020  31.219  33.507   6.577
 3291POPC   C3B45021  31.391  33.514   6.960
 3291POPC   C4B45022  31.510  33.492   7.381
 3292POPC   NC345023  44.121  22.036   5.465
 3292POPC   PO445024  43.506  22.313   5.620
 3292POPC   GL145025  43.802  22.100   5.859
 3292POPC   GL245026  44.032  22.396   5.840
 3292POPC   C1A45027  43.773  21.842   6.224
 3292POPC   D2A45028  43.807  22.071   6.606
 3292POPC   C3A45029  43.760  21.919   7.006
 3292POPC   C4A45030  43.966  22.114   7.379
 3292POPC   C1B45031  43.804  22.433   6.239
 3292POPC   C2B45032  43.544  22.506   6.615
 3292POPC   C3B45033  43.715  22.459   7.037
 3292POPC   C4B45034  44.083  22.583   7.236
 3293POPC   NC345035  28.173  13.769   5.419
 3293POPC   PO445036  28.260  13.173   5.629
 3293POPC   GL145037  28.294  13.525   5.891
 3293POPC   GL245038  28.607  13.599   5.761
 3293POPC   C1A45039  28.508  13.821   6.225
 3293POPC   D2A45040  28.580  13.817   6.696
 3293POPC   C3A45041  28.211  13.830   7.007
 3293POPC   C4A45042  28.128  13.893   7.464
 3293POPC   C1B45043  28.703  13.348   6.167
 3293POPC   C2B45044  28.648  13.179   6.601
 3293POPC   C3B45045  28.635  13.404   7.008
 3293POPC   C4B45046  28.364  13.465   7.363
 3294POPC   NC345047  30.148  18.736   5.425
 3294POPC   PO445048  29.846  19.288   5.075
 3294POPC   GL145049  29.926  19.189   5.563
 3294POPC   GL245050  30.263  19.345   5.707
 3294POPC   C1A45051  29.989  18.999   6.014
 3294POPC   D2A45052  30.165  18.848   6.428
 3294POPC   C3A45053  29.974  18.990   6.816
 3294POPC   C4A45054  29.982  18.886   7.242
 3294POPC   C1B45055  30.284  19.399   6.173
 3294POPC   C2B45056  30.392  19.279   6.620
 3294POPC   C3B45057  30.199  19.407   7.015
 3294POPC   C4B45058  29.915  19.378   7.324
 3295POPC   NC345059  20.968  15.433   5.511
 3295POPC   PO445060  20.275  15.236   5.386
 3295POPC   GL145061  20.540  15.175   5.743
 3295POPC   GL245062  20.585  15.500   5.834
 3295POPC   C1A45063  20.674  15.012   6.154
 3295POPC   D2A45064  20.584  14.774   6.552
 3295POPC   C3A45065  20.784  14.935   6.909
 3295POPC   C4A45066  20.709  15.047   7.325
 3295POPC   C1B45067  20.537  15.524   6.238
 3295POPC   C2B45068  20.648  15.309   6.586
 3295POPC   C3B45069  20.661  15.444   6.987
 3295POPC   C4B45070  20.842  15.530   7.380
 3296POPC   NC345071  17.977   0.123   5.531
 3296POPC   PO445072  18.402  44.577   5.397
 3296POPC   GL145073  18.355  44.843   5.761
 3296POPC   GL245074  18.040  44.664   5.797
 3296POPC   C1A45075  18.268  44.937   6.205
 3296POPC   D2A45076  18.514  44.899   6.592
 3296POPC   C3A45077  18.323  44.941   6.969
 3296POPC   C4A45078  18.400  44.718   7.331
 3296POPC   C1B45079  18.109  44.435   6.165
 3296POPC   C2B45080  18.075  44.590   6.578
 3296POPC   C3B45081  18.040  44.513   6.999
 3296POPC   C4B45082  17.887  44.564   7.405
 3297POPC   NC345083  43.397   6.157   5.422
 3297POPC   PO445084  42.986   5.669   5.453
 3297POPC   GL145085  43.008   5.937   5.814
 3297POPC   GL245086  42.640   5.991   5.891
 3297POPC   C1A45087  42.992   5.990   6.272
 3297POPC   D2A45088  42.958   5.949   6.717
 3297POPC   C3A45089  43.348   6.093   6.899
 3297POPC   C4A45090  43.548   5.981   7.290
 3297POPC   C1B45091  42.752   5.561   6.095
 3297POPC   C2B45092  42.828   5.416   6.522
 3297POPC   C3B45093  42.983   5.460   6.926
 3297POPC   C4B45094  43.078   5.805   7.221
 3298POPC   NC345095  12.705  37.715   5.055
 3298POPC   PO445096  13.095  37.649   5.561
 3298POPC   GL145097  12.748  37.678   5.781
 3298POPC   GL245098  12.565  37.919   5.589
 3298POPC   C1A45099  12.832  37.655   6.222
 3298POPC   D2A45100  12.650  37.545   6.601
 3298POPC   C3A45101  12.897  37.500   6.942
 3298POPC   C4A45102  12.595  37.450   7.224
 3298POPC   C1B45103  12.495  38.004   6.081
 3298POPC   C2B45104  12.699  38.053   6.518
 3298POPC   C3B45105  12.596  37.954   6.957
 3298POPC   C4B45106  12.528  38.197   7.338
 3299POPC   NC345107  40.246   7.615   5.442
 3299POPC   PO445108  39.792   7.183   5.563
 3299POPC   GL145109  39.886   7.522   5.821
 3299POPC   GL245110  40.194   7.439   5.916
 3299POPC   C1A45111  39.816   7.479   6.259
 3299POPC   D2A45112  39.927   7.283   6.650
 3299POPC   C3A45113  39.871   7.589   6.902
 3299POPC   C4A45114  39.653   7.566   7.261
 3299POPC   C1B45115  40.259   7.180   6.284
 3299POPC   C2B45116  40.442   7.150   6.706
 3299POPC   C3B45117  40.284   7.161   7.148
 3299POPC   C4B45118  40.336   7.413   7.542
 3300POPC   NC345119   8.446  41.229   5.262
 3300POPC   PO445120   8.148  41.830   5.541
 3300POPC   GL145121   8.116  41.455   5.775
 3300POPC   GL245122   7.801  41.285   5.731
 3300POPC   C1A45123   8.228  41.562   6.211
 3300POPC   D2A45124   8.074  41.663   6.629
 3300POPC   C3A45125   8.291  41.496   7.007
 3300POPC   C4A45126   8.389  41.685   7.390
 3300POPC   C1B45127   7.725  41.514   6.157
 3300POPC   C2B45128   7.576  41.433   6.587
 3300POPC   C3B45129   7.806  41.347   6.968
 3300POPC   C4B45130   7.908  41.499   7.372
 3301POPC   NC345131  24.270  26.236   5.661
 3301POPC   PO445132  24.708  26.589   5.256
 3301POPC   GL145133  24.664  26.638   5.790
 3301POPC   GL245134  24.349  26.881   5.916
 3301POPC   C1A45135  24.713  26.872   6.252
 3301POPC   D2A45136  24.499  27.013   6.674
 3301POPC   C3A45137  24.706  26.886   7.080
 3301POPC   C4A45138  24.803  26.609   7.440
 3301POPC   C1B45139  24.317  26.540   6.231
 3301POPC   C2B45140  24.495  26.449   6.629
 3301POPC   C3B45141  24.297  26.598   6.977
 3301POPC   C4B45142  24.208  26.923   7.212
 3302POPC   NC345143   6.777  15.532   5.483
 3302POPC   PO445144   6.200  15.875   5.419
 3302POPC   GL145145   6.435  15.695   5.811
 3302POPC   GL245146   6.627  15.997   5.863
 3302POPC   C1A45147   6.850  15.630   6.121
 3302POPC   D2A45148   7.032  15.802   6.517
 3302POPC   C3A45149   6.664  16.032   6.650
 3302POPC   C4A45150   6.431  15.802   6.978
 3302POPC   C1B45151   6.988  16.136   6.127
 3302POPC   C2B45152   7.148  16.343   6.484
 3302POPC   C3B45153   7.064  16.317   6.894
 3302POPC   C4B45154   6.895  15.979   7.086
 3303POPC   NC345155  16.357  43.884   5.502
 3303POPC   PO445156  16.924  44.223   5.278
 3303POPC   GL145157  16.742  44.204   5.748
 3303POPC   GL245158  16.458  44.032   5.977
 3303POPC   C1A45159  16.824  44.312   6.173
 3303POPC   D2A45160  16.571  44.300   6.524
 3303POPC   C3A45161  16.671  44.008   6.820
 3303POPC   C4A45162  16.729  44.206   7.191
 3303POPC   C1B45163  16.720  43.828   6.315
 3303POPC   C2B45164  17.064  43.631   6.539
 3303POPC   C3B45165  17.036  43.454   6.934
 3303POPC   C4B45166  16.765  43.691   7.239
 3304POPC   NC345167  35.241  10.568   4.942
 3304POPC   PO445168  35.437  10.862   5.492
 3304POPC   GL145169  35.284  10.572   5.809
 3304POPC   GL245170  35.572  10.327   5.857
 3304POPC   C1A45171  35.266  10.392   6.242
 3304POPC   D2A45172  35.449  10.560   6.617
 3304POPC   C3A45173  35.256  10.435   6.979
 3304POPC   C4A45174  34.932  10.619   7.245
 3304POPC   C1B45175  35.707  10.093   6.236
 3304POPC   C2B45176  35.848  10.242   6.640
 3304POPC   C3B45177  35.922  10.654   6.797
 3304POPC   C4B45178  35.686  10.664   7.149
 3305POPC   NC345179  14.167  27.213   5.559
 3305POPC   PO445180  14.081  27.861   5.526
 3305POPC   GL145181  14.367  27.670   5.820
 3305POPC   GL245182  14.146  27.536   5.973
 3305POPC   C1A45183  14.590  27.613   6.216
 3305POPC   D2A45184  14.435  27.489   6.581
 3305POPC   C3A45185  14.592  27.509   6.988
 3305POPC   C4A45186  14.221  27.374   7.199
 3305POPC   C1B45187  14.133  27.846   6.268
 3305POPC   C2B45188  14.003  27.756   6.669
 3305POPC   C3B45189  14.175  27.858   7.029
 3305POPC   C4B45190  14.555  27.961   7.223
 3306POPC   NC345191  16.221   6.869   5.168
 3306POPC   PO445192  16.123   6.220   5.330
 3306POPC   GL145193  16.240   6.550   5.702
 3306POPC   GL245194  16.056   6.890   5.693
 3306POPC   C1A45195  16.098   6.563   6.188
 3306POPC   D2A45196  15.697   6.742   6.482
 3306POPC   C3A45197  15.666   6.742   6.972
 3306POPC   C4A45198  15.544   6.516   7.375
 3306POPC   C1B45199  15.946   7.037   6.141
 3306POPC   C2B45200  16.154   6.925   6.567
 3306POPC   C3B45201  16.124   6.983   7.001
 3306POPC   C4B45202  16.008   6.714   7.371
 3307POPC   NC345203  36.033  31.887   5.248
 3307POPC   PO445204  36.336  32.439   5.454
 3307POPC   GL145205  36.146  32.276   5.772
 3307POPC   GL245206  36.436  32.265   5.954
 3307POPC   C1A45207  35.943  32.199   6.181
 3307POPC   D2A45208  35.701  32.382   6.522
 3307POPC   C3A45209  35.676  32.141   6.904
 3307POPC   C4A45210  35.675  32.140   7.337
 3307POPC   C1B45211  36.421  32.216   6.385
 3307POPC   C2B45212  36.152  32.105   6.705
 3307POPC   C3B45213  36.131  32.301   7.114
 3307POPC   C4B45214  36.359  32.469   7.493
 3308POPC   NC345215  20.363  35.671   4.978
 3308POPC   PO445216  20.378  35.152   5.341
 3308POPC   GL145217  20.363  35.130   5.827
 3308POPC   GL245218  20.142  34.896   5.984
 3308POPC   C1A45219  20.405  35.293   6.297
 3308POPC   D2A45220  20.345  35.460   6.759
 3308POPC   C3A45221  20.645  35.317   7.094
 3308POPC   C4A45222  20.850  34.940   7.254
 3308POPC   C1B45223  20.440  34.789   6.334
 3308POPC   C2B45224  20.539  34.941   6.745
 3308POPC   C3B45225  20.335  34.872   7.152
 3308POPC   C4B45226  20.483  34.651   7.527
 3309POPC   NC345227  39.835  16.713   5.169
 3309POPC   PO445228  39.233  16.484   5.461
 3309POPC   GL145229  39.086  16.728   5.800
 3309POPC   GL245230  39.354  16.976   5.879
 3309POPC   C1A45231  38.961  16.914   6.197
 3309POPC   D2A45232  39.155  17.130   6.556
 3309POPC   C3A45233  38.954  16.955   6.926
 3309POPC   C4A45234  38.964  16.622   7.218
 3309POPC   C1B45235  39.374  16.620   6.208
 3309POPC   C2B45236  39.469  16.408   6.558
 3309POPC   C3B45237  39.387  16.640   6.904
 3309POPC   C4B45238  39.497  16.538   7.286
 3310POPC   NC345239   9.791  18.196   5.406
 3310POPC   PO445240  10.016  18.785   5.260
 3310POPC   GL145241   9.763  18.638   5.680
 3310POPC   GL245242   9.560  18.309   5.822
 3310POPC   C1A45243   9.634  18.690   6.149
 3310POPC   D2A45244   9.793  18.506   6.543
 3310POPC   C3A45245   9.630  18.516   6.956
 3310POPC   C4A45246   9.872  18.364   7.310
 3310POPC   C1B45247   9.412  18.007   6.125
 3310POPC   C2B45248   9.453  18.096   6.559
 3310POPC   C3B45249   9.576  18.004   6.971
 3310POPC   C4B45250   9.434  18.078   7.404
 3311POPC   NC345251  40.998  25.503   5.413
 3311POPC   PO445252  40.538  25.050   5.490
 3311POPC   GL145253  40.758  25.189   5.791
 3311POPC   GL245254  40.642  25.484   5.922
 3311POPC   C1A45255  40.801  25.061   6.205
 3311POPC   D2A45256  40.906  25.234   6.604
 3311POPC   C3A45257  40.627  25.350   6.947
 3311POPC   C4A45258  40.698  24.999   7.225
 3311POPC   C1B45259  41.010  25.543   6.193
 3311POPC   C2B45260  41.312  25.534   6.583
 3311POPC   C3B45261  41.145  25.468   7.001
 3311POPC   C4B45262  40.945  25.417   7.400
 3312POPC   NC345263  42.436  40.952   5.580
 3312POPC   PO445264  42.686  40.309   5.484
 3312POPC   GL145265  42.620  40.556   5.880
 3312POPC   GL245266  42.748  40.906   5.972
 3312POPC   C1A45267  42.290  40.515   6.226
 3312POPC   D2A45268  42.165  40.323   6.612
 3312POPC   C3A45269  42.393  40.490   6.956
 3312POPC   C4A45270  42.125  40.580   7.288
 3312POPC   C1B45271  42.545  40.935   6.374
 3312POPC   C2B45272  42.169  40.874   6.648
 3312POPC   C3B45273  42.280  41.001   7.047
 3312POPC   C4B45274  42.701  40.938   7.145
 3313POPC   NC345275   4.084  31.814   5.433
 3313POPC   PO445276   4.264  32.422   5.457
 3313POPC   GL145277   4.383  32.069   5.767
 3313POPC   GL245278   4.077  31.993   5.915
 3313POPC   C1A45279   4.498  31.921   6.211
 3313POPC   D2A45280   4.422  32.160   6.569
 3313POPC   C3A45281   4.394  32.067   6.939
 3313POPC   C4A45282   4.315  32.358   7.211
 3313POPC   C1B45283   4.217  32.367   6.171
 3313POPC   C2B45284   4.028  32.539   6.581
 3313POPC   C3B45285   3.892  32.629   7.026
 3313POPC   C4B45286   3.994  32.773   7.457
 3314POPC   NC345287  41.878   2.229   5.444
 3314POPC   PO445288  41.397   1.765   5.146
 3314POPC   GL145289  41.521   1.896   5.613
 3314POPC   GL245290  41.464   2.240   5.775
 3314POPC   C1A45291  41.788   1.928   6.029
 3314POPC   D2A45292  41.940   2.116   6.419
 3314POPC   C3A45293  41.684   1.936   6.744
 3314POPC   C4A45294  41.678   2.071   7.153
 3314POPC   C1B45295  41.428   2.208   6.280
 3314POPC   C2B45296  41.406   2.363   6.745
 3314POPC   C3B45297  41.181   2.116   7.088
 3314POPC   C4B45298  40.961   2.185   7.504
 3315POPC   NC345299  44.917  21.637   5.780
 3315POPC   PO445300   0.363  21.285   5.394
 3315POPC   GL145301   0.269  21.266   5.808
 3315POPC   GL245302   0.571  21.187   5.881
 3315POPC   C1A45303   0.272  21.390   6.257
 3315POPC   D2A45304   0.032  21.519   6.598
 3315POPC   C3A45305   0.258  21.663   6.939
 3315POPC   C4A45306   0.560  21.522   7.252
 3315POPC   C1B45307   0.525  20.959   6.227
 3315POPC   C2B45308   0.612  21.166   6.592
 3315POPC   C3B45309   0.717  21.130   6.982
 3315POPC   C4B45310   0.408  21.024   7.262
 3316POPC   NC345311   7.951  38.269   5.321
 3316POPC   PO445312   8.632  38.484   5.482
 3316POPC   GL145313   8.383  38.457   5.811
 3316POPC   GL245314   8.032  38.329   5.819
 3316POPC   C1A45315   8.352  38.538   6.232
 3316POPC   D2A45316   8.407  38.740   6.608
 3316POPC   C3A45317   8.211  38.480   6.876
 3316POPC   C4A45318   8.328  38.463   7.251
 3316POPC   C1B45319   7.850  38.354   6.235
 3316POPC   C2B45320   7.737  38.351   6.685
 3316POPC   C3B45321   7.820  38.193   7.101
 3316POPC   C4B45322   7.751  38.154   7.566
 3317POPC   NC345323  25.157  26.602   5.413
 3317POPC   PO445324  24.893  27.175   5.610
 3317POPC   GL145325  25.127  26.896   5.890
 3317POPC   GL245326  25.286  26.573   5.896
 3317POPC   C1A45327  25.221  26.835   6.332
 3317POPC   D2A45328  25.043  27.049   6.705
 3317POPC   C3A45329  25.226  26.834   7.057
 3317POPC   C4A45330  25.221  26.899   7.478
 3317POPC   C1B45331  25.403  26.287   6.203
 3317POPC   C2B45332  25.300  26.115   6.603
 3317POPC   C3B45333  25.475  26.140   7.013
 3317POPC   C4B45334  25.643  26.495   7.159
 3318POPC   NC345335  35.366  39.685   5.439
 3318POPC   PO445336  34.844  40.230   5.377
 3318POPC   GL145337  35.013  40.063   5.805
 3318POPC   GL245338  35.185  39.728   5.912
 3318POPC   C1A45339  35.210  40.115   6.235
 3318POPC   D2A45340  35.349  39.801   6.532
 3318POPC   C3A45341  35.125  39.889   6.905
 3318POPC   C4A45342  35.037  39.666   7.266
 3318POPC   C1B45343  35.648  39.795   6.100
 3318POPC   C2B45344  35.837  40.003   6.495
 3318POPC   C3B45345  35.671  39.937   6.924
 3318POPC   C4B45346  35.657  39.672   7.278
 3319POPC   NC345347  12.414  13.690   5.453
 3319POPC   PO445348  11.768  13.419   5.418
 3319POPC   GL145349  11.959  13.694   5.720
 3319POPC   GL245350  12.071  13.380   5.865
 3319POPC   C1A45351  11.996  13.839   6.160
 3319POPC   D2A45352  11.707  13.862   6.509
 3319POPC   C3A45353  11.791  13.809   6.931
 3319POPC   C4A45354  12.075  13.936   7.225
 3319POPC   C1B45355  12.192  13.364   6.304
 3319POPC   C2B45356  12.203  13.315   6.749
 3319POPC   C3B45357  12.026  13.403   7.142
 3319POPC   C4B45358  12.089  13.167   7.515
 3320POPC   NC345359  39.680  29.312   5.432
 3320POPC   PO445360  40.236  28.897   5.467
 3320POPC   GL145361  40.031  29.123   5.778
 3320POPC   GL245362  39.709  28.938   5.861
 3320POPC   C1A45363  40.183  29.303   6.171
 3320POPC   D2A45364  40.238  29.440   6.600
 3320POPC   C3A45365  40.068  29.179   6.942
 3320POPC   C4A45366  40.054  29.442   7.266
 3320POPC   C1B45367  39.662  29.281   6.105
 3320POPC   C2B45368  39.742  29.325   6.517
 3320POPC   C3B45369  39.776  29.580   6.853
 3320POPC   C4B45370  39.512  29.493   7.231
 3321POPC   NC345371  30.133  22.012   5.587
 3321POPC   PO445372  29.484  22.303   5.594
 3321POPC   GL145373  29.742  22.190   5.875
 3321POPC   GL245374  29.708  21.806   5.774
 3321POPC   C1A45375  29.948  22.321   6.274
 3321POPC   D2A45376  30.030  22.029   6.635
 3321POPC   C3A45377  29.833  22.186   6.961
 3321POPC   C4A45378  30.205  22.248   7.161
 3321POPC   C1B45379  29.848  21.827   6.195
 3321POPC   C2B45380  29.579  21.869   6.546
 3321POPC   C3B45381  29.712  21.660   6.941
 3321POPC   C4B45382  29.959  21.813   7.278
 3322POPC   NC345383  18.653  26.645   5.474
 3322POPC   PO445384  19.215  26.880   5.458
 3322POPC   GL145385  19.063  26.765   5.822
 3322POPC   GL245386  18.743  26.964   5.882
 3322POPC   C1A45387  19.128  26.830   6.236
 3322POPC   D2A45388  18.969  26.739   6.623
 3322POPC   C3A45389  19.290  26.700   6.914
 3322POPC   C4A45390  19.237  26.905   7.291
 3322POPC   C1B45391  18.698  26.570   6.142
 3322POPC   C2B45392  18.777  26.274   6.485
 3322POPC   C3B45393  18.666  26.434   6.895
 3322POPC   C4B45394  18.947  26.485   7.218
 3323POPC   NC345395  40.479   3.194   5.292
 3323POPC   PO445396  40.691   3.760   5.496
 3323POPC   GL145397  40.847   3.646   5.935
 3323POPC   GL245398  40.924   3.286   5.935
 3323POPC   C1A45399  40.875   3.667   6.404
 3323POPC   D2A45400  41.016   3.767   6.804
 3323POPC   C3A45401  40.746   3.645   7.173
 3323POPC   C4A45402  40.850   3.675   7.636
 3323POPC   C1B45403  41.009   3.174   6.389
 3323POPC   C2B45404  40.940   3.255   6.854
 3323POPC   C3B45405  40.947   3.213   7.347
 3323POPC   C4B45406  41.063   3.111   7.809
 3324POPC   NC345407  30.161  40.996   5.048
 3324POPC   PO445408  30.089  40.533   5.547
 3324POPC   GL145409  29.807  40.766   5.815
 3324POPC   GL245410  29.642  40.466   5.908
 3324POPC   C1A45411  29.840  40.986   6.252
 3324POPC   D2A45412  30.157  41.139   6.594
 3324POPC   C3A45413  30.143  40.989   7.046
 3324POPC   C4A45414  29.790  40.976   7.339
 3324POPC   C1B45415  29.687  40.509   6.365
 3324POPC   C2B45416  29.811  40.716   6.760
 3324POPC   C3B45417  29.957  40.507   7.156
 3324POPC   C4B45418  29.836  40.373   7.590
 3325POPC   NC345419  33.959   2.100   5.355
 3325POPC   PO445420  33.455   2.054   5.617
 3325POPC   GL145421  33.790   2.012   5.845
 3325POPC   GL245422  33.833   1.683   5.680
 3325POPC   C1A45423  33.803   2.091   6.307
 3325POPC   D2A45424  33.497   2.097   6.653
 3325POPC   C3A45425  33.637   2.001   7.099
 3325POPC   C4A45426  33.561   2.065   7.555
 3325POPC   C1B45427  33.677   1.616   6.145
 3325POPC   C2B45428  33.742   1.649   6.624
 3325POPC   C3B45429  33.717   1.483   7.065
 3325POPC   C4B45430  33.674   1.586   7.493
 3326POPC   NC345431  24.804  25.426   5.418
 3326POPC   PO445432  24.231  25.076   5.390
 3326POPC   GL145433  24.449  25.130   5.824
 3326POPC   GL245434  24.767  25.170   5.869
 3326POPC   C1A45435  24.292  25.123   6.271
 3326POPC   D2A45436  24.242  25.439   6.586
 3326POPC   C3A45437  24.150  25.319   6.993
 3326POPC   C4A45438  24.254  25.490   7.354
 3326POPC   C1B45439  24.762  24.907   6.248
 3326POPC   C2B45440  24.802  24.965   6.705
 3326POPC   C3B45441  24.812  24.983   7.163
 3326POPC   C4B45442  24.657  25.251   7.510
 3327POPC   NC345443   5.249  34.449   5.470
 3327POPC   PO445444   4.699  34.410   5.510
 3327POPC   GL145445   4.948  34.500   5.904
 3327POPC   GL245446   5.260  34.294   5.966
 3327POPC   C1A45447   4.878  34.661   6.334
 3327POPC   D2A45448   4.786  34.977   6.671
 3327POPC   C3A45449   5.113  34.842   6.951
 3327POPC   C4A45450   4.992  34.467   7.180
 3327POPC   C1B45451   5.325  34.288   6.426
 3327POPC   C2B45452   5.385  34.413   6.844
 3327POPC   C3B45453   5.441  34.259   7.266
 3327POPC   C4B45454   5.251  34.298   7.673
 3328POPC   NC345455  33.020  15.753   5.433
 3328POPC   PO445456  33.571  16.111   5.251
 3328POPC   GL145457  33.316  16.192   5.666
 3328POPC   GL245458  32.946  16.156   5.740
 3328POPC   C1A45459  33.273  16.021   6.112
 3328POPC   D2A45460  33.209  16.220   6.515
 3328POPC   C3A45461  33.337  16.035   6.876
 3328POPC   C4A45462  33.314  16.127   7.269
 3328POPC   C1B45463  32.762  16.126   6.139
 3328POPC   C2B45464  32.697  16.309   6.539
 3328POPC   C3B45465  32.807  16.050   6.881
 3328POPC   C4B45466  32.728  16.084   7.296
 3329POPC   NC345467  23.238  15.157   5.482
 3329POPC   PO445468  22.693  15.519   5.772
 3329POPC   GL145469  22.893  15.120   5.867
 3329POPC   GL245470  23.161  15.328   5.961
 3329POPC   C1A45471  22.926  14.780   6.194
 3329POPC   D2A45472  22.729  14.680   6.624
 3329POPC   C3A45473  22.897  14.958   6.952
 3329POPC   C4A45474  23.111  15.317   7.179
 3329POPC   C1B45475  23.056  15.225   6.390
 3329POPC   C2B45476  23.325  15.037   6.700
 3329POPC   C3B45477  23.472  14.938   7.123
 3329POPC   C4B45478  23.325  15.002   7.529
 3330POPC   NC345479  42.563  21.716   5.458
 3330POPC   PO445480  42.141  21.384   5.152
 3330POPC   GL145481  42.231  21.374   5.653
 3330POPC   GL245482  42.581  21.352   5.795
 3330POPC   C1A45483  42.287  21.628   6.098
 3330POPC   D2A45484  42.424  21.810   6.531
 3330POPC   C3A45485  42.435  21.554   6.935
 3330POPC   C4A45486  42.229  21.150   7.097
 3330POPC   C1B45487  42.755  21.476   6.195
 3330POPC   C2B45488  42.621  21.258   6.555
 3330POPC   C3B45489  42.738  21.134   6.970
 3330POPC   C4B45490  42.622  21.215   7.411
 3331POPC   NC345491   5.053  19.322   5.291
 3331POPC   PO445492   5.324  18.727   5.501
 3331POPC   GL145493   5.193  19.096   5.755
 3331POPC   GL245494   4.815  19.196   5.718
 3331POPC   C1A45495   5.296  19.013   6.177
 3331POPC   D2A45496   5.321  18.768   6.531
 3331POPC   C3A45497   5.155  18.941   6.897
 3331POPC   C4A45498   5.278  18.841   7.311
 3331POPC   C1B45499   4.804  19.160   6.137
 3331POPC   C2B45500   4.976  19.254   6.522
 3331POPC   C3B45501   4.751  19.326   6.875
 3331POPC   C4B45502   4.855  19.196   7.255
 3332POPC   NC345503  20.254   1.583   5.547
 3332POPC   PO445504  20.894   1.860   5.401
 3332POPC   GL145505  20.731   1.759   5.809
 3332POPC   GL245506  20.448   1.952   5.839
 3332POPC   C1A45507  20.780   1.833   6.257
 3332POPC   D2A45508  20.586   1.707   6.641
 3332POPC   C3A45509  20.727   1.967   6.980
 3332POPC   C4A45510  20.911   1.868   7.373
 3332POPC   C1B45511  20.264   1.765   6.198
 3332POPC   C2B45512  20.184   2.015   6.545
 3332POPC   C3B45513  20.210   1.955   6.972
 3332POPC   C4B45514  20.389   1.578   7.112
 3333POPC   NC345515  36.821  12.362   5.324
 3333POPC   PO445516  36.682  13.053   5.360
 3333POPC   GL145517  36.794  12.809   5.708
 3333POPC   GL245518  36.934  13.103   5.818
 3333POPC   C1A45519  36.601  12.853   6.127
 3333POPC   D2A45520  36.475  12.766   6.534
 3333POPC   C3A45521  36.751  12.825   6.876
 3333POPC   C4A45522  36.685  12.734   7.315
 3333POPC   C1B45523  37.155  13.154   6.171
 3333POPC   C2B45524  37.000  13.233   6.563
 3333POPC   C3B45525  37.145  13.330   6.956
 3333POPC   C4B45526  37.115  13.086   7.299
 3334POPC   NC345527  27.733   2.147   5.488
 3334POPC   PO445528  27.403   1.504   5.465
 3334POPC   GL145529  27.465   1.770   5.839
 3334POPC   GL245530  27.411   2.143   5.870
 3334POPC   C1A45531  27.683   1.687   6.232
 3334POPC   D2A45532  27.851   1.772   6.654
 3334POPC   C3A45533  27.590   1.803   7.052
 3334POPC   C4A45534  27.736   1.765   7.490
 3334POPC   C1B45535  27.627   2.200   6.246
 3334POPC   C2B45536  27.465   2.114   6.652
 3334POPC   C3B45537  27.525   2.325   7.045
 3334POPC   C4B45538  27.850   2.279   7.362
 3335POPC   NC345539  28.851  21.078   5.471
 3335POPC   PO445540  29.281  21.479   5.252
 3335POPC   GL145541  29.261  21.317   5.687
 3335POPC   GL245542  29.047  21.573   5.732
 3335POPC   C1A45543  29.095  21.179   6.099
 3335POPC   D2A45544  28.840  21.161   6.464
 3335POPC   C3A45545  29.065  21.110   6.866
 3335POPC   C4A45546  29.304  21.388   7.174
 3335POPC   C1B45547  28.892  21.652   6.163
 3335POPC   C2B45548  28.758  21.642   6.598
 3335POPC   C3B45549  28.836  21.533   7.017
 3335POPC   C4B45550  28.982  21.781   7.354
 3336POPC   NC345551  44.379  31.212   5.508
 3336POPC   PO445552  43.700  31.430   5.361
 3336POPC   GL145553  43.893  31.574   5.777
 3336POPC   GL245554  43.990  31.262   5.829
 3336POPC   C1A45555  44.120  31.570   6.233
 3336POPC   D2A45556  44.192  31.549   6.717
 3336POPC   C3A45557  43.892  31.626   7.088
 3336POPC   C4A45558  43.804  31.620   7.596
 3336POPC   C1B45559  43.751  31.210   6.169
 3336POPC   C2B45560  43.804  31.212   6.580
 3336POPC   C3B45561  43.667  31.167   6.950
 3336POPC   C4B45562  43.460  31.380   7.284
 3337POPC   NC345563  33.326  33.074   5.668
 3337POPC   PO445564  32.785  33.434   5.399
 3337POPC   GL145565  32.951  33.384   5.836
 3337POPC   GL245566  32.745  33.150   6.060
 3337POPC   C1A45567  33.140  33.361   6.268
 3337POPC   D2A45568  32.801  33.400   6.563
 3337POPC   C3A45569  32.939  33.257   6.950
 3337POPC   C4A45570  32.725  32.953   7.159
 3337POPC   C1B45571  32.992  32.876   6.363
 3337POPC   C2B45572  33.291  32.936   6.690
 3337POPC   C3B45573  33.227  32.828   7.124
 3337POPC   C4B45574  33.147  32.690   7.566
 3338POPC   NC345575  15.626   1.822   5.583
 3338POPC   PO445576  15.045   1.889   5.329
 3338POPC   GL145577  15.205   2.094   5.708
 3338POPC   GL245578  15.140   1.780   5.854
 3338POPC   C1A45579  15.342   2.161   6.155
 3338POPC   D2A45580  15.109   2.224   6.531
 3338POPC   C3A45581  15.225   2.074   6.901
 3338POPC   C4A45582  15.349   2.078   7.304
 3338POPC   C1B45583  14.913   1.794   6.253
 3338POPC   C2B45584  14.822   1.839   6.717
 3338POPC   C3B45585  14.939   1.660   7.137
 3338POPC   C4B45586  15.142   1.654   7.557
 3339POPC   NC345587  17.087   6.940   5.522
 3339POPC   PO445588  17.522   6.556   5.195
 3339POPC   GL145589  17.576   6.701   5.645
 3339POPC   GL245590  17.603   6.374   5.757
 3339POPC   C1A45591  17.623   6.698   6.142
 3339POPC   D2A45592  17.489   6.894   6.510
 3339POPC   C3A45593  17.563   6.668   6.898
 3339POPC   C4A45594  17.662   6.825   7.247
 3339POPC   C1B45595  17.587   6.199   6.185
 3339POPC   C2B45596  17.464   6.293   6.559
 3339POPC   C3B45597  17.683   6.140   6.900
 3339POPC   C4B45598  17.683   6.301   7.276
 3340POPC   NC345599  20.977  14.661   5.234
 3340POPC   PO445600  20.335  14.548   5.353
 3340POPC   GL145601  20.330  14.445   5.786
 3340POPC   GL245602  20.604  14.194   5.855
 3340POPC   C1A45603  20.349  14.443   6.231
 3340POPC   D2A45604  20.580  14.236   6.551
 3340POPC   C3A45605  20.377  14.277   6.931
 3340POPC   C4A45606  20.442  14.649   7.138
 3340POPC   C1B45607  20.951  14.180   6.171
 3340POPC   C2B45608  21.068  14.383   6.584
 3340POPC   C3B45609  20.909  14.386   7.032
 3340POPC   C4B45610  21.138  14.267   7.433
 3341POPC   NC345611  21.809  42.690   5.422
 3341POPC   PO445612  22.228  43.193   5.470
 3341POPC   GL145613  22.063  43.225   5.863
 3341POPC   GL245614  21.842  42.961   5.889
 3341POPC   C1A45615  21.977  43.369   6.266
 3341POPC   D2A45616  21.858  43.194   6.643
 3341POPC   C3A45617  22.069  43.376   6.987
 3341POPC   C4A45618  21.956  43.341   7.388
 3341POPC   C1B45619  22.088  42.849   6.252
 3341POPC   C2B45620  22.054  42.520   6.553
 3341POPC   C3B45621  21.852  42.493   6.926
 3341POPC   C4B45622  21.818  42.860   7.191
 3342POPC   NC345623   2.367   0.538   4.920
 3342POPC   PO445624   2.143   0.219   5.521
 3342POPC   GL145625   2.047   0.487   5.855
 3342POPC   GL245626   1.672   0.601   5.858
 3342POPC   C1A45627   2.289   0.565   6.237
 3342POPC   D2A45628   2.147   0.555   6.649
 3342POPC   C3A45629   2.305   0.374   6.988
 3342POPC   C4A45630   2.278   0.469   7.394
 3342POPC   C1B45631   1.755   0.425   6.282
 3342POPC   C2B45632   1.662   0.624   6.672
 3342POPC   C3B45633   1.851   0.663   7.092
 3342POPC   C4B45634   1.786   0.360   7.420
 3343POPC   NC345635  10.778  14.384   5.379
 3343POPC   PO445636  11.375  14.640   5.402
 3343POPC   GL145637  11.187  14.423   5.749
 3343POPC   GL245638  10.905  14.641   5.836
 3343POPC   C1A45639  11.348  14.151   6.117
 3343POPC   D2A45640  11.508  14.324   6.519
 3343POPC   C3A45641  11.395  14.392   6.927
 3343POPC   C4A45642  11.363  14.107   7.261
 3343POPC   C1B45643  10.878  14.361   6.156
 3343POPC   C2B45644  10.993  14.095   6.493
 3343POPC   C3B45645  10.946  14.163   6.908
 3343POPC   C4B45646  10.963  14.465   7.247
 3344POPC   NC345647   5.680  32.432   5.415
 3344POPC   PO445648   6.187  32.595   5.815
 3344POPC   GL145649   5.870  32.326   5.896
 3344POPC   GL245650   5.581  32.557   5.899
 3344POPC   C1A45651   5.839  32.266   6.334
 3344POPC   D2A45652   5.903  32.452   6.745
 3344POPC   C3A45653   5.769  32.141   7.056
 3344POPC   C4A45654   6.137  32.032   7.270
 3344POPC   C1B45655   5.353  32.390   6.225
 3344POPC   C2B45656   5.417  32.309   6.654
 3344POPC   C3B45657   5.477  32.563   7.006
 3344POPC   C4B45658   5.499  32.478   7.406
 3345POPC   NC345659  44.024  35.567   5.511
 3345POPC   PO445660  43.680  35.076   5.653
 3345POPC   GL145661  44.057  35.236   5.900
 3345POPC   GL245662  44.133  35.618   5.986
 3345POPC   C1A45663  44.003  35.285   6.333
 3345POPC   D2A45664  43.834  35.449   6.683
 3345POPC   C3A45665  43.925  35.205   7.017
 3345POPC   C4A45666  43.634  35.165   7.321
 3345POPC   C1B45667  44.318  35.696   6.377
 3345POPC   C2B45668  44.322  35.484   6.764
 3345POPC   C3B45669  44.093  35.676   7.134
 3345POPC   C4B45670  44.148  35.954   7.490
 3346POPC   NC345671   4.660  36.168   5.378
 3346POPC   PO445672   5.315  35.909   5.364
 3346POPC   GL145673   5.035  35.945   5.704
 3346POPC   GL245674   4.961  36.255   5.842
 3346POPC   C1A45675   5.107  35.868   6.155
 3346POPC   D2A45676   5.182  36.112   6.528
 3346POPC   C3A45677   5.172  35.906   6.921
 3346POPC   C4A45678   5.167  36.090   7.326
 3346POPC   C1B45679   4.959  36.513   6.186
 3346POPC   C2B45680   4.907  36.619   6.593
 3346POPC   C3B45681   5.014  36.461   6.981
 3346POPC   C4B45682   4.787  36.594   7.329
 3347POPC   NC345683  15.942  17.561   4.765
 3347POPC   PO445684  15.910  17.128   5.387
 3347POPC   GL145685  15.864  17.323   5.839
 3347POPC   GL245686  16.030  17.643   5.909
 3347POPC   C1A45687  15.757  17.429   6.311
 3347POPC   D2A45688  15.666  17.197   6.691
 3347POPC   C3A45689  15.781  17.302   7.085
 3347POPC   C4A45690  15.745  17.547   7.453
 3347POPC   C1B45691  16.258  17.421   6.261
 3347POPC   C2B45692  16.160  17.397   6.722
 3347POPC   C3B45693  16.239  17.519   7.167
 3347POPC   C4B45694  16.595  17.730   7.404
 3348POPC   NC345695   4.725  30.399   5.524
 3348POPC   PO445696   4.436  29.824   5.250
 3348POPC   GL145697   4.458  30.010   5.677
 3348POPC   GL245698   4.122  30.094   5.710
 3348POPC   C1A45699   4.554  29.895   6.110
 3348POPC   D2A45700   4.660  29.861   6.542
 3348POPC   C3A45701   4.540  29.706   6.930
 3348POPC   C4A45702   4.526  29.909   7.282
 3348POPC   C1B45703   4.049  29.969   6.136
 3348POPC   C2B45704   4.089  29.831   6.571
 3348POPC   C3B45705   4.084  30.021   6.966
 3348POPC   C4B45706   4.138  30.259   7.333
 3349POPC   NC345707  28.727  36.052   5.306
 3349POPC   PO445708  28.196  36.439   5.584
 3349POPC   GL145709  28.229  36.100   5.895
 3349POPC   GL245710  28.562  35.918   5.874
 3349POPC   C1A45711  28.232  36.133   6.348
 3349POPC   D2A45712  27.992  36.140   6.671
 3349POPC   C3A45713  28.064  35.837   6.906
 3349POPC   C4A45714  28.186  35.912   7.271
 3349POPC   C1B45715  28.613  36.354   6.117
 3349POPC   C2B45716  28.687  36.314   6.570
 3349POPC   C3B45717  28.448  36.217   6.937
 3349POPC   C4B45718  28.442  36.339   7.369
 3350POPC   NC345719   6.723   0.966   5.375
 3350POPC   PO445720   6.141   0.899   5.565
 3350POPC   GL145721   6.495   1.005   5.875
 3350POPC   GL245722   6.682   1.317   5.866
 3350POPC   C1A45723   6.514   1.074   6.339
 3350POPC   D2A45724   6.765   0.992   6.724
 3350POPC   C3A45725   6.774   1.236   7.095
 3350POPC   C4A45726   6.542   1.319   7.491
 3350POPC   C1B45727   6.891   1.541   6.220
 3350POPC   C2B45728   6.999   1.463   6.650
 3350POPC   C3B45729   6.996   1.729   6.991
 3350POPC   C4B45730   6.972   1.612   7.388
 3351POPC   NC345731  42.079  38.464   5.532
 3351POPC   PO445732  42.781  38.371   5.539
 3351POPC   GL145733  42.459  38.454   5.880
 3351POPC   GL245734  42.225  38.160   5.940
 3351POPC   C1A45735  42.368  38.568   6.321
 3351POPC   D2A45736  42.478  38.325   6.682
 3351POPC   C3A45737  42.455  38.419   7.122
 3351POPC   C4A45738  42.537  38.235   7.558
 3351POPC   C1B45739  41.890  38.377   6.211
 3351POPC   C2B45740  41.762  38.517   6.626
 3351POPC   C3B45741  41.888  38.408   7.048
 3351POPC   C4B45742  42.080  38.164   7.371
 3352POPC   NC345743  34.012  30.810   5.422
 3352POPC   PO445744  33.313  30.528   5.371
 3352POPC   GL145745  33.562  30.777   5.711
 3352POPC   GL245746  33.783  30.534   5.811
 3352POPC   C1A45747  33.689  30.878   6.185
 3352POPC   D2A45748  33.774  31.040   6.620
 3352POPC   C3A45749  33.724  30.844   7.041
 3352POPC   C4A45750  33.758  30.697   7.470
 3352POPC   C1B45751  33.760  30.372   6.260
 3352POPC   C2B45752  33.904  30.509   6.676
 3352POPC   C3B45753  33.858  30.313   7.098
 3352POPC   C4B45754  33.741  30.207   7.549
 3353POPC   NC345755  23.794  11.232   5.071
 3353POPC   PO445756  24.005  11.639   5.462
 3353POPC   GL145757  23.827  11.565   5.863
 3353POPC   GL245758  23.592  11.323   5.765
 3353POPC   C1A45759  23.781  11.587   6.284
 3353POPC   D2A45760  23.922  11.621   6.648
 3353POPC   C3A45761  23.653  11.657   6.982
 3353POPC   C4A45762  23.812  11.442   7.333
 3353POPC   C1B45763  23.750  11.091   6.136
 3353POPC   C2B45764  23.887  11.095   6.535
 3353POPC   C3B45765  23.945  11.198   6.911
 3353POPC   C4B45766  24.017  10.987   7.224
 3354POPC   NC345767   2.283  14.336   5.750
 3354POPC   PO445768   2.062  14.864   5.331
 3354POPC   GL145769   1.906  14.801   5.806
 3354POPC   GL245770   1.804  14.459   5.931
 3354POPC   C1A45771   1.978  14.804   6.312
 3354POPC   D2A45772   2.253  14.490   6.590
 3354POPC   C3A45773   2.310  14.519   7.070
 3354POPC   C4A45774   2.358  14.714   7.491
 3354POPC   C1B45775   1.630  14.456   6.375
 3354POPC   C2B45776   1.794  14.608   6.803
 3354POPC   C3B45777   1.829  14.347   7.190
 3354POPC   C4B45778   1.623  14.063   7.498
 3355POPC   NC345779   4.495  38.646   5.399
 3355POPC   PO445780   4.058  38.040   5.435
 3355POPC   GL145781   4.353  38.236   5.696
 3355POPC   GL245782   4.141  38.557   5.757
 3355POPC   C1A45783   4.419  38.335   6.122
 3355POPC   D2A45784   4.222  38.287   6.521
 3355POPC   C3A45785   4.532  38.332   6.856
 3355POPC   C4A45786   4.253  38.462   7.150
 3355POPC   C1B45787   4.204  38.824   6.122
 3355POPC   C2B45788   4.111  38.973   6.546
 3355POPC   C3B45789   3.956  38.837   6.909
 3355POPC   C4B45790   4.136  38.956   7.271
 3356POPC   NC345791  21.724  30.628   5.396
 3356POPC   PO445792  22.266  30.965   5.235
 3356POPC   GL145793  22.171  30.742   5.638
 3356POPC   GL245794  22.444  30.597   5.811
 3356POPC   C1A45795  22.004  30.552   6.045
 3356POPC   D2A45796  21.868  30.717   6.446
 3356POPC   C3A45797  22.079  30.778   6.857
 3356POPC   C4A45798  22.372  30.550   7.120
 3356POPC   C1B45799  22.357  30.900   6.149
 3356POPC   C2B45800  22.432  31.083   6.560
 3356POPC   C3B45801  22.526  31.024   6.981
 3356POPC   C4B45802  22.300  30.988   7.360
 3357POPC   NC345803  19.415  36.323   5.616
 3357POPC   PO445804  19.095  35.856   5.241
 3357POPC   GL145805  18.899  36.002   5.679
 3357POPC   GL245806  18.913  36.362   5.766
 3357POPC   C1A45807  18.865  35.898   6.155
 3357POPC   D2A45808  18.832  35.718   6.608
 3357POPC   C3A45809  19.113  35.863   6.923
 3357POPC   C4A45810  19.389  35.820   7.287
 3357POPC   C1B45811  19.139  36.337   6.195
 3357POPC   C2B45812  19.246  36.477   6.624
 3357POPC   C3B45813  19.143  36.381   7.025
 3357POPC   C4B45814  18.954  36.134   7.317
 3358POPC   NC345815  15.449  41.438   5.476
 3358POPC   PO445816  16.151  41.541   5.450
 3358POPC   GL145817  15.879  41.589   5.730
 3358POPC   GL245818  15.842  41.242   5.746
 3358POPC   C1A45819  15.954  41.626   6.147
 3358POPC   D2A45820  16.163  41.543   6.518
 3358POPC   C3A45821  16.217  41.788   6.889
 3358POPC   C4A45822  16.159  41.657   7.314
 3358POPC   C1B45823  15.842  41.133   6.186
 3358POPC   C2B45824  15.668  41.346   6.535
 3358POPC   C3B45825  15.830  41.453   6.926
 3358POPC   C4B45826  15.661  41.747   7.151
 3359POPC   NC345827  14.949  20.708   5.128
 3359POPC   PO445828  15.393  20.484   5.580
 3359POPC   GL145829  15.229  20.604   5.946
 3359POPC   GL245830  15.140  20.917   5.836
 3359POPC   C1A45831  14.956  20.549   6.306
 3359POPC   D2A45832  14.991  20.364   6.717
 3359POPC   C3A45833  15.050  20.588   7.088
 3359POPC   C4A45834  15.353  20.662   7.431
 3359POPC   C1B45835  15.063  21.046   6.264
 3359POPC   C2B45836  15.081  20.901   6.672
 3359POPC   C3B45837  15.267  21.037   7.043
 3359POPC   C4B45838  14.959  21.038   7.356
 3360POPC   NC345839   3.298  36.842   5.454
 3360POPC   PO445840   3.856  36.747   5.644
 3360POPC   GL145841   3.519  36.762   5.899
 3360POPC   GL245842   3.523  37.144   5.818
 3360POPC   C1A45843   3.430  36.569   6.295
 3360POPC   D2A45844   3.681  36.717   6.619
 3360POPC   C3A45845   3.563  36.825   7.008
 3360POPC   C4A45846   3.795  36.746   7.345
 3360POPC   C1B45847   3.477  37.116   6.254
 3360POPC   C2B45848   3.551  37.345   6.589
 3360POPC   C3B45849   3.766  37.336   6.971
 3360POPC   C4B45850   3.450  37.268   7.258
 3361POPC   NC345851  24.966  40.608   5.350
 3361POPC   PO445852  25.588  40.782   5.580
 3361POPC   GL145853  25.449  40.579   5.919
 3361POPC   GL245854  25.101  40.695   5.857
 3361POPC   C1A45855  25.354  40.684   6.330
 3361POPC   D2A45856  25.158  41.015   6.581
 3361POPC   C3A45857  25.184  40.883   7.007
 3361POPC   C4A45858  25.510  40.639   7.201
 3361POPC   C1B45859  24.853  40.775   6.218
 3361POPC   C2B45860  24.917  40.543   6.584
 3361POPC   C3B45861  24.802  40.385   6.935
 3361POPC   C4B45862  25.020  40.489   7.267
 3362POPC   NC345863  35.191   6.021   5.490
 3362POPC   PO445864  35.185   5.443   5.254
 3362POPC   GL145865  35.331   5.608   5.748
 3362POPC   GL245866  35.545   5.941   5.826
 3362POPC   C1A45867  35.184   5.840   6.184
 3362POPC   D2A45868  34.855   5.958   6.535
 3362POPC   C3A45869  34.990   5.941   6.989
 3362POPC   C4A45870  35.270   5.706   7.292
 3362POPC   C1B45871  35.774   6.230   6.125
 3362POPC   C2B45872  35.684   6.224   6.582
 3362POPC   C3B45873  35.655   6.017   6.999
 3362POPC   C4B45874  35.599   6.063   7.438
 3363POPC   NC345875   6.576  35.864   5.237
 3363POPC   PO445876   6.774  36.442   5.389
 3363POPC   GL145877   6.527  36.237   5.696
 3363POPC   GL245878   6.712  35.962   5.749
 3363POPC   C1A45879   6.430  36.115   6.137
 3363POPC   D2A45880   6.434  36.242   6.570
 3363POPC   C3A45881   6.654  36.052   6.905
 3363POPC   C4A45882   6.466  35.837   7.201
 3363POPC   C1B45883   6.955  36.120   6.136
 3363POPC   C2B45884   6.981  36.283   6.570
 3363POPC   C3B45885   7.082  36.342   7.014
 3363POPC   C4B45886   7.073  36.054   7.378
 3364POPC   NC345887   5.613  29.000   5.325
 3364POPC   PO445888   6.230  29.169   5.460
 3364POPC   GL145889   5.984  29.384   5.783
 3364POPC   GL245890   5.663  29.390   5.676
 3364POPC   C1A45891   5.983  29.408   6.253
 3364POPC   D2A45892   6.060  29.550   6.736
 3364POPC   C3A45893   5.928  29.247   7.096
 3364POPC   C4A45894   5.881  29.144   7.542
 3364POPC   C1B45895   5.517  29.252   6.081
 3364POPC   C2B45896   5.318  29.325   6.454
 3364POPC   C3B45897   5.494  29.380   6.857
 3364POPC   C4B45898   5.422  29.266   7.299
 3365POPC   NC345899  18.790  28.972   5.213
 3365POPC   PO445900  19.299  29.408   5.336
 3365POPC   GL145901  19.109  29.123   5.635
 3365POPC   GL245902  18.736  29.081   5.716
 3365POPC   C1A45903  19.100  29.163   6.091
 3365POPC   D2A45904  19.297  29.094   6.496
 3365POPC   C3A45905  19.221  29.222   6.923
 3365POPC   C4A45906  19.506  29.064   7.250
 3365POPC   C1B45907  18.591  29.167   6.161
 3365POPC   C2B45908  18.795  29.262   6.576
 3365POPC   C3B45909  18.665  29.188   7.030
 3365POPC   C4B45910  18.701  28.899   7.430
 3366POPC   NC345911  30.244  12.780   5.064
 3366POPC   PO445912  30.009  13.320   5.485
 3366POPC   GL145913  29.963  12.911   5.666
 3366POPC   GL245914  30.226  12.679   5.564
 3366POPC   C1A45915  29.917  12.829   6.118
 3366POPC   D2A45916  30.093  13.069   6.487
 3366POPC   C3A45917  29.992  12.847   6.852
 3366POPC   C4A45918  29.811  12.800   7.253
 3366POPC   C1B45919  30.287  12.476   5.967
 3366POPC   C2B45920  30.282  12.577   6.399
 3366POPC   C3B45921  30.300  12.447   6.814
 3366POPC   C4B45922  30.340  12.705   7.207
 3367POPC   NC345923  41.064  32.662   5.440
 3367POPC   PO445924  40.489  32.915   5.724
 3367POPC   GL145925  40.859  32.968   5.901
 3367POPC   GL245926  40.814  33.339   5.852
 3367POPC   C1A45927  40.964  32.816   6.319
 3367POPC   D2A45928  40.962  32.835   6.759
 3367POPC   C3A45929  40.614  32.890   7.019
 3367POPC   C4A45930  40.711  32.935   7.431
 3367POPC   C1B45931  40.800  33.318   6.301
 3367POPC   C2B45932  40.635  33.313   6.715
 3367POPC   C3B45933  40.925  33.293   7.036
 3367POPC   C4B45934  41.256  33.419   7.204
 3368POPC   NC345935  33.258  39.442   5.169
 3368POPC   PO445936  32.895  38.817   5.207
 3368POPC   GL145937  33.062  39.089   5.567
 3368POPC   GL245938  32.777  39.304   5.728
 3368POPC   C1A45939  33.170  39.073   6.043
 3368POPC   D2A45940  32.914  38.935   6.410
 3368POPC   C3A45941  32.995  38.968   6.856
 3368POPC   C4A45942  33.115  39.098   7.273
 3368POPC   C1B45943  32.811  39.428   6.192
 3368POPC   C2B45944  33.049  39.410   6.595
 3368POPC   C3B45945  32.849  39.445   6.999
 3368POPC   C4B45946  32.604  39.102   7.179
 3369POPC   NC345947  34.073  11.632   5.636
 3369POPC   PO445948  34.756  11.588   5.581
 3369POPC   GL145949  34.866  11.381   5.937
 3369POPC   GL245950  34.656  11.104   5.852
 3369POPC   C1A45951  34.761  11.424   6.367
 3369POPC   D2A45952  34.586  11.576   6.738
 3369POPC   C3A45953  34.726  11.336   7.101
 3369POPC   C4A45954  34.936  11.644   7.282
 3369POPC   C1B45955  34.799  10.921   6.215
 3369POPC   C2B45956  34.604  10.983   6.632
 3369POPC   C3B45957  34.296  11.183   6.873
 3369POPC   C4B45958  34.251  11.257   7.291
 3370POPC   NC345959  40.512  26.970   5.524
 3370POPC   PO445960  41.109  26.650   5.409
 3370POPC   GL145961  40.895  26.739   5.813
 3370POPC   GL245962  40.685  26.471   5.959
 3370POPC   C1A45963  40.869  27.102   6.110
 3370POPC   D2A45964  41.066  27.196   6.520
 3370POPC   C3A45965  40.890  27.155   6.947
 3370POPC   C4A45966  40.906  26.791   7.223
 3370POPC   C1B45967  40.571  26.748   6.342
 3370POPC   C2B45968  40.561  26.759   6.808
 3370POPC   C3B45969  40.392  26.749   7.239
 3370POPC   C4B45970  40.185  26.988   7.542
 3371POPC   NC345971  13.466  33.438   5.380
 3371POPC   PO445972  13.603  32.809   5.329
 3371POPC   GL145973  13.547  32.826   5.773
 3371POPC   GL245974  13.674  33.192   5.825
 3371POPC   C1A45975  13.438  32.946   6.193
 3371POPC   D2A45976  13.628  33.227   6.511
 3371POPC   C3A45977  13.523  33.112   6.917
 3371POPC   C4A45978  13.576  32.836   7.277
 3371POPC   C1B45979  14.011  33.285   6.144
 3371POPC   C2B45980  14.157  33.199   6.585
 3371POPC   C3B45981  13.990  33.278   6.984
 3371POPC   C4B45982  13.772  33.289   7.388
 3372POPC   NC345983   7.546   3.419   5.442
 3372POPC   PO445984   7.205   3.960   5.499
 3372POPC   GL145985   7.446   3.813   5.889
 3372POPC   GL245986   7.623   3.463   5.938
 3372POPC   C1A45987   7.319   3.614   6.310
 3372POPC   D2A45988   7.406   3.339   6.680
 3372POPC   C3A45989   7.298   3.638   7.001
 3372POPC   C4A45990   7.308   3.890   7.377
 3372POPC   C1B45991   7.823   3.711   6.272
 3372POPC   C2B45992   7.738   3.829   6.715
 3372POPC   C3B45993   7.777   3.699   7.154
 3372POPC   C4B45994   7.623   3.254   7.181
 3373POPC   NC345995   3.282  20.134   5.396
 3373POPC   PO445996   3.901  19.916   5.552
 3373POPC   GL145997   3.640  19.946   5.831
 3373POPC   GL245998   3.410  19.704   5.693
 3373POPC   C1A45999   3.745  19.968   6.259
 3373POPC   D2A46000   3.550  20.206   6.573
 3373POPC   C3A46001   3.619  20.010   6.937
 3373POPC   C4A46002   3.417  20.091   7.301
 3373POPC   C1B46003   3.344  19.682   6.152
 3373POPC   C2B46004   3.345  19.720   6.604
 3373POPC   C3B46005   3.338  19.606   7.055
 3373POPC   C4B46006   3.649  19.379   7.297
 3374POPC   NC346007  22.712  26.193   5.490
 3374POPC   PO446008  23.290  26.294   5.127
 3374POPC   GL146009  23.208  26.266   5.682
 3374POPC   GL246010  23.056  25.943   5.795
 3374POPC   C1A46011  23.184  26.156   6.225
 3374POPC   D2A46012  23.057  26.275   6.694
 3374POPC   C3A46013  23.050  26.200   7.188
 3374POPC   C4A46014  22.945  26.342   7.629
 3374POPC   C1B46015  22.719  25.904   6.109
 3374POPC   C2B46016  22.705  25.836   6.550
 3374POPC   C3B46017  22.783  25.814   6.996
 3374POPC   C4B46018  22.685  25.925   7.434
 3375POPC   NC346019  39.636  10.751   5.491
 3375POPC   PO446020  39.141  10.249   5.425
 3375POPC   GL146021  39.043  10.432   5.796
 3375POPC   GL246022  39.054  10.116   5.932
 3375POPC   C1A46023  39.177  10.710   6.126
 3375POPC   D2A46024  39.201  10.643   6.577
 3375POPC   C3A46025  39.336  10.914   6.893
 3375POPC   C4A46026  39.289  10.812   7.297
 3375POPC   C1B46027  39.171  10.203   6.331
 3375POPC   C2B46028  39.201  10.157   6.744
 3375POPC   C3B46029  39.294  10.218   7.179
 3375POPC   C4B46030  39.008  10.352   7.487
 3376POPC   NC346031  21.564  13.892   5.462
 3376POPC   PO446032  20.946  13.484   5.526
 3376POPC   GL146033  21.278  13.613   5.817
 3376POPC   GL246034  21.615  13.460   5.755
 3376POPC   C1A46035  21.306  13.747   6.248
 3376POPC   D2A46036  21.545  13.611   6.606
 3376POPC   C3A46037  21.480  13.819   6.975
 3376POPC   C4A46038  21.151  13.787   7.270
 3376POPC   C1B46039  21.633  13.311   6.181
 3376POPC   C2B46040  21.788  13.148   6.580
 3376POPC   C3B46041  21.854  13.366   6.969
 3376POPC   C4B46042  21.649  13.510   7.331
 3377POPC   NC346043   7.825  13.758   5.645
 3377POPC   PO446044   7.173  13.487   5.423
 3377POPC   GL146045   7.328  13.641   5.760
 3377POPC   GL246046   7.043  13.803   5.850
 3377POPC   C1A46047   7.405  13.422   6.129
 3377POPC   D2A46048   7.257  13.458   6.553
 3377POPC   C3A46049   7.552  13.582   6.853
 3377POPC   C4A46050   7.458  13.651   7.262
 3377POPC   C1B46051   7.180  13.860   6.238
 3377POPC   C2B46052   7.219  14.068   6.629
 3377POPC   C3B46053   7.078  13.810   6.949
 3377POPC   C4B46054   6.893  13.724   7.333
 3378POPC   NC346055  31.370  40.594   5.402
 3378POPC   PO446056  31.195  41.195   5.599
 3378POPC   GL146057  31.371  40.932   5.893
 3378POPC   GL246058  31.363  40.569   5.899
 3378POPC   C1A46059  31.313  40.857   6.322
 3378POPC   D2A46060  31.596  40.828   6.629
 3378POPC   C3A46061  31.581  41.026   7.027
 3378POPC   C4A46062  31.524  40.838   7.405
 3378POPC   C1B46063  31.382  40.325   6.248
 3378POPC   C2B46064  31.293  40.405   6.640
 3378POPC   C3B46065  31.498  40.504   7.011
 3378POPC   C4B46066  31.369  40.305   7.333
 3379POPC   NC346067  10.714  33.640   5.368
 3379POPC   PO446068  10.248  34.018   5.238
 3379POPC   GL146069  10.403  33.890   5.684
 3379POPC   GL246070  10.760  33.985   5.808
 3379POPC   C1A46071  10.434  33.731   6.114
 3379POPC   D2A46072  10.506  33.667   6.539
 3379POPC   C3A46073  10.176  33.676   6.812
 3379POPC   C4A46074  10.270  33.667   7.233
 3379POPC   C1B46075  10.926  34.165   6.228
 3379POPC   C2B46076  10.951  34.024   6.651
 3379POPC   C3B46077  10.735  33.875   7.036
 3379POPC   C4B46078  10.852  33.978   7.478
 3380POPC   NC346079   5.663   3.534   5.420
 3380POPC   PO446080   5.317   4.011   5.587
 3380POPC   GL146081   5.568   3.715   5.896
 3380POPC   GL246082   5.929   3.589   5.864
 3380POPC   C1A46083   5.793   3.850   6.282
 3380POPC   D2A46084   5.674   3.909   6.665
 3380POPC   C3A46085   5.953   3.867   6.986
 3380POPC   C4A46086   5.661   3.881   7.298
 3380POPC   C1B46087   5.791   3.353   6.230
 3380POPC   C2B46088   5.548   3.392   6.602
 3380POPC   C3B46089   5.643   3.439   7.028
 3380POPC   C4B46090   6.055   3.374   7.209
 3381POPC   NC346091  28.349  38.368   5.293
 3381POPC   PO446092  28.159  38.814   5.742
 3381POPC   GL146093  28.340  38.450   5.776
 3381POPC   GL246094  28.640  38.606   5.649
 3381POPC   C1A46095  28.306  38.213   6.123
 3381POPC   D2A46096  28.019  38.260   6.448
 3381POPC   C3A46097  28.241  38.190   6.824
 3381POPC   C4A46098  28.208  38.240   7.248
 3381POPC   C1B46099  28.650  38.577   6.124
 3381POPC   C2B46100  28.509  38.552   6.537
 3381POPC   C3B46101  28.451  38.684   6.955
 3381POPC   C4B46102  28.657  38.560   7.310
 3382POPC   NC346103  13.588  29.492   5.395
 3382POPC   PO446104  13.987  28.945   5.512
 3382POPC   GL146105  13.564  29.064   5.757
 3382POPC   GL246106  13.313  29.399   5.792
 3382POPC   C1A46107  13.573  28.920   6.195
 3382POPC   D2A46108  13.477  29.050   6.634
 3382POPC   C3A46109  13.669  28.890   7.033
 3382POPC   C4A46110  13.929  29.157   7.318
 3382POPC   C1B46111  13.625  29.442   6.124
 3382POPC   C2B46112  13.793  29.449   6.540
 3382POPC   C3B46113  13.660  29.413   6.963
 3382POPC   C4B46114  13.474  29.408   7.394
 3383POPC   NC346115   4.908  29.573   5.322
 3383POPC   PO446116   5.143  30.279   5.327
 3383POPC   GL146117   5.096  30.040   5.701
 3383POPC   GL246118   5.366  30.212   5.871
 3383POPC   C1A46119   5.057  29.939   6.168
 3383POPC   D2A46120   5.169  29.804   6.580
 3383POPC   C3A46121   5.013  30.005   6.923
 3383POPC   C4A46122   5.023  29.896   7.343
 3383POPC   C1B46123   5.497  30.198   6.331
 3383POPC   C2B46124   5.470  30.328   6.780
 3383POPC   C3B46125   5.356  30.260   7.240
 3383POPC   C4B46126   5.454  30.014   7.648
 3384POPC   NC346127   8.730  18.552   5.453
 3384POPC   PO446128   9.257  18.168   5.397
 3384POPC   GL146129   9.039  18.222   5.788
 3384POPC   GL246130   8.719  18.077   5.879
 3384POPC   C1A46131   9.010  18.354   6.217
 3384POPC   D2A46132   8.906  18.191   6.603
 3384POPC   C3A46133   8.814  18.287   6.990
 3384POPC   C4A46134   9.165  18.411   7.167
 3384POPC   C1B46135   8.678  17.851   6.294
 3384POPC   C2B46136   8.605  17.807   6.775
 3384POPC   C3B46137   8.629  17.861   7.226
 3384POPC   C4B46138   8.769  18.181   7.503
 3385POPC   NC346139   2.429  39.321   5.356
 3385POPC   PO446140   1.741  39.233   5.212
 3385POPC   GL146141   1.985  39.383   5.631
 3385POPC   GL246142   2.054  39.073   5.768
 3385POPC   C1A46143   2.140  39.452   6.099
 3385POPC   D2A46144   2.016  39.247   6.487
 3385POPC   C3A46145   2.191  39.338   6.868
 3385POPC   C4A46146   2.170  39.650   7.194
 3385POPC   C1B46147   2.214  38.895   6.155
 3385POPC   C2B46148   2.291  38.821   6.604
 3385POPC   C3B46149   2.431  38.860   7.033
 3385POPC   C4B46150   2.442  39.209   7.323
 3386POPC   NC346151  33.033  32.169   5.458
 3386POPC   PO446152  32.967  32.787   5.716
 3386POPC   GL146153  33.167  32.407   5.936
 3386POPC   GL246154  33.213  32.032   5.903
 3386POPC   C1A46155  33.175  32.278   6.378
 3386POPC   D2A46156  33.035  32.479   6.755
 3386POPC   C3A46157  33.111  32.317   7.166
 3386POPC   C4A46158  32.732  32.466   7.375
 3386POPC   C1B46159  32.831  32.005   6.126
 3386POPC   C2B46160  32.791  31.983   6.612
 3386POPC   C3B46161  32.741  31.930   7.091
 3386POPC   C4B46162  32.962  31.719   7.473
 3387POPC   NC346163  12.219  38.565   5.134
 3387POPC   PO446164  11.752  38.790   5.624
 3387POPC   GL146165  12.004  38.535   5.882
 3387POPC   GL246166  12.181  38.243   5.748
 3387POPC   C1A46167  12.152  38.534   6.305
 3387POPC   D2A46168  12.314  38.334   6.664
 3387POPC   C3A46169  12.222  38.539   7.048
 3387POPC   C4A46170  12.267  38.649   7.480
 3387POPC   C1B46171  11.976  38.075   6.138
 3387POPC   C2B46172  11.787  38.080   6.571
 3387POPC   C3B46173  12.001  38.061   6.976
 3387POPC   C4B46174  11.989  38.216   7.382
 3388POPC   NC346175   7.526  39.915   5.434
 3388POPC   PO446176   7.012  40.229   5.686
 3388POPC   GL146177   7.447  40.248   5.804
 3388POPC   GL246178   7.346  39.935   5.972
 3388POPC   C1A46179   7.729  40.210   6.160
 3388POPC   D2A46180   7.686  39.885   6.466
 3388POPC   C3A46181   7.590  40.067   6.853
 3388POPC   C4A46182   7.389  40.004   7.222
 3388POPC   C1B46183   6.963  39.706   6.113
 3388POPC   C2B46184   6.840  39.699   6.522
 3388POPC   C3B46185   7.115  39.722   6.866
 3388POPC   C4B46186   6.965  39.729   7.262
 3389POPC   NC346187  31.768  17.591   5.637
 3389POPC   PO446188  32.270  17.143   5.448
 3389POPC   GL146189  32.271  17.206   5.853
 3389POPC   GL246190  32.238  17.578   5.835
 3389POPC   C1A46191  32.512  17.360   6.194
 3389POPC   D2A46192  32.384  17.588   6.518
 3389POPC   C3A46193  32.414  17.363   6.868
 3389POPC   C4A46194  32.291  17.570   7.219
 3389POPC   C1B46195  31.988  17.432   6.238
 3389POPC   C2B46196  31.959  17.231   6.667
 3389POPC   C3B46197  31.861  17.312   7.121
 3389POPC   C4B46198  32.104  17.270   7.571
 3390POPC   NC346199   5.756  13.264   5.515
 3390POPC   PO446200   5.949  13.856   5.163
 3390POPC   GL146201   5.866  13.791   5.647
 3390POPC   GL246202   6.176  13.820   5.832
 3390POPC   C1A46203   5.752  13.658   6.123
 3390POPC   D2A46204   5.496  13.520   6.527
 3390POPC   C3A46205   5.591  13.511   6.990
 3390POPC   C4A46206   5.588  13.881   7.263
 3390POPC   C1B46207   6.270  13.555   6.200
 3390POPC   C2B46208   6.055  13.609   6.575
 3390POPC   C3B46209   5.851  13.915   6.807
 3390POPC   C4B46210   6.059  13.723   7.127
 3391POPC   NC346211  16.470  26.695   5.187
 3391POPC   PO446212  15.927  27.101   5.361
 3391POPC   GL146213  16.049  26.717   5.682
 3391POPC   GL246214  16.382  26.712   5.823
 3391POPC   C1A46215  15.931  26.672   6.155
 3391POPC   D2A46216  15.730  26.762   6.577
 3391POPC   C3A46217  15.988  26.752   6.949
 3391POPC   C4A46218  15.873  26.595   7.333
 3391POPC   C1B46219  16.368  26.938   6.226
 3391POPC   C2B46220  16.414  26.881   6.661
 3391POPC   C3B46221  16.369  27.099   7.041
 3391POPC   C4B46222  16.141  26.994   7.428
 3392POPC   NC346223  27.805  34.753   5.398
 3392POPC   PO446224  27.573  34.060   5.375
 3392POPC   GL146225  27.593  34.350   5.775
 3392POPC   GL246226  27.565  34.741   5.858
 3392POPC   C1A46227  27.487  34.356   6.224
 3392POPC   D2A46228  27.414  34.068   6.572
 3392POPC   C3A46229  27.466  34.217   6.996
 3392POPC   C4A46230  27.560  34.523   7.304
 3392POPC   C1B46231  27.686  34.831   6.299
 3392POPC   C2B46232  27.716  34.932   6.764
 3392POPC   C3B46233  27.850  34.913   7.208
 3392POPC   C4B46234  27.693  34.840   7.682
 3393POPC   NC346235   0.476  42.085   5.534
 3393POPC   PO446236   0.073  42.637   5.453
 3393POPC   GL146237   0.303  42.520   5.878
 3393POPC   GL246238   0.383  42.143   6.018
 3393POPC   C1A46239   0.402  42.513   6.345
 3393POPC   D2A46240   0.124  42.456   6.690
 3393POPC   C3A46241   0.301  42.391   7.057
 3393POPC   C4A46242   0.775  42.427   7.153
 3393POPC   C1B46243   0.391  41.835   6.343
 3393POPC   C2B46244   0.430  41.875   6.786
 3393POPC   C3B46245   0.533  41.977   7.216
 3393POPC   C4B46246   0.186  42.007   7.503
 3394POPC   NC346247  10.066  14.780   5.537
 3394POPC   PO446248  10.355  14.202   5.386
 3394POPC   GL146249  10.496  14.298   5.789
 3394POPC   GL246250  10.394  14.627   5.931
 3394POPC   C1A46251  10.413  14.191   6.189
 3394POPC   D2A46252  10.518  14.476   6.528
 3394POPC   C3A46253  10.484  14.338   6.940
 3394POPC   C4A46254  10.611  14.111   7.284
 3394POPC   C1B46255  10.197  14.938   6.219
 3394POPC   C2B46256  10.032  14.885   6.662
 3394POPC   C3B46257  10.082  14.623   7.038
 3394POPC   C4B46258  10.404  14.592   7.399
 3395POPC   NC346259  32.845  33.856   5.209
 3395POPC   PO446260  33.453  34.167   5.355
 3395POPC   GL146261  33.170  33.912   5.626
 3395POPC   GL246262  32.788  33.875   5.717
 3395POPC   C1A46263  33.182  33.821   6.053
 3395POPC   D2A46264  33.082  33.815   6.490
 3395POPC   C3A46265  33.293  33.636   6.869
 3395POPC   C4A46266  33.181  33.679   7.335
 3395POPC   C1B46267  32.665  33.765   6.146
 3395POPC   C2B46268  32.576  33.938   6.560
 3395POPC   C3B46269  32.785  33.775   6.952
 3395POPC   C4B46270  32.710  33.536   7.329
 3396POPC   NC346271  32.988  12.661   5.004
 3396POPC   PO446272  32.964  12.070   5.371
 3396POPC   GL146273  33.003  12.030   5.798
 3396POPC   GL246274  32.708  11.852   5.867
 3396POPC   C1A46275  33.254  12.233   6.124
 3396POPC   D2A46276  33.113  12.350   6.524
 3396POPC   C3A46277  33.280  12.182   6.908
 3396POPC   C4A46278  33.209  12.293   7.326
 3396POPC   C1B46279  32.770  12.047   6.292
 3396POPC   C2B46280  32.922  11.860   6.694
 3396POPC   C3B46281  32.880  11.952   7.150
 3396POPC   C4B46282  32.755  12.029   7.607
 3397POPC   NC346283  39.983  15.698   5.453
 3397POPC   PO446284  40.047  16.406   5.452
 3397POPC   GL146285  40.135  16.130   5.830
 3397POPC   GL246286  40.293  15.782   5.842
 3397POPC   C1A46287  40.201  16.091   6.304
 3397POPC   D2A46288  40.212  16.065   6.768
 3397POPC   C3A46289  39.823  16.190   6.982
 3397POPC   C4A46290  39.888  16.229   7.420
 3397POPC   C1B46291  40.107  15.592   6.213
 3397POPC   C2B46292  39.855  15.738   6.567
 3397POPC   C3B46293  39.947  15.675   7.005
 3397POPC   C4B46294  40.122  15.779   7.420
 3398POPC   NC346295   2.030  44.683   5.299
 3398POPC   PO446296   2.408  44.210   5.689
 3398POPC   GL146297   2.214  44.525   5.936
 3398POPC   GL246298   2.020  44.799   5.800
 3398POPC   C1A46299   2.048  44.587   6.292
 3398POPC   D2A46300   1.816  44.457   6.580
 3398POPC   C3A46301   2.105  44.547   6.879
 3398POPC   C4A46302   2.071  44.516   7.277
 3398POPC   C1B46303   2.192   0.053   6.154
 3398POPC   C2B46304   2.018   0.064   6.559
 3398POPC   C3B46305   1.805   0.181   6.898
 3398POPC   C4B46306   2.030  44.999   7.180
 3399POPC   NC346307  43.493  33.772   5.476
 3399POPC   PO446308  42.867  33.630   5.462
 3399POPC   GL146309  43.035  33.966   5.684
 3399POPC   GL246310  42.841  33.882   5.932
 3399POPC   C1A46311  43.283  34.076   6.075
 3399POPC   D2A46312  43.371  33.860   6.476
 3399POPC   C3A46313  43.367  34.063   6.890
 3399POPC   C4A46314  43.428  33.912   7.306
 3399POPC   C1B46315  42.887  33.842   6.381
 3399POPC   C2B46316  42.936  33.797   6.793
 3399POPC   C3B46317  42.936  33.732   7.233
 3399POPC   C4B46318  42.727  33.653   7.605
 3400POPC   NC346319  11.332  38.652   5.482
 3400POPC   PO446320  10.851  38.335   5.739
 3400POPC   GL146321  11.091  38.604   5.952
 3400POPC   GL246322  11.456  38.502   5.957
 3400POPC   C1A46323  11.090  38.631   6.380
 3400POPC   D2A46324  11.418  38.566   6.655
 3400POPC   C3A46325  11.153  38.539   6.988
 3400POPC   C4A46326  11.210  38.590   7.386
 3400POPC   C1B46327  11.362  38.198   6.281
 3400POPC   C2B46328  11.277  38.078   6.727
 3400POPC   C3B46329  11.549  38.249   7.084
 3400POPC   C4B46330  11.516  38.231   7.562
 3401POPC   NC346331  39.136  27.872   5.410
 3401POPC   PO446332  39.636  27.506   5.171
 3401POPC   GL146333  39.323  27.429   5.611
 3401POPC   GL246334  39.258  27.741   5.865
 3401POPC   C1A46335  39.077  27.323   6.046
 3401POPC   D2A46336  38.965  27.587   6.448
 3401POPC   C3A46337  39.072  27.418   6.868
 3401POPC   C4A46338  39.069  27.227   7.290
 3401POPC   C1B46339  39.493  27.859   6.201
 3401POPC   C2B46340  39.329  27.905   6.595
 3401POPC   C3B46341  39.177  27.928   6.959
 3401POPC   C4B46342  39.450  28.090   7.254
 3402POPC   NC346343  22.754  43.066   5.406
 3402POPC   PO446344  23.126  42.480   5.637
 3402POPC   GL146345  23.019  42.922   5.859
 3402POPC   GL246346  22.738  43.200   5.875
 3402POPC   C1A46347  23.029  43.162   6.278
 3402POPC   D2A46348  22.877  43.011   6.671
 3402POPC   C3A46349  22.670  43.243   6.980
 3402POPC   C4A46350  22.813  43.183   7.376
 3402POPC   C1B46351  22.480  43.317   6.196
 3402POPC   C2B46352  22.368  43.148   6.572
 3402POPC   C3B46353  22.225  42.894   6.892
 3402POPC   C4B46354  22.331  43.006   7.298
 3403POPC   NC346355   5.088  12.472   5.486
 3403POPC   PO446356   5.360  13.069   5.343
 3403POPC   GL146357   5.405  12.968   5.790
 3403POPC   GL246358   5.069  12.830   5.880
 3403POPC   C1A46359   5.341  13.076   6.262
 3403POPC   D2A46360   5.118  12.783   6.566
 3403POPC   C3A46361   4.991  12.917   7.018
 3403POPC   C4A46362   5.036  13.106   7.474
 3403POPC   C1B46363   4.774  12.584   6.167
 3403POPC   C2B46364   4.775  12.354   6.614
 3403POPC   C3B46365   4.684  12.475   7.039
 3403POPC   C4B46366   4.848  12.646   7.441
 3404POPC   NC346367   9.362  44.027   5.429
 3404POPC   PO446368   9.981  43.670   5.430
 3404POPC   GL146369   9.723  43.831   5.789
 3404POPC   GL246370   9.791  44.203   5.795
 3404POPC   C1A46371   9.725  43.677   6.237
 3404POPC   D2A46372  10.050  43.712   6.592
 3404POPC   C3A46373   9.962  43.638   7.048
 3404POPC   C4A46374  10.142  43.752   7.457
 3404POPC   C1B46375   9.670  44.190   6.242
 3404POPC   C2B46376   9.607  43.981   6.665
 3404POPC   C3B46377   9.504  43.847   7.079
 3404POPC   C4B46378   9.734  44.063   7.391
 3405POPC   NC346379  35.728  29.358   5.526
 3405POPC   PO446380  35.140  29.037   5.472
 3405POPC   GL146381  35.418  29.102   5.838
 3405POPC   GL246382  35.781  28.969   5.866
 3405POPC   C1A46383  35.435  29.154   6.286
 3405POPC   D2A46384  35.212  29.099   6.682
 3405POPC   C3A46385  35.373  29.317   7.038
 3405POPC   C4A46386  35.272  29.122   7.418
 3405POPC   C1B46387  35.831  28.733   6.249
 3405POPC   C2B46388  35.773  28.976   6.644
 3405POPC   C3B46389  35.610  28.870   7.043
 3405POPC   C4B46390  35.765  28.983   7.442
 3406POPC   NC346391  10.980  40.726   5.432
 3406POPC   PO446392  10.384  40.843   5.535
 3406POPC   GL146393  10.594  40.698   5.838
 3406POPC   GL246394  10.840  40.965   5.867
 3406POPC   C1A46395  10.463  40.672   6.257
 3406POPC   D2A46396  10.140  40.716   6.553
 3406POPC   C3A46397  10.320  40.947   6.872
 3406POPC   C4A46398  10.737  40.927   7.048
 3406POPC   C1B46399  10.973  40.577   6.139
 3406POPC   C2B46400  10.862  40.445   6.553
 3406POPC   C3B46401  11.071  40.550   6.936
 3406POPC   C4B46402  10.944  40.496   7.329
 3407POPC   NC346403   0.157  37.909   5.354
 3407POPC   PO446404   0.664  37.509   5.371
 3407POPC   GL146405   0.553  37.769   5.733
 3407POPC   GL246406   0.244  37.914   5.845
 3407POPC   C1A46407   0.757  37.805   6.129
 3407POPC   D2A46408   0.611  37.570   6.502
 3407POPC   C3A46409   0.667  37.743   6.897
 3407POPC   C4A46410   0.659  37.760   7.318
 3407POPC   C1B46411   0.288  37.915   6.279
 3407POPC   C2B46412   0.415  38.143   6.663
 3407POPC   C3B46413   0.294  38.072   7.089
 3407POPC   C4B46414   0.144  37.670   7.215
 3408POPC   NC346415  39.606  23.023   5.557
 3408POPC   PO446416  40.151  22.874   5.185
 3408POPC   GL146417  40.101  22.968   5.674
 3408POPC   GL246418  39.936  23.258   5.863
 3408POPC   C1A46419  40.159  22.854   6.125
 3408POPC   D2A46420  40.255  23.028   6.540
 3408POPC   C3A46421  40.124  23.000   6.961
 3408POPC   C4A46422  40.343  23.215   7.316
 3408POPC   C1B46423  39.715  23.071   6.234
 3408POPC   C2B46424  39.757  23.235   6.617
 3408POPC   C3B46425  39.609  23.460   6.936
 3408POPC   C4B46426  39.839  23.301   7.265
 3409POPC   NC346427   8.508  38.916   5.563
 3409POPC   PO446428   8.012  39.320   5.702
 3409POPC   GL146429   8.246  39.114   5.934
 3409POPC   GL246430   8.052  38.830   5.875
 3409POPC   C1A46431   8.438  39.158   6.294
 3409POPC   D2A46432   8.213  39.213   6.670
 3409POPC   C3A46433   8.370  39.402   7.027
 3409POPC   C4A46434   8.263  39.679   7.353
 3409POPC   C1B46435   7.968  38.885   6.304
 3409POPC   C2B46436   7.849  38.842   6.715
 3409POPC   C3B46437   8.071  38.934   7.073
 3409POPC   C4B46438   8.506  38.917   7.101
 3410POPC   NC346439  10.273  23.129   5.424
 3410POPC   PO446440  10.730  22.719   5.247
 3410POPC   GL146441  10.604  22.853   5.698
 3410POPC   GL246442  10.661  22.524   5.784
 3410POPC   C1A46443  10.633  22.948   6.165
 3410POPC   D2A46444  10.351  22.975   6.562
 3410POPC   C3A46445  10.453  23.086   7.004
 3410POPC   C4A46446  10.365  22.956   7.457
 3410POPC   C1B46447  10.860  22.477   6.177
 3410POPC   C2B46448  10.746  22.649   6.564
 3410POPC   C3B46449  10.634  22.602   6.970
 3410POPC   C4B46450  10.973  22.445   7.163
 3411POPC   NC346451  16.446  24.437   5.450
 3411POPC   PO446452  16.999  24.763   5.365
 3411POPC   GL146453  16.713  24.784   5.738
 3411POPC   GL246454  16.860  25.072   5.888
 3411POPC   C1A46455  16.492  24.521   6.100
 3411POPC   D2A46456  16.655  24.292   6.474
 3411POPC   C3A46457  16.533  24.376   6.891
 3411POPC   C4A46458  16.846  24.331   7.207
 3411POPC   C1B46459  16.922  24.783   6.235
 3411POPC   C2B46460  16.792  24.773   6.661
 3411POPC   C3B46461  16.710  24.846   7.088
 3411POPC   C4B46462  16.904  25.156   7.353
 3412POPC   NC346463  36.753  11.029   5.154
 3412POPC   PO446464  37.099  11.528   5.254
 3412POPC   GL146465  37.073  11.289   5.683
 3412POPC   GL246466  37.136  11.498   5.968
 3412POPC   C1A46467  36.846  11.100   6.104
 3412POPC   D2A46468  36.702  11.267   6.534
 3412POPC   C3A46469  36.968  11.132   6.904
 3412POPC   C4A46470  37.180  11.146   7.310
 3412POPC   C1B46471  36.709  11.605   6.130
 3412POPC   C2B46472  36.553  11.781   6.520
 3412POPC   C3B46473  36.700  11.846   6.961
 3412POPC   C4B46474  37.072  11.611   7.077
 3413POPC   NC346475  16.960   9.911   5.446
 3413POPC   PO446476  16.943   9.266   5.186
 3413POPC   GL146477  16.734   9.440   5.631
 3413POPC   GL246478  16.895   9.343   5.941
 3413POPC   C1A46479  16.640   9.758   6.030
 3413POPC   D2A46480  16.715   9.866   6.485
 3413POPC   C3A46481  16.486   9.757   6.860
 3413POPC   C4A46482  16.588   9.872   7.279
 3413POPC   C1B46483  17.108   9.241   6.307
 3413POPC   C2B46484  17.070   9.423   6.706
 3413POPC   C3B46485  16.864   9.489   7.088
 3413POPC   C4B46486  16.958   9.554   7.530
 3414POPC   NC346487  17.837  42.073   5.447
 3414POPC   PO446488  17.379  42.607   5.432
 3414POPC   GL146489  17.357  42.416   5.825
 3414POPC   GL246490  17.525  42.137   5.856
 3414POPC   C1A46491  17.598  42.501   6.214
 3414POPC   D2A46492  17.634  42.721   6.604
 3414POPC   C3A46493  17.471  42.538   6.982
 3414POPC   C4A46494  17.538  42.441   7.410
 3414POPC   C1B46495  17.553  41.945   6.217
 3414POPC   C2B46496  17.690  42.002   6.622
 3414POPC   C3B46497  17.550  42.054   7.054
 3414POPC   C4B46498  17.269  41.912   7.364
 3415POPC   NC346499  40.440  43.479   5.164
 3415POPC   PO446500  40.759  43.979   5.468
 3415POPC   GL146501  40.813  43.911   5.883
 3415POPC   GL246502  40.874  43.527   5.833
 3415POPC   C1A46503  40.888  44.069   6.301
 3415POPC   D2A46504  41.133  44.070   6.679
 3415POPC   C3A46505  40.871  44.093   7.054
 3415POPC   C4A46506  40.999  44.394   7.387
 3415POPC   C1B46507  40.660  43.603   6.225
 3415POPC   C2B46508  40.835  43.665   6.606
 3415POPC   C3B46509  40.640  43.615   6.913
 3415POPC   C4B46510  40.668  43.506   7.276
 3416POPC   NC346511   8.084  12.119   5.362
 3416POPC   PO446512   8.643  12.496   5.492
 3416POPC   GL146513   8.368  12.189   5.809
 3416POPC   GL246514   8.042  11.930   5.833
 3416POPC   C1A46515   8.211  12.247   6.249
 3416POPC   D2A46516   8.423  12.427   6.656
 3416POPC   C3A46517   8.216  12.278   7.065
 3416POPC   C4A46518   8.106  12.371   7.542
 3416POPC   C1B46519   8.328  11.758   6.143
 3416POPC   C2B46520   8.417  11.916   6.576
 3416POPC   C3B46521   8.330  11.758   6.997
 3416POPC   C4B46522   8.345  11.928   7.416
 3417POPC   NC346523  38.259  13.113   5.544
 3417POPC   PO446524  38.720  12.663   5.414
 3417POPC   GL146525  38.631  12.848   5.784
 3417POPC   GL246526  38.527  12.525   5.929
 3417POPC   C1A46527  38.494  13.055   6.178
 3417POPC   D2A46528  38.381  12.805   6.552
 3417POPC   C3A46529  38.151  12.982   6.902
 3417POPC   C4A46530  38.318  12.908   7.297
 3417POPC   C1B46531  38.872  12.723   6.200
 3417POPC   C2B46532  38.869  12.987   6.555
 3417POPC   C3B46533  38.734  13.010   7.001
 3417POPC   C4B46534  38.782  12.661   7.341
 3418POPC   NC346535  35.293  31.947   5.429
 3418POPC   PO446536  35.586  32.524   5.198
 3418POPC   GL146537  35.642  32.365   5.659
 3418POPC   GL246538  35.691  32.006   5.790
 3418POPC   C1A46539  35.445  32.466   6.078
 3418POPC   D2A46540  35.129  32.414   6.429
 3418POPC   C3A46541  35.301  32.492   6.855
 3418POPC   C4A46542  35.321  32.534   7.297
 3418POPC   C1B46543  35.455  31.971   6.243
 3418POPC   C2B46544  35.243  31.991   6.684
 3418POPC   C3B46545  35.152  32.066   7.138
 3418POPC   C4B46546  35.277  31.908   7.555
 3419POPC   NC346547  39.502  34.986   5.411
 3419POPC   PO446548  39.005  34.570   5.246
 3419POPC   GL146549  39.255  34.683   5.723
 3419POPC   GL246550  39.447  34.419   5.911
 3419POPC   C1A46551  39.202  34.772   6.213
 3419POPC   D2A46552  39.252  34.514   6.638
 3419POPC   C3A46553  39.169  34.687   7.063
 3419POPC   C4A46554  39.419  34.593   7.434
 3419POPC   C1B46555  39.133  34.264   6.211
 3419POPC   C2B46556  38.800  34.223   6.520
 3419POPC   C3B46557  38.908  34.249   6.945
 3419POPC   C4B46558  39.009  34.281   7.367
 3420POPC   NC346559  33.151  43.393   5.345
 3420POPC   PO446560  32.721  42.857   5.408
 3420POPC   GL146561  33.003  43.064   5.689
 3420POPC   GL246562  32.797  43.354   5.729
 3420POPC   C1A46563  33.112  43.058   6.130
 3420POPC   D2A46564  33.023  42.814   6.497
 3420POPC   C3A46565  33.091  43.014   6.911
 3420POPC   C4A46566  33.156  42.992   7.384
 3420POPC   C1B46567  32.845  43.526   6.128
 3420POPC   C2B46568  32.887  43.346   6.523
 3420POPC   C3B46569  32.725  43.391   6.907
 3420POPC   C4B46570  32.865  43.403   7.285
 3421POPC   NC346571  32.440  38.949   5.446
 3421POPC   PO446572  32.395  39.628   5.511
 3421POPC   GL146573  32.251  39.352   5.841
 3421POPC   GL246574  31.900  39.235   5.793
 3421POPC   C1A46575  32.284  39.411   6.293
 3421POPC   D2A46576  32.532  39.246   6.629
 3421POPC   C3A46577  32.272  39.393   6.928
 3421POPC   C4A46578  31.881  39.327   7.141
 3421POPC   C1B46579  32.044  38.975   6.174
 3421POPC   C2B46580  31.999  39.061   6.619
 3421POPC   C3B46581  32.152  38.880   7.017
 3421POPC   C4B46582  32.280  38.837   7.474
 3422POPC   NC346583  14.748  30.855   5.465
 3422POPC   PO446584  14.181  30.424   5.397
 3422POPC   GL146585  14.367  30.620   5.716
 3422POPC   GL246586  14.657  30.375   5.678
 3422POPC   C1A46587  14.202  30.858   6.086
 3422POPC   D2A46588  14.073  31.083   6.469
 3422POPC   C3A46589  14.145  30.878   6.882
 3422POPC   C4A46590  14.134  30.514   7.167
 3422POPC   C1B46591  14.561  30.379   6.126
 3422POPC   C2B46592  14.500  30.682   6.474
 3422POPC   C3B46593  14.590  30.634   6.903
 3422POPC   C4B46594  14.582  30.806   7.286
 3423POPC   NC346595   2.107  33.111   5.404
 3423POPC   PO446596   1.598  32.659   5.504
 3423POPC   GL146597   1.830  32.936   5.816
 3423POPC   GL246598   1.875  33.312   5.804
 3423POPC   C1A46599   2.075  32.890   6.190
 3423POPC   D2A46600   2.147  33.093   6.601
 3423POPC   C3A46601   2.242  32.861   6.981
 3423POPC   C4A46602   2.042  32.962   7.380
 3423POPC   C1B46603   1.946  33.407   6.227
 3423POPC   C2B46604   1.802  33.510   6.627
 3423POPC   C3B46605   1.875  33.286   7.020
 3423POPC   C4B46606   2.323  33.326   7.208
 3424POPC   NC346607  41.830  20.614   5.535
 3424POPC   PO446608  41.307  20.844   5.262
 3424POPC   GL146609  41.291  20.565   5.673
 3424POPC   GL246610  41.509  20.320   5.783
 3424POPC   C1A46611  41.246  20.488   6.165
 3424POPC   D2A46612  41.469  20.358   6.560
 3424POPC   C3A46613  41.537  20.677   6.865
 3424POPC   C4A46614  41.270  20.769   7.210
 3424POPC   C1B46615  41.794  20.354   6.153
 3424POPC   C2B46616  41.997  20.361   6.574
 3424POPC   C3B46617  41.864  20.200   6.954
 3424POPC   C4B46618  41.676  20.408   7.270
 3425POPC   NC346619   3.460   7.624   5.256
 3425POPC   PO446620   3.789   7.078   5.498
 3425POPC   GL146621   3.598   7.341   5.851
 3425POPC   GL246622   3.555   7.729   5.775
 3425POPC   C1A46623   3.630   7.256   6.321
 3425POPC   D2A46624   3.900   7.375   6.687
 3425POPC   C3A46625   3.661   7.379   7.054
 3425POPC   C4A46626   3.212   7.312   7.110
 3425POPC   C1B46627   3.516   7.748   6.229
 3425POPC   C2B46628   3.352   7.804   6.662
 3425POPC   C3B46629   3.443   7.947   7.080
 3425POPC   C4B46630   3.819   7.795   7.260
 3426POPC   NC346631  34.918  40.691   5.384
 3426POPC   PO446632  35.478  40.982   5.196
 3426POPC   GL146633  35.381  40.912   5.650
 3426POPC   GL246634  35.136  41.132   5.786
 3426POPC   C1A46635  35.413  40.867   6.125
 3426POPC   D2A46636  35.332  41.080   6.512
 3426POPC   C3A46637  35.399  40.858   6.865
 3426POPC   C4A46638  35.511  40.868   7.282
 3426POPC   C1B46639  34.931  41.083   6.204
 3426POPC   C2B46640  34.844  41.119   6.669
 3426POPC   C3B46641  34.975  41.027   7.089
 3426POPC   C4B46642  35.072  40.928   7.532
 3427POPC   NC346643  13.113  43.990   5.338
 3427POPC   PO446644  13.613  43.584   5.289
 3427POPC   GL146645  13.704  43.704   5.726
 3427POPC   GL246646  13.529  44.010   5.774
 3427POPC   C1A46647  13.509  43.677   6.180
 3427POPC   D2A46648  13.601  43.556   6.609
 3427POPC   C3A46649  13.517  43.899   6.912
 3427POPC   C4A46650  13.386  43.856   7.358
 3427POPC   C1B46651  13.905  43.993   6.090
 3427POPC   C2B46652  13.921  44.024   6.549
 3427POPC   C3B46653  14.077  44.093   6.963
 3427POPC   C4B46654  13.915  43.794   7.246
 3428POPC   NC346655  28.044  33.984   5.398
 3428POPC   PO446656  28.705  33.888   5.454
 3428POPC   GL146657  28.561  33.776   5.864
 3428POPC   GL246658  28.236  33.637   5.802
 3428POPC   C1A46659  28.334  33.883   6.221
 3428POPC   D2A46660  28.519  33.893   6.592
 3428POPC   C3A46661  28.341  33.865   6.960
 3428POPC   C4A46662  28.687  33.995   7.178
 3428POPC   C1B46663  28.024  33.473   6.151
 3428POPC   C2B46664  28.177  33.493   6.565
 3428POPC   C3B46665  28.179  33.352   6.976
 3428POPC   C4B46666  28.063  33.594   7.316
 3429POPC   NC346667   5.313  31.628   5.195
 3429POPC   PO446668   5.431  31.443   5.771
 3429POPC   GL146669   5.072  31.389   6.004
 3429POPC   GL246670   4.893  31.161   5.808
 3429POPC   C1A46671   4.976  31.481   6.428
 3429POPC   D2A46672   4.696  31.705   6.684
 3429POPC   C3A46673   4.915  31.648   7.051
 3429POPC   C4A46674   5.356  31.613   7.144
 3429POPC   C1B46675   4.807  30.955   6.185
 3429POPC   C2B46676   4.985  30.990   6.574
 3429POPC   C3B46677   5.196  31.215   6.885
 3429POPC   C4B46678   5.094  31.213   7.345
 3430POPC   NC346679  33.786   6.373   5.416
 3430POPC   PO446680  34.272   6.813   5.193
 3430POPC   GL146681  34.052   6.929   5.658
 3430POPC   GL246682  33.664   6.876   5.727
 3430POPC   C1A46683  33.961   6.811   6.142
 3430POPC   D2A46684  34.196   6.700   6.548
 3430POPC   C3A46685  34.021   6.799   6.958
 3430POPC   C4A46686  33.798   6.645   7.288
 3430POPC   C1B46687  33.459   6.992   6.165
 3430POPC   C2B46688  33.284   6.964   6.579
 3430POPC   C3B46689  33.446   6.888   6.988
 3430POPC   C4B46690  33.261   6.907   7.365
 3431POPC   NC346691  41.881  32.873   5.111
 3431POPC   PO446692  42.132  33.330   5.556
 3431POPC   GL146693  42.194  33.297   5.940
 3431POPC   GL246694  42.330  32.969   5.963
 3431POPC   C1A46695  42.153  33.306   6.353
 3431POPC   D2A46696  42.252  32.954   6.568
 3431POPC   C3A46697  42.421  33.072   6.938
 3431POPC   C4A46698  42.410  32.788   7.234
 3431POPC   C1B46699  42.630  33.106   6.244
 3431POPC   C2B46700  42.663  33.389   6.583
 3431POPC   C3B46701  42.884  33.292   6.965
 3431POPC   C4B46702  42.743  33.179   7.364
 3432POPC   NC346703  42.017   7.683   5.298
 3432POPC   PO446704  42.547   7.117   5.380
 3432POPC   GL146705  42.317   7.375   5.677
 3432POPC   GL246706  42.496   7.611   5.897
 3432POPC   C1A46707  42.159   7.280   6.097
 3432POPC   D2A46708  42.379   7.417   6.479
 3432POPC   C3A46709  42.169   7.313   6.871
 3432POPC   C4A46710  42.301   7.457   7.253
 3432POPC   C1B46711  42.160   7.784   6.157
 3432POPC   C2B46712  42.149   7.958   6.554
 3432POPC   C3B46713  42.209   7.835   6.928
 3432POPC   C4B46714  42.180   8.007   7.281
 3433POPC   NC346715   8.514   8.212   5.302
 3433POPC   PO446716   9.114   8.243   5.337
 3433POPC   GL146717   8.810   8.244   5.747
 3433POPC   GL246718   8.544   7.967   5.815
 3433POPC   C1A46719   8.870   8.313   6.236
 3433POPC   D2A46720   8.598   8.190   6.602
 3433POPC   C3A46721   8.720   8.261   7.048
 3433POPC   C4A46722   9.165   8.341   7.258
 3433POPC   C1B46723   8.740   7.825   6.258
 3433POPC   C2B46724   8.882   7.796   6.729
 3433POPC   C3B46725   9.019   7.857   7.165
 3433POPC   C4B46726   9.036   7.778   7.605
 3434POPC   NC346727  29.672  18.098   5.627
 3434POPC   PO446728  29.294  18.459   5.160
 3434POPC   GL146729  29.263  18.507   5.691
 3434POPC   GL246730  29.020  18.318   5.900
 3434POPC   C1A46731  29.432  18.507   6.131
 3434POPC   D2A46732  29.168  18.487   6.502
 3434POPC   C3A46733  29.329  18.297   6.863
 3434POPC   C4A46734  29.044  18.307   7.184
 3434POPC   C1B46735  29.242  18.029   6.210
 3434POPC   C2B46736  29.269  17.814   6.613
 3434POPC   C3B46737  29.197  17.833   7.062
 3434POPC   C4B46738  28.821  17.855   7.301
 3435POPC   NC346739  42.739   8.296   5.585
 3435POPC   PO446740  43.166   7.857   5.419
 3435POPC   GL146741  43.232   7.926   5.836
 3435POPC   GL246742  43.030   7.667   5.915
 3435POPC   C1A46743  43.242   8.041   6.278
 3435POPC   D2A46744  43.037   8.137   6.679
 3435POPC   C3A46745  43.281   8.233   7.047
 3435POPC   C4A46746  43.096   8.511   7.392
 3435POPC   C1B46747  42.762   7.866   6.240
 3435POPC   C2B46748  42.642   7.815   6.668
 3435POPC   C3B46749  42.700   7.994   7.080
 3435POPC   C4B46750  43.028   8.007   7.410
 3436POPC   NC346751   5.653   6.377   5.618
 3436POPC   PO446752   6.088   6.728   5.186
 3436POPC   GL146753   6.124   6.945   5.677
 3436POPC   GL246754   5.765   6.803   5.876
 3436POPC   C1A46755   6.139   6.966   6.141
 3436POPC   D2A46756   5.957   6.773   6.515
 3436POPC   C3A46757   5.985   6.828   6.979
 3436POPC   C4A46758   6.113   6.448   7.199
 3436POPC   C1B46759   5.519   6.653   6.263
 3436POPC   C2B46760   5.539   6.508   6.685
 3436POPC   C3B46761   5.601   6.433   7.099
 3436POPC   C4B46762   5.360   6.517   7.423
 3437POPC   NC346763  38.177  33.050   5.277
 3437POPC   PO446764  38.606  32.640   5.587
 3437POPC   GL146765  38.439  32.783   5.972
 3437POPC   GL246766  38.414  33.122   5.907
 3437POPC   C1A46767  38.368  32.910   6.425
 3437POPC   D2A46768  38.601  32.720   6.760
 3437POPC   C3A46769  38.547  32.931   7.105
 3437POPC   C4A46770  38.265  33.054   7.404
 3437POPC   C1B46771  38.692  33.299   6.236
 3437POPC   C2B46772  38.725  33.258   6.704
 3437POPC   C3B46773  38.724  33.403   7.139
 3437POPC   C4B46774  38.720  33.185   7.548
 3438POPC   NC346775   4.166  29.354   5.339
 3438POPC   PO446776   4.765  29.140   5.419
 3438POPC   GL146777   4.547  29.210   5.802
 3438POPC   GL246778   4.404  29.522   5.758
 3438POPC   C1A46779   4.534  29.048   6.234
 3438POPC   D2A46780   4.549  28.927   6.700
 3438POPC   C3A46781   4.549  29.178   7.070
 3438POPC   C4A46782   4.134  29.078   7.307
 3438POPC   C1B46783   4.263  29.487   6.169
 3438POPC   C2B46784   4.368  29.406   6.551
 3438POPC   C3B46785   4.137  29.389   6.880
 3438POPC   C4B46786   4.084  29.599   7.240
 3439POPC   NC346787  17.606  28.054   5.400
 3439POPC   PO446788  17.715  28.742   5.465
 3439POPC   GL146789  17.802  28.597   5.859
 3439POPC   GL246790  17.551  28.344   5.850
 3439POPC   C1A46791  17.709  28.749   6.242
 3439POPC   D2A46792  17.426  28.729   6.562
 3439POPC   C3A46793  17.601  28.583   6.932
 3439POPC   C4A46794  17.331  28.529   7.256
 3439POPC   C1B46795  17.498  28.283   6.286
 3439POPC   C2B46796  17.704  28.172   6.659
 3439POPC   C3B46797  17.547  28.069   7.063
 3439POPC   C4B46798  17.598  28.145   7.484
 3440POPC   NC346799  24.040  10.456   5.502
 3440POPC   PO446800  23.535  10.937   5.323
 3440POPC   GL146801  23.724  10.807   5.701
 3440POPC   GL246802  23.408  10.853   5.828
 3440POPC   C1A46803  23.726  10.559   6.114
 3440POPC   D2A46804  23.907  10.338   6.486
 3440POPC   C3A46805  23.636  10.372   6.850
 3440POPC   C4A46806  23.728  10.569   7.254
 3440POPC   C1B46807  23.287  10.896   6.243
 3440POPC   C2B46808  23.499  10.763   6.547
 3440POPC   C3B46809  23.534  10.898   6.937
 3440POPC   C4B46810  23.540  11.022   7.368
 3441POPC   NC346811   5.941  19.975   5.414
 3441POPC   PO446812   6.122  19.329   5.525
 3441POPC   GL146813   5.877  19.605   5.794
 3441POPC   GL246814   6.089  19.903   5.882
 3441POPC   C1A46815   5.677  19.788   6.187
 3441POPC   D2A46816   5.618  20.070   6.519
 3441POPC   C3A46817   5.589  19.911   6.948
 3441POPC   C4A46818   5.793  19.913   7.376
 3441POPC   C1B46819   6.167  19.694   6.244
 3441POPC   C2B46820   5.930  19.636   6.596
 3441POPC   C3B46821   6.073  19.712   6.984
 3441POPC   C4B46822   6.089  19.510   7.357
 3442POPC   NC346823   5.637  30.172   5.182
 3442POPC   PO446824   6.227  30.166   5.536
 3442POPC   GL146825   6.142  29.880   5.843
 3442POPC   GL246826   5.793  29.893   5.744
 3442POPC   C1A46827   6.064  29.920   6.272
 3442POPC   D2A46828   5.962  30.209   6.597
 3442POPC   C3A46829   6.059  30.121   7.029
 3442POPC   C4A46830   6.000  29.725   7.242
 3442POPC   C1B46831   5.531  29.751   6.060
 3442POPC   C2B46832   5.647  29.715   6.472
 3442POPC   C3B46833   5.648  29.866   6.861
 3442POPC   C4B46834   5.489  29.752   7.229
 3443POPC   NC346835  33.514  30.090   5.479
 3443POPC   PO446836  34.166  30.312   5.510
 3443POPC   GL146837  34.060  30.140   5.930
 3443POPC   GL246838  33.791  29.932   5.884
 3443POPC   C1A46839  34.053  29.912   6.305
 3443POPC   D2A46840  33.821  30.004   6.663
 3443POPC   C3A46841  34.023  29.830   7.020
 3443POPC   C4A46842  34.133  29.913   7.422
 3443POPC   C1B46843  33.570  29.745   6.254
 3443POPC   C2B46844  33.564  29.582   6.702
 3443POPC   C3B46845  33.519  29.871   7.074
 3443POPC   C4B46846  33.540  29.752   7.499
 3444POPC   NC346847   4.051  40.213   5.652
 3444POPC   PO446848   4.187  40.709   5.230
 3444POPC   GL146849   4.263  40.692   5.665
 3444POPC   GL246850   3.938  40.762   5.787
 3444POPC   C1A46851   4.453  40.729   6.081
 3444POPC   D2A46852   4.397  41.038   6.402
 3444POPC   C3A46853   4.242  40.911   6.805
 3444POPC   C4A46854   4.415  40.646   7.150
 3444POPC   C1B46855   3.956  40.735   6.239
 3444POPC   C2B46856   3.770  40.597   6.637
 3444POPC   C3B46857   3.757  40.851   6.991
 3444POPC   C4B46858   4.033  41.000   7.277
 3445POPC   NC346859  29.211  11.607   5.466
 3445POPC   PO446860  29.506  10.944   5.402
 3445POPC   GL146861  29.280  11.169   5.746
 3445POPC   GL246862  29.450  11.438   5.879
 3445POPC   C1A46863  28.991  11.318   6.100
 3445POPC   D2A46864  29.005  11.188   6.537
 3445POPC   C3A46865  28.959  11.441   6.914
 3445POPC   C4A46866  28.796  11.288   7.307
 3445POPC   C1B46867  29.461  11.379   6.325
 3445POPC   C2B46868  29.622  11.411   6.734
 3445POPC   C3B46869  29.446  11.448   7.127
 3445POPC   C4B46870  29.165  11.629   7.364
 3446POPC   NC346871  35.087  18.079   5.626
 3446POPC   PO446872  35.623  18.525   5.405
 3446POPC   GL146873  35.729  18.459   5.816
 3446POPC   GL246874  35.533  18.173   5.920
 3446POPC   C1A46875  35.665  18.566   6.248
 3446POPC   D2A46876  35.573  18.260   6.592
 3446POPC   C3A46877  35.402  18.374   6.997
 3446POPC   C4A46878  35.593  18.768   7.146
 3446POPC   C1B46879  35.205  18.111   6.263
 3446POPC   C2B46880  35.016  18.324   6.588
 3446POPC   C3B46881  34.879  18.274   6.982
 3446POPC   C4B46882  35.047  18.226   7.366
 3447POPC   NC346883  15.536  12.060   5.368
 3447POPC   PO446884  16.214  11.876   5.370
 3447POPC   GL146885  16.048  12.074   5.765
 3447POPC   GL246886  15.781  12.320   5.751
 3447POPC   C1A46887  15.948  12.038   6.195
 3447POPC   D2A46888  15.670  11.858   6.482
 3447POPC   C3A46889  15.822  12.009   6.849
 3447POPC   C4A46890  15.961  11.962   7.242
 3447POPC   C1B46891  15.840  12.535   6.137
 3447POPC   C2B46892  16.044  12.432   6.559
 3447POPC   C3B46893  15.843  12.505   6.956
 3447POPC   C4B46894  15.649  12.355   7.334
 3448POPC   NC346895  42.290  28.120   5.411
 3448POPC   PO446896  42.656  28.654   5.421
 3448POPC   GL146897  42.399  28.569   5.808
 3448POPC   GL246898  42.271  28.229   5.896
 3448POPC   C1A46899  42.446  28.550   6.258
 3448POPC   D2A46900  42.595  28.460   6.671
 3448POPC   C3A46901  42.319  28.574   7.011
 3448POPC   C4A46902  42.203  28.432   7.392
 3448POPC   C1B46903  42.067  28.152   6.290
 3448POPC   C2B46904  42.025  28.256   6.722
 3448POPC   C3B46905  42.168  28.029   7.081
 3448POPC   C4B46906  41.934  27.814   7.417
 3449POPC   NC346907  44.974  35.677   5.625
 3449POPC   PO446908  44.630  36.019   5.155
 3449POPC   GL146909  44.696  36.129   5.640
 3449POPC   GL246910  44.997  36.139   5.862
 3449POPC   C1A46911  44.520  36.064   6.075
 3449POPC   D2A46912  44.355  36.239   6.432
 3449POPC   C3A46913  44.361  36.014   6.789
 3449POPC   C4A46914  44.375  36.185   7.131
 3449POPC   C1B46915  44.883  36.388   6.246
 3449POPC   C2B46916  44.807  36.255   6.661
 3449POPC   C3B46917  44.883  36.128   7.063
 3449POPC   C4B46918   0.012  36.345   7.401
 3450POPC   NC346919   7.807  15.349   5.594
 3450POPC   PO446920   7.333  14.955   5.457
 3450POPC   GL146921   7.473  15.036   5.853
 3450POPC   GL246922   7.264  15.352   5.834
 3450POPC   C1A46923   7.681  15.166   6.239
 3450POPC   D2A46924   7.541  15.489   6.541
 3450POPC   C3A46925   7.659  15.503   6.960
 3450POPC   C4A46926   7.891  15.253   7.210
 3450POPC   C1B46927   7.154  15.239   6.252
 3450POPC   C2B46928   7.134  15.181   6.697
 3450POPC   C3B46929   7.351  15.101   7.103
 3450POPC   C4B46930   7.261  14.811   7.437
 3451POPC   NC346931   9.412  31.600   5.427
 3451POPC   PO446932   8.883  31.213   5.530
 3451POPC   GL146933   9.070  31.503   5.847
 3451POPC   GL246934   9.376  31.567   5.924
 3451POPC   C1A46935   9.039  31.660   6.290
 3451POPC   D2A46936   8.847  31.555   6.664
 3451POPC   C3A46937   8.969  31.452   7.066
 3451POPC   C4A46938   9.223  31.702   7.293
 3451POPC   C1B46939   9.318  31.224   6.223
 3451POPC   C2B46940   9.258  31.211   6.671
 3451POPC   C3B46941   9.420  31.205   7.104
 3451POPC   C4B46942   9.215  31.071   7.484
 3452POPC   NC346943  10.023   0.473   5.501
 3452POPC   PO446944   9.342   0.360   5.458
 3452POPC   GL146945   9.598   0.307   5.836
 3452POPC   GL246946   9.756   0.618   5.931
 3452POPC   C1A46947   9.682   0.210   6.265
 3452POPC   D2A46948   9.591   0.432   6.636
 3452POPC   C3A46949   9.727   0.363   7.072
 3452POPC   C4A46950   9.725   0.521   7.512
 3452POPC   C1B46951   9.994   0.740   6.305
 3452POPC   C2B46952   9.983   0.727   6.761
 3452POPC   C3B46953   9.996   0.805   7.170
 3452POPC   C4B46954  10.185   0.425   7.303
 3453POPC   NC346955   6.064  11.516   5.383
 3453POPC   PO446956   5.703  10.925   5.497
 3453POPC   GL146957   5.728  11.270   5.707
 3453POPC   GL246958   5.477  11.554   5.621
 3453POPC   C1A46959   5.934  11.224   6.090
 3453POPC   D2A46960   5.710  11.109   6.444
 3453POPC   C3A46961   6.052  11.111   6.739
 3453POPC   C4A46962   6.173  11.110   7.143
 3453POPC   C1B46963   5.650  11.631   6.041
 3453POPC   C2B46964   5.620  11.628   6.481
 3453POPC   C3B46965   5.608  11.396   6.867
 3453POPC   C4B46966   5.848  11.548   7.179
 3454POPC   NC346967   1.827   1.057   5.324
 3454POPC   PO446968   2.141   1.647   5.348
 3454POPC   GL146969   2.084   1.399   5.750
 3454POPC   GL246970   2.089   1.017   5.765
 3454POPC   C1A46971   1.943   1.426   6.210
 3454POPC   D2A46972   1.943   1.690   6.605
 3454POPC   C3A46973   1.737   1.594   7.018
 3454POPC   C4A46974   2.061   1.514   7.343
 3454POPC   C1B46975   1.931   0.913   6.157
 3454POPC   C2B46976   1.985   1.028   6.546
 3454POPC   C3B46977   1.716   1.114   6.853
 3454POPC   C4B46978   1.736   1.138   7.282
 3455POPC   NC346979   1.983  37.803   5.341
 3455POPC   PO446980   1.993  37.198   5.069
 3455POPC   GL146981   2.044  37.360   5.577
 3455POPC   GL246982   1.835  37.655   5.811
 3455POPC   C1A46983   2.187  37.398   6.048
 3455POPC   D2A46984   1.988  37.453   6.475
 3455POPC   C3A46985   2.089  37.482   6.920
 3455POPC   C4A46986   1.721  37.449   7.203
 3455POPC   C1B46987   2.100  37.877   6.181
 3455POPC   C2B46988   2.241  37.905   6.625
 3455POPC   C3B46989   2.003  37.970   7.020
 3455POPC   C4B46990   2.084  38.132   7.400
 3456POPC   NC346991   3.730  33.663   5.247
 3456POPC   PO446992   3.120  33.576   5.664
 3456POPC   GL146993   3.345  33.822   5.945
 3456POPC   GL246994   3.673  33.937   5.733
 3456POPC   C1A46995   3.400  33.757   6.398
 3456POPC   D2A46996   3.667  33.552   6.720
 3456POPC   C3A46997   3.532  33.588   7.160
 3456POPC   C4A46998   3.699  33.756   7.550
 3456POPC   C1B46999   3.851  33.984   6.138
 3456POPC   C2B47000   3.834  34.105   6.555
 3456POPC   C3B47001   3.699  34.019   6.964
 3456POPC   C4B47002   3.755  34.228   7.374
 3457POPC   NC347003   2.096  16.997   5.570
 3457POPC   PO447004   1.858  16.409   5.380
 3457POPC   GL147005   1.941  16.571   5.809
 3457POPC   GL247006   1.634  16.741   5.952
 3457POPC   C1A47007   2.068  16.802   6.210
 3457POPC   D2A47008   1.822  16.753   6.580
 3457POPC   C3A47009   1.904  16.988   6.974
 3457POPC   C4A47010   2.164  17.008   7.383
 3457POPC   C1B47011   1.618  16.323   6.158
 3457POPC   C2B47012   1.752  16.176   6.562
 3457POPC   C3B47013   1.773  16.389   6.937
 3457POPC   C4B47014   1.947  16.573   7.261
 3458POPC   NC347015  39.725  23.024   5.025
 3458POPC   PO447016  39.170  23.112   5.437
 3458POPC   GL147017  39.213  22.849   5.838
 3458POPC   GL247018  39.329  23.183   5.933
 3458POPC   C1A47019  39.162  22.612   6.283
 3458POPC   D2A47020  39.010  22.395   6.713
 3458POPC   C3A47021  39.296  22.546   7.064
 3458POPC   C4A47022  39.579  22.926   7.027
 3458POPC   C1B47023  39.038  23.137   6.229
 3458POPC   C2B47024  39.257  23.079   6.629
 3458POPC   C3B47025  39.048  23.033   7.016
 3458POPC   C4B47026  38.979  22.845   7.408
 3459POPC   NC347027  28.270  31.971   5.387
 3459POPC   PO447028  28.488  31.319   5.427
 3459POPC   GL147029  28.347  31.334   5.847
 3459POPC   GL247030  28.238  31.646   5.775
 3459POPC   C1A47031  28.495  31.352   6.306
 3459POPC   D2A47032  28.489  31.331   6.796
 3459POPC   C3A47033  28.576  31.712   7.062
 3459POPC   C4A47034  28.559  31.747   7.539
 3459POPC   C1B47035  28.078  31.618   6.169
 3459POPC   C2B47036  28.193  31.700   6.579
 3459POPC   C3B47037  28.051  31.594   6.980
 3459POPC   C4B47038  28.253  31.377   7.283
 3460POPC   NC347039  19.233   5.929   5.482
 3460POPC   PO447040  18.692   5.517   5.515
 3460POPC   GL147041  18.864   5.797   5.889
 3460POPC   GL247042  19.141   6.078   5.942
 3460POPC   C1A47043  18.939   5.893   6.349
 3460POPC   D2A47044  19.000   5.712   6.709
 3460POPC   C3A47045  18.965   5.894   7.075
 3460POPC   C4A47046  19.032   5.646   7.438
 3460POPC   C1B47047  19.423   6.091   6.288
 3460POPC   C2B47048  19.430   5.993   6.704
 3460POPC   C3B47049  19.397   6.146   7.098
 3460POPC   C4B47050  19.480   5.848   7.408
 3461POPC   NC347051  29.539  36.099   5.497
 3461POPC   PO447052  29.043  36.521   5.229
 3461POPC   GL147053  28.927  36.225   5.719
 3461POPC   GL247054  29.166  35.916   5.766
 3461POPC   C1A47055  29.001  36.069   6.203
 3461POPC   D2A47056  29.138  35.887   6.581
 3461POPC   C3A47057  29.005  36.071   6.952
 3461POPC   C4A47058  28.709  35.871   7.209
 3461POPC   C1B47059  29.500  36.019   6.134
 3461POPC   C2B47060  29.475  36.278   6.493
 3461POPC   C3B47061  29.679  36.219   6.867
 3461POPC   C4B47062  29.511  36.107   7.246
 3462POPC   NC347063  38.767   6.849   5.522
 3462POPC   PO447064  38.249   6.443   5.440
 3462POPC   GL147065  38.402   6.664   5.835
 3462POPC   GL247066  38.128   6.864   5.914
 3462POPC   C1A47067  38.736   6.682   6.188
 3462POPC   D2A47068  38.574   6.607   6.624
 3462POPC   C3A47069  38.758   6.712   7.009
 3462POPC   C4A47070  38.620   6.728   7.445
 3462POPC   C1B47071  38.300   6.926   6.299
 3462POPC   C2B47072  38.159   6.978   6.711
 3462POPC   C3B47073  38.228   6.827   7.094
 3462POPC   C4B47074  38.336   7.174   7.321
 3463POPC   NC347075  36.771  23.543   5.572
 3463POPC   PO447076  36.859  24.107   5.357
 3463POPC   GL147077  37.019  23.950   5.740
 3463POPC   GL247078  37.285  23.687   5.764
 3463POPC   C1A47079  36.842  23.888   6.148
 3463POPC   D2A47080  37.037  23.902   6.525
 3463POPC   C3A47081  36.881  23.746   6.883
 3463POPC   C4A47082  37.112  23.847   7.210
 3463POPC   C1B47083  37.179  23.498   6.194
 3463POPC   C2B47084  37.075  23.322   6.630
 3463POPC   C3B47085  37.138  23.344   7.084
 3463POPC   C4B47086  37.251  23.432   7.483
 3464POPC   NC347087  39.745  36.657   4.944
 3464POPC   PO447088  40.085  36.856   5.504
 3464POPC   GL147089  40.260  36.993   5.907
 3464POPC   GL247090  39.952  36.790   6.021
 3464POPC   C1A47091  40.252  36.996   6.369
 3464POPC   D2A47092  39.858  36.881   6.556
 3464POPC   C3A47093  39.860  37.045   6.928
 3464POPC   C4A47094  40.066  37.177   7.268
 3464POPC   C1B47095  40.136  36.483   6.343
 3464POPC   C2B47096  40.093  36.452   6.768
 3464POPC   C3B47097  40.279  36.739   7.086
 3464POPC   C4B47098  40.171  36.684   7.537
 3465POPC   NC347099  14.415  28.933   5.334
 3465POPC   PO447100  14.691  29.570   5.291
 3465POPC   GL147101  14.484  29.367   5.656
 3465POPC   GL247102  14.612  29.071   5.789
 3465POPC   C1A47103  14.294  29.355   6.090
 3465POPC   D2A47104  14.466  29.219   6.505
 3465POPC   C3A47105  14.175  29.228   6.862
 3465POPC   C4A47106  14.124  29.578   7.147
 3465POPC   C1B47107  14.380  28.829   6.093
 3465POPC   C2B47108  14.421  28.680   6.517
 3465POPC   C3B47109  14.602  28.865   6.916
 3465POPC   C4B47110  14.468  29.036   7.335
 3466POPC   NC347111  25.350   8.801   5.367
 3466POPC   PO447112  24.953   9.309   5.159
 3466POPC   GL147113  25.253   9.241   5.613
 3466POPC   GL247114  25.202   8.943   5.835
 3466POPC   C1A47115  25.407   9.334   6.064
 3466POPC   D2A47116  25.237   9.490   6.461
 3466POPC   C3A47117  25.286   9.195   6.802
 3466POPC   C4A47118  25.107   9.276   7.148
 3466POPC   C1B47119  25.067   9.006   6.281
 3466POPC   C2B47120  25.065   8.762   6.645
 3466POPC   C3B47121  25.041   8.768   7.090
 3466POPC   C4B47122  25.380   8.705   7.362
 3467POPC   NC347123  42.920  41.827   5.568
 3467POPC   PO447124  43.356  41.393   5.237
 3467POPC   GL147125  43.347  41.507   5.693
 3467POPC   GL247126  43.025  41.455   5.880
 3467POPC   C1A47127  43.399  41.667   6.136
 3467POPC   D2A47128  43.307  41.531   6.549
 3467POPC   C3A47129  43.370  41.854   6.885
 3467POPC   C4A47130  43.384  41.726   7.320
 3467POPC   C1B47131  42.826  41.506   6.279
 3467POPC   C2B47132  42.836  41.687   6.693
 3467POPC   C3B47133  43.058  41.475   7.034
 3467POPC   C4B47134  42.945  41.289   7.434
 3468POPC   NC347135  25.325  10.299   5.545
 3468POPC   PO447136  24.746  10.600   5.306
 3468POPC   GL147137  25.008  10.706   5.715
 3468POPC   GL247138  25.413  10.730   5.795
 3468POPC   C1A47139  25.090  10.796   6.172
 3468POPC   D2A47140  25.006  10.499   6.527
 3468POPC   C3A47141  25.046  10.651   6.964
 3468POPC   C4A47142  25.185  10.431   7.341
 3468POPC   C1B47143  25.518  10.502   6.205
 3468POPC   C2B47144  25.483  10.665   6.646
 3468POPC   C3B47145  25.619  10.418   7.005
 3468POPC   C4B47146  25.730  10.017   7.217
 3469POPC   NC347147   8.004  22.593   5.204
 3469POPC   PO447148   8.295  21.911   5.345
 3469POPC   GL147149   8.159  22.069   5.778
 3469POPC   GL247150   8.017  22.426   5.715
 3469POPC   C1A47151   8.190  21.903   6.232
 3469POPC   D2A47152   8.232  21.745   6.682
 3469POPC   C3A47153   8.230  21.975   7.092
 3469POPC   C4A47154   7.999  21.912   7.513
 3469POPC   C1B47155   8.158  22.423   6.170
 3469POPC   C2B47156   8.342  22.395   6.596
 3469POPC   C3B47157   8.084  22.463   6.947
 3469POPC   C4B47158   8.081  22.391   7.367
 3470POPC   NC347159  41.227  18.791   5.239
 3470POPC   PO447160  41.619  19.194   5.447
 3470POPC   GL147161  41.659  19.003   5.837
 3470POPC   GL247162  41.311  19.077   5.984
 3470POPC   C1A47163  41.703  18.911   6.257
 3470POPC   D2A47164  41.408  19.098   6.552
 3470POPC   C3A47165  41.542  19.052   6.979
 3470POPC   C4A47166  41.823  19.269   7.247
 3470POPC   C1B47167  41.557  19.440   6.166
 3470POPC   C2B47168  41.560  19.668   6.576
 3470POPC   C3B47169  41.463  19.568   7.012
 3470POPC   C4B47170  41.397  19.431   7.453
 3471POPC   NC347171  14.231  39.346   5.383
 3471POPC   PO447172  14.838  39.392   5.345
 3471POPC   GL147173  14.576  39.240   5.741
 3471POPC   GL247174  14.723  38.958   5.879
 3471POPC   C1A47175  14.361  39.262   6.185
 3471POPC   D2A47176  14.557  39.257   6.623
 3471POPC   C3A47177  14.359  39.417   7.009
 3471POPC   C4A47178  14.176  39.174   7.352
 3471POPC   C1B47179  14.459  38.759   6.252
 3471POPC   C2B47180  14.385  38.786   6.734
 3471POPC   C3B47181  14.593  38.962   7.126
 3471POPC   C4B47182  14.548  38.922   7.625
 3472POPC   NC347183  24.050  23.905   5.131
 3472POPC   PO447184  24.661  24.032   5.478
 3472POPC   GL147185  24.526  23.927   5.874
 3472POPC   GL247186  24.609  23.588   5.778
 3472POPC   C1A47187  24.453  24.049   6.307
 3472POPC   D2A47188  24.454  23.802   6.679
 3472POPC   C3A47189  24.279  23.984   7.023
 3472POPC   C4A47190  24.476  24.049   7.399
 3472POPC   C1B47191  24.626  23.518   6.205
 3472POPC   C2B47192  24.480  23.296   6.548
 3472POPC   C3B47193  24.454  23.338   6.986
 3472POPC   C4B47194  24.453  23.568   7.338
 3473POPC   NC347195  17.402  37.252   5.440
 3473POPC   PO447196  17.209  37.917   5.302
 3473POPC   GL147197  17.379  37.855   5.695
 3473POPC   GL247198  17.702  37.691   5.597
 3473POPC   C1A47199  17.305  37.619   6.105
 3473POPC   D2A47200  17.204  37.682   6.553
 3473POPC   C3A47201  17.299  37.469   6.894
 3473POPC   C4A47202  17.576  37.511   7.213
 3473POPC   C1B47203  17.767  37.863   6.018
 3473POPC   C2B47204  17.558  37.986   6.384
 3473POPC   C3B47205  17.636  37.878   6.832
 3473POPC   C4B47206  17.872  37.914   7.255
 3474POPC   NC347207   3.489   3.725   5.419
 3474POPC   PO447208   2.935   3.946   5.680
 3474POPC   GL147209   3.248   3.764   5.942
 3474POPC   GL247210   3.390   3.470   5.869
 3474POPC   C1A47211   3.390   3.692   6.359
 3474POPC   D2A47212   3.471   3.964   6.707
 3474POPC   C3A47213   3.283   3.711   7.011
 3474POPC   C4A47214   3.324   3.263   7.018
 3474POPC   C1B47215   3.748   3.375   6.160
 3474POPC   C2B47216   3.801   3.188   6.548
 3474POPC   C3B47217   3.862   3.289   6.947
 3474POPC   C4B47218   4.010   3.043   7.257
 3475POPC   NC347219  21.138  26.722   5.387
 3475POPC   PO447220  21.835  27.016   5.340
 3475POPC   GL147221  21.670  26.933   5.770
 3475POPC   GL247222  21.309  26.856   5.845
 3475POPC   C1A47223  21.670  26.711   6.180
 3475POPC   D2A47224  21.468  26.431   6.487
 3475POPC   C3A47225  21.493  26.604   6.890
 3475POPC   C4A47226  21.740  26.841   7.194
 3475POPC   C1B47227  21.135  26.787   6.271
 3475POPC   C2B47228  21.247  27.016   6.653
 3475POPC   C3B47229  21.291  27.057   7.091
 3475POPC   C4B47230  21.205  26.676   7.298
 3476POPC   NC347231  10.235  43.140   5.400
 3476POPC   PO447232  10.897  42.959   5.354
 3476POPC   GL147233  10.722  43.210   5.723
 3476POPC   GL247234  10.378  43.128   5.892
 3476POPC   C1A47235  10.775  43.293   6.183
 3476POPC   D2A47236  10.621  43.178   6.594
 3476POPC   C3A47237  10.880  43.222   6.960
 3476POPC   C4A47238  10.788  42.872   7.244
 3476POPC   C1B47239  10.315  42.826   6.241
 3476POPC   C2B47240  10.114  42.702   6.636
 3476POPC   C3B47241  10.341  42.902   6.998
 3476POPC   C4B47242  10.301  42.852   7.466
 3477POPC   NC347243  18.522  41.025   5.465
 3477POPC   PO447244  17.893  40.907   5.214
 3477POPC   GL147245  18.134  40.801   5.730
 3477POPC   GL247246  18.499  40.648   5.838
 3477POPC   C1A47247  18.179  40.858   6.233
 3477POPC   D2A47248  18.002  40.948   6.679
 3477POPC   C3A47249  18.277  41.005   7.046
 3477POPC   C4A47250  18.355  41.037   7.485
 3477POPC   C1B47251  18.471  40.455   6.273
 3477POPC   C2B47252  18.396  40.555   6.701
 3477POPC   C3B47253  18.169  40.507   7.093
 3477POPC   C4B47254  18.300  40.521   7.532
 3478POPC   NC347255  16.588  36.061   5.174
 3478POPC   PO447256  16.538  35.465   5.494
 3478POPC   GL147257  16.669  35.215   5.826
 3478POPC   GL247258  16.772  35.489   6.011
 3478POPC   C1A47259  16.624  35.049   6.236
 3478POPC   D2A47260  16.834  35.214   6.598
 3478POPC   C3A47261  16.602  35.278   6.976
 3478POPC   C4A47262  16.582  35.012   7.308
 3478POPC   C1B47263  16.959  35.824   6.251
 3478POPC   C2B47264  17.174  35.821   6.633
 3478POPC   C3B47265  17.025  35.565   6.931
 3478POPC   C4B47266  16.996  35.462   7.330
 3479POPC   NC347267   6.082  12.319   5.546
 3479POPC   PO447268   5.699  11.892   5.236
 3479POPC   GL147269   5.747  12.006   5.740
 3479POPC   GL247270   6.062  12.081   6.002
 3479POPC   C1A47271   5.624  12.101   6.221
 3479POPC   D2A47272   5.845  12.083   6.597
 3479POPC   C3A47273   5.610  11.978   6.952
 3479POPC   C4A47274   5.663  12.334   7.252
 3479POPC   C1B47275   6.096  11.712   6.284
 3479POPC   C2B47276   6.088  11.634   6.736
 3479POPC   C3B47277   6.115  11.973   7.053
 3479POPC   C4B47278   6.151  12.444   7.081
 3480POPC   NC347279  10.912  31.414   5.111
 3480POPC   PO447280  10.731  31.694   5.667
 3480POPC   GL147281  10.339  31.695   5.869
 3480POPC   GL247282  10.147  31.952   5.778
 3480POPC   C1A47283  10.338  31.677   6.311
 3480POPC   D2A47284  10.703  31.826   6.561
 3480POPC   C3A47285  10.766  31.614   6.956
 3480POPC   C4A47286  10.560  31.254   7.180
 3480POPC   C1B47287  10.089  32.117   6.260
 3480POPC   C2B47288   9.963  31.845   6.628
 3480POPC   C3B47289  10.179  31.673   6.986
 3480POPC   C4B47290  10.054  31.917   7.354
 3481POPC   NC347291  38.013  29.995   5.110
 3481POPC   PO447292  38.527  29.598   5.379
 3481POPC   GL147293  38.471  29.769   5.801
 3481POPC   GL247294  38.353  30.097   5.795
 3481POPC   C1A47295  38.351  29.852   6.246
 3481POPC   D2A47296  38.640  29.774   6.543
 3481POPC   C3A47297  38.551  29.591   7.012
 3481POPC   C4A47298  38.466  29.611   7.505
 3481POPC   C1B47299  38.717  30.158   6.111
 3481POPC   C2B47300  38.647  30.331   6.549
 3481POPC   C3B47301  38.438  30.097   6.884
 3481POPC   C4B47302  38.259  30.067   7.277
 3482POPC   NC347303  13.510  37.220   5.348
 3482POPC   PO447304  13.703  36.551   5.365
 3482POPC   GL147305  13.756  36.830   5.726
 3482POPC   GL247306  14.063  36.654   5.825
 3482POPC   C1A47307  13.565  36.759   6.159
 3482POPC   D2A47308  13.441  36.569   6.580
 3482POPC   C3A47309  13.518  36.854   6.897
 3482POPC   C4A47310  13.578  37.095   7.246
 3482POPC   C1B47311  14.059  36.904   6.179
 3482POPC   C2B47312  13.951  36.849   6.575
 3482POPC   C3B47313  13.989  37.085   6.937
 3482POPC   C4B47314  14.110  36.764   7.195
 3483POPC   NC347315  18.416   7.986   5.395
 3483POPC   PO447316  18.632   8.608   5.462
 3483POPC   GL147317  18.376   8.415   5.807
 3483POPC   GL247318  18.387   8.045   5.888
 3483POPC   C1A47319  18.296   8.363   6.259
 3483POPC   D2A47320  18.489   8.220   6.632
 3483POPC   C3A47321  18.315   8.347   7.004
 3483POPC   C4A47322  18.508   8.335   7.391
 3483POPC   C1B47323  18.268   7.813   6.264
 3483POPC   C2B47324  18.137   7.863   6.688
 3483POPC   C3B47325  18.088   7.915   7.113
 3483POPC   C4B47326  17.769   8.021   7.374
 3484POPC   NC347327  44.266   7.526   5.524
 3484POPC   PO447328  44.942   7.439   5.365
 3484POPC   GL147329  44.783   7.288   5.781
 3484POPC   GL247330  44.664   7.601   5.896
 3484POPC   C1A47331  44.682   7.223   6.221
 3484POPC   D2A47332  44.482   7.431   6.510
 3484POPC   C3A47333  44.749   7.438   6.821
 3484POPC   C4A47334  44.625   7.283   7.165
 3484POPC   C1B47335  44.778   7.788   6.324
 3484POPC   C2B47336  44.589   7.905   6.752
 3484POPC   C3B47337  44.501   7.784   7.206
 3484POPC   C4B47338  44.428   7.770   7.667
 3485POPC   NC347339   6.607  13.023   5.493
 3485POPC   PO447340   6.916  12.479   5.454
 3485POPC   GL147341   6.637  12.622   5.793
 3485POPC   GL247342   6.316  12.567   5.923
 3485POPC   C1A47343   6.643  12.924   6.131
 3485POPC   D2A47344   6.742  12.771   6.512
 3485POPC   C3A47345   6.661  12.842   6.920
 3485POPC   C4A47346   6.798  12.816   7.383
 3485POPC   C1B47347   6.221  12.731   6.347
 3485POPC   C2B47348   6.358  13.142   6.523
 3485POPC   C3B47349   6.316  13.287   6.946
 3485POPC   C4B47350   6.307  12.946   7.250
 3486POPC   NC347351  13.104  35.725   5.372
 3486POPC   PO447352  12.893  35.141   5.281
 3486POPC   GL147353  12.786  35.276   5.713
 3486POPC   GL247354  12.949  35.576   5.835
 3486POPC   C1A47355  12.841  35.157   6.165
 3486POPC   D2A47356  13.049  35.202   6.587
 3486POPC   C3A47357  12.811  35.348   6.954
 3486POPC   C4A47358  12.462  35.192   7.168
 3486POPC   C1B47359  13.254  35.480   6.161
 3486POPC   C2B47360  13.444  35.516   6.568
 3486POPC   C3B47361  13.272  35.574   6.982
 3486POPC   C4B47362  13.092  35.417   7.384
 3487POPC   NC347363  23.927  24.719   5.360
 3487POPC   PO447364  23.649  24.125   5.482
 3487POPC   GL147365  23.535  24.274   5.877
 3487POPC   GL247366  23.858  24.425   5.884
 3487POPC   C1A47367  23.474  24.309   6.337
 3487POPC   D2A47368  23.278  24.540   6.689
 3487POPC   C3A47369  23.497  24.537   7.079
 3487POPC   C4A47370  23.462  24.842   7.438
 3487POPC   C1B47371  23.995  24.310   6.294
 3487POPC   C2B47372  23.928  24.484   6.710
 3487POPC   C3B47373  24.059  24.442   7.140
 3487POPC   C4B47374  23.966  24.140   7.459
 3488POPC   NC347375  42.257   3.984   5.438
 3488POPC   PO447376  42.484   3.310   5.413
 3488POPC   GL147377  42.370   3.410   5.808
 3488POPC   GL247378  42.136   3.662   5.812
 3488POPC   C1A47379  42.485   3.284   6.216
 3488POPC   D2A47380  42.516   3.453   6.622
 3488POPC   C3A47381  42.239   3.415   6.963
 3488POPC   C4A47382  42.531   3.389   7.287
 3488POPC   C1B47383  42.247   3.736   6.254
 3488POPC   C2B47384  41.977   3.777   6.636
 3488POPC   C3B47385  42.056   3.891   7.069
 3488POPC   C4B47386  42.122   3.650   7.443
 3489POPC   NC347387  10.613   1.689   5.321
 3489POPC   PO447388  10.856   2.219   5.716
 3489POPC   GL147389  10.547   2.000   5.950
 3489POPC   GL247390  10.392   1.686   5.815
 3489POPC   C1A47391  10.474   1.954   6.405
 3489POPC   D2A47392  10.506   2.334   6.671
 3489POPC   C3A47393  10.721   2.296   7.059
 3489POPC   C4A47394  10.628   2.222   7.517
 3489POPC   C1B47395  10.710   1.567   6.137
 3489POPC   C2B47396  10.892   1.574   6.513
 3489POPC   C3B47397  10.694   1.718   6.852
 3489POPC   C4B47398  10.716   1.821   7.237
 3490POPC   NC347399  31.686  43.681   5.466
 3490POPC   PO447400  31.365  44.333   5.495
 3490POPC   GL147401  31.543  44.100   5.830
 3490POPC   GL247402  31.404  43.788   5.921
 3490POPC   C1A47403  31.536  44.133   6.283
 3490POPC   D2A47404  31.463  43.826   6.555
 3490POPC   C3A47405  31.460  43.973   6.961
 3490POPC   C4A47406  31.306  43.852   7.333
 3490POPC   C1B47407  31.821  43.729   6.112
 3490POPC   C2B47408  31.882  43.537   6.502
 3490POPC   C3B47409  31.808  43.617   6.900
 3490POPC   C4B47410  31.919  43.765   7.284
 3491POPC   NC347411  23.532   9.601   5.396
 3491POPC   PO447412  23.662  10.221   5.447
 3491POPC   GL147413  23.544  10.021   5.804
 3491POPC   GL247414  23.782   9.745   5.843
 3491POPC   C1A47415  23.581  10.054   6.240
 3491POPC   D2A47416  23.873   9.827   6.541
 3491POPC   C3A47417  23.870   9.935   6.990
 3491POPC   C4A47418  23.537  10.105   7.274
 3491POPC   C1B47419  23.500   9.569   6.183
 3491POPC   C2B47420  23.374   9.716   6.633
 3491POPC   C3B47421  23.458   9.623   7.095
 3491POPC   C4B47422  23.559   9.448   7.529
 3492POPC   NC347423  36.273  19.501   5.418
 3492POPC   PO447424  35.992  20.183   5.413
 3492POPC   GL147425  36.177  19.938   5.820
 3492POPC   GL247426  36.105  19.543   5.907
 3492POPC   C1A47427  36.023  19.874   6.274
 3492POPC   D2A47428  36.063  19.519   6.574
 3492POPC   C3A47429  35.946  19.673   6.984
 3492POPC   C4A47430  36.151  20.017   7.166
 3492POPC   C1B47431  36.397  19.297   6.248
 3492POPC   C2B47432  36.573  19.366   6.678
 3492POPC   C3B47433  36.473  19.635   7.039
 3492POPC   C4B47434  36.207  19.547   7.426
 3493POPC   NC347435   7.888  35.836   5.602
 3493POPC   PO447436   8.419  36.032   5.249
 3493POPC   GL147437   8.383  35.962   5.700
 3493POPC   GL247438   8.227  36.273   5.765
 3493POPC   C1A47439   8.259  35.872   6.153
 3493POPC   D2A47440   8.076  35.934   6.567
 3493POPC   C3A47441   8.261  35.763   6.973
 3493POPC   C4A47442   7.953  35.857   7.293
 3493POPC   C1B47443   8.071  36.355   6.194
 3493POPC   C2B47444   8.247  36.418   6.592
 3493POPC   C3B47445   8.108  36.241   6.993
 3493POPC   C4B47446   8.315  36.185   7.420
 3494POPC   NC347447  43.054  22.512   5.561
 3494POPC   PO447448  43.347  23.114   5.526
 3494POPC   GL147449  43.147  22.915   5.862
 3494POPC   GL247450  43.329  22.630   6.018
 3494POPC   C1A47451  43.002  23.010   6.260
 3494POPC   D2A47452  42.925  22.898   6.690
 3494POPC   C3A47453  43.247  22.738   6.967
 3494POPC   C4A47454  43.169  22.793   7.408
 3494POPC   C1B47455  42.994  22.482   6.296
 3494POPC   C2B47456  42.866  22.385   6.722
 3494POPC   C3B47457  42.773  22.619   7.120
 3494POPC   C4B47458  42.694  22.585   7.582
 3495POPC   NC347459  16.276  41.995   5.409
 3495POPC   PO447460  15.861  42.470   5.217
 3495POPC   GL147461  15.929  42.344   5.633
 3495POPC   GL247462  16.220  42.485   5.772
 3495POPC   C1A47463  15.873  42.160   6.052
 3495POPC   D2A47464  15.929  42.008   6.482
 3495POPC   C3A47465  15.823  42.180   6.861
 3495POPC   C4A47466  15.963  42.132   7.235
 3495POPC   C1B47467  16.119  42.581   6.201
 3495POPC   C2B47468  15.935  42.606   6.597
 3495POPC   C3B47469  16.103  42.645   7.014
 3495POPC   C4B47470  16.179  42.534   7.426
 3496POPC   NC347471  13.661  18.518   5.424
 3496POPC   PO447472  13.149  18.253   5.606
 3496POPC   GL147473  13.357  18.364   5.911
 3496POPC   GL247474  13.640  18.177   5.836
 3496POPC   C1A47475  13.475  18.209   6.317
 3496POPC   D2A47476  13.667  18.141   6.695
 3496POPC   C3A47477  13.462  18.233   7.070
 3496POPC   C4A47478  13.458  18.513   7.394
 3496POPC   C1B47479  13.769  18.581   6.114
 3496POPC   C2B47480  13.912  18.575   6.548
 3496POPC   C3B47481  13.925  18.449   6.989
 3496POPC   C4B47482  13.942  18.012   7.162
 3497POPC   NC347483  16.207  40.424   5.538
 3497POPC   PO447484  15.564  40.067   5.447
 3497POPC   GL147485  15.905  40.098   5.774
 3497POPC   GL247486  16.017  39.758   5.928
 3497POPC   C1A47487  16.105  40.174   6.191
 3497POPC   D2A47488  15.933  39.960   6.559
 3497POPC   C3A47489  16.058  40.039   6.967
 3497POPC   C4A47490  16.101  40.079   7.407
 3497POPC   C1B47491  16.256  39.656   6.297
 3497POPC   C2B47492  16.257  39.587   6.744
 3497POPC   C3B47493  16.270  39.644   7.188
 3497POPC   C4B47494  16.367  39.706   7.638
 3498POPC   NC347495  30.037  19.655   5.346
 3498POPC   PO447496  29.566  20.090   5.603
 3498POPC   GL147497  29.835  19.990   5.920
 3498POPC   GL247498  30.137  19.847   5.829
 3498POPC   C1A47499  29.848  19.702   6.249
 3498POPC   D2A47500  29.919  19.482   6.606
 3498POPC   C3A47501  29.657  19.607   6.963
 3498POPC   C4A47502  29.428  19.547   7.386
 3498POPC   C1B47503  30.316  19.920   6.266
 3498POPC   C2B47504  30.391  19.777   6.673
 3498POPC   C3B47505  30.331  19.906   7.086
 3498POPC   C4B47506  29.979  19.880   7.371
 3499POPC   NC347507  27.148  24.410   5.343
 3499POPC   PO447508  26.772  24.875   5.402
 3499POPC   GL147509  26.671  24.625   5.756
 3499POPC   GL247510  26.916  24.384   5.835
 3499POPC   C1A47511  26.644  24.613   6.230
 3499POPC   D2A47512  26.848  24.535   6.643
 3499POPC   C3A47513  26.675  24.571   7.050
 3499POPC   C4A47514  26.721  24.444   7.475
 3499POPC   C1B47515  27.147  24.586   6.212
 3499POPC   C2B47516  27.362  24.495   6.609
 3499POPC   C3B47517  27.183  24.434   7.032
 3499POPC   C4B47518  27.234  24.550   7.473
 3500POPC   NC347519  21.810   8.799   5.345
 3500POPC   PO447520  21.210   8.964   5.478
 3500POPC   GL147521  21.289   9.233   5.852
 3500POPC   GL247522  21.648   9.359   5.868
 3500POPC   C1A47523  21.163   9.012   6.266
 3500POPC   D2A47524  21.329   8.888   6.676
 3500POPC   C3A47525  21.267   9.053   7.096
 3500POPC   C4A47526  21.268   8.750   7.445
 3500POPC   C1B47527  21.611   9.226   6.314
 3500POPC   C2B47528  21.537   9.351   6.731
 3500POPC   C3B47529  21.755   9.269   7.105
 3500POPC   C4B47530  21.623   9.112   7.467
 3501POPC   NC347531  33.745  39.853   5.338
 3501POPC   PO447532  33.907  40.579   5.416
 3501POPC   GL147533  33.830  40.322   5.814
 3501POPC   GL247534  33.998  39.991   5.854
 3501POPC   C1A47535  33.817  40.189   6.278
 3501POPC   D2A47536  33.607  40.099   6.660
 3501POPC   C3A47537  33.778  40.255   7.066
 3501POPC   C4A47538  33.517  40.227   7.418
 3501POPC   C1B47539  33.873  39.668   6.196
 3501POPC   C2B47540  33.675  39.573   6.617
 3501POPC   C3B47541  33.656  39.753   7.048
 3501POPC   C4B47542  33.833  39.850   7.454
 3502POPC   NC347543  39.821  40.241   5.572
 3502POPC   PO447544  40.232  39.674   5.376
 3502POPC   GL147545  40.006  39.716   5.775
 3502POPC   GL247546  39.642  39.621   5.702
 3502POPC   C1A47547  40.060  39.991   6.152
 3502POPC   D2A47548  39.821  40.108   6.538
 3502POPC   C3A47549  39.957  39.928   6.915
 3502POPC   C4A47550  40.130  40.008   7.273
 3502POPC   C1B47551  39.611  39.777   6.133
 3502POPC   C2B47552  39.634  39.617   6.545
 3502POPC   C3B47553  39.523  39.675   6.958
 3502POPC   C4B47554  39.678  39.657   7.367
 3503POPC   NC347555  40.979  15.701   5.360
 3503POPC   PO447556  41.029  16.389   5.289
 3503POPC   GL147557  40.934  16.220   5.706
 3503POPC   GL247558  40.788  15.890   5.791
 3503POPC   C1A47559  40.994  16.211   6.163
 3503POPC   D2A47560  40.806  16.381   6.549
 3503POPC   C3A47561  40.906  16.285   7.017
 3503POPC   C4A47562  40.991  15.864   7.176
 3503POPC   C1B47563  40.641  15.830   6.232
 3503POPC   C2B47564  40.692  15.879   6.693
 3503POPC   C3B47565  40.501  15.688   7.060
 3503POPC   C4B47566  40.552  15.514   7.487
 3504POPC   NC347567  18.117  11.980   5.214
 3504POPC   PO447568  18.726  12.230   5.281
 3504POPC   GL147569  18.478  12.262   5.753
 3504POPC   GL247570  18.106  12.126   5.757
 3504POPC   C1A47571  18.477  12.008   6.160
 3504POPC   D2A47572  18.636  11.844   6.567
 3504POPC   C3A47573  18.383  11.981   6.923
 3504POPC   C4A47574  18.118  11.988   7.287
 3504POPC   C1B47575  17.957  12.078   6.211
 3504POPC   C2B47576  17.919  12.024   6.678
 3504POPC   C3B47577  17.771  12.246   7.041
 3504POPC   C4B47578  17.882  12.422   7.462
 3505POPC   NC347579  14.723  43.755   5.316
 3505POPC   PO447580  14.103  43.896   5.439
 3505POPC   GL147581  14.365  43.622   5.740
 3505POPC   GL247582  14.749  43.618   5.807
 3505POPC   C1A47583  14.384  43.742   6.163
 3505POPC   D2A47584  14.430  44.052   6.483
 3505POPC   C3A47585  14.444  43.781   6.829
 3505POPC   C4A47586  14.469  43.878   7.234
 3505POPC   C1B47587  14.878  43.879   6.138
 3505POPC   C2B47588  14.883  43.823   6.572
 3505POPC   C3B47589  14.809  44.118   6.897
 3505POPC   C4B47590  14.902  44.170   7.304
 3506POPC   NC347591  36.529  41.604   5.077
 3506POPC   PO447592  37.113  41.494   5.400
 3506POPC   GL147593  37.058  41.635   5.793
 3506POPC   GL247594  36.861  41.374   5.856
 3506POPC   C1A47595  37.043  41.701   6.216
 3506POPC   D2A47596  36.843  41.614   6.596
 3506POPC   C3A47597  37.086  41.664   6.977
 3506POPC   C4A47598  36.766  41.620   7.275
 3506POPC   C1B47599  37.205  41.216   6.117
 3506POPC   C2B47600  37.079  41.158   6.539
 3506POPC   C3B47601  36.872  41.207   6.957
 3506POPC   C4B47602  37.156  41.263   7.311
 3507POPC   NC347603  19.273  14.835   5.490
 3507POPC   PO447604  18.863  15.343   5.408
 3507POPC   GL147605  19.220  15.264   5.744
 3507POPC   GL247606  18.970  15.358   5.927
 3507POPC   C1A47607  19.343  15.031   6.170
 3507POPC   D2A47608  19.223  15.002   6.662
 3507POPC   C3A47609  19.286  15.255   7.061
 3507POPC   C4A47610  19.425  15.175   7.495
 3507POPC   C1B47611  18.932  15.283   6.342
 3507POPC   C2B47612  18.724  15.050   6.660
 3507POPC   C3B47613  18.835  15.047   7.048
 3507POPC   C4B47614  18.884  15.356   7.356
 3508POPC   NC347615  30.376  36.636   5.393
 3508POPC   PO447616  30.886  37.100   5.363
 3508POPC   GL147617  30.597  37.001   5.704
 3508POPC   GL247618  30.829  36.818   5.888
 3508POPC   C1A47619  30.440  37.010   6.163
 3508POPC   D2A47620  30.460  36.828   6.610
 3508POPC   C3A47621  30.555  37.052   7.027
 3508POPC   C4A47622  30.805  37.184   7.443
 3508POPC   C1B47623  30.750  36.563   6.249
 3508POPC   C2B47624  30.945  36.631   6.639
 3508POPC   C3B47625  30.765  36.576   7.034
 3508POPC   C4B47626  30.864  36.694   7.423
 3509POPC   NC347627   5.299  41.945   5.265
 3509POPC   PO447628   4.838  41.442   5.428
 3509POPC   GL147629   5.001  41.651   5.833
 3509POPC   GL247630   5.288  41.865   5.980
 3509POPC   C1A47631   4.966  41.537   6.261
 3509POPC   D2A47632   4.836  41.242   6.600
 3509POPC   C3A47633   4.902  41.425   7.004
 3509POPC   C4A47634   4.991  41.785   7.239
 3509POPC   C1B47635   5.481  41.550   6.248
 3509POPC   C2B47636   5.324  41.526   6.652
 3509POPC   C3B47637   5.483  41.715   7.002
 3509POPC   C4B47638   5.441  41.559   7.380
 3510POPC   NC347639  18.617   9.832   5.446
 3510POPC   PO447640  18.065  10.210   5.423
 3510POPC   GL147641  18.301  10.043   5.816
 3510POPC   GL247642  18.097   9.790   5.937
 3510POPC   C1A47643  18.468   9.984   6.295
 3510POPC   D2A47644  18.470   9.699   6.712
 3510POPC   C3A47645  18.447   9.888   7.174
 3510POPC   C4A47646  18.540   9.990   7.665
 3510POPC   C1B47647  18.338   9.509   6.186
 3510POPC   C2B47648  18.261   9.229   6.485
 3510POPC   C3B47649  18.025   9.353   6.815
 3510POPC   C4B47650  18.305   9.401   7.138
 3511POPC   NC347651  24.981  22.807   4.983
 3511POPC   PO447652  25.276  23.250   5.382
 3511POPC   GL147653  25.028  23.248   5.799
 3511POPC   GL247654  25.118  23.529   5.927
 3511POPC   C1A47655  25.007  23.174   6.302
 3511POPC   D2A47656  25.263  22.867   6.590
 3511POPC   C3A47657  25.377  22.796   7.048
 3511POPC   C4A47658  25.617  22.681   7.423
 3511POPC   C1B47659  25.468  23.348   6.171
 3511POPC   C2B47660  25.407  23.353   6.615
 3511POPC   C3B47661  25.278  23.290   7.027
 3511POPC   C4B47662  25.131  23.488   7.369
 3512POPC   NC347663  20.841   8.618   5.513
 3512POPC   PO447664  20.484   9.170   5.345
 3512POPC   GL147665  20.523   8.978   5.750
 3512POPC   GL247666  20.271   8.741   5.888
 3512POPC   C1A47667  20.389   9.148   6.156
 3512POPC   D2A47668  20.303   8.976   6.523
 3512POPC   C3A47669  20.479   8.974   6.932
 3512POPC   C4A47670  20.435   9.299   7.208
 3512POPC   C1B47671  20.608   8.681   6.202
 3512POPC   C2B47672  20.827   8.744   6.608
 3512POPC   C3B47673  20.883   8.690   7.065
 3512POPC   C4B47674  20.585   8.654   7.409
 3513POPC   NC347675  33.429  23.058   5.552
 3513POPC   PO447676  33.413  22.405   5.316
 3513POPC   GL147677  33.627  22.494   5.746
 3513POPC   GL247678  33.696  22.811   5.902
 3513POPC   C1A47679  33.916  22.449   6.162
 3513POPC   D2A47680  34.033  22.577   6.589
 3513POPC   C3A47681  33.733  22.775   6.871
 3513POPC   C4A47682  33.531  22.815   7.239
 3513POPC   C1B47683  33.640  22.857   6.355
 3513POPC   C2B47684  33.733  23.223   6.635
 3513POPC   C3B47685  33.713  23.294   7.095
 3513POPC   C4B47686  33.843  23.240   7.533
 3514POPC   NC347687  40.088  27.689   5.326
 3514POPC   PO447688  40.124  27.135   5.709
 3514POPC   GL147689  40.052  27.553   5.817
 3514POPC   GL247690  39.748  27.718   5.723
 3514POPC   C1A47691  39.981  27.693   6.215
 3514POPC   D2A47692  40.038  27.446   6.580
 3514POPC   C3A47693  40.121  27.679   6.929
 3514POPC   C4A47694  39.891  27.804   7.263
 3514POPC   C1B47695  39.605  27.383   6.037
 3514POPC   C2B47696  39.457  27.403   6.463
 3514POPC   C3B47697  39.602  27.547   6.866
 3514POPC   C4B47698  39.421  27.584   7.262
 3515POPC   NC347699  31.795  31.534   5.466
 3515POPC   PO447700  31.198  31.511   5.537
 3515POPC   GL147701  31.505  31.372   5.867
 3515POPC   GL247702  31.251  31.540   6.054
 3515POPC   C1A47703  31.584  31.226   6.281
 3515POPC   D2A47704  31.403  31.478   6.589
 3515POPC   C3A47705  31.564  31.516   7.007
 3515POPC   C4A47706  31.410  31.732   7.354
 3515POPC   C1B47707  31.052  31.164   6.167
 3515POPC   C2B47708  31.063  31.096   6.603
 3515POPC   C3B47709  31.076  31.367   6.988
 3515POPC   C4B47710  31.247  31.260   7.389
 3516POPC   NC347711  42.845  16.128   5.514
 3516POPC   PO447712  43.112  15.596   5.329
 3516POPC   GL147713  43.058  15.723   5.774
 3516POPC   GL247714  43.208  16.062   5.879
 3516POPC   C1A47715  43.044  15.720   6.233
 3516POPC   D2A47716  42.731  15.733   6.536
 3516POPC   C3A47717  42.904  15.971   6.839
 3516POPC   C4A47718  43.061  15.867   7.202
 3516POPC   C1B47719  43.037  16.302   6.232
 3516POPC   C2B47720  43.130  16.405   6.683
 3516POPC   C3B47721  42.978  16.407   7.129
 3516POPC   C4B47722  42.654  16.180   7.358
 3517POPC   NC347723  13.389  32.479   5.096
 3517POPC   PO447724  12.698  32.405   5.191
 3517POPC   GL147725  12.745  32.249   5.672
 3517POPC   GL247726  12.643  32.514   5.912
 3517POPC   C1A47727  13.010  32.243   6.106
 3517POPC   D2A47728  13.032  32.492   6.507
 3517POPC   C3A47729  13.011  32.319   6.936
 3517POPC   C4A47730  12.904  32.271   7.396
 3517POPC   C1B47731  12.541  32.334   6.312
 3517POPC   C2B47732  12.560  32.471   6.738
 3517POPC   C3B47733  12.505  32.228   7.083
 3517POPC   C4B47734  12.315  32.225   7.468
 3518POPC   NC347735  34.249  16.580   5.551
 3518POPC   PO447736  34.824  16.952   5.358
 3518POPC   GL147737  34.652  16.878   5.766
 3518POPC   GL247738  34.318  17.008   5.824
 3518POPC   C1A47739  34.719  16.627   6.135
 3518POPC   D2A47740  34.499  16.563   6.524
 3518POPC   C3A47741  34.705  16.516   6.892
 3518POPC   C4A47742  34.535  16.532   7.297
 3518POPC   C1B47743  34.458  17.051   6.230
 3518POPC   C2B47744  34.403  17.049   6.628
 3518POPC   C3B47745  34.350  16.882   6.981
 3518POPC   C4B47746  34.346  16.975   7.409
 3519POPC   NC347747  23.464  21.327   5.416
 3519POPC   PO447748  23.902  21.665   5.161
 3519POPC   GL147749  23.850  21.616   5.629
 3519POPC   GL247750  24.001  21.845   5.861
 3519POPC   C1A47751  23.782  21.367   6.012
 3519POPC   D2A47752  23.833  21.248   6.445
 3519POPC   C3A47753  23.566  21.453   6.769
 3519POPC   C4A47754  23.359  21.469   7.186
 3519POPC   C1B47755  23.753  21.831   6.262
 3519POPC   C2B47756  23.686  21.953   6.693
 3519POPC   C3B47757  23.791  21.757   7.129
 3519POPC   C4B47758  23.859  21.790   7.591
 3520POPC   NC347759  22.761  23.304   5.707
 3520POPC   PO447760  23.117  22.857   5.293
 3520POPC   GL147761  22.971  22.842   5.800
 3520POPC   GL247762  22.683  22.854   5.958
 3520POPC   C1A47763  23.156  22.746   6.205
 3520POPC   D2A47764  23.159  22.699   6.667
 3520POPC   C3A47765  22.896  22.842   7.001
 3520POPC   C4A47766  23.078  23.037   7.391
 3520POPC   C1B47767  22.745  22.923   6.426
 3520POPC   C2B47768  22.710  23.257   6.723
 3520POPC   C3B47769  22.713  23.299   7.171
 3520POPC   C4B47770  22.602  23.109   7.581
 3521POPC   NC347771  38.364   8.528   5.503
 3521POPC   PO447772  38.526   7.977   5.178
 3521POPC   GL147773  38.593   8.065   5.655
 3521POPC   GL247774  38.784   8.359   5.773
 3521POPC   C1A47775  38.446   8.124   6.132
 3521POPC   D2A47776  38.238   8.247   6.578
 3521POPC   C3A47777  38.212   8.019   7.010
 3521POPC   C4A47778  38.266   7.952   7.494
 3521POPC   C1B47779  38.813   8.590   6.155
 3521POPC   C2B47780  38.755   8.583   6.628
 3521POPC   C3B47781  38.514   8.442   6.999
 3521POPC   C4B47782  38.566   8.375   7.463
 3522POPC   NC347783   5.072   7.450   5.332
 3522POPC   PO447784   5.311   6.829   5.209
 3522POPC   GL147785   5.241   7.063   5.651
 3522POPC   GL247786   5.192   7.429   5.816
 3522POPC   C1A47787   5.097   7.030   6.114
 3522POPC   D2A47788   5.179   7.303   6.473
 3522POPC   C3A47789   5.089   7.179   6.886
 3522POPC   C4A47790   5.246   7.408   7.254
 3522POPC   C1B47791   4.847   7.499   6.114
 3522POPC   C2B47792   4.706   7.454   6.560
 3522POPC   C3B47793   4.806   7.586   6.986
 3522POPC   C4B47794   4.698   7.634   7.440
 3523POPC   NC347795  39.409  21.021   5.304
 3523POPC   PO447796  39.291  21.733   5.310
 3523POPC   GL147797  39.240  21.415   5.633
 3523POPC   GL247798  39.542  21.240   5.756
 3523POPC   C1A47799  39.154  21.342   6.077
 3523POPC   D2A47800  39.251  21.379   6.514
 3523POPC   C3A47801  38.988  21.393   6.881
 3523POPC   C4A47802  39.060  21.418   7.312
 3523POPC   C1B47803  39.701  21.248   6.196
 3523POPC   C2B47804  39.687  21.139   6.642
 3523POPC   C3B47805  39.521  21.348   7.008
 3523POPC   C4B47806  39.609  21.163   7.404
 3524POPC   NC347807  43.898   0.769   5.302
 3524POPC   PO447808  43.761   1.361   5.639
 3524POPC   GL147809  44.094   1.358   5.897
 3524POPC   GL247810  44.123   1.002   5.801
 3524POPC   C1A47811  44.032   1.467   6.338
 3524POPC   D2A47812  43.875   1.627   6.713
 3524POPC   C3A47813  44.061   1.455   7.062
 3524POPC   C4A47814  43.895   1.357   7.462
 3524POPC   C1B47815  43.812   1.002   6.185
 3524POPC   C2B47816  43.669   1.155   6.576
 3524POPC   C3B47817  43.783   1.044   6.973
 3524POPC   C4B47818  43.594   0.994   7.327
 3525POPC   NC347819   6.400  29.598   5.481
 3525POPC   PO447820   6.817  30.061   5.238
 3525POPC   GL147821   6.676  29.930   5.715
 3525POPC   GL247822   6.992  29.986   5.828
 3525POPC   C1A47823   6.571  30.014   6.151
 3525POPC   D2A47824   6.796  29.906   6.556
 3525POPC   C3A47825   6.494  29.895   6.913
 3525POPC   C4A47826   6.450  29.906   7.376
 3525POPC   C1B47827   7.018  30.268   6.199
 3525POPC   C2B47828   7.089  30.356   6.644
 3525POPC   C3B47829   6.866  30.231   7.024
 3525POPC   C4B47830   6.958  29.955   7.381
 3526POPC   NC347831  32.983  22.434   5.544
 3526POPC   PO447832  32.621  21.950   5.471
 3526POPC   GL147833  32.947  21.987   5.819
 3526POPC   GL247834  33.302  22.069   5.745
 3526POPC   C1A47835  32.976  22.118   6.262
 3526POPC   D2A47836  33.045  22.314   6.678
 3526POPC   C3A47837  32.834  22.204   7.038
 3526POPC   C4A47838  32.988  22.265   7.424
 3526POPC   C1B47839  33.442  22.282   6.158
 3526POPC   C2B47840  33.545  22.389   6.602
 3526POPC   C3B47841  33.412  22.322   7.060
 3526POPC   C4B47842  33.473  22.403   7.523
 3527POPC   NC347843  34.388  10.352   5.413
 3527POPC   PO447844  34.945  10.729   5.262
 3527POPC   GL147845  34.768  10.593   5.690
 3527POPC   GL247846  34.408  10.652   5.841
 3527POPC   C1A47847  34.772  10.363   6.093
 3527POPC   D2A47848  34.861  10.511   6.527
 3527POPC   C3A47849  34.783  10.295   6.882
 3527POPC   C4A47850  34.524  10.319   7.212
 3527POPC   C1B47851  34.385  10.634   6.310
 3527POPC   C2B47852  34.334  10.543   6.750
 3527POPC   C3B47853  34.240  10.742   7.141
 3527POPC   C4B47854  34.232  10.581   7.550
 3528POPC   NC347855  23.028  31.975   5.519
 3528POPC   PO447856  23.292  32.580   5.464
 3528POPC   GL147857  23.386  32.266   5.851
 3528POPC   GL247858  23.257  31.921   5.956
 3528POPC   C1A47859  23.361  32.238   6.343
 3528POPC   D2A47860  23.025  32.294   6.642
 3528POPC   C3A47861  23.007  32.262   7.089
 3528POPC   C4A47862  22.689  32.455   7.346
 3528POPC   C1B47863  22.874  32.151   6.141
 3528POPC   C2B47864  22.576  32.096   6.486
 3528POPC   C3B47865  22.528  32.190   6.907
 3528POPC   C4B47866  22.599  31.956   7.274
 3529POPC   NC347867   0.683  28.930   5.405
 3529POPC   PO447868   0.215  29.361   5.198
 3529POPC   GL147869   0.537  29.407   5.630
 3529POPC   GL247870   0.488  29.113   5.837
 3529POPC   C1A47871   0.668  29.509   6.101
 3529POPC   D2A47872   0.401  29.503   6.507
 3529POPC   C3A47873   0.441  29.373   6.979
 3529POPC   C4A47874   0.222  29.098   7.330
 3529POPC   C1B47875   0.562  29.041   6.271
 3529POPC   C2B47876   0.651  28.958   6.697
 3529POPC   C3B47877   0.749  28.989   7.131
 3529POPC   C4B47878   0.923  29.371   7.276
 3530POPC   NC347879   9.787  36.461   5.316
 3530POPC   PO447880   9.625  37.097   5.341
 3530POPC   GL147881   9.656  37.032   5.809
 3530POPC   GL247882   9.846  36.700   5.830
 3530POPC   C1A47883   9.738  37.074   6.296
 3530POPC   D2A47884   9.896  36.825   6.674
 3530POPC   C3A47885   9.836  36.912   7.124
 3530POPC   C4A47886   9.709  37.276   7.387
 3530POPC   C1B47887   9.483  36.659   6.143
 3530POPC   C2B47888   9.393  36.702   6.580
 3530POPC   C3B47889   9.531  36.476   6.941
 3530POPC   C4B47890   9.441  36.591   7.368
 3531POPC   NC347891  35.294  35.457   5.164
 3531POPC   PO447892  35.364  35.033   5.659
 3531POPC   GL147893  35.210  35.374   5.945
 3531POPC   GL247894  34.907  35.240   5.919
 3531POPC   C1A47895  35.412  35.560   6.334
 3531POPC   D2A47896  35.675  35.304   6.615
 3531POPC   C3A47897  35.626  35.324   7.063
 3531POPC   C4A47898  35.511  35.182   7.485
 3531POPC   C1B47899  35.013  35.225   6.398
 3531POPC   C2B47900  35.191  35.367   6.799
 3531POPC   C3B47901  35.091  35.251   7.203
 3531POPC   C4B47902  34.878  35.532   7.489
 3532POPC   NC347903  15.846  25.964   5.480
 3532POPC   PO447904  16.438  26.246   5.285
 3532POPC   GL147905  16.254  26.218   5.728
 3532POPC   GL247906  16.158  25.886   5.871
 3532POPC   C1A47907  16.247  26.265   6.204
 3532POPC   D2A47908  15.869  26.271   6.494
 3532POPC   C3A47909  15.863  26.231   6.940
 3532POPC   C4A47910  15.614  26.174   7.304
 3532POPC   C1B47911  15.935  25.808   6.270
 3532POPC   C2B47912  15.876  25.578   6.668
 3532POPC   C3B47913  15.765  25.729   7.081
 3532POPC   C4B47914  15.936  25.855   7.525
 3533POPC   NC347915   7.736  11.581   5.410
 3533POPC   PO447916   7.289  11.194   5.178
 3533POPC   GL147917   7.299  11.218   5.629
 3533POPC   GL247918   7.405  11.511   5.765
 3533POPC   C1A47919   7.325  11.121   6.084
 3533POPC   D2A47920   7.318  11.018   6.516
 3533POPC   C3A47921   7.137  11.087   6.934
 3533POPC   C4A47922   7.493  11.172   7.171
 3533POPC   C1B47923   7.684  11.514   6.077
 3533POPC   C2B47924   7.427  11.584   6.395
 3533POPC   C3B47925   7.401  11.502   6.785
 3533POPC   C4B47926   7.475  11.706   7.142
 3534POPC   NC347927  39.301  17.903   5.453
 3534POPC   PO447928  39.088  18.539   5.345
 3534POPC   GL147929  39.218  18.286   5.794
 3534POPC   GL247930  39.324  17.885   5.945
 3534POPC   C1A47931  39.408  18.283   6.217
 3534POPC   D2A47932  39.569  18.148   6.564
 3534POPC   C3A47933  39.450  18.359   6.898
 3534POPC   C4A47934  39.537  18.253   7.287
 3534POPC   C1B47935  39.000  17.885   6.289
 3534POPC   C2B47936  39.052  18.079   6.639
 3534POPC   C3B47937  39.211  17.914   6.967
 3534POPC   C4B47938  39.040  17.916   7.329
 3535POPC   NC347939  34.023  21.375   5.385
 3535POPC   PO447940  33.484  21.708   5.410
 3535POPC   GL147941  33.576  21.290   5.662
 3535POPC   GL247942  33.898  21.248   5.852
 3535POPC   C1A47943  33.474  21.258   6.125
 3535POPC   D2A47944  33.556  21.469   6.547
 3535POPC   C3A47945  33.469  21.356   6.947
 3535POPC   C4A47946  33.627  21.169   7.294
 3535POPC   C1B47947  33.923  21.479   6.214
 3535POPC   C2B47948  34.067  21.533   6.633
 3535POPC   C3B47949  33.968  21.504   7.056
 3535POPC   C4B47950  34.085  21.886   7.240
 3536POPC   NC347951   8.377  19.427   5.121
 3536POPC   PO447952   8.105  20.063   5.306
 3536POPC   GL147953   8.289  20.000   5.716
 3536POPC   GL247954   7.992  19.893   5.831
 3536POPC   C1A47955   8.407  19.769   6.132
 3536POPC   D2A47956   8.209  19.802   6.533
 3536POPC   C3A47957   8.393  19.775   6.931
 3536POPC   C4A47958   8.246  19.963   7.338
 3536POPC   C1B47959   7.811  19.837   6.215
 3536POPC   C2B47960   7.700  19.721   6.620
 3536POPC   C3B47961   7.879  19.810   7.010
 3536POPC   C4B47962   7.836  19.720   7.472
 3537POPC   NC347963  16.261  44.876   5.426
 3537POPC   PO447964  15.582  44.708   5.293
 3537POPC   GL147965  15.843  44.676   5.650
 3537POPC   GL247966  15.802   0.033   5.656
 3537POPC   C1A47967  16.068  44.782   6.064
 3537POPC   D2A47968  16.116  44.541   6.463
 3537POPC   C3A47969  16.055  44.699   6.899
 3537POPC   C4A47970  16.174  44.424   7.230
 3537POPC   C1B47971  15.618   0.050   6.061
 3537POPC   C2B47972  15.571   0.035   6.503
 3537POPC   C3B47973  15.534  44.810   6.882
 3537POPC   C4B47974  15.703  44.963   7.247
 3538POPC   NC347975  37.410  17.599   5.504
 3538POPC   PO447976  38.016  17.492   5.354
 3538POPC   GL147977  37.865  17.516   5.769
 3538POPC   GL247978  37.844  17.872   5.715
 3538POPC   C1A47979  37.675  17.383   6.177
 3538POPC   D2A47980  37.822  17.269   6.614
 3538POPC   C3A47981  37.612  17.435   6.970
 3538POPC   C4A47982  37.405  17.416   7.371
 3538POPC   C1B47983  37.909  17.873   6.155
 3538POPC   C2B47984  37.654  17.773   6.513
 3538POPC   C3B47985  37.308  17.861   6.756
 3538POPC   C4B47986  37.510  18.018   7.100
 3539POPC   NC347987  42.909  42.700   5.466
 3539POPC   PO447988  43.496  43.058   5.288
 3539POPC   GL147989  43.265  43.287   5.656
 3539POPC   GL247990  42.974  43.098   5.785
 3539POPC   C1A47991  43.260  43.284   6.141
 3539POPC   D2A47992  43.262  42.954   6.461
 3539POPC   C3A47993  43.271  43.128   6.857
 3539POPC   C4A47994  43.131  43.124   7.237
 3539POPC   C1B47995  42.763  43.093   6.187
 3539POPC   C2B47996  42.826  43.198   6.610
 3539POPC   C3B47997  42.702  43.004   7.004
 3539POPC   C4B47998  42.704  43.141   7.493
 3540POPC   NC347999  30.212   2.204   5.333
 3540POPC   PO448000  29.580   1.896   5.287
 3540POPC   GL148001  29.881   1.974   5.673
 3540POPC   GL248002  29.641   2.201   5.835
 3540POPC   C1A48003  30.065   1.937   6.133
 3540POPC   D2A48004  30.055   2.041   6.597
 3540POPC   C3A48005  30.250   1.911   7.025
 3540POPC   C4A48006  30.359   1.996   7.498
 3540POPC   C1B48007  29.758   2.339   6.246
 3540POPC   C2B48008  29.609   2.286   6.653
 3540POPC   C3B48009  29.805   2.235   7.045
 3540POPC   C4B48010  29.767   2.610   7.272
 3541POPC   NC348011  36.301  30.422   5.395
 3541POPC   PO448012  35.754  30.787   5.446
 3541POPC   GL148013  35.880  30.944   5.819
 3541POPC   GL248014  36.154  30.734   5.803
 3541POPC   C1A48015  35.881  30.803   6.236
 3541POPC   D2A48016  36.010  30.583   6.585
 3541POPC   C3A48017  36.084  30.824   6.940
 3541POPC   C4A48018  36.206  30.829   7.361
 3541POPC   C1B48019  36.323  30.537   6.147
 3541POPC   C2B48020  36.525  30.604   6.530
 3541POPC   C3B48021  36.427  30.437   6.921
 3541POPC   C4B48022  36.605  30.519   7.265
 3542POPC   NC348023  21.493  15.574   5.221
 3542POPC   PO448024  21.217  15.016   5.409
 3542POPC   GL148025  21.429  15.099   5.784
 3542POPC   GL248026  21.117  15.162   5.921
 3542POPC   C1A48027  21.508  14.977   6.230
 3542POPC   D2A48028  21.650  15.117   6.665
 3542POPC   C3A48029  21.589  15.038   7.154
 3542POPC   C4A48030  21.595  14.994   7.580
 3542POPC   C1B48031  21.033  15.407   6.261
 3542POPC   C2B48032  21.147  15.354   6.687
 3542POPC   C3B48033  21.147  15.265   7.079
 3542POPC   C4B48034  21.367  15.489   7.365
 3543POPC   NC348035  35.449  23.926   5.401
 3543POPC   PO448036  34.911  23.465   5.474
 3543POPC   GL148037  35.224  23.444   5.837
 3543POPC   GL248038  35.434  23.750   5.865
 3543POPC   C1A48039  35.393  23.480   6.283
 3543POPC   D2A48040  35.568  23.479   6.695
 3543POPC   C3A48041  35.319  23.521   7.056
 3543POPC   C4A48042  35.216  23.374   7.463
 3543POPC   C1B48043  35.238  23.961   6.209
 3543POPC   C2B48044  35.152  23.803   6.629
 3543POPC   C3B48045  34.947  23.902   7.013
 3543POPC   C4B48046  35.087  23.869   7.424
 3544POPC   NC348047   5.207  23.302   5.440
 3544POPC   PO448048   5.114  22.735   5.260
 3544POPC   GL148049   5.033  22.850   5.690
 3544POPC   GL248050   4.737  22.656   5.820
 3544POPC   C1A48051   5.216  23.039   6.085
 3544POPC   D2A48052   5.062  22.978   6.522
 3544POPC   C3A48053   5.160  23.170   6.894
 3544POPC   C4A48054   5.031  23.110   7.317
 3544POPC   C1B48055   4.633  22.898   6.200
 3544POPC   C2B48056   4.568  23.085   6.615
 3544POPC   C3B48057   4.704  22.909   6.993
 3544POPC   C4B48058   4.572  22.787   7.401
 3545POPC   NC348059  26.869   3.491   5.458
 3545POPC   PO448060  26.837   4.106   5.514
 3545POPC   GL148061  26.982   3.814   5.897
 3545POPC   GL248062  27.031   3.416   5.946
 3545POPC   C1A48063  26.990   3.719   6.349
 3545POPC   D2A48064  27.041   3.361   6.605
 3545POPC   C3A48065  26.922   3.406   7.044
 3545POPC   C4A48066  26.854   3.763   7.298
 3545POPC   C1B48067  26.657   3.338   6.240
 3545POPC   C2B48068  26.548   3.302   6.703
 3545POPC   C3B48069  26.429   3.530   7.085
 3545POPC   C4B48070  26.398   3.774   7.515
 3546POPC   NC348071  26.513  23.278   5.366
 3546POPC   PO448072  27.130  23.024   5.522
 3546POPC   GL148073  26.900  23.076   5.855
 3546POPC   GL248074  26.635  22.860   5.786
 3546POPC   C1A48075  27.080  23.125   6.260
 3546POPC   D2A48076  26.974  23.306   6.639
 3546POPC   C3A48077  27.058  23.136   7.018
 3546POPC   C4A48078  26.962  22.950   7.423
 3546POPC   C1B48079  26.566  23.021   6.235
 3546POPC   C2B48080  26.475  23.135   6.669
 3546POPC   C3B48081  26.568  22.959   7.096
 3546POPC   C4B48082  26.621  22.555   7.369
 3547POPC   NC348083  13.913  30.803   5.434
 3547POPC   PO448084  13.245  30.597   5.391
 3547POPC   GL148085  13.499  30.731   5.722
 3547POPC   GL248086  13.371  31.074   5.812
 3547POPC   C1A48087  13.694  30.511   6.069
 3547POPC   D2A48088  13.765  30.687   6.475
 3547POPC   C3A48089  13.725  30.493   6.855
 3547POPC   C4A48090  13.660  30.330   7.250
 3547POPC   C1B48091  13.696  31.062   6.098
 3547POPC   C2B48092  13.565  31.184   6.493
 3547POPC   C3B48093  13.667  31.045   6.879
 3547POPC   C4B48094  13.665  30.847   7.255
 3548POPC   NC348095  19.788  12.503   5.427
 3548POPC   PO448096  20.024  13.099   5.567
 3548POPC   GL148097  19.756  12.944   5.908
 3548POPC   GL248098  19.533  12.601   5.863
 3548POPC   C1A48099  19.954  13.057   6.322
 3548POPC   D2A48100  20.146  12.762   6.605
 3548POPC   C3A48101  20.002  12.787   7.001
 3548POPC   C4A48102  20.063  13.182   7.199
 3548POPC   C1B48103  19.639  12.638   6.320
 3548POPC   C2B48104  19.573  12.915   6.684
 3548POPC   C3B48105  19.524  12.926   7.131
 3548POPC   C4B48106  19.449  12.552   7.344
 3549POPC   NC348107   4.118  15.874   5.595
 3549POPC   PO448108   4.729  16.117   5.517
 3549POPC   GL148109   4.538  15.977   5.892
 3549POPC   GL248110   4.575  15.663   5.779
 3549POPC   C1A48111   4.212  15.978   6.265
 3549POPC   D2A48112   4.005  15.730   6.608
 3549POPC   C3A48113   3.933  15.947   6.998
 3549POPC   C4A48114   4.210  16.290   7.149
 3549POPC   C1B48115   4.472  15.526   6.182
 3549POPC   C2B48116   4.529  15.656   6.589
 3549POPC   C3B48117   4.382  15.694   6.992
 3549POPC   C4B48118   4.540  15.920   7.300
 3550POPC   NC348119  11.407  31.320   5.599
 3550POPC   PO448120  11.195  31.790   5.206
 3550POPC   GL148121  11.237  31.786   5.737
 3550POPC   GL248122  11.582  31.739   5.871
 3550POPC   C1A48123  11.163  31.806   6.214
 3550POPC   D2A48124  11.182  31.535   6.609
 3550POPC   C3A48125  11.279  31.648   7.053
 3550POPC   C4A48126  11.014  31.464   7.397
 3550POPC   C1B48127  11.560  31.470   6.248
 3550POPC   C2B48128  11.615  31.260   6.663
 3550POPC   C3B48129  11.493  31.173   7.102
 3550POPC   C4B48130  11.418  31.204   7.566
 3551POPC   NC348131  26.792  32.761   5.346
 3551POPC   PO448132  27.384  33.026   5.248
 3551POPC   GL148133  27.158  32.950   5.682
 3551POPC   GL248134  26.849  33.162   5.728
 3551POPC   C1A48135  26.856  32.783   6.052
 3551POPC   D2A48136  26.624  32.986   6.422
 3551POPC   C3A48137  26.685  32.890   6.898
 3551POPC   C4A48138  26.914  32.800   7.319
 3551POPC   C1B48139  27.015  33.255   6.166
 3551POPC   C2B48140  27.081  33.120   6.613
 3551POPC   C3B48141  26.983  33.304   7.011
 3551POPC   C4B48142  27.025  33.290   7.438
 3552POPC   NC348143   5.281   4.456   5.477
 3552POPC   PO448144   4.635   4.213   5.355
 3552POPC   GL148145   4.794   4.413   5.766
 3552POPC   GL248146   5.126   4.290   5.956
 3552POPC   C1A48147   4.762   4.484   6.236
 3552POPC   D2A48148   5.046   4.278   6.554
 3552POPC   C3A48149   4.949   4.387   6.987
 3552POPC   C4A48150   4.798   4.277   7.408
 3552POPC   C1B48151   5.251   3.933   6.225
 3552POPC   C2B48152   5.185   3.769   6.599
 3552POPC   C3B48153   5.255   3.952   6.967
 3552POPC   C4B48154   5.114   3.903   7.347
 3553POPC   NC348155  36.788  37.280   5.401
 3553POPC   PO448156  36.557  36.672   5.344
 3553POPC   GL148157  36.611  36.878   5.750
 3553POPC   GL248158  36.956  37.004   5.829
 3553POPC   C1A48159  36.683  36.644   6.133
 3553POPC   D2A48160  36.569  36.757   6.541
 3553POPC   C3A48161  36.901  36.951   6.764
 3553POPC   C4A48162  37.176  36.808   7.121
 3553POPC   C1B48163  36.732  37.164   6.215
 3553POPC   C2B48164  36.612  37.421   6.576
 3553POPC   C3B48165  36.528  37.299   7.010
 3553POPC   C4B48166  36.697  36.937   7.230
 3554POPC   NC348167  20.047  41.198   5.590
 3554POPC   PO448168  19.512  41.548   5.442
 3554POPC   GL148169  19.765  41.535   5.866
 3554POPC   GL248170  19.732  41.189   6.011
 3554POPC   C1A48171  19.923  41.671   6.305
 3554POPC   D2A48172  19.791  41.430   6.700
 3554POPC   C3A48173  19.788  41.606   7.128
 3554POPC   C4A48174  19.826  41.561   7.577
 3554POPC   C1B48175  20.132  41.208   6.254
 3554POPC   C2B48176  20.283  41.290   6.674
 3554POPC   C3B48177  20.130  41.206   7.067
 3554POPC   C4B48178  20.229  41.280   7.467
 3555POPC   NC348179  27.440  37.978   5.437
 3555POPC   PO448180  27.779  37.337   5.443
 3555POPC   GL148181  27.733  37.675   5.732
 3555POPC   GL248182  27.456  37.548   5.835
 3555POPC   C1A48183  27.652  37.892   6.169
 3555POPC   D2A48184  27.843  37.607   6.508
 3555POPC   C3A48185  27.781  37.549   6.975
 3555POPC   C4A48186  27.970  37.750   7.350
 3555POPC   C1B48187  27.320  37.513   6.256
 3555POPC   C2B48188  27.356  37.714   6.658
 3555POPC   C3B48189  27.303  37.705   7.093
 3555POPC   C4B48190  27.361  37.403   7.398
 3556POPC   NC348191  15.840  31.937   4.982
 3556POPC   PO448192  15.961  32.476   5.384
 3556POPC   GL148193  16.002  32.271   5.817
 3556POPC   GL248194  16.024  31.930   5.834
 3556POPC   C1A48195  16.006  32.183   6.284
 3556POPC   D2A48196  16.214  32.255   6.666
 3556POPC   C3A48197  15.882  32.255   6.928
 3556POPC   C4A48198  15.815  32.257   7.335
 3556POPC   C1B48199  15.961  31.689   6.208
 3556POPC   C2B48200  15.952  31.801   6.681
 3556POPC   C3B48201  15.892  31.785   7.155
 3556POPC   C4B48202  15.885  31.878   7.646
 3557POPC   NC348203  11.070  22.761   5.563
 3557POPC   PO448204  11.670  22.979   5.565
 3557POPC   GL148205  11.366  22.936   5.918
 3557POPC   GL248206  11.038  23.148   5.877
 3557POPC   C1A48207  11.157  22.907   6.338
 3557POPC   D2A48208  11.115  22.896   6.801
 3557POPC   C3A48209  11.393  23.086   7.080
 3557POPC   C4A48210  11.311  22.818   7.406
 3557POPC   C1B48211  10.938  23.357   6.248
 3557POPC   C2B48212  10.782  23.260   6.631
 3557POPC   C3B48213  10.937  23.311   7.035
 3557POPC   C4B48214  10.855  22.966   7.301
 3558POPC   NC348215  32.711  12.903   5.531
 3558POPC   PO448216  33.204  13.272   5.360
 3558POPC   GL148217  33.171  12.940   5.764
 3558POPC   GL248218  33.063  12.560   5.747
 3558POPC   C1A48219  33.223  12.760   6.197
 3558POPC   D2A48220  33.096  12.907   6.596
 3558POPC   C3A48221  33.077  12.644   6.942
 3558POPC   C4A48222  33.049  12.784   7.348
 3558POPC   C1B48223  32.766  12.534   6.093
 3558POPC   C2B48224  32.677  12.622   6.523
 3558POPC   C3B48225  32.677  12.337   6.866
 3558POPC   C4B48226  32.686  12.429   7.303
 3559POPC   NC348227   5.052  38.057   4.915
 3559POPC   PO448228   5.172  37.602   5.445
 3559POPC   GL148229   5.164  37.748   5.878
 3559POPC   GL248230   4.812  37.837   5.835
 3559POPC   C1A48231   5.286  37.654   6.337
 3559POPC   D2A48232   5.320  37.815   6.772
 3559POPC   C3A48233   5.185  37.497   7.091
 3559POPC   C4A48234   5.112  37.424   7.553
 3559POPC   C1B48235   4.804  37.508   6.179
 3559POPC   C2B48236   4.852  37.534   6.633
 3559POPC   C3B48237   4.824  37.825   6.953
 3559POPC   C4B48238   4.687  37.524   7.260
 3560POPC   NC348239  29.112  20.114   5.519
 3560POPC   PO448240  29.321  20.806   5.494
 3560POPC   GL148241  29.198  20.760   5.834
 3560POPC   GL248242  28.883  20.607   5.726
 3560POPC   C1A48243  29.344  20.601   6.235
 3560POPC   D2A48244  29.378  20.369   6.628
 3560POPC   C3A48245  29.381  20.705   6.907
 3560POPC   C4A48246  29.240  20.881   7.301
 3560POPC   C1B48247  28.841  20.712   6.172
 3560POPC   C2B48248  28.951  20.666   6.588
 3560POPC   C3B48249  28.877  20.628   7.014
 3560POPC   C4B48250  29.082  20.329   7.242
 3561POPC   NC348251  32.456  44.257   5.353
 3561POPC   PO448252  32.161  43.680   5.500
 3561POPC   GL148253  32.285  43.913   5.817
 3561POPC   GL248254  32.032  44.147   5.694
 3561POPC   C1A48255  32.340  43.733   6.234
 3561POPC   D2A48256  32.574  43.786   6.619
 3561POPC   C3A48257  32.322  43.689   6.995
 3561POPC   C4A48258  32.413  43.691   7.468
 3561POPC   C1B48259  32.010  44.232   6.118
 3561POPC   C2B48260  31.998  44.029   6.522
 3561POPC   C3B48261  31.960  44.154   6.938
 3561POPC   C4B48262  32.233  44.172   7.276
 3562POPC   NC348263  43.312   4.077   5.472
 3562POPC   PO448264  42.644   4.164   5.246
 3562POPC   GL148265  42.926   4.308   5.716
 3562POPC   GL248266  43.313   4.379   5.880
 3562POPC   C1A48267  42.955   4.241   6.211
 3562POPC   D2A48268  42.782   4.395   6.638
 3562POPC   C3A48269  42.969   4.265   7.006
 3562POPC   C4A48270  43.347   4.068   7.093
 3562POPC   C1B48271  43.284   4.630   6.260
 3562POPC   C2B48272  43.334   4.476   6.694
 3562POPC   C3B48273  43.505   4.545   7.106
 3562POPC   C4B48274  43.366   4.803   7.417
 3563POPC   NC348275  39.809  14.245   5.180
 3563POPC   PO448276  39.377  14.852   5.370
 3563POPC   GL148277  39.755  14.663   5.676
 3563POPC   GL248278  39.815  14.278   5.709
 3563POPC   C1A48279  40.014  14.579   6.099
 3563POPC   D2A48280  40.143  14.321   6.501
 3563POPC   C3A48281  40.222  14.446   6.958
 3563POPC   C4A48282  40.067  14.679   7.366
 3563POPC   C1B48283  39.935  14.020   6.095
 3563POPC   C2B48284  39.780  13.998   6.526
 3563POPC   C3B48285  39.775  14.137   6.951
 3563POPC   C4B48286  40.079  14.090   7.288
 3564POPC   NC348287  29.757  28.754   5.126
 3564POPC   PO448288  29.491  28.284   5.425
 3564POPC   GL148289  29.650  28.329   5.877
 3564POPC   GL248290  29.623  28.652   6.025
 3564POPC   C1A48291  29.959  28.333   6.261
 3564POPC   D2A48292  30.219  28.505   6.618
 3564POPC   C3A48293  30.117  28.367   7.076
 3564POPC   C4A48294  30.281  28.256   7.498
 3564POPC   C1B48295  29.821  28.807   6.422
 3564POPC   C2B48296  29.838  28.768   6.883
 3564POPC   C3B48297  29.840  28.737   7.328
 3564POPC   C4B48298  29.830  28.427   7.652
 3565POPC   NC348299  27.803  41.600   5.478
 3565POPC   PO448300  27.108  41.917   5.374
 3565POPC   GL148301  27.400  41.786   5.772
 3565POPC   GL248302  27.757  41.853   5.910
 3565POPC   C1A48303  27.515  41.464   6.133
 3565POPC   D2A48304  27.735  41.297   6.534
 3565POPC   C3A48305  27.515  41.411   6.922
 3565POPC   C4A48306  27.440  41.492   7.343
 3565POPC   C1B48307  27.702  41.945   6.353
 3565POPC   C2B48308  27.737  41.871   6.819
 3565POPC   C3B48309  27.872  41.812   7.254
 3565POPC   C4B48310  28.036  41.994   7.651
 3566POPC   NC348311   5.014  15.736   5.459
 3566POPC   PO448312   5.352  16.367   5.418
 3566POPC   GL148313   5.123  16.147   5.811
 3566POPC   GL248314   5.238  15.796   5.899
 3566POPC   C1A48315   5.152  16.246   6.250
 3566POPC   D2A48316   5.001  16.355   6.677
 3566POPC   C3A48317   5.240  16.375   7.025
 3566POPC   C4A48318   5.148  16.212   7.401
 3566POPC   C1B48319   4.909  15.796   6.198
 3566POPC   C2B48320   4.989  15.862   6.615
 3566POPC   C3B48321   4.985  15.905   7.039
 3566POPC   C4B48322   5.258  15.674   7.342
 3567POPC   NC348323   9.370  14.975   5.603
 3567POPC   PO448324   8.715  15.030   5.617
 3567POPC   GL148325   8.828  15.271   5.937
 3567POPC   GL248326   9.152  15.385   5.852
 3567POPC   C1A48327   8.701  15.267   6.367
 3567POPC   D2A48328   8.595  15.266   6.844
 3567POPC   C3A48329   8.835  15.224   7.248
 3567POPC   C4A48330   8.673  15.408   7.668
 3567POPC   C1B48331   9.214  15.265   6.280
 3567POPC   C2B48332   9.088  15.384   6.684
 3567POPC   C3B48333   9.278  15.427   7.051
 3567POPC   C4B48334   9.311  15.094   7.325
 3568POPC   NC348335  15.680  43.466   5.343
 3568POPC   PO448336  15.896  44.108   5.483
 3568POPC   GL148337  15.716  44.022   5.839
 3568POPC   GL248338  15.776  43.678   5.799
 3568POPC   C1A48339  15.865  44.079   6.255
 3568POPC   D2A48340  16.194  43.937   6.518
 3568POPC   C3A48341  16.100  43.975   6.953
 3568POPC   C4A48342  16.316  43.941   7.336
 3568POPC   C1B48343  15.812  43.571   6.222
 3568POPC   C2B48344  15.687  43.708   6.622
 3568POPC   C3B48345  15.645  43.508   7.003
 3568POPC   C4B48346  15.915  43.627   7.303
 3569POPC   NC348347  25.737  29.294   5.503
 3569POPC   PO448348  25.311  28.847   5.331
 3569POPC   GL148349  25.295  29.126   5.702
 3569POPC   GL248350  25.586  28.997   5.891
 3569POPC   C1A48351  25.196  29.221   6.143
 3569POPC   D2A48352  24.992  29.122   6.541
 3569POPC   C3A48353  25.099  29.371   6.897
 3569POPC   C4A48354  24.943  29.309   7.295
 3569POPC   C1B48355  25.549  28.877   6.308
 3569POPC   C2B48356  25.545  29.062   6.690
 3569POPC   C3B48357  25.582  28.862   7.052
 3569POPC   C4B48358  25.397  29.102   7.320
 3570POPC   NC348359   3.428  10.120   5.410
 3570POPC   PO448360   3.774  10.689   5.263
 3570POPC   GL148361   3.768  10.478   5.675
 3570POPC   GL248362   3.481  10.607   5.889
 3570POPC   C1A48363   3.873  10.432   6.145
 3570POPC   D2A48364   3.712  10.669   6.490
 3570POPC   C3A48365   3.669  10.541   6.918
 3570POPC   C4A48366   3.386  10.729   7.178
 3570POPC   C1B48367   3.392  10.270   6.203
 3570POPC   C2B48368   3.321  10.266   6.653
 3570POPC   C3B48369   3.192  10.256   7.080
 3570POPC   C4B48370   3.063  10.200   7.501
 3571POPC   NC348371  28.819  10.137   5.386
 3571POPC   PO448372  29.076   9.542   5.482
 3571POPC   GL148373  29.024   9.859   5.787
 3571POPC   GL248374  29.344   9.961   5.877
 3571POPC   C1A48375  28.941   9.939   6.227
 3571POPC   D2A48376  28.960   9.700   6.606
 3571POPC   C3A48377  28.904   9.868   7.011
 3571POPC   C4A48378  28.974   9.495   7.249
 3571POPC   C1B48379  29.399   9.708   6.264
 3571POPC   C2B48380  29.456   9.754   6.726
 3571POPC   C3B48381  29.393   9.770   7.173
 3571POPC   C4B48382  29.492   9.984   7.563
 3572POPC   NC348383   4.107  30.122   5.094
 3572POPC   PO448384   3.628  29.923   5.490
 3572POPC   GL148385   3.562  30.072   5.920
 3572POPC   GL248386   3.313  30.369   5.833
 3572POPC   C1A48387   3.604  29.941   6.378
 3572POPC   D2A48388   3.390  29.758   6.747
 3572POPC   C3A48389   3.614  29.844   7.132
 3572POPC   C4A48390   3.748  29.845   7.553
 3572POPC   C1B48391   3.280  30.318   6.278
 3572POPC   C2B48392   3.364  30.258   6.721
 3572POPC   C3B48393   3.177  30.158   7.129
 3572POPC   C4B48394   3.290  30.066   7.586
 3573POPC   NC348395  39.224  25.388   5.345
 3573POPC   PO448396  39.822  25.523   5.539
 3573POPC   GL148397  39.481  25.385   5.816
 3573POPC   GL248398  39.337  25.047   5.711
 3573POPC   C1A48399  39.186  25.533   6.152
 3573POPC   D2A48400  38.954  25.338   6.507
 3573POPC   C3A48401  39.102  25.433   6.939
 3573POPC   C4A48402  39.140  25.194   7.330
 3573POPC   C1B48403  39.232  25.028   6.136
 3573POPC   C2B48404  39.431  25.176   6.511
 3573POPC   C3B48405  39.484  25.054   6.920
 3573POPC   C4B48406  39.582  24.921   7.312
 3574POPC   NC348407  41.976  18.818   5.473
 3574POPC   PO448408  42.576  18.901   5.193
 3574POPC   GL148409  42.412  19.019   5.683
 3574POPC   GL248410  42.507  18.790   5.956
 3574POPC   C1A48411  42.141  19.190   6.088
 3574POPC   D2A48412  41.924  19.304   6.518
 3574POPC   C3A48413  42.177  19.283   6.897
 3574POPC   C4A48414  42.317  19.307   7.338
 3574POPC   C1B48415  42.175  18.690   6.239
 3574POPC   C2B48416  42.034  18.821   6.658
 3574POPC   C3B48417  42.288  18.792   7.037
 3574POPC   C4B48418  42.359  18.462   7.330
 3575POPC   NC348419  42.372  37.479   5.195
 3575POPC   PO448420  42.273  36.836   5.394
 3575POPC   GL148421  42.251  36.852   5.803
 3575POPC   GL248422  42.517  36.608   5.858
 3575POPC   C1A48423  42.246  37.002   6.220
 3575POPC   D2A48424  42.357  37.240   6.615
 3575POPC   C3A48425  42.254  37.039   7.028
 3575POPC   C4A48426  42.097  36.784   7.340
 3575POPC   C1B48427  42.655  36.699   6.277
 3575POPC   C2B48428  42.464  36.746   6.665
 3575POPC   C3B48429  42.417  36.512   7.037
 3575POPC   C4B48430  42.500  36.475   7.488
 3576POPC   NC348431   9.989  20.000   5.576
 3576POPC   PO448432  10.280  19.358   5.562
 3576POPC   GL148433   9.888  19.583   5.831
 3576POPC   GL248434   9.572  19.871   5.822
 3576POPC   C1A48435   9.830  19.755   6.251
 3576POPC   D2A48436  10.094  19.943   6.591
 3576POPC   C3A48437   9.917  19.952   7.013
 3576POPC   C4A48438   9.837  19.632   7.335
 3576POPC   C1B48439   9.384  20.164   6.131
 3576POPC   C2B48440   9.546  20.067   6.536
 3576POPC   C3B48441   9.405  19.959   6.933
 3576POPC   C4B48442   9.356  20.171   7.325
 3577POPC   NC348443   6.985  36.811   5.233
 3577POPC   PO448444   7.633  36.958   5.198
 3577POPC   GL148445   7.552  36.793   5.672
 3577POPC   GL248446   7.179  36.703   5.737
 3577POPC   C1A48447   7.628  36.673   6.151
 3577POPC   D2A48448   7.732  36.556   6.620
 3577POPC   C3A48449   7.564  36.838   6.970
 3577POPC   C4A48450   7.434  36.681   7.364
 3577POPC   C1B48451   7.116  36.881   6.177
 3577POPC   C2B48452   7.170  36.803   6.634
 3577POPC   C3B48453   7.006  36.842   7.060
 3577POPC   C4B48454   7.047  37.019   7.483
 3578POPC   NC348455  22.941   1.618   5.010
 3578POPC   PO448456  22.907   1.129   5.287
 3578POPC   GL148457  23.031   1.059   5.760
 3578POPC   GL248458  23.121   1.386   5.937
 3578POPC   C1A48459  22.952   1.023   6.245
 3578POPC   D2A48460  22.704   1.111   6.617
 3578POPC   C3A48461  22.842   1.092   7.041
 3578POPC   C4A48462  22.766   0.848   7.400
 3578POPC   C1B48463  22.909   1.536   6.355
 3578POPC   C2B48464  22.848   1.572   6.830
 3578POPC   C3B48465  23.036   1.528   7.239
 3578POPC   C4B48466  23.025   1.490   7.706
 3579POPC   NC348467  34.726  42.114   5.546
 3579POPC   PO448468  34.248  42.474   5.311
 3579POPC   GL148469  34.250  42.430   5.782
 3579POPC   GL248470  34.274  42.092   5.855
 3579POPC   C1A48471  34.308  42.466   6.275
 3579POPC   D2A48472  34.377  42.695   6.705
 3579POPC   C3A48473  34.458  42.508   7.154
 3579POPC   C4A48474  34.746  42.683   7.518
 3579POPC   C1B48475  34.416  41.956   6.275
 3579POPC   C2B48476  34.394  42.107   6.713
 3579POPC   C3B48477  34.482  41.947   7.130
 3579POPC   C4B48478  34.278  42.011   7.547
 3580POPC   NC348479  40.992  19.752   5.384
 3580POPC   PO448480  40.622  20.292   5.152
 3580POPC   GL148481  40.552  19.935   5.608
 3580POPC   GL248482  40.806  19.719   5.850
 3580POPC   C1A48483  40.418  19.883   6.109
 3580POPC   D2A48484  40.630  19.738   6.508
 3580POPC   C3A48485  40.436  19.862   6.897
 3580POPC   C4A48486  40.573  19.969   7.274
 3580POPC   C1B48487  41.048  19.564   6.211
 3580POPC   C2B48488  41.064  19.475   6.656
 3580POPC   C3B48489  40.959  19.731   7.024
 3580POPC   C4B48490  41.057  19.825   7.449
 3581POPC   NC348491  18.259  37.400   5.319
 3581POPC   PO448492  18.564  36.763   5.414
 3581POPC   GL148493  18.569  36.801   5.835
 3581POPC   GL248494  18.210  36.759   5.880
 3581POPC   C1A48495  18.454  37.061   6.212
 3581POPC   D2A48496  18.154  37.015   6.538
 3581POPC   C3A48497  18.309  36.854   6.902
 3581POPC   C4A48498  18.254  36.822   7.304
 3581POPC   C1B48499  18.107  36.448   6.195
 3581POPC   C2B48500  18.273  36.396   6.601
 3581POPC   C3B48501  18.146  36.391   7.034
 3581POPC   C4B48502  17.940  36.405   7.438
 3582POPC   NC348503   3.368  29.553   5.507
 3582POPC   PO448504   3.774  29.077   5.303
 3582POPC   GL148505   3.666  29.162   5.715
 3582POPC   GL248506   3.991  29.207   5.822
 3582POPC   C1A48507   3.596  29.062   6.191
 3582POPC   D2A48508   3.330  29.125   6.591
 3582POPC   C3A48509   3.360  28.975   7.051
 3582POPC   C4A48510   3.262  29.068   7.506
 3582POPC   C1B48511   3.768  29.535   6.067
 3582POPC   C2B48512   3.760  29.450   6.509
 3582POPC   C3B48513   3.647  29.366   6.924
 3582POPC   C4B48514   3.663  29.323   7.332
 3583POPC   NC348515   4.867   1.653   5.415
 3583POPC   PO448516   5.169   2.238   5.243
 3583POPC   GL148517   5.169   2.098   5.742
 3583POPC   GL248518   5.093   1.726   5.881
 3583POPC   C1A48519   5.024   2.086   6.223
 3583POPC   D2A48520   5.241   2.003   6.623
 3583POPC   C3A48521   5.299   2.287   6.973
 3583POPC   C4A48522   5.192   2.015   7.299
 3583POPC   C1B48523   4.759   1.619   6.223
 3583POPC   C2B48524   4.727   1.641   6.696
 3583POPC   C3B48525   4.941   1.627   7.065
 3583POPC   C4B48526   4.932   1.625   7.521
 3584POPC   NC348527   8.381  39.593   5.714
 3584POPC   PO448528   7.984  40.097   5.490
 3584POPC   GL148529   8.054  39.925   5.909
 3584POPC   GL248530   7.789  39.683   5.979
 3584POPC   C1A48531   8.392  40.003   6.239
 3584POPC   D2A48532   8.482  40.190   6.640
 3584POPC   C3A48533   8.105  40.208   6.873
 3584POPC   C4A48534   7.922  40.076   7.254
 3584POPC   C1B48535   8.095  39.582   6.318
 3584POPC   C2B48536   8.095  39.719   6.737
 3584POPC   C3B48537   7.858  39.607   7.080
 3584POPC   C4B48538   7.813  39.694   7.581
 3585POPC   NC348539   0.841  34.144   5.679
 3585POPC   PO448540   0.722  33.470   5.506
 3585POPC   GL148541   0.513  33.728   5.826
 3585POPC   GL248542   0.402  34.092   5.925
 3585POPC   C1A48543   0.397  33.710   6.246
 3585POPC   D2A48544   0.238  33.681   6.631
 3585POPC   C3A48545   0.613  33.653   6.855
 3585POPC   C4A48546   0.637  33.548   7.284
 3585POPC   C1B48547   0.074  34.127   6.275
 3585POPC   C2B48548   0.047  34.140   6.736
 3585POPC   C3B48549   0.286  33.945   7.080
 3585POPC   C4B48550   0.202  33.906   7.484
 3586POPC   NC348551  21.651  40.904   5.380
 3586POPC   PO448552  21.039  40.561   5.278
 3586POPC   GL148553  21.339  40.606   5.658
 3586POPC   GL248554  21.337  40.957   5.768
 3586POPC   C1A48555  21.576  40.629   6.080
 3586POPC   D2A48556  21.714  40.802   6.477
 3586POPC   C3A48557  21.518  40.740   6.847
 3586POPC   C4A48558  21.681  40.510   7.182
 3586POPC   C1B48559  21.576  41.163   6.110
 3586POPC   C2B48560  21.504  41.277   6.542
 3586POPC   C3B48561  21.208  41.138   6.840
 3586POPC   C4B48562  21.122  40.851   7.181
 3587POPC   NC348563  26.891   2.495   5.461
 3587POPC   PO448564  26.585   3.122   5.436
 3587POPC   GL148565  26.826   2.904   5.824
 3587POPC   GL248566  27.029   2.562   5.935
 3587POPC   C1A48567  26.892   2.898   6.282
 3587POPC   D2A48568  26.703   2.706   6.626
 3587POPC   C3A48569  26.795   2.908   6.990
 3587POPC   C4A48570  26.696   2.839   7.409
 3587POPC   C1B48571  27.191   2.468   6.349
 3587POPC   C2B48572  27.095   2.434   6.779
 3587POPC   C3B48573  27.055   2.520   7.215
 3587POPC   C4B48574  27.038   2.577   7.669
 3588POPC   NC348575  32.712  39.947   5.584
 3588POPC   PO448576  33.262  39.909   5.100
 3588POPC   GL148577  33.332  40.161   5.568
 3588POPC   GL248578  33.046  40.371   5.767
 3588POPC   C1A48579  33.364  40.142   6.067
 3588POPC   D2A48580  33.152  39.873   6.399
 3588POPC   C3A48581  33.183  39.841   6.860
 3588POPC   C4A48582  33.206  39.698   7.293
 3588POPC   C1B48583  32.860  40.272   6.218
 3588POPC   C2B48584  32.871  40.228   6.695
 3588POPC   C3B48585  32.889  40.163   7.158
 3588POPC   C4B48586  32.666  39.903   7.475
 3589POPC   NC348587  29.614  35.702   5.003
 3589POPC   PO448588  29.004  35.592   5.337
 3589POPC   GL148589  28.921  35.476   5.786
 3589POPC   GL248590  29.194  35.267   5.906
 3589POPC   C1A48591  28.824  35.566   6.240
 3589POPC   D2A48592  28.719  35.290   6.608
 3589POPC   C3A48593  28.943  35.236   6.984
 3589POPC   C4A48594  29.130  35.579   7.127
 3589POPC   C1B48595  29.334  35.543   6.204
 3589POPC   C2B48596  29.276  35.400   6.614
 3589POPC   C3B48597  29.466  35.152   6.901
 3589POPC   C4B48598  29.410  35.195   7.316
 3590POPC   NC348599  43.545  30.481   5.507
 3590POPC   PO448600  43.117  30.970   5.212
 3590POPC   GL148601  43.195  30.840   5.671
 3590POPC   GL248602  43.463  31.072   5.775
 3590POPC   C1A48603  43.206  30.535   6.068
 3590POPC   D2A48604  42.967  30.587   6.435
 3590POPC   C3A48605  42.999  30.556   6.886
 3590POPC   C4A48606  42.740  30.728   7.238
 3590POPC   C1B48607  43.299  30.995   6.231
 3590POPC   C2B48608  43.386  30.819   6.659
 3590POPC   C3B48609  43.252  30.932   7.090
 3590POPC   C4B48610  43.090  31.049   7.469
 3591POPC   NC348611  26.454  22.427   5.473
 3591POPC   PO448612  27.100  22.031   5.406
 3591POPC   GL148613  26.939  22.061   5.816
 3591POPC   GL248614  26.862  22.392   5.806
 3591POPC   C1A48615  26.799  22.146   6.266
 3591POPC   D2A48616  26.641  22.345   6.652
 3591POPC   C3A48617  26.733  22.177   7.057
 3591POPC   C4A48618  26.926  21.849   7.190
 3591POPC   C1B48619  26.923  22.651   6.180
 3591POPC   C2B48620  26.873  22.800   6.611
 3591POPC   C3B48621  26.979  22.625   7.002
 3591POPC   C4B48622  27.108  22.415   7.381
 3592POPC   NC348623  12.011  18.794   5.476
 3592POPC   PO448624  11.693  19.415   5.495
 3592POPC   GL148625  11.923  19.107   5.845
 3592POPC   GL248626  12.281  19.137   5.916
 3592POPC   C1A48627  11.991  18.810   6.205
 3592POPC   D2A48628  12.142  18.843   6.643
 3592POPC   C3A48629  11.866  19.062   6.921
 3592POPC   C4A48630  11.737  18.779   7.235
 3592POPC   C1B48631  12.164  19.268   6.314
 3592POPC   C2B48632  12.349  19.335   6.684
 3592POPC   C3B48633  12.364  19.373   7.093
 3592POPC   C4B48634  12.000  19.440   7.280
 3593POPC   NC348635   7.122  33.507   5.552
 3593POPC   PO448636   7.399  34.124   5.467
 3593POPC   GL148637   7.525  33.780   5.758
 3593POPC   GL248638   7.416  34.006   5.951
 3593POPC   C1A48639   7.429  33.577   6.217
 3593POPC   D2A48640   7.067  33.443   6.533
 3593POPC   C3A48641   7.072  33.564   6.996
 3593POPC   C4A48642   7.414  33.542   7.333
 3593POPC   C1B48643   7.589  34.174   6.249
 3593POPC   C2B48644   7.653  33.967   6.593
 3593POPC   C3B48645   7.507  33.878   6.965
 3593POPC   C4B48646   7.667  33.980   7.359
 3594POPC   NC348647  44.782  38.492   5.149
 3594POPC   PO448648  44.548  38.973   5.565
 3594POPC   GL148649  44.682  38.574   5.765
 3594POPC   GL248650  44.971  38.329   5.630
 3594POPC   C1A48651  44.761  38.654   6.202
 3594POPC   D2A48652  44.576  38.492   6.543
 3594POPC   C3A48653  44.619  38.691   6.924
 3594POPC   C4A48654  44.463  38.508   7.306
 3594POPC   C1B48655  44.830  38.141   6.026
 3594POPC   C2B48656  44.833  38.027   6.473
 3594POPC   C3B48657  44.798  38.168   6.889
 3594POPC   C4B48658  44.763  38.046   7.273
 3595POPC   NC348659  39.046   9.187   5.438
 3595POPC   PO448660  39.222   8.587   5.175
 3595POPC   GL148661  39.228   8.664   5.664
 3595POPC   GL248662  39.091   8.986   5.893
 3595POPC   C1A48663  39.369   8.646   6.109
 3595POPC   D2A48664  39.127   8.874   6.436
 3595POPC   C3A48665  39.203   8.819   6.875
 3595POPC   C4A48666  39.209   8.898   7.329
 3595POPC   C1B48667  39.349   9.257   6.201
 3595POPC   C2B48668  39.389   9.267   6.677
 3595POPC   C3B48669  39.116   9.329   7.053
 3595POPC   C4B48670  38.855   9.268   7.430
 3596POPC   NC348671  19.672  36.158   4.947
 3596POPC   PO448672  19.861  36.407   5.566
 3596POPC   GL148673  19.829  36.205   5.910
 3596POPC   GL248674  19.677  35.891   5.751
 3596POPC   C1A48675  19.632  36.299   6.300
 3596POPC   D2A48676  19.478  36.014   6.599
 3596POPC   C3A48677  19.619  36.149   6.977
 3596POPC   C4A48678  19.958  36.373   7.102
 3596POPC   C1B48679  19.757  35.796   6.197
 3596POPC   C2B48680  20.012  35.997   6.520
 3596POPC   C3B48681  20.168  35.954   6.925
 3596POPC   C4B48682  19.920  35.799   7.250
 3597POPC   NC348683  17.813   9.826   5.464
 3597POPC   PO448684  17.222   9.572   5.650
 3597POPC   GL148685  17.255   9.886   5.927
 3597POPC   GL248686  17.597   9.982   5.873
 3597POPC   C1A48687  17.222   9.821   6.385
 3597POPC   D2A48688  17.530   9.652   6.703
 3597POPC   C3A48689  17.322   9.737   7.063
 3597POPC   C4A48690  17.096  10.056   7.246
 3597POPC   C1B48691  17.693   9.790   6.230
 3597POPC   C2B48692  18.008   9.756   6.509
 3597POPC   C3B48693  17.984   9.845   6.954
 3597POPC   C4B48694  17.746   9.849   7.328
 3598POPC   NC348695  40.185  10.492   4.697
 3598POPC   PO448696  39.871  10.400   5.302
 3598POPC   GL148697  39.892  10.454   5.809
 3598POPC   GL248698  39.535  10.318   5.815
 3598POPC   C1A48699  40.109  10.471   6.297
 3598POPC   D2A48700  40.169  10.215   6.714
 3598POPC   C3A48701  40.178  10.412   7.150
 3598POPC   C4A48702  40.306  10.823   7.405
 3598POPC   C1B48703  39.604  10.449   6.238
 3598POPC   C2B48704  39.732  10.589   6.658
 3598POPC   C3B48705  39.681  10.525   7.084
 3598POPC   C4B48706  39.794  10.824   7.369
 3599POPC   NC348707  34.064  37.618   5.505
 3599POPC   PO448708  33.456  37.347   5.494
 3599POPC   GL148709  33.614  37.596   5.807
 3599POPC   GL248710  33.657  37.938   5.747
 3599POPC   C1A48711  33.865  37.487   6.179
 3599POPC   D2A48712  34.167  37.366   6.510
 3599POPC   C3A48713  33.961  37.369   6.901
 3599POPC   C4A48714  33.932  37.621   7.264
 3599POPC   C1B48715  33.440  37.937   6.167
 3599POPC   C2B48716  33.519  38.110   6.574
 3599POPC   C3B48717  33.647  37.937   6.961
 3599POPC   C4B48718  33.521  37.893   7.365
 3600POPC   NC348719   0.702  35.050   5.349
 3600POPC   PO448720   0.065  35.203   5.534
 3600POPC   GL148721   0.392  35.462   5.815
 3600POPC   GL248722   0.728  35.404   5.760
 3600POPC   C1A48723   0.339  35.617   6.245
 3600POPC   D2A48724   0.164  35.394   6.596
 3600POPC   C3A48725   0.179  35.506   7.038
 3600POPC   C4A48726   0.118  35.146   7.328
 3600POPC   C1B48727   0.832  35.504   6.220
 3600POPC   C2B48728   0.687  35.385   6.666
 3600POPC   C3B48729   0.665  35.317   7.144
 3600POPC   C4B48730   0.458  35.469   7.545
 3601POPC   NC348731  14.605  10.698   5.308
 3601POPC   PO448732  15.231  10.455   5.033
 3601POPC   GL148733  15.145  10.542   5.570
 3601POPC   GL248734  15.347  10.346   5.767
 3601POPC   C1A48735  15.180  10.698   6.081
 3601POPC   D2A48736  15.020  10.681   6.531
 3601POPC   C3A48737  15.198  10.683   6.958
 3601POPC   C4A48738  14.982  11.013   7.189
 3601POPC   C1B48739  15.208  10.145   6.140
 3601POPC   C2B48740  15.219  10.211   6.578
 3601POPC   C3B48741  15.263  10.149   7.007
 3601POPC   C4B48742  15.391  10.343   7.358
 3602POPC   NC348743   6.819  35.219   5.503
 3602POPC   PO448744   6.172  35.127   5.450
 3602POPC   GL148745   6.419  35.144   5.833
 3602POPC   GL248746   6.495  35.493   5.799
 3602POPC   C1A48747   6.516  35.248   6.280
 3602POPC   D2A48748   6.211  35.297   6.618
 3602POPC   C3A48749   6.358  35.150   6.993
 3602POPC   C4A48750   6.816  35.089   7.097
 3602POPC   C1B48751   6.803  35.627   6.101
 3602POPC   C2B48752   6.654  35.763   6.475
 3602POPC   C3B48753   6.656  35.538   6.852
 3602POPC   C4B48754   6.912  35.570   7.225
 3603POPC   NC348755  19.453  28.760   5.447
 3603POPC   PO448756  19.881  28.319   5.202
 3603POPC   GL148757  19.766  28.257   5.680
 3603POPC   GL248758  19.464  28.376   5.775
 3603POPC   C1A48759  19.787  28.329   6.161
 3603POPC   D2A48760  19.970  28.466   6.548
 3603POPC   C3A48761  19.897  28.180   6.875
 3603POPC   C4A48762  19.945  28.357   7.260
 3603POPC   C1B48763  19.422  28.722   6.136
 3603POPC   C2B48764  19.358  28.590   6.574
 3603POPC   C3B48765  19.544  28.569   6.993
 3603POPC   C4B48766  19.513  28.583   7.458
 3604POPC   NC348767   8.738  17.000   5.454
 3604POPC   PO448768   9.321  16.612   5.406
 3604POPC   GL148769   9.148  16.841   5.773
 3604POPC   GL248770   8.851  16.663   5.838
 3604POPC   C1A48771   9.083  16.874   6.252
 3604POPC   D2A48772   8.837  16.799   6.650
 3604POPC   C3A48773   9.078  16.841   7.066
 3604POPC   C4A48774   9.014  16.828   7.509
 3604POPC   C1B48775   8.626  16.447   6.158
 3604POPC   C2B48776   8.590  16.293   6.556
 3604POPC   C3B48777   8.518  16.465   6.962
 3604POPC   C4B48778   8.599  16.808   7.228
 3605POPC   NC348779  44.758  32.113   5.538
 3605POPC   PO448780  44.257  32.565   5.389
 3605POPC   GL148781  44.369  32.463   5.805
 3605POPC   GL248782  44.709  32.562   5.955
 3605POPC   C1A48783  44.342  32.284   6.192
 3605POPC   D2A48784  44.561  32.362   6.546
 3605POPC   C3A48785  44.382  32.139   6.894
 3605POPC   C4A48786  44.347  32.270   7.317
 3605POPC   C1B48787  44.939  32.274   6.201
 3605POPC   C2B48788   0.167  32.222   6.590
 3605POPC   C3B48789  44.879  32.226   6.928
 3605POPC   C4B48790  44.786  32.033   7.302
 3606POPC   NC348791  41.139   8.134   5.598
 3606POPC   PO448792  40.634   7.872   5.358
 3606POPC   GL148793  40.615   8.113   5.750
 3606POPC   GL248794  40.670   8.471   5.786
 3606POPC   C1A48795  40.556   8.067   6.179
 3606POPC   D2A48796  40.620   8.190   6.595
 3606POPC   C3A48797  40.797   7.950   6.892
 3606POPC   C4A48798  40.995   8.124   7.266
 3606POPC   C1B48799  40.564   8.597   6.255
 3606POPC   C2B48800  40.613   8.689   6.713
 3606POPC   C3B48801  40.560   8.400   7.086
 3606POPC   C4B48802  40.501   8.311   7.529
 3607POPC   NC348803   1.356  42.002   5.375
 3607POPC   PO448804   1.015  41.395   5.397
 3607POPC   GL148805   1.082  41.672   5.743
 3607POPC   GL248806   1.346  41.899   5.877
 3607POPC   C1A48807   1.196  41.513   6.178
 3607POPC   D2A48808   0.999  41.157   6.423
 3607POPC   C3A48809   1.149  41.270   6.803
 3607POPC   C4A48810   1.132  41.320   7.210
 3607POPC   C1B48811   0.896  41.953   6.114
 3607POPC   C2B48812   0.789  42.144   6.518
 3607POPC   C3B48813   0.961  41.979   6.912
 3607POPC   C4B48814   1.377  41.840   7.112
 3608POPC   NC348815  11.691  35.659   5.456
 3608POPC   PO448816  11.055  35.769   5.283
 3608POPC   GL148817  11.206  35.767   5.748
 3608POPC   GL248818  11.456  35.462   5.879
 3608POPC   C1A48819  11.100  35.643   6.192
 3608POPC   D2A48820  11.349  35.322   6.443
 3608POPC   C3A48821  11.168  35.003   6.706
 3608POPC   C4A48822  11.165  35.143   7.116
 3608POPC   C1B48823  11.515  35.004   6.082
 3608POPC   C2B48824  11.634  34.872   6.507
 3608POPC   C3B48825  11.642  35.129   6.926
 3608POPC   C4B48826  11.582  35.047   7.399
 3609POPC   NC348827  39.433  24.577   5.056
 3609POPC   PO448828  39.882  24.296   5.458
 3609POPC   GL148829  40.161  24.493   5.751
 3609POPC   GL248830  39.889  24.575   5.930
 3609POPC   C1A48831  40.262  24.400   6.195
 3609POPC   D2A48832  40.101  24.176   6.545
 3609POPC   C3A48833  40.212  24.382   6.895
 3609POPC   C4A48834  39.998  24.312   7.255
 3609POPC   C1B48835  39.706  24.831   6.215
 3609POPC   C2B48836  39.896  24.970   6.582
 3609POPC   C3B48837  39.936  24.791   6.977
 3609POPC   C4B48838  40.259  24.757   7.264
 3610POPC   NC348839  19.282  38.691   5.501
 3610POPC   PO448840  19.010  38.120   5.219
 3610POPC   GL148841  19.058  38.265   5.677
 3610POPC   GL248842  19.393  38.148   5.748
 3610POPC   C1A48843  19.012  38.570   6.084
 3610POPC   D2A48844  18.729  38.602   6.488
 3610POPC   C3A48845  18.876  38.635   6.884
 3610POPC   C4A48846  19.005  38.497   7.257
 3610POPC   C1B48847  19.134  38.043   6.128
 3610POPC   C2B48848  19.071  38.224   6.525
 3610POPC   C3B48849  19.168  38.092   6.928
 3610POPC   C4B48850  19.509  38.022   7.219
 3611POPC   NC348851  36.350   5.493   5.108
 3611POPC   PO448852  35.859   5.597   5.577
 3611POPC   GL148853  36.026   5.839   5.938
 3611POPC   GL248854  36.263   6.006   5.730
 3611POPC   C1A48855  36.086   5.850   6.394
 3611POPC   D2A48856  36.437   5.756   6.680
 3611POPC   C3A48857  36.298   5.664   7.091
 3611POPC   C4A48858  36.068   5.932   7.362
 3611POPC   C1B48859  36.395   6.164   6.129
 3611POPC   C2B48860  36.173   6.364   6.472
 3611POPC   C3B48861  36.156   6.161   6.856
 3611POPC   C4B48862  36.494   6.123   7.130
 3612POPC   NC348863  13.978  17.371   5.377
 3612POPC   PO448864  13.317  17.399   5.446
 3612POPC   GL148865  13.617  17.504   5.735
 3612POPC   GL248866  13.717  17.144   5.759
 3612POPC   C1A48867  13.633  17.750   6.130
 3612POPC   D2A48868  13.774  17.669   6.549
 3612POPC   C3A48869  13.599  17.654   6.970
 3612POPC   C4A48870  13.946  17.466   7.154
 3612POPC   C1B48871  13.646  17.243   6.193
 3612POPC   C2B48872  13.427  17.288   6.578
 3612POPC   C3B48873  13.526  17.124   6.978
 3612POPC   C4B48874  13.334  17.183   7.370
 3613POPC   NC348875  13.126  19.260   5.308
 3613POPC   PO448876  12.437  19.053   5.445
 3613POPC   GL148877  12.745  18.895   5.714
 3613POPC   GL248878  13.002  19.099   5.773
 3613POPC   C1A48879  12.791  18.843   6.148
 3613POPC   D2A48880  12.632  18.890   6.528
 3613POPC   C3A48881  12.925  18.890   6.831
 3613POPC   C4A48882  12.805  19.075   7.210
 3613POPC   C1B48883  13.160  19.244   6.171
 3613POPC   C2B48884  13.289  19.137   6.575
 3613POPC   C3B48885  13.252  19.274   6.991
 3613POPC   C4B48886  13.330  19.064   7.394
 3614POPC   NC348887   8.323  21.329   5.431
 3614POPC   PO448888   7.665  21.529   5.528
 3614POPC   GL148889   8.030  21.554   5.836
 3614POPC   GL248890   8.407  21.604   5.844
 3614POPC   C1A48891   8.163  21.347   6.223
 3614POPC   D2A48892   8.044  21.047   6.526
 3614POPC   C3A48893   8.185  21.266   6.868
 3614POPC   C4A48894   8.036  21.511   7.194
 3614POPC   C1B48895   8.623  21.191   6.021
 3614POPC   C2B48896   8.754  20.974   6.407
 3614POPC   C3B48897   8.670  21.084   6.847
 3614POPC   C4B48898   8.475  21.171   7.282
 3615POPC   NC348899  34.383  14.889   5.487
 3615POPC   PO448900  34.923  15.300   5.478
 3615POPC   GL148901  34.666  15.136   5.824
 3615POPC   GL248902  34.460  15.369   6.013
 3615POPC   C1A48903  34.469  14.892   6.172
 3615POPC   D2A48904  34.376  15.111   6.570
 3615POPC   C3A48905  34.403  14.910   6.950
 3615POPC   C4A48906  34.602  14.930   7.381
 3615POPC   C1B48907  34.641  15.712   6.257
 3615POPC   C2B48908  34.997  15.682   6.538
 3615POPC   C3B48909  34.846  15.369   6.784
 3615POPC   C4B48910  34.584  15.371   7.128
 3616POPC   NC348911  19.757  13.467   5.452
 3616POPC   PO448912  19.469  14.112   5.574
 3616POPC   GL148913  19.809  13.863   5.779
 3616POPC   GL248914  20.124  13.987   5.811
 3616POPC   C1A48915  19.985  13.556   6.066
 3616POPC   D2A48916  20.011  13.599   6.479
 3616POPC   C3A48917  19.848  13.338   6.765
 3616POPC   C4A48918  19.604  13.417   7.117
 3616POPC   C1B48919  20.357  13.908   6.220
 3616POPC   C2B48920  20.410  13.787   6.694
 3616POPC   C3B48921  20.123  13.741   7.040
 3616POPC   C4B48922  20.223  13.926   7.450
 3617POPC   NC348923   0.214  31.172   5.658
 3617POPC   PO448924   0.675  31.463   5.259
 3617POPC   GL148925   0.472  31.597   5.741
 3617POPC   GL248926   0.154  31.775   5.702
 3617POPC   C1A48927   0.466  31.431   6.220
 3617POPC   D2A48928   0.317  31.114   6.545
 3617POPC   C3A48929   0.288  31.299   6.957
 3617POPC   C4A48930   0.509  31.564   7.255
 3617POPC   C1B48931   0.206  31.858   6.151
 3617POPC   C2B48932   0.310  31.736   6.594
 3617POPC   C3B48933   0.138  31.793   6.996
 3617POPC   C4B48934  44.942  31.523   7.317
 3618POPC   NC348935  37.586  16.189   5.444
 3618POPC   PO448936  37.770  15.556   5.398
 3618POPC   GL148937  37.861  15.895   5.748
 3618POPC   GL248938  37.509  16.034   5.905
 3618POPC   C1A48939  37.893  15.950   6.219
 3618POPC   D2A48940  37.664  15.626   6.491
 3618POPC   C3A48941  37.536  15.777   6.877
 3618POPC   C4A48942  37.759  16.061   7.138
 3618POPC   C1B48943  37.406  16.048   6.334
 3618POPC   C2B48944  37.638  16.249   6.648
 3618POPC   C3B48945  37.488  16.462   7.016
 3618POPC   C4B48946  37.251  16.151   7.278
 3619POPC   NC348947  33.707  10.930   5.095
 3619POPC   PO448948  33.664  11.392   5.596
 3619POPC   GL148949  33.624  11.179   5.935
 3619POPC   GL248950  33.894  10.925   5.799
 3619POPC   C1A48951  33.649  11.291   6.370
 3619POPC   D2A48952  33.980  11.512   6.614
 3619POPC   C3A48953  33.907  11.589   7.053
 3619POPC   C4A48954  33.627  11.382   7.325
 3619POPC   C1B48955  34.075  11.031   6.187
 3619POPC   C2B48956  33.982  10.895   6.593
 3619POPC   C3B48957  33.823  11.048   6.997
 3619POPC   C4B48958  33.891  10.954   7.465
 3620POPC   NC348959   6.936   4.355   5.425
 3620POPC   PO448960   7.535   4.651   5.462
 3620POPC   GL148961   7.570   4.469   5.891
 3620POPC   GL248962   7.281   4.325   5.838
 3620POPC   C1A48963   7.542   4.187   6.269
 3620POPC   D2A48964   7.286   4.059   6.614
 3620POPC   C3A48965   7.478   4.170   6.976
 3620POPC   C4A48966   7.615   4.324   7.313
 3620POPC   C1B48967   7.042   4.149   6.154
 3620POPC   C2B48968   6.918   4.411   6.503
 3620POPC   C3B48969   7.115   4.541   6.878
 3620POPC   C4B48970   7.053   4.310   7.236
 3621POPC   NC348971  33.193  41.466   5.344
 3621POPC   PO448972  32.767  42.011   5.217
 3621POPC   GL148973  32.842  41.615   5.650
 3621POPC   GL248974  32.572  41.345   5.741
 3621POPC   C1A48975  32.905  41.527   6.104
 3621POPC   D2A48976  33.137  41.408   6.473
 3621POPC   C3A48977  33.096  41.695   6.808
 3621POPC   C4A48978  33.125  41.625   7.214
 3621POPC   C1B48979  32.441  41.306   6.193
 3621POPC   C2B48980  32.665  41.219   6.590
 3621POPC   C3B48981  32.796  41.283   7.031
 3621POPC   C4B48982  32.712  41.361   7.497
 3622POPC   NC348983  43.227  42.464   5.089
 3622POPC   PO448984  43.350  41.997   5.549
 3622POPC   GL148985  43.238  42.089   5.906
 3622POPC   GL248986  43.086  42.366   5.814
 3622POPC   C1A48987  43.003  41.996   6.256
 3622POPC   D2A48988  42.879  42.213   6.597
 3622POPC   C3A48989  42.929  42.105   6.981
 3622POPC   C4A48990  43.178  42.197   7.289
 3622POPC   C1B48991  43.019  42.661   6.130
 3622POPC   C2B48992  42.823  42.705   6.541
 3622POPC   C3B48993  43.077  42.641   6.906
 3622POPC   C4B48994  42.926  42.665   7.311
 3623POPC   NC348995   3.171  20.867   5.588
 3623POPC   PO448996   3.627  20.423   5.300
 3623POPC   GL148997   3.474  20.448   5.765
 3623POPC   GL248998   3.680  20.657   5.998
 3623POPC   C1A48999   3.279  20.450   6.213
 3623POPC   D2A49000   3.419  20.779   6.524
 3623POPC   C3A49001   3.488  20.767   6.985
 3623POPC   C4A49002   3.424  20.594   7.407
 3623POPC   C1B49003   3.943  20.432   6.303
 3623POPC   C2B49004   4.035  20.279   6.737
 3623POPC   C3B49005   3.908  20.333   7.191
 3623POPC   C4B49006   3.821  20.280   7.604
 3624POPC   NC349007   5.064   9.411   5.095
 3624POPC   PO449008   5.177   8.844   5.391
 3624POPC   GL149009   5.254   8.897   5.857
 3624POPC   GL249010   5.346   8.561   5.926
 3624POPC   C1A49011   5.216   9.000   6.326
 3624POPC   D2A49012   4.859   9.185   6.587
 3624POPC   C3A49013   4.862   9.266   7.078
 3624POPC   C4A49014   4.944   9.154   7.536
 3624POPC   C1B49015   4.907   8.625   6.102
 3624POPC   C2B49016   4.729   8.633   6.510
 3624POPC   C3B49017   4.948   8.770   6.879
 3624POPC   C4B49018   5.143   8.793   7.267
 3625POPC   NC349019   7.980   1.866   5.482
 3625POPC   PO449020   8.608   2.026   5.364
 3625POPC   GL149021   8.430   1.835   5.739
 3625POPC   GL249022   8.264   2.129   5.806
 3625POPC   C1A49023   8.146   1.747   6.136
 3625POPC   D2A49024   8.167   1.668   6.588
 3625POPC   C3A49025   7.963   1.968   6.889
 3625POPC   C4A49026   8.029   1.862   7.263
 3625POPC   C1B49027   8.438   2.147   6.162
 3625POPC   C2B49028   8.302   2.159   6.532
 3625POPC   C3B49029   8.462   2.046   6.901
 3625POPC   C4B49030   8.540   2.189   7.266
 3626POPC   NC349031  22.151  19.073   5.194
 3626POPC   PO449032  21.687  18.807   5.301
 3626POPC   GL149033  22.011  18.992   5.666
 3626POPC   GL249034  22.166  18.740   5.868
 3626POPC   C1A49035  22.148  19.199   6.113
 3626POPC   D2A49036  22.347  19.212   6.572
 3626POPC   C3A49037  22.243  19.160   7.039
 3626POPC   C4A49038  21.986  18.953   7.405
 3626POPC   C1B49039  22.380  18.777   6.275
 3626POPC   C2B49040  22.423  18.724   6.713
 3626POPC   C3B49041  22.287  18.658   7.122
 3626POPC   C4B49042  22.477  18.830   7.515
 3627POPC   NC349043   0.774   5.877   5.511
 3627POPC   PO449044   0.261   6.138   5.402
 3627POPC   GL149045   0.296   5.914   5.836
 3627POPC   GL249046   0.624   5.968   5.991
 3627POPC   C1A49047   0.320   5.605   6.234
 3627POPC   D2A49048   0.350   5.702   6.705
 3627POPC   C3A49049   0.533   5.622   7.128
 3627POPC   C4A49050   0.206   5.644   7.461
 3627POPC   C1B49051   0.362   6.098   6.332
 3627POPC   C2B49052   0.400   6.212   6.751
 3627POPC   C3B49053   0.280   6.069   7.140
 3627POPC   C4B49054   0.547   6.043   7.477
 3628POPC   NC349055  24.186  12.085   5.415
 3628POPC   PO449056  24.784  12.210   5.201
 3628POPC   GL149057  24.656  12.056   5.689
 3628POPC   GL249058  24.305  12.151   5.894
 3628POPC   C1A49059  24.719  12.050   6.170
 3628POPC   D2A49060  24.779  12.093   6.635
 3628POPC   C3A49061  24.478  12.303   6.883
 3628POPC   C4A49062  24.548  12.294   7.330
 3628POPC   C1B49063  24.266  11.788   6.116
 3628POPC   C2B49064  24.349  11.857   6.530
 3628POPC   C3B49065  24.462  11.801   6.962
 3628POPC   C4B49066  24.313  11.462   7.203
 3629POPC   NC349067   5.691  12.780   5.174
 3629POPC   PO449068   6.287  12.694   5.357
 3629POPC   GL149069   5.927  12.799   5.679
 3629POPC   GL249070   5.806  12.519   5.918
 3629POPC   C1A49071   5.843  12.990   6.098
 3629POPC   D2A49072   5.846  13.144   6.501
 3629POPC   C3A49073   6.008  12.894   6.829
 3629POPC   C4A49074   5.840  13.091   7.187
 3629POPC   C1B49075   5.499  12.610   6.166
 3629POPC   C2B49076   5.649  12.675   6.530
 3629POPC   C3B49077   5.503  12.792   6.921
 3629POPC   C4B49078   5.427  12.810   7.336
 3630POPC   NC349079  28.475  41.879   5.359
 3630POPC   PO449080  28.187  41.269   5.465
 3630POPC   GL149081  28.238  41.567   5.760
 3630POPC   GL249082  28.603  41.570   5.737
 3630POPC   C1A49083  28.051  41.534   6.174
 3630POPC   D2A49084  28.123  41.715   6.549
 3630POPC   C3A49085  28.213  41.532   6.973
 3630POPC   C4A49086  27.963  41.280   7.269
 3630POPC   C1B49087  28.540  41.723   6.138
 3630POPC   C2B49088  28.602  41.599   6.535
 3630POPC   C3B49089  28.706  41.738   6.904
 3630POPC   C4B49090  28.553  41.849   7.261
 3631POPC   NC349091  27.996  40.846   5.536
 3631POPC   PO449092  27.380  40.974   5.566
 3631POPC   GL149093  27.602  40.725   5.876
 3631POPC   GL249094  27.458  40.428   5.717
 3631POPC   C1A49095  27.865  40.821   6.267
 3631POPC   D2A49096  27.978  40.758   6.729
 3631POPC   C3A49097  27.693  40.937   7.038
 3631POPC   C4A49098  27.275  40.998   7.225
 3631POPC   C1B49099  27.240  40.445   6.133
 3631POPC   C2B49100  27.230  40.711   6.525
 3631POPC   C3B49101  27.370  40.577   6.930
 3631POPC   C4B49102  27.332  40.225   7.167
 3632POPC   NC349103  17.868   7.569   5.574
 3632POPC   PO449104  17.302   7.310   5.321
 3632POPC   GL149105  17.506   7.242   5.729
 3632POPC   GL249106  17.354   7.060   5.947
 3632POPC   C1A49107  17.744   7.290   6.155
 3632POPC   D2A49108  17.584   7.409   6.571
 3632POPC   C3A49109  17.840   7.491   6.909
 3632POPC   C4A49110  17.814   7.520   7.331
 3632POPC   C1B49111  17.264   7.502   6.156
 3632POPC   C2B49112  17.169   7.730   6.541
 3632POPC   C3B49113  17.250   7.710   6.983
 3632POPC   C4B49114  17.310   7.496   7.363
 3633POPC   NC349115  38.428  25.855   5.345
 3633POPC   PO449116  38.683  26.487   5.452
 3633POPC   GL149117  38.571  26.172   5.727
 3633POPC   GL249118  38.230  26.239   5.812
 3633POPC   C1A49119  38.503  25.900   6.105
 3633POPC   D2A49120  38.598  25.696   6.505
 3633POPC   C3A49121  38.521  25.822   6.952
 3633POPC   C4A49122  38.805  25.664   7.315
 3633POPC   C1B49123  38.022  26.068   6.162
 3633POPC   C2B49124  38.181  26.005   6.579
 3633POPC   C3B49125  38.004  26.050   7.003
 3633POPC   C4B49126  38.017  26.120   7.445
 3634POPC   NC349127  16.030  24.032   5.370
 3634POPC   PO449128  15.455  23.812   5.426
 3634POPC   GL149129  15.731  23.980   5.797
 3634POPC   GL249130  16.110  23.949   5.877
 3634POPC   C1A49131  15.749  23.874   6.244
 3634POPC   D2A49132  15.677  23.660   6.619
 3634POPC   C3A49133  15.575  23.981   6.883
 3634POPC   C4A49134  15.799  24.108   7.242
 3634POPC   C1B49135  16.251  23.994   6.313
 3634POPC   C2B49136  16.081  23.996   6.751
 3634POPC   C3B49137  16.128  23.729   7.126
 3634POPC   C4B49138  16.428  23.569   7.453
 3635POPC   NC349139  38.808  24.262   5.502
 3635POPC   PO449140  38.264  24.421   5.217
 3635POPC   GL149141  38.358  24.430   5.736
 3635POPC   GL249142  38.667  24.585   5.861
 3635POPC   C1A49143  38.339  24.647   6.206
 3635POPC   D2A49144  38.669  24.625   6.521
 3635POPC   C3A49145  38.540  24.760   6.895
 3635POPC   C4A49146  38.251  24.696   7.231
 3635POPC   C1B49147  38.842  24.304   6.171
 3635POPC   C2B49148  38.836  24.125   6.583
 3635POPC   C3B49149  38.767  24.299   6.971
 3635POPC   C4B49150  38.706  24.509   7.347
 3636POPC   NC349151  40.240  37.374   5.471
 3636POPC   PO449152  39.626  37.688   5.462
 3636POPC   GL149153  39.930  37.712   5.832
 3636POPC   GL249154  40.222  37.500   5.961
 3636POPC   C1A49155  40.022  37.872   6.253
 3636POPC   D2A49156  40.156  37.992   6.661
 3636POPC   C3A49157  39.770  37.914   6.903
 3636POPC   C4A49158  39.596  37.911   7.308
 3636POPC   C1B49159  39.894  37.349   6.233
 3636POPC   C2B49160  39.949  37.488   6.653
 3636POPC   C3B49161  40.183  37.606   7.017
 3636POPC   C4B49162  40.524  37.415   7.254
 3637POPC   NC349163  42.144   2.990   5.465
 3637POPC   PO449164  42.714   2.726   5.407
 3637POPC   GL149165  42.388   2.600   5.705
 3637POPC   GL249166  42.496   2.896   5.871
 3637POPC   C1A49167  42.234   2.552   6.181
 3637POPC   D2A49168  42.273   2.478   6.662
 3637POPC   C3A49169  42.255   2.881   6.925
 3637POPC   C4A49170  42.188   3.001   7.358
 3637POPC   C1B49171  42.719   2.504   6.072
 3637POPC   C2B49172  42.762   2.492   6.482
 3637POPC   C3B49173  42.744   2.362   6.866
 3637POPC   C4B49174  42.511   2.523   7.205
 3638POPC   NC349175   5.422  30.996   5.707
 3638POPC   PO449176   4.804  30.850   5.415
 3638POPC   GL149177   5.056  30.652   5.813
 3638POPC   GL249178   4.878  30.398   6.000
 3638POPC   C1A49179   5.225  30.642   6.279
 3638POPC   D2A49180   5.483  30.844   6.621
 3638POPC   C3A49181   5.384  30.753   7.059
 3638POPC   C4A49182   5.149  30.693   7.458
 3638POPC   C1B49183   4.831  30.331   6.429
 3638POPC   C2B49184   4.994  30.511   6.789
 3638POPC   C3B49185   4.881  30.837   7.046
 3638POPC   C4B49186   4.674  31.205   6.957
 3639POPC   NC349187  21.162  42.510   5.450
 3639POPC   PO449188  21.450  41.918   5.482
 3639POPC   GL149189  21.459  42.224   5.801
 3639POPC   GL249190  21.464  42.589   5.848
 3639POPC   C1A49191  21.306  42.219   6.212
 3639POPC   D2A49192  21.248  42.386   6.601
 3639POPC   C3A49193  21.319  42.136   6.953
 3639POPC   C4A49194  21.171  42.275   7.351
 3639POPC   C1B49195  21.640  42.609   6.263
 3639POPC   C2B49196  21.533  42.795   6.670
 3639POPC   C3B49197  21.384  42.639   7.077
 3639POPC   C4B49198  21.511  42.611   7.551
 3640POPC   NC349199  29.601  14.305   5.453
 3640POPC   PO449200  30.063  14.792   5.583
 3640POPC   GL149201  29.882  14.519   5.847
 3640POPC   GL249202  30.037  14.201   5.794
 3640POPC   C1A49203  29.661  14.289   6.166
 3640POPC   D2A49204  29.816  14.149   6.558
 3640POPC   C3A49205  29.634  14.252   6.935
 3640POPC   C4A49206  29.773  14.158   7.326
 3640POPC   C1B49207  30.179  14.323   6.233
 3640POPC   C2B49208  30.369  14.226   6.637
 3640POPC   C3B49209  30.233  14.167   7.063
 3640POPC   C4B49210  30.407  14.261   7.470
 3641POPC   NC349211   4.430  37.741   5.459
 3641POPC   PO449212   3.946  37.207   5.212
 3641POPC   GL149213   4.049  37.325   5.681
 3641POPC   GL249214   4.387  37.436   5.866
 3641POPC   C1A49215   3.968  37.432   6.142
 3641POPC   D2A49216   4.351  37.440   6.433
 3641POPC   C3A49217   4.317  37.362   6.868
 3641POPC   C4A49218   4.190  37.548   7.248
 3641POPC   C1B49219   4.377  37.822   6.099
 3641POPC   C2B49220   4.564  37.926   6.481
 3641POPC   C3B49221   4.335  37.874   6.872
 3641POPC   C4B49222   4.451  37.989   7.287
 3642POPC   NC349223  30.474  15.476   5.473
 3642POPC   PO449224  30.985  15.001   5.356
 3642POPC   GL149225  30.883  14.861   5.796
 3642POPC   GL249226  30.657  15.164   5.850
 3642POPC   C1A49227  30.869  14.953   6.256
 3642POPC   D2A49228  30.695  15.211   6.585
 3642POPC   C3A49229  30.817  14.986   6.964
 3642POPC   C4A49230  30.552  15.172   7.257
 3642POPC   C1B49231  30.581  15.503   6.177
 3642POPC   C2B49232  30.372  15.633   6.565
 3642POPC   C3B49233  30.262  15.461   6.949
 3642POPC   C4B49234  30.261  15.635   7.353
 3643POPC   NC349235   2.638   2.532   5.553
 3643POPC   PO449236   2.737   1.915   5.305
 3643POPC   GL149237   2.696   1.763   5.749
 3643POPC   GL249238   2.700   2.094   5.864
 3643POPC   C1A49239   2.806   1.681   6.186
 3643POPC   D2A49240   2.941   2.030   6.452
 3643POPC   C3A49241   2.903   2.048   6.897
 3643POPC   C4A49242   2.879   2.048   7.362
 3643POPC   C1B49243   2.539   2.265   6.236
 3643POPC   C2B49244   2.566   2.431   6.646
 3643POPC   C3B49245   2.470   2.267   7.040
 3643POPC   C4B49246   2.439   2.321   7.442
 3644POPC   NC349247  32.444  11.944   5.439
 3644POPC   PO449248  32.681  11.342   5.420
 3644POPC   GL149249  32.571  11.330   5.832
 3644POPC   GL249250  32.277  11.521   5.822
 3644POPC   C1A49251  32.392  11.209   6.242
 3644POPC   D2A49252  32.054  10.966   6.434
 3644POPC   C3A49253  32.024  11.013   6.894
 3644POPC   C4A49254  32.403  11.152   7.189
 3644POPC   C1B49255  31.946  11.391   6.126
 3644POPC   C2B49256  31.984  11.484   6.547
 3644POPC   C3B49257  31.819  11.549   6.937
 3644POPC   C4B49258  31.936  11.335   7.284
 3645POPC   NC349259  30.465  10.005   5.482
 3645POPC   PO449260  30.698   9.357   5.567
 3645POPC   GL149261  31.016   9.556   5.863
 3645POPC   GL249262  31.023   9.885   5.698
 3645POPC   C1A49263  31.068   9.459   6.310
 3645POPC   D2A49264  30.690   9.435   6.562
 3645POPC   C3A49265  30.686   9.518   7.001
 3645POPC   C4A49266  30.579   9.836   7.305
 3645POPC   C1B49267  30.864   9.967   6.144
 3645POPC   C2B49268  30.983   9.915   6.605
 3645POPC   C3B49269  30.976  10.037   7.063
 3645POPC   C4B49270  31.093  10.100   7.534
 3646POPC   NC349271   1.887   3.115   5.270
 3646POPC   PO449272   2.411   2.782   5.249
 3646POPC   GL149273   2.215   2.772   5.710
 3646POPC   GL249274   2.021   3.030   5.866
 3646POPC   C1A49275   2.249   2.681   6.198
 3646POPC   D2A49276   2.193   2.917   6.602
 3646POPC   C3A49277   2.245   2.732   7.011
 3646POPC   C4A49278   1.938   2.451   7.194
 3646POPC   C1B49279   1.761   2.783   6.221
 3646POPC   C2B49280   1.656   2.625   6.624
 3646POPC   C3B49281   1.701   2.860   7.009
 3646POPC   C4B49282   1.687   2.836   7.445
 3647POPC   NC349283  17.210  44.732   5.148
 3647POPC   PO449284  16.651  44.700   5.598
 3647POPC   GL149285  16.790  44.765   5.951
 3647POPC   GL249286  17.083  44.927   5.944
 3647POPC   C1A49287  16.691  44.919   6.318
 3647POPC   D2A49288  16.846  44.714   6.653
 3647POPC   C3A49289  16.594  44.669   7.004
 3647POPC   C4A49290  16.595   0.082   7.149
 3647POPC   C1B49291  17.202  44.637   6.279
 3647POPC   C2B49292  17.116  44.295   6.587
 3647POPC   C3B49293  17.139  44.445   6.978
 3647POPC   C4B49294  17.085  44.853   7.080
 3648POPC   NC349295   4.171  13.379   5.411
 3648POPC   PO449296   4.629  12.893   5.519
 3648POPC   GL149297   4.246  12.948   5.770
 3648POPC   GL249298   3.950  12.729   5.711
 3648POPC   C1A49299   4.345  12.911   6.217
 3648POPC   D2A49300   4.606  12.831   6.577
 3648POPC   C3A49301   4.461  12.925   6.945
 3648POPC   C4A49302   4.078  12.963   7.085
 3648POPC   C1B49303   4.131  12.485   6.074
 3648POPC   C2B49304   4.276  12.419   6.514
 3648POPC   C3B49305   4.154  12.477   6.961
 3648POPC   C4B49306   3.826  12.576   7.318
 3649POPC   NC349307  14.399   1.096   4.965
 3649POPC   PO449308  14.167   1.498   5.365
 3649POPC   GL149309  14.329   1.351   5.747
 3649POPC   GL249310  14.426   1.003   5.728
 3649POPC   C1A49311  14.484   1.421   6.157
 3649POPC   D2A49312  14.349   1.249   6.551
 3649POPC   C3A49313  14.502   1.446   6.922
 3649POPC   C4A49314  14.320   1.337   7.264
 3649POPC   C1B49315  14.593   0.897   6.142
 3649POPC   C2B49316  14.583   0.806   6.578
 3649POPC   C3B49317  14.729   0.988   6.964
 3649POPC   C4B49318  14.592   0.914   7.383
 3650POPC   NC349319  41.808  22.179   5.392
 3650POPC   PO449320  41.284  21.834   5.397
 3650POPC   GL149321  41.497  22.013   5.798
 3650POPC   GL249322  41.509  22.375   5.791
 3650POPC   C1A49323  41.500  21.965   6.279
 3650POPC   D2A49324  41.487  21.730   6.709
 3650POPC   C3A49325  41.584  22.027   7.033
 3650POPC   C4A49326  41.299  22.319   7.175
 3650POPC   C1B49327  41.721  22.463   6.180
 3650POPC   C2B49328  41.687  22.439   6.614
 3650POPC   C3B49329  41.939  22.388   6.963
 3650POPC   C4B49330  41.891  22.284   7.388
 3651POPC   NC349331  27.561  33.317   5.561
 3651POPC   PO449332  27.606  32.625   5.613
 3651POPC   GL149333  27.677  32.936   5.882
 3651POPC   GL249334  27.993  33.112   5.772
 3651POPC   C1A49335  27.490  33.008   6.297
 3651POPC   D2A49336  27.458  32.781   6.706
 3651POPC   C3A49337  27.339  32.964   7.116
 3651POPC   C4A49338  27.353  32.924   7.585
 3651POPC   C1B49339  28.064  32.957   6.208
 3651POPC   C2B49340  27.910  33.053   6.617
 3651POPC   C3B49341  27.831  32.945   7.036
 3651POPC   C4B49342  27.743  33.212   7.393
 3652POPC   NC349343  12.560  24.932   5.794
 3652POPC   PO449344  12.983  24.573   5.422
 3652POPC   GL149345  13.013  24.725   5.872
 3652POPC   GL249346  12.804  24.424   5.948
 3652POPC   C1A49347  12.823  24.723   6.347
 3652POPC   D2A49348  12.661  24.568   6.730
 3652POPC   C3A49349  12.873  24.730   7.064
 3652POPC   C4A49350  12.970  24.604   7.449
 3652POPC   C1B49351  12.792  24.211   6.381
 3652POPC   C2B49352  12.741  24.068   6.817
 3652POPC   C3B49353  12.602  24.307   7.201
 3652POPC   C4B49354  12.605  24.275   7.652
 3653POPC   NC349355  42.286   6.725   5.399
 3653POPC   PO449356  42.310   6.094   5.509
 3653POPC   GL149357  42.323   6.464   5.846
 3653POPC   GL249358  42.397   6.860   5.858
 3653POPC   C1A49359  42.186   6.617   6.277
 3653POPC   D2A49360  41.918   6.693   6.678
 3653POPC   C3A49361  42.119   6.790   7.052
 3653POPC   C4A49362  42.422   6.522   7.196
 3653POPC   C1B49363  42.552   6.980   6.226
 3653POPC   C2B49364  42.416   6.917   6.639
 3653POPC   C3B49365  42.571   7.030   7.027
 3653POPC   C4B49366  42.456   6.985   7.414
 3654POPC   NC349367   2.366  20.996   5.618
 3654POPC   PO449368   2.829  20.503   5.436
 3654POPC   GL149369   2.917  20.470   5.849
 3654POPC   GL249370   2.764  20.809   5.890
 3654POPC   C1A49371   2.710  20.464   6.255
 3654POPC   D2A49372   2.409  20.680   6.492
 3654POPC   C3A49373   2.467  20.666   6.927
 3654POPC   C4A49374   2.697  20.336   7.084
 3654POPC   C1B49375   2.988  20.875   6.276
 3654POPC   C2B49376   2.963  20.600   6.681
 3654POPC   C3B49377   2.967  20.776   7.102
 3654POPC   C4B49378   2.967  20.827   7.527
 3655POPC   NC349379   0.425  22.478   5.593
 3655POPC   PO449380   0.235  21.893   5.567
 3655POPC   GL149381   0.397  21.763   5.929
 3655POPC   GL249382   0.616  22.030   5.938
 3655POPC   C1A49383   0.252  21.908   6.332
 3655POPC   D2A49384   0.196  22.317   6.500
 3655POPC   C3A49385   0.295  22.301   6.919
 3655POPC   C4A49386   0.478  22.012   7.235
 3655POPC   C1B49387   0.691  22.178   6.355
 3655POPC   C2B49388   0.755  22.133   6.792
 3655POPC   C3B49389   0.850  22.350   7.169
 3655POPC   C4B49390   0.731  22.281   7.614
 3656POPC   NC349391   1.681   0.169   5.588
 3656POPC   PO449392   1.183   0.543   5.329
 3656POPC   GL149393   1.141   0.517   5.806
 3656POPC   GL249394   1.305   0.199   5.944
 3656POPC   C1A49395   1.261   0.580   6.274
 3656POPC   D2A49396   1.260   0.306   6.651
 3656POPC   C3A49397   1.381   0.421   7.091
 3656POPC   C4A49398   1.335   0.611   7.522
 3656POPC   C1B49399   0.921   0.188   6.216
 3656POPC   C2B49400   0.793   0.072   6.636
 3656POPC   C3B49401   0.913   0.226   7.035
 3656POPC   C4B49402   1.046   0.084   7.457
 3657POPC   NC349403   7.169  17.086   5.517
 3657POPC   PO449404   7.685  16.580   5.510
 3657POPC   GL149405   7.452  16.765   5.810
 3657POPC   GL249406   7.527  17.111   5.884
 3657POPC   C1A49407   7.150  16.728   6.133
 3657POPC   D2A49408   7.298  16.839   6.538
 3657POPC   C3A49409   7.108  16.819   6.931
 3657POPC   C4A49410   7.273  16.823   7.331
 3657POPC   C1B49411   7.218  17.243   6.226
 3657POPC   C2B49412   7.081  17.280   6.694
 3657POPC   C3B49413   7.362  17.277   7.073
 3657POPC   C4B49414   7.425  17.261   7.562
 3658POPC   NC349415   6.195  31.375   5.477
 3658POPC   PO449416   5.928  32.011   5.373
 3658POPC   GL149417   5.899  31.790   5.797
 3658POPC   GL249418   5.940  31.417   5.921
 3658POPC   C1A49419   5.748  31.773   6.236
 3658POPC   D2A49420   5.590  31.467   6.528
 3658POPC   C3A49421   5.781  31.641   6.883
 3658POPC   C4A49422   5.827  31.657   7.325
 3658POPC   C1B49423   6.141  31.444   6.353
 3658POPC   C2B49424   6.259  31.520   6.813
 3658POPC   C3B49425   6.172  31.345   7.170
 3658POPC   C4B49426   5.970  31.240   7.571
 3659POPC   NC349427  41.513  39.724   5.494
 3659POPC   PO449428  41.693  40.357   5.375
 3659POPC   GL149429  41.698  40.113   5.811
 3659POPC   GL249430  41.387  39.968   5.922
 3659POPC   C1A49431  41.754  40.065   6.289
 3659POPC   D2A49432  41.461  40.164   6.658
 3659POPC   C3A49433  41.723  40.199   7.035
 3659POPC   C4A49434  41.817  40.168   7.492
 3659POPC   C1B49435  41.378  39.720   6.305
 3659POPC   C2B49436  41.547  39.675   6.727
 3659POPC   C3B49437  41.325  39.827   7.101
 3659POPC   C4B49438  41.374  39.944   7.555
 3660POPC   NC349439  18.047  27.422   5.651
 3660POPC   PO449440  18.657  27.596   5.257
 3660POPC   GL149441  18.595  27.479   5.709
 3660POPC   GL249442  18.424  27.760   5.835
 3660POPC   C1A49443  18.556  27.355   6.182
 3660POPC   D2A49444  18.676  27.269   6.657
 3660POPC   C3A49445  18.346  27.427   6.974
 3660POPC   C4A49446  17.973  27.232   7.210
 3660POPC   C1B49447  18.193  27.816   6.226
 3660POPC   C2B49448  18.220  28.024   6.622
 3660POPC   C3B49449  18.460  28.015   6.975
 3660POPC   C4B49450  18.246  27.859   7.251
 3661POPC   NC349451  31.530  32.714   5.554
 3661POPC   PO449452  30.978  33.047   5.275
 3661POPC   GL149453  31.247  33.175   5.720
 3661POPC   GL249454  31.633  33.148   5.837
 3661POPC   C1A49455  31.316  33.138   6.232
 3661POPC   D2A49456  31.560  33.109   6.669
 3661POPC   C3A49457  31.489  32.861   7.084
 3661POPC   C4A49458  31.085  32.700   7.284
 3661POPC   C1B49459  31.829  32.974   6.213
 3661POPC   C2B49460  32.051  33.106   6.570
 3661POPC   C3B49461  32.001  32.993   6.971
 3661POPC   C4B49462  31.843  33.084   7.378
 3662POPC   NC349463   2.469  29.987   5.344
 3662POPC   PO449464   1.857  30.141   5.401
 3662POPC   GL149465   1.845  30.113   5.877
 3662POPC   GL249466   2.217  30.086   5.856
 3662POPC   C1A49467   1.688  30.056   6.359
 3662POPC   D2A49468   1.549  30.000   6.824
 3662POPC   C3A49469   1.826  30.118   7.172
 3662POPC   C4A49470   2.150  30.067   7.523
 3662POPC   C1B49471   2.115  29.798   6.223
 3662POPC   C2B49472   2.007  29.763   6.686
 3662POPC   C3B49473   2.236  29.802   7.090
 3662POPC   C4B49474   2.396  29.621   7.486
 3663POPC   NC349475   6.512  18.591   5.553
 3663POPC   PO449476   6.991  19.088   5.319
 3663POPC   GL149477   6.848  19.094   5.740
 3663POPC   GL249478   6.945  19.447   5.721
 3663POPC   C1A49479   6.774  18.907   6.175
 3663POPC   D2A49480   6.576  18.897   6.606
 3663POPC   C3A49481   6.701  18.725   6.984
 3663POPC   C4A49482   6.798  18.920   7.354
 3663POPC   C1B49483   6.968  19.386   6.163
 3663POPC   C2B49484   6.765  19.364   6.554
 3663POPC   C3B49485   6.750  19.281   6.991
 3663POPC   C4B49486   6.967  19.407   7.393
 3664POPC   NC349487  27.369   7.974   5.306
 3664POPC   PO449488  27.777   7.456   5.325
 3664POPC   GL149489  27.654   7.450   5.790
 3664POPC   GL249490  27.333   7.310   5.792
 3664POPC   C1A49491  27.852   7.489   6.204
 3664POPC   D2A49492  27.625   7.586   6.574
 3664POPC   C3A49493  27.759   7.416   6.963
 3664POPC   C4A49494  27.415   7.537   7.240
 3664POPC   C1B49495  27.436   7.204   6.246
 3664POPC   C2B49496  27.486   7.081   6.691
 3664POPC   C3B49497  27.364   7.048   7.139
 3664POPC   C4B49498  27.076   7.129   7.470
 3665POPC   NC349499  38.263  28.539   5.348
 3665POPC   PO449500  38.772  28.158   5.429
 3665POPC   GL149501  38.629  28.451   5.761
 3665POPC   GL249502  38.272  28.493   5.862
 3665POPC   C1A49503  38.664  28.457   6.207
 3665POPC   D2A49504  38.341  28.345   6.506
 3665POPC   C3A49505  38.265  28.107   6.887
 3665POPC   C4A49506  38.472  28.094   7.273
 3665POPC   C1B49507  38.256  28.786   6.218
 3665POPC   C2B49508  38.055  28.763   6.597
 3665POPC   C3B49509  38.202  28.606   6.956
 3665POPC   C4B49510  38.469  28.738   7.198
 3666POPC   NC349511  18.098  31.161   5.372
 3666POPC   PO449512  18.520  31.766   5.442
 3666POPC   GL149513  18.301  31.512   5.712
 3666POPC   GL249514  18.062  31.754   5.729
 3666POPC   C1A49515  18.086  31.374   6.086
 3666POPC   D2A49516  18.189  31.168   6.464
 3666POPC   C3A49517  18.062  31.363   6.830
 3666POPC   C4A49518  18.045  31.193   7.239
 3666POPC   C1B49519  18.376  31.881   6.064
 3666POPC   C2B49520  18.354  31.834   6.488
 3666POPC   C3B49521  18.209  31.938   6.870
 3666POPC   C4B49522  18.123  31.697   7.219
 3667POPC   NC349523   5.148   2.689   5.328
 3667POPC   PO449524   4.536   2.728   5.548
 3667POPC   GL149525   4.942   2.656   5.798
 3667POPC   GL249526   5.237   2.917   5.795
 3667POPC   C1A49527   5.169   2.569   6.170
 3667POPC   D2A49528   5.042   2.495   6.575
 3667POPC   C3A49529   4.978   2.686   6.984
 3667POPC   C4A49530   4.955   2.459   7.343
 3667POPC   C1B49531   5.464   2.967   6.214
 3667POPC   C2B49532   5.251   2.974   6.627
 3667POPC   C3B49533   5.391   2.969   7.061
 3667POPC   C4B49534   5.209   2.913   7.483
 3668POPC   NC349535  19.979  16.549   5.568
 3668POPC   PO449536  19.434  16.882   5.498
 3668POPC   GL149537  19.656  16.748   5.884
 3668POPC   GL249538  19.649  16.357   5.894
 3668POPC   C1A49539  19.996  16.717   6.214
 3668POPC   D2A49540  19.903  16.919   6.602
 3668POPC   C3A49541  20.068  16.714   6.961
 3668POPC   C4A49542  20.176  16.790   7.418
 3668POPC   C1B49543  19.562  16.481   6.296
 3668POPC   C2B49544  19.689  16.470   6.681
 3668POPC   C3B49545  19.524  16.617   7.028
 3668POPC   C4B49546  19.699  16.896   7.280
 3669POPC   NC349547  13.394  21.593   5.518
 3669POPC   PO449548  14.081  21.581   5.493
 3669POPC   GL149549  13.762  21.347   5.792
 3669POPC   GL249550  13.391  21.399   5.971
 3669POPC   C1A49551  13.805  21.338   6.240
 3669POPC   D2A49552  13.553  21.447   6.581
 3669POPC   C3A49553  13.819  21.516   6.933
 3669POPC   C4A49554  13.670  21.560   7.331
 3669POPC   C1B49555  13.371  21.054   6.278
 3669POPC   C2B49556  13.250  20.995   6.709
 3669POPC   C3B49557  13.370  21.271   7.037
 3669POPC   C4B49558  13.366  21.189   7.487
 3670POPC   NC349559  36.317  24.423   5.422
 3670POPC   PO449560  35.907  23.806   5.416
 3670POPC   GL149561  36.027  23.588   5.808
 3670POPC   GL249562  35.757  23.356   5.907
 3670POPC   C1A49563  36.381  23.568   6.147
 3670POPC   D2A49564  36.563  23.457   6.570
 3670POPC   C3A49565  36.405  23.589   6.992
 3670POPC   C4A49566  36.322  23.535   7.439
 3670POPC   C1B49567  35.899  23.521   6.304
 3670POPC   C2B49568  36.011  23.725   6.697
 3670POPC   C3B49569  35.880  23.546   7.126
 3670POPC   C4B49570  35.594  23.733   7.447
 3671POPC   NC349571  27.826  28.485   5.178
 3671POPC   PO449572  27.661  29.096   5.357
 3671POPC   GL149573  27.727  29.072   5.774
 3671POPC   GL249574  27.823  29.414   5.880
 3671POPC   C1A49575  27.504  29.074   6.152
 3671POPC   D2A49576  27.301  29.167   6.540
 3671POPC   C3A49577  27.467  28.986   6.929
 3671POPC   C4A49578  27.681  28.923   7.316
 3671POPC   C1B49579  27.625  29.535   6.300
 3671POPC   C2B49580  27.698  29.430   6.754
 3671POPC   C3B49581  27.667  29.422   7.220
 3671POPC   C4B49582  27.748  29.654   7.630
 3672POPC   NC349583   6.929  39.117   5.348
 3672POPC   PO449584   6.409  39.450   5.515
 3672POPC   GL149585   6.730  39.331   5.814
 3672POPC   GL249586   6.733  38.966   5.831
 3672POPC   C1A49587   6.641  39.262   6.259
 3672POPC   D2A49588   6.373  39.378   6.593
 3672POPC   C3A49589   6.602  39.505   6.963
 3672POPC   C4A49590   6.499  39.555   7.398
 3672POPC   C1B49591   6.477  38.769   6.150
 3672POPC   C2B49592   6.340  38.854   6.572
 3672POPC   C3B49593   6.637  39.001   6.883
 3672POPC   C4B49594   6.660  39.081   7.339
 3673POPC   NC349595  38.217  29.282   5.527
 3673POPC   PO449596  38.636  28.852   5.381
 3673POPC   GL149597  38.556  28.965   5.804
 3673POPC   GL249598  38.667  29.288   5.794
 3673POPC   C1A49599  38.724  28.973   6.234
 3673POPC   D2A49600  38.604  28.786   6.642
 3673POPC   C3A49601  38.901  28.896   6.972
 3673POPC   C4A49602  38.710  29.180   7.281
 3673POPC   C1B49603  38.393  29.356   6.148
 3673POPC   C2B49604  38.316  29.386   6.574
 3673POPC   C3B49605  38.295  29.131   6.902
 3673POPC   C4B49606  38.183  29.263   7.276
 3674POPC   NC349607  35.719  25.217   5.529
 3674POPC   PO449608  35.111  25.187   5.583
 3674POPC   GL149609  35.411  25.191   5.934
 3674POPC   GL249610  35.455  25.529   5.898
 3674POPC   C1A49611  35.485  25.232   6.409
 3674POPC   D2A49612  35.404  25.430   6.831
 3674POPC   C3A49613  35.427  25.199   7.259
 3674POPC   C4A49614  35.155  24.972   7.533
 3674POPC   C1B49615  35.681  25.693   6.282
 3674POPC   C2B49616  35.643  25.882   6.712
 3674POPC   C3B49617  35.486  25.826   7.137
 3674POPC   C4B49618  35.388  25.627   7.533
 3675POPC   NC349619  42.345  16.532   5.441
 3675POPC   PO449620  41.948  16.918   5.137
 3675POPC   GL149621  42.167  16.952   5.668
 3675POPC   GL249622  42.488  16.966   5.767
 3675POPC   C1A49623  42.261  16.645   6.092
 3675POPC   D2A49624  42.592  16.745   6.414
 3675POPC   C3A49625  42.585  16.596   6.860
 3675POPC   C4A49626  42.516  16.695   7.278
 3675POPC   C1B49627  42.152  17.121   6.149
 3675POPC   C2B49628  42.189  17.003   6.601
 3675POPC   C3B49629  42.095  16.975   7.034
 3675POPC   C4B49630  42.185  17.245   7.368
 3676POPC   NC349631  17.753  14.919   5.415
 3676POPC   PO449632  17.377  14.334   5.477
 3676POPC   GL149633  17.283  14.463   5.898
 3676POPC   GL249634  17.319  14.120   5.971
 3676POPC   C1A49635  17.411  14.678   6.308
 3676POPC   D2A49636  17.732  14.606   6.656
 3676POPC   C3A49637  17.503  14.430   7.002
 3676POPC   C4A49638  17.180  14.596   7.292
 3676POPC   C1B49639  17.562  14.171   6.347
 3676POPC   C2B49640  17.746  14.003   6.715
 3676POPC   C3B49641  17.810  14.051   7.153
 3676POPC   C4B49642  17.661  14.316   7.482
 3677POPC   NC349643  17.659  38.144   5.302
 3677POPC   PO449644  17.219  38.640   5.461
 3677POPC   GL149645  17.472  38.572   5.828
 3677POPC   GL249646  17.723  38.311   5.776
 3677POPC   C1A49647  17.443  38.752   6.252
 3677POPC   D2A49648  17.178  38.748   6.638
 3677POPC   C3A49649  17.439  38.651   7.001
 3677POPC   C4A49650  17.407  38.208   7.148
 3677POPC   C1B49651  17.824  38.411   6.192
 3677POPC   C2B49652  17.662  38.427   6.597
 3677POPC   C3B49653  17.865  38.330   6.935
 3677POPC   C4B49654  17.822  38.434   7.314
 3678POPC   NC349655  38.808  34.918   5.490
 3678POPC   PO449656  38.358  35.479   5.426
 3678POPC   GL149657  38.416  35.353   5.862
 3678POPC   GL249658  38.450  34.970   5.867
 3678POPC   C1A49659  38.221  35.451   6.287
 3678POPC   D2A49660  38.217  35.725   6.652
 3678POPC   C3A49661  38.352  35.532   7.032
 3678POPC   C4A49662  38.270  35.365   7.437
 3678POPC   C1B49663  38.615  35.108   6.265
 3678POPC   C2B49664  38.418  35.146   6.670
 3678POPC   C3B49665  38.356  35.009   7.079
 3678POPC   C4B49666  38.797  35.062   7.165
 3679POPC   NC349667   3.299  19.276   5.392
 3679POPC   PO449668   3.842  18.941   5.396
 3679POPC   GL149669   3.793  19.008   5.810
 3679POPC   GL249670   3.755  19.366   5.866
 3679POPC   C1A49671   3.851  18.851   6.225
 3679POPC   D2A49672   3.628  18.941   6.589
 3679POPC   C3A49673   3.804  19.006   6.988
 3679POPC   C4A49674   3.918  18.961   7.425
 3679POPC   C1B49675   3.450  19.190   6.170
 3679POPC   C2B49676   3.194  19.238   6.561
 3679POPC   C3B49677   3.297  19.095   6.980
 3679POPC   C4B49678   3.433  18.858   7.344
 3680POPC   NC349679   7.919  17.018   5.516
 3680POPC   PO449680   8.499  16.577   5.470
 3680POPC   GL149681   8.331  16.806   5.828
 3680POPC   GL249682   7.975  16.717   5.950
 3680POPC   C1A49683   8.375  16.878   6.271
 3680POPC   D2A49684   8.078  16.774   6.582
 3680POPC   C3A49685   8.161  16.849   6.976
 3680POPC   C4A49686   8.078  16.508   7.232
 3680POPC   C1B49687   7.899  17.071   6.204
 3680POPC   C2B49688   7.702  17.154   6.587
 3680POPC   C3B49689   7.655  16.902   6.922
 3680POPC   C4B49690   7.793  17.020   7.296
 3681POPC   NC349691   0.674  20.918   5.453
 3681POPC   PO449692   0.274  20.336   5.497
 3681POPC   GL149693   0.563  20.514   5.798
 3681POPC   GL249694   0.316  20.750   5.825
 3681POPC   C1A49695   0.727  20.497   6.241
 3681POPC   D2A49696   0.483  20.654   6.632
 3681POPC   C3A49697   0.650  20.631   7.034
 3681POPC   C4A49698   0.493  20.504   7.452
 3681POPC   C1B49699   0.206  20.491   6.208
 3681POPC   C2B49700   0.173  20.265   6.633
 3681POPC   C3B49701   0.165  20.427   7.072
 3681POPC   C4B49702   0.016  20.370   7.536
 3682POPC   NC349703  36.661  32.033   5.557
 3682POPC   PO449704  37.182  32.473   5.501
 3682POPC   GL149705  36.964  32.356   5.846
 3682POPC   GL249706  37.162  32.049   5.875
 3682POPC   C1A49707  37.086  32.403   6.282
 3682POPC   D2A49708  37.380  32.228   6.575
 3682POPC   C3A49709  37.222  32.170   6.979
 3682POPC   C4A49710  37.016  31.831   7.119
 3682POPC   C1B49711  36.851  31.949   6.193
 3682POPC   C2B49712  36.843  32.058   6.621
 3682POPC   C3B49713  36.623  32.267   6.908
 3682POPC   C4B49714  36.842  32.485   7.194
 3683POPC   NC349715   0.892   6.862   5.635
 3683POPC   PO449716   1.458   6.749   5.281
 3683POPC   GL149717   1.341   6.639   5.777
 3683POPC   GL249718   1.503   6.371   5.944
 3683POPC   C1A49719   1.455   6.757   6.256
 3683POPC   D2A49720   1.378   6.565   6.647
 3683POPC   C3A49721   1.326   6.927   6.900
 3683POPC   C4A49722   1.493   7.093   7.292
 3683POPC   C1B49723   1.058   6.457   6.183
 3683POPC   C2B49724   0.833   6.490   6.602
 3683POPC   C3B49725   1.006   6.553   7.010
 3683POPC   C4B49726   1.341   6.313   7.142
 3684POPC   NC349727   5.722  27.311   4.950
 3684POPC   PO449728   6.015  27.751   5.307
 3684POPC   GL149729   5.929  27.619   5.753
 3684POPC   GL249730   5.808  27.894   5.905
 3684POPC   C1A49731   5.895  27.484   6.208
 3684POPC   D2A49732   5.893  27.613   6.645
 3684POPC   C3A49733   5.904  27.394   7.024
 3684POPC   C4A49734   6.117  27.509   7.405
 3684POPC   C1B49735   5.709  27.981   6.336
 3684POPC   C2B49736   5.487  27.868   6.753
 3684POPC   C3B49737   5.706  27.851   7.141
 3684POPC   C4B49738   5.899  27.962   7.540
 3685POPC   NC349739  27.874   2.858   5.504
 3685POPC   PO449740  27.365   2.502   5.511
 3685POPC   GL149741  27.543   2.644   5.883
 3685POPC   GL249742  27.880   2.469   5.876
 3685POPC   C1A49743  27.413   2.930   6.245
 3685POPC   D2A49744  27.229   2.901   6.668
 3685POPC   C3A49745  27.493   2.841   6.999
 3685POPC   C4A49746  27.646   3.109   7.332
 3685POPC   C1B49747  27.892   2.730   6.225
 3685POPC   C2B49748  27.682   2.593   6.579
 3685POPC   C3B49749  27.965   2.343   6.806
 3685POPC   C4B49750  27.994   2.677   7.103
 3686POPC   NC349751  20.020  34.893   5.463
 3686POPC   PO449752  19.846  34.308   5.269
 3686POPC   GL149753  19.757  34.484   5.671
 3686POPC   GL249754  20.063  34.423   5.810
 3686POPC   C1A49755  19.596  34.514   6.105
 3686POPC   D2A49756  19.664  34.437   6.567
 3686POPC   C3A49757  19.478  34.719   6.913
 3686POPC   C4A49758  19.685  34.890   7.289
 3686POPC   C1B49759  20.103  34.405   6.267
 3686POPC   C2B49760  20.146  34.573   6.711
 3686POPC   C3B49761  19.949  34.489   7.116
 3686POPC   C4B49762  20.011  34.427   7.561
 3687POPC   NC349763  38.188  36.853   5.461
 3687POPC   PO449764  38.837  37.078   5.550
 3687POPC   GL149765  38.525  36.958   5.829
 3687POPC   GL249766  38.535  36.596   5.834
 3687POPC   C1A49767  38.355  36.873   6.223
 3687POPC   D2A49768  38.614  36.949   6.600
 3687POPC   C3A49769  38.367  37.064   6.915
 3687POPC   C4A49770  38.416  36.993   7.346
 3687POPC   C1B49771  38.748  36.556   6.264
 3687POPC   C2B49772  38.837  36.492   6.718
 3687POPC   C3B49773  38.826  36.773   7.082
 3687POPC   C4B49774  38.742  36.691   7.551
 3688POPC   NC349775   6.012  22.857   5.435
 3688POPC   PO449776   5.620  23.413   5.611
 3688POPC   GL149777   5.745  23.050   5.854
 3688POPC   GL249778   5.550  22.750   5.763
 3688POPC   C1A49779   6.037  22.897   6.186
 3688POPC   D2A49780   5.939  22.912   6.639
 3688POPC   C3A49781   6.052  23.086   7.051
 3688POPC   C4A49782   6.042  22.683   7.284
 3688POPC   C1B49783   5.577  22.641   6.222
 3688POPC   C2B49784   5.465  22.695   6.675
 3688POPC   C3B49785   5.572  22.925   7.054
 3688POPC   C4B49786   5.518  23.316   7.246
 3689POPC   NC349787   7.021  43.792   5.496
 3689POPC   PO449788   7.559  44.145   5.487
 3689POPC   GL149789   7.397  43.849   5.843
 3689POPC   GL249790   7.194  43.518   5.882
 3689POPC   C1A49791   7.149  43.968   6.203
 3689POPC   D2A49792   7.187  44.246   6.542
 3689POPC   C3A49793   7.166  44.125   6.972
 3689POPC   C4A49794   7.510  43.901   7.150
 3689POPC   C1B49795   7.187  43.484   6.333
 3689POPC   C2B49796   7.105  43.637   6.748
 3689POPC   C3B49797   7.215  43.441   7.147
 3689POPC   C4B49798   7.184  43.655   7.520
 3690POPC   NC349799  26.321  25.973   5.600
 3690POPC   PO449800  26.774  25.661   5.208
 3690POPC   GL149801  26.802  25.654   5.732
 3690POPC   GL249802  26.511  25.733   5.996
 3690POPC   C1A49803  26.956  25.748   6.210
 3690POPC   D2A49804  26.985  26.034   6.584
 3690POPC   C3A49805  26.979  26.163   7.028
 3690POPC   C4A49806  26.821  25.811   7.254
 3690POPC   C1B49807  26.629  26.191   6.164
 3690POPC   C2B49808  26.698  26.456   6.540
 3690POPC   C3B49809  26.533  26.415   6.960
 3690POPC   C4B49810  26.589  26.246   7.402
 3691POPC   NC349811  40.524  18.809   5.142
 3691POPC   PO449812  40.647  19.431   5.443
 3691POPC   GL149813  40.803  19.193   5.818
 3691POPC   GL249814  40.925  18.820   5.726
 3691POPC   C1A49815  40.611  19.277   6.241
 3691POPC   D2A49816  40.375  19.265   6.628
 3691POPC   C3A49817  40.662  19.320   6.952
 3691POPC   C4A49818  41.067  19.224   7.121
 3691POPC   C1B49819  40.865  18.828   6.188
 3691POPC   C2B49820  40.871  18.980   6.616
 3691POPC   C3B49821  40.780  18.793   7.014
 3691POPC   C4B49822  40.457  18.580   7.224
 3692POPC   NC349823  15.867   0.796   5.455
 3692POPC   PO449824  16.293   0.334   5.439
 3692POPC   GL149825  16.128   0.391   5.847
 3692POPC   GL249826  15.795   0.499   5.868
 3692POPC   C1A49827  16.035   0.272   6.280
 3692POPC   D2A49828  15.875   0.449   6.676
 3692POPC   C3A49829  16.091   0.245   7.026
 3692POPC   C4A49830  16.224   0.471   7.405
 3692POPC   C1B49831  15.574   0.534   6.241
 3692POPC   C2B49832  15.563   0.861   6.540
 3692POPC   C3B49833  15.643   0.963   6.958
 3692POPC   C4B49834  15.776   0.609   7.177
 3693POPC   NC349835   6.341  27.440   5.178
 3693POPC   PO449836   6.965  27.441   5.344
 3693POPC   GL149837   6.669  27.532   5.713
 3693POPC   GL249838   6.872  27.674   5.988
 3693POPC   C1A49839   6.392  27.588   6.117
 3693POPC   D2A49840   6.338  27.400   6.541
 3693POPC   C3A49841   6.352  27.644   6.931
 3693POPC   C4A49842   6.710  27.843   7.073
 3693POPC   C1B49843   6.827  27.376   6.348
 3693POPC   C2B49844   6.792  27.375   6.824
 3693POPC   C3B49845   7.060  27.454   7.200
 3693POPC   C4B49846   7.080  27.370   7.667
 3694POPC   NC349847  39.149  26.364   5.553
 3694POPC   PO449848  38.925  25.740   5.371
 3694POPC   GL149849  39.025  25.907   5.784
 3694POPC   GL249850  39.387  25.937   5.879
 3694POPC   C1A49851  38.983  26.023   6.213
 3694POPC   D2A49852  39.123  25.830   6.576
 3694POPC   C3A49853  39.012  25.974   6.952
 3694POPC   C4A49854  39.262  25.908   7.292
 3694POPC   C1B49855  39.484  26.122   6.310
 3694POPC   C2B49856  39.663  26.198   6.737
 3694POPC   C3B49857  39.717  26.107   7.198
 3694POPC   C4B49858  39.475  26.295   7.580
 3695POPC   NC349859  18.654  44.962   5.337
 3695POPC   PO449860  19.275  44.795   5.515
 3695POPC   GL149861  18.938  44.653   5.764
 3695POPC   GL249862  19.220  44.587   6.039
 3695POPC   C1A49863  18.719  44.678   6.141
 3695POPC   D2A49864  19.011  44.825   6.431
 3695POPC   C3A49865  18.987  44.792   6.851
 3695POPC   C4A49866  18.901  44.645   7.220
 3695POPC   C1B49867  19.487  44.572   6.460
 3695POPC   C2B49868  19.476  44.305   6.851
 3695POPC   C3B49869  19.372  44.367   7.287
 3695POPC   C4B49870  19.560  44.418   7.703
 3696POPC   NC349871   1.831  42.726   5.338
 3696POPC   PO449872   2.001  43.450   5.456
 3696POPC   GL149873   1.978  43.133   5.796
 3696POPC   GL249874   1.699  42.901   5.788
 3696POPC   C1A49875   2.102  43.121   6.249
 3696POPC   D2A49876   2.332  43.093   6.662
 3696POPC   C3A49877   2.057  43.035   7.042
 3696POPC   C4A49878   2.117  43.190   7.477
 3696POPC   C1B49879   1.778  42.722   6.180
 3696POPC   C2B49880   1.848  42.839   6.608
 3696POPC   C3B49881   1.648  42.732   6.987
 3696POPC   C4B49882   1.690  42.922   7.399
 3697POPC   NC349883   3.585  12.546   5.386
 3697POPC   PO449884   3.740  13.204   5.184
 3697POPC   GL149885   3.760  13.216   5.676
 3697POPC   GL249886   3.428  13.143   5.705
 3697POPC   C1A49887   3.841  13.010   6.136
 3697POPC   D2A49888   3.906  12.781   6.571
 3697POPC   C3A49889   3.604  12.838   6.938
 3697POPC   C4A49890   3.282  12.651   7.233
 3697POPC   C1B49891   3.423  13.320   6.142
 3697POPC   C2B49892   3.517  13.231   6.577
 3697POPC   C3B49893   3.264  13.221   6.978
 3697POPC   C4B49894   3.312  13.366   7.383
 3698POPC   NC349895  38.159  31.408   5.539
 3698POPC   PO449896  38.759  31.239   5.342
 3698POPC   GL149897  38.595  31.437   5.771
 3698POPC   GL249898  38.776  31.740   5.808
 3698POPC   C1A49899  38.448  31.349   6.222
 3698POPC   D2A49900  38.755  31.438   6.542
 3698POPC   C3A49901  38.641  31.539   6.964
 3698POPC   C4A49902  38.344  31.422   7.207
 3698POPC   C1B49903  38.475  31.838   6.172
 3698POPC   C2B49904  38.315  31.749   6.570
 3698POPC   C3B49905  38.262  31.881   6.977
 3698POPC   C4B49906  38.347  31.933   7.391
 3699POPC   NC349907  31.729  20.028   5.414
 3699POPC   PO449908  31.130  19.864   5.618
 3699POPC   GL149909  31.252  19.616   5.917
 3699POPC   GL249910  31.603  19.775   5.875
 3699POPC   C1A49911  31.292  19.674   6.345
 3699POPC   D2A49912  31.622  19.734   6.628
 3699POPC   C3A49913  31.440  19.481   6.928
 3699POPC   C4A49914  31.156  19.629   7.198
 3699POPC   C1B49915  31.531  20.076   6.189
 3699POPC   C2B49916  31.593  20.267   6.611
 3699POPC   C3B49917  31.558  20.124   7.046
 3699POPC   C4B49918  31.277  20.104   7.420
 3700POPC   NC349919   3.548  38.332   5.454
 3700POPC   PO449920   3.095  38.776   5.536
 3700POPC   GL149921   3.380  38.754   5.876
 3700POPC   GL249922   3.728  38.893   5.798
 3700POPC   C1A49923   3.295  38.543   6.288
 3700POPC   D2A49924   3.144  38.345   6.675
 3700POPC   C3A49925   3.448  38.212   6.975
 3700POPC   C4A49926   3.334  38.275   7.388
 3700POPC   C1B49927   3.693  38.876   6.275
 3700POPC   C2B49928   3.478  38.954   6.686
 3700POPC   C3B49929   3.381  38.711   7.042
 3700POPC   C4B49930   3.748  38.548   7.280
 3701POPC   NC349931  24.822   1.852   5.334
 3701POPC   PO449932  25.010   2.417   5.523
 3701POPC   GL149933  24.757   2.163   5.777
 3701POPC   GL249934  24.604   2.371   6.042
 3701POPC   C1A49935  24.694   1.841   6.078
 3701POPC   D2A49936  24.820   1.777   6.535
 3701POPC   C3A49937  24.642   2.059   6.866
 3701POPC   C4A49938  24.534   2.268   7.270
 3701POPC   C1B49939  24.418   2.130   6.407
 3701POPC   C2B49940  24.132   2.034   6.779
 3701POPC   C3B49941  24.047   2.052   7.237
 3701POPC   C4B49942  24.136   2.297   7.622
 3702POPC   NC349943  21.802  41.610   5.566
 3702POPC   PO449944  22.445  41.826   5.476
 3702POPC   GL149945  22.246  41.597   5.800
 3702POPC   GL249946  22.345  41.859   6.017
 3702POPC   C1A49947  21.947  41.537   6.162
 3702POPC   D2A49948  21.849  41.662   6.539
 3702POPC   C3A49949  21.939  41.390   6.853
 3702POPC   C4A49950  21.899  41.557   7.250
 3702POPC   C1B49951  22.432  41.478   6.262
 3702POPC   C2B49952  22.449  41.271   6.642
 3702POPC   C3B49953  22.427  41.454   7.029
 3702POPC   C4B49954  22.579  41.820   7.167
 3703POPC   NC349955   8.408  34.999   5.436
 3703POPC   PO449956   8.302  34.335   5.367
 3703POPC   GL149957   8.146  34.514   5.754
 3703POPC   GL249958   7.986  34.888   5.769
 3703POPC   C1A49959   8.236  34.390   6.168
 3703POPC   D2A49960   8.202  34.528   6.572
 3703POPC   C3A49961   8.442  34.304   6.905
 3703POPC   C4A49962   8.309  34.288   7.345
 3703POPC   C1B49963   8.349  34.882   6.068
 3703POPC   C2B49964   8.435  34.984   6.500
 3703POPC   C3B49965   8.493  34.798   6.897
 3703POPC   C4B49966   8.697  34.811   7.257
 3704POPC   NC349967  13.891  26.437   5.358
 3704POPC   PO449968  13.510  27.061   5.486
 3704POPC   GL149969  13.594  27.043   5.952
 3704POPC   GL249970  13.938  27.093   6.029
 3704POPC   C1A49971  13.705  26.770   6.337
 3704POPC   D2A49972  13.721  26.472   6.703
 3704POPC   C3A49973  13.741  26.716   7.078
 3704POPC   C4A49974  14.130  26.862   7.207
 3704POPC   C1B49975  13.764  27.319   6.354
 3704POPC   C2B49976  13.417  27.158   6.595
 3704POPC   C3B49977  13.346  27.315   6.990
 3704POPC   C4B49978  13.724  27.257   7.177
 3705POPC   NC349979  15.047  35.645   5.581
 3705POPC   PO449980  15.241  35.054   5.444
 3705POPC   GL149981  15.350  35.240   5.841
 3705POPC   GL249982  15.520  35.540   5.787
 3705POPC   C1A49983  15.238  35.207   6.269
 3705POPC   D2A49984  15.079  35.222   6.680
 3705POPC   C3A49985  15.344  35.323   7.009
 3705POPC   C4A49986  15.367  35.097   7.395
 3705POPC   C1B49987  15.366  35.705   6.178
 3705POPC   C2B49988  15.209  35.708   6.591
 3705POPC   C3B49989  15.090  35.771   7.003
 3705POPC   C4B49990  15.327  35.715   7.337
 3706POPC   NC349991  33.441  28.186   5.273
 3706POPC   PO449992  33.667  28.663   5.380
 3706POPC   GL149993  33.737  28.517   5.812
 3706POPC   GL249994  33.630  28.164   5.840
 3706POPC   C1A49995  33.819  28.408   6.260
 3706POPC   D2A49996  33.688  28.397   6.663
 3706POPC   C3A49997  33.945  28.445   7.015
 3706POPC   C4A49998  34.180  28.567   7.387
 3706POPC   C1B49999  33.445  28.049   6.262
 3706POPC   C2B50000  33.564  27.891   6.671
 3706POPC   C3B50001  33.532  28.112   7.064
 3706POPC   C4B50002  33.430  28.557   7.087
 3707POPC   NC350003  38.711   7.588   5.344
 3707POPC   PO450004  38.357   7.042   5.488
 3707POPC   GL150005  38.422   7.309   5.819
 3707POPC   GL250006  38.686   7.576   5.866
 3707POPC   C1A50007  38.271   7.443   6.230
 3707POPC   D2A50008  38.326   7.705   6.580
 3707POPC   C3A50009  38.184   7.482   6.924
 3707POPC   C4A50010  37.956   7.638   7.252
 3707POPC   C1B50011  38.746   7.222   6.190
 3707POPC   C2B50012  38.597   7.231   6.621
 3707POPC   C3B50013  38.687   7.534   6.952
 3707POPC   C4B50014  38.609   7.607   7.377
 3708POPC   NC350015   2.722  36.319   5.523
 3708POPC   PO450016   2.817  35.674   5.320
 3708POPC   GL150017   2.845  35.894   5.785
 3708POPC   GL250018   2.506  35.956   5.942
 3708POPC   C1A50019   2.856  36.209   6.174
 3708POPC   D2A50020   3.015  36.392   6.563
 3708POPC   C3A50021   2.952  36.143   6.945
 3708POPC   C4A50022   2.817  36.225   7.365
 3708POPC   C1B50023   2.407  35.758   6.282
 3708POPC   C2B50024   2.606  35.970   6.590
 3708POPC   C3B50025   2.356  35.888   6.910
 3708POPC   C4B50026   2.472  35.882   7.281
 3709POPC   NC350027  29.717  10.464   5.395
 3709POPC   PO450028  30.267  10.867   5.451
 3709POPC   GL150029  29.991  10.692   5.783
 3709POPC   GL250030  29.624  10.720   5.852
 3709POPC   C1A50031  29.973  10.527   6.207
 3709POPC   D2A50032  29.796  10.559   6.603
 3709POPC   C3A50033  30.039  10.540   7.005
 3709POPC   C4A50034  30.133  10.348   7.415
 3709POPC   C1B50035  29.421  10.414   6.164
 3709POPC   C2B50036  29.370  10.261   6.595
 3709POPC   C3B50037  29.446  10.537   6.959
 3709POPC   C4B50038  29.617  10.506   7.374
 3710POPC   NC350039   3.876  37.641   5.292
 3710POPC   PO450040   3.280  37.939   5.355
 3710POPC   GL150041   3.456  37.647   5.674
 3710POPC   GL250042   3.793  37.773   5.791
 3710POPC   C1A50043   3.461  37.633   6.153
 3710POPC   D2A50044   3.426  37.915   6.510
 3710POPC   C3A50045   3.396  37.712   6.897
 3710POPC   C4A50046   3.389  37.786   7.306
 3710POPC   C1B50047   3.892  37.928   6.233
 3710POPC   C2B50048   3.900  37.734   6.658
 3710POPC   C3B50049   3.847  37.878   7.117
 3710POPC   C4B50050   3.781  37.693   7.586
 3711POPC   NC350051  39.193  34.218   5.509
 3711POPC   PO450052  39.047  33.536   5.640
 3711POPC   GL150053  38.972  33.877   5.853
 3711POPC   GL250054  39.327  33.913   5.911
 3711POPC   C1A50055  38.968  33.796   6.278
 3711POPC   D2A50056  39.230  33.938   6.610
 3711POPC   C3A50057  39.031  33.762   6.926
 3711POPC   C4A50058  39.066  33.751   7.337
 3711POPC   C1B50059  39.612  34.037   6.252
 3711POPC   C2B50060  39.704  34.138   6.707
 3711POPC   C3B50061  39.417  34.205   7.068
 3711POPC   C4B50062  39.426  34.082   7.539
 3712POPC   NC350063  28.324  35.212   5.348
 3712POPC   PO450064  28.304  35.850   5.287
 3712POPC   GL150065  28.173  35.610   5.718
 3712POPC   GL250066  28.421  35.342   5.836
 3712POPC   C1A50067  28.291  35.646   6.217
 3712POPC   D2A50068  28.539  35.790   6.628
 3712POPC   C3A50069  28.450  35.500   6.995
 3712POPC   C4A50070  28.056  35.397   7.184
 3712POPC   C1B50071  28.690  35.072   6.137
 3712POPC   C2B50072  28.550  34.820   6.532
 3712POPC   C3B50073  28.413  34.953   6.964
 3712POPC   C4B50074  28.593  35.125   7.339
 3713POPC   NC350075   7.718  41.765   5.352
 3713POPC   PO450076   7.345  41.233   5.496
 3713POPC   GL150077   7.317  41.419   5.888
 3713POPC   GL250078   7.404  41.728   5.799
 3713POPC   C1A50079   7.127  41.363   6.283
 3713POPC   D2A50080   6.971  41.331   6.690
 3713POPC   C3A50081   7.091  41.736   6.821
 3713POPC   C4A50082   7.385  41.599   7.090
 3713POPC   C1B50083   7.319  41.840   6.250
 3713POPC   C2B50084   7.596  41.933   6.618
 3713POPC   C3B50085   7.792  41.895   7.026
 3713POPC   C4B50086   7.553  41.942   7.408
 3714POPC   NC350087  37.470  27.993   5.428
 3714POPC   PO450088  37.770  28.669   5.353
 3714POPC   GL150089  37.645  28.416   5.744
 3714POPC   GL250090  37.852  28.124   5.795
 3714POPC   C1A50091  37.824  28.436   6.207
 3714POPC   D2A50092  37.849  28.276   6.618
 3714POPC   C3A50093  37.717  28.519   6.964
 3714POPC   C4A50094  37.853  28.467   7.352
 3714POPC   C1B50095  37.568  27.983   6.153
 3714POPC   C2B50096  37.455  27.949   6.607
 3714POPC   C3B50097  37.697  27.997   7.033
 3714POPC   C4B50098  37.520  28.092   7.455
 3715POPC   NC350099  44.999  34.677   5.595
 3715POPC   PO450100   0.649  34.526   5.368
 3715POPC   GL150101   0.570  34.629   5.790
 3715POPC   GL250102   0.418  34.944   5.804
 3715POPC   C1A50103   0.439  34.517   6.204
 3715POPC   D2A50104   0.545  34.198   6.532
 3715POPC   C3A50105   0.497  34.382   6.947
 3715POPC   C4A50106   0.124  34.402   7.196
 3715POPC   C1B50107   0.489  35.097   6.213
 3715POPC   C2B50108   0.602  34.872   6.573
 3715POPC   C3B50109   0.401  34.918   6.941
 3715POPC   C4B50110   0.486  34.799   7.335
 3716POPC   NC350111  37.725  18.255   5.352
 3716POPC   PO450112  37.080  17.893   5.368
 3716POPC   GL150113  37.297  18.025   5.804
 3716POPC   GL250114  37.581  18.290   5.853
 3716POPC   C1A50115  37.325  18.173   6.273
 3716POPC   D2A50116  37.573  18.293   6.654
 3716POPC   C3A50117  37.599  18.513   7.066
 3716POPC   C4A50118  37.351  18.380   7.441
 3716POPC   C1B50119  37.859  18.407   6.226
 3716POPC   C2B50120  38.055  18.445   6.662
 3716POPC   C3B50121  38.031  18.203   7.059
 3716POPC   C4B50122  37.830  18.219   7.475
 3717POPC   NC350123  27.412  22.660   5.530
 3717POPC   PO450124  27.700  23.174   5.157
 3717POPC   GL150125  27.733  23.058   5.659
 3717POPC   GL250126  27.446  22.968   5.921
 3717POPC   C1A50127  27.856  23.154   6.127
 3717POPC   D2A50128  27.535  23.226   6.458
 3717POPC   C3A50129  27.629  23.234   6.938
 3717POPC   C4A50130  27.831  23.060   7.347
 3717POPC   C1B50131  27.489  22.738   6.307
 3717POPC   C2B50132  27.369  22.837   6.737
 3717POPC   C3B50133  27.465  22.744   7.177
 3717POPC   C4B50134  27.534  22.573   7.611
 3718POPC   NC350135  36.566  40.352   5.433
 3718POPC   PO450136  35.891  40.080   5.323
 3718POPC   GL150137  36.068  39.953   5.771
 3718POPC   GL250138  36.351  40.182   5.863
 3718POPC   C1A50139  36.197  39.768   6.202
 3718POPC   D2A50140  36.354  39.888   6.619
 3718POPC   C3A50141  36.157  39.781   7.012
 3718POPC   C4A50142  35.985  40.057   7.325
 3718POPC   C1B50143  36.432  40.545   6.148
 3718POPC   C2B50144  36.231  40.580   6.543
 3718POPC   C3B50145  36.193  40.312   6.898
 3718POPC   C4B50146  36.399  40.341   7.288
 3719POPC   NC350147  43.004   7.066   5.283
 3719POPC   PO450148  43.366   6.565   5.225
 3719POPC   GL150149  43.224   6.646   5.655
 3719POPC   GL250150  42.865   6.695   5.715
 3719POPC   C1A50151  43.246   6.409   6.056
 3719POPC   D2A50152  43.145   6.418   6.513
 3719POPC   C3A50153  43.265   6.682   6.893
 3719POPC   C4A50154  43.270   6.404   7.282
 3719POPC   C1B50155  42.743   6.510   6.135
 3719POPC   C2B50156  42.620   6.424   6.563
 3719POPC   C3B50157  42.849   6.408   6.951
 3719POPC   C4B50158  42.896   6.730   7.282
 3720POPC   NC350159  27.952  15.125   5.529
 3720POPC   PO450160  27.394  15.233   5.196
 3720POPC   GL150161  27.479  15.199   5.711
 3720POPC   GL250162  27.766  15.232   5.982
 3720POPC   C1A50163  27.334  14.965   6.101
 3720POPC   D2A50164  27.320  14.881   6.553
 3720POPC   C3A50165  27.474  15.128   6.908
 3720POPC   C4A50166  27.529  15.134   7.357
 3720POPC   C1B50167  28.030  14.936   6.238
 3720POPC   C2B50168  28.080  14.812   6.688
 3720POPC   C3B50169  27.965  15.082   7.052
 3720POPC   C4B50170  27.765  15.532   7.122
 3721POPC   NC350171  36.919   6.210   5.512
 3721POPC   PO450172  36.603   5.662   5.444
 3721POPC   GL150173  36.747   5.851   5.850
 3721POPC   GL250174  37.118   5.850   5.834
 3721POPC   C1A50175  36.898   6.118   6.223
 3721POPC   D2A50176  36.721   6.212   6.657
 3721POPC   C3A50177  36.993   6.088   7.023
 3721POPC   C4A50178  36.830   5.729   7.270
 3721POPC   C1B50179  37.405   5.698   6.179
 3721POPC   C2B50180  37.467   5.692   6.644
 3721POPC   C3B50181  37.293   5.646   7.071
 3721POPC   C4B50182  37.320   5.815   7.490
 3722POPC   NC350183   6.462   6.554   5.413
 3722POPC   PO450184   7.041   6.362   5.347
 3722POPC   GL150185   6.781   6.372   5.762
 3722POPC   GL250186   6.569   6.710   5.883
 3722POPC   C1A50187   6.886   6.463   6.187
 3722POPC   D2A50188   6.854   6.727   6.566
 3722POPC   C3A50189   6.966   6.632   6.996
 3722POPC   C4A50190   7.001   6.959   7.326
 3722POPC   C1B50191   6.409   6.580   6.316
 3722POPC   C2B50192   6.401   6.598   6.774
 3722POPC   C3B50193   6.499   6.754   7.184
 3722POPC   C4B50194   6.296   6.670   7.624
 3723POPC   NC350195  38.864  26.923   5.381
 3723POPC   PO450196  38.195  27.076   5.422
 3723POPC   GL150197  38.370  27.057   5.810
 3723POPC   GL250198  38.444  26.710   5.836
 3723POPC   C1A50199  38.345  26.975   6.249
 3723POPC   D2A50200  38.582  26.749   6.547
 3723POPC   C3A50201  38.492  26.852   6.939
 3723POPC   C4A50202  38.681  26.896   7.330
 3723POPC   C1B50203  38.576  26.413   6.168
 3723POPC   C2B50204  38.663  26.217   6.575
 3723POPC   C3B50205  38.647  26.358   6.999
 3723POPC   C4B50206  38.336  26.522   7.296
 3724POPC   NC350207  30.930  11.470   4.984
 3724POPC   PO450208  30.259  11.427   5.119
 3724POPC   GL150209  30.365  11.355   5.612
 3724POPC   GL250210  30.673  11.457   5.775
 3724POPC   C1A50211  30.358  11.285   6.114
 3724POPC   D2A50212  30.692  11.408   6.449
 3724POPC   C3A50213  30.596  11.256   6.862
 3724POPC   C4A50214  30.428  11.336   7.284
 3724POPC   C1B50215  30.926  11.152   6.081
 3724POPC   C2B50216  31.076  10.947   6.521
 3724POPC   C3B50217  31.001  10.956   7.007
 3724POPC   C4B50218  30.949  11.358   7.244
 3725POPC   NC350219  27.001  12.412   5.425
 3725POPC   PO450220  26.475  11.986   5.282
 3725POPC   GL150221  26.684  12.096   5.688
 3725POPC   GL250222  27.040  12.085   5.817
 3725POPC   C1A50223  26.665  12.142   6.153
 3725POPC   D2A50224  26.993  12.199   6.459
 3725POPC   C3A50225  26.856  12.345   6.868
 3725POPC   C4A50226  26.621  12.086   7.145
 3725POPC   C1B50227  27.127  11.733   6.107
 3725POPC   C2B50228  27.237  11.769   6.537
 3725POPC   C3B50229  26.979  11.845   6.873
 3725POPC   C4B50230  27.165  11.892   7.265
 3726POPC   NC350231  32.432  41.774   5.446
 3726POPC   PO450232  32.083  41.241   5.548
 3726POPC   GL150233  32.071  41.543   5.878
 3726POPC   GL250234  32.336  41.750   5.941
 3726POPC   C1A50235  32.019  41.659   6.318
 3726POPC   D2A50236  32.080  41.771   6.749
 3726POPC   C3A50237  32.261  41.383   6.960
 3726POPC   C4A50238  32.216  41.394   7.364
 3726POPC   C1B50239  32.519  41.825   6.341
 3726POPC   C2B50240  32.586  41.699   6.748
 3726POPC   C3B50241  32.597  41.739   7.175
 3726POPC   C4B50242  32.853  42.073   7.170
 3727POPC   NC350243  29.948  11.181   5.341
 3727POPC   PO450244  29.702  11.802   5.473
 3727POPC   GL150245  29.936  11.571   5.784
 3727POPC   GL250246  29.898  11.201   5.836
 3727POPC   C1A50247  29.934  11.557   6.239
 3727POPC   D2A50248  30.231  11.586   6.557
 3727POPC   C3A50249  30.109  11.429   6.905
 3727POPC   C4A50250  29.921  11.428   7.266
 3727POPC   C1B50251  29.835  11.027   6.226
 3727POPC   C2B50252  30.009  11.021   6.630
 3727POPC   C3B50253  29.787  10.986   7.026
 3727POPC   C4B50254  29.601  11.056   7.424
 3728POPC   NC350255  19.406  10.085   5.590
 3728POPC   PO450256  18.958   9.879   5.119
 3728POPC   GL150257  19.063   9.636   5.622
 3728POPC   GL250258  18.753   9.553   5.845
 3728POPC   C1A50259  19.130   9.738   6.122
 3728POPC   D2A50260  19.011   9.666   6.563
 3728POPC   C3A50261  18.881   9.982   6.870
 3728POPC   C4A50262  18.922  10.010   7.315
 3728POPC   C1B50263  18.802   9.302   6.256
 3728POPC   C2B50264  18.728   9.188   6.701
 3728POPC   C3B50265  18.849   9.477   7.009
 3728POPC   C4B50266  19.251   9.686   7.113
 3729POPC   NC350267  38.227  38.527   5.472
 3729POPC   PO450268  38.330  37.930   5.678
 3729POPC   GL150269  38.379  38.350   5.925
 3729POPC   GL250270  38.556  38.682   5.839
 3729POPC   C1A50271  38.245  38.578   6.297
 3729POPC   D2A50272  38.253  38.837   6.687
 3729POPC   C3A50273  38.157  38.582   7.052
 3729POPC   C4A50274  38.406  38.335   7.337
 3729POPC   C1B50275  38.741  38.541   6.246
 3729POPC   C2B50276  38.641  38.461   6.687
 3729POPC   C3B50277  38.719  38.663   7.089
 3729POPC   C4B50278  38.638  38.767   7.543
 3730POPC   NC350279  23.262  20.412   5.654
 3730POPC   PO450280  23.113  21.041   5.474
 3730POPC   GL150281  22.900  20.971   5.869
 3730POPC   GL250282  22.885  20.647   5.966
 3730POPC   C1A50283  22.794  21.044   6.323
 3730POPC   D2A50284  23.026  21.023   6.748
 3730POPC   C3A50285  22.817  20.900   7.159
 3730POPC   C4A50286  22.828  20.462   7.333
 3730POPC   C1B50287  23.146  20.675   6.344
 3730POPC   C2B50288  23.118  20.526   6.796
 3730POPC   C3B50289  23.282  20.683   7.191
 3730POPC   C4B50290  23.632  20.800   7.462
 3731POPC   NC350291   6.030   7.916   5.347
 3731POPC   PO450292   5.646   8.428   5.288
 3731POPC   GL150293   5.788   8.270   5.722
 3731POPC   GL250294   6.157   8.118   5.796
 3731POPC   C1A50295   5.697   8.267   6.182
 3731POPC   D2A50296   5.979   8.338   6.548
 3731POPC   C3A50297   5.781   8.459   6.938
 3731POPC   C4A50298   5.381   8.352   7.104
 3731POPC   C1B50299   6.011   7.877   6.157
 3731POPC   C2B50300   6.076   7.824   6.599
 3731POPC   C3B50301   6.214   7.816   6.979
 3731POPC   C4B50302   5.970   8.084   7.217
 3732POPC   NC350303  13.284  43.254   5.341
 3732POPC   PO450304  13.900  42.903   5.473
 3732POPC   GL150305  13.661  43.140   5.748
 3732POPC   GL250306  13.630  42.807   5.901
 3732POPC   C1A50307  13.712  43.207   6.213
 3732POPC   D2A50308  13.894  43.045   6.610
 3732POPC   C3A50309  13.612  43.081   6.925
 3732POPC   C4A50310  13.571  43.437   7.106
 3732POPC   C1B50311  13.961  42.732   6.216
 3732POPC   C2B50312  13.976  42.513   6.645
 3732POPC   C3B50313  13.971  42.760   7.067
 3732POPC   C4B50314  13.994  43.141   7.343
 3733POPC   NC350315  38.429  30.905   5.206
 3733POPC   PO450316  38.340  30.273   5.293
 3733POPC   GL150317  38.420  30.587   5.663
 3733POPC   GL250318  38.374  30.954   5.712
 3733POPC   C1A50319  38.390  30.552   6.133
 3733POPC   D2A50320  38.125  30.578   6.514
 3733POPC   C3A50321  38.312  30.583   6.931
 3733POPC   C4A50322  38.607  30.472   7.257
 3733POPC   C1B50323  38.676  30.957   6.014
 3733POPC   C2B50324  38.652  30.899   6.479
 3733POPC   C3B50325  38.534  31.041   6.905
 3733POPC   C4B50326  38.283  30.938   7.302
 3734POPC   NC350327  33.968  35.998   5.502
 3734POPC   PO450328  33.635  36.527   5.523
 3734POPC   GL150329  33.845  36.325   5.882
 3734POPC   GL250330  33.698  36.008   5.920
 3734POPC   C1A50331  34.074  36.146   6.259
 3734POPC   D2A50332  34.087  36.149   6.709
 3734POPC   C3A50333  33.954  36.047   7.112
 3734POPC   C4A50334  33.702  36.411   7.234
 3734POPC   C1B50335  33.566  36.191   6.323
 3734POPC   C2B50336  33.340  36.091   6.731
 3734POPC   C3B50337  33.464  35.953   7.138
 3734POPC   C4B50338  33.500  36.083   7.610
 3735POPC   NC350339  25.607  13.780   5.468
 3735POPC   PO450340  26.241  13.570   5.403
 3735POPC   GL150341  25.960  13.461   5.735
 3735POPC   GL250342  25.988  13.793   5.850
 3735POPC   C1A50343  26.055  13.421   6.188
 3735POPC   D2A50344  26.135  13.703   6.524
 3735POPC   C3A50345  26.117  13.553   6.894
 3735POPC   C4A50346  25.878  13.367   7.210
 3735POPC   C1B50347  25.749  13.843   6.229
 3735POPC   C2B50348  25.606  13.766   6.673
 3735POPC   C3B50349  25.745  13.857   7.109
 3735POPC   C4B50350  25.730  13.736   7.587
 3736POPC   NC350351  33.584  13.389   5.583
 3736POPC   PO450352  33.980  13.874   5.171
 3736POPC   GL150353  33.958  13.814   5.732
 3736POPC   GL250354  33.824  13.531   5.997
 3736POPC   C1A50355  34.069  13.890   6.214
 3736POPC   D2A50356  33.969  13.511   6.498
 3736POPC   C3A50357  33.827  13.477   6.935
 3736POPC   C4A50358  33.903  13.803   7.241
 3736POPC   C1B50359  33.493  13.599   6.322
 3736POPC   C2B50360  33.342  13.606   6.699
 3736POPC   C3B50361  33.381  13.759   7.072
 3736POPC   C4B50362  33.517  13.513   7.371
 3737POPC   NC350363  20.068  14.802   5.069
 3737POPC   PO450364  19.700  15.122   5.558
 3737POPC   GL150365  19.755  15.289   5.934
 3737POPC   GL250366  20.075  15.399   5.850
 3737POPC   C1A50367  19.735  15.278   6.362
 3737POPC   D2A50368  19.707  15.020   6.696
 3737POPC   C3A50369  19.780  15.234   7.054
 3737POPC   C4A50370  19.641  15.622   7.200
 3737POPC   C1B50371  20.196  15.153   6.220
 3737POPC   C2B50372  20.179  15.169   6.679
 3737POPC   C3B50373  20.262  15.133   7.115
 3737POPC   C4B50374  20.352  15.445   7.427
 3738POPC   NC350375  22.948  28.774   5.482
 3738POPC   PO450376  22.749  29.328   5.277
 3738POPC   GL150377  22.844  29.314   5.751
 3738POPC   GL250378  22.981  28.998   5.928
 3738POPC   C1A50379  22.870  29.406   6.214
 3738POPC   D2A50380  23.063  29.258   6.609
 3738POPC   C3A50381  22.953  29.481   7.011
 3738POPC   C4A50382  23.053  29.298   7.438
 3738POPC   C1B50383  22.689  28.952   6.289
 3738POPC   C2B50384  22.565  29.153   6.690
 3738POPC   C3B50385  22.676  29.059   7.136
 3738POPC   C4B50386  22.791  28.843   7.526
 3739POPC   NC350387  15.963   9.892   5.337
 3739POPC   PO450388  16.267   9.369   5.436
 3739POPC   GL150389  15.990   9.554   5.742
 3739POPC   GL250390  16.195   9.876   5.822
 3739POPC   C1A50391  15.920   9.636   6.175
 3739POPC   D2A50392  16.163   9.543   6.508
 3739POPC   C3A50393  16.020   9.514   6.906
 3739POPC   C4A50394  16.082   9.788   7.249
 3739POPC   C1B50395  16.241  10.018   6.301
 3739POPC   C2B50396  16.054  10.016   6.737
 3739POPC   C3B50397  15.779  10.161   7.086
 3739POPC   C4B50398  15.839  10.209   7.554
 3740POPC   NC350399  41.800  34.161   5.242
 3740POPC   PO450400  41.296  33.874   5.480
 3740POPC   GL150401  41.546  33.837   5.825
 3740POPC   GL250402  41.655  34.186   5.774
 3740POPC   C1A50403  41.698  33.504   6.103
 3740POPC   D2A50404  41.784  33.657   6.478
 3740POPC   C3A50405  41.533  33.611   6.816
 3740POPC   C4A50406  41.679  33.678   7.210
 3740POPC   C1B50407  41.550  34.149   6.219
 3740POPC   C2B50408  41.396  34.073   6.623
 3740POPC   C3B50409  41.558  34.176   7.026
 3740POPC   C4B50410  41.735  34.380   7.376
 3741POPC   NC350411  35.808  33.620   5.592
 3741POPC   PO450412  36.481  33.911   5.370
 3741POPC   GL150413  36.179  33.961   5.732
 3741POPC   GL250414  36.192  33.638   5.924
 3741POPC   C1A50415  36.110  34.043   6.203
 3741POPC   D2A50416  36.226  33.680   6.501
 3741POPC   C3A50417  36.189  33.801   6.914
 3741POPC   C4A50418  36.264  33.758   7.340
 3741POPC   C1B50419  35.809  33.642   6.219
 3741POPC   C2B50420  35.725  33.765   6.660
 3741POPC   C3B50421  35.739  33.678   7.133
 3741POPC   C4B50422  35.822  33.948   7.486
 3742POPC   NC350423  33.851  13.111   5.233
 3742POPC   PO450424  33.315  12.691   5.331
 3742POPC   GL150425  33.644  12.847   5.640
 3742POPC   GL250426  33.596  12.552   5.822
 3742POPC   C1A50427  33.646  13.029   6.100
 3742POPC   D2A50428  33.577  13.131   6.550
 3742POPC   C3A50429  33.918  12.947   6.806
 3742POPC   C4A50430  34.087  12.656   7.117
 3742POPC   C1B50431  33.715  12.528   6.245
 3742POPC   C2B50432  33.535  12.607   6.642
 3742POPC   C3B50433  33.564  12.640   7.057
 3742POPC   C4B50434  33.667  13.025   7.245
 3743POPC   NC350435   2.690  21.084   5.060
 3743POPC   PO450436   2.930  21.313   5.610
 3743POPC   GL150437   2.643  21.312   5.895
 3743POPC   GL250438   2.681  21.598   6.005
 3743POPC   C1A50439   2.537  21.102   6.265
 3743POPC   D2A50440   2.716  21.046   6.699
 3743POPC   C3A50441   2.796  21.366   7.026
 3743POPC   C4A50442   3.101  21.701   7.074
 3743POPC   C1B50443   2.805  21.495   6.405
 3743POPC   C2B50444   2.442  21.478   6.661
 3743POPC   C3B50445   2.371  21.672   7.042
 3743POPC   C4B50446   2.491  21.649   7.475
 3744POPC   NC350447  19.130  33.601   5.472
 3744POPC   PO450448  18.859  34.245   5.415
 3744POPC   GL150449  18.813  33.938   5.751
 3744POPC   GL250450  18.673  33.577   5.716
 3744POPC   C1A50451  19.089  33.780   6.117
 3744POPC   D2A50452  19.210  33.761   6.571
 3744POPC   C3A50453  19.090  33.922   7.004
 3744POPC   C4A50454  19.331  33.878   7.390
 3744POPC   C1B50455  18.591  33.726   6.159
 3744POPC   C2B50456  18.653  33.546   6.579
 3744POPC   C3B50457  18.818  33.502   7.001
 3744POPC   C4B50458  18.865  33.687   7.442
 3745POPC   NC350459  25.960  38.272   5.663
 3745POPC   PO450460  26.211  37.764   5.863
 3745POPC   GL150461  26.304  38.198   6.051
 3745POPC   GL250462  26.263  38.579   5.944
 3745POPC   C1A50463  26.179  38.445   6.423
 3745POPC   D2A50464  25.889  38.684   6.693
 3745POPC   C3A50465  26.073  38.693   7.105
 3745POPC   C4A50466  26.216  38.308   7.302
 3745POPC   C1B50467  25.995  38.880   6.212
 3745POPC   C2B50468  25.814  39.178   6.541
 3745POPC   C3B50469  25.761  39.142   7.002
 3745POPC   C4B50470  25.542  38.899   7.350
 3746POPC   NC350471  33.203  38.051   5.523
 3746POPC   PO450472  32.809  37.808   5.036
 3746POPC   GL150473  32.898  37.616   5.553
 3746POPC   GL250474  33.100  37.361   5.826
 3746POPC   C1A50475  32.950  37.759   6.044
 3746POPC   D2A50476  32.969  37.648   6.465
 3746POPC   C3A50477  33.137  37.848   6.823
 3746POPC   C4A50478  33.053  37.739   7.242
 3746POPC   C1B50479  33.357  37.412   6.205
 3746POPC   C2B50480  33.533  37.566   6.616
 3746POPC   C3B50481  33.480  37.455   7.088
 3746POPC   C4B50482  33.559  37.416   7.573
 3747POPC   NC350483   1.082  15.603   5.604
 3747POPC   PO450484   1.147  16.265   5.415
 3747POPC   GL150485   0.968  16.080   5.775
 3747POPC   GL250486   1.333  16.001   5.849
 3747POPC   C1A50487   1.008  15.983   6.234
 3747POPC   D2A50488   1.225  16.078   6.636
 3747POPC   C3A50489   1.005  15.924   7.019
 3747POPC   C4A50490   1.069  15.540   7.266
 3747POPC   C1B50491   1.493  15.798   6.265
 3747POPC   C2B50492   1.568  15.722   6.737
 3747POPC   C3B50493   1.496  16.004   7.107
 3747POPC   C4B50494   1.542  16.318   7.424
 3748POPC   NC350495  27.800  32.841   5.242
 3748POPC   PO450496  27.855  32.163   5.433
 3748POPC   GL150497  27.720  32.213   5.890
 3748POPC   GL250498  27.993  32.059   5.952
 3748POPC   C1A50499  27.547  32.449   6.280
 3748POPC   D2A50500  27.432  32.263   6.698
 3748POPC   C3A50501  27.495  32.465   7.127
 3748POPC   C4A50502  27.259  32.432   7.524
 3748POPC   C1B50503  27.789  31.997   6.363
 3748POPC   C2B50504  27.881  32.039   6.785
 3748POPC   C3B50505  27.713  32.002   7.164
 3748POPC   C4B50506  27.778  32.242   7.529
 3749POPC   NC350507  40.178  30.826   5.369
 3749POPC   PO450508  39.916  30.320   5.375
 3749POPC   GL150509  40.143  30.468   5.771
 3749POPC   GL250510  40.281  30.819   5.861
 3749POPC   C1A50511  40.214  30.462   6.215
 3749POPC   D2A50512  39.974  30.599   6.560
 3749POPC   C3A50513  40.152  30.484   6.921
 3749POPC   C4A50514  39.992  30.390   7.331
 3749POPC   C1B50515  40.035  30.964   6.200
 3749POPC   C2B50516  39.981  31.188   6.567
 3749POPC   C3B50517  39.886  31.034   6.960
 3749POPC   C4B50518  40.151  30.868   7.240
 3750POPC   NC350519  32.090   0.679   5.418
 3750POPC   PO450520  32.678   0.307   5.501
 3750POPC   GL150521  32.345   0.370   5.773
 3750POPC   GL250522  32.415   0.701   5.855
 3750POPC   C1A50523  32.108   0.347   6.164
 3750POPC   D2A50524  31.970   0.164   6.549
 3750POPC   C3A50525  32.211   0.157   6.905
 3750POPC   C4A50526  32.149   0.309   7.281
 3750POPC   C1B50527  32.504   0.651   6.306
 3750POPC   C2B50528  32.371   0.612   6.737
 3750POPC   C3B50529  32.268   0.762   7.131
 3750POPC   C4B50530  32.492   0.630   7.529
 3751POPC   NC350531   8.256   2.399   5.389
 3751POPC   PO450532   8.746   2.741   5.358
 3751POPC   GL150533   8.458   2.637   5.789
 3751POPC   GL250534   8.058   2.607   5.811
 3751POPC   C1A50535   8.311   2.645   6.254
 3751POPC   D2A50536   8.309   2.939   6.601
 3751POPC   C3A50537   8.599   2.758   6.898
 3751POPC   C4A50538   8.481   2.677   7.299
 3751POPC   C1B50539   7.919   2.309   6.138
 3751POPC   C2B50540   7.883   2.430   6.554
 3751POPC   C3B50541   8.141   2.524   6.878
 3751POPC   C4B50542   8.070   2.362   7.236
 3752POPC   NC350543   9.458  11.719   5.602
 3752POPC   PO450544   9.979  11.966   5.215
 3752POPC   GL150545   9.935  11.952   5.702
 3752POPC   GL250546   9.640  12.106   5.850
 3752POPC   C1A50547   9.919  11.926   6.199
 3752POPC   D2A50548   9.747  12.080   6.588
 3752POPC   C3A50549   9.830  11.824   6.949
 3752POPC   C4A50550  10.058  11.797   7.324
 3752POPC   C1B50551   9.367  12.170   6.206
 3752POPC   C2B50552   9.337  12.386   6.566
 3752POPC   C3B50553   9.452  12.363   6.959
 3752POPC   C4B50554   9.687  12.168   7.278
 3753POPC   NC350555   2.527  44.638   5.562
 3753POPC   PO450556   3.279  44.526   5.505
 3753POPC   GL150557   3.053  44.639   5.917
 3753POPC   GL250558   2.797  44.410   5.946
 3753POPC   C1A50559   2.697  44.852   6.190
 3753POPC   D2A50560   2.435  44.761   6.563
 3753POPC   C3A50561   2.512  44.893   6.996
 3753POPC   C4A50562   2.898  44.898   7.298
 3753POPC   C1B50563   2.530  44.327   6.303
 3753POPC   C2B50564   2.630  44.129   6.669
 3753POPC   C3B50565   2.489  44.178   7.067
 3753POPC   C4B50566   2.570  44.508   7.326
 3754POPC   NC350567  42.294  26.914   5.459
 3754POPC   PO450568  42.333  26.251   5.424
 3754POPC   GL150569  42.239  26.501   5.768
 3754POPC   GL250570  41.959  26.522   5.939
 3754POPC   C1A50571  42.373  26.712   6.146
 3754POPC   D2A50572  42.358  26.567   6.555
 3754POPC   C3A50573  42.666  26.634   6.842
 3754POPC   C4A50574  42.432  26.669   7.204
 3754POPC   C1B50575  41.903  26.694   6.343
 3754POPC   C2B50576  41.985  27.101   6.581
 3754POPC   C3B50577  42.113  27.030   6.992
 3754POPC   C4B50578  41.915  26.766   7.261
 3755POPC   NC350579   2.526   0.498   5.597
 3755POPC   PO450580   2.878  44.921   5.542
 3755POPC   GL150581   2.903   0.262   5.844
 3755POPC   GL250582   2.932   0.685   5.819
 3755POPC   C1A50583   2.787   0.378   6.236
 3755POPC   D2A50584   2.555   0.254   6.559
 3755POPC   C3A50585   2.814   0.293   6.906
 3755POPC   C4A50586   2.776   0.389   7.318
 3755POPC   C1B50587   2.738   0.883   6.193
 3755POPC   C2B50588   2.518   0.904   6.604
 3755POPC   C3B50589   2.598   0.795   7.054
 3755POPC   C4B50590   2.729   0.873   7.513
 3756POPC   NC350591  36.263  29.619   5.602
 3756POPC   PO450592  36.688  30.121   5.375
 3756POPC   GL150593  36.482  30.146   5.790
 3756POPC   GL250594  36.126  30.178   5.804
 3756POPC   C1A50595  36.428  30.040   6.207
 3756POPC   D2A50596  36.251  30.110   6.579
 3756POPC   C3A50597  36.086  29.756   6.799
 3756POPC   C4A50598  35.998  29.757   7.230
 3756POPC   C1B50599  35.863  30.283   6.158
 3756POPC   C2B50600  35.730  30.156   6.577
 3756POPC   C3B50601  35.920  30.242   6.975
 3756POPC   C4B50602  35.713  30.174   7.337
 3757POPC   NC350603  30.818  39.191   5.364
 3757POPC   PO450604  30.383  38.691   5.285
 3757POPC   GL150605  30.680  38.884   5.722
 3757POPC   GL250606  30.724  39.263   5.855
 3757POPC   C1A50607  30.919  38.903   6.144
 3757POPC   D2A50608  30.852  39.259   6.457
 3757POPC   C3A50609  30.590  39.163   6.779
 3757POPC   C4A50610  30.703  38.900   7.102
 3757POPC   C1B50611  30.502  39.510   6.184
 3757POPC   C2B50612  30.596  39.718   6.572
 3757POPC   C3B50613  30.796  39.593   6.941
 3757POPC   C4B50614  30.558  39.352   7.285
 3758POPC   NC350615  12.853  29.488   5.427
 3758POPC   PO450616  13.140  28.945   5.469
 3758POPC   GL150617  13.001  29.021   5.880
 3758POPC   GL250618  12.814  29.366   5.925
 3758POPC   C1A50619  13.149  29.192   6.266
 3758POPC   D2A50620  12.976  29.176   6.679
 3758POPC   C3A50621  13.204  29.165   7.053
 3758POPC   C4A50622  13.070  29.094   7.481
 3758POPC   C1B50623  12.793  29.569   6.357
 3758POPC   C2B50624  12.744  29.587   6.826
 3758POPC   C3B50625  12.702  29.258   7.143
 3758POPC   C4B50626  12.615  29.299   7.590
 3759POPC   NC350627  36.028  16.516   5.535
 3759POPC   PO450628  36.280  15.879   5.537
 3759POPC   GL150629  35.927  15.998   5.767
 3759POPC   GL250630  36.098  16.232   5.952
 3759POPC   C1A50631  35.878  15.843   6.183
 3759POPC   D2A50632  36.198  15.846   6.476
 3759POPC   C3A50633  35.973  15.990   6.787
 3759POPC   C4A50634  35.787  15.900   7.164
 3759POPC   C1B50635  36.144  16.351   6.380
 3759POPC   C2B50636  36.128  16.468   6.811
 3759POPC   C3B50637  36.184  16.230   7.180
 3759POPC   C4B50638  36.361  16.368   7.557
 3760POPC   NC350639  40.125   6.894   5.710
 3760POPC   PO450640  39.750   6.425   5.415
 3760POPC   GL150641  39.958   6.406   5.812
 3760POPC   GL250642  40.262   6.455   5.953
 3760POPC   C1A50643  39.849   6.465   6.253
 3760POPC   D2A50644  39.664   6.234   6.585
 3760POPC   C3A50645  39.764   6.448   6.948
 3760POPC   C4A50646  39.853   6.818   7.132
 3760POPC   C1B50647  40.335   6.669   6.332
 3760POPC   C2B50648  40.100   6.774   6.685
 3760POPC   C3B50649  40.313   6.656   7.075
 3760POPC   C4B50650  40.454   6.268   7.217
 3761POPC   NC350651  24.149  30.742   5.517
 3761POPC   PO450652  23.464  30.607   5.505
 3761POPC   GL150653  23.707  30.719   5.840
 3761POPC   GL250654  23.543  30.994   6.003
 3761POPC   C1A50655  23.945  30.756   6.210
 3761POPC   D2A50656  23.801  30.928   6.571
 3761POPC   C3A50657  23.747  30.652   6.897
 3761POPC   C4A50658  23.970  30.746   7.237
 3761POPC   C1B50659  23.292  30.950   6.365
 3761POPC   C2B50660  23.338  30.981   6.805
 3761POPC   C3B50661  23.439  31.048   7.218
 3761POPC   C4B50662  23.604  31.073   7.631
 3762POPC   NC350663  42.103   8.252   5.359
 3762POPC   PO450664  41.538   8.281   5.479
 3762POPC   GL150665  41.507   8.412   5.849
 3762POPC   GL250666  41.201   8.499   5.913
 3762POPC   C1A50667  41.480   8.147   6.202
 3762POPC   D2A50668  41.650   7.975   6.548
 3762POPC   C3A50669  41.766   8.144   6.969
 3762POPC   C4A50670  41.471   8.375   7.245
 3762POPC   C1B50671  41.001   8.327   6.248
 3762POPC   C2B50672  41.150   8.193   6.626
 3762POPC   C3B50673  41.310   7.915   6.920
 3762POPC   C4B50674  41.413   7.816   7.341
 3763POPC   NC350675  35.706  34.610   5.500
 3763POPC   PO450676  34.994  34.382   5.394
 3763POPC   GL150677  35.128  34.285   5.794
 3763POPC   GL250678  35.338  34.580   5.876
 3763POPC   C1A50679  35.088  34.360   6.232
 3763POPC   D2A50680  35.412  34.424   6.531
 3763POPC   C3A50681  35.315  34.367   6.951
 3763POPC   C4A50682  35.631  34.387   7.297
 3763POPC   C1B50683  35.360  34.859   6.268
 3763POPC   C2B50684  35.317  34.901   6.698
 3763POPC   C3B50685  35.458  34.842   7.111
 3763POPC   C4B50686  35.300  34.715   7.521
 3764POPC   NC350687  12.783  44.699   5.299
 3764POPC   PO450688  13.064  44.265   5.710
 3764POPC   GL150689  13.043  44.726   5.779
 3764POPC   GL250690  12.717  44.680   5.808
 3764POPC   C1A50691  13.036  44.883   6.227
 3764POPC   D2A50692  12.841  44.606   6.593
 3764POPC   C3A50693  13.144  44.324   6.858
 3764POPC   C4A50694  13.193  44.322   7.299
 3764POPC   C1B50695  12.531  44.855   6.187
 3764POPC   C2B50696  12.328  44.820   6.581
 3764POPC   C3B50697  12.448  44.644   6.977
 3764POPC   C4B50698  12.446  44.784   7.419
 3765POPC   NC350699  31.639  39.041   5.344
 3765POPC   PO450700  31.571  39.712   5.396
 3765POPC   GL150701  31.256  39.393   5.614
 3765POPC   GL250702  31.377  39.077   5.757
 3765POPC   C1A50703  31.184  39.361   6.095
 3765POPC   D2A50704  31.365  39.286   6.517
 3765POPC   C3A50705  31.130  39.121   6.873
 3765POPC   C4A50706  31.053  39.320   7.277
 3765POPC   C1B50707  31.533  38.969   6.134
 3765POPC   C2B50708  31.515  38.807   6.530
 3765POPC   C3B50709  31.627  38.878   6.925
 3765POPC   C4B50710  31.465  39.037   7.275
 3766POPC   NC350711   8.984  19.508   5.308
 3766POPC   PO450712   8.568  18.984   5.469
 3766POPC   GL150713   8.720  19.261   5.778
 3766POPC   GL250714   9.056  19.191   5.694
 3766POPC   C1A50715   8.639  19.323   6.218
 3766POPC   D2A50716   8.513  19.057   6.556
 3766POPC   C3A50717   8.766  19.108   6.914
 3766POPC   C4A50718   8.808  18.767   7.200
 3766POPC   C1B50719   9.139  19.209   6.123
 3766POPC   C2B50720   9.155  19.081   6.542
 3766POPC   C3B50721   9.244  18.884   6.934
 3766POPC   C4B50722   9.169  19.123   7.279
 3767POPC   NC350723  12.251  41.711   5.278
 3767POPC   PO450724  11.634  41.510   5.409
 3767POPC   GL150725  11.943  41.630   5.766
 3767POPC   GL250726  12.283  41.813   5.778
 3767POPC   C1A50727  12.090  41.560   6.214
 3767POPC   D2A50728  12.201  41.247   6.553
 3767POPC   C3A50729  12.155  41.409   6.985
 3767POPC   C4A50730  11.934  41.725   7.238
 3767POPC   C1B50731  12.497  41.925   6.170
 3767POPC   C2B50732  12.433  41.726   6.577
 3767POPC   C3B50733  12.413  41.863   6.975
 3767POPC   C4B50734  12.450  41.687   7.361
 3768POPC   NC350735   4.857  20.589   5.339
 3768POPC   PO450736   5.530  20.507   5.275
 3768POPC   GL150737   5.294  20.584   5.779
 3768POPC   GL250738   4.949  20.723   5.841
 3768POPC   C1A50739   5.181  20.514   6.235
 3768POPC   D2A50740   4.883  20.627   6.566
 3768POPC   C3A50741   4.965  20.382   6.913
 3768POPC   C4A50742   5.200  20.457   7.258
 3768POPC   C1B50743   4.999  21.011   6.217
 3768POPC   C2B50744   4.869  21.155   6.650
 3768POPC   C3B50745   4.945  20.936   7.058
 3768POPC   C4B50746   5.066  20.857   7.529
 3769POPC   NC350747  27.124   1.134   5.512
 3769POPC   PO450748  26.549   1.410   5.281
 3769POPC   GL150749  26.687   1.308   5.716
 3769POPC   GL250750  26.974   1.540   5.802
 3769POPC   C1A50751  26.771   1.065   6.132
 3769POPC   D2A50752  26.805   0.915   6.586
 3769POPC   C3A50753  26.698   1.177   6.925
 3769POPC   C4A50754  26.765   1.164   7.358
 3769POPC   C1B50755  27.226   1.423   6.180
 3769POPC   C2B50756  27.378   1.528   6.621
 3769POPC   C3B50757  27.101   1.494   6.983
 3769POPC   C4B50758  26.712   1.687   7.167
 3770POPC   NC350759  34.424   9.604   5.404
 3770POPC   PO450760  34.805  10.091   5.427
 3770POPC   GL150761  34.589   9.927   5.804
 3770POPC   GL250762  34.341   9.638   5.887
 3770POPC   C1A50763  34.665   9.831   6.223
 3770POPC   D2A50764  34.836   9.888   6.594
 3770POPC   C3A50765  34.489   9.885   6.875
 3770POPC   C4A50766  34.509   9.731   7.249
 3770POPC   C1B50767  34.309   9.399   6.210
 3770POPC   C2B50768  34.489   9.459   6.589
 3770POPC   C3B50769  34.344   9.267   6.945
 3770POPC   C4B50770  34.275   9.278   7.353
 3771POPC   NC350771  41.084  23.903   5.528
 3771POPC   PO450772  40.519  23.540   5.572
 3771POPC   GL150773  40.762  23.702   5.881
 3771POPC   GL250774  41.081  23.535   5.873
 3771POPC   C1A50775  40.706  23.590   6.280
 3771POPC   D2A50776  40.644  23.385   6.620
 3771POPC   C3A50777  40.736  23.601   6.988
 3771POPC   C4A50778  40.856  24.028   7.174
 3771POPC   C1B50779  41.166  23.760   6.231
 3771POPC   C2B50780  41.032  23.838   6.617
 3771POPC   C3B50781  41.232  23.726   6.963
 3771POPC   C4B50782  41.119  23.658   7.378
 3772POPC   NC350783  22.635  21.161   5.443
 3772POPC   PO450784  22.157  20.750   5.528
 3772POPC   GL150785  22.392  20.842   5.903
 3772POPC   GL250786  22.437  21.191   5.926
 3772POPC   C1A50787  22.471  20.654   6.331
 3772POPC   D2A50788  22.498  20.838   6.760
 3772POPC   C3A50789  22.368  20.629   7.159
 3772POPC   C4A50790  22.368  20.438   7.593
 3772POPC   C1B50791  22.270  21.126   6.338
 3772POPC   C2B50792  22.126  21.201   6.756
 3772POPC   C3B50793  22.031  21.029   7.166
 3772POPC   C4B50794  21.909  20.648   7.403
 3773POPC   NC350795  26.941  41.133   5.601
 3773POPC   PO450796  26.674  40.626   5.238
 3773POPC   GL150797  26.875  40.628   5.668
 3773POPC   GL250798  26.550  40.682   5.754
 3773POPC   C1A50799  26.889  40.810   6.132
 3773POPC   D2A50800  26.684  40.916   6.524
 3773POPC   C3A50801  26.892  40.825   6.905
 3773POPC   C4A50802  26.747  40.900   7.316
 3773POPC   C1B50803  26.393  40.655   6.167
 3773POPC   C2B50804  26.318  40.385   6.512
 3773POPC   C3B50805  26.472  40.540   6.896
 3773POPC   C4B50806  26.361  40.523   7.314
 3774POPC   NC350807  40.531  41.980   5.400
 3774POPC   PO450808  39.915  41.619   5.442
 3774POPC   GL150809  39.958  41.672   5.885
 3774POPC   GL250810  40.286  41.776   5.810
 3774POPC   C1A50811  40.167  41.499   6.249
 3774POPC   D2A50812  40.453  41.438   6.558
 3774POPC   C3A50813  40.188  41.476   6.918
 3774POPC   C4A50814  40.296  41.398   7.307
 3774POPC   C1B50815  40.285  42.008   6.190
 3774POPC   C2B50816  40.217  41.911   6.611
 3774POPC   C3B50817  40.287  42.154   6.971
 3774POPC   C4B50818  40.251  41.912   7.318
 3775POPC   NC350819   8.004  44.059   5.577
 3775POPC   PO450820   8.298  43.441   5.389
 3775POPC   GL150821   8.146  43.433   5.822
 3775POPC   GL250822   7.793  43.364   5.851
 3775POPC   C1A50823   8.224  43.650   6.251
 3775POPC   D2A50824   8.425  44.015   6.517
 3775POPC   C3A50825   8.365  43.990   6.956
 3775POPC   C4A50826   8.016  43.736   7.122
 3775POPC   C1B50827   7.677  43.609   6.202
 3775POPC   C2B50828   7.606  43.730   6.620
 3775POPC   C3B50829   7.864  44.040   6.768
 3775POPC   C4B50830   7.965  44.253   7.159
 3776POPC   NC350831   1.550  16.093   5.262
 3776POPC   PO450832   1.518  15.488   5.567
 3776POPC   GL150833   1.805  15.777   5.834
 3776POPC   GL250834   2.099  16.031   5.794
 3776POPC   C1A50835   2.002  15.826   6.256
 3776POPC   D2A50836   2.074  15.698   6.660
 3776POPC   C3A50837   2.014  15.913   7.030
 3776POPC   C4A50838   2.198  15.572   7.242
 3776POPC   C1B50839   2.153  16.304   6.202
 3776POPC   C2B50840   2.265  16.494   6.635
 3776POPC   C3B50841   2.359  16.375   7.078
 3776POPC   C4B50842   2.377  16.572   7.528
 3777POPC   NC350843   7.391  12.486   5.387
 3777POPC   PO450844   7.314  11.832   5.379
 3777POPC   GL150845   7.334  12.029   5.785
 3777POPC   GL250846   7.081  12.270   5.872
 3777POPC   C1A50847   7.627  12.020   6.158
 3777POPC   D2A50848   7.914  11.778   6.470
 3777POPC   C3A50849   7.858  11.938   6.900
 3777POPC   C4A50850   7.842  11.986   7.356
 3777POPC   C1B50851   7.117  12.511   6.245
 3777POPC   C2B50852   7.133  12.490   6.691
 3777POPC   C3B50853   7.370  12.271   7.013
 3777POPC   C4B50854   7.725  12.473   7.194
 3778POPC   NC350855  38.635  37.570   5.568
 3778POPC   PO450856  38.027  37.328   5.522
 3778POPC   GL150857  38.267  37.411   5.931
 3778POPC   GL250858  38.523  37.684   6.065
 3778POPC   C1A50859  38.358  37.344   6.378
 3778POPC   D2A50860  38.555  37.659   6.618
 3778POPC   C3A50861  38.615  37.498   7.021
 3778POPC   C4A50862  38.237  37.441   7.246
 3778POPC   C1B50863  38.482  38.083   6.332
 3778POPC   C2B50864  38.196  38.191   6.669
 3778POPC   C3B50865  38.339  37.946   7.004
 3778POPC   C4B50866  38.756  37.937   7.235
 3779POPC   NC350867  44.040  42.501   5.323
 3779POPC   PO450868  43.595  42.190   5.051
 3779POPC   GL150869  43.816  42.143   5.562
 3779POPC   GL250870  43.612  42.430   5.673
 3779POPC   C1A50871  43.960  42.230   6.018
 3779POPC   D2A50872  43.923  42.495   6.429
 3779POPC   C3A50873  44.073  42.368   6.859
 3779POPC   C4A50874  43.944  42.592   7.228
 3779POPC   C1B50875  43.505  42.497   6.113
 3779POPC   C2B50876  43.391  42.305   6.511
 3779POPC   C3B50877  43.526  42.372   6.937
 3779POPC   C4B50878  43.695  42.130   7.264
 3780POPC   NC350879  20.227  38.373   5.571
 3780POPC   PO450880  20.689  38.752   5.498
 3780POPC   GL150881  20.521  38.771   5.900
 3780POPC   GL250882  20.160  38.792   5.868
 3780POPC   C1A50883  20.690  38.759   6.344
 3780POPC   D2A50884  20.764  38.860   6.787
 3780POPC   C3A50885  20.874  38.549   7.089
 3780POPC   C4A50886  20.963  38.703   7.481
 3780POPC   C1B50887  20.212  38.590   6.283
 3780POPC   C2B50888  20.267  38.759   6.702
 3780POPC   C3B50889  20.378  38.653   7.114
 3780POPC   C4B50890  20.498  38.438   7.478
 3781POPC   NC350891  41.820  30.455   5.596
 3781POPC   PO450892  41.491  29.919   5.391
 3781POPC   GL150893  41.379  29.841   5.794
 3781POPC   GL250894  41.451  30.157   5.871
 3781POPC   C1A50895  41.495  29.690   6.199
 3781POPC   D2A50896  41.751  29.610   6.576
 3781POPC   C3A50897  41.606  29.822   6.933
 3781POPC   C4A50898  41.253  29.748   7.207
 3781POPC   C1B50899  41.773  30.138   6.198
 3781POPC   C2B50900  41.855  30.292   6.605
 3781POPC   C3B50901  41.752  30.367   7.049
 3781POPC   C4B50902  41.586  30.101   7.362
 3782POPC   NC350903  16.009  29.615   5.556
 3782POPC   PO450904  15.694  29.047   5.463
 3782POPC   GL150905  15.815  29.002   5.893
 3782POPC   GL250906  16.042  29.234   5.896
 3782POPC   C1A50907  15.638  29.157   6.289
 3782POPC   D2A50908  15.473  29.220   6.711
 3782POPC   C3A50909  15.696  28.934   6.958
 3782POPC   C4A50910  15.849  29.137   7.341
 3782POPC   C1B50911  16.362  29.390   6.168
 3782POPC   C2B50912  16.372  29.225   6.548
 3782POPC   C3B50913  16.179  29.171   6.947
 3782POPC   C4B50914  16.365  29.113   7.337
 3783POPC   NC350915  19.529  26.138   5.395
 3783POPC   PO450916  20.081  26.451   5.671
 3783POPC   GL150917  19.812  26.173   5.872
 3783POPC   GL250918  19.998  25.862   5.950
 3783POPC   C1A50919  19.845  26.229   6.332
 3783POPC   D2A50920  19.765  26.176   6.759
 3783POPC   C3A50921  20.088  25.980   7.002
 3783POPC   C4A50922  20.097  26.377   7.202
 3783POPC   C1B50923  19.607  25.816   6.174
 3783POPC   C2B50924  19.587  25.736   6.582
 3783POPC   C3B50925  19.492  25.823   6.993
 3783POPC   C4B50926  19.758  25.865   7.369
 3784POPC   NC350927  32.532   8.298   5.134
 3784POPC   PO450928  31.925   8.315   5.408
 3784POPC   GL150929  32.033   8.151   5.781
 3784POPC   GL250930  32.357   8.207   5.679
 3784POPC   C1A50931  31.961   8.330   6.199
 3784POPC   D2A50932  32.240   8.507   6.521
 3784POPC   C3A50933  32.266   8.324   6.904
 3784POPC   C4A50934  32.263   8.473   7.337
 3784POPC   C1B50935  32.452   8.235   6.129
 3784POPC   C2B50936  32.421   7.958   6.500
 3784POPC   C3B50937  32.549   7.828   6.917
 3784POPC   C4B50938  32.332   7.973   7.266
 3785POPC   NC350939  41.836   9.735   5.267
 3785POPC   PO450940  42.414   9.588   5.235
 3785POPC   GL150941  42.278   9.687   5.684
 3785POPC   GL250942  42.533   9.491   5.859
 3785POPC   C1A50943  42.343   9.877   6.123
 3785POPC   D2A50944  42.223   9.706   6.531
 3785POPC   C3A50945  42.272   9.821   6.972
 3785POPC   C4A50946  41.969   9.784   7.318
 3785POPC   C1B50947  42.714   9.552   6.294
 3785POPC   C2B50948  42.707   9.747   6.694
 3785POPC   C3B50949  42.745   9.635   7.118
 3785POPC   C4B50950  42.956   9.758   7.520
 3786POPC   NC350951  13.887  11.368   5.494
 3786POPC   PO450952  13.291  11.375   5.513
 3786POPC   GL150953  13.522  11.533   5.874
 3786POPC   GL250954  13.893  11.594   5.956
 3786POPC   C1A50955  13.637  11.292   6.273
 3786POPC   D2A50956  13.392  11.183   6.641
 3786POPC   C3A50957  13.532  11.130   7.075
 3786POPC   C4A50958  13.403  11.351   7.475
 3786POPC   C1B50959  13.614  11.791   6.301
 3786POPC   C2B50960  13.689  11.633   6.679
 3786POPC   C3B50961  13.561  11.628   7.066
 3786POPC   C4B50962  13.873  11.501   7.362
 3787POPC   NC350963  33.345  22.632   4.916
 3787POPC   PO450964  33.040  22.870   5.429
 3787POPC   GL150965  33.185  22.752   5.880
 3787POPC   GL250966  33.270  23.073   6.034
 3787POPC   C1A50967  33.143  22.664   6.323
 3787POPC   D2A50968  32.907  22.818   6.682
 3787POPC   C3A50969  33.047  22.678   7.074
 3787POPC   C4A50970  33.086  22.748   7.492
 3787POPC   C1B50971  33.237  23.165   6.455
 3787POPC   C2B50972  33.299  23.080   6.874
 3787POPC   C3B50973  33.206  23.203   7.304
 3787POPC   C4B50974  33.311  23.423   7.688
 3788POPC   NC350975  13.048   1.462   5.554
 3788POPC   PO450976  12.669   0.933   5.278
 3788POPC   GL150977  12.778   1.033   5.716
 3788POPC   GL250978  12.520   1.271   5.776
 3788POPC   C1A50979  12.907   0.924   6.164
 3788POPC   D2A50980  13.110   0.995   6.561
 3788POPC   C3A50981  12.803   1.071   6.894
 3788POPC   C4A50982  12.820   1.096   7.313
 3788POPC   C1B50983  12.729   1.513   6.117
 3788POPC   C2B50984  12.865   1.441   6.508
 3788POPC   C3B50985  12.984   1.545   6.896
 3788POPC   C4B50986  12.650   1.560   7.184
 3789POPC   NC350987  44.408   4.354   5.744
 3789POPC   PO450988  43.808   4.153   5.415
 3789POPC   GL150989  43.828   4.045   5.830
 3789POPC   GL250990  43.903   4.403   5.872
 3789POPC   C1A50991  44.086   4.040   6.230
 3789POPC   D2A50992  44.171   4.250   6.639
 3789POPC   C3A50993  43.859   4.129   6.937
 3789POPC   C4A50994  43.809   4.033   7.360
 3789POPC   C1B50995  43.768   4.472   6.294
 3789POPC   C2B50996  43.827   4.649   6.705
 3789POPC   C3B50997  44.016   4.592   7.099
 3789POPC   C4B50998  43.846   4.618   7.533
 3790POPC   NC350999  38.308  13.856   5.483
 3790POPC   PO451000  38.731  13.340   5.548
 3790POPC   GL151001  38.795  13.561   5.923
 3790POPC   GL251002  38.684  13.893   5.908
 3790POPC   C1A51003  38.666  13.549   6.330
 3790POPC   D2A51004  38.478  13.324   6.638
 3790POPC   C3A51005  38.515  13.519   7.011
 3790POPC   C4A51006  38.166  13.416   7.211
 3790POPC   C1B51007  38.308  13.870   6.160
 3790POPC   C2B51008  38.358  13.908   6.602
 3790POPC   C3B51009  38.141  13.895   6.999
 3790POPC   C4B51010  38.344  13.849   7.409
 3791POPC   NC351011  20.719  17.169   5.309
 3791POPC   PO451012  20.736  17.706   5.391
 3791POPC   GL151013  20.541  17.420   5.744
 3791POPC   GL251014  20.762  17.169   5.858
 3791POPC   C1A51015  20.388  17.391   6.211
 3791POPC   D2A51016  20.554  17.505   6.664
 3791POPC   C3A51017  20.553  17.594   7.144
 3791POPC   C4A51018  20.704  17.625   7.591
 3791POPC   C1B51019  20.855  17.202   6.340
 3791POPC   C2B51020  20.853  17.112   6.799
 3791POPC   C3B51021  20.885  17.199   7.239
 3791POPC   C4B51022  20.941  17.163   7.686
 3792POPC   NC351023   5.696  18.411   5.457
 3792POPC   PO451024   6.337  18.148   5.561
 3792POPC   GL151025   6.097  18.294   5.906
 3792POPC   GL251026   5.732  18.274   5.939
 3792POPC   C1A51027   6.007  18.306   6.344
 3792POPC   D2A51028   5.691  18.416   6.613
 3792POPC   C3A51029   5.820  18.310   7.021
 3792POPC   C4A51030   6.043  18.212   7.422
 3792POPC   C1B51031   5.612  17.992   6.298
 3792POPC   C2B51032   5.582  17.935   6.753
 3792POPC   C3B51033   5.794  17.816   7.148
 3792POPC   C4B51034   5.660  17.918   7.603
 3793POPC   NC351035  40.218  42.837   5.533
 3793POPC   PO451036  40.795  43.174   5.300
 3793POPC   GL151037  40.759  43.004   5.711
 3793POPC   GL251038  41.080  42.849   5.699
 3793POPC   C1A51039  40.831  43.124   6.157
 3793POPC   D2A51040  40.595  43.226   6.551
 3793POPC   C3A51041  40.787  43.131   6.932
 3793POPC   C4A51042  40.635  43.006   7.303
 3793POPC   C1B51043  41.154  42.707   6.120
 3793POPC   C2B51044  41.303  42.664   6.545
 3793POPC   C3B51045  41.092  42.728   6.930
 3793POPC   C4B51046  40.977  42.551   7.297
 3794POPC   NC351047  39.529  30.065   5.385
 3794POPC   PO451048  40.106  29.630   5.457
 3794POPC   GL151049  39.905  29.645   5.839
 3794POPC   GL251050  39.882  29.992   5.793
 3794POPC   C1A51051  39.921  29.754   6.292
 3794POPC   D2A51052  40.084  30.086   6.560
 3794POPC   C3A51053  40.140  29.965   6.987
 3794POPC   C4A51054  39.781  29.928   7.245
 3794POPC   C1B51055  39.754  30.226   6.141
 3794POPC   C2B51056  39.565  30.289   6.538
 3794POPC   C3B51057  39.631  30.366   6.975
 3794POPC   C4B51058  39.483  30.350   7.421
 3795POPC   NC351059  36.269  37.033   5.390
 3795POPC   PO451060  35.921  36.537   5.391
 3795POPC   GL151061  36.084  36.778   5.777
 3795POPC   GL251062  35.911  37.116   5.823
 3795POPC   C1A51063  36.234  36.918   6.185
 3795POPC   D2A51064  36.198  37.111   6.606
 3795POPC   C3A51065  36.282  36.852   6.956
 3795POPC   C4A51066  36.059  36.888   7.331
 3795POPC   C1B51067  35.842  37.288   6.268
 3795POPC   C2B51068  35.666  37.176   6.722
 3795POPC   C3B51069  35.667  37.227   7.199
 3795POPC   C4B51070  35.930  37.347   7.569
 3796POPC   NC351071   0.447  17.087   5.253
 3796POPC   PO451072   0.636  17.685   5.413
 3796POPC   GL151073   0.423  17.669   5.786
 3796POPC   GL251074   0.302  17.345   5.714
 3796POPC   C1A51075   0.548  17.703   6.251
 3796POPC   D2A51076   0.380  17.613   6.663
 3796POPC   C3A51077   0.578  17.616   7.038
 3796POPC   C4A51078   0.651  17.666   7.466
 3796POPC   C1B51079   0.576  17.238   6.030
 3796POPC   C2B51080   0.505  17.175   6.448
 3796POPC   C3B51081   0.600  17.142   6.867
 3796POPC   C4B51082   0.520  17.050   7.283
 3797POPC   NC351083   7.639  39.055   5.657
 3797POPC   PO451084   7.190  39.511   5.385
 3797POPC   GL151085   7.299  39.440   5.818
 3797POPC   GL251086   7.210  39.111   5.909
 3797POPC   C1A51087   7.401  39.455   6.275
 3797POPC   D2A51088   7.718  39.336   6.594
 3797POPC   C3A51089   7.575  39.177   6.997
 3797POPC   C4A51090   7.436  39.475   7.290
 3797POPC   C1B51091   7.041  38.949   6.279
 3797POPC   C2B51092   7.035  39.241   6.622
 3797POPC   C3B51093   7.056  39.251   7.039
 3797POPC   C4B51094   7.091  38.881   7.180
 3798POPC   NC351095   1.832  40.389   5.731
 3798POPC   PO451096   1.935  40.998   5.411
 3798POPC   GL151097   1.786  40.884   5.827
 3798POPC   GL251098   2.091  40.799   5.911
 3798POPC   C1A51099   1.769  40.682   6.282
 3798POPC   D2A51100   1.931  40.785   6.651
 3798POPC   C3A51101   1.796  40.580   6.978
 3798POPC   C4A51102   1.983  40.677   7.327
 3798POPC   C1B51103   2.088  41.087   6.243
 3798POPC   C2B51104   2.331  41.084   6.617
 3798POPC   C3B51105   2.370  40.890   7.026
 3798POPC   C4B51106   2.371  40.974   7.455
 3799POPC   NC351107  27.665   7.036   5.487
 3799POPC   PO451108  27.817   6.422   5.393
 3799POPC   GL151109  27.659   6.621   5.771
 3799POPC   GL251110  27.968   6.760   5.813
 3799POPC   C1A51111  27.504   6.577   6.186
 3799POPC   D2A51112  27.350   6.358   6.559
 3799POPC   C3A51113  27.415   6.598   6.902
 3799POPC   C4A51114  27.511   6.578   7.332
 3799POPC   C1B51115  27.859   6.938   6.211
 3799POPC   C2B51116  27.852   6.733   6.621
 3799POPC   C3B51117  27.843   6.871   7.056
 3799POPC   C4B51118  27.914   6.804   7.502
 3800POPC   NC351119   5.491  23.874   5.556
 3800POPC   PO451120   6.061  24.038   5.202
 3800POPC   GL151121   6.001  23.844   5.678
 3800POPC   GL251122   6.069  23.495   5.859
 3800POPC   C1A51123   5.771  23.846   6.121
 3800POPC   D2A51124   5.815  23.825   6.577
 3800POPC   C3A51125   5.619  24.010   6.965
 3800POPC   C4A51126   5.526  23.816   7.365
 3800POPC   C1B51127   5.827  23.360   6.274
 3800POPC   C2B51128   5.671  23.345   6.722
 3800POPC   C3B51129   5.898  23.589   7.040
 3800POPC   C4B51130   6.065  23.507   7.432
 3801POPC   NC351131  41.478  42.299   5.438
 3801POPC   PO451132  42.098  42.545   5.563
 3801POPC   GL151133  41.766  42.462   5.840
 3801POPC   GL251134  41.778  42.134   5.812
 3801POPC   C1A51135  41.459  42.295   6.180
 3801POPC   D2A51136  41.221  42.159   6.570
 3801POPC   C3A51137  41.342  42.292   6.987
 3801POPC   C4A51138  41.636  42.397   7.285
 3801POPC   C1B51139  41.911  41.845   6.095
 3801POPC   C2B51140  41.664  41.891   6.442
 3801POPC   C3B51141  41.665  41.908   6.870
 3801POPC   C4B51142  41.894  41.951   7.252
 3802POPC   NC351143   4.112  35.587   5.202
 3802POPC   PO451144   4.261  36.319   5.204
 3802POPC   GL151145   4.267  36.237   5.705
 3802POPC   GL251146   4.527  35.961   5.831
 3802POPC   C1A51147   4.181  36.073   6.168
 3802POPC   D2A51148   4.325  35.844   6.518
 3802POPC   C3A51149   4.245  36.037   6.890
 3802POPC   C4A51150   4.184  35.992   7.314
 3802POPC   C1B51151   4.681  36.103   6.267
 3802POPC   C2B51152   4.718  36.121   6.723
 3802POPC   C3B51153   4.690  35.922   7.128
 3802POPC   C4B51154   4.685  36.127   7.512
 3803POPC   NC351155  38.103  26.582   5.430
 3803POPC   PO451156  37.403  26.839   5.409
 3803POPC   GL151157  37.683  26.883   5.785
 3803POPC   GL251158  37.935  26.657   5.907
 3803POPC   C1A51159  37.830  27.022   6.233
 3803POPC   D2A51160  38.064  27.050   6.673
 3803POPC   C3A51161  37.774  27.110   7.041
 3803POPC   C4A51162  37.486  26.853   7.295
 3803POPC   C1B51163  38.095  26.546   6.323
 3803POPC   C2B51164  38.177  26.495   6.764
 3803POPC   C3B51165  37.887  26.589   7.097
 3803POPC   C4B51166  37.920  26.645   7.558
 3804POPC   NC351167  13.951  41.416   5.374
 3804POPC   PO451168  13.620  41.979   5.209
 3804POPC   GL151169  13.682  41.748   5.644
 3804POPC   GL251170  13.383  41.634   5.822
 3804POPC   C1A51171  13.852  41.765   6.108
 3804POPC   D2A51172  13.843  41.489   6.509
 3804POPC   C3A51173  13.715  41.608   6.928
 3804POPC   C4A51174  13.860  41.487   7.321
 3804POPC   C1B51175  13.441  41.454   6.200
 3804POPC   C2B51176  13.320  41.550   6.595
 3804POPC   C3B51177  13.213  41.381   6.965
 3804POPC   C4B51178  13.345  41.611   7.307
 3805POPC   NC351179  26.581  37.908   5.647
 3805POPC   PO451180  27.111  37.624   5.450
 3805POPC   GL151181  26.972  37.672   5.868
 3805POPC   GL251182  27.080  38.003   5.848
 3805POPC   C1A51183  26.788  37.588   6.282
 3805POPC   D2A51184  26.649  37.427   6.693
 3805POPC   C3A51185  26.711  37.702   7.056
 3805POPC   C4A51186  26.912  37.673   7.437
 3805POPC   C1B51187  27.098  37.988   6.293
 3805POPC   C2B51188  26.955  38.053   6.745
 3805POPC   C3B51189  27.034  38.115   7.214
 3805POPC   C4B51190  27.091  38.064   7.704
 3806POPC   NC351191  44.786  27.738   5.525
 3806POPC   PO451192  44.320  27.354   5.529
 3806POPC   GL151193  44.417  27.646   5.874
 3806POPC   GL251194  44.649  27.951   5.963
 3806POPC   C1A51195  44.621  27.558   6.276
 3806POPC   D2A51196  44.682  27.273   6.621
 3806POPC   C3A51197  44.735  27.504   6.996
 3806POPC   C4A51198  44.644  27.365   7.428
 3806POPC   C1B51199  44.294  27.975   6.231
 3806POPC   C2B51200  44.259  28.129   6.620
 3806POPC   C3B51201  44.333  27.965   7.064
 3806POPC   C4B51202  44.678  27.887   7.322
 3807POPC   NC351203  12.907  30.224   5.417
 3807POPC   PO451204  12.450  29.669   5.456
 3807POPC   GL151205  12.610  29.977   5.765
 3807POPC   GL251206  12.937  29.870   5.816
 3807POPC   C1A51207  12.728  30.083   6.224
 3807POPC   D2A51208  12.987  29.994   6.602
 3807POPC   C3A51209  12.790  30.050   7.041
 3807POPC   C4A51210  12.550  29.854   7.394
 3807POPC   C1B51211  13.219  29.757   6.159
 3807POPC   C2B51212  13.300  29.580   6.575
 3807POPC   C3B51213  13.222  29.687   6.994
 3807POPC   C4B51214  12.999  29.611   7.361
 3808POPC   NC351215   5.379  17.473   5.565
 3808POPC   PO451216   4.777  17.817   5.426
 3808POPC   GL151217   4.947  17.722   5.825
 3808POPC   GL251218   4.915  17.375   5.905
 3808POPC   C1A51219   5.235  17.661   6.183
 3808POPC   D2A51220   5.341  17.524   6.592
 3808POPC   C3A51221   5.099  17.779   6.875
 3808POPC   C4A51222   4.869  17.645   7.228
 3808POPC   C1B51223   4.748  17.182   6.256
 3808POPC   C2B51224   5.027  17.115   6.590
 3808POPC   C3B51225   5.071  17.266   6.974
 3808POPC   C4B51226   4.677  17.166   7.226
 3809POPC   NC351227  24.058  25.405   5.678
 3809POPC   PO451228  23.598  25.115   5.347
 3809POPC   GL151229  23.689  25.082   5.825
 3809POPC   GL251230  23.998  24.910   5.837
 3809POPC   C1A51231  23.796  25.331   6.272
 3809POPC   D2A51232  23.737  25.513   6.739
 3809POPC   C3A51233  23.482  25.283   7.094
 3809POPC   C4A51234  23.452  25.386   7.570
 3809POPC   C1B51235  23.855  24.807   6.254
 3809POPC   C2B51236  23.893  25.000   6.653
 3809POPC   C3B51237  23.848  24.907   7.074
 3809POPC   C4B51238  23.878  25.139   7.421
 3810POPC   NC351239  27.343  13.352   5.447
 3810POPC   PO451240  27.722  13.887   5.330
 3810POPC   GL151241  27.498  13.782   5.695
 3810POPC   GL251242  27.772  13.541   5.754
 3810POPC   C1A51243  27.409  13.684   6.140
 3810POPC   D2A51244  27.319  13.882   6.549
 3810POPC   C3A51245  27.677  13.944   6.837
 3810POPC   C4A51246  27.714  14.076   7.265
 3810POPC   C1B51247  27.846  13.396   6.193
 3810POPC   C2B51248  27.629  13.453   6.608
 3810POPC   C3B51249  27.503  13.510   7.044
 3810POPC   C4B51250  27.705  13.566   7.439
 3811POPC   NC351251  41.712  36.843   5.492
 3811POPC   PO451252  41.477  37.441   5.384
 3811POPC   GL151253  41.348  37.201   5.768
 3811POPC   GL251254  41.321  36.808   5.827
 3811POPC   C1A51255  41.251  37.131   6.212
 3811POPC   D2A51256  41.472  37.181   6.585
 3811POPC   C3A51257  41.365  36.986   6.974
 3811POPC   C4A51258  41.714  37.093   7.223
 3811POPC   C1B51259  41.698  36.868   6.155
 3811POPC   C2B51260  41.934  36.796   6.561
 3811POPC   C3B51261  41.866  36.570   6.930
 3811POPC   C4B51262  41.605  36.600   7.272
 3812POPC   NC351263  31.679  35.865   5.431
 3812POPC   PO451264  31.085  36.208   5.402
 3812POPC   GL151265  31.463  36.203   5.751
 3812POPC   GL251266  31.335  35.885   5.807
 3812POPC   C1A51267  31.702  36.281   6.202
 3812POPC   D2A51268  31.890  36.248   6.665
 3812POPC   C3A51269  31.535  36.282   7.016
 3812POPC   C4A51270  31.350  36.442   7.415
 3812POPC   C1B51271  31.522  35.782   6.178
 3812POPC   C2B51272  31.528  35.914   6.614
 3812POPC   C3B51273  31.704  35.800   7.033
 3812POPC   C4B51274  31.621  35.509   7.410
 3813POPC   NC351275   2.657   3.184   5.297
 3813POPC   PO451276   3.072   2.672   5.489
 3813POPC   GL151277   3.011   2.931   5.858
 3813POPC   GL251278   2.683   2.786   5.975
 3813POPC   C1A51279   2.958   3.026   6.314
 3813POPC   D2A51280   2.719   2.926   6.681
 3813POPC   C3A51281   2.851   3.010   7.110
 3813POPC   C4A51282   2.538   2.841   7.447
 3813POPC   C1B51283   2.974   2.490   6.123
 3813POPC   C2B51284   3.053   2.536   6.510
 3813POPC   C3B51285   3.084   2.548   6.904
 3813POPC   C4B51286   2.875   2.529   7.251
 3814POPC   NC351287  22.795  42.102   5.674
 3814POPC   PO451288  22.851  42.554   5.189
 3814POPC   GL151289  22.647  42.580   5.724
 3814POPC   GL251290  22.365  42.800   5.797
 3814POPC   C1A51291  22.820  42.388   6.227
 3814POPC   D2A51292  22.856  42.243   6.681
 3814POPC   C3A51293  23.141  42.542   6.926
 3814POPC   C4A51294  23.293  42.480   7.356
 3814POPC   C1B51295  22.593  42.827   6.200
 3814POPC   C2B51296  22.546  42.632   6.608
 3814POPC   C3B51297  22.659  42.663   7.071
 3814POPC   C4B51298  22.872  42.701   7.481
 3815POPC   NC351299  28.202  37.572   5.391
 3815POPC   PO451300  27.912  38.218   5.378
 3815POPC   GL151301  28.138  37.986   5.688
 3815POPC   GL251302  28.495  37.875   5.727
 3815POPC   C1A51303  28.124  37.748   6.063
 3815POPC   D2A51304  28.354  37.805   6.432
 3815POPC   C3A51305  28.257  37.653   6.815
 3815POPC   C4A51306  28.435  37.666   7.182
 3815POPC   C1B51307  28.587  37.516   6.053
 3815POPC   C2B51308  28.537  37.321   6.476
 3815POPC   C3B51309  28.491  37.201   6.917
 3815POPC   C4B51310  28.644  37.215   7.351
 3816POPC   NC351311  34.816   5.263   5.477
 3816POPC   PO451312  34.281   4.868   5.558
 3816POPC   GL151313  34.467   5.177   5.879
 3816POPC   GL251314  34.798   5.352   5.977
 3816POPC   C1A51315  34.451   5.238   6.336
 3816POPC   D2A51316  34.546   5.392   6.735
 3816POPC   C3A51317  34.354   5.190   7.093
 3816POPC   C4A51318  34.382   4.997   7.514
 3816POPC   C1B51319  34.858   4.962   6.213
 3816POPC   C2B51320  34.750   4.920   6.692
 3816POPC   C3B51321  34.809   4.940   7.177
 3816POPC   C4B51322  35.094   4.782   7.541
 3817POPC   NC351323  36.775  33.555   5.349
 3817POPC   PO451324  37.136  34.170   5.414
 3817POPC   GL151325  37.057  34.154   5.864
 3817POPC   GL251326  36.695  34.060   5.839
 3817POPC   C1A51327  37.117  33.958   6.325
 3817POPC   D2A51328  37.189  33.988   6.805
 3817POPC   C3A51329  37.000  33.659   7.051
 3817POPC   C4A51330  36.574  33.452   7.001
 3817POPC   C1B51331  36.604  33.951   6.248
 3817POPC   C2B51332  36.702  33.817   6.656
 3817POPC   C3B51333  36.635  34.000   7.062
 3817POPC   C4B51334  36.751  33.846   7.456
 3818POPC   NC351335  34.608  32.087   5.194
 3818POPC   PO451336  33.972  32.209   5.414
 3818POPC   GL151337  34.326  31.937   5.632
 3818POPC   GL251338  34.542  32.203   5.771
 3818POPC   C1A51339  34.542  31.800   6.059
 3818POPC   D2A51340  34.796  31.981   6.427
 3818POPC   C3A51341  34.514  32.004   6.796
 3818POPC   C4A51342  34.495  32.124   7.223
 3818POPC   C1B51343  34.436  32.299   6.256
 3818POPC   C2B51344  34.638  32.503   6.664
 3818POPC   C3B51345  34.832  32.475   7.096
 3818POPC   C4B51346  34.541  32.551   7.487
 3819POPC   NC351347   0.072  19.916   5.433
 3819POPC   PO451348   0.646  19.623   5.436
 3819POPC   GL151349   0.391  19.724   5.811
 3819POPC   GL251350   0.256  20.053   5.920
 3819POPC   C1A51351   0.228  19.582   6.207
 3819POPC   D2A51352   0.136  19.754   6.620
 3819POPC   C3A51353   0.451  19.706   6.908
 3819POPC   C4A51354   0.590  19.468   7.250
 3819POPC   C1B51355   0.510  20.015   6.298
 3819POPC   C2B51356   0.711  20.178   6.668
 3819POPC   C3B51357   0.630  20.139   7.088
 3819POPC   C4B51358   0.313  19.999   7.332
 3820POPC   NC351359  12.862  32.716   5.506
 3820POPC   PO451360  12.968  33.375   5.412
 3820POPC   GL151361  12.789  33.137   5.787
 3820POPC   GL251362  13.144  33.146   5.834
 3820POPC   C1A51363  12.901  32.889   6.184
 3820POPC   D2A51364  13.111  33.047   6.571
 3820POPC   C3A51365  13.101  32.826   6.967
 3820POPC   C4A51366  12.794  32.945   7.245
 3820POPC   C1B51367  13.296  33.440   6.147
 3820POPC   C2B51368  13.244  33.558   6.581
 3820POPC   C3B51369  13.084  33.410   6.960
 3820POPC   C4B51370  13.250  33.234   7.324
 3821POPC   NC351371  16.769  28.121   5.345
 3821POPC   PO451372  16.611  28.740   5.495
 3821POPC   GL151373  16.677  28.435   5.811
 3821POPC   GL251374  17.027  28.324   5.754
 3821POPC   C1A51375  16.523  28.452   6.248
 3821POPC   D2A51376  16.574  28.287   6.670
 3821POPC   C3A51377  16.638  28.522   7.057
 3821POPC   C4A51378  16.633  28.228   7.403
 3821POPC   C1B51379  17.046  28.497   6.186
 3821POPC   C2B51380  17.099  28.329   6.622
 3821POPC   C3B51381  17.033  28.182   7.049
 3821POPC   C4B51382  17.105  28.126   7.501
 3822POPC   NC351383   5.718   6.968   5.404
 3822POPC   PO451384   6.106   7.529   5.579
 3822POPC   GL151385   5.996   7.393   5.930
 3822POPC   GL251386   5.689   7.302   5.806
 3822POPC   C1A51387   6.000   7.397   6.363
 3822POPC   D2A51388   5.635   7.569   6.600
 3822POPC   C3A51389   5.732   7.637   7.028
 3822POPC   C4A51390   5.765   7.289   7.263
 3822POPC   C1B51391   5.596   7.149   6.224
 3822POPC   C2B51392   5.576   7.053   6.691
 3822POPC   C3B51393   5.480   6.919   7.111
 3822POPC   C4B51394   5.414   7.026   7.570
 3823POPC   NC351395   3.802   5.377   5.589
 3823POPC   PO451396   3.221   5.000   5.450
 3823POPC   GL151397   3.450   5.039   5.863
 3823POPC   GL251398   3.845   4.953   5.888
 3823POPC   C1A51399   3.321   5.045   6.311
 3823POPC   D2A51400   3.294   5.008   6.758
 3823POPC   C3A51401   3.671   5.155   6.954
 3823POPC   C4A51402   3.752   5.119   7.355
 3823POPC   C1B51403   3.684   4.699   6.195
 3823POPC   C2B51404   3.721   4.816   6.559
 3823POPC   C3B51405   3.976   4.724   6.813
 3823POPC   C4B51406   4.044   4.761   7.168
 3824POPC   NC351407  21.773  29.814   5.482
 3824POPC   PO451408  22.431  30.172   5.438
 3824POPC   GL151409  22.311  30.100   5.839
 3824POPC   GL251410  21.952  30.070   5.892
 3824POPC   C1A51411  22.404  30.293   6.231
 3824POPC   D2A51412  22.235  30.335   6.642
 3824POPC   C3A51413  22.354  30.050   6.980
 3824POPC   C4A51414  22.163  30.023   7.399
 3824POPC   C1B51415  22.159  29.754   6.181
 3824POPC   C2B51416  22.312  29.666   6.615
 3824POPC   C3B51417  22.160  29.556   7.033
 3824POPC   C4B51418  22.278  29.299   7.348
 3825POPC   NC351419  25.490   1.449   5.271
 3825POPC   PO451420  25.211   0.849   5.274
 3825POPC   GL151421  25.244   0.996   5.726
 3825POPC   GL251422  25.464   1.301   5.761
 3825POPC   C1A51423  25.058   0.925   6.165
 3825POPC   D2A51424  25.152   0.905   6.611
 3825POPC   C3A51425  25.021   1.217   6.941
 3825POPC   C4A51426  25.365   1.197   7.154
 3825POPC   C1B51427  25.433   1.262   6.219
 3825POPC   C2B51428  25.378   1.430   6.645
 3825POPC   C3B51429  25.603   1.633   7.011
 3825POPC   C4B51430  25.533   1.560   7.453
 3826POPC   NC351431  20.739  27.563   5.366
 3826POPC   PO451432  20.322  27.111   5.638
 3826POPC   GL151433  20.407  27.530   5.824
 3826POPC   GL251434  20.743  27.712   5.876
 3826POPC   C1A51435  20.363  27.647   6.261
 3826POPC   D2A51436  20.621  27.611   6.614
 3826POPC   C3A51437  20.479  27.354   6.931
 3826POPC   C4A51438  20.468  27.416   7.346
 3826POPC   C1B51439  20.749  27.997   6.207
 3826POPC   C2B51440  20.962  28.052   6.568
 3826POPC   C3B51441  20.820  27.943   6.959
 3826POPC   C4B51442  20.736  27.827   7.376
 3827POPC   NC351443  44.471  37.314   5.365
 3827POPC   PO451444  44.709  38.026   5.285
 3827POPC   GL151445  44.777  37.713   5.649
 3827POPC   GL251446   0.080  37.483   5.612
 3827POPC   C1A51447  44.654  37.654   6.102
 3827POPC   D2A51448  44.423  37.638   6.498
 3827POPC   C3A51449  44.688  37.655   6.872
 3827POPC   C4A51450  44.641  37.546   7.283
 3827POPC   C1B51451   0.130  37.451   6.083
 3827POPC   C2B51452   0.075  37.494   6.538
 3827POPC   C3B51453   0.090  37.234   6.920
 3827POPC   C4B51454   0.000  37.190   7.357
 3828POPC   NC351455  34.037  17.998   5.491
 3828POPC   PO451456  33.542  18.404   5.547
 3828POPC   GL151457  33.848  18.316   5.875
 3828POPC   GL251458  33.785  17.955   5.943
 3828POPC   C1A51459  33.803  18.320   6.330
 3828POPC   D2A51460  33.714  18.075   6.695
 3828POPC   C3A51461  33.847  18.357   7.006
 3828POPC   C4A51462  33.658  18.496   7.380
 3828POPC   C1B51463  34.163  17.996   6.185
 3828POPC   C2B51464  34.212  18.023   6.634
 3828POPC   C3B51465  34.074  17.900   7.072
 3828POPC   C4B51466  34.069  18.202   7.435
 3829POPC   NC351467  29.201  16.155   5.224
 3829POPC   PO451468  29.102  15.486   5.183
 3829POPC   GL151469  29.175  15.822   5.615
 3829POPC   GL251470  29.307  16.098   5.752
 3829POPC   C1A51471  29.161  15.773   6.112
 3829POPC   D2A51472  29.109  15.582   6.520
 3829POPC   C3A51473  29.082  15.839   6.887
 3829POPC   C4A51474  29.063  15.775   7.305
 3829POPC   C1B51475  29.473  16.182   6.137
 3829POPC   C2B51476  29.433  16.034   6.538
 3829POPC   C3B51477  29.471  16.251   6.918
 3829POPC   C4B51478  29.180  16.414   7.211
 3830POPC   NC351479  43.345  32.623   5.382
 3830POPC   PO451480  43.231  31.913   5.374
 3830POPC   GL151481  43.098  32.082   5.779
 3830POPC   GL251482  43.188  32.442   5.887
 3830POPC   C1A51483  43.211  32.008   6.225
 3830POPC   D2A51484  43.484  32.183   6.563
 3830POPC   C3A51485  43.274  32.410   6.918
 3830POPC   C4A51486  43.227  32.302   7.368
 3830POPC   C1B51487  43.110  32.499   6.367
 3830POPC   C2B51488  42.923  32.775   6.720
 3830POPC   C3B51489  42.907  32.710   7.197
 3830POPC   C4B51490  42.985  32.598   7.675
 3831POPC   NC351491   0.277  43.064   5.457
 3831POPC   PO451492   0.758  43.450   5.555
 3831POPC   GL151493   0.629  43.150   5.832
 3831POPC   GL251494   0.326  43.365   5.859
 3831POPC   C1A51495   0.507  43.018   6.246
 3831POPC   D2A51496   0.278  42.936   6.630
 3831POPC   C3A51497   0.424  42.892   7.028
 3831POPC   C4A51498   0.605  43.272   7.079
 3831POPC   C1B51499   0.091  43.345   6.209
 3831POPC   C2B51500   0.222  43.454   6.601
 3831POPC   C3B51501   0.069  43.282   6.952
 3831POPC   C4B51502   0.184  43.363   7.335
 3832POPC   NC351503  36.715  15.813   5.664
 3832POPC   PO451504  37.170  16.333   5.585
 3832POPC   GL151505  36.977  16.183   5.963
 3832POPC   GL251506  36.614  16.284   5.914
 3832POPC   C1A51507  36.958  15.815   6.257
 3832POPC   D2A51508  37.133  15.577   6.590
 3832POPC   C3A51509  37.032  15.749   7.020
 3832POPC   C4A51510  37.024  15.760   7.498
 3832POPC   C1B51511  36.655  16.226   6.370
 3832POPC   C2B51512  36.521  16.120   6.797
 3832POPC   C3B51513  36.678  16.073   7.227
 3832POPC   C4B51514  36.850  16.234   7.597
 3833POPC   NC351515   2.940  42.400   5.309
 3833POPC   PO451516   2.295  42.647   5.456
 3833POPC   GL151517   2.534  42.337   5.743
 3833POPC   GL251518   2.772  42.057   5.659
 3833POPC   C1A51519   2.726  42.362   6.148
 3833POPC   D2A51520   2.824  42.330   6.575
 3833POPC   C3A51521   2.628  42.253   6.977
 3833POPC   C4A51522   2.733  42.445   7.389
 3833POPC   C1B51523   3.064  41.989   6.024
 3833POPC   C2B51524   3.228  41.994   6.484
 3833POPC   C3B51525   3.145  42.163   6.936
 3833POPC   C4B51526   3.025  42.003   7.330
 3834POPC   NC351527  44.754   5.120   5.492
 3834POPC   PO451528  44.253   4.650   5.436
 3834POPC   GL151529  44.328   5.054   5.773
 3834POPC   GL251530  44.652   5.006   5.986
 3834POPC   C1A51531  44.328   5.288   6.225
 3834POPC   D2A51532  44.568   5.066   6.556
 3834POPC   C3A51533  44.654   5.307   6.919
 3834POPC   C4A51534  44.509   5.400   7.316
 3834POPC   C1B51535  44.992   4.827   6.291
 3834POPC   C2B51536   0.257   4.792   6.664
 3834POPC   C3B51537   0.014   4.786   7.047
 3834POPC   C4B51538  44.615   4.883   7.209
 3835POPC   NC351539  32.911  13.642   5.360
 3835POPC   PO451540  33.453  13.794   5.734
 3835POPC   GL151541  33.037  13.692   5.870
 3835POPC   GL251542  32.881  13.356   5.797
 3835POPC   C1A51543  32.942  13.757   6.297
 3835POPC   D2A51544  32.999  14.004   6.660
 3835POPC   C3A51545  32.859  13.795   7.015
 3835POPC   C4A51546  33.027  13.788   7.429
 3835POPC   C1B51547  33.081  13.277   6.222
 3835POPC   C2B51548  32.898  13.380   6.670
 3835POPC   C3B51549  33.052  13.318   7.127
 3835POPC   C4B51550  32.825  13.355   7.538
 3836POPC   NC351551  22.281  27.137   5.250
 3836POPC   PO451552  22.388  26.523   5.456
 3836POPC   GL151553  22.267  26.810   5.792
 3836POPC   GL251554  22.138  27.166   5.726
 3836POPC   C1A51555  22.199  26.755   6.249
 3836POPC   D2A51556  21.928  26.757   6.632
 3836POPC   C3A51557  22.199  26.686   6.994
 3836POPC   C4A51558  22.298  26.939   7.363
 3836POPC   C1B51559  22.091  27.245   6.125
 3836POPC   C2B51560  22.208  27.204   6.528
 3836POPC   C3B51561  22.047  27.165   6.912
 3836POPC   C4B51562  22.002  27.358   7.266
 3837POPC   NC351563   4.590  14.953   5.446
 3837POPC   PO451564   4.167  15.425   5.558
 3837POPC   GL151565   4.285  15.165   5.829
 3837POPC   GL251566   4.020  14.943   5.754
 3837POPC   C1A51567   4.290  15.057   6.255
 3837POPC   D2A51568   4.222  15.253   6.637
 3837POPC   C3A51569   4.547  15.215   6.942
 3837POPC   C4A51570   4.354  15.279   7.324
 3837POPC   C1B51571   3.927  14.743   6.129
 3837POPC   C2B51572   3.991  14.781   6.586
 3837POPC   C3B51573   4.125  14.927   7.023
 3837POPC   C4B51574   4.174  14.805   7.444
 3838POPC   NC351575  41.720  37.835   5.365
 3838POPC   PO451576  41.225  38.121   5.499
 3838POPC   GL151577  41.415  37.753   5.783
 3838POPC   GL251578  41.760  37.596   5.815
 3838POPC   C1A51579  41.382  37.639   6.201
 3838POPC   D2A51580  41.116  37.855   6.495
 3838POPC   C3A51581  41.323  37.718   6.856
 3838POPC   C4A51582  41.460  37.535   7.240
 3838POPC   C1B51583  41.847  37.864   6.169
 3838POPC   C2B51584  41.700  37.987   6.585
 3838POPC   C3B51585  41.804  37.875   7.033
 3838POPC   C4B51586  41.840  37.748   7.496
 3839POPC   NC351587   7.025  31.931   5.431
 3839POPC   PO451588   7.697  32.160   5.523
 3839POPC   GL151589   7.451  32.221   5.859
 3839POPC   GL251590   7.268  31.914   5.915
 3839POPC   C1A51591   7.623  32.068   6.264
 3839POPC   D2A51592   7.463  31.853   6.601
 3839POPC   C3A51593   7.650  32.014   6.959
 3839POPC   C4A51594   7.499  32.283   7.241
 3839POPC   C1B51595   7.135  32.171   6.321
 3839POPC   C2B51596   7.028  32.148   6.797
 3839POPC   C3B51597   6.993  32.229   7.276
 3839POPC   C4B51598   7.142  32.384   7.686
 3840POPC   NC351599  28.494   2.104   5.403
 3840POPC   PO451600  28.009   1.740   5.518
 3840POPC   GL151601  28.261   1.881   5.866
 3840POPC   GL251602  28.367   2.231   5.879
 3840POPC   C1A51603  28.294   1.745   6.308
 3840POPC   D2A51604  28.341   1.924   6.726
 3840POPC   C3A51605  28.097   1.915   7.089
 3840POPC   C4A51606  28.242   1.970   7.495
 3840POPC   C1B51607  28.301   2.289   6.319
 3840POPC   C2B51608  28.543   2.388   6.684
 3840POPC   C3B51609  28.397   2.329   7.103
 3840POPC   C4B51610  28.670   2.314   7.426
 3841POPC   NC351611  38.683   4.581   5.411
 3841POPC   PO451612  38.472   4.005   5.246
 3841POPC   GL151613  38.347   4.149   5.699
 3841POPC   GL251614  38.408   4.508   5.844
 3841POPC   C1A51615  38.299   4.121   6.195
 3841POPC   D2A51616  38.556   4.233   6.574
 3841POPC   C3A51617  38.433   4.225   7.023
 3841POPC   C4A51618  38.672   4.208   7.417
 3841POPC   C1B51619  38.366   4.662   6.292
 3841POPC   C2B51620  38.495   4.743   6.735
 3841POPC   C3B51621  38.697   4.657   7.154
 3841POPC   C4B51622  38.691   4.691   7.621
 3842POPC   NC351623  41.087  38.512   4.987
 3842POPC   PO451624  41.620  38.622   5.440
 3842POPC   GL151625  41.574  38.494   5.810
 3842POPC   GL251626  41.709  38.166   5.775
 3842POPC   C1A51627  41.436  38.668   6.207
 3842POPC   D2A51628  41.346  38.848   6.622
 3842POPC   C3A51629  41.457  38.727   7.041
 3842POPC   C4A51630  41.301  38.651   7.452
 3842POPC   C1B51631  41.406  38.150   6.148
 3842POPC   C2B51632  41.293  38.320   6.560
 3842POPC   C3B51633  41.410  38.211   6.967
 3842POPC   C4B51634  41.520  38.147   7.378
 3843POPC   NC351635  10.897  23.742   5.505
 3843POPC   PO451636  11.386  23.362   5.214
 3843POPC   GL151637  11.428  23.440   5.725
 3843POPC   GL251638  11.200  23.654   5.925
 3843POPC   C1A51639  11.470  23.327   6.196
 3843POPC   D2A51640  11.316  23.329   6.605
 3843POPC   C3A51641  11.487  23.628   6.862
 3843POPC   C4A51642  11.509  23.562   7.281
 3843POPC   C1B51643  11.416  23.821   6.333
 3843POPC   C2B51644  11.311  24.093   6.694
 3843POPC   C3B51645  11.360  24.052   7.159
 3843POPC   C4B51646  11.101  24.171   7.538
 3844POPC   NC351647  11.862  42.596   5.634
 3844POPC   PO451648  12.275  42.184   5.295
 3844POPC   GL151649  12.292  42.325   5.769
 3844POPC   GL251650  12.430  42.610   5.920
 3844POPC   C1A51651  12.098  42.332   6.212
 3844POPC   D2A51652  11.953  42.495   6.632
 3844POPC   C3A51653  11.982  42.174   6.952
 3844POPC   C4A51654  12.192  42.166   7.333
 3844POPC   C1B51655  12.571  42.508   6.307
 3844POPC   C2B51656  12.441  42.259   6.629
 3844POPC   C3B51657  12.386  42.516   6.970
 3844POPC   C4B51658  12.424  42.618   7.398
 3845POPC   NC351659  44.693  43.757   5.185
 3845POPC   PO451660  44.663  44.421   5.328
 3845POPC   GL151661  44.758  44.097   5.619
 3845POPC   GL251662  44.515  43.825   5.660
 3845POPC   C1A51663  44.881  44.071   6.054
 3845POPC   D2A51664  44.864  43.836   6.463
 3845POPC   C3A51665  44.763  44.048   6.853
 3845POPC   C4A51666  44.748  43.864   7.272
 3845POPC   C1B51667  44.544  43.685   6.095
 3845POPC   C2B51668  44.357  43.752   6.518
 3845POPC   C3B51669  44.439  43.645   6.918
 3845POPC   C4B51670  44.258  43.605   7.312
 3846POPC   NC351671  18.225  32.151   5.438
 3846POPC   PO451672  18.550  32.747   5.431
 3846POPC   GL151673  18.351  32.579   5.782
 3846POPC   GL251674  18.558  32.302   5.815
 3846POPC   C1A51675  18.263  32.517   6.230
 3846POPC   D2A51676  18.011  32.272   6.499
 3846POPC   C3A51677  17.938  32.423   6.915
 3846POPC   C4A51678  18.106  32.245   7.260
 3846POPC   C1B51679  18.691  32.246   6.263
 3846POPC   C2B51680  18.503  32.310   6.665
 3846POPC   C3B51681  18.509  32.499   7.061
 3846POPC   C4B51682  18.501  32.408   7.515
 3847POPC   NC351683  43.634   7.719   5.364
 3847POPC   PO451684  44.125   7.203   5.221
 3847POPC   GL151685  43.821   7.320   5.652
 3847POPC   GL251686  43.532   7.514   5.813
 3847POPC   C1A51687  43.913   7.447   6.132
 3847POPC   D2A51688  43.980   7.307   6.549
 3847POPC   C3A51689  44.157   7.525   6.899
 3847POPC   C4A51690  44.126   7.187   7.197
 3847POPC   C1B51691  43.402   7.409   6.224
 3847POPC   C2B51692  43.469   7.257   6.673
 3847POPC   C3B51693  43.647   7.461   7.044
 3847POPC   C4B51694  43.510   7.796   7.332
 3848POPC   NC351695   4.089  14.232   5.658
 3848POPC   PO451696   4.572  13.670   5.481
 3848POPC   GL151697   4.346  13.698   5.839
 3848POPC   GL251698   4.492  14.047   5.897
 3848POPC   C1A51699   4.370  13.436   6.237
 3848POPC   D2A51700   4.197  13.200   6.598
 3848POPC   C3A51701   4.197  13.436   6.956
 3848POPC   C4A51702   4.280  13.457   7.365
 3848POPC   C1B51703   4.239  13.944   6.268
 3848POPC   C2B51704   4.392  13.792   6.647
 3848POPC   C3B51705   4.244  13.940   7.022
 3848POPC   C4B51706   3.941  13.826   7.295
 3849POPC   NC351707  41.929  34.686   5.438
 3849POPC   PO451708  41.351  34.859   5.318
 3849POPC   GL151709  41.503  34.763   5.767
 3849POPC   GL251710  41.837  34.959   5.847
 3849POPC   C1A51711  41.329  34.669   6.219
 3849POPC   D2A51712  41.195  34.805   6.653
 3849POPC   C3A51713  41.425  34.692   7.043
 3849POPC   C4A51714  41.427  34.767   7.515
 3849POPC   C1B51715  41.833  34.591   6.155
 3849POPC   C2B51716  41.669  34.520   6.593
 3849POPC   C3B51717  41.919  34.615   6.934
 3849POPC   C4B51718  41.875  34.879   7.277
 3850POPC   NC351719  17.751  35.675   5.605
 3850POPC   PO451720  17.300  36.088   5.624
 3850POPC   GL151721  17.357  36.066   6.049
 3850POPC   GL251722  17.689  36.151   6.013
 3850POPC   C1A51723  17.553  36.132   6.487
 3850POPC   D2A51724  17.894  36.078   6.747
 3850POPC   C3A51725  17.693  36.056   7.142
 3850POPC   C4A51726  17.200  35.999   7.166
 3850POPC   C1B51727  17.380  36.528   6.211
 3850POPC   C2B51728  17.194  36.489   6.651
 3850POPC   C3B51729  17.364  36.480   7.082
 3850POPC   C4B51730  17.490  36.656   7.493
 3851POPC   NC351731  39.937  13.289   5.448
 3851POPC   PO451732  40.292  13.817   5.464
 3851POPC   GL151733  40.191  13.643   5.867
 3851POPC   GL251734  39.847  13.538   5.884
 3851POPC   C1A51735  40.150  13.574   6.324
 3851POPC   D2A51736  39.916  13.529   6.701
 3851POPC   C3A51737  40.115  13.619   7.085
 3851POPC   C4A51738  40.375  13.558   7.468
 3851POPC   C1B51739  39.620  13.592   6.281
 3851POPC   C2B51740  39.401  13.698   6.663
 3851POPC   C3B51741  39.583  13.656   7.063
 3851POPC   C4B51742  39.697  13.218   7.103
 3852POPC   NC351743   1.641  37.033   5.324
 3852POPC   PO451744   2.141  36.539   5.367
 3852POPC   GL151745   2.072  36.851   5.677
 3852POPC   GL251746   1.818  36.672   5.756
 3852POPC   C1A51747   2.113  36.911   6.161
 3852POPC   D2A51748   2.243  36.680   6.567
 3852POPC   C3A51749   2.196  36.805   7.029
 3852POPC   C4A51750   2.187  37.165   7.313
 3852POPC   C1B51751   1.642  36.729   6.138
 3852POPC   C2B51752   1.733  36.831   6.535
 3852POPC   C3B51753   1.791  37.071   6.869
 3852POPC   C4B51754   1.735  36.948   7.290
 3853POPC   NC351755  18.375  25.697   5.666
 3853POPC   PO451756  18.445  26.255   5.328
 3853POPC   GL151757  18.484  26.189   5.741
 3853POPC   GL251758  18.770  26.029   5.801
 3853POPC   C1A51759  18.367  26.190   6.162
 3853POPC   D2A51760  18.274  26.301   6.580
 3853POPC   C3A51761  18.144  26.067   6.923
 3853POPC   C4A51762  18.055  26.124   7.349
 3853POPC   C1B51763  18.683  25.802   6.196
 3853POPC   C2B51764  18.479  25.842   6.562
 3853POPC   C3B51765  18.638  25.921   6.926
 3853POPC   C4B51766  18.558  26.119   7.271
 3854POPC   NC351767  32.607  36.232   5.490
 3854POPC   PO451768  31.986  36.197   5.499
 3854POPC   GL151769  31.945  35.932   5.872
 3854POPC   GL251770  32.312  35.902   5.858
 3854POPC   C1A51771  31.995  35.857   6.329
 3854POPC   D2A51772  32.331  35.883   6.615
 3854POPC   C3A51773  32.219  36.022   7.012
 3854POPC   C4A51774  32.017  36.375   7.148
 3854POPC   C1B51775  32.299  36.229   6.164
 3854POPC   C2B51776  32.504  36.414   6.496
 3854POPC   C3B51777  32.483  36.481   6.927
 3854POPC   C4B51778  32.542  36.329   7.333
 3855POPC   NC351779  18.993  27.265   5.366
 3855POPC   PO451780  19.183  27.883   5.464
 3855POPC   GL151781  19.066  27.633   5.825
 3855POPC   GL251782  19.165  27.284   5.835
 3855POPC   C1A51783  18.977  27.639   6.266
 3855POPC   D2A51784  18.679  27.781   6.575
 3855POPC   C3A51785  18.943  27.783   6.958
 3855POPC   C4A51786  19.112  27.384   7.113
 3855POPC   C1B51787  19.378  27.290   6.202
 3855POPC   C2B51788  19.203  27.204   6.598
 3855POPC   C3B51789  19.504  27.164   6.880
 3855POPC   C4B51790  19.632  27.210   7.262
 3856POPC   NC351791  30.536  32.596   5.612
 3856POPC   PO451792  30.751  32.080   5.245
 3856POPC   GL151793  30.755  32.128   5.722
 3856POPC   GL251794  31.072  32.273   5.821
 3856POPC   C1A51795  30.644  32.302   6.170
 3856POPC   D2A51796  30.912  32.351   6.538
 3856POPC   C3A51797  30.714  32.274   6.930
 3856POPC   C4A51798  30.496  32.474   7.236
 3856POPC   C1B51799  31.049  31.981   6.178
 3856POPC   C2B51800  31.073  31.861   6.630
 3856POPC   C3B51801  31.106  31.990   7.062
 3856POPC   C4B51802  30.949  32.197   7.466
 3857POPC   NC351803  34.827  31.346   5.199
 3857POPC   PO451804  35.524  31.540   5.358
 3857POPC   GL151805  35.434  31.570   5.786
 3857POPC   GL251806  35.772  31.461   5.852
 3857POPC   C1A51807  35.396  31.423   6.204
 3857POPC   D2A51808  35.174  31.503   6.539
 3857POPC   C3A51809  35.270  31.235   6.862
 3857POPC   C4A51810  35.386  31.102   7.269
 3857POPC   C1B51811  35.858  31.658   6.264
 3857POPC   C2B51812  35.654  31.674   6.658
 3857POPC   C3B51813  35.460  31.672   7.046
 3857POPC   C4B51814  35.623  31.549   7.404
 3858POPC   NC351815   3.396   0.893   5.297
 3858POPC   PO451816   3.124   1.455   5.404
 3858POPC   GL151817   3.429   1.308   5.726
 3858POPC   GL251818   3.393   0.956   5.805
 3858POPC   C1A51819   3.704   1.366   6.120
 3858POPC   D2A51820   3.849   1.585   6.515
 3858POPC   C3A51821   3.728   1.385   6.889
 3858POPC   C4A51822   3.424   1.394   7.209
 3858POPC   C1B51823   3.683   0.843   6.129
 3858POPC   C2B51824   3.772   1.013   6.524
 3858POPC   C3B51825   3.635   0.873   6.937
 3858POPC   C4B51826   3.795   1.050   7.323
 3859POPC   NC351827  40.184  18.374   5.439
 3859POPC   PO451828  39.794  17.846   5.483
 3859POPC   GL151829  39.750  18.170   5.810
 3859POPC   GL251830  40.072  18.077   5.862
 3859POPC   C1A51831  39.914  18.402   6.210
 3859POPC   D2A51832  40.089  18.245   6.612
 3859POPC   C3A51833  39.939  18.525   6.913
 3859POPC   C4A51834  39.831  18.674   7.322
 3859POPC   C1B51835  39.912  17.888   6.250
 3859POPC   C2B51836  39.846  17.751   6.691
 3859POPC   C3B51837  40.022  17.895   7.060
 3859POPC   C4B51838  40.085  18.235   7.296
 3860POPC   NC351839  32.758   2.104   5.332
 3860POPC   PO451840  32.116   2.032   5.178
 3860POPC   GL151841  32.195   2.107   5.624
 3860POPC   GL251842  32.419   1.853   5.716
 3860POPC   C1A51843  32.227   2.140   6.116
 3860POPC   D2A51844  32.019   2.122   6.558
 3860POPC   C3A51845  32.229   1.982   6.945
 3860POPC   C4A51846  32.589   2.112   7.215
 3860POPC   C1B51847  32.694   1.885   6.083
 3860POPC   C2B51848  32.569   1.961   6.514
 3860POPC   C3B51849  32.671   1.709   6.897
 3860POPC   C4B51850  32.421   1.610   7.277
 3861POPC   NC351851  31.315  34.174   5.471
 3861POPC   PO451852  31.695  34.612   5.211
 3861POPC   GL151853  31.579  34.722   5.692
 3861POPC   GL251854  31.786  34.962   5.890
 3861POPC   C1A51855  31.363  34.770   6.139
 3861POPC   D2A51856  31.463  34.913   6.581
 3861POPC   C3A51857  31.328  34.664   6.937
 3861POPC   C4A51858  31.179  34.246   7.037
 3861POPC   C1B51859  31.848  34.584   6.148
 3861POPC   C2B51860  31.693  34.443   6.548
 3861POPC   C3B51861  31.805  34.434   6.963
 3861POPC   C4B51862  31.992  34.189   7.307
 3862POPC   NC351863  38.843  21.673   5.410
 3862POPC   PO451864  38.311  21.311   5.453
 3862POPC   GL151865  38.430  21.377   5.848
 3862POPC   GL251866  38.753  21.285   5.766
 3862POPC   C1A51867  38.496  21.554   6.235
 3862POPC   D2A51868  38.680  21.710   6.602
 3862POPC   C3A51869  38.470  21.593   6.973
 3862POPC   C4A51870  38.635  21.688   7.369
 3862POPC   C1B51871  38.756  21.029   6.130
 3862POPC   C2B51872  38.688  21.128   6.541
 3862POPC   C3B51873  38.727  20.938   6.944
 3862POPC   C4B51874  38.601  21.181   7.294
 3863POPC   NC351875  41.024  37.630   5.454
 3863POPC   PO451876  40.370  37.812   5.579
 3863POPC   GL151877  40.584  37.886   5.941
 3863POPC   GL251878  40.949  37.892   5.933
 3863POPC   C1A51879  40.496  37.739   6.345
 3863POPC   D2A51880  40.504  37.463   6.658
 3863POPC   C3A51881  40.701  37.766   6.936
 3863POPC   C4A51882  40.585  37.919   7.355
 3863POPC   C1B51883  40.899  37.504   6.166
 3863POPC   C2B51884  40.998  37.384   6.620
 3863POPC   C3B51885  41.015  37.373   7.090
 3863POPC   C4B51886  40.986  37.471   7.538
 3864POPC   NC351887   9.229   5.174   5.380
 3864POPC   PO451888   9.782   5.036   5.502
 3864POPC   GL151889   9.679   5.009   5.951
 3864POPC   GL251890   9.992   4.863   6.024
 3864POPC   C1A51891   9.631   4.823   6.399
 3864POPC   D2A51892   9.820   4.680   6.816
 3864POPC   C3A51893   9.651   4.948   7.144
 3864POPC   C4A51894   9.389   4.920   7.537
 3864POPC   C1B51895  10.129   4.920   6.454
 3864POPC   C2B51896   9.968   5.177   6.781
 3864POPC   C3B51897  10.097   5.216   7.200
 3864POPC   C4B51898  10.362   4.943   7.483
 3865POPC   NC351899  41.863  15.657   5.456
 3865POPC   PO451900  42.401  16.073   5.422
 3865POPC   GL151901  42.325  15.894   5.803
 3865POPC   GL251902  41.969  15.965   5.898
 3865POPC   C1A51903  42.600  16.010   6.130
 3865POPC   D2A51904  42.600  16.241   6.507
 3865POPC   C3A51905  42.421  16.089   6.893
 3865POPC   C4A51906  42.549  15.728   7.158
 3865POPC   C1B51907  42.109  16.190   6.288
 3865POPC   C2B51908  42.137  16.489   6.637
 3865POPC   C3B51909  42.119  16.454   7.100
 3865POPC   C4B51910  42.212  16.310   7.570
 3866POPC   NC351911  40.297  30.074   5.458
 3866POPC   PO451912  40.856  29.682   5.447
 3866POPC   GL151913  40.587  29.766   5.760
 3866POPC   GL251914  40.836  29.957   5.898
 3866POPC   C1A51915  40.421  29.781   6.169
 3866POPC   D2A51916  40.544  29.859   6.587
 3866POPC   C3A51917  40.915  29.790   6.817
 3866POPC   C4A51918  40.670  29.777   7.197
 3866POPC   C1B51919  41.125  30.024   6.228
 3866POPC   C2B51920  41.361  30.067   6.575
 3866POPC   C3B51921  41.257  30.231   6.970
 3866POPC   C4B51922  40.979  30.180   7.306
 3867POPC   NC351923  26.143   2.837   5.249
 3867POPC   PO451924  25.651   2.885   5.711
 3867POPC   GL151925  25.979   2.637   5.874
 3867POPC   GL251926  26.342   2.648   5.737
 3867POPC   C1A51927  26.002   2.419   6.253
 3867POPC   D2A51928  26.240   2.397   6.636
 3867POPC   C3A51929  26.046   2.580   7.028
 3867POPC   C4A51930  26.020   2.456   7.471
 3867POPC   C1B51931  26.389   2.769   6.208
 3867POPC   C2B51932  26.237   2.904   6.657
 3867POPC   C3B51933  26.295   3.038   7.121
 3867POPC   C4B51934  26.091   3.373   7.417
 3868POPC   NC351935  28.702  40.080   5.439
 3868POPC   PO451936  28.244  39.715   5.725
 3868POPC   GL151937  28.332  40.034   5.999
 3868POPC   GL251938  28.656  39.979   5.939
 3868POPC   C1A51939  28.319  40.024   6.458
 3868POPC   D2A51940  28.310  39.726   6.828
 3868POPC   C3A51941  28.171  39.968   7.183
 3868POPC   C4A51942  27.868  40.250   7.391
 3868POPC   C1B51943  28.688  40.329   6.230
 3868POPC   C2B51944  28.768  40.193   6.659
 3868POPC   C3B51945  28.657  40.062   7.067
 3868POPC   C4B51946  28.624  40.318   7.427
 3869POPC   NC351947  34.542  34.230   5.345
 3869POPC   PO451948  34.716  33.523   5.377
 3869POPC   GL151949  34.665  33.817   5.716
 3869POPC   GL251950  34.399  33.676   5.883
 3869POPC   C1A51951  34.802  33.952   6.148
 3869POPC   D2A51952  34.680  34.133   6.568
 3869POPC   C3A51953  34.844  34.053   6.973
 3869POPC   C4A51954  34.702  33.738   7.243
 3869POPC   C1B51955  34.269  33.551   6.293
 3869POPC   C2B51956  34.452  33.664   6.690
 3869POPC   C3B51957  34.324  33.980   6.976
 3869POPC   C4B51958  34.138  33.847   7.328
 3870POPC   NC351959  15.396  30.275   5.122
 3870POPC   PO451960  15.182  30.893   5.282
 3870POPC   GL151961  15.428  30.809   5.629
 3870POPC   GL251962  15.141  30.600   5.735
 3870POPC   C1A51963  15.411  30.945   6.057
 3870POPC   D2A51964  15.349  30.986   6.510
 3870POPC   C3A51965  15.510  30.610   6.742
 3870POPC   C4A51966  15.556  30.524   7.181
 3870POPC   C1B51967  15.078  30.557   6.178
 3870POPC   C2B51968  15.010  30.609   6.613
 3870POPC   C3B51969  15.072  30.688   7.057
 3870POPC   C4B51970  14.874  30.393   7.353
 3871POPC   NC351971  32.812  10.919   5.290
 3871POPC   PO451972  33.266  10.428   5.542
 3871POPC   GL151973  33.161  10.584   5.935
 3871POPC   GL251974  32.847  10.554   5.827
 3871POPC   C1A51975  33.125  10.583   6.395
 3871POPC   D2A51976  32.953  10.902   6.650
 3871POPC   C3A51977  32.858  10.929   7.093
 3871POPC   C4A51978  32.989  10.761   7.469
 3871POPC   C1B51979  32.789  10.280   6.168
 3871POPC   C2B51980  32.667  10.372   6.586
 3871POPC   C3B51981  32.832  10.446   6.945
 3871POPC   C4B51982  32.739  10.339   7.329
 3872POPC   NC351983  41.167  35.215   5.065
 3872POPC   PO451984  40.624  35.314   5.469
 3872POPC   GL151985  40.596  35.245   5.878
 3872POPC   GL251986  40.622  34.898   5.885
 3872POPC   C1A51987  40.560  35.459   6.264
 3872POPC   D2A51988  40.812  35.656   6.588
 3872POPC   C3A51989  40.614  35.561   6.934
 3872POPC   C4A51990  40.688  35.406   7.324
 3872POPC   C1B51991  40.871  34.981   6.247
 3872POPC   C2B51992  40.759  35.129   6.637
 3872POPC   C3B51993  40.808  34.923   7.028
 3872POPC   C4B51994  40.938  34.965   7.434
 3873POPC   NC351995  37.817   6.447   5.308
 3873POPC   PO451996  37.427   7.010   5.407
 3873POPC   GL151997  37.584   6.901   5.845
 3873POPC   GL251998  37.714   6.590   5.782
 3873POPC   C1A51999  37.553   6.687   6.260
 3873POPC   D2A52000  37.520   6.487   6.651
 3873POPC   C3A52001  37.664   6.729   6.944
 3873POPC   C4A52002  37.396   6.939   7.203
 3873POPC   C1B52003  37.978   6.421   6.107
 3873POPC   C2B52004  38.021   6.532   6.540
 3873POPC   C3B52005  38.007   6.359   6.981
 3873POPC   C4B52006  38.182   6.415   7.391
 3874POPC   NC352007  12.993  41.165   5.510
 3874POPC   PO452008  12.821  40.595   5.398
 3874POPC   GL152009  12.876  40.730   5.827
 3874POPC   GL252010  12.991  40.400   5.875
 3874POPC   C1A52011  12.778  40.925   6.264
 3874POPC   D2A52012  12.580  40.924   6.699
 3874POPC   C3A52013  12.854  40.897   7.097
 3874POPC   C4A52014  12.876  40.910   7.575
 3874POPC   C1B52015  13.131  40.550   6.257
 3874POPC   C2B52016  12.999  40.622   6.660
 3874POPC   C3B52017  13.128  40.454   7.044
 3874POPC   C4B52018  12.858  40.320   7.343
 3875POPC   NC352019  35.126  16.506   5.299
 3875POPC   PO452020  35.553  17.023   5.120
 3875POPC   GL152021  35.297  16.922   5.552
 3875POPC   GL252022  35.095  17.134   5.745
 3875POPC   C1A52023  35.252  16.729   6.011
 3875POPC   D2A52024  35.396  16.817   6.453
 3875POPC   C3A52025  35.238  16.642   6.861
 3875POPC   C4A52026  35.451  16.787   7.241
 3875POPC   C1B52027  34.953  17.125   6.156
 3875POPC   C2B52028  34.899  16.915   6.545
 3875POPC   C3B52029  34.847  17.015   6.964
 3875POPC   C4B52030  34.956  16.784   7.301
 3876POPC   NC352031  29.014  29.421   5.069
 3876POPC   PO452032  29.436  29.008   5.370
 3876POPC   GL152033  29.107  29.083   5.739
 3876POPC   GL252034  29.369  29.132   5.943
 3876POPC   C1A52035  28.855  29.139   6.138
 3876POPC   D2A52036  28.891  29.017   6.596
 3876POPC   C3A52037  29.083  29.304   6.909
 3876POPC   C4A52038  29.073  29.339   7.383
 3876POPC   C1B52039  29.271  28.871   6.291
 3876POPC   C2B52040  29.356  28.786   6.707
 3876POPC   C3B52041  29.256  28.892   7.131
 3876POPC   C4B52042  29.530  29.141   7.362
 3877POPC   NC352043  41.145  21.069   5.639
 3877POPC   PO452044  40.496  21.238   5.549
 3877POPC   GL152045  40.771  21.418   5.810
 3877POPC   GL252046  40.650  21.740   5.741
 3877POPC   C1A52047  40.824  21.291   6.239
 3877POPC   D2A52048  40.609  21.129   6.605
 3877POPC   C3A52049  40.710  21.285   7.021
 3877POPC   C4A52050  40.945  21.416   7.377
 3877POPC   C1B52051  40.465  21.662   6.144
 3877POPC   C2B52052  40.390  21.825   6.516
 3877POPC   C3B52053  40.394  21.666   6.907
 3877POPC   C4B52054  40.545  21.720   7.289
 3878POPC   NC352055  38.827  40.332   5.508
 3878POPC   PO452056  38.675  39.622   5.412
 3878POPC   GL152057  38.544  39.724   5.825
 3878POPC   GL252058  38.508  40.094   5.810
 3878POPC   C1A52059  38.534  39.824   6.254
 3878POPC   D2A52060  38.232  39.869   6.584
 3878POPC   C3A52061  38.449  39.879   6.962
 3878POPC   C4A52062  38.568  39.527   7.218
 3878POPC   C1B52063  38.807  40.238   6.143
 3878POPC   C2B52064  38.690  40.187   6.563
 3878POPC   C3B52065  38.632  40.409   6.936
 3878POPC   C4B52066  38.378  40.343   7.271
 3879POPC   NC352067  15.799  33.071   5.353
 3879POPC   PO452068  16.272  33.380   5.676
 3879POPC   GL152069  16.184  33.056   5.926
 3879POPC   GL252070  16.192  32.748   5.775
 3879POPC   C1A52071  16.211  33.015   6.329
 3879POPC   D2A52072  16.030  33.132   6.710
 3879POPC   C3A52073  16.209  33.173   7.100
 3879POPC   C4A52074  15.991  33.107   7.499
 3879POPC   C1B52075  15.920  32.646   6.139
 3879POPC   C2B52076  15.887  32.656   6.593
 3879POPC   C3B52077  15.923  32.747   7.048
 3879POPC   C4B52078  15.693  32.730   7.427
 3880POPC   NC352079  40.315  33.310   5.583
 3880POPC   PO452080  39.787  32.908   5.472
 3880POPC   GL152081  40.012  32.948   5.883
 3880POPC   GL252082  40.228  33.223   6.079
 3880POPC   C1A52083  40.157  32.762   6.272
 3880POPC   D2A52084  40.132  32.866   6.676
 3880POPC   C3A52085  40.147  33.110   7.013
 3880POPC   C4A52086  40.200  33.021   7.446
 3880POPC   C1B52087  39.813  33.136   6.316
 3880POPC   C2B52088  39.681  33.147   6.757
 3880POPC   C3B52089  39.685  33.208   7.200
 3880POPC   C4B52090  39.599  33.073   7.648
 3881POPC   NC352091  43.435   1.156   5.375
 3881POPC   PO452092  42.818   1.210   5.340
 3881POPC   GL152093  43.045   1.066   5.698
 3881POPC   GL252094  43.035   1.391   5.881
 3881POPC   C1A52095  43.243   0.960   6.091
 3881POPC   D2A52096  43.141   1.120   6.498
 3881POPC   C3A52097  43.268   1.015   6.930
 3881POPC   C4A52098  43.140   1.195   7.377
 3881POPC   C1B52099  42.797   1.439   6.288
 3881POPC   C2B52100  42.746   1.579   6.731
 3881POPC   C3B52101  42.820   1.603   7.209
 3881POPC   C4B52102  42.909   1.544   7.670
 3882POPC   NC352103   4.827   6.826   5.277
 3882POPC   PO452104   5.242   6.554   5.691
 3882POPC   GL152105   4.811   6.468   5.851
 3882POPC   GL252106   4.629   6.138   5.760
 3882POPC   C1A52107   4.786   6.567   6.276
 3882POPC   D2A52108   5.089   6.762   6.558
 3882POPC   C3A52109   5.097   6.602   6.960
 3882POPC   C4A52110   5.012   6.867   7.286
 3882POPC   C1B52111   4.760   6.054   6.176
 3882POPC   C2B52112   4.923   6.187   6.597
 3882POPC   C3B52113   4.718   6.242   6.990
 3882POPC   C4B52114   4.858   6.389   7.393
 3883POPC   NC352115  18.520  14.933   5.339
 3883POPC   PO452116  17.923  15.358   5.406
 3883POPC   GL152117  18.171  15.250   5.808
 3883POPC   GL252118  18.523  15.165   5.783
 3883POPC   C1A52119  18.100  15.396   6.248
 3883POPC   D2A52120  18.030  15.518   6.668
 3883POPC   C3A52121  17.859  15.229   6.981
 3883POPC   C4A52122  17.972  15.405   7.338
 3883POPC   C1B52123  18.473  15.042   6.206
 3883POPC   C2B52124  18.206  15.022   6.583
 3883POPC   C3B52125  18.347  15.222   6.943
 3883POPC   C4B52126  18.434  15.146   7.330
 3884POPC   NC352127  35.077  33.839   5.400
 3884POPC   PO452128  35.699  34.065   5.468
 3884POPC   GL152129  35.451  33.878   5.823
 3884POPC   GL252130  35.144  33.682   5.870
 3884POPC   C1A52131  35.440  33.995   6.227
 3884POPC   D2A52132  35.158  33.969   6.544
 3884POPC   C3A52133  35.276  33.801   6.885
 3884POPC   C4A52134  35.338  33.965   7.266
 3884POPC   C1B52135  35.310  33.500   6.225
 3884POPC   C2B52136  35.577  33.302   6.509
 3884POPC   C3B52137  35.435  33.304   6.911
 3884POPC   C4B52138  35.188  33.484   7.259
 3885POPC   NC352139  25.774  34.044   5.011
 3885POPC   PO452140  26.003  33.588   5.410
 3885POPC   GL152141  26.176  33.746   5.834
 3885POPC   GL252142  26.404  34.026   5.847
 3885POPC   C1A52143  26.043  33.776   6.260
 3885POPC   D2A52144  25.821  33.618   6.634
 3885POPC   C3A52145  25.981  33.498   7.038
 3885POPC   C4A52146  26.062  33.659   7.459
 3885POPC   C1B52147  26.537  33.931   6.289
 3885POPC   C2B52148  26.331  33.788   6.681
 3885POPC   C3B52149  26.310  33.927   7.108
 3885POPC   C4B52150  26.393  34.050   7.528
 3886POPC   NC352151  34.551  13.291   5.270
 3886POPC   PO452152  34.040  13.331   5.587
 3886POPC   GL152153  34.363  13.492   5.830
 3886POPC   GL252154  34.722  13.527   5.754
 3886POPC   C1A52155  34.503  13.579   6.235
 3886POPC   D2A52156  34.531  13.829   6.583
 3886POPC   C3A52157  34.350  13.550   6.851
 3886POPC   C4A52158  34.437  13.405   7.215
 3886POPC   C1B52159  34.990  13.425   6.125
 3886POPC   C2B52160  35.049  13.535   6.564
 3886POPC   C3B52161  34.873  13.539   6.986
 3886POPC   C4B52162  34.755  13.747   7.401
 3887POPC   NC352163  18.898  11.710   5.428
 3887POPC   PO452164  19.119  11.105   5.596
 3887POPC   GL152165  19.014  11.414   5.867
 3887POPC   GL252166  19.316  11.427   6.078
 3887POPC   C1A52167  18.799  11.468   6.240
 3887POPC   D2A52168  18.978  11.432   6.631
 3887POPC   C3A52169  18.802  11.623   7.029
 3887POPC   C4A52170  19.049  11.697   7.430
 3887POPC   C1B52171  19.138  11.013   6.231
 3887POPC   C2B52172  19.296  10.700   6.538
 3887POPC   C3B52173  19.299  10.890   6.927
 3887POPC   C4B52174  19.236  11.344   7.078
 3888POPC   NC352175  38.362  11.583   5.561
 3888POPC   PO452176  38.505  10.989   5.395
 3888POPC   GL152177  38.368  11.129   5.827
 3888POPC   GL252178  38.593  11.388   5.956
 3888POPC   C1A52179  38.275  11.156   6.289
 3888POPC   D2A52180  38.481  11.365   6.658
 3888POPC   C3A52181  38.473  11.168   7.084
 3888POPC   C4A52182  38.646  11.109   7.561
 3888POPC   C1B52183  38.643  11.682   6.278
 3888POPC   C2B52184  38.666  11.878   6.659
 3888POPC   C3B52185  38.605  11.671   7.058
 3888POPC   C4B52186  38.801  11.606   7.452
 3889POPC   NC352187  25.114  42.148   5.539
 3889POPC   PO452188  25.633  42.472   5.408
 3889POPC   GL152189  25.399  42.490   5.781
 3889POPC   GL252190  25.034  42.608   5.794
 3889POPC   C1A52191  25.303  42.295   6.171
 3889POPC   D2A52192  25.054  42.432   6.498
 3889POPC   C3A52193  25.252  42.633   6.818
 3889POPC   C4A52194  25.268  42.392   7.146
 3889POPC   C1B52195  24.848  42.784   6.186
 3889POPC   C2B52196  24.754  42.803   6.662
 3889POPC   C3B52197  24.790  42.588   7.087
 3889POPC   C4B52198  25.004  42.611   7.514
 3890POPC   NC352199  15.045  16.019   5.330
 3890POPC   PO452200  14.712  15.506   5.651
 3890POPC   GL152201  15.060  15.713   5.870
 3890POPC   GL252202  15.204  16.036   5.823
 3890POPC   C1A52203  15.146  15.795   6.297
 3890POPC   D2A52204  14.986  16.023   6.617
 3890POPC   C3A52205  15.242  15.948   6.950
 3890POPC   C4A52206  15.171  15.782   7.321
 3890POPC   C1B52207  15.461  16.223   6.150
 3890POPC   C2B52208  15.430  16.258   6.577
 3890POPC   C3B52209  15.580  16.326   7.004
 3890POPC   C4B52210  15.334  16.258   7.418
 3891POPC   NC352211  36.782  28.047   5.406
 3891POPC   PO452212  37.123  28.670   5.442
 3891POPC   GL152213  36.935  28.441   5.756
 3891POPC   GL252214  37.171  28.161   5.801
 3891POPC   C1A52215  36.808  28.265   6.139
 3891POPC   D2A52216  36.999  28.223   6.546
 3891POPC   C3A52217  36.788  28.299   6.949
 3891POPC   C4A52218  36.693  28.283   7.351
 3891POPC   C1B52219  37.306  28.431   6.140
 3891POPC   C2B52220  37.389  28.511   6.582
 3891POPC   C3B52221  37.281  28.291   6.994
 3891POPC   C4B52222  37.161  28.465   7.406
 3892POPC   NC352223  33.223  16.163   4.932
 3892POPC   PO452224  33.013  16.514   5.390
 3892POPC   GL152225  33.100  16.680   5.757
 3892POPC   GL252226  33.415  16.744   5.717
 3892POPC   C1A52227  33.024  16.570   6.182
 3892POPC   D2A52228  33.060  16.714   6.600
 3892POPC   C3A52229  33.018  16.503   6.981
 3892POPC   C4A52230  33.007  16.869   7.240
 3892POPC   C1B52231  33.357  16.991   6.113
 3892POPC   C2B52232  33.396  17.197   6.528
 3892POPC   C3B52233  33.423  17.028   6.944
 3892POPC   C4B52234  33.564  17.120   7.363
 3893POPC   NC352235   7.262  44.533   5.445
 3893POPC   PO452236   7.939  44.839   5.301
 3893POPC   GL152237   7.826  44.578   5.636
 3893POPC   GL252238   7.562  44.781   5.761
 3893POPC   C1A52239   7.802  44.513   6.104
 3893POPC   D2A52240   7.682  44.762   6.478
 3893POPC   C3A52241   7.572  44.444   6.806
 3893POPC   C4A52242   7.512  44.442   7.249
 3893POPC   C1B52243   7.290  44.654   6.141
 3893POPC   C2B52244   7.185  44.757   6.564
 3893POPC   C3B52245   7.335  44.844   6.964
 3893POPC   C4B52246   7.016  44.583   7.229
 3894POPC   NC352247   6.551  19.337   5.350
 3894POPC   PO452248   6.412  20.017   5.314
 3894POPC   GL152249   6.570  19.798   5.729
 3894POPC   GL252250   6.451  19.468   5.881
 3894POPC   C1A52251   6.690  19.811   6.214
 3894POPC   D2A52252   6.485  19.768   6.655
 3894POPC   C3A52253   6.588  19.758   7.113
 3894POPC   C4A52254   6.295  20.009   7.342
 3894POPC   C1B52255   6.358  19.232   6.279
 3894POPC   C2B52256   6.257  19.272   6.737
 3894POPC   C3B52257   6.310  19.088   7.153
 3894POPC   C4B52258   6.499  19.290   7.524
 3895POPC   NC352259  36.116   4.548   5.398
 3895POPC   PO452260  36.034   3.973   5.490
 3895POPC   GL152261  35.884   4.268   5.829
 3895POPC   GL252262  35.932   4.639   5.870
 3895POPC   C1A52263  35.938   4.324   6.280
 3895POPC   D2A52264  36.158   4.118   6.596
 3895POPC   C3A52265  36.028   4.204   7.016
 3895POPC   C4A52266  36.273   4.267   7.388
 3895POPC   C1B52267  35.864   4.827   6.294
 3895POPC   C2B52268  35.826   4.663   6.733
 3895POPC   C3B52269  36.023   4.685   7.162
 3895POPC   C4B52270  35.943   4.601   7.596
 3896POPC   NC352271   3.564  33.442   5.714
 3896POPC   PO452272   3.584  32.903   5.351
 3896POPC   GL152273   3.505  32.910   5.799
 3896POPC   GL252274   3.184  33.073   5.775
 3896POPC   C1A52275   3.492  32.960   6.278
 3896POPC   D2A52276   3.773  33.022   6.652
 3896POPC   C3A52277   3.661  33.111   7.053
 3896POPC   C4A52278   3.508  32.836   7.327
 3896POPC   C1B52279   3.039  32.756   6.066
 3896POPC   C2B52280   3.039  32.793   6.500
 3896POPC   C3B52281   3.280  32.779   6.884
 3896POPC   C4B52282   3.072  32.608   7.240
 3897POPC   NC352283  22.529  29.683   5.505
 3897POPC   PO452284  23.198  29.752   5.787
 3897POPC   GL152285  22.794  29.890   5.890
 3897POPC   GL252286  22.822  30.233   5.832
 3897POPC   C1A52287  22.658  29.866   6.291
 3897POPC   D2A52288  22.988  29.765   6.552
 3897POPC   C3A52289  23.185  29.995   6.826
 3897POPC   C4A52290  23.089  29.955   7.226
 3897POPC   C1B52291  23.039  30.207   6.249
 3897POPC   C2B52292  22.793  30.276   6.604
 3897POPC   C3B52293  22.806  30.322   7.018
 3897POPC   C4B52294  22.624  30.211   7.406
 3898POPC   NC352295  43.280  34.900   5.522
 3898POPC   PO452296  42.916  34.344   5.354
 3898POPC   GL152297  42.919  34.486   5.747
 3898POPC   GL252298  42.618  34.308   5.785
 3898POPC   C1A52299  43.176  34.603   6.108
 3898POPC   D2A52300  43.248  34.374   6.495
 3898POPC   C3A52301  43.352  34.593   6.871
 3898POPC   C4A52302  43.236  34.659   7.299
 3898POPC   C1B52303  42.795  34.301   6.218
 3898POPC   C2B52304  42.771  34.270   6.662
 3898POPC   C3B52305  42.840  34.223   7.091
 3898POPC   C4B52306  42.537  34.089   7.411
 3899POPC   NC352307   7.240   1.742   5.522
 3899POPC   PO452308   7.785   2.288   5.486
 3899POPC   GL152309   7.561   2.054   5.775
 3899POPC   GL252310   7.228   2.141   5.959
 3899POPC   C1A52311   7.614   1.829   6.103
 3899POPC   D2A52312   7.741   1.927   6.454
 3899POPC   C3A52313   7.428   1.908   6.760
 3899POPC   C4A52314   7.467   1.813   7.193
 3899POPC   C1B52315   7.426   2.323   6.341
 3899POPC   C2B52316   7.446   2.410   6.811
 3899POPC   C3B52317   7.165   2.252   7.112
 3899POPC   C4B52318   7.207   2.094   7.544
 3900POPC   NC352319  26.820  30.048   5.394
 3900POPC   PO452320  27.046  29.388   5.437
 3900POPC   GL152321  26.848  29.690   5.794
 3900POPC   GL252322  26.680  30.054   5.869
 3900POPC   C1A52323  26.875  29.742   6.261
 3900POPC   D2A52324  26.828  30.000   6.641
 3900POPC   C3A52325  26.993  29.848   7.015
 3900POPC   C4A52326  26.861  29.513   7.210
 3900POPC   C1B52327  26.470  30.058   6.261
 3900POPC   C2B52328  26.286  30.035   6.666
 3900POPC   C3B52329  26.455  30.158   7.017
 3900POPC   C4B52330  26.622  29.953   7.335
 3901POPC   NC352331  18.207  24.221   5.384
 3901POPC   PO452332  18.731  24.495   5.488
 3901POPC   GL152333  18.487  24.613   5.892
 3901POPC   GL252334  18.140  24.783   5.861
 3901POPC   C1A52335  18.525  24.463   6.332
 3901POPC   D2A52336  18.635  24.333   6.768
 3901POPC   C3A52337  18.344  24.200   7.078
 3901POPC   C4A52338  18.288  24.272   7.524
 3901POPC   C1B52339  18.024  24.624   6.284
 3901POPC   C2B52340  18.134  24.545   6.749
 3901POPC   C3B52341  18.129  24.650   7.221
 3901POPC   C4B52342  17.943  24.619   7.664
 3902POPC   NC352343  40.698  13.964   5.548
 3902POPC   PO452344  40.937  14.597   5.452
 3902POPC   GL152345  40.576  14.538   5.785
 3902POPC   GL252346  40.335  14.238   5.825
 3902POPC   C1A52347  40.522  14.532   6.244
 3902POPC   D2A52348  40.629  14.319   6.658
 3902POPC   C3A52349  40.957  14.217   6.969
 3902POPC   C4A52350  40.966  14.351   7.386
 3902POPC   C1B52351  40.434  14.004   6.232
 3902POPC   C2B52352  40.334  13.890   6.695
 3902POPC   C3B52353  40.534  13.950   7.111
 3902POPC   C4B52354  40.787  13.881   7.495
 3903POPC   NC352355   4.237   7.059   5.552
 3903POPC   PO452356   4.532   6.430   5.328
 3903POPC   GL152357   4.313   6.566   5.718
 3903POPC   GL252358   3.950   6.650   5.742
 3903POPC   C1A52359   4.287   6.476   6.159
 3903POPC   D2A52360   4.403   6.267   6.547
 3903POPC   C3A52361   4.265   6.509   6.896
 3903POPC   C4A52362   4.568   6.720   7.084
 3903POPC   C1B52363   3.977   6.898   6.144
 3903POPC   C2B52364   4.048   6.891   6.587
 3903POPC   C3B52365   3.991   6.956   7.017
 3903POPC   C4B52366   4.144   6.940   7.429
 3904POPC   NC352367   7.357   6.776   5.420
 3904POPC   PO452368   7.468   6.074   5.518
 3904POPC   GL152369   7.291   6.413   5.833
 3904POPC   GL252370   7.092   6.761   5.835
 3904POPC   C1A52371   7.368   6.465   6.301
 3904POPC   D2A52372   7.348   6.149   6.651
 3904POPC   C3A52373   7.380   6.263   7.074
 3904POPC   C4A52374   7.715   6.469   7.263
 3904POPC   C1B52375   7.136   6.964   6.206
 3904POPC   C2B52376   7.378   6.931   6.595
 3904POPC   C3B52377   7.512   7.135   6.982
 3904POPC   C4B52378   7.537   6.935   7.386
 3905POPC   NC352379  43.434   0.035   5.428
 3905POPC   PO452380  43.234   0.722   5.311
 3905POPC   GL152381  43.111   0.516   5.722
 3905POPC   GL252382  43.046   0.143   5.751
 3905POPC   C1A52383  43.046   0.475   6.178
 3905POPC   D2A52384  42.928   0.661   6.564
 3905POPC   C3A52385  43.015   0.529   6.931
 3905POPC   C4A52386  42.932   0.727   7.305
 3905POPC   C1B52387  43.314   0.038   6.090
 3905POPC   C2B52388  43.378   0.196   6.507
 3905POPC   C3B52389  43.339   0.113   6.929
 3905POPC   C4B52390  43.100   0.176   7.301
 3906POPC   NC352391   6.104  38.189   5.580
 3906POPC   PO452392   6.620  38.690   5.418
 3906POPC   GL152393   6.679  38.443   5.796
 3906POPC   GL252394   6.463  38.200   5.965
 3906POPC   C1A52395   6.869  38.436   6.194
 3906POPC   D2A52396   6.728  38.305   6.564
 3906POPC   C3A52397   6.872  38.544   6.881
 3906POPC   C4A52398   6.645  38.559   7.286
 3906POPC   C1B52399   6.139  38.095   6.277
 3906POPC   C2B52400   6.024  38.206   6.693
 3906POPC   C3B52401   6.189  38.301   7.108
 3906POPC   C4B52402   6.326  38.144   7.493
 3907POPC   NC352403  10.464  12.085   5.262
 3907POPC   PO452404  10.524  11.484   5.521
 3907POPC   GL152405  10.492  11.871   5.770
 3907POPC   GL252406  10.573  12.246   5.746
 3907POPC   C1A52407  10.446  11.917   6.217
 3907POPC   D2A52408  10.219  11.789   6.610
 3907POPC   C3A52409  10.438  11.929   7.007
 3907POPC   C4A52410  10.858  12.054   7.166
 3907POPC   C1B52411  10.207  12.300   5.983
 3907POPC   C2B52412  10.189  12.293   6.458
 3907POPC   C3B52413  10.099  12.313   6.923
 3907POPC   C4B52414  10.467  12.442   7.169
 3908POPC   NC352415  29.145  37.903   5.367
 3908POPC   PO452416  29.357  37.228   5.416
 3908POPC   GL152417  29.380  37.500   5.801
 3908POPC   GL252418  29.042  37.698   5.841
 3908POPC   C1A52419  29.336  37.533   6.257
 3908POPC   D2A52420  28.933  37.625   6.484
 3908POPC   C3A52421  28.902  37.597   6.935
 3908POPC   C4A52422  29.267  37.552   7.223
 3908POPC   C1B52423  29.294  38.013   6.057
 3908POPC   C2B52424  29.286  37.998   6.494
 3908POPC   C3B52425  29.192  38.035   6.913
 3908POPC   C4B52426  29.462  38.021   7.265
 3909POPC   NC352427  41.369  40.703   5.351
 3909POPC   PO452428  42.018  40.797   5.671
 3909POPC   GL152429  41.589  40.672   5.805
 3909POPC   GL252430  41.334  40.975   5.803
 3909POPC   C1A52431  41.436  40.465   6.163
 3909POPC   D2A52432  41.715  40.561   6.498
 3909POPC   C3A52433  41.523  40.661   6.875
 3909POPC   C4A52434  41.779  40.953   7.034
 3909POPC   C1B52435  41.017  40.803   6.088
 3909POPC   C2B52436  41.121  40.735   6.518
 3909POPC   C3B52437  41.015  40.797   6.935
 3909POPC   C4B52438  41.222  40.888   7.312
 3910POPC   NC352439   3.505   9.247   5.162
 3910POPC   PO452440   3.628   8.770   5.687
 3910POPC   GL152441   3.651   8.937   6.034
 3910POPC   GL252442   3.315   8.857   6.080
 3910POPC   C1A52443   3.738   9.000   6.482
 3910POPC   D2A52444   3.511   8.887   6.884
 3910POPC   C3A52445   3.717   8.844   7.298
 3910POPC   C4A52446   3.671   8.634   7.736
 3910POPC   C1B52447   3.362   9.277   6.278
 3910POPC   C2B52448   3.382   9.350   6.681
 3910POPC   C3B52449   3.142   9.305   7.014
 3910POPC   C4B52450   3.241   9.018   7.309
 3911POPC   NC352451  21.754  29.052   5.523
 3911POPC   PO452452  21.126  28.729   5.538
 3911POPC   GL152453  21.104  28.888   5.949
 3911POPC   GL252454  21.347  29.130   5.894
 3911POPC   C1A52455  21.373  28.827   6.326
 3911POPC   D2A52456  21.563  29.020   6.697
 3911POPC   C3A52457  21.374  28.990   7.076
 3911POPC   C4A52458  21.126  28.780   7.338
 3911POPC   C1B52459  21.637  29.294   6.210
 3911POPC   C2B52460  21.570  29.520   6.586
 3911POPC   C3B52461  21.582  29.471   6.994
 3911POPC   C4B52462  21.790  29.238   7.260
 3912POPC   NC352463  20.209  10.695   5.408
 3912POPC   PO452464  19.814  10.247   5.484
 3912POPC   GL152465  19.780  10.468   5.874
 3912POPC   GL252466  20.061  10.713   5.911
 3912POPC   C1A52467  19.769  10.557   6.326
 3912POPC   D2A52468  19.796  10.785   6.728
 3912POPC   C3A52469  19.757  10.668   7.153
 3912POPC   C4A52470  20.092  10.543   7.409
 3912POPC   C1B52471  20.141  10.929   6.324
 3912POPC   C2B52472  20.305  10.871   6.767
 3912POPC   C3B52473  20.189  10.996   7.211
 3912POPC   C4B52474  20.370  10.890   7.645
 3913POPC   NC352475  25.732  11.566   5.163
 3913POPC   PO452476  26.152  11.177   5.565
 3913POPC   GL152477  26.178  11.107   5.978
 3913POPC   GL252478  25.945  10.818   5.891
 3913POPC   C1A52479  26.272  11.424   6.324
 3913POPC   D2A52480  26.027  11.730   6.591
 3913POPC   C3A52481  25.925  11.542   6.976
 3913POPC   C4A52482  26.157  11.286   7.299
 3913POPC   C1B52483  25.800  10.917   6.281
 3913POPC   C2B52484  25.847  11.229   6.527
 3913POPC   C3B52485  26.016  11.072   6.853
 3913POPC   C4B52486  25.909  10.831   7.181
 3914POPC   NC352487  44.034   5.584   5.370
 3914POPC   PO452488  43.838   6.268   5.427
 3914POPC   GL152489  43.755   6.013   5.799
 3914POPC   GL252490  43.648   5.654   5.770
 3914POPC   C1A52491  43.765   6.011   6.245
 3914POPC   D2A52492  44.072   6.107   6.566
 3914POPC   C3A52493  43.891   6.014   6.918
 3914POPC   C4A52494  44.014   6.176   7.267
 3914POPC   C1B52495  43.811   5.492   6.178
 3914POPC   C2B52496  43.925   5.620   6.590
 3914POPC   C3B52497  44.057   5.523   7.008
 3914POPC   C4B52498  43.825   5.558   7.368
 3915POPC   NC352499   8.682  31.631   5.552
 3915POPC   PO452500   8.065  31.232   5.469
 3915POPC   GL152501   7.979  31.370   5.867
 3915POPC   GL252502   8.277  31.584   5.890
 3915POPC   C1A52503   7.993  31.488   6.308
 3915POPC   D2A52504   7.956  31.675   6.690
 3915POPC   C3A52505   7.967  31.401   7.046
 3915POPC   C4A52506   7.821  31.712   7.349
 3915POPC   C1B52507   8.504  31.489   6.264
 3915POPC   C2B52508   8.372  31.388   6.694
 3915POPC   C3B52509   8.449  31.518   7.134
 3915POPC   C4B52510   8.739  31.689   7.481
 3916POPC   NC352511  35.523  13.508   5.352
 3916POPC   PO452512  35.532  14.167   5.326
 3916POPC   GL152513  35.493  13.981   5.766
 3916POPC   GL252514  35.348  13.628   5.819
 3916POPC   C1A52515  35.388  13.964   6.218
 3916POPC   D2A52516  35.543  13.727   6.581
 3916POPC   C3A52517  35.302  13.825   6.925
 3916POPC   C4A52518  35.243  13.755   7.322
 3916POPC   C1B52519  35.555  13.395   6.172
 3916POPC   C2B52520  35.478  13.192   6.590
 3916POPC   C3B52521  35.521  13.377   7.003
 3916POPC   C4B52522  35.754  13.692   7.226
 3917POPC   NC352523  26.337   8.997   5.496
 3917POPC   PO452524  25.650   9.212   5.322
 3917POPC   GL152525  25.723   9.070   5.767
 3917POPC   GL252526  25.963   8.821   5.823
 3917POPC   C1A52527  25.888   9.176   6.238
 3917POPC   D2A52528  26.038   9.035   6.691
 3917POPC   C3A52529  25.764   9.049   7.048
 3917POPC   C4A52530  25.884   8.771   7.402
 3917POPC   C1B52531  26.105   8.719   6.264
 3917POPC   C2B52532  26.182   8.537   6.683
 3917POPC   C3B52533  26.195   8.436   7.134
 3917POPC   C4B52534  26.133   8.364   7.634
 3918POPC   NC352535  14.917  25.175   5.450
 3918POPC   PO452536  15.018  25.841   5.199
 3918POPC   GL152537  15.042  25.671   5.668
 3918POPC   GL252538  15.280  25.365   5.767
 3918POPC   C1A52539  14.922  25.539   6.092
 3918POPC   D2A52540  15.097  25.381   6.479
 3918POPC   C3A52541  14.947  25.507   6.879
 3918POPC   C4A52542  15.074  25.321   7.241
 3918POPC   C1B52543  15.277  25.047   6.127
 3918POPC   C2B52544  15.212  24.866   6.554
 3918POPC   C3B52545  15.066  24.885   6.957
 3918POPC   C4B52546  15.300  24.874   7.293
 3919POPC   NC352547   1.729  18.530   5.550
 3919POPC   PO452548   2.204  18.132   5.330
 3919POPC   GL152549   1.988  18.162   5.788
 3919POPC   GL252550   1.761  17.917   5.940
 3919POPC   C1A52551   1.938  18.335   6.203
 3919POPC   D2A52552   2.240  18.377   6.519
 3919POPC   C3A52553   2.176  18.265   6.932
 3919POPC   C4A52554   2.163  17.926   7.210
 3919POPC   C1B52555   1.670  17.881   6.388
 3919POPC   C2B52556   1.757  17.991   6.828
 3919POPC   C3B52557   1.664  17.753   7.203
 3919POPC   C4B52558   1.459  17.618   7.624
 3920POPC   NC352559  30.323   1.216   5.221
 3920POPC   PO452560  30.953   0.953   5.361
 3920POPC   GL152561  30.770   1.293   5.663
 3920POPC   GL252562  30.432   1.237   5.752
 3920POPC   C1A52563  30.752   1.249   6.150
 3920POPC   D2A52564  30.480   1.083   6.506
 3920POPC   C3A52565  30.732   0.991   6.891
 3920POPC   C4A52566  30.912   1.353   7.116
 3920POPC   C1B52567  30.257   1.459   6.135
 3920POPC   C2B52568  30.239   1.556   6.579
 3920POPC   C3B52569  30.395   1.377   6.962
 3920POPC   C4B52570  30.409   1.514   7.379
 3921POPC   NC352571  15.448  44.294   5.448
 3921POPC   PO452572  15.181  43.675   5.354
 3921POPC   GL152573  15.215  43.912   5.734
 3921POPC   GL252574  15.279  43.620   5.903
 3921POPC   C1A52575  15.339  44.085   6.165
 3921POPC   D2A52576  15.141  44.263   6.528
 3921POPC   C3A52577  15.299  43.987   6.838
 3921POPC   C4A52578  15.397  43.901   7.236
 3921POPC   C1B52579  15.277  43.566   6.336
 3921POPC   C2B52580  15.189  43.461   6.771
 3921POPC   C3B52581  14.941  43.664   7.115
 3921POPC   C4B52582  14.998  43.768   7.578
 3922POPC   NC352583  12.169  32.559   5.283
 3922POPC   PO452584  11.862  31.960   5.512
 3922POPC   GL152585  12.081  32.025   5.870
 3922POPC   GL252586  12.173  32.370   5.787
 3922POPC   C1A52587  12.192  31.893   6.274
 3922POPC   D2A52588  12.205  32.118   6.662
 3922POPC   C3A52589  12.005  32.062   7.053
 3922POPC   C4A52590  11.869  31.948   7.453
 3922POPC   C1B52591  12.033  32.409   6.222
 3922POPC   C2B52592  12.087  32.628   6.592
 3922POPC   C3B52593  11.916  32.563   6.957
 3922POPC   C4B52594  11.871  32.465   7.358
 3923POPC   NC352595   4.620  41.839   5.543
 3923POPC   PO452596   4.953  42.353   5.231
 3923POPC   GL152597   5.099  42.252   5.662
 3923POPC   GL252598   5.219  42.572   5.812
 3923POPC   C1A52599   4.955  42.241   6.113
 3923POPC   D2A52600   5.097  42.019   6.483
 3923POPC   C3A52601   4.931  42.161   6.887
 3923POPC   C4A52602   5.120  42.274   7.302
 3923POPC   C1B52603   5.302  42.709   6.253
 3923POPC   C2B52604   5.388  42.636   6.716
 3923POPC   C3B52605   5.401  42.868   7.109
 3923POPC   C4B52606   5.263  42.702   7.516
 3924POPC   NC352607  19.492  40.462   5.717
 3924POPC   PO452608  18.904  40.752   5.449
 3924POPC   GL152609  18.918  40.970   5.818
 3924POPC   GL252610  19.069  40.649   5.940
 3924POPC   C1A52611  18.742  40.888   6.229
 3924POPC   D2A52612  18.922  40.680   6.561
 3924POPC   C3A52613  18.743  40.871   6.921
 3924POPC   C4A52614  18.821  40.849   7.354
 3924POPC   C1B52615  19.279  40.951   6.210
 3924POPC   C2B52616  19.441  40.898   6.636
 3924POPC   C3B52617  19.227  40.757   7.016
 3924POPC   C4B52618  19.270  40.389   7.302
 3925POPC   NC352619  39.081  39.723   5.231
 3925POPC   PO452620  39.364  40.281   5.448
 3925POPC   GL152621  39.304  40.135   5.838
 3925POPC   GL252622  39.020  39.931   5.763
 3925POPC   C1A52623  39.403  40.299   6.247
 3925POPC   D2A52624  39.494  40.492   6.676
 3925POPC   C3A52625  39.530  40.188   7.005
 3925POPC   C4A52626  39.294  39.973   7.322
 3925POPC   C1B52627  39.111  39.812   6.202
 3925POPC   C2B52628  39.261  39.960   6.598
 3925POPC   C3B52629  39.031  40.099   6.918
 3925POPC   C4B52630  38.799  40.047   7.298
 3926POPC   NC352631  12.236  31.656   5.537
 3926POPC   PO452632  11.812  31.082   5.668
 3926POPC   GL152633  12.024  31.376   5.931
 3926POPC   GL252634  12.405  31.351   5.927
 3926POPC   C1A52635  12.044  31.388   6.367
 3926POPC   D2A52636  11.863  31.713   6.645
 3926POPC   C3A52637  11.824  31.578   7.068
 3926POPC   C4A52638  12.008  31.189   7.199
 3926POPC   C1B52639  12.568  31.355   6.357
 3926POPC   C2B52640  12.384  31.606   6.665
 3926POPC   C3B52641  12.387  31.731   7.035
 3926POPC   C4B52642  12.249  31.620   7.372
 3927POPC   NC352643  25.450  26.134   5.397
 3927POPC   PO452644  24.855  25.837   5.212
 3927POPC   GL152645  25.086  25.717   5.697
 3927POPC   GL252646  25.434  25.815   5.805
 3927POPC   C1A52647  25.057  25.765   6.176
 3927POPC   D2A52648  25.260  25.608   6.567
 3927POPC   C3A52649  25.085  25.796   6.962
 3927POPC   C4A52650  24.901  26.184   7.138
 3927POPC   C1B52651  25.589  25.819   6.231
 3927POPC   C2B52652  25.747  25.863   6.641
 3927POPC   C3B52653  25.593  25.625   6.959
 3927POPC   C4B52654  25.494  25.737   7.326
 3928POPC   NC352655   6.260  39.020   5.436
 3928POPC   PO452656   5.667  39.384   5.261
 3928POPC   GL152657   5.908  39.380   5.679
 3928POPC   GL252658   5.864  39.026   5.781
 3928POPC   C1A52659   5.968  39.592   6.098
 3928POPC   D2A52660   5.905  39.703   6.540
 3928POPC   C3A52661   6.104  39.643   6.951
 3928POPC   C4A52662   6.008  39.470   7.350
 3928POPC   C1B52663   6.104  39.120   6.159
 3928POPC   C2B52664   5.883  39.189   6.544
 3928POPC   C3B52665   5.967  39.139   6.958
 3928POPC   C4B52666   6.233  38.848   7.141
 3929POPC   NC352667  13.584  14.955   5.334
 3929POPC   PO452668  13.154  15.499   5.506
 3929POPC   GL152669  13.402  15.225   5.749
 3929POPC   GL252670  13.761  15.268   5.734
 3929POPC   C1A52671  13.480  15.388   6.165
 3929POPC   D2A52672  13.204  15.402   6.505
 3929POPC   C3A52673  13.395  15.301   6.875
 3929POPC   C4A52674  13.328  15.348   7.286
 3929POPC   C1B52675  13.946  15.579   6.037
 3929POPC   C2B52676  14.004  15.517   6.508
 3929POPC   C3B52677  13.964  15.191   6.828
 3929POPC   C4B52678  13.799  15.147   7.212
 3930POPC   NC352679  15.372  40.488   5.561
 3930POPC   PO452680  15.601  41.049   5.261
 3930POPC   GL152681  15.410  40.984   5.732
 3930POPC   GL252682  15.065  40.878   5.802
 3930POPC   C1A52683  15.466  40.790   6.178
 3930POPC   D2A52684  15.708  40.590   6.519
 3930POPC   C3A52685  15.429  40.544   6.863
 3930POPC   C4A52686  15.333  40.745   7.221
 3930POPC   C1B52687  15.103  41.137   6.214
 3930POPC   C2B52688  15.261  41.024   6.631
 3930POPC   C3B52689  14.963  40.915   6.948
 3930POPC   C4B52690  14.953  41.108   7.342
 3931POPC   NC352691  14.112  14.582   5.396
 3931POPC   PO452692  14.694  14.590   5.654
 3931POPC   GL152693  14.307  14.533   5.884
 3931POPC   GL252694  14.072  14.795   5.860
 3931POPC   C1A52695  14.281  14.420   6.319
 3931POPC   D2A52696  14.614  14.302   6.626
 3931POPC   C3A52697  14.549  14.438   7.052
 3931POPC   C4A52698  14.127  14.283   7.113
 3931POPC   C1B52699  14.117  14.920   6.308
 3931POPC   C2B52700  14.233  14.746   6.735
 3931POPC   C3B52701  14.178  14.811   7.178
 3931POPC   C4B52702  13.974  14.876   7.600
 3932POPC   NC352703  29.294  16.578   5.597
 3932POPC   PO452704  28.909  17.073   5.440
 3932POPC   GL152705  29.089  16.947   5.881
 3932POPC   GL252706  29.118  16.553   6.057
 3932POPC   C1A52707  29.397  16.932   6.225
 3932POPC   D2A52708  29.363  16.617   6.555
 3932POPC   C3A52709  29.367  16.831   6.930
 3932POPC   C4A52710  29.376  16.859   7.349
 3932POPC   C1B52711  28.902  16.810   6.373
 3932POPC   C2B52712  28.880  16.987   6.807
 3932POPC   C3B52713  28.863  16.879   7.241
 3932POPC   C4B52714  28.612  16.968   7.623
 3933POPC   NC352715  14.798  41.867   5.223
 3933POPC   PO452716  15.003  41.346   5.607
 3933POPC   GL152717  15.159  41.611   5.918
 3933POPC   GL252718  15.455  41.447   6.009
 3933POPC   C1A52719  15.053  41.634   6.379
 3933POPC   D2A52720  14.850  41.348   6.690
 3933POPC   C3A52721  14.830  41.546   7.116
 3933POPC   C4A52722  15.025  41.950   7.180
 3933POPC   C1B52723  15.506  41.840   6.223
 3933POPC   C2B52724  15.451  41.894   6.653
 3933POPC   C3B52725  15.276  41.574   6.873
 3933POPC   C4B52726  15.395  41.229   7.107
 3934POPC   NC352727  43.143  27.439   5.403
 3934POPC   PO452728  42.702  27.907   5.512
 3934POPC   GL152729  42.956  27.709   5.838
 3934POPC   GL252730  42.955  27.339   5.856
 3934POPC   C1A52731  43.133  27.729   6.286
 3934POPC   D2A52732  43.299  27.793   6.738
 3934POPC   C3A52733  43.048  27.909   7.088
 3934POPC   C4A52734  43.345  27.895   7.414
 3934POPC   C1B52735  42.727  27.411   6.222
 3934POPC   C2B52736  42.824  27.505   6.660
 3934POPC   C3B52737  43.029  27.406   7.041
 3934POPC   C4B52738  43.002  27.531   7.459
 3935POPC   NC352739  44.253  44.218   5.359
 3935POPC   PO452740  43.689  44.599   5.466
 3935POPC   GL152741  43.741  44.783   5.869
 3935POPC   GL252742  44.115  44.758   5.853
 3935POPC   C1A52743  43.729  44.826   6.339
 3935POPC   D2A52744  43.907  44.599   6.704
 3935POPC   C3A52745  43.758  44.626   7.107
 3935POPC   C4A52746  43.523  44.265   7.224
 3935POPC   C1B52747  44.255  44.688   6.284
 3935POPC   C2B52748  44.256  44.949   6.670
 3935POPC   C3B52749  44.233  44.934   7.091
 3935POPC   C4B52750  44.071  44.827   7.479
 3936POPC   NC352751  17.452  21.975   5.135
 3936POPC   PO452752  17.810  22.246   5.335
 3936POPC   GL152753  17.700  22.126   5.813
 3936POPC   GL252754  17.328  22.130   5.906
 3936POPC   C1A52755  17.624  22.066   6.314
 3936POPC   D2A52756  17.327  22.093   6.697
 3936POPC   C3A52757  17.507  21.988   7.103
 3936POPC   C4A52758  17.960  21.944   7.223
 3936POPC   C1B52759  17.241  22.411   6.284
 3936POPC   C2B52760  16.976  22.498   6.652
 3936POPC   C3B52761  16.963  22.364   7.077
 3936POPC   C4B52762  17.194  22.234   7.447
 3937POPC   NC352763  41.359  16.509   5.601
 3937POPC   PO452764  41.426  15.849   5.413
 3937POPC   GL152765  41.424  16.047   5.845
 3937POPC   GL252766  41.607  16.341   6.036
 3937POPC   C1A52767  41.417  15.938   6.285
 3937POPC   D2A52768  41.209  16.109   6.644
 3937POPC   C3A52769  41.432  16.152   7.016
 3937POPC   C4A52770  41.584  15.757   7.217
 3937POPC   C1B52771  41.655  16.332   6.523
 3937POPC   C2B52772  41.909  16.048   6.807
 3937POPC   C3B52773  42.045  15.958   7.236
 3937POPC   C4B52774  41.826  15.959   7.662
 3938POPC   NC352775  20.026  42.873   5.137
 3938POPC   PO452776  19.950  43.514   5.416
 3938POPC   GL152777  19.919  43.084   5.657
 3938POPC   GL252778  19.582  43.094   5.776
 3938POPC   C1A52779  19.912  42.874   6.120
 3938POPC   D2A52780  20.005  43.120   6.543
 3938POPC   C3A52781  19.921  42.964   6.983
 3938POPC   C4A52782  20.158  42.852   7.361
 3938POPC   C1B52783  19.791  43.366   6.126
 3938POPC   C2B52784  19.726  43.544   6.565
 3938POPC   C3B52785  19.916  43.500   6.959
 3938POPC   C4B52786  20.222  43.546   7.232
 3939POPC   NC352787   0.402  18.084   5.315
 3939POPC   PO452788   0.683  18.655   5.174
 3939POPC   GL152789   0.474  18.530   5.617
 3939POPC   GL252790   0.530  18.195   5.807
 3939POPC   C1A52791   0.287  18.562   6.076
 3939POPC   D2A52792   0.426  18.499   6.517
 3939POPC   C3A52793   0.316  18.230   6.862
 3939POPC   C4A52794   0.365  18.416   7.274
 3939POPC   C1B52795   0.171  18.015   6.080
 3939POPC   C2B52796   0.003  17.907   6.503
 3939POPC   C3B52797   0.009  17.811   6.958
 3939POPC   C4B52798   0.260  17.931   7.308
 3940POPC   NC352799   6.181  24.448   5.410
 3940POPC   PO452800   5.503  24.328   5.401
 3940POPC   GL152801   5.796  24.309   5.766
 3940POPC   GL252802   5.616  24.594   5.874
 3940POPC   C1A52803   6.034  24.261   6.208
 3940POPC   D2A52804   5.920  24.332   6.675
 3940POPC   C3A52805   6.064  24.211   7.119
 3940POPC   C4A52806   5.972  24.451   7.514
 3940POPC   C1B52807   5.604  24.534   6.309
 3940POPC   C2B52808   5.670  24.777   6.664
 3940POPC   C3B52809   5.758  24.699   7.089
 3940POPC   C4B52810   5.750  24.975   7.442
 3941POPC   NC352811  27.478  43.068   5.203
 3941POPC   PO452812  28.112  43.057   5.456
 3941POPC   GL152813  27.702  43.119   5.673
 3941POPC   GL252814  27.630  42.793   5.738
 3941POPC   C1A52815  27.441  43.124   6.085
 3941POPC   D2A52816  27.536  43.181   6.527
 3941POPC   C3A52817  27.267  43.336   6.867
 3941POPC   C4A52818  27.343  43.093   7.246
 3941POPC   C1B52819  27.917  42.948   6.120
 3941POPC   C2B52820  27.919  42.830   6.552
 3941POPC   C3B52821  27.674  42.866   6.911
 3941POPC   C4B52822  27.814  42.797   7.310
 3942POPC   NC352823  39.428   6.112   5.586
 3942POPC   PO452824  38.924   5.707   5.376
 3942POPC   GL152825  38.965   5.867   5.789
 3942POPC   GL252826  39.310   5.780   5.937
 3942POPC   C1A52827  38.949   6.079   6.200
 3942POPC   D2A52828  38.807   6.115   6.624
 3942POPC   C3A52829  39.010   6.161   7.026
 3942POPC   C4A52830  38.893   5.821   7.236
 3942POPC   C1B52831  39.147   5.572   6.276
 3942POPC   C2B52832  39.084   5.674   6.730
 3942POPC   C3B52833  39.368   5.726   7.070
 3942POPC   C4B52834  39.540   5.794   7.450
 3943POPC   NC352835   3.515  17.727   5.277
 3943POPC   PO452836   3.424  17.172   5.655
 3943POPC   GL152837   3.688  17.468   5.873
 3943POPC   GL252838   3.765  17.798   5.725
 3943POPC   C1A52839   3.769  17.435   6.319
 3943POPC   D2A52840   3.454  17.353   6.637
 3943POPC   C3A52841   3.536  17.497   7.032
 3943POPC   C4A52842   3.515  17.241   7.390
 3943POPC   C1B52843   4.052  17.818   6.111
 3943POPC   C2B52844   4.202  17.819   6.582
 3943POPC   C3B52845   3.931  17.820   6.984
 3943POPC   C4B52846   3.837  17.702   7.400
 3944POPC   NC352847  35.850   8.480   5.319
 3944POPC   PO452848  36.314   7.997   5.303
 3944POPC   GL152849  36.306   8.064   5.760
 3944POPC   GL252850  35.967   8.276   5.809
 3944POPC   C1A52851  36.300   8.239   6.192
 3944POPC   D2A52852  36.019   8.254   6.536
 3944POPC   C3A52853  36.191   8.214   6.940
 3944POPC   C4A52854  36.006   7.921   7.201
 3944POPC   C1B52855  35.827   8.568   6.169
 3944POPC   C2B52856  35.592   8.538   6.592
 3944POPC   C3B52857  35.734   8.387   7.026
 3944POPC   C4B52858  35.802   8.465   7.498
 3945POPC   NC352859  39.269  20.413   5.550
 3945POPC   PO452860  38.944  21.036   5.358
 3945POPC   GL152861  39.143  20.906   5.733
 3945POPC   GL252862  38.916  20.678   5.806
 3945POPC   C1A52863  39.331  20.878   6.146
 3945POPC   D2A52864  39.127  20.879   6.562
 3945POPC   C3A52865  39.269  20.921   6.968
 3945POPC   C4A52866  39.345  20.651   7.287
 3945POPC   C1B52867  38.956  20.545   6.221
 3945POPC   C2B52868  39.033  20.217   6.529
 3945POPC   C3B52869  39.076  20.443   6.888
 3945POPC   C4B52870  38.830  20.533   7.252
 3946POPC   NC352871  37.413  20.595   5.408
 3946POPC   PO452872  37.995  20.804   5.145
 3946POPC   GL152873  37.914  20.652   5.635
 3946POPC   GL252874  37.732  20.301   5.720
 3946POPC   C1A52875  37.936  20.566   6.125
 3946POPC   D2A52876  37.851  20.683   6.580
 3946POPC   C3A52877  37.909  20.667   7.034
 3946POPC   C4A52878  37.873  20.751   7.495
 3946POPC   C1B52879  37.429  20.254   6.077
 3946POPC   C2B52880  37.568  20.255   6.518
 3946POPC   C3B52881  37.544  20.310   6.944
 3946POPC   C4B52882  37.317  20.077   7.229
 3947POPC   NC352883  11.835  34.774   5.550
 3947POPC   PO452884  12.331  34.434   5.286
 3947POPC   GL152885  12.181  34.453   5.735
 3947POPC   GL252886  11.886  34.266   5.770
 3947POPC   C1A52887  11.987  34.650   6.148
 3947POPC   D2A52888  12.186  34.726   6.524
 3947POPC   C3A52889  11.949  34.722   6.878
 3947POPC   C4A52890  12.034  34.942   7.219
 3947POPC   C1B52891  12.040  34.149   6.156
 3947POPC   C2B52892  11.914  34.293   6.551
 3947POPC   C3B52893  12.115  34.249   6.925
 3947POPC   C4B52894  12.066  34.439   7.300
 3948POPC   NC352895  44.405  24.071   5.482
 3948POPC   PO452896  44.756  23.642   5.541
 3948POPC   GL152897  44.766  23.897   5.919
 3948POPC   GL252898  44.413  24.007   5.980
 3948POPC   C1A52899   0.041  23.759   6.296
 3948POPC   D2A52900  44.836  23.647   6.726
 3948POPC   C3A52901  44.619  23.964   6.965
 3948POPC   C4A52902  44.861  24.234   7.242
 3948POPC   C1B52903  44.168  23.879   6.317
 3948POPC   C2B52904  44.285  23.678   6.670
 3948POPC   C3B52905  44.391  23.507   7.053
 3948POPC   C4B52906  44.245  23.646   7.459
 3949POPC   NC352907  34.165   7.253   5.215
 3949POPC   PO452908  33.584   7.497   5.435
 3949POPC   GL152909  33.662   7.393   5.852
 3949POPC   GL252910  34.011   7.448   5.855
 3949POPC   C1A52911  33.809   7.321   6.288
 3949POPC   D2A52912  33.778   7.057   6.611
 3949POPC   C3A52913  33.832   7.267   7.031
 3949POPC   C4A52914  33.672   7.166   7.452
 3949POPC   C1B52915  34.113   7.719   6.223
 3949POPC   C2B52916  33.924   7.678   6.649
 3949POPC   C3B52917  34.094   7.721   7.070
 3949POPC   C4B52918  34.285   7.873   7.465
 3950POPC   NC352919  32.266   1.568   5.300
 3950POPC   PO452920  32.481   0.902   5.296
 3950POPC   GL152921  32.410   1.168   5.660
 3950POPC   GL252922  32.197   1.387   5.770
 3950POPC   C1A52923  32.439   1.136   6.151
 3950POPC   D2A52924  32.240   1.074   6.589
 3950POPC   C3A52925  32.446   1.219   6.944
 3950POPC   C4A52926  32.516   1.118   7.373
 3950POPC   C1B52927  32.267   1.619   6.143
 3950POPC   C2B52928  32.220   1.591   6.571
 3950POPC   C3B52929  31.976   1.526   6.894
 3950POPC   C4B52930  31.921   1.692   7.271
 3951POPC   NC352931  28.794  22.746   5.319
 3951POPC   PO452932  29.230  23.213   5.424
 3951POPC   GL152933  29.053  22.923   5.753
 3951POPC   GL252934  29.129  22.597   5.818
 3951POPC   C1A52935  28.993  22.902   6.207
 3951POPC   D2A52936  29.177  22.854   6.613
 3951POPC   C3A52937  28.965  22.742   6.957
 3951POPC   C4A52938  28.825  22.932   7.302
 3951POPC   C1B52939  29.245  22.435   6.218
 3951POPC   C2B52940  29.506  22.416   6.583
 3951POPC   C3B52941  29.353  22.378   6.998
 3951POPC   C4B52942  29.251  22.612   7.360
 3952POPC   NC352943  37.311  22.268   5.070
 3952POPC   PO452944  37.823  21.973   5.423
 3952POPC   GL152945  37.770  22.159   5.824
 3952POPC   GL252946  37.495  22.367   5.895
 3952POPC   C1A52947  37.584  21.947   6.193
 3952POPC   D2A52948  37.702  21.809   6.600
 3952POPC   C3A52949  37.511  21.948   6.980
 3952POPC   C4A52950  37.509  22.290   7.252
 3952POPC   C1B52951  37.721  22.421   6.315
 3952POPC   C2B52952  37.672  22.489   6.785
 3952POPC   C3B52953  37.825  22.679   7.197
 3952POPC   C4B52954  37.617  22.664   7.616
 3953POPC   NC352955  16.768  26.326   5.611
 3953POPC   PO452956  16.890  26.903   5.323
 3953POPC   GL152957  16.896  26.803   5.803
 3953POPC   GL252958  17.151  27.071   5.882
 3953POPC   C1A52959  16.734  26.541   6.226
 3953POPC   D2A52960  16.549  26.342   6.628
 3953POPC   C3A52961  16.631  26.545   7.027
 3953POPC   C4A52962  16.718  26.882   7.307
 3953POPC   C1B52963  17.069  26.919   6.312
 3953POPC   C2B52964  16.918  26.908   6.770
 3953POPC   C3B52965  17.169  27.009   7.136
 3953POPC   C4B52966  17.132  26.836   7.607
 3954POPC   NC352967  41.605  27.827   5.058
 3954POPC   PO452968  41.151  27.496   5.527
 3954POPC   GL152969  41.372  27.817   5.752
 3954POPC   GL252970  41.635  27.566   5.788
 3954POPC   C1A52971  41.596  27.944   6.158
 3954POPC   D2A52972  41.562  28.072   6.579
 3954POPC   C3A52973  41.718  27.811   6.899
 3954POPC   C4A52974  41.463  27.757   7.239
 3954POPC   C1B52975  41.361  27.492   6.158
 3954POPC   C2B52976  41.541  27.462   6.531
 3954POPC   C3B52977  41.424  27.363   6.920
 3954POPC   C4B52978  41.762  27.334   7.207
 3955POPC   NC352979   5.495  10.497   5.540
 3955POPC   PO452980   6.080  10.296   5.470
 3955POPC   GL152981   5.904  10.559   5.861
 3955POPC   GL252982   5.569  10.768   5.971
 3955POPC   C1A52983   5.916  10.360   6.280
 3955POPC   D2A52984   5.766  10.183   6.685
 3955POPC   C3A52985   6.002  10.356   7.060
 3955POPC   C4A52986   6.195  10.629   7.386
 3955POPC   C1B52987   5.486  10.571   6.387
 3955POPC   C2B52988   5.753  10.690   6.735
 3955POPC   C3B52989   5.707  10.909   7.107
 3955POPC   C4B52990   5.564  10.557   7.285
 3956POPC   NC352991  20.429  26.674   5.492
 3956POPC   PO452992  20.839  27.077   5.273
 3956POPC   GL152993  20.805  26.928   5.723
 3956POPC   GL252994  20.851  27.224   5.811
 3956POPC   C1A52995  20.608  26.766   6.144
 3956POPC   D2A52996  20.267  26.646   6.478
 3956POPC   C3A52997  20.343  26.781   6.907
 3956POPC   C4A52998  20.517  26.649   7.300
 3956POPC   C1B52999  20.715  27.275   6.224
 3956POPC   C2B53000  20.709  27.024   6.585
 3956POPC   C3B53001  20.862  26.780   6.917
 3956POPC   C4B53002  20.812  27.041   7.262
 3957POPC   NC353003  31.160  39.907   5.491
 3957POPC   PO453004  31.677  40.319   5.589
 3957POPC   GL153005  31.643  40.039   5.893
 3957POPC   GL253006  31.438  39.769   5.915
 3957POPC   C1A53007  31.735  39.978   6.317
 3957POPC   D2A53008  31.784  40.285   6.639
 3957POPC   C3A53009  31.657  40.019   6.990
 3957POPC   C4A53010  31.777  39.983   7.423
 3957POPC   C1B53011  31.721  39.490   6.188
 3957POPC   C2B53012  31.784  39.547   6.652
 3957POPC   C3B53013  31.439  39.546   6.981
 3957POPC   C4B53014  31.488  39.562   7.427
 3958POPC   NC353015  34.258  33.417   5.465
 3958POPC   PO453016  34.544  32.712   5.451
 3958POPC   GL153017  34.503  33.052   5.720
 3958POPC   GL253018  34.785  33.278   5.811
 3958POPC   C1A53019  34.398  33.085   6.122
 3958POPC   D2A53020  34.544  33.164   6.526
 3958POPC   C3A53021  34.336  32.971   6.823
 3958POPC   C4A53022  34.608  32.908   7.131
 3958POPC   C1B53023  34.791  33.452   6.185
 3958POPC   C2B53024  34.955  33.500   6.595
 3958POPC   C3B53025  34.792  33.348   6.945
 3958POPC   C4B53026  34.367  33.384   7.132
 3959POPC   NC353027  13.010  11.036   5.402
 3959POPC   PO453028  12.705  11.615   5.414
 3959POPC   GL153029  12.910  11.475   5.839
 3959POPC   GL253030  12.866  11.138   5.918
 3959POPC   C1A53031  13.150  11.492   6.248
 3959POPC   D2A53032  13.184  11.695   6.670
 3959POPC   C3A53033  13.097  11.428   7.038
 3959POPC   C4A53034  13.087  10.992   7.264
 3959POPC   C1B53035  13.017  10.986   6.326
 3959POPC   C2B53036  12.918  11.025   6.776
 3959POPC   C3B53037  12.627  11.202   7.102
 3959POPC   C4B53038  12.358  11.469   7.388
 3960POPC   NC353039  11.649  12.352   5.436
 3960POPC   PO453040  10.940  12.160   5.411
 3960POPC   GL153041  11.253  12.043   5.720
 3960POPC   GL253042  10.987  11.996   5.963
 3960POPC   C1A53043  11.513  12.058   6.100
 3960POPC   D2A53044  11.510  12.246   6.519
 3960POPC   C3A53045  11.599  12.055   6.921
 3960POPC   C4A53046  11.340  11.885   7.273
 3960POPC   C1B53047  10.935  12.420   6.099
 3960POPC   C2B53048  11.058  12.597   6.480
 3960POPC   C3B53049  11.147  12.402   6.886
 3960POPC   C4B53050  10.976  12.535   7.274
 3961POPC   NC353051   6.391  13.894   5.315
 3961POPC   PO453052   6.215  13.251   5.586
 3961POPC   GL153053   6.594  13.522   5.772
 3961POPC   GL253054   6.909  13.301   5.831
 3961POPC   C1A53055   6.630  13.905   6.105
 3961POPC   D2A53056   6.759  13.866   6.543
 3961POPC   C3A53057   6.542  13.775   6.956
 3961POPC   C4A53058   6.428  13.937   7.394
 3961POPC   C1B53059   6.812  13.435   6.254
 3961POPC   C2B53060   6.776  13.370   6.711
 3961POPC   C3B53061   6.808  13.268   7.153
 3961POPC   C4B53062   6.803  13.267   7.629
 3962POPC   NC353063  32.231   8.708   5.597
 3962POPC   PO453064  32.405   9.366   5.390
 3962POPC   GL153065  32.356   9.164   5.834
 3962POPC   GL253066  32.037   9.208   6.022
 3962POPC   C1A53067  32.448   9.050   6.294
 3962POPC   D2A53068  32.184   9.002   6.681
 3962POPC   C3A53069  32.302   9.065   7.103
 3962POPC   C4A53070  32.343   8.969   7.537
 3962POPC   C1B53071  31.976   8.835   6.231
 3962POPC   C2B53072  31.748   8.735   6.602
 3962POPC   C3B53073  31.882   8.744   7.035
 3962POPC   C4B53074  31.894   8.781   7.475
 3963POPC   NC353075   0.658   1.590   5.532
 3963POPC   PO453076   0.632   0.890   5.510
 3963POPC   GL153077   0.641   1.185   5.873
 3963POPC   GL253078   0.315   1.398   5.873
 3963POPC   C1A53079   0.623   1.128   6.332
 3963POPC   D2A53080   0.838   1.184   6.730
 3963POPC   C3A53081   0.596   1.229   7.096
 3963POPC   C4A53082   0.655   1.398   7.490
 3963POPC   C1B53083   0.073   1.593   6.218
 3963POPC   C2B53084  44.885   1.445   6.618
 3963POPC   C3B53085   0.111   1.443   6.997
 3963POPC   C4B53086   0.300   1.675   7.274
 3964POPC   NC353087  19.794  27.891   5.343
 3964POPC   PO453088  19.950  27.323   5.150
 3964POPC   GL153089  19.889  27.430   5.634
 3964POPC   GL253090  19.573  27.610   5.726
 3964POPC   C1A53091  19.889  27.481   6.107
 3964POPC   D2A53092  19.892  27.827   6.431
 3964POPC   C3A53093  20.005  27.661   6.811
 3964POPC   C4A53094  19.999  27.554   7.252
 3964POPC   C1B53095  19.457  27.816   6.140
 3964POPC   C2B53096  19.407  27.674   6.593
 3964POPC   C3B53097  19.528  27.692   7.043
 3964POPC   C4B53098  19.703  27.931   7.398
 3965POPC   NC353099  14.388  33.232   5.052
 3965POPC   PO453100  14.514  32.652   5.425
 3965POPC   GL153101  14.346  32.902   5.771
 3965POPC   GL253102  14.043  32.792   5.931
 3965POPC   C1A53103  14.446  32.987   6.211
 3965POPC   D2A53104  14.508  32.818   6.626
 3965POPC   C3A53105  14.484  33.064   7.004
 3965POPC   C4A53106  14.619  32.894   7.408
 3965POPC   C1B53107  13.902  32.819   6.360
 3965POPC   C2B53108  13.977  32.762   6.816
 3965POPC   C3B53109  14.081  32.824   7.246
 3965POPC   C4B53110  13.946  32.878   7.709
 3966POPC   NC353111   2.559  17.883   5.526
 3966POPC   PO453112   3.080  17.801   5.135
 3966POPC   GL153113   2.956  17.547   5.626
 3966POPC   GL253114   2.988  17.219   5.893
 3966POPC   C1A53115   2.763  17.594   6.104
 3966POPC   D2A53116   2.882  17.300   6.482
 3966POPC   C3A53117   2.642  17.377   6.871
 3966POPC   C4A53118   2.599  17.655   7.212
 3966POPC   C1B53119   3.258  17.501   6.179
 3966POPC   C2B53120   3.178  17.805   6.510
 3966POPC   C3B53121   3.053  17.797   6.949
 3966POPC   C4B53122   3.066  17.462   7.242
 3967POPC   NC353123  33.357  40.708   5.518
 3967POPC   PO453124  32.828  41.162   5.344
 3967POPC   GL153125  32.892  40.909   5.707
 3967POPC   GL253126  33.118  41.165   5.812
 3967POPC   C1A53127  33.024  40.765   6.135
 3967POPC   D2A53128  32.862  40.738   6.558
 3967POPC   C3A53129  33.037  40.830   6.962
 3967POPC   C4A53130  33.181  40.577   7.287
 3967POPC   C1B53131  33.413  41.105   6.157
 3967POPC   C2B53132  33.428  40.973   6.575
 3967POPC   C3B53133  33.364  41.233   6.922
 3967POPC   C4B53134  33.379  41.099   7.304
 3968POPC   NC353135  35.035  23.015   5.533
 3968POPC   PO453136  35.684  22.832   5.436
 3968POPC   GL153137  35.445  22.952   5.835
 3968POPC   GL253138  35.501  22.692   6.049
 3968POPC   C1A53139  35.150  23.051   6.216
 3968POPC   D2A53140  35.092  23.271   6.652
 3968POPC   C3A53141  35.129  23.018   7.059
 3968POPC   C4A53142  35.014  22.568   7.259
 3968POPC   C1B53143  35.658  23.035   6.357
 3968POPC   C2B53144  35.590  22.987   6.807
 3968POPC   C3B53145  35.478  22.652   7.074
 3968POPC   C4B53146  35.652  22.547   7.452
 3969POPC   NC353147  28.837  23.527   5.504
 3969POPC   PO453148  28.293  23.979   5.186
 3969POPC   GL153149  28.309  23.917   5.697
 3969POPC   GL253150  28.376  23.549   5.772
 3969POPC   C1A53151  28.221  23.832   6.195
 3969POPC   D2A53152  28.380  23.562   6.587
 3969POPC   C3A53153  28.354  23.773   7.006
 3969POPC   C4A53154  28.564  23.942   7.353
 3969POPC   C1B53155  28.648  23.541   6.136
 3969POPC   C2B53156  28.824  23.309   6.454
 3969POPC   C3B53157  28.862  23.241   6.868
 3969POPC   C4B53158  28.676  23.429   7.178
 3970POPC   NC353159   6.288  17.120   5.344
 3970POPC   PO453160   6.057  16.515   5.398
 3970POPC   GL153161   6.066  16.812   5.756
 3970POPC   GL253162   5.859  16.564   5.884
 3970POPC   C1A53163   5.897  17.002   6.138
 3970POPC   D2A53164   5.740  17.024   6.550
 3970POPC   C3A53165   5.999  16.855   6.881
 3970POPC   C4A53166   5.922  16.870   7.285
 3970POPC   C1B53167   6.051  16.530   6.248
 3970POPC   C2B53168   5.818  16.487   6.592
 3970POPC   C3B53169   5.754  16.411   6.986
 3970POPC   C4B53170   6.090  16.375   7.226
 3971POPC   NC353171  33.162  35.551   5.113
 3971POPC   PO453172  32.858  35.451   5.668
 3971POPC   GL153173  33.030  35.490   5.991
 3971POPC   GL253174  33.337  35.652   5.901
 3971POPC   C1A53175  33.272  35.269   6.263
 3971POPC   D2A53176  33.133  35.047   6.620
 3971POPC   C3A53177  33.184  35.154   7.039
 3971POPC   C4A53178  32.866  35.205   7.356
 3971POPC   C1B53179  33.247  35.799   6.308
 3971POPC   C2B53180  33.256  35.570   6.701
 3971POPC   C3B53181  33.034  35.639   7.083
 3971POPC   C4B53182  33.176  35.713   7.478
 3972POPC   NC353183   8.677   6.437   5.471
 3972POPC   PO453184   8.582   7.035   5.390
 3972POPC   GL153185   8.838   6.818   5.769
 3972POPC   GL253186   9.171   6.621   5.716
 3972POPC   C1A53187   8.905   6.494   6.132
 3972POPC   D2A53188   9.141   6.419   6.538
 3972POPC   C3A53189   9.038   6.672   6.914
 3972POPC   C4A53190   8.771   6.619   7.276
 3972POPC   C1B53191   9.372   6.706   6.153
 3972POPC   C2B53192   9.478   6.799   6.623
 3972POPC   C3B53193   9.539   6.650   7.055
 3972POPC   C4B53194   9.271   6.485   7.397
 3973POPC   NC353195  24.752  30.922   5.385
 3973POPC   PO453196  24.462  30.388   5.497
 3973POPC   GL153197  24.564  30.663   5.837
 3973POPC   GL253198  24.486  31.007   5.799
 3973POPC   C1A53199  24.439  30.647   6.271
 3973POPC   D2A53200  24.238  30.562   6.675
 3973POPC   C3A53201  24.491  30.632   7.049
 3973POPC   C4A53202  24.372  30.550   7.464
 3973POPC   C1B53203  24.309  31.135   6.146
 3973POPC   C2B53204  24.311  31.045   6.560
 3973POPC   C3B53205  24.226  31.052   6.940
 3973POPC   C4B53206  24.417  31.082   7.341
 3974POPC   NC353207  28.560  19.302   5.329
 3974POPC   PO453208  28.677  19.933   5.465
 3974POPC   GL153209  28.700  19.905   5.894
 3974POPC   GL253210  28.677  20.216   5.984
 3974POPC   C1A53211  28.473  19.825   6.297
 3974POPC   D2A53212  28.102  19.766   6.613
 3974POPC   C3A53213  28.188  19.880   7.065
 3974POPC   C4A53214  28.399  19.771   7.463
 3974POPC   C1B53215  28.906  20.201   6.356
 3974POPC   C2B53216  28.922  20.145   6.797
 3974POPC   C3B53217  28.804  19.895   7.170
 3974POPC   C4B53218  28.898  19.685   7.583
 3975POPC   NC353219  26.396  13.994   5.569
 3975POPC   PO453220  26.861  14.389   5.255
 3975POPC   GL153221  26.795  14.484   5.722
 3975POPC   GL253222  26.764  14.152   5.906
 3975POPC   C1A53223  26.598  14.544   6.187
 3975POPC   D2A53224  26.392  14.410   6.595
 3975POPC   C3A53225  26.457  14.580   6.999
 3975POPC   C4A53226  26.822  14.517   7.200
 3975POPC   C1B53227  26.747  14.079   6.378
 3975POPC   C2B53228  26.542  13.926   6.780
 3975POPC   C3B53229  26.620  14.037   7.220
 3975POPC   C4B53230  26.550  13.970   7.717
 3976POPC   NC353231  42.086  23.077   5.653
 3976POPC   PO453232  42.711  22.833   5.538
 3976POPC   GL153233  42.661  22.637   5.918
 3976POPC   GL253234  42.280  22.678   5.938
 3976POPC   C1A53235  42.562  22.753   6.350
 3976POPC   D2A53236  42.476  23.145   6.568
 3976POPC   C3A53237  42.428  23.005   6.995
 3976POPC   C4A53238  42.277  22.651   7.222
 3976POPC   C1B53239  42.065  22.854   6.271
 3976POPC   C2B53240  42.030  22.828   6.691
 3976POPC   C3B53241  41.900  23.091   6.997
 3976POPC   C4B53242  42.014  23.041   7.391
 3977POPC   NC353243   4.890   0.831   5.525
 3977POPC   PO453244   5.313   1.454   5.506
 3977POPC   GL153245   5.248   1.130   5.804
 3977POPC   GL253246   4.923   1.219   5.896
 3977POPC   C1A53247   5.185   0.972   6.255
 3977POPC   D2A53248   5.055   1.277   6.547
 3977POPC   C3A53249   5.125   1.162   6.959
 3977POPC   C4A53250   5.339   1.368   7.298
 3977POPC   C1B53251   4.683   1.055   6.230
 3977POPC   C2B53252   4.780   0.855   6.630
 3977POPC   C3B53253   4.626   1.158   6.912
 3977POPC   C4B53254   4.776   1.202   7.310
 3978POPC   NC353255  43.920  28.722   5.497
 3978POPC   PO453256  43.937  28.151   5.140
 3978POPC   GL153257  43.869  28.159   5.652
 3978POPC   GL253258  43.551  28.279   5.756
 3978POPC   C1A53259  43.828  28.138   6.153
 3978POPC   D2A53260  43.730  28.311   6.567
 3978POPC   C3A53261  43.949  28.279   6.976
 3978POPC   C4A53262  44.112  28.610   7.242
 3978POPC   C1B53263  43.548  28.581   6.154
 3978POPC   C2B53264  43.741  28.808   6.514
 3978POPC   C3B53265  43.678  28.697   6.940
 3978POPC   C4B53266  43.537  28.728   7.359
 3979POPC   NC353267  40.472   4.181   5.454
 3979POPC   PO453268  41.136   4.352   5.452
 3979POPC   GL153269  40.884   4.322   5.781
 3979POPC   GL253270  41.084   4.136   6.039
 3979POPC   C1A53271  40.854   4.584   6.135
 3979POPC   D2A53272  40.804   4.426   6.566
 3979POPC   C3A53273  40.781   4.643   6.913
 3979POPC   C4A53274  41.109   4.644   7.238
 3979POPC   C1B53275  40.667   4.075   6.190
 3979POPC   C2B53276  40.544   4.011   6.641
 3979POPC   C3B53277  40.768   4.142   7.054
 3979POPC   C4B53278  41.152   3.921   7.264
 3980POPC   NC353279  29.694   8.625   5.462
 3980POPC   PO453280  29.889   9.250   5.498
 3980POPC   GL153281  29.770   8.995   5.838
 3980POPC   GL253282  30.008   8.773   5.866
 3980POPC   C1A53283  29.759   8.956   6.289
 3980POPC   D2A53284  29.625   8.956   6.694
 3980POPC   C3A53285  29.889   9.106   7.008
 3980POPC   C4A53286  29.698   9.392   7.315
 3980POPC   C1B53287  30.166   8.640   6.247
 3980POPC   C2B53288  30.053   8.713   6.677
 3980POPC   C3B53289  30.160   8.581   7.072
 3980POPC   C4B53290  30.063   8.671   7.520
 3981POPC   NC353291   1.664   2.751   5.600
 3981POPC   PO453292   1.071   2.832   5.260
 3981POPC   GL153293   1.180   2.909   5.688
 3981POPC   GL253294   1.048   2.606   5.795
 3981POPC   C1A53295   1.275   2.969   6.140
 3981POPC   D2A53296   1.066   2.999   6.547
 3981POPC   C3A53297   1.309   3.174   6.875
 3981POPC   C4A53298   1.249   2.995   7.264
 3981POPC   C1B53299   1.020   2.323   6.140
 3981POPC   C2B53300   1.164   2.316   6.573
 3981POPC   C3B53301   1.210   2.613   6.893
 3981POPC   C4B53302   1.349   2.505   7.289
 3982POPC   NC353303  23.158  24.105   5.537
 3982POPC   PO453304  22.827  24.738   5.477
 3982POPC   GL153305  23.109  24.616   5.775
 3982POPC   GL253306  22.866  24.362   5.874
 3982POPC   C1A53307  23.091  24.657   6.216
 3982POPC   D2A53308  22.775  24.501   6.494
 3982POPC   C3A53309  22.794  24.688   6.870
 3982POPC   C4A53310  23.088  24.857   7.121
 3982POPC   C1B53311  22.988  24.114   6.217
 3982POPC   C2B53312  22.729  23.999   6.560
 3982POPC   C3B53313  22.955  24.193   6.884
 3982POPC   C4B53314  22.994  24.363   7.287
 3983POPC   NC353315   6.506  25.351   5.128
 3983POPC   PO453316   6.672  25.914   5.224
 3983POPC   GL153317   6.641  25.988   5.699
 3983POPC   GL253318   6.293  26.001   5.811
 3983POPC   C1A53319   6.660  25.821   6.161
 3983POPC   D2A53320   6.377  25.747   6.555
 3983POPC   C3A53321   6.512  25.801   7.004
 3983POPC   C4A53322   6.825  26.074   7.197
 3983POPC   C1B53323   6.294  26.177   6.254
 3983POPC   C2B53324   6.352  26.256   6.720
 3983POPC   C3B53325   6.334  26.249   7.179
 3983POPC   C4B53326   6.139  25.905   7.378
 3984POPC   NC353327  44.561   7.096   5.372
 3984POPC   PO453328  44.803   6.470   5.262
 3984POPC   GL153329  44.768   6.677   5.707
 3984POPC   GL253330   0.031   6.429   5.808
 3984POPC   C1A53331  44.575   6.727   6.191
 3984POPC   D2A53332  44.576   6.950   6.660
 3984POPC   C3A53333  44.611   6.767   7.099
 3984POPC   C4A53334  44.587   6.343   7.308
 3984POPC   C1B53335  44.930   6.363   6.225
 3984POPC   C2B53336  44.710   6.452   6.611
 3984POPC   C3B53337  44.957   6.415   6.949
 3984POPC   C4B53338   0.079   6.590   7.307
 3985POPC   NC353339  30.669  10.935   5.175
 3985POPC   PO453340  31.006  10.270   5.301
 3985POPC   GL153341  30.908  10.386   5.748
 3985POPC   GL253342  31.194  10.316   5.936
 3985POPC   C1A53343  30.800  10.640   6.152
 3985POPC   D2A53344  30.541  10.910   6.462
 3985POPC   C3A53345  30.528  10.746   6.900
 3985POPC   C4A53346  30.575  10.360   7.142
 3985POPC   C1B53347  31.166  10.343   6.378
 3985POPC   C2B53348  31.023  10.485   6.794
 3985POPC   C3B53349  31.196  10.495   7.223
 3985POPC   C4B53350  31.302  10.627   7.661
 3986POPC   NC353351  40.167  20.269   5.348
 3986POPC   PO453352  39.818  19.711   5.285
 3986POPC   GL153353  39.847  19.806   5.727
 3986POPC   GL253354  40.065  20.069   5.802
 3986POPC   C1A53355  39.945  19.659   6.158
 3986POPC   D2A53356  40.091  19.699   6.560
 3986POPC   C3A53357  39.861  19.725   6.948
 3986POPC   C4A53358  40.034  19.842   7.329
 3986POPC   C1B53359  39.961  20.168   6.253
 3986POPC   C2B53360  39.987  20.198   6.717
 3986POPC   C3B53361  39.673  20.216   7.057
 3986POPC   C4B53362  39.633  20.271   7.488
 3987POPC   NC353363  27.941  24.216   5.470
 3987POPC   PO453364  27.519  24.700   5.293
 3987POPC   GL153365  27.673  24.579   5.718
 3987POPC   GL253366  27.425  24.425   5.830
 3987POPC   C1A53367  27.784  24.398   6.188
 3987POPC   D2A53368  27.931  24.400   6.628
 3987POPC   C3A53369  27.907  24.677   6.978
 3987POPC   C4A53370  27.925  24.497   7.373
 3987POPC   C1B53371  27.363  24.118   6.178
 3987POPC   C2B53372  27.591  24.039   6.569
 3987POPC   C3B53373  27.643  24.216   7.006
 3987POPC   C4B53374  27.569  24.153   7.442
 3988POPC   NC353375   9.621  35.933   5.487
 3988POPC   PO453376  10.133  36.267   5.558
 3988POPC   GL153377   9.908  36.161   5.884
 3988POPC   GL253378   9.572  36.267   5.852
 3988POPC   C1A53379   9.860  36.329   6.295
 3988POPC   D2A53380  10.136  36.350   6.625
 3988POPC   C3A53381  10.026  36.121   6.954
 3988POPC   C4A53382   9.867  36.313   7.308
 3988POPC   C1B53383   9.570  35.921   6.166
 3988POPC   C2B53384   9.708  35.910   6.603
 3988POPC   C3B53385   9.560  35.947   7.022
 3988POPC   C4B53386   9.675  35.864   7.428
 3989POPC   NC353387  34.176  19.699   5.452
 3989POPC   PO453388  33.595  20.010   5.443
 3989POPC   GL153389  33.750  19.805   5.786
 3989POPC   GL253390  33.403  19.785   5.887
 3989POPC   C1A53391  34.000  19.859   6.178
 3989POPC   D2A53392  33.860  19.721   6.610
 3989POPC   C3A53393  34.095  19.678   6.958
 3989POPC   C4A53394  34.202  19.977   7.252
 3989POPC   C1B53395  33.494  19.857   6.276
 3989POPC   C2B53396  33.356  19.634   6.615
 3989POPC   C3B53397  33.459  19.852   6.952
 3989POPC   C4B53398  33.719  19.885   7.249
 3990POPC   NC353399  44.293   8.425   5.088
 3990POPC   PO453400  44.065   7.919   5.377
 3990POPC   GL153401  43.920   7.842   5.773
 3990POPC   GL253402  44.207   7.830   5.940
 3990POPC   C1A53403  43.715   7.906   6.165
 3990POPC   D2A53404  43.681   7.726   6.588
 3990POPC   C3A53405  43.833   7.944   6.969
 3990POPC   C4A53406  43.778   8.361   7.165
 3990POPC   C1B53407  44.186   7.824   6.385
 3990POPC   C2B53408  44.163   8.168   6.663
 3990POPC   C3B53409  44.276   8.235   7.087
 3990POPC   C4B53410  44.442   8.261   7.504
 3991POPC   NC353411  40.331  36.535   5.716
 3991POPC   PO453412  39.935  36.040   5.438
 3991POPC   GL153413  40.117  36.056   5.813
 3991POPC   GL253414  39.941  36.284   5.935
 3991POPC   C1A53415  40.160  35.944   6.254
 3991POPC   D2A53416  40.177  35.657   6.606
 3991POPC   C3A53417  40.212  35.905   6.973
 3991POPC   C4A53418  40.180  36.254   7.223
 3991POPC   C1B53419  39.704  36.183   6.277
 3991POPC   C2B53420  39.763  36.020   6.667
 3991POPC   C3B53421  39.715  36.192   7.050
 3991POPC   C4B53422  39.786  36.613   7.177
 3992POPC   NC353423  13.876  36.116   5.362
 3992POPC   PO453424  13.244  36.055   5.642
 3992POPC   GL153425  13.620  35.976   5.805
 3992POPC   GL253426  13.650  36.331   5.838
 3992POPC   C1A53427  13.711  35.765   6.207
 3992POPC   D2A53428  13.848  35.848   6.621
 3992POPC   C3A53429  13.514  36.043   6.845
 3992POPC   C4A53430  13.491  36.022   7.281
 3992POPC   C1B53431  13.750  36.276   6.291
 3992POPC   C2B53432  13.917  36.362   6.727
 3992POPC   C3B53433  13.742  36.437   7.137
 3992POPC   C4B53434  13.379  36.603   7.322
 3993POPC   NC353435  28.786   1.091   5.448
 3993POPC   PO453436  29.499   1.033   5.400
 3993POPC   GL153437  29.443   1.194   5.817
 3993POPC   GL253438  29.206   1.495   5.819
 3993POPC   C1A53439  29.471   1.207   6.288
 3993POPC   D2A53440  29.288   0.976   6.606
 3993POPC   C3A53441  29.215   1.062   7.038
 3993POPC   C4A53442  28.763   1.051   7.140
 3993POPC   C1B53443  29.205   1.654   6.266
 3993POPC   C2B53444  29.256   1.529   6.716
 3993POPC   C3B53445  29.009   1.525   7.109
 3993POPC   C4B53446  29.140   1.478   7.570
 3994POPC   NC353447  20.302  15.698   5.446
 3994POPC   PO453448  20.906  15.887   5.721
 3994POPC   GL153449  20.476  15.988   5.983
 3994POPC   GL253450  20.256  16.327   5.944
 3994POPC   C1A53451  20.455  15.992   6.415
 3994POPC   D2A53452  20.801  15.827   6.636
 3994POPC   C3A53453  20.796  16.117   6.964
 3994POPC   C4A53454  20.528  15.891   7.200
 3994POPC   C1B53455  19.995  16.202   6.317
 3994POPC   C2B53456  20.078  16.147   6.797
 3994POPC   C3B53457  20.310  16.333   7.180
 3994POPC   C4B53458  20.271  16.339   7.654
 3995POPC   NC353459  25.636  25.113   5.337
 3995POPC   PO453460  24.971  24.982   5.426
 3995POPC   GL153461  25.251  25.216   5.726
 3995POPC   GL253462  25.531  25.015   5.805
 3995POPC   C1A53463  25.150  25.247   6.194
 3995POPC   D2A53464  25.315  25.085   6.597
 3995POPC   C3A53465  25.178  25.280   6.954
 3995POPC   C4A53466  25.076  25.463   7.335
 3995POPC   C1B53467  25.637  25.298   6.124
 3995POPC   C2B53468  25.770  25.356   6.517
 3995POPC   C3B53469  25.752  25.148   6.904
 3995POPC   C4B53470  25.535  25.211   7.312
 3996POPC   NC353471   7.121  10.795   5.350
 3996POPC   PO453472   7.328  10.212   5.366
 3996POPC   GL153473   7.333  10.413   5.757
 3996POPC   GL253474   7.610  10.225   5.839
 3996POPC   C1A53475   7.477  10.626   6.163
 3996POPC   D2A53476   7.730  10.700   6.556
 3996POPC   C3A53477   7.439  10.686   6.888
 3996POPC   C4A53478   7.432  10.609   7.293
 3996POPC   C1B53479   7.406  10.115   6.245
 3996POPC   C2B53480   7.424  10.200   6.715
 3996POPC   C3B53481   7.587  10.074   7.139
 3996POPC   C4B53482   7.738   9.798   7.523
 3997POPC   NC353483  19.960  25.001   5.596
 3997POPC   PO453484  19.741  25.711   5.511
 3997POPC   GL153485  19.681  25.422   5.860
 3997POPC   GL253486  19.645  25.069   5.980
 3997POPC   C1A53487  19.877  25.395   6.255
 3997POPC   D2A53488  19.833  25.160   6.618
 3997POPC   C3A53489  19.848  25.464   6.937
 3997POPC   C4A53490  19.965  25.397   7.323
 3997POPC   C1B53491  19.402  24.857   6.286
 3997POPC   C2B53492  19.432  24.825   6.738
 3997POPC   C3B53493  19.559  24.913   7.164
 3997POPC   C4B53494  19.341  25.046   7.571
 3998POPC   NC353495  18.086  38.961   5.323
 3998POPC   PO453496  18.511  39.514   5.441
 3998POPC   GL153497  18.469  39.322   5.832
 3998POPC   GL253498  18.341  38.990   5.778
 3998POPC   C1A53499  18.269  39.227   6.245
 3998POPC   D2A53500  18.213  39.190   6.699
 3998POPC   C3A53501  18.470  39.061   7.054
 3998POPC   C4A53502  18.847  39.021   7.301
 3998POPC   C1B53503  17.929  38.901   6.013
 3998POPC   C2B53504  17.892  38.867   6.482
 3998POPC   C3B53505  17.932  38.843   6.966
 3998POPC   C4B53506  18.173  38.794   7.387
 3999POPC   NC353507  14.090  36.799   5.321
 3999POPC   PO453508  14.716  37.028   5.308
 3999POPC   GL153509  14.476  36.934   5.645
 3999POPC   GL253510  14.237  37.148   5.761
 3999POPC   C1A53511  14.550  36.843   6.053
 3999POPC   D2A53512  14.658  36.695   6.413
 3999POPC   C3A53513  14.441  36.840   6.778
 3999POPC   C4A53514  14.645  36.676   7.118
 3999POPC   C1B53515  14.390  37.333   6.120
 3999POPC   C2B53516  14.237  37.285   6.516
 3999POPC   C3B53517  14.421  37.372   6.893
 3999POPC   C4B53518  14.445  37.127   7.235
 4000POPC   NC353519  16.304  11.404   5.382
 4000POPC   PO453520  15.920  10.928   5.493
 4000POPC   GL153521  16.074  11.177   5.849
 4000POPC   GL253522  16.006  11.548   5.782
 4000POPC   C1A53523  16.011  11.091   6.309
 4000POPC   D2A53524  16.025  10.913   6.702
 4000POPC   C3A53525  15.928  11.215   7.042
 4000POPC   C4A53526  15.680  11.556   7.058
 4000POPC   C1B53527  16.160  11.567   6.202
 4000POPC   C2B53528  16.061  11.553   6.652
 4000POPC   C3B53529  16.304  11.658   7.011
 4000POPC   C4B53530  16.199  11.532   7.431
 4001POPC   NC353531   8.090  44.566   4.951
 4001POPC   PO453532   8.401  44.307   5.461
 4001POPC   GL153533   8.328  44.608   5.854
 4001POPC   GL253534   8.515  44.922   5.950
 4001POPC   C1A53535   8.215  44.730   6.302
 4001POPC   D2A53536   8.066  44.483   6.629
 4001POPC   C3A53537   7.939  44.747   6.979
 4001POPC   C4A53538   8.132  44.708   7.343
 4001POPC   C1B53539   8.729  44.835   6.308
 4001POPC   C2B53540   8.591  44.500   6.574
 4001POPC   C3B53541   8.427  44.531   6.969
 4001POPC   C4B53542   8.634  44.686   7.301
 4002POPC   NC353543   9.329  41.668   5.430
 4002POPC   PO453544  10.022  41.387   5.380
 4002POPC   GL153545   9.784  41.432   5.798
 4002POPC   GL253546   9.568  41.739   5.859
 4002POPC   C1A53547   9.685  41.465   6.259
 4002POPC   D2A53548   9.717  41.725   6.631
 4002POPC   C3A53549   9.555  41.500   6.946
 4002POPC   C4A53550   9.656  41.387   7.327
 4002POPC   C1B53551   9.365  41.855   6.266
 4002POPC   C2B53552   9.178  41.761   6.637
 4002POPC   C3B53553   9.255  41.941   7.029
 4002POPC   C4B53554   9.361  41.788   7.412
 4003POPC   NC353555  14.455  29.977   5.279
 4003POPC   PO453556  13.808  29.898   5.348
 4003POPC   GL153557  14.176  29.951   5.712
 4003POPC   GL253558  14.578  29.858   5.772
 4003POPC   C1A53559  14.246  29.883   6.181
 4003POPC   D2A53560  14.206  29.716   6.626
 4003POPC   C3A53561  14.129  30.040   6.939
 4003POPC   C4A53562  14.519  30.165   7.098
 4003POPC   C1B53563  14.713  29.639   6.193
 4003POPC   C2B53564  14.727  29.710   6.659
 4003POPC   C3B53565  14.613  29.454   7.031
 4003POPC   C4B53566  14.540  29.535   7.483
 4004POPC   NC353567  27.873  24.982   5.405
 4004POPC   PO453568  27.403  25.513   5.486
 4004POPC   GL153569  27.429  25.366   5.875
 4004POPC   GL253570  27.603  25.076   5.833
 4004POPC   C1A53571  27.610  25.380   6.293
 4004POPC   D2A53572  27.383  25.392   6.658
 4004POPC   C3A53573  27.644  25.320   7.006
 4004POPC   C4A53574  27.918  25.527   7.247
 4004POPC   C1B53575  27.586  24.856   6.207
 4004POPC   C2B53576  27.612  24.933   6.636
 4004POPC   C3B53577  27.429  24.866   7.042
 4004POPC   C4B53578  27.617  24.887   7.457
 4005POPC   NC353579  12.655  15.692   5.488
 4005POPC   PO453580  12.967  16.192   5.122
 4005POPC   GL153581  12.812  16.142   5.626
 4005POPC   GL253582  13.003  15.883   5.842
 4005POPC   C1A53583  12.724  16.226   6.099
 4005POPC   D2A53584  13.082  16.282   6.410
 4005POPC   C3A53585  13.102  16.241   6.871
 4005POPC   C4A53586  12.736  16.225   7.133
 4005POPC   C1B53587  12.916  15.788   6.311
 4005POPC   C2B53588  12.869  15.779   6.786
 4005POPC   C3B53589  12.871  15.611   7.220
 4005POPC   C4B53590  13.030  15.548   7.644
 4006POPC   NC353591  15.026  38.953   5.406
 4006POPC   PO453592  15.483  39.433   5.415
 4006POPC   GL153593  15.178  39.317   5.758
 4006POPC   GL253594  14.931  39.586   5.823
 4006POPC   C1A53595  15.283  39.078   6.147
 4006POPC   D2A53596  15.353  38.932   6.588
 4006POPC   C3A53597  15.414  39.230   6.964
 4006POPC   C4A53598  15.467  39.321   7.431
 4006POPC   C1B53599  14.860  39.366   6.200
 4006POPC   C2B53600  15.060  39.353   6.602
 4006POPC   C3B53601  14.881  39.456   7.009
 4006POPC   C4B53602  14.790  39.856   7.235
 4007POPC   NC353603  32.020  10.417   5.452
 4007POPC   PO453604  32.624  10.500   5.347
 4007POPC   GL153605  32.350  10.549   5.787
 4007POPC   GL253606  32.260  10.888   5.859
 4007POPC   C1A53607  32.027  10.532   6.160
 4007POPC   D2A53608  32.150  10.475   6.617
 4007POPC   C3A53609  31.907  10.371   6.983
 4007POPC   C4A53610  32.121  10.255   7.361
 4007POPC   C1B53611  32.501  10.720   6.256
 4007POPC   C2B53612  32.472  10.841   6.722
 4007POPC   C3B53613  32.366  10.641   7.120
 4007POPC   C4B53614  32.453  10.668   7.589
 4008POPC   NC353615  18.433  29.538   5.516
 4008POPC   PO453616  18.620  30.111   5.439
 4008POPC   GL153617  18.510  30.212   5.841
 4008POPC   GL253618  18.258  29.948   5.894
 4008POPC   C1A53619  18.490  30.153   6.291
 4008POPC   D2A53620  18.201  29.975   6.602
 4008POPC   C3A53621  18.294  30.134   7.020
 4008POPC   C4A53622  18.166  29.963   7.418
 4008POPC   C1B53623  18.301  29.604   6.178
 4008POPC   C2B53624  18.295  29.417   6.577
 4008POPC   C3B53625  18.353  29.625   6.971
 4008POPC   C4B53626  18.559  29.629   7.375
 4009POPC   NC353627  28.789  28.679   5.365
 4009POPC   PO453628  28.082  28.741   5.485
 4009POPC   GL153629  28.411  28.498   5.752
 4009POPC   GL253630  28.616  28.797   5.826
 4009POPC   C1A53631  28.485  28.238   6.190
 4009POPC   D2A53632  28.393  28.057   6.637
 4009POPC   C3A53633  28.561  28.241   7.016
 4009POPC   C4A53634  28.646  28.066   7.404
 4009POPC   C1B53635  28.307  28.717   6.209
 4009POPC   C2B53636  28.085  28.482   6.554
 4009POPC   C3B53637  27.992  28.574   7.005
 4009POPC   C4B53638  28.177  28.793   7.392
 4010POPC   NC353639  13.531  26.635   5.660
 4010POPC   PO453640  13.723  26.022   5.488
 4010POPC   GL153641  13.855  26.049   5.906
 4010POPC   GL253642  13.879  26.417   5.961
 4010POPC   C1A53643  13.840  25.881   6.356
 4010POPC   D2A53644  13.500  25.803   6.685
 4010POPC   C3A53645  13.639  25.829   7.111
 4010POPC   C4A53646  13.818  26.214   7.197
 4010POPC   C1B53647  13.518  26.282   6.236
 4010POPC   C2B53648  13.249  26.304   6.618
 4010POPC   C3B53649  13.351  26.296   7.063
 4010POPC   C4B53650  13.459  26.546   7.470
 4011POPC   NC353651  38.624  33.396   5.530
 4011POPC   PO453652  38.189  33.843   5.278
 4011POPC   GL153653  38.403  33.885   5.676
 4011POPC   GL253654  38.208  33.621   5.813
 4011POPC   C1A53655  38.482  33.957   6.126
 4011POPC   D2A53656  38.290  34.097   6.524
 4011POPC   C3A53657  38.502  33.903   6.874
 4011POPC   C4A53658  38.568  34.046   7.279
 4011POPC   C1B53659  38.049  33.363   6.153
 4011POPC   C2B53660  38.255  33.404   6.526
 4011POPC   C3B53661  38.216  33.293   6.931
 4011POPC   C4B53662  38.251  33.592   7.238
 4012POPC   NC353663  14.709  41.078   5.376
 4012POPC   PO453664  14.094  40.701   5.371
 4012POPC   GL153665  14.194  40.828   5.806
 4012POPC   GL253666  14.551  40.789   5.787
 4012POPC   C1A53667  14.093  40.908   6.277
 4012POPC   D2A53668  14.023  41.039   6.732
 4012POPC   C3A53669  14.184  40.772   7.086
 4012POPC   C4A53670  14.178  40.337   7.164
 4012POPC   C1B53671  14.590  41.026   6.186
 4012POPC   C2B53672  14.533  40.921   6.643
 4012POPC   C3B53673  14.511  41.146   7.048
 4012POPC   C4B53674  14.480  40.991   7.494
 4013POPC   NC353675   9.155  12.658   5.435
 4013POPC   PO453676   8.809  13.212   5.498
 4013POPC   GL153677   9.030  13.054   5.836
 4013POPC   GL253678   8.895  12.703   5.896
 4013POPC   C1A53679   8.976  13.034   6.288
 4013POPC   D2A53680   8.878  12.625   6.459
 4013POPC   C3A53681   8.945  12.545   6.874
 4013POPC   C4A53682   8.858  12.857   7.131
 4013POPC   C1B53683   9.285  12.674   6.142
 4013POPC   C2B53684   9.400  12.889   6.551
 4013POPC   C3B53685   9.328  12.903   6.995
 4013POPC   C4B53686   9.282  13.012   7.449
 4014POPC   NC353687  10.873  35.285   5.018
 4014POPC   PO453688  10.491  35.334   5.534
 4014POPC   GL153689  10.537  35.470   5.923
 4014POPC   GL253690  10.225  35.399   5.964
 4014POPC   C1A53691  10.600  35.526   6.350
 4014POPC   D2A53692  10.700  35.187   6.607
 4014POPC   C3A53693  10.687  35.313   7.023
 4014POPC   C4A53694  10.750  35.111   7.421
 4014POPC   C1B53695  10.230  35.148   6.321
 4014POPC   C2B53696  10.207  35.215   6.757
 4014POPC   C3B53697  10.201  35.202   7.194
 4014POPC   C4B53698  10.044  35.514   7.441
 4015POPC   NC353699  12.195  17.255   5.565
 4015POPC   PO453700  11.701  17.726   5.387
 4015POPC   GL153701  11.916  17.650   5.884
 4015POPC   GL253702  12.106  17.342   6.042
 4015POPC   C1A53703  11.828  17.574   6.366
 4015POPC   D2A53704  11.727  17.242   6.678
 4015POPC   C3A53705  11.818  17.424   7.058
 4015POPC   C4A53706  11.893  17.853   7.166
 4015POPC   C1B53707  12.356  17.517   6.379
 4015POPC   C2B53708  12.249  17.395   6.766
 4015POPC   C3B53709  12.305  17.375   7.174
 4015POPC   C4B53710  12.382  17.786   7.316
 4016POPC   NC353711  33.091  21.033   5.506
 4016POPC   PO453712  32.777  20.438   5.361
 4016POPC   GL153713  32.732  20.717   5.727
 4016POPC   GL253714  33.050  20.617   5.829
 4016POPC   C1A53715  32.712  20.701   6.203
 4016POPC   D2A53716  32.953  20.618   6.596
 4016POPC   C3A53717  32.783  20.601   7.011
 4016POPC   C4A53718  32.837  20.880   7.356
 4016POPC   C1B53719  33.288  20.655   6.196
 4016POPC   C2B53720  33.490  20.578   6.583
 4016POPC   C3B53721  33.450  20.767   6.968
 4016POPC   C4B53722  33.429  20.622   7.329
 4017POPC   NC353723  44.540  23.233   5.556
 4017POPC   PO453724   0.053  22.730   5.531
 4017POPC   GL153725  44.722  22.846   5.850
 4017POPC   GL253726  44.491  22.600   5.921
 4017POPC   C1A53727  44.507  22.996   6.248
 4017POPC   D2A53728  44.556  23.229   6.648
 4017POPC   C3A53729  44.740  23.097   7.085
 4017POPC   C4A53730  44.960  23.220   7.504
 4017POPC   C1B53731  44.395  22.495   6.332
 4017POPC   C2B53732  44.593  22.454   6.751
 4017POPC   C3B53733  44.813  22.559   7.134
 4017POPC   C4B53734  44.549  22.706   7.444
 4018POPC   NC353735  42.579   4.586   5.445
 4018POPC   PO453736  42.607   3.910   5.714
 4018POPC   GL153737  42.416   4.246   5.871
 4018POPC   GL253738  42.065   4.190   5.876
 4018POPC   C1A53739  42.466   4.195   6.304
 4018POPC   D2A53740  42.461   3.959   6.677
 4018POPC   C3A53741  42.455   4.213   7.009
 4018POPC   C4A53742  42.568   4.626   7.100
 4018POPC   C1B53743  41.975   4.173   6.309
 4018POPC   C2B53744  41.731   4.290   6.625
 4018POPC   C3B53745  41.901   4.371   6.979
 4018POPC   C4B53746  42.115   4.404   7.328
 4019POPC   NC353747  40.106  34.200   5.538
 4019POPC   PO453748  39.530  33.874   5.445
 4019POPC   GL153749  39.834  33.803   5.791
 4019POPC   GL253750  39.854  33.443   5.799
 4019POPC   C1A53751  40.054  33.708   6.211
 4019POPC   D2A53752  40.141  33.414   6.580
 4019POPC   C3A53753  40.112  33.635   6.971
 4019POPC   C4A53754  40.230  34.090   7.062
 4019POPC   C1B53755  39.558  33.533   6.147
 4019POPC   C2B53756  39.660  33.624   6.573
 4019POPC   C3B53757  39.552  33.687   6.989
 4019POPC   C4B53758  39.800  33.934   7.239
 4020POPC   NC353759  43.527  35.317   5.280
 4020POPC   PO453760  42.863  35.158   5.482
 4020POPC   GL153761  43.053  35.385   5.854
 4020POPC   GL253762  43.421  35.523   5.787
 4020POPC   C1A53763  42.872  35.439   6.307
 4020POPC   D2A53764  42.626  35.523   6.729
 4020POPC   C3A53765  42.946  35.588   7.061
 4020POPC   C4A53766  43.138  35.161   7.154
 4020POPC   C1B53767  43.634  35.663   6.200
 4020POPC   C2B53768  43.441  35.759   6.617
 4020POPC   C3B53769  43.494  35.625   7.058
 4020POPC   C4B53770  43.308  35.537   7.463
 4021POPC   NC353771  27.145  34.226   5.526
 4021POPC   PO453772  27.297  34.845   5.420
 4021POPC   GL153773  27.076  34.648   5.828
 4021POPC   GL253774  26.796  34.392   5.861
 4021POPC   C1A53775  27.148  34.738   6.292
 4021POPC   D2A53776  27.305  34.599   6.718
 4021POPC   C3A53777  27.073  34.519   7.149
 4021POPC   C4A53778  26.818  34.813   7.404
 4021POPC   C1B53779  26.975  34.257   6.273
 4021POPC   C2B53780  26.922  34.209   6.747
 4021POPC   C3B53781  26.591  34.393   7.057
 4021POPC   C4B53782  26.350  34.542   7.405
 4022POPC   NC353783   3.283  39.840   5.309
 4022POPC   PO453784   3.986  39.767   5.498
 4022POPC   GL153785   3.632  39.947   5.740
 4022POPC   GL253786   3.445  39.705   5.811
 4022POPC   C1A53787   3.496  40.055   6.174
 4022POPC   D2A53788   3.438  39.855   6.596
 4022POPC   C3A53789   3.457  40.094   6.945
 4022POPC   C4A53790   3.621  40.081   7.340
 4022POPC   C1B53791   3.236  39.600   6.209
 4022POPC   C2B53792   2.944  39.762   6.509
 4022POPC   C3B53793   3.016  39.805   6.906
 4022POPC   C4B53794   3.137  39.913   7.303
 4023POPC   NC353795  36.161  10.679   5.320
 4023POPC   PO453796  35.785  10.200   5.386
 4023POPC   GL153797  36.063  10.407   5.756
 4023POPC   GL253798  36.252  10.741   5.799
 4023POPC   C1A53799  36.027  10.527   6.212
 4023POPC   D2A53800  36.305  10.376   6.508
 4023POPC   C3A53801  36.390  10.472   6.901
 4023POPC   C4A53802  36.197  10.666   7.257
 4023POPC   C1B53803  36.261  11.004   6.150
 4023POPC   C2B53804  36.312  10.893   6.551
 4023POPC   C3B53805  36.496  10.965   6.912
 4023POPC   C4B53806  36.691  10.888   7.289
 4024POPC   NC353807  21.069  16.424   5.102
 4024POPC   PO453808  21.662  16.446   5.383
 4024POPC   GL153809  21.310  16.524   5.717
 4024POPC   GL253810  21.100  16.819   5.593
 4024POPC   C1A53811  21.328  16.403   6.199
 4024POPC   D2A53812  21.623  16.400   6.581
 4024POPC   C3A53813  21.560  16.497   7.030
 4024POPC   C4A53814  21.542  16.499   7.485
 4024POPC   C1B53815  21.019  16.792   6.072
 4024POPC   C2B53816  21.016  16.683   6.550
 4024POPC   C3B53817  21.115  16.747   7.038
 4024POPC   C4B53818  21.362  17.020   7.359
 4025POPC   NC353819  36.435  20.385   5.387
 4025POPC   PO453820  35.916  20.881   5.333
 4025POPC   GL153821  36.042  20.629   5.687
 4025POPC   GL253822  36.286  20.823   5.800
 4025POPC   C1A53823  36.126  20.415   6.117
 4025POPC   D2A53824  35.938  20.313   6.565
 4025POPC   C3A53825  36.133  20.476   6.968
 4025POPC   C4A53826  36.409  20.458   7.359
 4025POPC   C1B53827  36.036  20.959   6.107
 4025POPC   C2B53828  36.056  20.806   6.495
 4025POPC   C3B53829  36.010  20.957   6.878
 4025POPC   C4B53830  36.269  20.921   7.202
 4026POPC   NC353831  33.738   0.537   5.580
 4026POPC   PO453832  33.326   1.062   5.622
 4026POPC   GL153833  33.351   0.671   5.942
 4026POPC   GL253834  33.379   0.283   5.865
 4026POPC   C1A53835  33.371   0.512   6.408
 4026POPC   D2A53836  33.641   0.565   6.802
 4026POPC   C3A53837  33.603   0.475   7.261
 4026POPC   C4A53838  33.857   0.487   7.640
 4026POPC   C1B53839  33.694   0.191   6.172
 4026POPC   C2B53840  33.796   0.099   6.600
 4026POPC   C3B53841  33.963   0.210   6.997
 4026POPC   C4B53842  33.916   0.040   7.380
 4027POPC   NC353843  10.902  36.943   5.326
 4027POPC   PO453844  11.393  37.350   5.472
 4027POPC   GL153845  11.215  37.096   5.783
 4027POPC   GL253846  11.287  36.765   5.629
 4027POPC   C1A53847  11.193  37.151   6.252
 4027POPC   D2A53848  11.122  36.998   6.689
 4027POPC   C3A53849  11.401  37.210   6.962
 4027POPC   C4A53850  11.427  37.180   7.413
 4027POPC   C1B53851  11.375  36.662   6.071
 4027POPC   C2B53852  11.313  36.526   6.504
 4027POPC   C3B53853  11.312  36.587   6.956
 4027POPC   C4B53854  11.192  36.365   7.354
 4028POPC   NC353855  37.378  21.967   5.545
 4028POPC   PO453856  36.884  22.362   5.237
 4028POPC   GL153857  37.008  22.306   5.679
 4028POPC   GL253858  36.847  21.984   5.693
 4028POPC   C1A53859  37.080  22.135   6.130
 4028POPC   D2A53860  37.213  22.013   6.558
 4028POPC   C3A53861  37.101  22.259   6.931
 4028POPC   C4A53862  36.894  22.481   7.249
 4028POPC   C1B53863  36.601  21.878   6.080
 4028POPC   C2B53864  36.776  21.723   6.465
 4028POPC   C3B53865  36.691  21.938   6.841
 4028POPC   C4B53866  36.700  21.826   7.240
 4029POPC   NC353867  10.859  42.440   5.452
 4029POPC   PO453868  10.197  42.700   5.544
 4029POPC   GL153869  10.377  42.289   5.711
 4029POPC   GL253870  10.688  42.218   5.937
 4029POPC   C1A53871  10.242  42.315   6.138
 4029POPC   D2A53872  10.514  42.395   6.490
 4029POPC   C3A53873  10.376  42.351   6.904
 4029POPC   C4A53874  10.534  42.446   7.275
 4029POPC   C1B53875  10.552  41.912   6.292
 4029POPC   C2B53876  10.560  41.897   6.747
 4029POPC   C3B53877  10.808  42.020   7.094
 4029POPC   C4B53878  10.760  42.095   7.543
 4030POPC   NC353879   9.773  16.470   5.376
 4030POPC   PO453880   9.890  15.807   5.476
 4030POPC   GL153881   9.817  16.136   5.773
 4030POPC   GL253882  10.071  16.397   5.791
 4030POPC   C1A53883   9.592  16.119   6.160
 4030POPC   D2A53884   9.656  16.244   6.568
 4030POPC   C3A53885   9.498  16.042   6.876
 4030POPC   C4A53886   9.667  15.748   7.114
 4030POPC   C1B53887  10.228  16.136   6.143
 4030POPC   C2B53888  10.237  16.087   6.608
 4030POPC   C3B53889  10.056  16.115   7.029
 4030POPC   C4B53890  10.202  16.152   7.479
 4031POPC   NC353891  38.108   9.853   5.701
 4031POPC   PO453892  38.659   9.451   5.515
 4031POPC   GL153893  38.579   9.731   5.882
 4031POPC   GL253894  38.566  10.116   5.810
 4031POPC   C1A53895  38.429   9.556   6.294
 4031POPC   D2A53896  38.328   9.407   6.723
 4031POPC   C3A53897  38.589   9.521   7.065
 4031POPC   C4A53898  38.467   9.592   7.502
 4031POPC   C1B53899  38.405  10.084   6.248
 4031POPC   C2B53900  38.482   9.919   6.659
 4031POPC   C3B53901  38.348   9.988   7.060
 4031POPC   C4B53902  38.524  10.265   7.343
 4032POPC   NC353903  19.296  44.328   5.595
 4032POPC   PO453904  18.990  43.725   5.599
 4032POPC   GL153905  19.173  43.944   5.898
 4032POPC   GL253906  18.909  44.176   5.994
 4032POPC   C1A53907  19.346  44.129   6.261
 4032POPC   D2A53908  19.045  44.319   6.555
 4032POPC   C3A53909  19.005  44.140   6.971
 4032POPC   C4A53910  19.044  43.789   7.230
 4032POPC   C1B53911  18.888  43.847   6.330
 4032POPC   C2B53912  18.808  43.681   6.756
 4032POPC   C3B53913  18.724  43.404   7.135
 4032POPC   C4B53914  18.501  43.310   7.559
 4033POPC   NC353915  41.404  14.620   5.450
 4033POPC   PO453916  41.900  14.360   5.575
 4033POPC   GL153917  41.590  14.444   5.902
 4033POPC   GL253918  41.610  14.141   6.080
 4033POPC   C1A53919  41.283  14.514   6.267
 4033POPC   D2A53920  41.109  14.628   6.698
 4033POPC   C3A53921  41.356  14.547   7.102
 4033POPC   C4A53922  41.758  14.657   7.325
 4033POPC   C1B53923  41.800  14.458   6.370
 4033POPC   C2B53924  41.799  14.472   6.828
 4033POPC   C3B53925  41.701  14.164   7.158
 4033POPC   C4B53926  41.338  14.011   7.393
 4034POPC   NC353927  26.436   0.221   5.627
 4034POPC   PO453928  26.896   0.731   5.544
 4034POPC   GL153929  26.924   0.552   5.955
 4034POPC   GL253930  26.853   0.210   5.932
 4034POPC   C1A53931  26.702   0.483   6.351
 4034POPC   D2A53932  26.514   0.503   6.773
 4034POPC   C3A53933  26.766   0.678   7.075
 4034POPC   C4A53934  26.887   0.634   7.482
 4034POPC   C1B53935  26.827  44.985   6.311
 4034POPC   C2B53936  26.832   0.088   6.727
 4034POPC   C3B53937  26.811   0.162   7.164
 4034POPC   C4B53938  26.730   0.159   7.607
 4035POPC   NC353939  27.827   1.328   5.604
 4035POPC   PO453940  27.418   1.003   5.191
 4035POPC   GL153941  27.480   1.018   5.794
 4035POPC   GL253942  27.409   0.717   5.901
 4035POPC   C1A53943  27.644   1.117   6.230
 4035POPC   D2A53944  27.868   1.221   6.614
 4035POPC   C3A53945  27.688   1.037   7.003
 4035POPC   C4A53946  27.489   1.341   7.259
 4035POPC   C1B53947  27.218   0.831   6.284
 4035POPC   C2B53948  27.289   1.023   6.689
 4035POPC   C3B53949  27.176   0.970   7.128
 4035POPC   C4B53950  27.190   1.026   7.602
 4036POPC   NC353951  31.638  18.553   5.437
 4036POPC   PO453952  31.096  18.115   5.372
 4036POPC   GL153953  31.334  18.166   5.744
 4036POPC   GL253954  31.293  18.517   5.824
 4036POPC   C1A53955  31.273  18.150   6.212
 4036POPC   D2A53956  31.525  18.222   6.586
 4036POPC   C3A53957  31.351  18.131   6.990
 4036POPC   C4A53958  31.549  18.172   7.395
 4036POPC   C1B53959  31.625  18.502   6.147
 4036POPC   C2B53960  31.756  18.675   6.573
 4036POPC   C3B53961  31.704  18.504   6.984
 4036POPC   C4B53962  31.799  18.610   7.384
 4037POPC   NC353963  34.086  35.120   5.322
 4037POPC   PO453964  34.836  35.363   5.287
 4037POPC   GL153965  34.491  35.370   5.649
 4037POPC   GL253966  34.321  35.684   5.712
 4037POPC   C1A53967  34.415  35.224   6.106
 4037POPC   D2A53968  34.530  35.024   6.465
 4037POPC   C3A53969  34.620  35.322   6.744
 4037POPC   C4A53970  34.580  35.227   7.146
 4037POPC   C1B53971  34.210  35.672   6.141
 4037POPC   C2B53972  34.146  35.437   6.536
 4037POPC   C3B53973  34.166  35.586   6.960
 4037POPC   C4B53974  34.445  35.701   7.262
 4038POPC   NC353975  23.030  12.975   5.596
 4038POPC   PO453976  22.649  12.384   5.456
 4038POPC   GL153977  22.751  12.626   5.845
 4038POPC   GL253978  22.679  12.983   5.952
 4038POPC   C1A53979  23.025  12.733   6.221
 4038POPC   D2A53980  22.833  12.716   6.612
 4038POPC   C3A53981  23.011  12.735   7.001
 4038POPC   C4A53982  23.328  12.530   7.256
 4038POPC   C1B53983  22.747  13.168   6.350
 4038POPC   C2B53984  22.984  13.194   6.729
 4038POPC   C3B53985  22.861  13.274   7.136
 4038POPC   C4B53986  22.559  12.986   7.272
 4039POPC   NC353987  40.911  27.876   5.417
 4039POPC   PO453988  40.452  27.396   5.303
 4039POPC   GL153989  40.654  27.539   5.735
 4039POPC   GL253990  40.475  27.829   5.877
 4039POPC   C1A53991  40.886  27.651   6.183
 4039POPC   D2A53992  41.133  27.748   6.609
 4039POPC   C3A53993  40.911  27.736   7.028
 4039POPC   C4A53994  40.506  27.940   7.187
 4039POPC   C1B53995  40.427  27.439   6.185
 4039POPC   C2B53996  40.527  27.226   6.573
 4039POPC   C3B53997  40.362  27.218   7.010
 4039POPC   C4B53998  40.292  27.493   7.373
 4040POPC   NC353999  14.814   2.372   5.386
 4040POPC   PO454000  14.650   3.047   5.368
 4040POPC   GL154001  14.520   2.983   5.807
 4040POPC   GL254002  14.575   2.613   5.780
 4040POPC   C1A54003  14.345   3.142   6.236
 4040POPC   D2A54004  14.400   3.295   6.683
 4040POPC   C3A54005  14.598   2.989   6.963
 4040POPC   C4A54006  14.459   2.818   7.373
 4040POPC   C1B54007  14.344   2.615   6.169
 4040POPC   C2B54008  14.254   2.761   6.576
 4040POPC   C3B54009  14.303   2.555   6.937
 4040POPC   C4B54010  14.332   2.320   7.283
 4041POPC   NC354011  16.917  43.059   5.444
 4041POPC   PO454012  16.799  43.712   5.648
 4041POPC   GL154013  16.904  43.331   5.906
 4041POPC   GL254014  16.701  42.984   5.906
 4041POPC   C1A54015  16.768  43.258   6.333
 4041POPC   D2A54016  16.758  43.070   6.721
 4041POPC   C3A54017  16.605  43.242   7.100
 4041POPC   C4A54018  16.787  43.150   7.506
 4041POPC   C1B54019  16.627  42.622   6.183
 4041POPC   C2B54020  16.757  42.403   6.530
 4041POPC   C3B54021  16.656  42.595   6.900
 4041POPC   C4B54022  16.562  42.780   7.252
 4042POPC   NC354023   3.726  30.365   5.536
 4042POPC   PO454024   3.362  30.851   5.230
 4042POPC   GL154025   3.387  30.895   5.681
 4042POPC   GL254026   3.706  30.760   5.872
 4042POPC   C1A54027   3.262  30.795   6.116
 4042POPC   D2A54028   3.460  30.741   6.520
 4042POPC   C3A54029   3.264  30.711   6.928
 4042POPC   C4A54030   3.523  30.857   7.202
 4042POPC   C1B54031   3.803  30.441   6.225
 4042POPC   C2B54032   3.851  30.401   6.698
 4042POPC   C3B54033   3.662  30.357   7.135
 4042POPC   C4B54034   3.729  30.525   7.559
 4043POPC   NC354035  21.624  33.244   5.322
 4043POPC   PO454036  21.030  32.882   5.469
 4043POPC   GL154037  21.063  33.050   5.911
 4043POPC   GL254038  21.190  33.388   5.918
 4043POPC   C1A54039  21.191  33.034   6.361
 4043POPC   D2A54040  21.014  32.969   6.777
 4043POPC   C3A54041  21.267  32.712   7.081
 4043POPC   C4A54042  21.725  32.803   7.120
 4043POPC   C1B54043  20.999  33.502   6.329
 4043POPC   C2B54044  21.217  33.454   6.754
 4043POPC   C3B54045  21.377  33.220   7.152
 4043POPC   C4B54046  21.162  33.257   7.624
 4044POPC   NC354047   6.893  32.920   5.367
 4044POPC   PO454048   6.372  32.646   5.251
 4044POPC   GL154049   6.656  32.660   5.702
 4044POPC   GL254050   6.649  33.017   5.824
 4044POPC   C1A54051   6.804  32.700   6.183
 4044POPC   D2A54052   6.614  32.930   6.560
 4044POPC   C3A54053   6.808  32.984   6.971
 4044POPC   C4A54054   6.858  32.718   7.371
 4044POPC   C1B54055   6.407  33.337   6.078
 4044POPC   C2B54056   6.455  33.423   6.514
 4044POPC   C3B54057   6.259  33.218   6.878
 4044POPC   C4B54058   6.363  32.933   7.242
 4045POPC   NC354059  20.742  12.221   5.519
 4045POPC   PO454060  20.316  11.773   5.537
 4045POPC   GL154061  20.664  11.837   5.861
 4045POPC   GL254062  21.041  11.832   5.843
 4045POPC   C1A54063  20.741  12.160   6.205
 4045POPC   D2A54064  20.577  12.474   6.503
 4045POPC   C3A54065  20.390  12.411   6.906
 4045POPC   C4A54066  20.473  12.207   7.256
 4045POPC   C1B54067  20.950  11.705   6.284
 4045POPC   C2B54068  20.908  11.938   6.694
 4045POPC   C3B54069  20.921  12.008   7.156
 4045POPC   C4B54070  20.829  12.110   7.614
 4046POPC   NC354071  26.617  16.971   5.213
 4046POPC   PO454072  26.823  16.625   5.428
 4046POPC   GL154073  26.697  16.824   5.803
 4046POPC   GL254074  27.006  16.881   5.983
 4046POPC   C1A54075  26.608  16.718   6.258
 4046POPC   D2A54076  26.898  16.697   6.644
 4046POPC   C3A54077  26.848  16.711   7.124
 4046POPC   C4A54078  26.844  16.395   7.494
 4046POPC   C1B54079  26.876  17.144   6.354
 4046POPC   C2B54080  26.838  17.183   6.820
 4046POPC   C3B54081  27.142  17.198   7.158
 4046POPC   C4B54082  27.276  17.457   7.522
 4047POPC   NC354083  24.694   0.847   5.313
 4047POPC   PO454084  24.613   1.458   5.275
 4047POPC   GL154085  24.806   1.256   5.643
 4047POPC   GL254086  24.695   0.919   5.810
 4047POPC   C1A54087  24.825   1.359   6.072
 4047POPC   D2A54088  24.801   1.252   6.492
 4047POPC   C3A54089  24.498   1.163   6.834
 4047POPC   C4A54090  24.565   1.403   7.234
 4047POPC   C1B54091  24.437   1.024   6.184
 4047POPC   C2B54092  24.171   0.849   6.515
 4047POPC   C3B54093  24.021   0.879   6.937
 4047POPC   C4B54094  24.235   1.008   7.305
 4048POPC   NC354095   0.906  35.856   5.308
 4048POPC   PO454096   0.343  36.161   5.462
 4048POPC   GL154097   0.517  36.167   5.870
 4048POPC   GL254098   0.791  35.917   5.882
 4048POPC   C1A54099   0.322  36.136   6.295
 4048POPC   D2A54100   0.232  35.960   6.698
 4048POPC   C3A54101   0.402  36.146   7.086
 4048POPC   C4A54102   0.692  35.868   7.312
 4048POPC   C1B54103   0.821  36.208   6.271
 4048POPC   C2B54104   0.718  36.318   6.699
 4048POPC   C3B54105   0.903  36.307   7.114
 4048POPC   C4B54106   0.667  36.353   7.510
 4049POPC   NC354107  26.467  23.994   5.500
 4049POPC   PO454108  26.830  23.613   5.221
 4049POPC   GL154109  26.787  23.569   5.688
 4049POPC   GL254110  26.920  23.860   5.800
 4049POPC   C1A54111  26.732  23.506   6.172
 4049POPC   D2A54112  26.688  23.715   6.614
 4049POPC   C3A54113  26.580  23.489   7.043
 4049POPC   C4A54114  26.666  23.383   7.539
 4049POPC   C1B54115  26.838  24.035   6.203
 4049POPC   C2B54116  27.058  24.067   6.586
 4049POPC   C3B54117  26.917  24.010   6.974
 4049POPC   C4B54118  27.066  24.084   7.388
 4050POPC   NC354119  37.709  12.340   5.560
 4050POPC   PO454120  37.257  11.906   5.704
 4050POPC   GL154121  37.641  11.933   5.919
 4050POPC   GL254122  37.532  12.280   6.028
 4050POPC   C1A54123  37.745  11.947   6.374
 4050POPC   D2A54124  37.619  11.789   6.793
 4050POPC   C3A54125  37.848  12.032   7.123
 4050POPC   C4A54126  38.025  12.488   7.128
 4050POPC   C1B54127  37.388  12.320   6.442
 4050POPC   C2B54128  37.469  12.287   6.861
 4050POPC   C3B54129  37.336  12.025   7.170
 4050POPC   C4B54130  37.487  11.966   7.568
 4051POPC   NC354131  33.879   4.936   5.359
 4051POPC   PO454132  33.990   5.533   5.613
 4051POPC   GL154133  33.942   5.155   5.847
 4051POPC   GL254134  33.672   4.947   5.830
 4051POPC   C1A54135  33.948   5.142   6.279
 4051POPC   D2A54136  34.038   5.447   6.597
 4051POPC   C3A54137  33.856   5.278   6.936
 4051POPC   C4A54138  33.900   5.098   7.329
 4051POPC   C1B54139  33.451   5.038   6.202
 4051POPC   C2B54140  33.573   4.957   6.620
 4051POPC   C3B54141  33.435   4.983   7.030
 4051POPC   C4B54142  33.409   5.374   7.161
 4052POPC   NC354143  23.911  27.722   5.377
 4052POPC   PO454144  23.486  27.258   5.448
 4052POPC   GL154145  23.717  27.462   5.860
 4052POPC   GL254146  24.026  27.695   5.886
 4052POPC   C1A54147  23.713  27.600   6.343
 4052POPC   D2A54148  23.540  27.417   6.760
 4052POPC   C3A54149  23.447  27.648   7.153
 4052POPC   C4A54150  23.252  27.438   7.503
 4052POPC   C1B54151  24.120  27.334   6.189
 4052POPC   C2B54152  24.033  27.267   6.670
 4052POPC   C3B54153  23.914  27.348   7.146
 4052POPC   C4B54154  24.105  27.269   7.582
 4053POPC   NC354155  35.769   3.614   5.489
 4053POPC   PO454156  35.209   3.418   5.391
 4053POPC   GL154157  35.112   3.587   5.801
 4053POPC   GL254158  35.453   3.521   5.895
 4053POPC   C1A54159  35.129   3.660   6.270
 4053POPC   D2A54160  35.197   3.491   6.705
 4053POPC   C3A54161  35.215   3.760   7.072
 4053POPC   C4A54162  35.082   3.793   7.501
 4053POPC   C1B54163  35.560   3.359   6.305
 4053POPC   C2B54164  35.657   3.259   6.740
 4053POPC   C3B54165  35.498   3.344   7.163
 4053POPC   C4B54166  35.583   3.616   7.531
 4054POPC   NC354167  25.857  27.648   5.210
 4054POPC   PO454168  26.239  27.182   5.447
 4054POPC   GL154169  26.119  27.390   5.822
 4054POPC   GL254170  25.904  27.665   5.734
 4054POPC   C1A54171  26.108  27.595   6.221
 4054POPC   D2A54172  25.912  27.555   6.598
 4054POPC   C3A54173  26.148  27.561   6.959
 4054POPC   C4A54174  25.866  27.452   7.243
 4054POPC   C1B54175  25.726  27.935   6.079
 4054POPC   C2B54176  25.784  28.038   6.499
 4054POPC   C3B54177  25.729  27.942   6.925
 4054POPC   C4B54178  25.545  27.841   7.330
 4055POPC   NC354179  21.617  44.433   5.508
 4055POPC   PO454180  21.024  44.644   5.277
 4055POPC   GL154181  21.198  44.628   5.731
 4055POPC   GL254182  21.253  44.267   5.829
 4055POPC   C1A54183  21.338  44.645   6.189
 4055POPC   D2A54184  21.413  44.873   6.582
 4055POPC   C3A54185  21.346  44.666   6.955
 4055POPC   C4A54186  21.578  44.692   7.334
 4055POPC   C1B54187  21.519  44.160   6.195
 4055POPC   C2B54188  21.404  44.171   6.668
 4055POPC   C3B54189  21.491  44.193   7.122
 4055POPC   C4B54190  21.815  44.264   7.423
 4056POPC   NC354191  37.608  13.928   5.367
 4056POPC   PO454192  38.000  13.490   5.496
 4056POPC   GL154193  37.585  13.569   5.757
 4056POPC   GL254194  37.415  13.914   5.838
 4056POPC   C1A54195  37.514  13.522   6.213
 4056POPC   D2A54196  37.521  13.226   6.579
 4056POPC   C3A54197  37.741  13.372   6.924
 4056POPC   C4A54198  37.520  13.473   7.307
 4056POPC   C1B54199  37.784  13.962   6.087
 4056POPC   C2B54200  37.863  13.806   6.506
 4056POPC   C3B54201  37.630  13.859   6.876
 4056POPC   C4B54202  37.693  13.990   7.277
 4057POPC   NC354203  13.534  31.911   5.471
 4057POPC   PO454204  13.690  31.212   5.445
 4057POPC   GL154205  13.668  31.510   5.777
 4057POPC   GL254206  13.366  31.641   5.874
 4057POPC   C1A54207  13.760  31.567   6.200
 4057POPC   D2A54208  13.927  31.563   6.588
 4057POPC   C3A54209  13.643  31.556   6.900
 4057POPC   C4A54210  13.648  31.363   7.301
 4057POPC   C1B54211  13.371  31.907   6.234
 4057POPC   C2B54212  13.232  31.933   6.634
 4057POPC   C3B54213  13.361  31.956   7.018
 4057POPC   C4B54214  13.664  31.935   7.276
 4058POPC   NC354215  28.223   1.366   5.263
 4058POPC   PO454216  27.899   0.855   5.620
 4058POPC   GL154217  28.099   1.126   5.958
 4058POPC   GL254218  28.351   1.364   5.790
 4058POPC   C1A54219  28.325   1.217   6.321
 4058POPC   D2A54220  28.423   0.967   6.648
 4058POPC   C3A54221  28.199   1.051   6.974
 4058POPC   C4A54222  28.001   1.422   7.153
 4058POPC   C1B54223  28.731   1.437   6.085
 4058POPC   C2B54224  28.829   1.269   6.515
 4058POPC   C3B54225  28.544   1.423   6.856
 4058POPC   C4B54226  28.507   1.622   7.246
 4059POPC   NC354227   2.319  36.884   5.137
 4059POPC   PO454228   2.957  37.116   5.323
 4059POPC   GL154229   2.859  37.000   5.747
 4059POPC   GL254230   2.514  37.147   5.730
 4059POPC   C1A54231   3.020  36.861   6.190
 4059POPC   D2A54232   3.205  36.886   6.636
 4059POPC   C3A54233   3.041  36.872   7.081
 4059POPC   C4A54234   3.040  37.083   7.501
 4059POPC   C1B54235   2.600  37.140   6.192
 4059POPC   C2B54236   2.697  36.990   6.629
 4059POPC   C3B54237   2.619  37.143   7.053
 4059POPC   C4B54238   2.589  36.882   7.421
 4060POPC   NC354239  22.808  26.322   5.013
 4060POPC   PO454240  22.955  26.937   5.270
 4060POPC   GL154241  22.927  26.966   5.707
 4060POPC   GL254242  22.807  26.638   5.759
 4060POPC   C1A54243  23.060  27.016   6.144
 4060POPC   D2A54244  23.028  26.772   6.529
 4060POPC   C3A54245  23.145  26.941   6.912
 4060POPC   C4A54246  22.976  26.699   7.252
 4060POPC   C1B54247  22.783  26.485   6.173
 4060POPC   C2B54248  22.518  26.410   6.530
 4060POPC   C3B54249  22.626  26.388   6.956
 4060POPC   C4B54250  22.516  26.452   7.351
 4061POPC   NC354251  43.218  31.422   5.419
 4061POPC   PO454252  42.672  31.176   5.754
 4061POPC   GL154253  43.073  31.383   5.922
 4061POPC   GL254254  43.382  31.613   5.855
 4061POPC   C1A54255  43.213  31.481   6.335
 4061POPC   D2A54256  43.231  31.300   6.724
 4061POPC   C3A54257  43.102  31.599   7.010
 4061POPC   C4A54258  42.744  31.687   7.217
 4061POPC   C1B54259  43.638  31.720   6.230
 4061POPC   C2B54260  43.583  31.691   6.691
 4061POPC   C3B54261  43.468  31.927   7.091
 4061POPC   C4B54262  43.353  31.837   7.528
 4062POPC   NC354263  19.362  37.724   5.385
 4062POPC   PO454264  18.690  37.559   5.430
 4062POPC   GL154265  18.852  37.648   5.804
 4062POPC   GL254266  19.197  37.628   5.876
 4062POPC   C1A54267  18.681  37.727   6.179
 4062POPC   D2A54268  18.917  37.734   6.519
 4062POPC   C3A54269  18.785  37.685   6.922
 4062POPC   C4A54270  19.050  37.738   7.277
 4062POPC   C1B54271  19.387  37.434   6.280
 4062POPC   C2B54272  19.304  37.503   6.734
 4062POPC   C3B54273  19.496  37.483   7.143
 4062POPC   C4B54274  19.488  37.427   7.586
 4063POPC   NC354275   2.902  33.943   5.457
 4063POPC   PO454276   2.392  33.492   5.434
 4063POPC   GL154277   2.590  33.769   5.805
 4063POPC   GL254278   2.626  34.165   5.839
 4063POPC   C1A54279   2.828  33.806   6.220
 4063POPC   D2A54280   2.888  33.617   6.640
 4063POPC   C3A54281   3.001  33.802   7.032
 4063POPC   C4A54282   3.278  34.059   7.244
 4063POPC   C1B54283   2.522  34.220   6.280
 4063POPC   C2B54284   2.581  34.033   6.699
 4063POPC   C3B54285   2.499  33.949   7.152
 4063POPC   C4B54286   2.378  33.771   7.579
 4064POPC   NC354287  32.108  15.926   5.383
 4064POPC   PO454288  32.671  15.691   5.134
 4064POPC   GL154289  32.557  15.804   5.629
 4064POPC   GL254290  32.369  16.119   5.769
 4064POPC   C1A54291  32.443  15.726   6.082
 4064POPC   D2A54292  32.204  15.870   6.455
 4064POPC   C3A54293  32.105  15.575   6.791
 4064POPC   C4A54294  32.401  15.759   7.070
 4064POPC   C1B54295  32.299  16.351   6.170
 4064POPC   C2B54296  32.178  16.381   6.572
 4064POPC   C3B54297  32.351  16.288   6.957
 4064POPC   C4B54298  32.167  16.362   7.361
 4065POPC   NC354299  39.458  33.418   5.468
 4065POPC   PO454300  38.818  33.061   5.280
 4065POPC   GL154301  38.916  33.056   5.773
 4065POPC   GL254302  38.950  32.763   5.926
 4065POPC   C1A54303  39.204  33.139   6.159
 4065POPC   D2A54304  39.198  33.415   6.522
 4065POPC   C3A54305  39.223  33.291   6.933
 4065POPC   C4A54306  39.184  33.230   7.330
 4065POPC   C1B54307  38.841  32.806   6.312
 4065POPC   C2B54308  39.094  32.903   6.629
 4065POPC   C3B54309  39.045  32.817   7.049
 4065POPC   C4B54310  39.418  32.783   7.258
 4066POPC   NC354311  13.929  10.825   5.068
 4066POPC   PO454312  13.308  10.720   5.278
 4066POPC   GL154313  13.616  10.696   5.644
 4066POPC   GL254314  13.578  11.031   5.765
 4066POPC   C1A54315  13.764  10.431   6.054
 4066POPC   D2A54316  13.898  10.178   6.452
 4066POPC   C3A54317  13.836  10.329   6.898
 4066POPC   C4A54318  13.694  10.542   7.297
 4066POPC   C1B54319  13.467  10.833   6.156
 4066POPC   C2B54320  13.639  10.705   6.561
 4066POPC   C3B54321  13.934  10.851   6.890
 4066POPC   C4B54322  13.957  10.999   7.316
 4067POPC   NC354323   0.318   7.718   5.568
 4067POPC   PO454324   0.518   7.077   5.374
 4067POPC   GL154325   0.288   7.251   5.729
 4067POPC   GL254326   0.558   7.428   5.894
 4067POPC   C1A54327   0.139   7.439   6.142
 4067POPC   D2A54328   0.446   7.514   6.465
 4067POPC   C3A54329   0.235   7.628   6.828
 4067POPC   C4A54330   0.081   7.500   7.219
 4067POPC   C1B54331   0.546   7.092   6.166
 4067POPC   C2B54332   0.641   6.980   6.551
 4067POPC   C3B54333   0.529   7.206   6.893
 4067POPC   C4B54334   0.593   7.521   7.184
 4068POPC   NC354335   5.891  38.158   4.911
 4068POPC   PO454336   5.661  38.424   5.518
 4068POPC   GL154337   5.770  38.332   5.939
 4068POPC   GL254338   6.067  38.556   5.936
 4068POPC   C1A54339   5.612  38.239   6.357
 4068POPC   D2A54340   5.492  38.334   6.776
 4068POPC   C3A54341   5.687  38.097   7.089
 4068POPC   C4A54342   5.793  38.178   7.536
 4068POPC   C1B54343   5.836  38.708   6.291
 4068POPC   C2B54344   5.860  38.687   6.737
 4068POPC   C3B54345   5.778  38.619   7.172
 4068POPC   C4B54346   5.797  38.999   7.433
 4069POPC   NC354347   5.947  20.668   5.170
 4069POPC   PO454348   5.680  20.232   5.692
 4069POPC   GL154349   5.826  20.591   5.827
 4069POPC   GL254350   6.067  20.829   5.670
 4069POPC   C1A54351   5.634  20.753   6.166
 4069POPC   D2A54352   5.817  20.582   6.522
 4069POPC   C3A54353   5.521  20.454   6.840
 4069POPC   C4A54354   5.699  20.381   7.211
 4069POPC   C1B54355   6.173  20.822   6.121
 4069POPC   C2B54356   6.263  20.871   6.567
 4069POPC   C3B54357   5.991  20.856   6.939
 4069POPC   C4B54358   5.873  20.830   7.375
 4070POPC   NC354359   5.942   9.787   5.391
 4070POPC   PO454360   5.311  10.082   5.521
 4070POPC   GL154361   5.576   9.844   5.765
 4070POPC   GL254362   5.817  10.055   5.847
 4070POPC   C1A54363   5.772   9.594   6.118
 4070POPC   D2A54364   5.863   9.668   6.564
 4070POPC   C3A54365   5.607   9.760   6.942
 4070POPC   C4A54366   5.696   9.657   7.349
 4070POPC   C1B54367   6.140   9.935   6.148
 4070POPC   C2B54368   6.247  10.037   6.595
 4070POPC   C3B54369   6.117   9.855   7.003
 4070POPC   C4B54370   6.245   9.985   7.426
 4071POPC   NC354371  33.113  18.456   5.402
 4071POPC   PO454372  32.621  18.040   5.409
 4071POPC   GL154373  32.799  18.231   5.772
 4071POPC   GL254374  32.495  18.270   5.928
 4071POPC   C1A54375  32.911  18.292   6.238
 4071POPC   D2A54376  32.824  18.551   6.628
 4071POPC   C3A54377  33.190  18.493   6.928
 4071POPC   C4A54378  33.398  18.133   7.099
 4071POPC   C1B54379  32.697  17.837   6.098
 4071POPC   C2B54380  32.857  17.754   6.528
 4071POPC   C3B54381  32.920  18.075   6.822
 4071POPC   C4B54382  32.822  18.160   7.246
 4072POPC   NC354383  42.396  22.476   5.497
 4072POPC   PO454384  42.098  21.838   5.472
 4072POPC   GL154385  42.309  22.046   5.789
 4072POPC   GL254386  42.033  22.246   5.843
 4072POPC   C1A54387  42.479  22.238   6.175
 4072POPC   D2A54388  42.284  22.374   6.571
 4072POPC   C3A54389  42.449  22.222   6.982
 4072POPC   C4A54390  42.375  22.207   7.462
 4072POPC   C1B54391  42.012  22.042   6.235
 4072POPC   C2B54392  41.948  21.973   6.664
 4072POPC   C3B54393  42.087  21.901   7.096
 4072POPC   C4B54394  42.086  21.797   7.537
 4073POPC   NC354395  42.455  39.397   5.579
 4073POPC   PO454396  42.100  38.860   5.760
 4073POPC   GL154397  42.204  39.203   6.014
 4073POPC   GL254398  42.590  39.241   6.051
 4073POPC   C1A54399  42.296  39.152   6.450
 4073POPC   D2A54400  42.618  39.322   6.668
 4073POPC   C3A54401  42.414  39.573   6.941
 4073POPC   C4A54402  42.524  39.516   7.327
 4073POPC   C1B54403  42.771  38.894   6.344
 4073POPC   C2B54404  42.701  38.814   6.794
 4073POPC   C3B54405  42.409  38.994   7.106
 4073POPC   C4B54406  42.216  38.780   7.452
 4074POPC   NC354407  16.563  35.020   5.356
 4074POPC   PO454408  17.085  34.633   5.405
 4074POPC   GL154409  16.860  34.723   5.787
 4074POPC   GL254410  16.497  34.693   5.775
 4074POPC   C1A54411  16.991  34.677   6.216
 4074POPC   D2A54412  17.106  34.463   6.573
 4074POPC   C3A54413  17.069  34.734   6.931
 4074POPC   C4A54414  16.965  34.700   7.347
 4074POPC   C1B54415  16.502  34.554   6.223
 4074POPC   C2B54416  16.636  34.711   6.636
 4074POPC   C3B54417  16.572  34.541   7.048
 4074POPC   C4B54418  16.318  34.198   7.231
 4075POPC   NC354419   6.538   7.539   5.450
 4075POPC   PO454420   6.989   7.081   5.436
 4075POPC   GL154421   6.865   7.269   5.834
 4075POPC   GL254422   6.503   7.262   5.876
 4075POPC   C1A54423   6.918   7.465   6.254
 4075POPC   D2A54424   6.978   7.230   6.619
 4075POPC   C3A54425   6.714   7.177   6.953
 4075POPC   C4A54426   6.724   7.503   7.224
 4075POPC   C1B54427   6.618   7.066   6.256
 4075POPC   C2B54428   6.367   7.080   6.594
 4075POPC   C3B54429   6.120   7.320   6.847
 4075POPC   C4B54430   6.259   7.342   7.230
 4076POPC   NC354431  26.154  36.152   5.445
 4076POPC   PO454432  25.670  35.971   5.680
 4076POPC   GL154433  26.037  36.137   5.945
 4076POPC   GL254434  26.279  36.408   5.865
 4076POPC   C1A54435  26.233  36.247   6.351
 4076POPC   D2A54436  26.149  36.512   6.712
 4076POPC   C3A54437  26.035  36.242   7.041
 4076POPC   C4A54438  26.286  35.932   7.280
 4076POPC   C1B54439  26.622  36.521   6.172
 4076POPC   C2B54440  26.669  36.572   6.652
 4076POPC   C3B54441  26.501  36.432   7.074
 4076POPC   C4B54442  26.227  36.392   7.492
 4077POPC   NC354443  20.850  33.348   5.532
 4077POPC   PO454444  21.395  33.612   5.417
 4077POPC   GL154445  21.501  33.794   5.814
 4077POPC   GL254446  21.178  33.912   5.899
 4077POPC   C1A54447  21.480  33.679   6.280
 4077POPC   D2A54448  21.689  33.800   6.681
 4077POPC   C3A54449  21.517  33.732   7.082
 4077POPC   C4A54450  21.566  33.551   7.469
 4077POPC   C1B54451  21.218  34.117   6.301
 4077POPC   C2B54452  21.205  34.007   6.724
 4077POPC   C3B54453  21.264  34.182   7.132
 4077POPC   C4B54454  21.457  34.062   7.525
 4078POPC   NC354455  26.256  32.178   5.432
 4078POPC   PO454456  25.621  32.280   5.426
 4078POPC   GL154457  25.839  32.184   5.844
 4078POPC   GL254458  26.147  31.954   5.887
 4078POPC   C1A54459  25.987  32.256   6.296
 4078POPC   D2A54460  26.019  32.106   6.743
 4078POPC   C3A54461  25.904  32.288   7.159
 4078POPC   C4A54462  25.929  31.964   7.532
 4078POPC   C1B54463  26.438  32.334   6.038
 4078POPC   C2B54464  26.501  32.498   6.461
 4078POPC   C3B54465  26.432  32.422   6.892
 4078POPC   C4B54466  26.365  32.188   7.285
 4079POPC   NC354467  41.281  43.280   5.472
 4079POPC   PO454468  41.546  42.757   5.432
 4079POPC   GL154469  41.576  42.933   5.837
 4079POPC   GL254470  41.797  43.219   5.982
 4079POPC   C1A54471  41.715  42.795   6.248
 4079POPC   D2A54472  41.698  43.050   6.617
 4079POPC   C3A54473  41.616  42.778   6.947
 4079POPC   C4A54474  41.412  42.844   7.329
 4079POPC   C1B54475  41.369  43.200   6.196
 4079POPC   C2B54476  41.146  43.151   6.569
 4079POPC   C3B54477  41.302  43.196   6.987
 4079POPC   C4B54478  41.088  43.233   7.400
 4080POPC   NC354479   2.425  32.378   5.491
 4080POPC   PO454480   3.062  32.068   5.527
 4080POPC   GL154481   2.806  32.191   5.894
 4080POPC   GL254482   2.450  32.073   5.937
 4080POPC   C1A54483   2.866  32.302   6.344
 4080POPC   D2A54484   3.033  32.352   6.765
 4080POPC   C3A54485   2.999  32.079   7.114
 4080POPC   C4A54486   2.599  31.903   7.089
 4080POPC   C1B54487   2.453  32.512   6.145
 4080POPC   C2B54488   2.533  32.605   6.611
 4080POPC   C3B54489   2.608  32.461   7.052
 4080POPC   C4B54490   2.382  32.590   7.417
 4081POPC   NC354491  37.036  29.809   5.216
 4081POPC   PO454492  37.386  30.234   5.593
 4081POPC   GL154493  36.992  30.085   5.797
 4081POPC   GL254494  36.802  29.736   5.743
 4081POPC   C1A54495  36.935  29.967   6.232
 4081POPC   D2A54496  36.768  30.160   6.610
 4081POPC   C3A54497  36.993  30.033   6.979
 4081POPC   C4A54498  37.267  30.293   7.205
 4081POPC   C1B54499  36.622  29.565   6.168
 4081POPC   C2B54500  36.631  29.681   6.649
 4081POPC   C3B54501  36.493  29.915   7.066
 4081POPC   C4B54502  36.437  29.712   7.498
 4082POPC   NC354503  29.670  20.533   5.653
 4082POPC   PO454504  30.031  20.943   5.365
 4082POPC   GL154505  30.145  20.778   5.782
 4082POPC   GL254506  30.143  20.405   5.862
 4082POPC   C1A54507  30.027  20.826   6.213
 4082POPC   D2A54508  29.762  20.709   6.550
 4082POPC   C3A54509  29.915  20.536   6.915
 4082POPC   C4A54510  29.990  20.728   7.309
 4082POPC   C1B54511  29.979  20.306   6.296
 4082POPC   C2B54512  29.928  20.038   6.680
 4082POPC   C3B54513  29.642  20.113   7.035
 4082POPC   C4B54514  29.567  20.452   7.293
 4083POPC   NC354515  30.621  27.562   5.104
 4083POPC   PO454516  30.974  27.861   5.472
 4083POPC   GL154517  30.863  27.601   5.839
 4083POPC   GL254518  30.629  27.865   5.937
 4083POPC   C1A54519  30.732  27.521   6.298
 4083POPC   D2A54520  30.665  27.756   6.698
 4083POPC   C3A54521  30.779  27.560   7.109
 4083POPC   C4A54522  31.060  27.568   7.488
 4083POPC   C1B54523  30.431  28.043   6.317
 4083POPC   C2B54524  30.198  27.997   6.709
 4083POPC   C3B54525  30.366  27.902   7.121
 4083POPC   C4B54526  30.694  27.943   7.456
 4084POPC   NC354527  29.985  24.938   5.329
 4084POPC   PO454528  29.605  25.414   5.160
 4084POPC   GL154529  29.664  25.352   5.644
 4084POPC   GL254530  29.787  25.623   5.858
 4084POPC   C1A54531  29.806  25.140   6.083
 4084POPC   D2A54532  29.971  25.241   6.541
 4084POPC   C3A54533  29.996  25.044   6.992
 4084POPC   C4A54534  30.273  24.907   7.346
 4084POPC   C1B54535  29.620  25.591   6.304
 4084POPC   C2B54536  29.658  25.570   6.767
 4084POPC   C3B54537  30.069  25.548   6.955
 4084POPC   C4B54538  30.273  25.418   7.327
 4085POPC   NC354539  17.005   4.567   5.455
 4085POPC   PO454540  16.496   4.075   5.466
 4085POPC   GL154541  16.665   4.028   5.875
 4085POPC   GL254542  16.899   4.297   5.881
 4085POPC   C1A54543  16.591   4.116   6.327
 4085POPC   D2A54544  16.536   4.153   6.763
 4085POPC   C3A54545  16.717   4.512   6.986
 4085POPC   C4A54546  16.699   4.304   7.374
 4085POPC   C1B54547  17.087   4.095   6.223
 4085POPC   C2B54548  17.028   4.285   6.613
 4085POPC   C3B54549  17.021   4.112   7.006
 4085POPC   C4B54550  17.189   4.237   7.384
 4086POPC   NC354551   0.078  38.840   5.628
 4086POPC   PO454552   0.510  38.226   5.478
 4086POPC   GL154553   0.603  38.269   5.937
 4086POPC   GL254554   0.366  38.515   5.916
 4086POPC   C1A54555   0.692  38.531   6.336
 4086POPC   D2A54556   0.545  38.738   6.740
 4086POPC   C3A54557   0.618  38.533   7.149
 4086POPC   C4A54558   0.549  38.490   7.588
 4086POPC   C1B54559   0.191  38.411   6.281
 4086POPC   C2B54560   0.071  38.528   6.670
 4086POPC   C3B54561   0.098  38.547   7.091
 4086POPC   C4B54562   0.077  38.399   7.443
 4087POPC   NC354563  36.096  39.008   5.521
 4087POPC   PO454564  36.084  38.299   5.429
 4087POPC   GL154565  36.061  38.529   5.797
 4087POPC   GL254566  36.390  38.691   5.823
 4087POPC   C1A54567  35.895  38.426   6.196
 4087POPC   D2A54568  35.921  38.600   6.601
 4087POPC   C3A54569  35.850  38.379   6.971
 4087POPC   C4A54570  36.007  38.073   7.251
 4087POPC   C1B54571  36.177  38.863   6.199
 4087POPC   C2B54572  36.322  38.894   6.637
 4087POPC   C3B54573  36.113  38.829   7.026
 4087POPC   C4B54574  36.192  38.550   7.328
 4088POPC   NC354575  14.174  25.038   5.323
 4088POPC   PO454576  14.602  25.552   5.404
 4088POPC   GL154577  14.527  25.303   5.747
 4088POPC   GL254578  14.204  25.245   5.782
 4088POPC   C1A54579  14.576  25.154   6.149
 4088POPC   D2A54580  14.582  25.340   6.529
 4088POPC   C3A54581  14.608  25.098   6.888
 4088POPC   C4A54582  14.584  25.361   7.239
 4088POPC   C1B54583  14.060  25.071   6.156
 4088POPC   C2B54584  14.054  25.321   6.514
 4088POPC   C3B54585  14.159  25.355   6.943
 4088POPC   C4B54586  14.221  24.999   7.219
 4089POPC   NC354587  31.445  10.192   5.486
 4089POPC   PO454588  31.817  10.813   5.518
 4089POPC   GL154589  31.635  10.558   5.813
 4089POPC   GL254590  31.698  10.214   5.935
 4089POPC   C1A54591  31.501  10.691   6.208
 4089POPC   D2A54592  31.675  10.625   6.584
 4089POPC   C3A54593  31.510  10.763   6.938
 4089POPC   C4A54594  31.555  10.966   7.335
 4089POPC   C1B54595  31.718  10.154   6.384
 4089POPC   C2B54596  31.456  10.194   6.765
 4089POPC   C3B54597  31.466  10.059   7.155
 4089POPC   C4B54598  31.620  10.248   7.507
 4090POPC   NC354599   9.902  14.002   5.368
 4090POPC   PO454600   9.565  14.565   5.497
 4090POPC   GL154601   9.630  14.232   5.787
 4090POPC   GL254602   9.980  14.309   5.796
 4090POPC   C1A54603   9.551  14.275   6.239
 4090POPC   D2A54604   9.658  14.502   6.625
 4090POPC   C3A54605   9.680  14.250   6.988
 4090POPC   C4A54606   9.661  14.335   7.425
 4090POPC   C1B54607  10.009  14.464   6.234
 4090POPC   C2B54608  10.069  14.207   6.591
 4090POPC   C3B54609  10.133  13.992   6.948
 4090POPC   C4B54610  10.119  14.188   7.315
 4091POPC   NC354611  34.664  30.416   5.449
 4091POPC   PO454612  34.414  31.032   5.293
 4091POPC   GL154613  34.543  30.892   5.709
 4091POPC   GL254614  34.327  30.637   5.846
 4091POPC   C1A54615  34.619  30.933   6.174
 4091POPC   D2A54616  34.875  31.073   6.549
 4091POPC   C3A54617  34.904  30.834   6.919
 4091POPC   C4A54618  34.634  30.916   7.282
 4091POPC   C1B54619  34.166  30.704   6.249
 4091POPC   C2B54620  34.424  30.668   6.631
 4091POPC   C3B54621  34.247  30.679   7.036
 4091POPC   C4B54622  34.214  30.463   7.420
 4092POPC   NC354623   1.012  44.450   5.403
 4092POPC   PO454624   1.610  44.742   5.444
 4092POPC   GL154625   1.399  44.681   5.815
 4092POPC   GL254626   1.638  44.518   5.998
 4092POPC   C1A54627   1.176  44.741   6.211
 4092POPC   D2A54628   1.015  44.596   6.597
 4092POPC   C3A54629   1.122  44.776   6.974
 4092POPC   C4A54630   1.174  44.585   7.359
 4092POPC   C1B54631   1.662  44.908   6.211
 4092POPC   C2B54632   1.508  44.864   6.616
 4092POPC   C3B54633   1.626  44.692   7.012
 4092POPC   C4B54634   1.525  44.946   7.324
 4093POPC   NC354635  32.001   2.528   5.209
 4093POPC   PO454636  32.664   2.621   5.387
 4093POPC   GL154637  32.302   2.665   5.649
 4093POPC   GL254638  32.004   2.856   5.619
 4093POPC   C1A54639  32.232   2.679   6.091
 4093POPC   D2A54640  32.368   2.570   6.507
 4093POPC   C3A54641  32.341   2.851   6.851
 4093POPC   C4A54642  32.199   2.470   7.104
 4093POPC   C1B54643  31.893   3.068   6.043
 4093POPC   C2B54644  31.978   3.012   6.487
 4093POPC   C3B54645  31.838   2.784   6.869
 4093POPC   C4B54646  32.024   2.935   7.262
 4094POPC   NC354647  31.999  37.005   5.308
 4094POPC   PO454648  32.642  36.838   5.214
 4094POPC   GL154649  32.357  36.749   5.604
 4094POPC   GL254650  32.188  37.059   5.749
 4094POPC   C1A54651  32.068  36.661   6.008
 4094POPC   D2A54652  32.016  36.694   6.470
 4094POPC   C3A54653  32.136  36.850   6.893
 4094POPC   C4A54654  32.292  36.758   7.312
 4094POPC   C1B54655  32.063  37.225   6.095
 4094POPC   C2B54656  32.142  37.207   6.505
 4094POPC   C3B54657  32.160  37.376   6.898
 4094POPC   C4B54658  32.107  37.219   7.279
 4095POPC   NC354659  36.889  10.060   5.357
 4095POPC   PO454660  36.930   9.426   5.436
 4095POPC   GL154661  36.899   9.697   5.781
 4095POPC   GL254662  36.578   9.826   5.722
 4095POPC   C1A54663  36.947   9.809   6.260
 4095POPC   D2A54664  37.064   9.544   6.630
 4095POPC   C3A54665  37.090   9.686   7.068
 4095POPC   C4A54666  36.775   9.894   7.354
 4095POPC   C1B54667  36.508   9.604   6.094
 4095POPC   C2B54668  36.600   9.413   6.465
 4095POPC   C3B54669  36.613   9.578   6.891
 4095POPC   C4B54670  36.728   9.395   7.296
 4096POPC   NC354671  17.470   8.515   5.353
 4096POPC   PO454672  17.961   8.011   5.558
 4096POPC   GL154673  17.611   8.182   5.833
 4096POPC   GL254674  17.548   8.554   5.854
 4096POPC   C1A54675  17.453   8.075   6.270
 4096POPC   D2A54676  17.611   7.959   6.694
 4096POPC   C3A54677  17.430   8.196   7.034
 4096POPC   C4A54678  17.263   8.034   7.440
 4096POPC   C1B54679  17.802   8.458   6.225
 4096POPC   C2B54680  17.946   8.343   6.642
 4096POPC   C3B54681  17.836   8.527   7.025
 4096POPC   C4B54682  17.631   8.514   7.403
 4097POPC   NC354683  14.625   1.637   5.441
 4097POPC   PO454684  14.285   2.216   5.464
 4097POPC   GL154685  14.333   1.926   5.766
 4097POPC   GL254686  14.694   2.025   5.767
 4097POPC   C1A54687  14.434   1.945   6.199
 4097POPC   D2A54688  14.352   1.760   6.547
 4097POPC   C3A54689  14.382   1.962   6.926
 4097POPC   C4A54690  14.282   1.825   7.332
 4097POPC   C1B54691  14.808   2.297   6.109
 4097POPC   C2B54692  14.603   2.324   6.522
 4097POPC   C3B54693  14.752   2.326   6.919
 4097POPC   C4B54694  14.832   2.135   7.267
 4098POPC   NC354695  36.338  15.492   5.294
 4098POPC   PO454696  36.230  14.849   5.547
 4098POPC   GL154697  36.441  14.997   5.925
 4098POPC   GL254698  36.469  15.329   5.796
 4098POPC   C1A54699  36.390  15.074   6.397
 4098POPC   D2A54700  36.352  15.046   6.857
 4098POPC   C3A54701  36.024  15.067   7.168
 4098POPC   C4A54702  35.931  14.795   7.510
 4098POPC   C1B54703  36.175  15.440   6.121
 4098POPC   C2B54704  35.972  15.389   6.554
 4098POPC   C3B54705  36.105  15.527   6.963
 4098POPC   C4B54706  36.422  15.422   7.278
 4099POPC   NC354707  15.098   5.716   5.100
 4099POPC   PO454708  15.297   6.120   5.451
 4099POPC   GL154709  15.360   5.742   5.692
 4099POPC   GL254710  15.643   5.762   5.895
 4099POPC   C1A54711  15.142   5.536   6.063
 4099POPC   D2A54712  14.911   5.755   6.410
 4099POPC   C3A54713  14.972   5.776   6.867
 4099POPC   C4A54714  14.995   5.734   7.301
 4099POPC   C1B54715  15.365   5.966   6.209
 4099POPC   C2B54716  15.421   5.966   6.676
 4099POPC   C3B54717  15.432   5.955   7.141
 4099POPC   C4B54718  15.233   6.135   7.510
 4100POPC   NC354719  36.054  33.874   5.221
 4100POPC   PO454720  36.205  34.535   5.446
 4100POPC   GL154721  36.109  34.450   5.858
 4100POPC   GL254722  35.768  34.293   5.926
 4100POPC   C1A54723  36.350  34.505   6.234
 4100POPC   D2A54724  36.317  34.680   6.644
 4100POPC   C3A54725  36.211  34.331   6.914
 4100POPC   C4A54726  36.152  34.315   7.360
 4100POPC   C1B54727  35.829  34.624   6.258
 4100POPC   C2B54728  35.810  34.787   6.690
 4100POPC   C3B54729  35.972  34.747   7.106
 4100POPC   C4B54730  35.852  34.774   7.555
 4101POPC   NC354731  33.533  18.859   5.549
 4101POPC   PO454732  34.033  19.249   5.407
 4101POPC   GL154733  33.893  19.145   5.794
 4101POPC   GL254734  33.557  19.317   5.769
 4101POPC   C1A54735  33.968  18.920   6.213
 4101POPC   D2A54736  34.012  18.713   6.640
 4101POPC   C3A54737  33.678  18.840   6.951
 4101POPC   C4A54738  33.728  18.990   7.354
 4101POPC   C1B54739  33.760  19.410   6.193
 4101POPC   C2B54740  33.738  19.231   6.611
 4101POPC   C3B54741  33.668  19.389   7.039
 4101POPC   C4B54742  33.816  19.467   7.489
 4102POPC   NC354743   5.309  44.241   5.502
 4102POPC   PO454744   4.863  43.769   5.444
 4102POPC   GL154745   5.021  43.913   5.836
 4102POPC   GL254746   4.797  44.138   5.923
 4102POPC   C1A54747   5.244  43.824   6.243
 4102POPC   D2A54748   5.359  44.028   6.643
 4102POPC   C3A54749   5.471  43.777   6.961
 4102POPC   C4A54750   5.406  43.896   7.355
 4102POPC   C1B54751   4.726  43.848   6.288
 4102POPC   C2B54752   4.957  43.706   6.642
 4102POPC   C3B54753   4.976  43.824   7.072
 4102POPC   C4B54754   4.869  43.928   7.480
 4103POPC   NC354755  24.829  39.733   5.383
 4103POPC   PO454756  24.331  40.037   5.606
 4103POPC   GL154757  24.560  39.962   6.003
 4103POPC   GL254758  24.882  39.864   5.920
 4103POPC   C1A54759  24.630  40.109   6.451
 4103POPC   D2A54760  24.366  40.151   6.796
 4103POPC   C3A54761  24.539  39.974   7.139
 4103POPC   C4A54762  24.383  39.676   7.427
 4103POPC   C1B54763  24.807  39.643   6.325
 4103POPC   C2B54764  24.739  39.691   6.781
 4103POPC   C3B54765  24.871  39.594   7.233
 4103POPC   C4B54766  24.803  39.626   7.715
 4104POPC   NC354767  15.469  15.153   5.250
 4104POPC   PO454768  14.922  15.429   5.159
 4104POPC   GL154769  15.167  15.286   5.621
 4104POPC   GL254770  15.474  15.365   5.743
 4104POPC   C1A54771  15.085  15.094   6.046
 4104POPC   D2A54772  14.929  15.251   6.453
 4104POPC   C3A54773  15.116  15.099   6.847
 4104POPC   C4A54774  15.009  15.265   7.251
 4104POPC   C1B54775  15.552  15.267   6.203
 4104POPC   C2B54776  15.390  15.448   6.583
 4104POPC   C3B54777  15.424  15.465   7.002
 4104POPC   C4B54778  15.613  15.460   7.367
 4105POPC   NC354779  26.847   7.505   5.152
 4105POPC   PO454780  26.964   7.986   5.568
 4105POPC   GL154781  26.994   7.697   5.895
 4105POPC   GL254782  26.661   7.594   5.903
 4105POPC   C1A54783  27.184   7.655   6.304
 4105POPC   D2A54784  27.121   7.451   6.706
 4105POPC   C3A54785  26.945   7.666   7.083
 4105POPC   C4A54786  26.979   7.642   7.530
 4105POPC   C1B54787  26.698   7.557   6.347
 4105POPC   C2B54788  26.594   7.443   6.783
 4105POPC   C3B54789  26.668   7.216   7.194
 4105POPC   C4B54790  26.639   7.301   7.690
 4106POPC   NC354791  39.557   8.335   5.362
 4106POPC   PO454792  39.058   7.861   5.508
 4106POPC   GL154793  39.251   8.142   5.753
 4106POPC   GL254794  39.595   8.080   5.842
 4106POPC   C1A54795  39.157   8.189   6.190
 4106POPC   D2A54796  39.307   8.407   6.567
 4106POPC   C3A54797  39.214   8.249   6.955
 4106POPC   C4A54798  38.965   8.492   7.187
 4106POPC   C1B54799  39.675   8.236   6.261
 4106POPC   C2B54800  39.675   8.049   6.698
 4106POPC   C3B54801  39.641   8.049   7.153
 4106POPC   C4B54802  39.407   7.870   7.558
 4107POPC   NC354803   4.340  34.246   5.284
 4107POPC   PO454804   3.909  34.768   5.397
 4107POPC   GL154805   4.174  34.581   5.760
 4107POPC   GL254806   4.489  34.760   5.863
 4107POPC   C1A54807   4.110  34.489   6.234
 4107POPC   D2A54808   4.342  34.283   6.606
 4107POPC   C3A54809   4.091  34.323   6.969
 4107POPC   C4A54810   3.924  34.683   7.208
 4107POPC   C1B54811   4.403  34.910   6.302
 4107POPC   C2B54812   4.201  34.796   6.710
 4107POPC   C3B54813   4.435  34.670   7.061
 4107POPC   C4B54814   4.689  34.924   7.202
 4108POPC   NC354815  27.231  28.973   5.275
 4108POPC   PO454816  26.661  28.852   5.545
 4108POPC   GL154817  26.805  29.078   5.895
 4108POPC   GL254818  27.143  29.016   5.797
 4108POPC   C1A54819  26.797  29.197   6.351
 4108POPC   D2A54820  26.609  29.497   6.667
 4108POPC   C3A54821  26.453  29.275   7.020
 4108POPC   C4A54822  26.677  29.054   7.376
 4108POPC   C1B54823  27.110  28.767   6.189
 4108POPC   C2B54824  26.972  28.776   6.619
 4108POPC   C3B54825  26.937  29.094   6.918
 4108POPC   C4B54826  27.189  29.145   7.310
 4109POPC   NC354827   0.012  44.595   5.616
 4109POPC   PO454828   0.619  44.712   5.368
 4109POPC   GL154829   0.465  44.871   5.792
 4109POPC   GL254830   0.130   0.057   5.798
 4109POPC   C1A54831   0.630  44.741   6.227
 4109POPC   D2A54832   0.619  44.322   6.455
 4109POPC   C3A54833   0.566  44.382   6.938
 4109POPC   C4A54834   0.683  44.721   7.266
 4109POPC   C1B54835   0.149  44.924   6.222
 4109POPC   C2B54836   0.286  44.922   6.641
 4109POPC   C3B54837   0.150  44.977   7.047
 4109POPC   C4B54838   0.168  44.620   7.254
 4110POPC   NC354839  32.034   9.475   5.115
 4110POPC   PO454840  31.925   9.981   5.548
 4110POPC   GL154841  32.111   9.900   5.917
 4110POPC   GL254842  32.448  10.031   5.865
 4110POPC   C1A54843  32.319   9.614   6.232
 4110POPC   D2A54844  32.458   9.444   6.640
 4110POPC   C3A54845  32.238   9.570   6.991
 4110POPC   C4A54846  31.924   9.852   7.095
 4110POPC   C1B54847  32.317  10.139   6.279
 4110POPC   C2B54848  32.150   9.952   6.619
 4110POPC   C3B54849  32.376  10.109   6.944
 4110POPC   C4B54850  32.499   9.898   7.286
 4111POPC   NC354851   8.548  15.450   5.516
 4111POPC   PO454852   8.047  14.946   5.622
 4111POPC   GL154853   8.313  15.135   5.974
 4111POPC   GL254854   8.347  15.479   5.984
 4111POPC   C1A54855   8.198  15.296   6.435
 4111POPC   D2A54856   7.906  15.096   6.715
 4111POPC   C3A54857   8.147  14.879   7.010
 4111POPC   C4A54858   8.384  15.047   7.311
 4111POPC   C1B54859   7.949  15.652   6.185
 4111POPC   C2B54860   7.994  15.782   6.597
 4111POPC   C3B54861   8.165  15.545   6.906
 4111POPC   C4B54862   8.378  15.547   7.276
 4112POPC   NC354863  44.431  39.412   5.326
 4112POPC   PO454864  44.934  38.998   5.213
 4112POPC   GL154865  44.881  39.313   5.674
 4112POPC   GL254866  44.545  39.467   5.796
 4112POPC   C1A54867  44.718  39.186   6.154
 4112POPC   D2A54868  44.513  39.037   6.520
 4112POPC   C3A54869  44.670  39.230   6.887
 4112POPC   C4A54870  44.728  39.046   7.277
 4112POPC   C1B54871  44.375  39.656   6.146
 4112POPC   C2B54872  44.508  39.590   6.538
 4112POPC   C3B54873  44.466  39.690   6.961
 4112POPC   C4B54874  44.385  39.443   7.324
 4113POPC   NC354875  14.995  26.169   5.516
 4113POPC   PO454876  15.622  26.286   5.733
 4113POPC   GL154877  15.271  26.132   5.946
 4113POPC   GL254878  15.014  26.389   5.977
 4113POPC   C1A54879  15.254  25.902   6.312
 4113POPC   D2A54880  15.396  25.753   6.690
 4113POPC   C3A54881  15.246  25.880   7.086
 4113POPC   C4A54882  15.410  25.754   7.458
 4113POPC   C1B54883  14.792  26.045   6.143
 4113POPC   C2B54884  14.789  25.824   6.511
 4113POPC   C3B54885  14.866  26.105   6.823
 4113POPC   C4B54886  14.813  26.179   7.233
 4114POPC   NC354887   9.179  40.652   5.571
 4114POPC   PO454888   8.602  40.787   5.214
 4114POPC   GL154889   8.686  40.745   5.691
 4114POPC   GL254890   8.870  41.022   5.782
 4114POPC   C1A54891   8.887  40.627   6.137
 4114POPC   D2A54892   9.109  40.519   6.545
 4114POPC   C3A54893   8.969  40.760   6.895
 4114POPC   C4A54894   9.005  40.694   7.324
 4114POPC   C1B54895   8.543  41.176   6.054
 4114POPC   C2B54896   8.405  41.192   6.498
 4114POPC   C3B54897   8.599  41.111   6.862
 4114POPC   C4B54898   8.524  40.885   7.240
 4115POPC   NC354899  37.552  41.240   5.343
 4115POPC   PO454900  37.704  41.863   5.164
 4115POPC   GL154901  37.811  41.755   5.679
 4115POPC   GL254902  37.730  41.471   5.747
 4115POPC   C1A54903  37.575  41.756   6.133
 4115POPC   D2A54904  37.395  41.791   6.569
 4115POPC   C3A54905  37.615  41.708   6.957
 4115POPC   C4A54906  37.435  41.710   7.380
 4115POPC   C1B54907  37.767  41.250   6.119
 4115POPC   C2B54908  37.581  41.311   6.505
 4115POPC   C3B54909  37.454  41.207   6.901
 4115POPC   C4B54910  37.684  41.262   7.275
 4116POPC   NC354911  30.884  16.245   5.625
 4116POPC   PO454912  30.239  15.872   5.558
 4116POPC   GL154913  30.546  15.924   5.865
 4116POPC   GL254914  30.842  15.700   5.779
 4116POPC   C1A54915  30.507  16.046   6.300
 4116POPC   D2A54916  30.674  16.203   6.692
 4116POPC   C3A54917  30.560  15.953   7.052
 4116POPC   C4A54918  30.559  16.081   7.480
 4116POPC   C1B54919  30.966  15.867   6.177
 4116POPC   C2B54920  30.872  15.739   6.596
 4116POPC   C3B54921  31.057  15.904   6.975
 4116POPC   C4B54922  31.043  15.898   7.455
 4117POPC   NC354923  16.248   4.569   5.422
 4117POPC   PO454924  15.691   4.259   5.440
 4117POPC   GL154925  15.991   4.228   5.750
 4117POPC   GL254926  15.943   4.532   5.911
 4117POPC   C1A54927  16.120   4.013   6.125
 4117POPC   D2A54928  16.105   4.269   6.483
 4117POPC   C3A54929  16.017   4.157   6.931
 4117POPC   C4A54930  16.319   4.004   7.213
 4117POPC   C1B54931  16.370   4.503   6.071
 4117POPC   C2B54932  16.532   4.610   6.488
 4117POPC   C3B54933  16.240   4.601   6.837
 4117POPC   C4B54934  16.258   4.518   7.278
 4118POPC   NC354935  38.289  32.373   5.415
 4118POPC   PO454936  37.870  31.763   5.463
 4118POPC   GL154937  38.270  31.972   5.730
 4118POPC   GL254938  38.604  32.224   5.873
 4118POPC   C1A54939  38.176  32.269   6.116
 4118POPC   D2A54940  38.467  32.316   6.444
 4118POPC   C3A54941  38.257  32.341   6.824
 4118POPC   C4A54942  38.380  32.426   7.213
 4118POPC   C1B54943  38.911  32.081   6.211
 4118POPC   C2B54944  38.798  31.941   6.642
 4118POPC   C3B54945  38.753  32.045   7.080
 4118POPC   C4B54946  38.818  32.031   7.526
 4119POPC   NC354947  17.921  15.696   5.715
 4119POPC   PO454948  17.395  15.287   5.545
 4119POPC   GL154949  17.672  15.218   5.852
 4119POPC   GL254950  17.620  15.447   6.100
 4119POPC   C1A54951  17.822  14.971   6.196
 4119POPC   D2A54952  17.628  15.123   6.554
 4119POPC   C3A54953  17.425  14.943   6.916
 4119POPC   C4A54954  17.616  14.855   7.304
 4119POPC   C1B54955  17.249  15.214   6.221
 4119POPC   C2B54956  17.083  15.237   6.643
 4119POPC   C3B54957  17.150  15.533   6.963
 4119POPC   C4B54958  17.456  15.367   7.250
 4120POPC   NC354959  36.771  31.242   5.447
 4120POPC   PO454960  37.113  31.815   5.380
 4120POPC   GL154961  37.034  31.557   5.767
 4120POPC   GL254962  37.219  31.262   5.852
 4120POPC   C1A54963  36.859  31.425   6.193
 4120POPC   D2A54964  36.932  31.558   6.626
 4120POPC   C3A54965  36.616  31.571   6.940
 4120POPC   C4A54966  36.683  31.541   7.381
 4120POPC   C1B54967  37.145  30.974   6.211
 4120POPC   C2B54968  36.991  31.039   6.631
 4120POPC   C3B54969  37.034  31.251   7.043
 4120POPC   C4B54970  37.345  31.153   7.354
 4121POPC   NC354971   3.758  44.259   5.527
 4121POPC   PO454972   3.198  43.870   5.409
 4121POPC   GL154973   3.532  43.859   5.793
 4121POPC   GL254974   3.718  43.555   5.814
 4121POPC   C1A54975   3.712  43.771   6.263
 4121POPC   D2A54976   3.797  43.841   6.732
 4121POPC   C3A54977   3.405  44.041   6.912
 4121POPC   C4A54978   3.066  43.978   7.235
 4121POPC   C1B54979   3.872  43.281   6.177
 4121POPC   C2B54980   3.752  43.252   6.606
 4121POPC   C3B54981   3.784  43.402   7.021
 4121POPC   C4B54982   3.658  43.756   7.246
 4122POPC   NC354983  18.821  30.519   5.332
 4122POPC   PO454984  19.291  31.083   5.389
 4122POPC   GL154985  19.151  30.753   5.735
 4122POPC   GL254986  18.800  30.652   5.836
 4122POPC   C1A54987  19.222  30.701   6.205
 4122POPC   D2A54988  19.082  30.586   6.644
 4122POPC   C3A54989  19.330  30.559   7.061
 4122POPC   C4A54990  19.068  30.378   7.466
 4122POPC   C1B54991  18.746  30.935   6.205
 4122POPC   C2B54992  18.607  30.853   6.623
 4122POPC   C3B54993  18.649  30.491   6.902
 4122POPC   C4B54994  18.869  30.700   7.140
 4123POPC   NC354995   8.000  18.546   5.406
 4123POPC   PO454996   8.339  18.010   5.478
 4123POPC   GL154997   8.308  18.358   5.766
 4123POPC   GL254998   7.992  18.405   5.919
 4123POPC   C1A54999   8.469  18.414   6.177
 4123POPC   D2A55000   8.392  18.222   6.559
 4123POPC   C3A55001   8.359  18.478   6.870
 4123POPC   C4A55002   8.349  18.331   7.250
 4123POPC   C1B55003   7.933  18.402   6.371
 4123POPC   C2B55004   7.866  18.330   6.803
 4123POPC   C3B55005   7.918  18.604   7.139
 4123POPC   C4B55006   8.045  18.568   7.584
 4124POPC   NC355007  35.608  20.478   5.416
 4124POPC   PO455008  35.043  20.435   5.134
 4124POPC   GL155009  35.157  20.614   5.629
 4124POPC   GL255010  35.505  20.789   5.787
 4124POPC   C1A55011  35.137  20.615   6.097
 4124POPC   D2A55012  35.288  20.334   6.443
 4124POPC   C3A55013  35.220  20.450   6.864
 4124POPC   C4A55014  35.106  20.719   7.178
 4124POPC   C1B55015  35.653  20.621   6.207
 4124POPC   C2B55016  35.590  20.712   6.668
 4124POPC   C3B55017  35.663  20.703   7.132
 4124POPC   C4B55018  35.831  20.824   7.566
 4125POPC   NC355019   2.516  13.894   5.284
 4125POPC   PO455020   2.080  13.924   5.673
 4125POPC   GL155021   2.496  13.839   5.831
 4125POPC   GL255022   2.857  13.877   5.825
 4125POPC   C1A55023   2.577  13.667   6.244
 4125POPC   D2A55024   2.688  13.723   6.692
 4125POPC   C3A55025   2.409  13.551   7.038
 4125POPC   C4A55026   2.319  13.218   7.368
 4125POPC   C1B55027   3.076  13.745   6.248
 4125POPC   C2B55028   3.193  13.669   6.718
 4125POPC   C3B55029   2.940  13.627   7.142
 4125POPC   C4B55030   2.975  13.610   7.640
 4126POPC   NC355031  29.751  13.392   5.072
 4126POPC   PO455032  29.717  13.868   5.418
 4126POPC   GL155033  29.836  13.712   5.782
 4126POPC   GL255034  29.528  13.734   5.934
 4126POPC   C1A55035  29.962  13.851   6.173
 4126POPC   D2A55036  30.077  13.691   6.556
 4126POPC   C3A55037  29.885  13.812   6.935
 4126POPC   C4A55038  29.911  13.672   7.339
 4126POPC   C1B55039  29.664  13.430   6.236
 4126POPC   C2B55040  29.645  13.439   6.654
 4126POPC   C3B55041  29.850  13.311   6.967
 4126POPC   C4B55042  29.610  13.274   7.315
 4127POPC   NC355043  12.524  14.392   5.454
 4127POPC   PO455044  13.177  14.753   5.512
 4127POPC   GL155045  12.863  14.692   5.848
 4127POPC   GL255046  12.787  14.355   5.897
 4127POPC   C1A55047  12.791  14.660   6.290
 4127POPC   D2A55048  13.004  14.399   6.575
 4127POPC   C3A55049  12.825  14.492   6.920
 4127POPC   C4A55050  12.943  14.440   7.302
 4127POPC   C1B55051  12.910  14.061   6.209
 4127POPC   C2B55052  12.841  13.890   6.640
 4127POPC   C3B55053  12.900  13.975   7.068
 4127POPC   C4B55054  12.595  14.007   7.363
 4128POPC   NC355055   1.012  17.420   5.542
 4128POPC   PO455056   1.642  17.116   5.580
 4128POPC   GL155057   1.393  17.382   5.918
 4128POPC   GL255058   1.273  17.756   5.904
 4128POPC   C1A55059   1.302  17.504   6.375
 4128POPC   D2A55060   1.290  17.799   6.761
 4128POPC   C3A55061   1.135  17.700   7.190
 4128POPC   C4A55062   0.945  17.305   7.252
 4128POPC   C1B55063   1.049  17.967   6.288
 4128POPC   C2B55064   0.784  18.006   6.701
 4128POPC   C3B55065   0.764  18.065   7.174
 4128POPC   C4B55066   0.935  18.025   7.655
 4129POPC   NC355067  44.268  19.646   5.062
 4129POPC   PO455068  43.816  20.115   5.298
 4129POPC   GL155069  43.729  19.962   5.783
 4129POPC   GL255070  43.794  19.595   5.787
 4129POPC   C1A55071  43.908  19.841   6.208
 4129POPC   D2A55072  43.781  19.734   6.630
 4129POPC   C3A55073  44.026  19.647   7.016
 4129POPC   C4A55074  44.134  19.909   7.354
 4129POPC   C1B55075  43.524  19.487   6.158
 4129POPC   C2B55076  43.381  19.371   6.582
 4129POPC   C3B55077  43.555  19.442   6.979
 4129POPC   C4B55078  43.603  19.685   7.324
 4130POPC   NC355079  31.236  14.662   5.169
 4130POPC   PO455080  31.617  14.204   5.508
 4130POPC   GL155081  31.359  14.412   5.788
 4130POPC   GL255082  31.656  14.434   6.026
 4130POPC   C1A55083  31.208  14.588   6.183
 4130POPC   D2A55084  31.428  14.725   6.563
 4130POPC   C3A55085  31.266  14.644   6.959
 4130POPC   C4A55086  31.273  14.399   7.337
 4130POPC   C1B55087  31.873  14.112   6.299
 4130POPC   C2B55088  31.954  14.040   6.742
 4130POPC   C3B55089  31.678  14.193   7.064
 4130POPC   C4B55090  31.721  14.239   7.507
 4131POPC   NC355091  22.847  44.102   5.566
 4131POPC   PO455092  23.157  43.453   5.456
 4131POPC   GL155093  23.211  43.760   5.812
 4131POPC   GL255094  23.161  44.132   5.977
 4131POPC   C1A55095  22.974  43.701   6.203
 4131POPC   D2A55096  22.775  43.531   6.562
 4131POPC   C3A55097  22.942  43.694   6.929
 4131POPC   C4A55098  23.099  43.618   7.314
 4131POPC   C1B55099  22.765  44.264   6.218
 4131POPC   C2B55100  22.611  44.099   6.618
 4131POPC   C3B55101  22.747  44.173   7.027
 4131POPC   C4B55102  23.057  44.283   7.325
 4132POPC   NC355103   7.116  34.375   5.746
 4132POPC   PO455104   7.151  34.922   5.419
 4132POPC   GL155105   7.405  34.798   5.822
 4132POPC   GL255106   7.630  34.477   5.805
 4132POPC   C1A55107   7.300  34.734   6.281
 4132POPC   D2A55108   7.104  34.877   6.656
 4132POPC   C3A55109   7.377  34.810   6.987
 4132POPC   C4A55110   7.407  34.377   7.071
 4132POPC   C1B55111   7.797  34.651   6.206
 4132POPC   C2B55112   7.681  34.496   6.629
 4132POPC   C3B55113   7.893  34.264   6.961
 4132POPC   C4B55114   7.842  34.454   7.356
 4133POPC   NC355115  31.091  29.952   5.507
 4133POPC   PO455116  30.352  29.820   5.380
 4133POPC   GL155117  30.601  29.924   5.730
 4133POPC   GL255118  30.621  30.269   5.594
 4133POPC   C1A55119  30.633  29.926   6.210
 4133POPC   D2A55120  30.436  29.834   6.646
 4133POPC   C3A55121  30.548  29.758   7.105
 4133POPC   C4A55122  30.723  29.881   7.528
 4133POPC   C1B55123  30.401  30.335   5.986
 4133POPC   C2B55124  30.465  30.376   6.453
 4133POPC   C3B55125  30.570  30.256   6.897
 4133POPC   C4B55126  30.892  30.278   7.206
 4134POPC   NC355127  27.821  26.698   5.539
 4134POPC   PO455128  27.254  26.463   5.564
 4134POPC   GL155129  27.303  26.752   5.945
 4134POPC   GL255130  27.638  26.828   6.023
 4134POPC   C1A55131  27.281  26.929   6.389
 4134POPC   D2A55132  27.485  27.043   6.794
 4134POPC   C3A55133  27.454  26.764   7.146
 4134POPC   C4A55134  27.335  26.817   7.570
 4134POPC   C1B55135  27.734  26.668   6.450
 4134POPC   C2B55136  27.881  26.684   6.855
 4134POPC   C3B55137  27.954  26.981   7.169
 4134POPC   C4B55138  27.927  26.729   7.516
 4135POPC   NC355139   3.479  34.630   5.287
 4135POPC   PO455140   3.343  33.919   5.318
 4135POPC   GL155141   3.255  34.258   5.705
 4135POPC   GL255142   3.372  34.606   5.810
 4135POPC   C1A55143   3.391  34.257   6.196
 4135POPC   D2A55144   3.299  34.194   6.672
 4135POPC   C3A55145   3.466  34.486   7.026
 4135POPC   C4A55146   3.465  34.622   7.519
 4135POPC   C1B55147   3.580  34.748   6.242
 4135POPC   C2B55148   3.562  34.933   6.700
 4135POPC   C3B55149   3.467  34.981   7.164
 4135POPC   C4B55150   3.787  35.054   7.529
 4136POPC   NC355151  43.798   6.733   5.331
 4136POPC   PO455152  44.275   7.113   5.734
 4136POPC   GL155153  44.089   6.666   5.766
 4136POPC   GL255154  43.717   6.580   5.813
 4136POPC   C1A55155  44.107   6.388   6.122
 4136POPC   D2A55156  44.148   6.621   6.511
 4136POPC   C3A55157  44.247   6.452   6.904
 4136POPC   C4A55158  44.115   6.671   7.275
 4136POPC   C1B55159  43.662   6.639   6.250
 4136POPC   C2B55160  43.654   6.387   6.610
 4136POPC   C3B55161  43.712   6.497   7.019
 4136POPC   C4B55162  43.676   6.944   7.130
 4137POPC   NC355163  26.337  24.978   5.489
 4137POPC   PO455164  25.897  25.454   5.178
 4137POPC   GL155165  25.846  25.479   5.666
 4137POPC   GL255166  26.004  25.176   5.810
 4137POPC   C1A55167  26.025  25.624   6.093
 4137POPC   D2A55168  26.290  25.589   6.461
 4137POPC   C3A55169  26.102  25.551   6.848
 4137POPC   C4A55170  26.013  25.410   7.238
 4137POPC   C1B55171  26.180  25.154   6.230
 4137POPC   C2B55172  26.292  25.100   6.677
 4137POPC   C3B55173  26.297  24.995   7.121
 4137POPC   C4B55174  25.923  24.884   7.333
 4138POPC   NC355175  36.024  18.783   5.470
 4138POPC   PO455176  36.573  19.154   5.456
 4138POPC   GL155177  36.302  19.072   5.794
 4138POPC   GL255178  36.458  18.742   5.802
 4138POPC   C1A55179  35.946  19.082   6.131
 4138POPC   D2A55180  35.775  18.980   6.553
 4138POPC   C3A55181  35.941  19.153   6.939
 4138POPC   C4A55182  36.064  19.049   7.354
 4138POPC   C1B55183  36.343  18.760   6.228
 4138POPC   C2B55184  36.305  18.921   6.627
 4138POPC   C3B55185  36.278  18.750   7.023
 4138POPC   C4B55186  36.483  18.734   7.417
 4139POPC   NC355187  23.280  12.070   5.258
 4139POPC   PO455188  23.815  12.349   5.272
 4139POPC   GL155189  23.715  12.056   5.631
 4139POPC   GL255190  23.433  11.804   5.662
 4139POPC   C1A55191  23.823  12.044   6.052
 4139POPC   D2A55192  23.710  12.092   6.481
 4139POPC   C3A55193  24.004  12.084   6.826
 4139POPC   C4A55194  24.038  11.915   7.236
 4139POPC   C1B55195  23.339  11.883   6.103
 4139POPC   C2B55196  23.304  11.808   6.560
 4139POPC   C3B55197  23.389  12.109   6.894
 4139POPC   C4B55198  23.407  12.000   7.305
 4140POPC   NC355199  29.198  26.323   5.326
 4140POPC   PO455200  28.769  25.699   5.323
 4140POPC   GL155201  28.919  25.983   5.630
 4140POPC   GL255202  29.248  26.009   5.732
 4140POPC   C1A55203  28.927  25.950   6.122
 4140POPC   D2A55204  29.159  25.796   6.533
 4140POPC   C3A55205  29.094  25.986   6.976
 4140POPC   C4A55206  29.151  26.111   7.446
 4140POPC   C1B55207  29.441  26.053   6.162
 4140POPC   C2B55208  29.589  26.055   6.626
 4140POPC   C3B55209  29.580  25.963   7.101
 4140POPC   C4B55210  29.663  26.231   7.474
 4141POPC   NC355211  16.470  31.539   5.395
 4141POPC   PO455212  16.942  31.084   5.480
 4141POPC   GL155213  16.595  31.124   5.718
 4141POPC   GL255214  16.845  31.036   5.980
 4141POPC   C1A55215  16.464  31.335   6.074
 4141POPC   D2A55216  16.712  31.199   6.456
 4141POPC   C3A55217  16.606  31.462   6.784
 4141POPC   C4A55218  16.557  31.383   7.172
 4141POPC   C1B55219  17.217  31.029   6.239
 4141POPC   C2B55220  17.208  30.954   6.663
 4141POPC   C3B55221  17.097  31.346   6.902
 4141POPC   C4B55222  17.058  31.452   7.330
 4142POPC   NC355223   2.842  44.139   5.506
 4142POPC   PO455224   2.678  43.482   5.532
 4142POPC   GL155225   2.824  43.733   5.838
 4142POPC   GL255226   3.123  43.564   5.866
 4142POPC   C1A55227   2.640  43.797   6.251
 4142POPC   D2A55228   2.457  43.618   6.623
 4142POPC   C3A55229   2.742  43.719   6.947
 4142POPC   C4A55230   2.608  43.760   7.358
 4142POPC   C1B55231   3.177  43.748   6.247
 4142POPC   C2B55232   3.376  43.603   6.616
 4142POPC   C3B55233   3.251  43.551   6.999
 4142POPC   C4B55234   3.027  43.467   7.336
 4143POPC   NC355235   0.895   9.059   5.445
 4143POPC   PO455236   1.243   8.519   5.433
 4143POPC   GL155237   1.374   8.744   5.803
 4143POPC   GL255238   1.240   9.099   5.835
 4143POPC   C1A55239   1.274   8.816   6.240
 4143POPC   D2A55240   1.532   9.036   6.486
 4143POPC   C3A55241   1.342   8.932   6.821
 4143POPC   C4A55242   1.425   8.935   7.206
 4143POPC   C1B55243   1.206   9.343   6.257
 4143POPC   C2B55244   1.220   9.419   6.724
 4143POPC   C3B55245   1.261   9.401   7.174
 4143POPC   C4B55246   1.070   9.456   7.590
 4144POPC   NC355247  34.164  14.187   5.485
 4144POPC   PO455248  34.684  14.515   5.476
 4144POPC   GL155249  34.693  14.349   5.899
 4144POPC   GL255250  34.485  14.016   5.907
 4144POPC   C1A55251  34.619  14.376   6.360
 4144POPC   D2A55252  34.397  14.326   6.751
 4144POPC   C3A55253  34.594  14.476   7.121
 4144POPC   C4A55254  34.923  14.544   7.410
 4144POPC   C1B55255  34.870  13.946   6.170
 4144POPC   C2B55256  35.003  14.051   6.585
 4144POPC   C3B55257  34.805  14.035   6.991
 4144POPC   C4B55258  34.374  13.980   7.136
 4145POPC   NC355259  22.492  40.639   5.605
 4145POPC   PO455260  22.067  41.205   5.454
 4145POPC   GL155261  22.152  41.083   5.861
 4145POPC   GL255262  22.502  41.093   5.871
 4145POPC   C1A55263  22.108  41.069   6.308
 4145POPC   D2A55264  22.238  40.808   6.681
 4145POPC   C3A55265  21.968  40.897   7.015
 4145POPC   C4A55266  21.595  41.144   7.178
 4145POPC   C1B55267  22.570  40.866   6.258
 4145POPC   C2B55268  22.763  40.861   6.655
 4145POPC   C3B55269  22.620  40.962   7.045
 4145POPC   C4B55270  22.386  40.701   7.269
 4146POPC   NC355271   1.115  28.134   4.980
 4146POPC   PO455272   1.040  28.635   5.382
 4146POPC   GL155273   1.243  28.475   5.750
 4146POPC   GL255274   1.384  28.713   6.002
 4146POPC   C1A55275   1.048  28.264   6.079
 4146POPC   D2A55276   0.981  28.185   6.506
 4146POPC   C3A55277   0.852  28.494   6.805
 4146POPC   C4A55278   1.015  28.542   7.213
 4146POPC   C1B55279   1.414  28.488   6.403
 4146POPC   C2B55280   1.361  28.418   6.842
 4146POPC   C3B55281   1.531  28.573   7.229
 4146POPC   C4B55282   1.483  28.581   7.688
 4147POPC   NC355283  16.105  37.907   5.322
 4147POPC   PO455284  15.617  37.457   5.367
 4147POPC   GL155285  15.948  37.613   5.722
 4147POPC   GL255286  15.745  37.601   6.014
 4147POPC   C1A55287  16.151  37.889   6.080
 4147POPC   D2A55288  16.025  37.797   6.516
 4147POPC   C3A55289  16.274  37.798   6.881
 4147POPC   C4A55290  16.217  37.754   7.336
 4147POPC   C1B55291  15.587  37.946   6.276
 4147POPC   C2B55292  15.516  37.757   6.676
 4147POPC   C3B55293  15.756  37.764   7.052
 4147POPC   C4B55294  15.745  37.937   7.483
 4148POPC   NC355295  40.076  17.481   5.352
 4148POPC   PO455296  39.534  17.015   5.393
 4148POPC   GL155297  39.623  17.414   5.740
 4148POPC   GL255298  39.999  17.547   5.835
 4148POPC   C1A55299  39.736  17.415   6.229
 4148POPC   D2A55300  39.808  17.229   6.644
 4148POPC   C3A55301  39.927  17.388   7.054
 4148POPC   C4A55302  40.053  17.320   7.454
 4148POPC   C1B55303  40.349  17.606   6.089
 4148POPC   C2B55304  40.231  17.516   6.473
 4148POPC   C3B55305  40.366  17.555   6.873
 4148POPC   C4B55306  40.487  17.578   7.288
 4149POPC   NC355307   5.038  25.920   5.383
 4149POPC   PO455308   4.979  26.525   5.524
 4149POPC   GL155309   5.012  26.234   5.941
 4149POPC   GL255310   4.978  25.841   5.879
 4149POPC   C1A55311   5.145  26.293   6.449
 4149POPC   D2A55312   5.377  25.954   6.730
 4149POPC   C3A55313   5.246  25.922   7.150
 4149POPC   C4A55314   5.121  26.237   7.466
 4149POPC   C1B55315   5.122  25.830   6.300
 4149POPC   C2B55316   4.882  25.856   6.692
 4149POPC   C3B55317   4.807  25.663   7.086
 4149POPC   C4B55318   4.892  25.774   7.490
 4150POPC   NC355319  43.700  36.911   5.435
 4150POPC   PO455320  43.870  36.340   5.508
 4150POPC   GL155321  43.883  36.678   5.847
 4150POPC   GL255322  44.048  37.038   5.802
 4150POPC   C1A55323  44.054  36.720   6.255
 4150POPC   D2A55324  43.929  36.467   6.588
 4150POPC   C3A55325  43.864  36.679   6.969
 4150POPC   C4A55326  44.097  36.960   7.209
 4150POPC   C1B55327  43.709  37.089   6.122
 4150POPC   C2B55328  43.656  36.934   6.549
 4150POPC   C3B55329  43.727  37.181   6.891
 4150POPC   C4B55330  43.600  37.330   7.256
 4151POPC   NC355331   9.302   9.481   5.329
 4151POPC   PO455332   8.764   9.759   5.409
 4151POPC   GL155333   8.663   9.998   5.814
 4151POPC   GL255334   8.995  10.114   5.885
 4151POPC   C1A55335   8.762   9.914   6.282
 4151POPC   D2A55336   8.736   9.741   6.694
 4151POPC   C3A55337   8.777   9.979   7.076
 4151POPC   C4A55338   8.803   9.799   7.487
 4151POPC   C1B55339   9.269   9.959   6.261
 4151POPC   C2B55340   9.255   9.783   6.724
 4151POPC   C3B55341   9.252   9.774   7.201
 4151POPC   C4B55342   9.478  10.018   7.528
 4152POPC   NC355343  28.953  42.744   5.512
 4152POPC   PO455344  29.354  43.229   5.266
 4152POPC   GL155345  29.216  43.173   5.694
 4152POPC   GL255346  29.360  42.833   5.804
 4152POPC   C1A55347  29.098  43.152   6.140
 4152POPC   D2A55348  29.222  42.966   6.529
 4152POPC   C3A55349  29.084  43.147   6.917
 4152POPC   C4A55350  29.411  43.158   7.188
 4152POPC   C1B55351  29.105  42.625   6.136
 4152POPC   C2B55352  28.848  42.599   6.500
 4152POPC   C3B55353  29.047  42.632   6.912
 4152POPC   C4B55354  28.983  42.803   7.305
 4153POPC   NC355355  29.142   2.041   5.310
 4153POPC   PO455356  28.639   1.571   5.389
 4153POPC   GL155357  28.779   1.863   5.757
 4153POPC   GL255358  29.116   2.015   5.814
 4153POPC   C1A55359  28.753   1.983   6.201
 4153POPC   D2A55360  28.807   1.771   6.599
 4153POPC   C3A55361  28.773   1.995   7.005
 4153POPC   C4A55362  28.994   1.936   7.412
 4153POPC   C1B55363  29.259   2.173   6.200
 4153POPC   C2B55364  29.104   2.170   6.599
 4153POPC   C3B55365  29.269   2.024   6.958
 4153POPC   C4B55366  29.379   2.243   7.309
 4154POPC   NC355367  44.491  33.820   5.515
 4154POPC   PO455368   0.068  34.208   5.559
 4154POPC   GL155369  44.958  33.822   5.813
 4154POPC   GL255370  44.642  33.955   5.973
 4154POPC   C1A55371  44.894  33.605   6.227
 4154POPC   D2A55372  44.683  33.754   6.600
 4154POPC   C3A55373  44.665  33.466   6.935
 4154POPC   C4A55374   0.103  33.471   7.101
 4154POPC   C1B55375  44.249  34.119   6.152
 4154POPC   C2B55376  44.317  34.130   6.590
 4154POPC   C3B55377  44.358  33.902   6.971
 4154POPC   C4B55378  44.785  33.898   7.149
 4155POPC   NC355379   7.431   7.539   5.346
 4155POPC   PO455380   7.768   7.026   5.458
 4155POPC   GL155381   7.551   7.314   5.772
 4155POPC   GL255382   7.596   7.715   5.822
 4155POPC   C1A55383   7.406   7.407   6.181
 4155POPC   D2A55384   7.454   7.505   6.599
 4155POPC   C3A55385   7.140   7.623   6.895
 4155POPC   C4A55386   7.211   7.429   7.289
 4155POPC   C1B55387   7.726   7.866   6.264
 4155POPC   C2B55388   7.829   7.814   6.731
 4155POPC   C3B55389   7.622   7.675   7.107
 4155POPC   C4B55390   7.473   7.839   7.520
 4156POPC   NC355391  30.291  33.597   5.245
 4156POPC   PO455392  29.715  33.868   5.463
 4156POPC   GL155393  29.603  33.810   5.862
 4156POPC   GL255394  29.967  33.876   5.909
 4156POPC   C1A55395  29.677  33.859   6.306
 4156POPC   D2A55396  29.955  33.835   6.631
 4156POPC   C3A55397  29.657  33.869   6.944
 4156POPC   C4A55398  29.618  33.586   7.258
 4156POPC   C1B55399  30.246  33.710   6.212
 4156POPC   C2B55400  30.446  33.578   6.588
 4156POPC   C3B55401  30.369  33.672   7.005
 4156POPC   C4B55402  30.117  34.002   7.125
 4157POPC   NC355403  44.620  18.458   5.565
 4157POPC   PO455404  44.982  17.935   5.401
 4157POPC   GL155405  44.688  17.918   5.788
 4157POPC   GL255406  44.319  18.055   5.788
 4157POPC   C1A55407  44.689  18.167   6.180
 4157POPC   D2A55408  44.916  18.407   6.506
 4157POPC   C3A55409  44.778  18.258   6.897
 4157POPC   C4A55410  44.800  18.132   7.309
 4157POPC   C1B55411  44.208  18.331   6.162
 4157POPC   C2B55412  44.384  18.323   6.571
 4157POPC   C3B55413  44.257  18.198   6.958
 4157POPC   C4B55414  44.337  18.303   7.388
 4158POPC   NC355415  29.704   1.441   5.264
 4158POPC   PO455416  30.010   0.898   5.099
 4158POPC   GL155417  29.968   1.089   5.572
 4158POPC   GL255418  29.986   1.463   5.676
 4158POPC   C1A55419  29.910   1.110   6.031
 4158POPC   D2A55420  29.940   1.033   6.487
 4158POPC   C3A55421  29.709   1.262   6.803
 4158POPC   C4A55422  29.932   1.415   7.154
 4158POPC   C1B55423  29.697   1.601   5.998
 4158POPC   C2B55424  29.729   1.644   6.439
 4158POPC   C3B55425  29.709   1.772   6.862
 4158POPC   C4B55426  29.489   1.663   7.240
 4159POPC   NC355427  42.923  41.512   5.142
 4159POPC   PO455428  42.403  41.683   5.481
 4159POPC   GL155429  42.536  41.713   5.889
 4159POPC   GL255430  42.522  41.361   5.882
 4159POPC   C1A55431  42.482  41.897   6.297
 4159POPC   D2A55432  42.152  41.927   6.577
 4159POPC   C3A55433  42.278  41.819   6.963
 4159POPC   C4A55434  42.056  41.465   7.207
 4159POPC   C1B55435  42.307  41.403   6.268
 4159POPC   C2B55436  42.431  41.372   6.699
 4159POPC   C3B55437  42.563  41.437   7.124
 4159POPC   C4B55438  42.431  41.212   7.483
 4160POPC   NC355439   4.507  23.747   5.435
 4160POPC   PO455440   3.988  23.630   5.554
 4160POPC   GL155441   4.338  23.507   5.868
 4160POPC   GL255442   4.609  23.743   5.945
 4160POPC   C1A55443   4.373  23.516   6.347
 4160POPC   D2A55444   4.468  23.833   6.684
 4160POPC   C3A55445   4.297  23.788   7.118
 4160POPC   C4A55446   4.213  23.634   7.549
 4160POPC   C1B55447   4.905  23.859   6.286
 4160POPC   C2B55448   4.947  24.063   6.690
 4160POPC   C3B55449   4.764  24.029   7.080
 4160POPC   C4B55450   4.695  23.817   7.451
 4161POPC   NC355451   2.539   9.686   5.553
 4161POPC   PO455452   3.050   9.446   5.582
 4161POPC   GL155453   2.948   9.373   5.996
 4161POPC   GL255454   2.631   9.553   6.027
 4161POPC   C1A55455   2.868   9.349   6.435
 4161POPC   D2A55456   2.546   9.531   6.682
 4161POPC   C3A55457   2.697   9.562   7.078
 4161POPC   C4A55458   3.036   9.755   7.252
 4161POPC   C1B55459   2.719   9.859   6.325
 4161POPC   C2B55460   2.676  10.040   6.734
 4161POPC   C3B55461   2.651  10.080   7.173
 4161POPC   C4B55462   2.585   9.816   7.539
 4162POPC   NC355463  32.386  40.883   5.449
 4162POPC   PO455464  31.741  40.777   5.202
 4162POPC   GL155465  31.837  40.779   5.698
 4162POPC   GL255466  32.171  40.724   5.864
 4162POPC   C1A55467  31.786  40.660   6.168
 4162POPC   D2A55468  32.074  40.806   6.490
 4162POPC   C3A55469  31.991  40.678   6.929
 4162POPC   C4A55470  32.034  40.938   7.289
 4162POPC   C1B55471  32.477  40.625   6.207
 4162POPC   C2B55472  32.427  40.490   6.658
 4162POPC   C3B55473  32.465  40.870   6.911
 4162POPC   C4B55474  32.562  40.924   7.323
 4163POPC   NC355475  18.989  14.095   5.618
 4163POPC   PO455476  19.321  13.691   5.172
 4163POPC   GL155477  19.150  13.555   5.621
 4163POPC   GL255478  19.326  13.733   5.895
 4163POPC   C1A55479  19.052  13.322   6.076
 4163POPC   D2A55480  19.221  13.285   6.562
 4163POPC   C3A55481  18.999  13.258   7.001
 4163POPC   C4A55482  18.765  13.606   7.233
 4163POPC   C1B55483  19.611  13.875   6.260
 4163POPC   C2B55484  19.601  13.821   6.717
 4163POPC   C3B55485  19.234  13.716   6.968
 4163POPC   C4B55486  19.237  13.602   7.425
 4164POPC   NC355487  35.984  23.199   5.445
 4164POPC   PO455488  36.607  23.122   5.617
 4164POPC   GL155489  36.248  23.125   5.906
 4164POPC   GL255490  35.968  22.895   5.867
 4164POPC   C1A55491  36.200  23.110   6.348
 4164POPC   D2A55492  36.043  23.228   6.741
 4164POPC   C3A55493  36.293  23.104   7.073
 4164POPC   C4A55494  36.459  22.738   7.239
 4164POPC   C1B55495  35.980  22.661   6.224
 4164POPC   C2B55496  36.014  22.717   6.658
 4164POPC   C3B55497  35.981  22.691   7.084
 4164POPC   C4B55498  35.776  23.034   7.317
 4165POPC   NC355499  30.060  17.174   5.498
 4165POPC   PO455500  29.624  17.659   5.367
 4165POPC   GL155501  29.824  17.586   5.746
 4165POPC   GL255502  30.201  17.572   5.804
 4165POPC   C1A55503  29.826  17.601   6.175
 4165POPC   D2A55504  29.931  17.724   6.569
 4165POPC   C3A55505  29.687  17.888   6.889
 4165POPC   C4A55506  29.721  17.722   7.284
 4165POPC   C1B55507  30.216  17.259   6.157
 4165POPC   C2B55508  30.259  17.322   6.610
 4165POPC   C3B55509  29.995  17.401   6.964
 4165POPC   C4B55510  29.774  17.078   7.120
 4166POPC   NC355511  17.172   9.108   5.556
 4166POPC   PO455512  17.833   8.911   5.476
 4166POPC   GL155513  17.620   9.083   5.852
 4166POPC   GL255514  17.682   9.455   5.854
 4166POPC   C1A55515  17.476   8.864   6.252
 4166POPC   D2A55516  17.451   8.530   6.600
 4166POPC   C3A55517  17.333   8.727   6.986
 4166POPC   C4A55518  17.244   9.166   7.113
 4166POPC   C1B55519  17.771   9.299   6.301
 4166POPC   C2B55520  17.543   9.147   6.684
 4166POPC   C3B55521  17.734   9.032   7.078
 4166POPC   C4B55522  17.916   9.225   7.428
 4167POPC   NC355523  39.950  43.794   5.513
 4167POPC   PO455524  40.268  44.285   5.144
 4167POPC   GL155525  40.321  44.106   5.655
 4167POPC   GL255526  40.382  43.696   5.740
 4167POPC   C1A55527  40.389  44.050   6.142
 4167POPC   D2A55528  40.350  43.913   6.610
 4167POPC   C3A55529  39.953  43.999   6.896
 4167POPC   C4A55530  39.801  43.779   7.300
 4167POPC   C1B55531  40.149  43.570   6.146
 4167POPC   C2B55532  40.081  43.364   6.560
 4167POPC   C3B55533  40.139  43.543   6.991
 4167POPC   C4B55534  40.362  43.924   7.190
 4168POPC   NC355535  13.030   2.270   5.464
 4168POPC   PO455536  12.581   1.691   5.448
 4168POPC   GL155537  12.772   1.954   5.774
 4168POPC   GL255538  12.713   2.293   5.964
 4168POPC   C1A55539  13.048   1.969   6.123
 4168POPC   D2A55540  13.104   1.894   6.529
 4168POPC   C3A55541  12.942   2.053   6.904
 4168POPC   C4A55542  13.079   1.884   7.270
 4168POPC   C1B55543  12.530   1.986   6.249
 4168POPC   C2B55544  12.545   1.840   6.665
 4168POPC   C3B55545  12.448   2.016   7.074
 4168POPC   C4B55546  12.693   2.339   7.262
 4169POPC   NC355547   4.296  32.789   5.718
 4169POPC   PO455548   4.029  33.392   5.518
 4169POPC   GL155549   4.020  33.186   5.899
 4169POPC   GL255550   4.387  33.236   5.923
 4169POPC   C1A55551   4.157  33.008   6.318
 4169POPC   D2A55552   4.352  33.215   6.678
 4169POPC   C3A55553   4.174  33.158   7.098
 4169POPC   C4A55554   4.032  33.377   7.471
 4169POPC   C1B55555   4.682  33.093   6.223
 4169POPC   C2B55556   4.822  32.990   6.628
 4169POPC   C3B55557   4.711  33.073   7.043
 4169POPC   C4B55558   4.501  32.805   7.293
 4170POPC   NC355559  13.002  28.511   5.489
 4170POPC   PO455560  12.906  27.868   5.544
 4170POPC   GL155561  13.168  28.187   5.882
 4170POPC   GL255562  13.373  28.563   5.806
 4170POPC   C1A55563  13.201  28.179   6.390
 4170POPC   D2A55564  12.917  28.243   6.762
 4170POPC   C3A55565  12.873  28.222   7.210
 4170POPC   C4A55566  12.919  28.231   7.692
 4170POPC   C1B55567  13.150  28.640   6.184
 4170POPC   C2B55568  13.104  28.694   6.617
 4170POPC   C3B55569  12.964  28.718   7.040
 4170POPC   C4B55570  13.155  28.598   7.425
 4171POPC   NC355571   3.317  21.548   5.685
 4171POPC   PO455572   3.631  20.939   5.579
 4171POPC   GL155573   3.601  21.183   5.938
 4171POPC   GL255574   3.749  21.514   5.943
 4171POPC   C1A55575   3.628  21.267   6.383
 4171POPC   D2A55576   3.829  21.353   6.793
 4171POPC   C3A55577   3.493  21.335   7.127
 4171POPC   C4A55578   3.362  21.135   7.498
 4171POPC   C1B55579   3.749  21.783   6.275
 4171POPC   C2B55580   3.854  21.904   6.654
 4171POPC   C3B55581   3.628  21.825   6.992
 4171POPC   C4B55582   3.883  21.683   7.306
 4172POPC   NC355583  39.783  36.492   5.505
 4172POPC   PO455584  39.225  36.181   5.337
 4172POPC   GL155585  39.191  36.039   5.779
 4172POPC   GL255586  39.447  36.248   5.832
 4172POPC   C1A55587  39.288  35.873   6.229
 4172POPC   D2A55588  39.087  35.964   6.621
 4172POPC   C3A55589  39.297  35.897   7.002
 4172POPC   C4A55590  39.092  35.987   7.414
 4172POPC   C1B55591  39.229  36.383   6.212
 4172POPC   C2B55592  39.370  36.409   6.645
 4172POPC   C3B55593  39.215  36.394   7.063
 4172POPC   C4B55594  39.427  36.362   7.429
 4173POPC   NC355595  10.603   0.741   5.640
 4173POPC   PO455596  10.936   1.225   5.267
 4173POPC   GL155597  10.626   1.254   5.642
 4173POPC   GL255598  10.892   1.191   5.859
 4173POPC   C1A55599  10.387   1.184   6.105
 4173POPC   D2A55600  10.404   1.418   6.522
 4173POPC   C3A55601  10.386   1.246   6.959
 4173POPC   C4A55602  10.537   1.365   7.357
 4173POPC   C1B55603  10.858   1.085   6.303
 4173POPC   C2B55604  10.861   1.124   6.760
 4173POPC   C3B55605  10.876   1.030   7.181
 4173POPC   C4B55606  10.821   1.054   7.654
 4174POPC   NC355607  19.400   8.160   5.349
 4174POPC   PO455608  19.727   7.908   5.868
 4174POPC   GL155609  19.765   8.293   6.069
 4174POPC   GL255610  19.474   8.381   5.867
 4174POPC   C1A55611  19.776   8.270   6.492
 4174POPC   D2A55612  19.759   7.909   6.702
 4174POPC   C3A55613  20.075   7.921   6.959
 4174POPC   C4A55614  20.102   7.724   7.329
 4174POPC   C1B55615  19.324   8.443   6.285
 4174POPC   C2B55616  19.443   8.553   6.723
 4174POPC   C3B55617  19.796   8.342   7.041
 4174POPC   C4B55618  19.751   8.426   7.506
 4175POPC   NC355619  11.890  13.023   5.226
 4175POPC   PO455620  12.194  12.473   5.364
 4175POPC   GL155621  12.124  12.859   5.648
 4175POPC   GL255622  11.765  12.891   5.760
 4175POPC   C1A55623  12.176  12.889   6.097
 4175POPC   D2A55624  11.997  12.922   6.512
 4175POPC   C3A55625  12.170  12.771   6.899
 4175POPC   C4A55626  12.362  12.760   7.317
 4175POPC   C1B55627  11.688  13.151   6.145
 4175POPC   C2B55628  11.717  13.352   6.570
 4175POPC   C3B55629  11.723  13.067   6.926
 4175POPC   C4B55630  11.832  12.809   7.296
 4176POPC   NC355631  43.100   5.235   5.347
 4176POPC   PO455632  43.286   4.586   5.430
 4176POPC   GL155633  43.107   4.904   5.750
 4176POPC   GL255634  43.294   5.253   5.800
 4176POPC   C1A55635  42.994   5.065   6.184
 4176POPC   D2A55636  42.986   4.863   6.619
 4176POPC   C3A55637  42.973   4.950   7.072
 4176POPC   C4A55638  42.748   4.942   7.458
 4176POPC   C1B55639  43.278   5.562   6.136
 4176POPC   C2B55640  43.414   5.742   6.531
 4176POPC   C3B55641  43.510   5.573   6.948
 4176POPC   C4B55642  43.325   5.292   7.263
 4177POPC   NC355643   6.769  37.584   5.351
 4177POPC   PO455644   6.290  37.787   5.693
 4177POPC   GL155645   6.660  37.695   5.870
 4177POPC   GL255646   6.904  37.956   5.823
 4177POPC   C1A55647   6.538  37.589   6.286
 4177POPC   D2A55648   6.504  37.853   6.609
 4177POPC   C3A55649   6.620  37.631   6.964
 4177POPC   C4A55650   6.509  37.651   7.410
 4177POPC   C1B55651   6.941  37.911   6.271
 4177POPC   C2B55652   7.016  37.842   6.706
 4177POPC   C3B55653   6.798  38.082   7.048
 4177POPC   C4B55654   6.808  38.058   7.476
 4178POPC   NC355655  17.000  35.729   5.528
 4178POPC   PO455656  16.968  36.300   5.150
 4178POPC   GL155657  16.809  36.252   5.633
 4178POPC   GL255658  16.611  35.953   5.781
 4178POPC   C1A55659  16.848  36.318   6.112
 4178POPC   D2A55660  16.579  36.266   6.502
 4178POPC   C3A55661  16.751  36.248   6.943
 4178POPC   C4A55662  16.524  36.369   7.323
 4178POPC   C1B55663  16.444  35.829   6.207
 4178POPC   C2B55664  16.619  35.777   6.654
 4178POPC   C3B55665  16.586  35.777   7.095
 4178POPC   C4B55666  16.765  35.939   7.438
 4179POPC   NC355667   7.684  20.190   5.445
 4179POPC   PO455668   7.738  19.529   5.586
 4179POPC   GL155669   7.452  19.734   5.863
 4179POPC   GL255670   7.306  20.035   5.795
 4179POPC   C1A55671   7.282  19.781   6.283
 4179POPC   D2A55672   7.249  19.464   6.610
 4179POPC   C3A55673   7.103  19.652   6.950
 4179POPC   C4A55674   7.406  19.738   7.211
 4179POPC   C1B55675   7.491  20.240   6.142
 4179POPC   C2B55676   7.664  20.251   6.542
 4179POPC   C3B55677   7.441  20.124   6.887
 4179POPC   C4B55678   7.260  20.261   7.257
 4180POPC   NC355679  23.232  14.324   5.370
 4180POPC   PO455680  22.809  14.851   5.332
 4180POPC   GL155681  22.991  14.646   5.671
 4180POPC   GL255682  22.712  14.519   5.796
 4180POPC   C1A55683  23.199  14.383   6.026
 4180POPC   D2A55684  23.122  14.363   6.484
 4180POPC   C3A55685  23.266  14.557   6.849
 4180POPC   C4A55686  23.076  14.626   7.283
 4180POPC   C1B55687  22.676  14.329   6.212
 4180POPC   C2B55688  22.684  14.125   6.618
 4180POPC   C3B55689  22.894  14.237   7.004
 4180POPC   C4B55690  22.867  14.197   7.482
 4181POPC   NC355691   5.781   1.264   5.530
 4181POPC   PO455692   5.446   0.584   5.470
 4181POPC   GL155693   5.699   0.866   5.858
 4181POPC   GL255694   6.009   1.151   5.972
 4181POPC   C1A55695   5.676   1.056   6.312
 4181POPC   D2A55696   5.564   1.204   6.734
 4181POPC   C3A55697   5.822   1.116   7.082
 4181POPC   C4A55698   6.280   1.114   7.032
 4181POPC   C1B55699   5.864   1.561   6.142
 4181POPC   C2B55700   5.760   1.647   6.559
 4181POPC   C3B55701   6.021   1.583   6.922
 4181POPC   C4B55702   6.087   1.505   7.347
 4182POPC   NC355703   2.550  38.285   5.401
 4182POPC   PO455704   2.351  38.879   5.402
 4182POPC   GL155705   2.512  38.639   5.773
 4182POPC   GL255706   2.826  38.446   5.863
 4182POPC   C1A55707   2.347  38.379   6.114
 4182POPC   D2A55708   2.578  38.422   6.480
 4182POPC   C3A55709   2.610  38.301   6.881
 4182POPC   C4A55710   2.933  38.494   7.145
 4182POPC   C1B55711   2.922  38.139   6.228
 4182POPC   C2B55712   2.921  37.883   6.632
 4182POPC   C3B55713   2.989  37.990   7.079
 4182POPC   C4B55714   2.929  37.869   7.550
 4183POPC   NC355715  30.919  20.278   5.572
 4183POPC   PO455716  30.494  19.777   5.403
 4183POPC   GL155717  30.633  19.747   5.871
 4183POPC   GL255718  30.592  20.092   5.895
 4183POPC   C1A55719  30.735  19.595   6.304
 4183POPC   D2A55720  30.921  19.687   6.714
 4183POPC   C3A55721  30.675  19.536   7.078
 4183POPC   C4A55722  30.383  19.571   7.483
 4183POPC   C1B55723  30.847  20.091   6.255
 4183POPC   C2B55724  30.709  20.171   6.653
 4183POPC   C3B55725  30.873  20.072   7.048
 4183POPC   C4B55726  30.814  19.882   7.448
 4184POPC   NC355727  16.250  10.611   5.522
 4184POPC   PO455728  15.698  10.270   5.407
 4184POPC   GL155729  15.834  10.502   5.799
 4184POPC   GL255730  16.137  10.375   5.956
 4184POPC   C1A55731  15.787  10.606   6.253
 4184POPC   D2A55732  15.656  10.450   6.674
 4184POPC   C3A55733  15.716  10.684   7.038
 4184POPC   C4A55734  16.117  10.786   7.210
 4184POPC   C1B55735  16.309  10.574   6.349
 4184POPC   C2B55736  16.264  10.475   6.803
 4184POPC   C3B55737  16.249  10.278   7.222
 4184POPC   C4B55738  16.335  10.113   7.665
 4185POPC   NC355739  29.336  21.910   5.406
 4185POPC   PO455740  29.093  22.430   5.177
 4185POPC   GL155741  28.958  22.167   5.622
 4185POPC   GL255742  29.242  22.005   5.911
 4185POPC   C1A55743  28.815  22.173   6.082
 4185POPC   D2A55744  29.056  22.033   6.475
 4185POPC   C3A55745  28.793  22.060   6.874
 4185POPC   C4A55746  28.888  22.287   7.222
 4185POPC   C1B55747  29.394  21.600   6.133
 4185POPC   C2B55748  29.253  21.488   6.565
 4185POPC   C3B55749  29.237  21.823   6.912
 4185POPC   C4B55750  29.468  21.957   7.288
 4186POPC   NC355751   6.357  17.678   5.593
 4186POPC   PO455752   5.844  17.223   5.503
 4186POPC   GL155753   5.917  17.451   5.840
 4186POPC   GL255754   5.926  17.804   5.858
 4186POPC   C1A55755   5.733  17.484   6.237
 4186POPC   D2A55756   5.881  17.525   6.637
 4186POPC   C3A55757   5.676  17.324   6.969
 4186POPC   C4A55758   5.828  17.357   7.377
 4186POPC   C1B55759   6.123  17.828   6.282
 4186POPC   C2B55760   6.092  17.975   6.728
 4186POPC   C3B55761   6.294  17.827   7.092
 4186POPC   C4B55762   6.159  17.735   7.517
 4187POPC   NC355763   0.652  16.492   5.445
 4187POPC   PO455764   0.069  16.944   5.457
 4187POPC   GL155765   0.438  16.854   5.714
 4187POPC   GL255766   0.264  16.606   5.838
 4187POPC   C1A55767   0.694  16.752   6.105
 4187POPC   D2A55768   0.486  16.669   6.510
 4187POPC   C3A55769   0.678  16.638   6.920
 4187POPC   C4A55770   0.439  16.532   7.257
 4187POPC   C1B55771   0.180  16.919   6.142
 4187POPC   C2B55772   0.049  16.933   6.553
 4187POPC   C3B55773   0.190  16.841   6.950
 4187POPC   C4B55774   0.044  16.905   7.386
 4188POPC   NC355775  13.776  44.214   5.367
 4188POPC   PO455776  13.194  44.490   5.233
 4188POPC   GL155777  13.494  44.535   5.662
 4188POPC   GL255778  13.828  44.467   5.804
 4188POPC   C1A55779  13.533  44.828   6.049
 4188POPC   D2A55780  13.508   0.070   6.467
 4188POPC   C3A55781  13.715  44.884   6.856
 4188POPC   C4A55782  13.494  44.751   7.250
 4188POPC   C1B55783  13.989  44.488   6.209
 4188POPC   C2B55784  14.047  44.531   6.648
 4188POPC   C3B55785  13.682  44.391   6.885
 4188POPC   C4B55786  13.687  44.247   7.266
 4189POPC   NC355787  44.850  25.766   5.408
 4189POPC   PO455788  44.250  25.637   5.466
 4189POPC   GL155789  44.424  25.892   5.836
 4189POPC   GL255790  44.379  26.241   5.916
 4189POPC   C1A55791  44.449  25.878   6.319
 4189POPC   D2A55792  44.380  25.693   6.768
 4189POPC   C3A55793  44.441  25.936   7.137
 4189POPC   C4A55794  44.801  26.173   7.183
 4189POPC   C1B55795  44.255  26.352   6.354
 4189POPC   C2B55796  44.308  26.269   6.787
 4189POPC   C3B55797  44.407  26.488   7.176
 4189POPC   C4B55798  44.573  26.464   7.605
 4190POPC   NC355799  34.772  21.476   5.447
 4190POPC   PO455800  34.316  21.023   5.412
 4190POPC   GL155801  34.401  21.360   5.765
 4190POPC   GL255802  34.734  21.341   5.926
 4190POPC   C1A55803  34.409  21.556   6.218
 4190POPC   D2A55804  34.653  21.392   6.584
 4190POPC   C3A55805  34.473  21.384   7.007
 4190POPC   C4A55806  34.404  21.526   7.430
 4190POPC   C1B55807  34.880  21.061   6.226
 4190POPC   C2B55808  35.022  20.864   6.594
 4190POPC   C3B55809  34.929  21.118   6.932
 4190POPC   C4B55810  34.893  21.286   7.326
 4191POPC   NC355811  23.928  41.836   5.396
 4191POPC   PO455812  23.736  41.240   5.510
 4191POPC   GL155813  23.769  41.444   5.875
 4191POPC   GL255814  23.550  41.718   5.824
 4191POPC   C1A55815  23.768  41.464   6.321
 4191POPC   D2A55816  23.917  41.367   6.715
 4191POPC   C3A55817  23.633  41.250   7.069
 4191POPC   C4A55818  24.006  41.444   7.236
 4191POPC   C1B55819  23.309  41.645   6.238
 4191POPC   C2B55820  23.421  41.543   6.685
 4191POPC   C3B55821  23.618  41.745   7.036
 4191POPC   C4B55822  23.434  41.994   7.356
 4192POPC   NC355823  18.524   4.424   5.382
 4192POPC   PO455824  18.006   4.068   5.289
 4192POPC   GL155825  18.077   4.212   5.709
 4192POPC   GL255826  18.132   4.573   5.712
 4192POPC   C1A55827  18.221   4.225   6.154
 4192POPC   D2A55828  18.014   4.346   6.554
 4192POPC   C3A55829  18.058   4.173   6.966
 4192POPC   C4A55830  18.213   4.267   7.342
 4192POPC   C1B55831  18.382   4.714   6.049
 4192POPC   C2B55832  18.442   4.649   6.486
 4192POPC   C3B55833  18.355   4.608   6.912
 4192POPC   C4B55834  18.527   4.678   7.304
 4193POPC   NC355835  25.467  31.838   5.410
 4193POPC   PO455836  25.109  31.233   5.385
 4193POPC   GL155837  25.181  31.500   5.731
 4193POPC   GL255838  25.552  31.419   5.721
 4193POPC   C1A55839  25.296  31.388   6.168
 4193POPC   D2A55840  25.230  31.125   6.522
 4193POPC   C3A55841  25.227  31.303   6.903
 4193POPC   C4A55842  25.210  31.527   7.270
 4193POPC   C1B55843  25.684  31.724   6.054
 4193POPC   C2B55844  25.562  31.736   6.478
 4193POPC   C3B55845  25.365  31.785   6.842
 4193POPC   C4B55846  25.532  31.925   7.206
 4194POPC   NC355847  18.906  39.304   5.369
 4194POPC   PO455848  18.847  38.616   5.330
 4194POPC   GL155849  18.861  38.925   5.726
 4194POPC   GL255850  18.989  39.277   5.874
 4194POPC   C1A55851  18.709  38.988   6.167
 4194POPC   D2A55852  18.750  39.104   6.626
 4194POPC   C3A55853  19.165  39.060   6.863
 4194POPC   C4A55854  19.338  38.938   7.260
 4194POPC   C1B55855  19.153  39.230   6.299
 4194POPC   C2B55856  19.070  39.509   6.644
 4194POPC   C3B55857  18.849  39.493   6.999
 4194POPC   C4B55858  19.184  39.443   7.231
 4195POPC   NC355859  18.559  25.817   5.173
 4195POPC   PO455860  19.139  25.883   5.437
 4195POPC   GL155861  19.291  25.991   5.813
 4195POPC   GL255862  19.162  25.737   5.965
 4195POPC   C1A55863  19.141  26.290   6.097
 4195POPC   D2A55864  19.319  26.373   6.490
 4195POPC   C3A55865  19.158  26.185   6.847
 4195POPC   C4A55866  19.459  26.278   7.189
 4195POPC   C1B55867  19.134  25.866   6.390
 4195POPC   C2B55868  18.951  25.599   6.667
 4195POPC   C3B55869  19.024  25.641   7.078
 4195POPC   C4B55870  19.060  25.979   7.324
 4196POPC   NC355871   6.958   2.650   5.261
 4196POPC   PO455872   6.309   2.592   5.367
 4196POPC   GL155873   6.504   2.786   5.742
 4196POPC   GL255874   6.873   2.718   5.769
 4196POPC   C1A55875   6.506   2.675   6.188
 4196POPC   D2A55876   6.302   2.415   6.498
 4196POPC   C3A55877   6.286   2.601   6.895
 4196POPC   C4A55878   6.427   2.456   7.277
 4196POPC   C1B55879   7.020   2.607   6.178
 4196POPC   C2B55880   6.960   2.466   6.610
 4196POPC   C3B55881   6.811   2.662   6.977
 4196POPC   C4B55882   6.545   2.960   7.206
 4197POPC   NC355883  38.142  23.983   5.271
 4197POPC   PO455884  38.791  23.741   5.489
 4197POPC   GL155885  38.620  23.692   5.872
 4197POPC   GL255886  38.544  24.002   5.923
 4197POPC   C1A55887  38.705  23.719   6.327
 4197POPC   D2A55888  38.460  23.804   6.739
 4197POPC   C3A55889  38.691  23.813   7.157
 4197POPC   C4A55890  38.628  24.000   7.580
 4197POPC   C1B55891  38.365  24.153   6.331
 4197POPC   C2B55892  38.306  24.305   6.763
 4197POPC   C3B55893  38.328  24.183   7.198
 4197POPC   C4B55894  38.089  24.007   7.529
 4198POPC   NC355895  40.271  20.807   5.531
 4198POPC   PO455896  39.723  20.415   5.450
 4198POPC   GL155897  39.726  20.700   5.808
 4198POPC   GL255898  40.044  20.569   5.900
 4198POPC   C1A55899  39.799  20.745   6.286
 4198POPC   D2A55900  39.592  20.598   6.651
 4198POPC   C3A55901  39.912  20.676   6.927
 4198POPC   C4A55902  39.841  20.711   7.313
 4198POPC   C1B55903  40.309  20.552   6.267
 4198POPC   C2B55904  40.373  20.682   6.664
 4198POPC   C3B55905  40.393  20.408   6.978
 4198POPC   C4B55906  40.154  20.313   7.281
 4199POPC   NC355907  31.672  44.675   5.562
 4199POPC   PO455908  31.177  44.980   5.418
 4199POPC   GL155909  31.359  44.915   5.880
 4199POPC   GL255910  31.533  44.572   6.015
 4199POPC   C1A55911  31.568  44.980   6.280
 4199POPC   D2A55912  31.732  44.720   6.627
 4199POPC   C3A55913  31.724  44.983   7.001
 4199POPC   C4A55914  31.395  44.863   7.283
 4199POPC   C1B55915  31.209  44.536   6.294
 4199POPC   C2B55916  31.218  44.360   6.696
 4199POPC   C3B55917  31.240  44.390   7.152
 4199POPC   C4B55918  31.245  44.325   7.591
 4200POPC   NC355919  37.387  40.271   5.526
 4200POPC   PO455920  36.820  39.953   5.398
 4200POPC   GL155921  36.823  39.810   5.810
 4200POPC   GL255922  37.141  39.968   5.870
 4200POPC   C1A55923  36.682  39.986   6.197
 4200POPC   D2A55924  36.656  40.285   6.523
 4200POPC   C3A55925  36.703  40.133   6.930
 4200POPC   C4A55926  36.582  39.893   7.284
 4200POPC   C1B55927  37.171  40.133   6.285
 4200POPC   C2B55928  37.146  39.986   6.716
 4200POPC   C3B55929  37.165  40.246   7.134
 4200POPC   C4B55930  37.207  40.338   7.583
 4201POPC   NC355931  28.496  11.713   5.445
 4201POPC   PO455932  28.231  12.329   5.357
 4201POPC   GL155933  28.347  12.134   5.722
 4201POPC   GL255934  28.098  11.860   5.759
 4201POPC   C1A55935  28.646  12.097   6.046
 4201POPC   D2A55936  28.594  11.967   6.468
 4201POPC   C3A55937  28.804  12.138   6.819
 4201POPC   C4A55938  28.599  12.022   7.211
 4201POPC   C1B55939  27.963  12.134   6.094
 4201POPC   C2B55940  28.077  12.115   6.527
 4201POPC   C3B55941  28.151  12.030   6.941
 4201POPC   C4B55942  28.189  12.321   7.256
 4202POPC   NC355943  16.561   9.033   5.308
 4202POPC   PO455944  17.065   8.663   5.608
 4202POPC   GL155945  16.885   8.840   5.933
 4202POPC   GL255946  16.572   8.960   5.811
 4202POPC   C1A55947  16.673   8.819   6.319
 4202POPC   D2A55948  16.510   8.743   6.730
 4202POPC   C3A55949  16.820   8.925   7.010
 4202POPC   C4A55950  16.809   9.074   7.439
 4202POPC   C1B55951  16.419   9.272   6.111
 4202POPC   C2B55952  16.608   9.311   6.514
 4202POPC   C3B55953  16.437   9.227   6.894
 4202POPC   C4B55954  16.399   9.384   7.263
 4203POPC   NC355955  25.249  32.395   5.148
 4203POPC   PO455956  25.314  32.977   5.503
 4203POPC   GL155957  25.329  33.010   5.910
 4203POPC   GL255958  25.007  32.873   5.929
 4203POPC   C1A55959  25.588  32.864   6.238
 4203POPC   D2A55960  25.484  32.717   6.611
 4203POPC   C3A55961  25.262  33.012   6.833
 4203POPC   C4A55962  25.191  33.141   7.237
 4203POPC   C1B55963  25.061  32.898   6.364
 4203POPC   C2B55964  25.001  32.591   6.713
 4203POPC   C3B55965  24.892  32.731   7.134
 4203POPC   C4B55966  24.890  32.930   7.591
 4204POPC   NC355967  11.739  40.209   5.508
 4204POPC   PO455968  12.370  40.153   5.255
 4204POPC   GL155969  12.180  39.992   5.670
 4204POPC   GL255970  12.306  39.677   5.802
 4204POPC   C1A55971  12.067  40.231   6.069
 4204POPC   D2A55972  11.870  40.214   6.457
 4204POPC   C3A55973  12.069  40.195   6.860
 4204POPC   C4A55974  11.872  40.038   7.250
 4204POPC   C1B55975  12.056  39.747   6.195
 4204POPC   C2B55976  11.967  39.740   6.619
 4204POPC   C3B55977  12.195  39.713   6.989
 4204POPC   C4B55978  12.404  39.594   7.331
 4205POPC   NC355979  19.278  41.126   5.463
 4205POPC   PO455980  18.736  41.427   5.504
 4205POPC   GL155981  19.056  41.669   5.702
 4205POPC   GL255982  19.257  41.423   5.883
 4205POPC   C1A55983  18.972  41.856   6.120
 4205POPC   D2A55984  18.697  41.708   6.510
 4205POPC   C3A55985  18.853  41.751   6.944
 4205POPC   C4A55986  19.287  41.741   7.039
 4205POPC   C1B55987  18.941  41.352   6.190
 4205POPC   C2B55988  19.010  41.198   6.606
 4205POPC   C3B55989  19.070  41.253   7.041
 4205POPC   C4B55990  18.699  41.329   7.237
 4206POPC   NC355991   4.638   8.918   5.456
 4206POPC   PO455992   3.898   9.022   5.266
 4206POPC   GL155993   4.124   8.908   5.652
 4206POPC   GL255994   4.312   9.199   5.732
 4206POPC   C1A55995   4.152   8.890   6.128
 4206POPC   D2A55996   4.190   8.757   6.576
 4206POPC   C3A55997   4.480   8.976   6.864
 4206POPC   C4A55998   4.586   8.867   7.285
 4206POPC   C1B55999   4.403   9.350   6.158
 4206POPC   C2B56000   4.233   9.328   6.574
 4206POPC   C3B56001   4.001   9.125   6.917
 4206POPC   C4B56002   4.176   9.206   7.318
 4207POPC   NC356003  14.089   2.646   5.552
 4207POPC   PO456004  13.399   2.597   5.438
 4207POPC   GL156005  13.612   2.719   5.825
 4207POPC   GL256006  13.429   2.957   6.038
 4207POPC   C1A56007  13.641   2.530   6.215
 4207POPC   D2A56008  13.481   2.709   6.572
 4207POPC   C3A56009  13.791   2.620   6.819
 4207POPC   C4A56010  13.887   2.601   7.216
 4207POPC   C1B56011  13.827   2.995   6.307
 4207POPC   C2B56012  13.915   3.140   6.720
 4207POPC   C3B56013  13.680   3.061   7.065
 4207POPC   C4B56014  13.387   2.811   7.265
 4208POPC   NC356015   4.129  43.433   5.537
 4208POPC   PO456016   4.554  43.075   5.188
 4208POPC   GL156017   4.444  43.041   5.637
 4208POPC   GL256018   4.176  42.809   5.702
 4208POPC   C1A56019   4.424  43.195   6.089
 4208POPC   D2A56020   4.661  43.299   6.474
 4208POPC   C3A56021   4.591  43.069   6.883
 4208POPC   C4A56022   4.257  43.245   7.175
 4208POPC   C1B56023   4.127  42.770   6.159
 4208POPC   C2B56024   4.194  42.987   6.536
 4208POPC   C3B56025   4.127  42.810   6.925
 4208POPC   C4B56026   4.389  42.765   7.255
 4209POPC   NC356027  32.807  14.571   5.345
 4209POPC   PO456028  33.111  14.045   5.255
 4209POPC   GL156029  32.880  14.186   5.711
 4209POPC   GL256030  32.910  14.572   5.846
 4209POPC   C1A56031  32.850  14.248   6.213
 4209POPC   D2A56032  33.051  14.555   6.515
 4209POPC   C3A56033  33.185  14.404   6.927
 4209POPC   C4A56034  32.882  14.261   7.222
 4209POPC   C1B56035  32.604  14.701   6.218
 4209POPC   C2B56036  32.564  14.659   6.686
 4209POPC   C3B56037  32.845  14.773   7.002
 4209POPC   C4B56038  32.866  14.739   7.434
 4210POPC   NC356039  12.152  36.416   5.404
 4210POPC   PO456040  12.133  35.779   5.404
 4210POPC   GL156041  12.185  36.000   5.739
 4210POPC   GL256042  11.854  36.006   5.782
 4210POPC   C1A56043  12.133  35.872   6.181
 4210POPC   D2A56044  12.019  35.806   6.576
 4210POPC   C3A56045  12.094  36.092   6.853
 4210POPC   C4A56046  12.017  35.920   7.242
 4210POPC   C1B56047  11.932  36.329   6.052
 4210POPC   C2B56048  11.778  36.303   6.455
 4210POPC   C3B56049  11.569  36.161   6.789
 4210POPC   C4B56050  11.708  36.312   7.161
 4211POPC   NC356051  15.451   3.143   5.411
 4211POPC   PO456052  15.226   2.557   5.482
 4211POPC   GL156053  15.123   2.707   5.846
 4211POPC   GL256054  15.444   2.883   5.879
 4211POPC   C1A56055  15.169   2.670   6.273
 4211POPC   D2A56056  14.959   2.717   6.649
 4211POPC   C3A56057  15.197   2.563   6.995
 4211POPC   C4A56058  14.928   2.647   7.303
 4211POPC   C1B56059  15.381   3.148   6.230
 4211POPC   C2B56060  15.395   2.988   6.649
 4211POPC   C3B56061  15.201   3.052   7.037
 4211POPC   C4B56062  15.336   3.104   7.470
 4212POPC   NC356063  13.396  24.791   5.487
 4212POPC   PO456064  13.858  24.280   5.555
 4212POPC   GL156065  13.611  24.499   5.889
 4212POPC   GL256066  13.318  24.328   5.810
 4212POPC   C1A56067  13.626  24.747   6.315
 4212POPC   D2A56068  13.559  24.856   6.733
 4212POPC   C3A56069  13.443  24.608   7.115
 4212POPC   C4A56070  13.481  24.467   7.536
 4212POPC   C1B56071  13.238  24.431   6.257
 4212POPC   C2B56072  13.156  24.462   6.717
 4212POPC   C3B56073  13.113  24.215   7.140
 4212POPC   C4B56074  13.108  24.119   7.608
 4213POPC   NC356075  24.811  31.583   5.287
 4213POPC   PO456076  24.348  31.102   5.288
 4213POPC   GL156077  24.282  31.471   5.606
 4213POPC   GL256078  24.597  31.497   5.748
 4213POPC   C1A56079  24.215  31.641   6.073
 4213POPC   D2A56080  24.451  31.505   6.462
 4213POPC   C3A56081  24.340  31.549   6.901
 4213POPC   C4A56082  24.366  31.914   7.145
 4213POPC   C1B56083  24.796  31.394   6.114
 4213POPC   C2B56084  24.958  31.569   6.525
 4213POPC   C3B56085  24.845  31.730   6.926
 4213POPC   C4B56086  24.700  31.543   7.265
 4214POPC   NC356087  23.686  23.003   5.362
 4214POPC   PO456088  23.218  23.267   5.758
 4214POPC   GL156089  23.485  22.936   5.869
 4214POPC   GL256090  23.751  23.154   5.864
 4214POPC   C1A56091  23.612  22.889   6.335
 4214POPC   D2A56092  23.625  23.142   6.726
 4214POPC   C3A56093  23.531  22.917   7.104
 4214POPC   C4A56094  23.844  22.677   7.329
 4214POPC   C1B56095  24.010  23.175   6.235
 4214POPC   C2B56096  24.078  22.956   6.621
 4214POPC   C3B56097  24.030  23.063   7.054
 4214POPC   C4B56098  24.293  22.948   7.409
 4215POPC   NC356099  27.261  23.417   5.310
 4215POPC   PO456100  27.349  24.040   5.513
 4215POPC   GL156101  27.439  23.743   5.829
 4215POPC   GL256102  27.257  23.445   5.863
 4215POPC   C1A56103  27.700  23.682   6.195
 4215POPC   D2A56104  27.888  23.556   6.573
 4215POPC   C3A56105  27.848  23.756   6.949
 4215POPC   C4A56106  27.781  23.571   7.346
 4215POPC   C1B56107  27.202  23.637   6.292
 4215POPC   C2B56108  27.364  23.628   6.710
 4215POPC   C3B56109  27.361  23.766   7.096
 4215POPC   C4B56110  27.018  23.598   7.275
 4216POPC   NC356111   7.756  30.867   5.468
 4216POPC   PO456112   7.127  30.599   5.487
 4216POPC   GL156113   7.427  30.683   5.818
 4216POPC   GL256114   7.728  30.479   5.830
 4216POPC   C1A56115   7.553  30.961   6.174
 4216POPC   D2A56116   7.372  30.859   6.586
 4216POPC   C3A56117   7.585  30.981   6.972
 4216POPC   C4A56118   7.561  31.112   7.392
 4216POPC   C1B56119   7.510  30.450   6.267
 4216POPC   C2B56120   7.604  30.434   6.724
 4216POPC   C3B56121   7.428  30.508   7.136
 4216POPC   C4B56122   7.356  30.255   7.507
 4217POPC   NC356123   8.091   0.041   5.695
 4217POPC   PO456124   7.850   0.681   5.579
 4217POPC   GL156125   7.977   0.494   5.944
 4217POPC   GL256126   8.337   0.465   5.904
 4217POPC   C1A56127   7.830   0.465   6.372
 4217POPC   D2A56128   7.932   0.175   6.701
 4217POPC   C3A56129   7.917   0.317   7.135
 4217POPC   C4A56130   7.771   0.420   7.575
 4217POPC   C1B56131   8.295   0.242   6.310
 4217POPC   C2B56132   8.481   0.084   6.693
 4217POPC   C3B56133   8.376   0.091   7.117
 4217POPC   C4B56134   8.534   0.099   7.543
 4218POPC   NC356135  19.472   4.313   5.542
 4218POPC   PO456136  18.816   4.109   5.527
 4218POPC   GL156137  19.023   4.283   5.843
 4218POPC   GL256138  19.166   3.952   5.924
 4218POPC   C1A56139  18.853   4.480   6.209
 4218POPC   D2A56140  18.968   4.702   6.589
 4218POPC   C3A56141  18.887   4.537   6.963
 4218POPC   C4A56142  19.005   4.547   7.376
 4218POPC   C1B56143  18.746   3.968   6.179
 4218POPC   C2B56144  18.534   4.152   6.572
 4218POPC   C3B56145  18.629   4.103   7.017
 4218POPC   C4B56146  19.043   4.049   7.246
 4219POPC   NC356147  30.906  44.233   5.488
 4219POPC   PO456148  30.515  43.656   5.392
 4219POPC   GL156149  30.506  43.753   5.829
 4219POPC   GL256150  30.688  44.041   5.893
 4219POPC   C1A56151  30.705  43.642   6.248
 4219POPC   D2A56152  31.032  43.550   6.579
 4219POPC   C3A56153  30.875  43.485   7.011
 4219POPC   C4A56154  30.496  43.694   7.181
 4219POPC   C1B56155  31.021  44.050   6.206
 4219POPC   C2B56156  30.817  44.051   6.605
 4219POPC   C3B56157  30.913  44.000   7.021
 4219POPC   C4B56158  30.776  44.219   7.361
 4220POPC   NC356159  18.396  34.193   5.366
 4220POPC   PO456160  18.031  34.806   5.400
 4220POPC   GL156161  18.195  34.577   5.742
 4220POPC   GL256162  18.542  34.550   5.720
 4220POPC   C1A56163  18.195  34.619   6.187
 4220POPC   D2A56164  17.999  34.573   6.577
 4220POPC   C3A56165  18.077  34.253   6.852
 4220POPC   C4A56166  18.138  34.348   7.270
 4220POPC   C1B56167  18.682  34.429   6.121
 4220POPC   C2B56168  18.540  34.339   6.549
 4220POPC   C3B56169  18.548  34.469   6.998
 4220POPC   C4B56170  18.666  34.720   7.379
 4221POPC   NC356171  34.652  42.723   5.183
 4221POPC   PO456172  34.374  43.312   5.436
 4221POPC   GL156173  34.379  42.949   5.729
 4221POPC   GL256174  34.665  42.724   5.701
 4221POPC   C1A56175  34.325  42.983   6.189
 4221POPC   D2A56176  34.428  43.309   6.478
 4221POPC   C3A56177  34.486  43.185   6.888
 4221POPC   C4A56178  34.810  43.279   7.137
 4221POPC   C1B56179  34.797  42.727   6.140
 4221POPC   C2B56180  34.810  42.947   6.549
 4221POPC   C3B56181  34.850  42.797   6.980
 4221POPC   C4B56182  35.121  42.948   7.338
 4222POPC   NC356183  16.459  39.465   5.663
 4222POPC   PO456184  17.127  39.427   5.468
 4222POPC   GL156185  16.909  39.216   5.839
 4222POPC   GL256186  17.018  38.852   5.940
 4222POPC   C1A56187  16.646  39.264   6.254
 4222POPC   D2A56188  16.447  39.103   6.637
 4222POPC   C3A56189  16.584  39.294   7.009
 4222POPC   C4A56190  16.385  39.198   7.374
 4222POPC   C1B56191  17.154  39.170   6.282
 4222POPC   C2B56192  16.993  39.300   6.690
 4222POPC   C3B56193  17.077  39.143   7.116
 4222POPC   C4B56194  17.219  39.149   7.560
 4223POPC   NC356195   3.207   1.897   5.367
 4223POPC   PO456196   3.705   2.268   5.426
 4223POPC   GL156197   3.493   2.060   5.796
 4223POPC   GL256198   3.216   1.779   5.865
 4223POPC   C1A56199   3.717   1.950   6.177
 4223POPC   D2A56200   3.888   2.138   6.559
 4223POPC   C3A56201   3.805   1.909   6.947
 4223POPC   C4A56202   3.720   2.051   7.390
 4223POPC   C1B56203   3.316   1.678   6.315
 4223POPC   C2B56204   3.303   1.673   6.763
 4223POPC   C3B56205   3.324   1.898   7.139
 4223POPC   C4B56206   3.332   1.787   7.586
 4224POPC   NC356207   8.361  35.631   5.046
 4224POPC   PO456208   7.921  35.330   5.428
 4224POPC   GL156209   8.221  35.419   5.739
 4224POPC   GL256210   7.959  35.503   5.994
 4224POPC   C1A56211   8.427  35.387   6.146
 4224POPC   D2A56212   8.248  35.464   6.552
 4224POPC   C3A56213   8.241  35.231   6.936
 4224POPC   C4A56214   8.152  35.390   7.343
 4224POPC   C1B56215   7.970  35.146   6.263
 4224POPC   C2B56216   7.780  35.016   6.647
 4224POPC   C3B56217   7.968  34.768   6.965
 4224POPC   C4B56218   8.203  34.858   7.327
 4225POPC   NC356219   6.237  33.043   5.508
 4225POPC   PO456220   5.568  32.899   5.491
 4225POPC   GL156221   5.841  33.006   5.861
 4225POPC   GL256222   5.837  33.348   5.819
 4225POPC   C1A56223   5.995  33.049   6.331
 4225POPC   D2A56224   5.717  33.040   6.733
 4225POPC   C3A56225   5.839  32.942   7.161
 4225POPC   C4A56226   6.010  32.546   7.262
 4225POPC   C1B56227   5.594  33.339   6.214
 4225POPC   C2B56228   5.651  33.540   6.636
 4225POPC   C3B56229   5.568  33.393   7.100
 4225POPC   C4B56230   5.679  33.300   7.565
 4226POPC   NC356231   4.169  36.787   5.310
 4226POPC   PO456232   4.620  37.327   5.415
 4226POPC   GL156233   4.439  36.965   5.705
 4226POPC   GL256234   4.592  36.647   5.671
 4226POPC   C1A56235   4.201  36.977   6.132
 4226POPC   D2A56236   3.989  37.098   6.532
 4226POPC   C3A56237   4.089  36.905   6.932
 4226POPC   C4A56238   4.395  36.996   7.253
 4226POPC   C1B56239   4.445  36.525   6.083
 4226POPC   C2B56240   4.362  36.437   6.518
 4226POPC   C3B56241   4.472  36.545   6.924
 4226POPC   C4B56242   4.279  36.494   7.316
 4227POPC   NC356243  41.201  41.640   5.329
 4227POPC   PO456244  40.500  41.445   5.381
 4227POPC   GL156245  40.772  41.621   5.701
 4227POPC   GL256246  41.020  41.407   5.797
 4227POPC   C1A56247  40.688  41.666   6.147
 4227POPC   D2A56248  40.784  41.849   6.544
 4227POPC   C3A56249  40.617  41.742   6.940
 4227POPC   C4A56250  40.751  41.610   7.325
 4227POPC   C1B56251  41.069  41.301   6.231
 4227POPC   C2B56252  40.976  41.242   6.659
 4227POPC   C3B56253  41.093  41.321   7.084
 4227POPC   C4B56254  41.130  41.387   7.558
 4228POPC   NC356255  39.849  12.404   5.706
 4228POPC   PO456256  40.168  12.905   5.287
 4228POPC   GL156257  39.883  12.923   5.784
 4228POPC   GL256258  39.967  12.683   6.113
 4228POPC   C1A56259  39.879  13.153   6.205
 4228POPC   D2A56260  40.044  13.045   6.646
 4228POPC   C3A56261  39.865  12.729   6.938
 4228POPC   C4A56262  39.631  12.741   7.332
 4228POPC   C1B56263  40.352  12.960   6.226
 4228POPC   C2B56264  40.532  12.883   6.594
 4228POPC   C3B56265  40.384  12.859   6.995
 4228POPC   C4B56266  40.167  13.135   7.254
 4229POPC   NC356267  29.624   4.175   5.396
 4229POPC   PO456268  30.144   4.568   5.488
 4229POPC   GL156269  29.892   4.375   5.819
 4229POPC   GL256270  29.726   4.047   5.874
 4229POPC   C1A56271  29.805   4.563   6.220
 4229POPC   D2A56272  30.027   4.798   6.534
 4229POPC   C3A56273  30.031   4.513   6.876
 4229POPC   C4A56274  30.031   4.477   7.347
 4229POPC   C1B56275  30.007   4.081   6.233
 4229POPC   C2B56276  29.974   3.877   6.606
 4229POPC   C3B56277  30.027   3.999   7.003
 4229POPC   C4B56278  29.660   4.202   7.135
 4230POPC   NC356279   6.527   5.308   5.398
 4230POPC   PO456280   6.538   4.585   5.504
 4230POPC   GL156281   6.366   4.898   5.792
 4230POPC   GL256282   6.596   5.199   5.891
 4230POPC   C1A56283   6.263   5.040   6.230
 4230POPC   D2A56284   6.524   5.246   6.545
 4230POPC   C3A56285   6.519   5.143   6.979
 4230POPC   C4A56286   6.312   4.900   7.293
 4230POPC   C1B56287   6.920   5.124   6.218
 4230POPC   C2B56288   7.059   5.288   6.626
 4230POPC   C3B56289   6.988   5.381   7.079
 4230POPC   C4B56290   6.973   5.393   7.551
 4231POPC   NC356291  42.519   1.547   5.468
 4231POPC   PO456292  42.269   0.933   5.467
 4231POPC   GL156293  42.245   1.217   5.823
 4231POPC   GL256294  42.571   1.185   5.842
 4231POPC   C1A56295  42.244   1.187   6.293
 4231POPC   D2A56296  42.182   1.129   6.751
 4231POPC   C3A56297  42.354   1.376   7.024
 4231POPC   C4A56298  42.066   1.306   7.355
 4231POPC   C1B56299  42.713   0.937   6.175
 4231POPC   C2B56300  42.653   1.076   6.601
 4231POPC   C3B56301  42.788   1.123   6.999
 4231POPC   C4B56302  42.609   1.172   7.406
 4232POPC   NC356303  26.132  43.575   5.461
 4232POPC   PO456304  26.443  42.975   5.471
 4232POPC   GL156305  26.346  43.153   5.864
 4232POPC   GL256306  26.008  43.284   5.853
 4232POPC   C1A56307  26.466  42.976   6.268
 4232POPC   D2A56308  26.258  42.847   6.651
 4232POPC   C3A56309  26.030  43.147   6.920
 4232POPC   C4A56310  26.086  43.447   7.244
 4232POPC   C1B56311  25.943  42.984   6.174
 4232POPC   C2B56312  25.728  42.926   6.566
 4232POPC   C3B56313  25.761  42.713   6.939
 4232POPC   C4B56314  25.667  42.647   7.329
 4233POPC   NC356315  25.399  28.374   5.343
 4233POPC   PO456316  24.862  28.072   5.592
 4233POPC   GL156317  25.253  28.221   5.826
 4233POPC   GL256318  25.261  28.597   5.814
 4233POPC   C1A56319  25.433  28.341   6.242
 4233POPC   D2A56320  25.310  28.181   6.647
 4233POPC   C3A56321  25.363  28.295   7.064
 4233POPC   C4A56322  24.948  28.214   7.213
 4233POPC   C1B56323  25.076  28.702   6.238
 4233POPC   C2B56324  25.203  28.679   6.694
 4233POPC   C3B56325  25.098  28.735   7.141
 4233POPC   C4B56326  25.366  28.610   7.487
 4234POPC   NC356327  35.133  14.427   5.415
 4234POPC   PO456328  35.675  14.481   5.739
 4234POPC   GL156329  35.264  14.442   5.911
 4234POPC   GL256330  35.047  14.758   5.864
 4234POPC   C1A56331  35.125  14.461   6.305
 4234POPC   D2A56332  35.266  14.686   6.655
 4234POPC   C3A56333  35.092  14.434   6.918
 4234POPC   C4A56334  35.276  14.239   7.227
 4234POPC   C1B56335  35.349  14.905   6.201
 4234POPC   C2B56336  35.715  14.910   6.516
 4234POPC   C3B56337  35.695  14.728   6.933
 4234POPC   C4B56338  35.364  14.743   7.201
 4235POPC   NC356339  35.028  11.115   5.503
 4235POPC   PO456340  35.535  11.607   5.529
 4235POPC   GL156341  35.372  11.484   5.909
 4235POPC   GL256342  35.341  11.149   5.904
 4235POPC   C1A56343  35.271  11.411   6.357
 4235POPC   D2A56344  35.102  11.433   6.779
 4235POPC   C3A56345  35.360  11.420   7.131
 4235POPC   C4A56346  35.444  11.517   7.528
 4235POPC   C1B56347  35.311  10.904   6.246
 4235POPC   C2B56348  35.112  10.942   6.646
 4235POPC   C3B56349  35.268  10.944   7.061
 4235POPC   C4B56350  35.486  10.988   7.478
 4236POPC   NC356351  39.330  23.675   5.476
 4236POPC   PO456352  39.245  24.305   5.373
 4236POPC   GL156353  39.087  23.999   5.813
 4236POPC   GL256354  39.123  23.643   5.929
 4236POPC   C1A56355  39.244  24.012   6.252
 4236POPC   D2A56356  39.484  23.933   6.630
 4236POPC   C3A56357  39.194  24.023   6.954
 4236POPC   C4A56358  39.073  24.185   7.363
 4236POPC   C1B56359  39.336  23.522   6.330
 4236POPC   C2B56360  39.069  23.574   6.690
 4236POPC   C3B56361  39.128  23.544   7.114
 4236POPC   C4B56362  39.341  23.267   7.356
 4237POPC   NC356363  14.651  32.204   5.480
 4237POPC   PO456364  13.992  32.020   5.505
 4237POPC   GL156365  14.208  32.287   5.869
 4237POPC   GL256366  14.554  32.451   5.913
 4237POPC   C1A56367  14.249  32.478   6.294
 4237POPC   D2A56368  14.278  32.359   6.699
 4237POPC   C3A56369  14.489  32.518   7.051
 4237POPC   C4A56370  14.513  32.118   7.227
 4237POPC   C1B56371  14.631  32.138   6.285
 4237POPC   C2B56372  14.779  32.102   6.738
 4237POPC   C3B56373  14.972  32.305   7.101
 4237POPC   C4B56374  14.822  32.443   7.522
 4238POPC   NC356375  13.524  37.809   5.418
 4238POPC   PO456376  13.991  37.261   5.346
 4238POPC   GL156377  13.845  37.491   5.726
 4238POPC   GL256378  13.527  37.650   5.898
 4238POPC   C1A56379  13.858  37.373   6.165
 4238POPC   D2A56380  13.615  37.217   6.522
 4238POPC   C3A56381  13.511  37.479   6.886
 4238POPC   C4A56382  13.761  37.599   7.232
 4238POPC   C1B56383  13.640  37.950   6.259
 4238POPC   C2B56384  13.748  38.126   6.703
 4238POPC   C3B56385  13.600  38.085   7.135
 4238POPC   C4B56386  13.460  37.882   7.529
 4239POPC   NC356387  40.397   8.291   5.316
 4239POPC   PO456388  39.825   7.937   5.409
 4239POPC   GL156389  40.105   8.005   5.724
 4239POPC   GL256390  40.130   8.351   5.754
 4239POPC   C1A56391  40.069   7.917   6.136
 4239POPC   D2A56392  40.130   8.176   6.488
 4239POPC   C3A56393  40.186   8.036   6.891
 4239POPC   C4A56394  40.085   7.819   7.293
 4239POPC   C1B56395  40.072   8.557   6.138
 4239POPC   C2B56396  40.111   8.672   6.571
 4239POPC   C3B56397  39.889   8.489   6.900
 4239POPC   C4B56398  40.056   8.336   7.264
 4240POPC   NC356399  18.864  15.819   5.404
 4240POPC   PO456400  19.585  16.029   5.495
 4240POPC   GL156401  19.206  16.107   5.738
 4240POPC   GL256402  19.224  15.772   5.788
 4240POPC   C1A56403  18.886  16.010   6.072
 4240POPC   D2A56404  18.943  15.812   6.476
 4240POPC   C3A56405  18.880  16.108   6.819
 4240POPC   C4A56406  18.758  16.001   7.229
 4240POPC   C1B56407  19.347  15.544   6.173
 4240POPC   C2B56408  19.348  15.509   6.620
 4240POPC   C3B56409  19.192  15.745   6.977
 4240POPC   C4B56410  19.183  15.760   7.412
 4241POPC   NC356411   6.311  14.699   5.600
 4241POPC   PO456412   6.833  14.294   5.315
 4241POPC   GL156413   6.853  14.280   5.756
 4241POPC   GL256414   6.608  14.503   5.951
 4241POPC   C1A56415   6.998  14.320   6.190
 4241POPC   D2A56416   6.689  14.385   6.484
 4241POPC   C3A56417   6.786  14.259   6.878
 4241POPC   C4A56418   6.772  14.351   7.278
 4241POPC   C1B56419   6.364  14.733   6.283
 4241POPC   C2B56420   6.264  14.629   6.698
 4241POPC   C3B56421   6.401  14.733   7.116
 4241POPC   C4B56422   6.323  14.516   7.529
 4242POPC   NC356423   7.339   9.148   5.468
 4242POPC   PO456424   7.455   8.477   5.352
 4242POPC   GL156425   7.382   8.695   5.765
 4242POPC   GL256426   7.101   8.568   5.952
 4242POPC   C1A56427   7.444   9.017   6.114
 4242POPC   D2A56428   7.363   9.258   6.500
 4242POPC   C3A56429   7.451   9.077   6.906
 4242POPC   C4A56430   7.279   9.232   7.289
 4242POPC   C1B56431   7.076   8.747   6.350
 4242POPC   C2B56432   7.256   8.629   6.741
 4242POPC   C3B56433   7.159   8.650   7.172
 4242POPC   C4B56434   7.033   8.579   7.602
 4243POPC   NC356435  20.203  10.010   5.374
 4243POPC   PO456436  19.729   9.554   5.380
 4243POPC   GL156437  19.677   9.696   5.806
 4243POPC   GL256438  19.956   9.924   5.851
 4243POPC   C1A56439  19.630   9.804   6.253
 4243POPC   D2A56440  19.524   9.660   6.675
 4243POPC   C3A56441  19.832   9.709   7.011
 4243POPC   C4A56442  20.154   9.724   7.336
 4243POPC   C1B56443  20.197  10.239   6.084
 4243POPC   C2B56444  20.233  10.412   6.521
 4243POPC   C3B56445  20.009  10.298   6.908
 4243POPC   C4B56446  19.771  10.167   7.279
 4244POPC   NC356447  20.615  37.222   4.900
 4244POPC   PO456448  20.403  37.066   5.379
 4244POPC   GL156449  20.352  36.908   5.833
 4244POPC   GL256450  20.152  36.632   5.922
 4244POPC   C1A56451  20.430  36.872   6.312
 4244POPC   D2A56452  20.707  36.746   6.676
 4244POPC   C3A56453  20.577  36.909   7.073
 4244POPC   C4A56454  20.320  37.210   7.280
 4244POPC   C1B56455  20.106  36.468   6.330
 4244POPC   C2B56456  20.230  36.584   6.735
 4244POPC   C3B56457  20.485  36.394   7.049
 4244POPC   C4B56458  20.791  36.519   7.361
 4245POPC   NC356459  22.922   7.459   5.059
 4245POPC   PO456460  23.127   7.155   5.376
 4245POPC   GL156461  23.014   7.354   5.772
 4245POPC   GL256462  23.127   7.685   5.872
 4245POPC   C1A56463  22.885   7.281   6.209
 4245POPC   D2A56464  23.070   7.213   6.620
 4245POPC   C3A56465  22.906   7.296   7.044
 4245POPC   C4A56466  22.727   7.452   7.453
 4245POPC   C1B56467  23.136   7.697   6.346
 4245POPC   C2B56468  22.828   7.690   6.693
 4245POPC   C3B56469  22.921   7.797   7.124
 4245POPC   C4B56470  23.256   7.578   7.353
 4246POPC   NC356471  21.502  11.740   5.426
 4246POPC   PO456472  21.185  12.271   5.605
 4246POPC   GL156473  21.530  12.044   5.820
 4246POPC   GL256474  21.764  12.356   5.799
 4246POPC   C1A56475  21.473  11.773   6.208
 4246POPC   D2A56476  21.428  11.974   6.621
 4246POPC   C3A56477  21.390  11.843   7.068
 4246POPC   C4A56478  21.310  12.004   7.498
 4246POPC   C1B56479  21.612  12.304   6.235
 4246POPC   C2B56480  21.605  12.452   6.635
 4246POPC   C3B56481  21.378  12.353   6.994
 4246POPC   C4B56482  21.368  12.538   7.384
 4247POPC   NC356483  22.359  24.702   5.440
 4247POPC   PO456484  21.970  24.091   5.425
 4247POPC   GL156485  22.057  24.394   5.764
 4247POPC   GL256486  21.901  24.717   5.713
 4247POPC   C1A56487  22.363  24.402   6.127
 4247POPC   D2A56488  22.278  24.305   6.556
 4247POPC   C3A56489  22.469  24.269   6.946
 4247POPC   C4A56490  22.510  24.557   7.253
 4247POPC   C1B56491  22.025  24.797   6.147
 4247POPC   C2B56492  21.902  24.694   6.550
 4247POPC   C3B56493  22.067  24.628   6.945
 4247POPC   C4B56494  22.014  24.439   7.337
 4248POPC   NC356495  30.437  21.148   5.470
 4248POPC   PO456496  30.910  21.719   5.337
 4248POPC   GL156497  30.644  21.623   5.742
 4248POPC   GL256498  30.774  21.282   5.850
 4248POPC   C1A56499  30.466  21.529   6.188
 4248POPC   D2A56500  30.739  21.396   6.528
 4248POPC   C3A56501  30.606  21.352   6.951
 4248POPC   C4A56502  30.456  21.721   7.159
 4248POPC   C1B56503  30.500  21.024   6.125
 4248POPC   C2B56504  30.339  21.091   6.524
 4248POPC   C3B56505  30.234  20.937   6.893
 4248POPC   C4B56506  30.432  20.930   7.283
 4249POPC   NC356507  17.753  42.928   5.429
 4249POPC   PO456508  17.274  43.347   5.301
 4249POPC   GL156509  17.381  43.173   5.723
 4249POPC   GL256510  17.203  42.896   5.828
 4249POPC   C1A56511  17.559  43.032   6.157
 4249POPC   D2A56512  17.283  43.161   6.502
 4249POPC   C3A56513  17.443  43.100   6.899
 4249POPC   C4A56514  17.595  42.932   7.275
 4249POPC   C1B56515  17.129  42.719   6.239
 4249POPC   C2B56516  17.115  42.721   6.694
 4249POPC   C3B56517  17.046  42.892   7.120
 4249POPC   C4B56518  17.145  42.783   7.544
 4250POPC   NC356519  10.726  18.684   5.277
 4250POPC   PO456520  10.213  18.380   5.559
 4250POPC   GL156521  10.502  18.330   5.809
 4250POPC   GL256522  10.316  18.035   5.919
 4250POPC   C1A56523  10.490  18.524   6.191
 4250POPC   D2A56524  10.293  18.460   6.561
 4250POPC   C3A56525  10.452  18.600   6.935
 4250POPC   C4A56526  10.552  18.261   7.178
 4250POPC   C1B56527   9.969  18.126   6.196
 4250POPC   C2B56528   9.953  17.946   6.605
 4250POPC   C3B56529  10.118  18.030   7.011
 4250POPC   C4B56530  10.286  17.904   7.445
 4251POPC   NC356531  34.965   8.942   5.377
 4251POPC   PO456532  34.289   9.160   5.357
 4251POPC   GL156533  34.567   9.172   5.706
 4251POPC   GL256534  34.806   9.439   5.702
 4251POPC   C1A56535  34.530   8.934   6.070
 4251POPC   D2A56536  34.378   8.968   6.487
 4251POPC   C3A56537  34.634   8.864   6.829
 4251POPC   C4A56538  34.505   8.816   7.245
 4251POPC   C1B56539  34.832   9.355   6.136
 4251POPC   C2B56540  35.032   9.409   6.515
 4251POPC   C3B56541  34.904   9.492   6.927
 4251POPC   C4B56542  34.773   9.242   7.236
 4252POPC   NC356543  31.377  31.051   5.507
 4252POPC   PO456544  31.094  30.439   5.465
 4252POPC   GL156545  31.258  30.680   5.833
 4252POPC   GL256546  31.639  30.711   5.830
 4252POPC   C1A56547  31.350  30.758   6.284
 4252POPC   D2A56548  31.613  30.606   6.623
 4252POPC   C3A56549  31.421  30.507   7.011
 4252POPC   C4A56550  31.462  30.830   7.260
 4252POPC   C1B56551  31.878  30.790   6.215
 4252POPC   C2B56552  31.981  31.005   6.563
 4252POPC   C3B56553  31.795  31.049   6.934
 4252POPC   C4B56554  31.977  30.941   7.304
 4253POPC   NC356555  41.967  44.002   5.569
 4253POPC   PO456556  42.633  43.904   5.557
 4253POPC   GL156557  42.592  43.838   5.968
 4253POPC   GL256558  42.789  43.547   5.978
 4253POPC   C1A56559  42.218  43.838   6.267
 4253POPC   D2A56560  41.909  43.527   6.475
 4253POPC   C3A56561  41.941  43.492   6.928
 4253POPC   C4A56562  42.073  43.699   7.321
 4253POPC   C1B56563  42.702  43.647   6.420
 4253POPC   C2B56564  42.428  43.765   6.756
 4253POPC   C3B56565  42.569  43.854   7.154
 4253POPC   C4B56566  42.626  44.148   7.453
 4254POPC   NC356567   4.577  42.620   5.116
 4254POPC   PO456568   3.976  42.313   5.330
 4254POPC   GL156569   4.031  42.199   5.739
 4254POPC   GL256570   3.835  42.463   5.873
 4254POPC   C1A56571   4.287  42.252   6.108
 4254POPC   D2A56572   4.560  42.208   6.469
 4254POPC   C3A56573   4.503  42.469   6.828
 4254POPC   C4A56574   4.560  42.305   7.225
 4254POPC   C1B56575   3.762  42.348   6.269
 4254POPC   C2B56576   4.073  42.367   6.567
 4254POPC   C3B56577   4.075  42.262   6.977
 4254POPC   C4B56578   4.017  42.449   7.327
 4255POPC   NC356579   7.686  14.647   5.553
 4255POPC   PO456580   7.603  13.998   5.307
 4255POPC   GL156581   7.410  14.176   5.746
 4255POPC   GL256582   7.293  14.524   5.819
 4255POPC   C1A56583   7.521  14.239   6.214
 4255POPC   D2A56584   7.614  14.402   6.652
 4255POPC   C3A56585   7.572  14.113   7.037
 4255POPC   C4A56586   7.231  14.099   7.350
 4255POPC   C1B56587   7.347  14.721   6.242
 4255POPC   C2B56588   7.130  14.605   6.638
 4255POPC   C3B56589   7.260  14.513   7.030
 4255POPC   C4B56590   7.679  14.703   7.093
 4256POPC   NC356591  33.219  20.288   5.432
 4256POPC   PO456592  32.814  19.738   5.424
 4256POPC   GL156593  32.926  19.959   5.785
 4256POPC   GL256594  32.698  20.217   5.850
 4256POPC   C1A56595  33.000  19.764   6.213
 4256POPC   D2A56596  32.816  19.559   6.562
 4256POPC   C3A56597  32.964  19.786   6.905
 4256POPC   C4A56598  33.084  19.691   7.303
 4256POPC   C1B56599  32.940  20.257   6.214
 4256POPC   C2B56600  33.170  20.139   6.573
 4256POPC   C3B56601  33.206  20.300   6.977
 4256POPC   C4B56602  33.320  20.139   7.377
 4257POPC   NC356603   1.982  12.238   5.430
 4257POPC   PO456604   2.376  11.822   5.467
 4257POPC   GL156605   2.167  11.941   5.852
 4257POPC   GL256606   1.805  11.903   5.806
 4257POPC   C1A56607   2.167  11.884   6.324
 4257POPC   D2A56608   2.159  11.709   6.747
 4257POPC   C3A56609   2.264  11.979   7.083
 4257POPC   C4A56610   2.167  12.400   7.135
 4257POPC   C1B56611   1.764  12.164   6.228
 4257POPC   C2B56612   1.905  12.177   6.713
 4257POPC   C3B56613   1.729  12.145   7.166
 4257POPC   C4B56614   1.395  12.198   7.501
 4258POPC   NC356615  31.595   7.138   5.556
 4258POPC   PO456616  31.187   6.635   5.377
 4258POPC   GL156617  31.287   6.501   5.785
 4258POPC   GL256618  31.578   6.267   5.697
 4258POPC   C1A56619  31.401   6.769   6.165
 4258POPC   D2A56620  31.583   6.989   6.542
 4258POPC   C3A56621  31.434   6.837   6.943
 4258POPC   C4A56622  31.570   6.935   7.352
 4258POPC   C1B56623  31.537   6.252   6.160
 4258POPC   C2B56624  31.312   6.384   6.512
 4258POPC   C3B56625  31.532   6.316   6.884
 4258POPC   C4B56626  31.639   6.456   7.255
 4259POPC   NC356627  12.887  15.113   5.562
 4259POPC   PO456628  12.287  15.424   5.595
 4259POPC   GL156629  12.594  15.266   5.950
 4259POPC   GL256630  12.964  15.384   5.985
 4259POPC   C1A56631  12.720  15.178   6.402
 4259POPC   D2A56632  12.831  15.254   6.845
 4259POPC   C3A56633  12.511  15.219   7.185
 4259POPC   C4A56634  12.527  15.401   7.604
 4259POPC   C1B56635  13.148  15.002   6.179
 4259POPC   C2B56636  13.135  14.889   6.627
 4259POPC   C3B56637  13.108  14.895   7.083
 4259POPC   C4B56638  12.926  15.088   7.449
 4260POPC   NC356639  16.614   8.258   5.602
 4260POPC   PO456640  17.121   8.281   5.166
 4260POPC   GL156641  17.112   8.187   5.725
 4260POPC   GL256642  16.945   7.981   6.044
 4260POPC   C1A56643  17.096   8.431   6.197
 4260POPC   D2A56644  17.011   8.198   6.593
 4260POPC   C3A56645  16.924   8.273   7.023
 4260POPC   C4A56646  16.616   8.523   7.217
 4260POPC   C1B56647  16.594   8.256   6.273
 4260POPC   C2B56648  16.337   8.253   6.654
 4260POPC   C3B56649  16.446   8.064   7.053
 4260POPC   C4B56650  16.363   7.948   7.476
 4261POPC   NC356651   1.899  43.913   5.266
 4261POPC   PO456652   1.135  43.926   5.335
 4261POPC   GL156653   1.144  43.869   5.754
 4261POPC   GL256654   1.358  44.150   5.779
 4261POPC   C1A56655   1.352  43.751   6.137
 4261POPC   D2A56656   1.318  43.539   6.528
 4261POPC   C3A56657   1.463  43.741   6.914
 4261POPC   C4A56658   1.191  43.816   7.259
 4261POPC   C1B56659   1.105  44.223   6.159
 4261POPC   C2B56660   1.065  44.059   6.586
 4261POPC   C3B56661   1.055  44.239   7.004
 4261POPC   C4B56662   0.810  44.201   7.401
 4262POPC   NC356663  21.642  14.680   5.529
 4262POPC   PO456664  21.148  14.230   5.334
 4262POPC   GL156665  21.318  14.296   5.730
 4262POPC   GL256666  21.180  14.618   5.735
 4262POPC   C1A56667  21.457  14.346   6.175
 4262POPC   D2A56668  21.550  14.134   6.570
 4262POPC   C3A56669  21.428  14.325   6.979
 4262POPC   C4A56670  21.552  14.543   7.348
 4262POPC   C1B56671  21.061  14.683   6.130
 4262POPC   C2B56672  21.076  14.905   6.482
 4262POPC   C3B56673  21.275  14.797   6.845
 4262POPC   C4B56674  21.134  14.788   7.268
 4263POPC   NC356675  17.058  42.210   5.393
 4263POPC   PO456676  16.561  42.723   5.472
 4263POPC   GL156677  16.780  42.424   5.757
 4263POPC   GL256678  16.577  42.125   5.834
 4263POPC   C1A56679  17.005  42.204   6.118
 4263POPC   D2A56680  17.260  42.259   6.506
 4263POPC   C3A56681  17.069  42.154   6.887
 4263POPC   C4A56682  16.988  42.388   7.238
 4263POPC   C1B56683  16.387  42.139   6.268
 4263POPC   C2B56684  16.306  42.269   6.718
 4263POPC   C3B56685  16.484  42.166   7.131
 4263POPC   C4B56686  16.744  41.773   7.071
 4264POPC   NC356687  36.082  39.651   5.349
 4264POPC   PO456688  36.547  39.142   5.501
 4264POPC   GL156689  36.393  39.229   5.888
 4264POPC   GL256690  36.091  39.421   5.832
 4264POPC   C1A56691  36.446  39.295   6.306
 4264POPC   D2A56692  36.293  39.393   6.703
 4264POPC   C3A56693  36.459  39.185   7.058
 4264POPC   C4A56694  36.400  38.988   7.475
 4264POPC   C1B56695  35.911  39.332   6.231
 4264POPC   C2B56696  35.802  39.512   6.624
 4264POPC   C3B56697  35.866  39.293   7.005
 4264POPC   C4B56698  36.106  39.390   7.359
 4265POPC   NC356699  19.663  32.251   5.428
 4265POPC   PO456700  20.298  32.380   5.531
 4265POPC   GL156701  19.947  32.304   5.895
 4265POPC   GL256702  19.591  32.292   5.917
 4265POPC   C1A56703  19.785  32.501   6.314
 4265POPC   D2A56704  19.628  32.489   6.750
 4265POPC   C3A56705  19.875  32.291   7.071
 4265POPC   C4A56706  20.126  31.912   7.157
 4265POPC   C1B56707  19.518  32.057   6.303
 4265POPC   C2B56708  19.355  31.869   6.676
 4265POPC   C3B56709  19.385  32.088   7.043
 4265POPC   C4B56710  19.408  32.497   7.219
 4266POPC   NC356711  30.169  35.130   5.319
 4266POPC   PO456712  29.676  35.606   5.455
 4266POPC   GL156713  30.025  35.448   5.720
 4266POPC   GL256714  29.758  35.245   5.904
 4266POPC   C1A56715  30.241  35.181   6.047
 4266POPC   D2A56716  30.024  35.055   6.426
 4266POPC   C3A56717  29.946  35.360   6.736
 4266POPC   C4A56718  29.895  35.317   7.164
 4266POPC   C1B56719  29.871  35.558   6.234
 4266POPC   C2B56720  29.646  35.763   6.568
 4266POPC   C3B56721  29.590  35.679   6.973
 4266POPC   C4B56722  29.630  35.662   7.430
 4267POPC   NC356723  33.181  38.463   5.122
 4267POPC   PO456724  32.742  38.151   5.529
 4267POPC   GL156725  33.005  38.254   5.939
 4267POPC   GL256726  33.373  38.374   5.895
 4267POPC   C1A56727  33.039  38.216   6.393
 4267POPC   D2A56728  32.819  38.512   6.680
 4267POPC   C3A56729  32.920  38.516   7.105
 4267POPC   C4A56730  33.257  38.249   7.133
 4267POPC   C1B56731  33.350  38.621   6.276
 4267POPC   C2B56732  33.313  38.560   6.714
 4267POPC   C3B56733  33.411  38.747   7.080
 4267POPC   C4B56734  33.587  38.902   7.459
 4268POPC   NC356735  13.859  19.224   5.302
 4268POPC   PO456736  13.336  18.857   5.444
 4268POPC   GL156737  13.476  18.908   5.815
 4268POPC   GL256738  13.493  19.292   5.788
 4268POPC   C1A56739  13.300  18.766   6.209
 4268POPC   D2A56740  13.418  18.622   6.594
 4268POPC   C3A56741  13.432  18.788   6.971
 4268POPC   C4A56742  13.797  18.874   7.236
 4268POPC   C1B56743  13.672  19.135   6.229
 4268POPC   C2B56744  13.781  19.063   6.700
 4268POPC   C3B56745  13.750  19.350   7.065
 4268POPC   C4B56746  13.678  19.441   7.486
 4269POPC   NC356747  23.129  25.102   5.462
 4269POPC   PO456748  22.816  25.735   5.406
 4269POPC   GL156749  22.770  25.475   5.795
 4269POPC   GL256750  22.815  25.090   5.856
 4269POPC   C1A56751  22.912  25.407   6.232
 4269POPC   D2A56752  22.919  25.054   6.534
 4269POPC   C3A56753  22.844  25.263   6.927
 4269POPC   C4A56754  23.020  25.443   7.294
 4269POPC   C1B56755  22.599  24.858   6.173
 4269POPC   C2B56756  22.393  24.840   6.573
 4269POPC   C3B56757  22.405  25.012   7.001
 4269POPC   C4B56758  22.687  25.031   7.364
 4270POPC   NC356759  31.138   9.240   5.491
 4270POPC   PO456760  31.835   9.039   5.548
 4270POPC   GL156761  31.636   8.907   5.871
 4270POPC   GL256762  31.298   8.911   5.859
 4270POPC   C1A56763  31.562   9.127   6.267
 4270POPC   D2A56764  31.376   9.194   6.650
 4270POPC   C3A56765  31.344   8.852   6.938
 4270POPC   C4A56766  31.423   8.740   7.368
 4270POPC   C1B56767  31.097   8.884   6.285
 4270POPC   C2B56768  30.900   8.991   6.699
 4270POPC   C3B56769  30.921   9.091   7.157
 4270POPC   C4B56770  31.071   9.038   7.589
 4271POPC   NC356771   9.750   2.189   5.379
 4271POPC   PO456772  10.135   1.672   5.318
 4271POPC   GL156773   9.899   1.843   5.723
 4271POPC   GL256774  10.056   2.112   5.884
 4271POPC   C1A56775   9.687   1.898   6.143
 4271POPC   D2A56776   9.937   1.970   6.521
 4271POPC   C3A56777   9.715   2.030   6.918
 4271POPC   C4A56778   9.653   1.696   7.226
 4271POPC   C1B56779  10.187   2.366   6.249
 4271POPC   C2B56780   9.990   2.454   6.670
 4271POPC   C3B56781  10.164   2.279   7.047
 4271POPC   C4B56782  10.172   1.867   7.222
 4272POPC   NC356783  28.618  21.992   5.164
 4272POPC   PO456784  28.419  22.560   5.116
 4272POPC   GL156785  28.379  22.382   5.542
 4272POPC   GL256786  28.610  22.562   5.754
 4272POPC   C1A56787  28.277  22.245   6.008
 4272POPC   D2A56788  28.446  22.108   6.448
 4272POPC   C3A56789  28.166  22.150   6.816
 4272POPC   C4A56790  28.254  22.139   7.270
 4272POPC   C1B56791  28.575  22.622   6.185
 4272POPC   C2B56792  28.802  22.473   6.544
 4272POPC   C3B56793  28.523  22.489   6.916
 4272POPC   C4B56794  28.471  22.583   7.326
 4273POPC   NC356795  34.911   1.848   5.178
 4273POPC   PO456796  34.377   2.004   5.235
 4273POPC   GL156797  34.298   2.046   5.756
 4273POPC   GL256798  34.212   1.757   6.004
 4273POPC   C1A56799  34.309   2.176   6.252
 4273POPC   D2A56800  34.162   1.985   6.675
 4273POPC   C3A56801  34.325   2.170   7.043
 4273POPC   C4A56802  34.544   2.557   7.192
 4273POPC   C1B56803  34.462   1.688   6.385
 4273POPC   C2B56804  34.620   1.746   6.820
 4273POPC   C3B56805  34.523   1.742   7.245
 4273POPC   C4B56806  34.550   1.625   7.677
 4274POPC   NC356807  43.805   3.608   5.442
 4274POPC   PO456808  44.544   3.694   5.462
 4274POPC   GL156809  44.248   3.583   5.864
 4274POPC   GL256810  43.890   3.502   5.904
 4274POPC   C1A56811  44.083   3.541   6.349
 4274POPC   D2A56812  44.214   3.697   6.732
 4274POPC   C3A56813  44.018   3.637   7.098
 4274POPC   C4A56814  43.578   3.612   7.079
 4274POPC   C1B56815  43.642   3.276   6.156
 4274POPC   C2B56816  43.580   3.408   6.566
 4274POPC   C3B56817  43.903   3.242   6.787
 4274POPC   C4B56818  43.823   3.167   7.179
 4275POPC   NC356819  34.832  29.391   5.493
 4275POPC   PO456820  34.202  29.376   5.534
 4275POPC   GL156821  34.459  29.397   5.891
 4275POPC   GL256822  34.532  29.059   5.899
 4275POPC   C1A56823  34.774  29.330   6.254
 4275POPC   D2A56824  34.648  29.226   6.685
 4275POPC   C3A56825  34.862  29.327   7.047
 4275POPC   C4A56826  34.775  29.256   7.466
 4275POPC   C1B56827  34.316  29.054   6.331
 4275POPC   C2B56828  34.257  28.888   6.776
 4275POPC   C3B56829  34.457  28.953   7.195
 4275POPC   C4B56830  34.495  28.839   7.671
 4276POPC   NC356831  20.441  30.986   5.498
 4276POPC   PO456832  20.715  30.352   5.371
 4276POPC   GL156833  20.715  30.629   5.762
 4276POPC   GL256834  20.411  30.545   5.946
 4276POPC   C1A56835  20.668  30.943   6.150
 4276POPC   D2A56836  20.569  31.139   6.592
 4276POPC   C3A56837  20.759  31.038   7.002
 4276POPC   C4A56838  20.675  30.890   7.429
 4276POPC   C1B56839  20.746  30.449   6.279
 4276POPC   C2B56840  20.786  30.577   6.724
 4276POPC   C3B56841  20.576  30.471   7.115
 4276POPC   C4B56842  20.173  30.267   7.158
 4277POPC   NC356843  33.083  42.532   5.485
 4277POPC   PO456844  32.650  42.068   5.729
 4277POPC   GL156845  32.893  42.345   5.956
 4277POPC   GL256846  32.770  42.673   5.906
 4277POPC   C1A56847  33.099  42.324   6.383
 4277POPC   D2A56848  33.331  42.460   6.777
 4277POPC   C3A56849  33.365  42.123   7.122
 4277POPC   C4A56850  33.344  41.914   7.560
 4277POPC   C1B56851  32.604  42.553   6.321
 4277POPC   C2B56852  32.756  42.448   6.776
 4277POPC   C3B56853  32.960  42.572   7.166
 4277POPC   C4B56854  32.753  42.719   7.578
 4278POPC   NC356855  13.319  22.420   5.638
 4278POPC   PO456856  14.007  22.429   5.685
 4278POPC   GL156857  13.713  22.229   5.904
 4278POPC   GL256858  13.759  21.882   5.785
 4278POPC   C1A56859  13.460  22.293   6.277
 4278POPC   D2A56860  13.496  22.530   6.646
 4278POPC   C3A56861  13.351  22.276   6.987
 4278POPC   C4A56862  13.419  22.027   7.330
 4278POPC   C1B56863  13.797  21.862   6.246
 4278POPC   C2B56864  13.660  21.976   6.663
 4278POPC   C3B56865  13.858  22.027   7.063
 4278POPC   C4B56866  14.089  21.808   7.416
 4279POPC   NC356867  14.288  42.646   5.501
 4279POPC   PO456868  14.863  42.315   5.401
 4279POPC   GL156869  14.727  42.491   5.856
 4279POPC   GL256870  14.368  42.554   5.994
 4279POPC   C1A56871  14.700  42.428   6.342
 4279POPC   D2A56872  14.477  42.275   6.684
 4279POPC   C3A56873  14.358  42.454   7.018
 4279POPC   C4A56874  14.355  42.363   7.430
 4279POPC   C1B56875  14.199  42.206   6.274
 4279POPC   C2B56876  14.107  41.923   6.595
 4279POPC   C3B56877  14.001  42.064   6.994
 4279POPC   C4B56878  14.085  41.940   7.416
 4280POPC   NC356879  35.744   9.258   5.455
 4280POPC   PO456880  35.421   8.679   5.349
 4280POPC   GL156881  35.447   8.962   5.733
 4280POPC   GL256882  35.101   9.019   5.855
 4280POPC   C1A56883  35.499   8.977   6.174
 4280POPC   D2A56884  35.385   9.014   6.596
 4280POPC   C3A56885  35.680   9.111   6.882
 4280POPC   C4A56886  35.425   9.268   7.213
 4280POPC   C1B56887  34.993   8.863   6.267
 4280POPC   C2B56888  35.048   8.629   6.632
 4280POPC   C3B56889  35.135   8.805   7.037
 4280POPC   C4B56890  35.506   8.785   7.242
 4281POPC   NC356891  35.093  11.913   5.592
 4281POPC   PO456892  35.564  12.293   5.399
 4281POPC   GL156893  35.384  12.283   5.798
 4281POPC   GL256894  35.527  11.974   5.888
 4281POPC   C1A56895  35.163  12.207   6.210
 4281POPC   D2A56896  35.079  11.883   6.547
 4281POPC   C3A56897  35.262  11.900   6.987
 4281POPC   C4A56898  35.426  12.015   7.424
 4281POPC   C1B56899  35.641  11.765   6.272
 4281POPC   C2B56900  35.606  11.614   6.723
 4281POPC   C3B56901  35.806  11.655   7.163
 4281POPC   C4B56902  35.867  11.769   7.631
 4282POPC   NC356903   1.781  21.332   5.330
 4282POPC   PO456904   2.458  21.366   5.342
 4282POPC   GL156905   2.177  21.458   5.727
 4282POPC   GL256906   1.897  21.212   5.887
 4282POPC   C1A56907   2.204  21.468   6.192
 4282POPC   D2A56908   2.085  21.120   6.500
 4282POPC   C3A56909   2.002  21.295   6.896
 4282POPC   C4A56910   2.126  21.323   7.312
 4282POPC   C1B56911   1.613  21.143   6.283
 4282POPC   C2B56912   1.586  20.994   6.735
 4282POPC   C3B56913   1.644  21.087   7.192
 4282POPC   C4B56914   1.735  21.299   7.611
 4283POPC   NC356915  28.342  20.225   5.588
 4283POPC   PO456916  28.448  20.856   5.551
 4283POPC   GL156917  28.399  20.637   5.928
 4283POPC   GL256918  28.076  20.660   5.910
 4283POPC   C1A56919  28.461  20.461   6.377
 4283POPC   D2A56920  28.427  20.156   6.674
 4283POPC   C3A56921  28.485  20.293   7.050
 4283POPC   C4A56922  28.393  20.631   7.254
 4283POPC   C1B56923  27.977  20.584   6.344
 4283POPC   C2B56924  28.105  20.602   6.785
 4283POPC   C3B56925  28.089  20.982   7.079
 4283POPC   C4B56926  27.956  20.892   7.515
 4284POPC   NC356927  31.407  29.157   5.475
 4284POPC   PO456928  31.744  29.680   5.500
 4284POPC   GL156929  31.556  29.364   5.915
 4284POPC   GL256930  31.212  29.161   5.934
 4284POPC   C1A56931  31.561  29.004   6.277
 4284POPC   D2A56932  31.735  28.966   6.734
 4284POPC   C3A56933  31.842  29.337   6.955
 4284POPC   C4A56934  31.451  29.462   7.088
 4284POPC   C1B56935  31.042  29.146   6.331
 4284POPC   C2B56936  31.228  29.057   6.725
 4284POPC   C3B56937  31.119  29.006   7.138
 4284POPC   C4B56938  30.869  29.024   7.521
 4285POPC   NC356939  15.227  33.699   5.331
 4285POPC   PO456940  15.664  34.174   5.658
 4285POPC   GL156941  15.288  33.987   5.771
 4285POPC   GL256942  15.339  33.622   5.827
 4285POPC   C1A56943  15.035  33.885   6.140
 4285POPC   D2A56944  14.867  33.802   6.531
 4285POPC   C3A56945  15.016  33.942   6.931
 4285POPC   C4A56946  15.270  34.155   7.264
 4285POPC   C1B56947  15.294  33.404   6.229
 4285POPC   C2B56948  15.206  33.451   6.653
 4285POPC   C3B56949  15.068  33.368   7.035
 4285POPC   C4B56950  15.314  33.628   7.289
 4286POPC   NC356951  14.125  13.400   5.537
 4286POPC   PO456952  14.307  14.083   5.333
 4286POPC   GL156953  14.412  13.842   5.748
 4286POPC   GL256954  14.489  13.484   5.906
 4286POPC   C1A56955  14.449  13.918   6.202
 4286POPC   D2A56956  14.637  13.762   6.577
 4286POPC   C3A56957  14.547  13.902   6.988
 4286POPC   C4A56958  14.610  13.553   7.250
 4286POPC   C1B56959  14.220  13.442   6.307
 4286POPC   C2B56960  14.241  13.485   6.779
 4286POPC   C3B56961  14.156  13.260   7.177
 4286POPC   C4B56962  14.059  13.172   7.632
 4287POPC   NC356963   7.683  37.416   5.306
 4287POPC   PO456964   7.154  37.846   5.357
 4287POPC   GL156965   7.211  37.560   5.699
 4287POPC   GL256966   7.025  37.243   5.694
 4287POPC   C1A56967   7.389  37.695   6.118
 4287POPC   D2A56968   7.616  37.906   6.455
 4287POPC   C3A56969   7.529  37.723   6.854
 4287POPC   C4A56970   7.617  37.742   7.282
 4287POPC   C1B56971   6.980  37.384   6.129
 4287POPC   C2B56972   7.188  37.347   6.534
 4287POPC   C3B56973   7.184  37.327   6.987
 4287POPC   C4B56974   7.093  37.693   7.208
 4288POPC   NC356975   6.163   3.959   5.164
 4288POPC   PO456976   5.726   4.425   5.326
 4288POPC   GL156977   5.660   4.348   5.794
 4288POPC   GL256978   5.882   4.105   5.865
 4288POPC   C1A56979   5.581   4.320   6.251
 4288POPC   D2A56980   5.513   4.491   6.651
 4288POPC   C3A56981   5.633   4.318   7.018
 4288POPC   C4A56982   5.556   4.395   7.448
 4288POPC   C1B56983   6.081   4.291   6.220
 4288POPC   C2B56984   6.022   4.270   6.630
 4288POPC   C3B56985   6.116   4.497   6.956
 4288POPC   C4B56986   6.082   4.263   7.279
 4289POPC   NC356987  16.896  34.223   5.521
 4289POPC   PO456988  16.802  33.668   5.265
 4289POPC   GL156989  16.741  33.658   5.790
 4289POPC   GL256990  16.937  33.911   5.978
 4289POPC   C1A56991  16.550  33.652   6.217
 4289POPC   D2A56992  16.807  33.680   6.580
 4289POPC   C3A56993  16.836  33.705   7.026
 4289POPC   C4A56994  16.602  33.794   7.380
 4289POPC   C1B56995  16.794  34.142   6.290
 4289POPC   C2B56996  16.682  34.176   6.694
 4289POPC   C3B56997  16.968  34.215   7.009
 4289POPC   C4B56998  16.874  34.218   7.415
 4290POPC   NC356999  18.988  13.217   5.196
 4290POPC   PO457000  19.380  12.712   5.360
 4290POPC   GL157001  19.099  12.874   5.718
 4290POPC   GL257002  18.765  12.701   5.768
 4290POPC   C1A57003  19.139  12.811   6.195
 4290POPC   D2A57004  18.925  12.847   6.621
 4290POPC   C3A57005  19.049  12.745   7.063
 4290POPC   C4A57006  19.121  12.940   7.472
 4290POPC   C1B57007  18.624  12.857   6.169
 4290POPC   C2B57008  18.420  12.865   6.570
 4290POPC   C3B57009  18.547  12.868   6.997
 4290POPC   C4B57010  18.605  12.981   7.410
 4291POPC   NC357011  43.065  40.576   5.464
 4291POPC   PO457012  42.816  41.188   5.462
 4291POPC   GL157013  43.200  41.007   5.751
 4291POPC   GL257014  43.212  40.695   5.933
 4291POPC   C1A57015  43.163  41.095   6.240
 4291POPC   D2A57016  42.944  41.161   6.651
 4291POPC   C3A57017  43.187  40.974   7.007
 4291POPC   C4A57018  43.124  40.763   7.416
 4291POPC   C1B57019  42.968  40.568   6.285
 4291POPC   C2B57020  42.869  40.663   6.695
 4291POPC   C3B57021  42.913  40.479   7.053
 4291POPC   C4B57022  42.660  40.510   7.419
 4292POPC   NC357023  17.266  12.318   5.313
 4292POPC   PO457024  17.733  11.751   5.339
 4292POPC   GL157025  17.541  11.920   5.723
 4292POPC   GL257026  17.766  11.702   5.902
 4292POPC   C1A57027  17.462  12.219   6.113
 4292POPC   D2A57028  17.557  12.378   6.558
 4292POPC   C3A57029  17.286  12.405   6.929
 4292POPC   C4A57030  17.363  12.328   7.344
 4292POPC   C1B57031  17.405  11.713   6.201
 4292POPC   C2B57032  17.277  11.832   6.597
 4292POPC   C3B57033  17.374  11.909   6.995
 4292POPC   C4B57034  17.627  11.852   7.340
 4293POPC   NC357035  20.576  11.371   5.507
 4293POPC   PO457036  20.935  10.721   5.505
 4293POPC   GL157037  20.831  10.981   5.890
 4293POPC   GL257038  20.876  11.344   5.915
 4293POPC   C1A57039  20.780  11.102   6.348
 4293POPC   D2A57040  20.725  11.427   6.668
 4293POPC   C3A57041  20.621  11.192   7.028
 4293POPC   C4A57042  20.801  11.122   7.430
 4293POPC   C1B57043  20.487  11.464   6.158
 4293POPC   C2B57044  20.412  11.813   6.420
 4293POPC   C3B57045  20.416  11.881   6.848
 4293POPC   C4B57046  20.542  11.655   7.214
 4294POPC   NC357047  40.531  23.076   5.422
 4294POPC   PO457048  41.259  23.138   5.402
 4294POPC   GL157049  40.896  23.073   5.782
 4294POPC   GL257050  41.006  22.786   6.041
 4294POPC   C1A57051  40.630  23.099   6.171
 4294POPC   D2A57052  40.727  22.854   6.563
 4294POPC   C3A57053  40.650  23.030   6.958
 4294POPC   C4A57054  40.891  23.204   7.254
 4294POPC   C1B57055  40.589  22.590   6.141
 4294POPC   C2B57056  40.326  22.494   6.495
 4294POPC   C3B57057  40.424  22.577   6.908
 4294POPC   C4B57058  40.884  22.588   7.027
 4295POPC   NC357059  34.573   4.512   5.480
 4295POPC   PO457060  33.922   4.507   5.189
 4295POPC   GL157061  33.761   4.461   5.651
 4295POPC   GL257062  34.101   4.413   5.750
 4295POPC   C1A57063  33.668   4.204   6.096
 4295POPC   D2A57064  33.523   4.095   6.564
 4295POPC   C3A57065  33.752   4.207   6.971
 4295POPC   C4A57066  33.807   4.112   7.390
 4295POPC   C1B57067  33.935   4.636   6.123
 4295POPC   C2B57068  33.841   4.524   6.554
 4295POPC   C3B57069  33.897   4.713   6.979
 4295POPC   C4B57070  34.064   4.593   7.416
 4296POPC   NC357071  15.645  32.094   5.500
 4296POPC   PO457072  15.020  32.357   5.700
 4296POPC   GL157073  15.407  32.255   5.940
 4296POPC   GL257074  15.426  31.891   5.931
 4296POPC   C1A57075  15.513  32.409   6.347
 4296POPC   D2A57076  15.298  32.578   6.691
 4296POPC   C3A57077  15.439  32.493   7.070
 4296POPC   C4A57078  15.324  32.380   7.491
 4296POPC   C1B57079  15.534  31.905   6.375
 4296POPC   C2B57080  15.433  32.022   6.799
 4296POPC   C3B57081  15.414  31.956   7.246
 4296POPC   C4B57082  15.394  31.939   7.754
 4297POPC   NC357083  15.052  43.289   5.553
 4297POPC   PO457084  15.599  42.991   5.418
 4297POPC   GL157085  15.258  42.875   5.767
 4297POPC   GL257086  15.066  43.162   6.025
 4297POPC   C1A57087  15.107  42.693   6.165
 4297POPC   D2A57088  15.043  42.977   6.531
 4297POPC   C3A57089  15.260  42.835   6.893
 4297POPC   C4A57090  15.159  42.774   7.324
 4297POPC   C1B57091  14.775  43.397   6.286
 4297POPC   C2B57092  14.683  43.343   6.720
 4297POPC   C3B57093  14.909  43.156   7.086
 4297POPC   C4B57094  14.887  43.158   7.560
 4298POPC   NC357095   4.495   7.967   5.491
 4298POPC   PO457096   4.625   7.279   5.385
 4298POPC   GL157097   4.422   7.496   5.758
 4298POPC   GL257098   4.052   7.555   5.658
 4298POPC   C1A57099   4.398   7.250   6.171
 4298POPC   D2A57100   4.552   6.966   6.489
 4298POPC   C3A57101   4.431   7.152   6.860
 4298POPC   C4A57102   4.620   7.188   7.241
 4298POPC   C1B57103   4.000   7.558   6.103
 4298POPC   C2B57104   4.259   7.675   6.459
 4298POPC   C3B57105   4.301   7.652   6.888
 4298POPC   C4B57106   4.170   7.422   7.228
 4299POPC   NC357107   3.790  39.338   5.413
 4299POPC   PO457108   3.220  39.408   5.135
 4299POPC   GL157109   3.368  39.239   5.645
 4299POPC   GL257110   3.117  39.207   5.888
 4299POPC   C1A57111   3.644  39.327   6.064
 4299POPC   D2A57112   3.787  39.492   6.497
 4299POPC   C3A57113   3.801  39.330   6.919
 4299POPC   C4A57114   3.632  39.080   7.250
 4299POPC   C1B57115   3.202  39.078   6.265
 4299POPC   C2B57116   3.102  39.294   6.618
 4299POPC   C3B57117   3.290  39.386   6.969
 4299POPC   C4B57118   3.512  39.575   7.287
 4300POPC   NC357119   5.175  33.048   5.319
 4300POPC   PO457120   4.562  33.070   5.474
 4300POPC   GL157121   4.926  33.148   5.761
 4300POPC   GL257122   5.309  33.267   5.773
 4300POPC   C1A57123   5.164  32.897   6.107
 4300POPC   D2A57124   5.303  32.794   6.546
 4300POPC   C3A57125   5.223  32.991   6.965
 4300POPC   C4A57126   5.356  32.961   7.388
 4300POPC   C1B57127   5.097  33.406   6.152
 4300POPC   C2B57128   5.208  33.307   6.561
 4300POPC   C3B57129   5.062  33.468   6.945
 4300POPC   C4B57130   5.012  33.346   7.347
 4301POPC   NC357131  18.329   1.565   5.414
 4301POPC   PO457132  18.402   2.196   5.258
 4301POPC   GL157133  18.343   2.128   5.694
 4301POPC   GL257134  18.127   1.861   5.816
 4301POPC   C1A57135  18.450   2.115   6.124
 4301POPC   D2A57136  18.273   2.244   6.497
 4301POPC   C3A57137  18.343   2.090   6.900
 4301POPC   C4A57138  18.296   2.294   7.282
 4301POPC   C1B57139  18.182   1.693   6.249
 4301POPC   C2B57140  18.288   1.603   6.675
 4301POPC   C3B57141  18.092   1.692   7.070
 4301POPC   C4B57142  18.245   1.799   7.458
 4302POPC   NC357143  28.347  43.452   5.516
 4302POPC   PO457144  28.593  42.833   5.783
 4302POPC   GL157145  28.404  43.157   5.921
 4302POPC   GL257146  28.713  43.335   5.846
 4302POPC   C1A57147  28.301  43.308   6.313
 4302POPC   D2A57148  28.024  43.308   6.643
 4302POPC   C3A57149  28.155  43.084   7.012
 4302POPC   C4A57150  28.568  43.127   7.205
 4302POPC   C1B57151  28.745  43.586   6.211
 4302POPC   C2B57152  28.601  43.729   6.578
 4302POPC   C3B57153  28.746  43.565   6.954
 4302POPC   C4B57154  28.588  43.635   7.334
 4303POPC   NC357155   0.347  37.107   5.354
 4303POPC   PO457156   0.873  36.894   5.634
 4303POPC   GL157157   0.494  36.880   5.816
 4303POPC   GL257158   0.505  37.255   5.808
 4303POPC   C1A57159   0.403  36.652   6.212
 4303POPC   D2A57160   0.237  36.547   6.635
 4303POPC   C3A57161   0.449  36.716   7.004
 4303POPC   C4A57162   0.368  36.764   7.443
 4303POPC   C1B57163   0.644  37.160   6.203
 4303POPC   C2B57164   0.439  37.061   6.563
 4303POPC   C3B57165   0.649  37.213   6.906
 4303POPC   C4B57166   0.482  37.235   7.273
 4304POPC   NC357167  37.591  37.209   5.593
 4304POPC   PO457168  37.780  36.645   5.503
 4304POPC   GL157169  37.615  36.807   5.882
 4304POPC   GL257170  37.937  37.000   5.938
 4304POPC   C1A57171  37.596  36.914   6.327
 4304POPC   D2A57172  37.970  37.004   6.578
 4304POPC   C3A57173  37.917  36.798   6.968
 4304POPC   C4A57174  37.956  36.833   7.409
 4304POPC   C1B57175  37.818  37.355   6.223
 4304POPC   C2B57176  37.598  37.401   6.624
 4304POPC   C3B57177  37.557  37.188   7.031
 4304POPC   C4B57178  37.723  37.271   7.437
 4305POPC   NC357179  39.126  41.590   5.379
 4305POPC   PO457180  39.385  42.174   5.339
 4305POPC   GL157181  39.499  41.794   5.686
 4305POPC   GL257182  39.530  41.387   5.688
 4305POPC   C1A57183  39.289  41.609   6.089
 4305POPC   D2A57184  39.176  41.325   6.462
 4305POPC   C3A57185  39.073  41.540   6.870
 4305POPC   C4A57186  39.333  41.718   7.196
 4305POPC   C1B57187  39.683  41.298   6.128
 4305POPC   C2B57188  39.681  41.556   6.472
 4305POPC   C3B57189  39.671  41.494   6.892
 4305POPC   C4B57190  39.826  41.596   7.294
 4306POPC   NC357191   4.464  31.217   5.527
 4306POPC   PO457192   4.324  30.578   5.197
 4306POPC   GL157193   4.215  30.644   5.686
 4306POPC   GL257194   4.521  30.751   5.826
 4306POPC   C1A57195   4.199  30.823   6.195
 4306POPC   D2A57196   4.529  30.747   6.581
 4306POPC   C3A57197   4.398  30.703   7.025
 4306POPC   C4A57198   3.999  30.741   7.148
 4306POPC   C1B57199   4.379  30.370   6.085
 4306POPC   C2B57200   4.317  30.272   6.504
 4306POPC   C3B57201   4.548  30.239   6.884
 4306POPC   C4B57202   4.793  30.369   7.244
 4307POPC   NC357203  30.114  44.841   5.445
 4307POPC   PO457204  29.805  44.282   5.359
 4307POPC   GL157205  29.850  44.575   5.799
 4307POPC   GL257206  30.159  44.753   5.921
 4307POPC   C1A57207  29.812  44.754   6.267
 4307POPC   D2A57208  29.753  44.570   6.673
 4307POPC   C3A57209  29.979  44.499   7.066
 4307POPC   C4A57210  29.847  44.441   7.498
 4307POPC   C1B57211  30.325  44.788   6.311
 4307POPC   C2B57212  30.203  44.894   6.704
 4307POPC   C3B57213  30.127  44.997   7.105
 4307POPC   C4B57214  30.173  44.832   7.512
 4308POPC   NC357215  44.000  32.800   5.042
 4308POPC   PO457216  43.760  33.430   5.324
 4308POPC   GL157217  43.792  33.222   5.741
 4308POPC   GL257218  43.529  32.993   5.884
 4308POPC   C1A57219  43.988  33.220   6.167
 4308POPC   D2A57220  43.997  32.995   6.532
 4308POPC   C3A57221  44.158  32.973   6.934
 4308POPC   C4A57222  44.131  32.722   7.300
 4308POPC   C1B57223  43.499  33.375   6.141
 4308POPC   C2B57224  43.698  33.472   6.530
 4308POPC   C3B57225  43.751  33.268   6.894
 4308POPC   C4B57226  43.756  33.066   7.255
 4309POPC   NC357227  32.630  44.879   5.679
 4309POPC   PO457228  32.073  44.539   5.374
 4309POPC   GL157229  32.156  44.655   5.774
 4309POPC   GL257230  32.427  44.437   5.845
 4309POPC   C1A57231  32.054  44.744   6.201
 4309POPC   D2A57232  32.227  44.491   6.536
 4309POPC   C3A57233  32.183  44.646   6.936
 4309POPC   C4A57234  31.944  44.603   7.262
 4309POPC   C1B57235  32.529  44.203   6.198
 4309POPC   C2B57236  32.704  44.270   6.602
 4309POPC   C3B57237  32.623  44.393   7.016
 4309POPC   C4B57238  32.507  44.615   7.409
 4310POPC   NC357239  41.957   5.029   5.415
 4310POPC   PO457240  42.628   5.151   5.407
 4310POPC   GL157241  42.286   5.204   5.780
 4310POPC   GL257242  42.056   4.897   5.889
 4310POPC   C1A57243  42.249   5.194   6.267
 4310POPC   D2A57244  42.497   5.008   6.638
 4310POPC   C3A57245  42.510   5.192   7.059
 4310POPC   C4A57246  42.172   5.398   7.265
 4310POPC   C1B57247  42.210   4.621   6.192
 4310POPC   C2B57248  42.251   4.540   6.640
 4310POPC   C3B57249  42.117   4.836   6.976
 4310POPC   C4B57250  42.218   4.891   7.407
 4311POPC   NC357251  41.822  19.597   5.530
 4311POPC   PO457252  41.372  20.050   5.368
 4311POPC   GL157253  41.395  19.823   5.781
 4311POPC   GL257254  41.753  19.892   5.923
 4311POPC   C1A57255  41.357  19.980   6.213
 4311POPC   D2A57256  41.124  19.982   6.607
 4311POPC   C3A57257  41.364  20.070   6.987
 4311POPC   C4A57258  41.570  19.922   7.380
 4311POPC   C1B57259  42.017  19.720   6.233
 4311POPC   C2B57260  42.076  19.822   6.671
 4311POPC   C3B57261  42.028  19.738   7.113
 4311POPC   C4B57262  41.995  19.686   7.548
 4312POPC   NC357263  29.526   0.536   5.461
 4312POPC   PO457264  28.866   0.610   5.552
 4312POPC   GL157265  29.202   0.677   5.866
 4312POPC   GL257266  29.368   0.345   5.900
 4312POPC   C1A57267  29.174   0.553   6.319
 4312POPC   D2A57268  28.946   0.168   6.487
 4312POPC   C3A57269  28.838   0.133   6.933
 4312POPC   C4A57270  29.120  44.990   7.254
 4312POPC   C1B57271  29.533   0.175   6.288
 4312POPC   C2B57272  29.725   0.113   6.715
 4312POPC   C3B57273  29.492   0.306   7.062
 4312POPC   C4B57274  29.455   0.684   7.347
 4313POPC   NC357275  28.312  16.209   5.680
 4313POPC   PO457276  28.902  16.289   5.542
 4313POPC   GL157277  28.758  16.001   5.895
 4313POPC   GL257278  28.548  15.686   5.851
 4313POPC   C1A57279  28.696  15.806   6.342
 4313POPC   D2A57280  28.634  15.600   6.776
 4313POPC   C3A57281  28.592  15.870   7.179
 4313POPC   C4A57282  28.660  15.726   7.646
 4313POPC   C1B57283  28.220  15.802   6.169
 4313POPC   C2B57284  28.268  15.933   6.603
 4313POPC   C3B57285  28.106  15.949   7.018
 4313POPC   C4B57286  28.154  16.303   7.301
 4314POPC   NC357287  26.793  42.238   5.229
 4314POPC   PO457288  27.282  42.663   5.353
 4314POPC   GL157289  26.996  42.464   5.669
 4314POPC   GL257290  26.825  42.130   5.744
 4314POPC   C1A57291  26.710  42.541   6.033
 4314POPC   D2A57292  26.868  42.602   6.453
 4314POPC   C3A57293  26.650  42.537   6.841
 4314POPC   C4A57294  26.807  42.593   7.260
 4314POPC   C1B57295  27.042  42.146   6.163
 4314POPC   C2B57296  27.140  42.081   6.628
 4314POPC   C3B57297  26.931  42.158   7.038
 4314POPC   C4B57298  26.462  42.128   7.115
 4315POPC   NC357299   3.377   9.149   5.646
 4315POPC   PO457300   3.663   9.695   5.264
 4315POPC   GL157301   3.623   9.617   5.679
 4315POPC   GL257302   3.837   9.352   5.644
 4315POPC   C1A57303   3.470   9.753   6.092
 4315POPC   D2A57304   3.205   9.785   6.463
 4315POPC   C3A57305   3.386   9.815   6.874
 4315POPC   C4A57306   3.510   9.889   7.281
 4315POPC   C1B57307   3.888   9.377   6.076
 4315POPC   C2B57308   3.792   9.557   6.441
 4315POPC   C3B57309   3.830   9.584   6.839
 4315POPC   C4B57310   3.635   9.369   7.192
 4316POPC   NC357311   7.963   5.692   5.385
 4316POPC   PO457312   8.467   6.049   5.513
 4316POPC   GL157313   8.294   5.760   5.880
 4316POPC   GL257314   8.033   5.507   5.872
 4316POPC   C1A57315   8.171   5.736   6.344
 4316POPC   D2A57316   7.872   5.962   6.644
 4316POPC   C3A57317   8.043   6.118   7.066
 4316POPC   C4A57318   8.359   5.934   7.377
 4316POPC   C1B57319   7.916   5.303   6.262
 4316POPC   C2B57320   7.886   5.446   6.682
 4316POPC   C3B57321   8.041   5.608   7.054
 4316POPC   C4B57322   7.860   5.805   7.429
 4317POPC   NC357323  37.989  39.499   5.479
 4317POPC   PO457324  37.803  40.137   5.405
 4317POPC   GL157325  37.691  39.879   5.766
 4317POPC   GL257326  38.041  39.859   5.930
 4317POPC   C1A57327  37.595  39.813   6.221
 4317POPC   D2A57328  37.718  39.661   6.653
 4317POPC   C3A57329  37.557  39.904   7.024
 4317POPC   C4A57330  37.433  39.881   7.467
 4317POPC   C1B57331  38.220  40.230   6.204
 4317POPC   C2B57332  38.221  40.387   6.637
 4317POPC   C3B57333  37.995  40.201   6.970
 4317POPC   C4B57334  37.751  40.265   7.341
 4318POPC   NC357335  13.123  39.377   5.363
 4318POPC   PO457336  13.786  39.245   5.346
 4318POPC   GL157337  13.689  39.171   5.788
 4318POPC   GL257338  13.355  39.278   5.938
 4318POPC   C1A57339  13.840  39.349   6.170
 4318POPC   D2A57340  13.743  39.388   6.580
 4318POPC   C3A57341  13.951  39.157   6.872
 4318POPC   C4A57342  13.709  39.047   7.206
 4318POPC   C1B57343  13.358  39.622   6.272
 4318POPC   C2B57344  13.425  39.778   6.652
 4318POPC   C3B57345  13.414  39.509   7.033
 4318POPC   C4B57346  13.349  39.429   7.486
 4319POPC   NC357347  17.347  31.705   5.261
 4319POPC   PO457348  17.764  32.258   5.390
 4319POPC   GL157349  17.696  32.326   5.844
 4319POPC   GL257350  17.996  32.216   5.937
 4319POPC   C1A57351  17.564  32.461   6.280
 4319POPC   D2A57352  17.527  32.208   6.663
 4319POPC   C3A57353  17.414  32.370   7.072
 4319POPC   C4A57354  17.234  32.474   7.464
 4319POPC   C1B57355  17.889  31.866   6.209
 4319POPC   C2B57356  17.792  31.774   6.642
 4319POPC   C3B57357  17.712  31.943   7.076
 4319POPC   C4B57358  17.721  31.753   7.530
 4320POPC   NC357359  11.515  20.192   5.509
 4320POPC   PO457360  11.170  20.849   5.549
 4320POPC   GL157361  11.378  20.628   5.830
 4320POPC   GL257362  11.589  20.904   5.853
 4320POPC   C1A57363  11.221  20.525   6.253
 4320POPC   D2A57364  11.143  20.736   6.658
 4320POPC   C3A57365  11.149  20.456   6.992
 4320POPC   C4A57366  11.356  20.332   7.367
 4320POPC   C1B57367  11.494  20.962   6.258
 4320POPC   C2B57368  11.622  20.845   6.655
 4320POPC   C3B57369  11.599  20.732   7.075
 4320POPC   C4B57370  11.855  20.370   7.158
 4321POPC   NC357371  30.669   8.409   5.402
 4321POPC   PO457372  30.353   7.804   5.406
 4321POPC   GL157373  30.510   8.031   5.780
 4321POPC   GL257374  30.834   8.186   5.836
 4321POPC   C1A57375  30.547   8.065   6.233
 4321POPC   D2A57376  30.731   8.159   6.609
 4321POPC   C3A57377  30.519   8.157   6.977
 4321POPC   C4A57378  30.507   7.820   7.259
 4321POPC   C1B57379  31.078   8.243   6.220
 4321POPC   C2B57380  31.105   8.484   6.631
 4321POPC   C3B57381  31.053   8.227   7.019
 4321POPC   C4B57382  30.898   8.102   7.442
 4322POPC   NC357383  44.169  19.969   5.560
 4322POPC   PO457384  44.653  19.569   5.332
 4322POPC   GL157385  44.680  19.645   5.787
 4322POPC   GL257386  44.328  19.530   5.802
 4322POPC   C1A57387  44.821  19.902   6.196
 4322POPC   D2A57388  44.689  20.074   6.631
 4322POPC   C3A57389  44.905  19.977   7.029
 4322POPC   C4A57390   0.055  19.562   7.191
 4322POPC   C1B57391  44.368  19.647   6.207
 4322POPC   C2B57392  44.288  19.488   6.589
 4322POPC   C3B57393  44.523  19.655   6.886
 4322POPC   C4B57394  44.565  19.671   7.281
 4323POPC   NC357395  18.277   0.836   5.029
 4323POPC   PO457396  18.429   0.328   5.506
 4323POPC   GL157397  18.326   0.376   5.883
 4323POPC   GL257398  18.046   0.575   5.827
 4323POPC   C1A57399  18.346   0.603   6.263
 4323POPC   D2A57400  18.399   0.412   6.654
 4323POPC   C3A57401  18.441   0.622   7.034
 4323POPC   C4A57402  18.406   0.402   7.416
 4323POPC   C1B57403  17.913   0.299   6.172
 4323POPC   C2B57404  17.958   0.128   6.609
 4323POPC   C3B57405  18.013   0.340   7.006
 4323POPC   C4B57406  17.993   0.687   7.334
 4324POPC   NC357407  24.298  42.593   5.360
 4324POPC   PO457408  24.684  42.002   5.494
 4324POPC   GL157409  24.539  42.348   5.771
 4324POPC   GL257410  24.163  42.318   5.759
 4324POPC   C1A57411  24.610  42.328   6.220
 4324POPC   D2A57412  24.749  41.998   6.519
 4324POPC   C3A57413  24.651  42.076   6.948
 4324POPC   C4A57414  24.858  42.132   7.352
 4324POPC   C1B57415  24.098  42.204   6.155
 4324POPC   C2B57416  24.235  42.122   6.546
 4324POPC   C3B57417  24.119  42.256   6.920
 4324POPC   C4B57418  24.310  42.293   7.291
 4325POPC   NC357419  22.269   0.185   5.411
 4325POPC   PO457420  21.892   0.674   5.547
 4325POPC   GL157421  21.967   0.585   5.948
 4325POPC   GL257422  21.981   0.250   5.888
 4325POPC   C1A57423  22.158   0.399   6.332
 4325POPC   D2A57424  22.352   0.246   6.699
 4325POPC   C3A57425  22.304   0.553   7.040
 4325POPC   C4A57426  22.343   0.998   7.143
 4325POPC   C1B57427  21.779   0.050   6.230
 4325POPC   C2B57428  21.962  44.924   6.613
 4325POPC   C3B57429  21.880   0.018   7.029
 4325POPC   C4B57430  22.113   0.191   7.353
 4326POPC   NC357431  39.582  42.877   5.356
 4326POPC   PO457432  40.054  43.344   5.402
 4326POPC   GL157433  39.988  43.191   5.833
 4326POPC   GL257434  39.823  42.852   5.867
 4326POPC   C1A57435  40.286  43.066   6.165
 4326POPC   D2A57436  40.253  42.842   6.553
 4326POPC   C3A57437  40.272  43.063   6.930
 4326POPC   C4A57438  40.127  42.900   7.288
 4326POPC   C1B57439  39.803  42.930   6.279
 4326POPC   C2B57440  39.685  42.930   6.674
 4326POPC   C3B57441  39.780  43.163   7.007
 4326POPC   C4B57442  39.725  43.282   7.406
 4327POPC   NC357443  43.293  25.057   5.375
 4327POPC   PO457444  42.774  25.355   5.483
 4327POPC   GL157445  43.083  25.357   5.773
 4327POPC   GL257446  43.004  25.067   5.937
 4327POPC   C1A57447  43.202  25.600   6.127
 4327POPC   D2A57448  43.260  25.449   6.558
 4327POPC   C3A57449  42.977  25.538   6.917
 4327POPC   C4A57450  43.025  25.387   7.328
 4327POPC   C1B57451  43.402  25.112   6.159
 4327POPC   C2B57452  43.581  25.025   6.586
 4327POPC   C3B57453  43.671  24.898   7.032
 4327POPC   C4B57454  43.415  24.956   7.434
 4328POPC   NC357455   3.351  40.837   5.305
 4328POPC   PO457456   3.729  40.246   5.326
 4328POPC   GL157457   3.497  40.496   5.719
 4328POPC   GL257458   3.410  40.887   5.812
 4328POPC   C1A57459   3.442  40.577   6.209
 4328POPC   D2A57460   3.263  40.448   6.632
 4328POPC   C3A57461   3.361  40.572   7.104
 4328POPC   C4A57462   3.703  40.577   7.438
 4328POPC   C1B57463   3.256  41.095   6.253
 4328POPC   C2B57464   3.238  40.963   6.715
 4328POPC   C3B57465   3.328  41.102   7.158
 4328POPC   C4B57466   3.284  41.266   7.612
 4329POPC   NC357467  35.721  41.266   5.481
 4329POPC   PO457468  36.092  41.711   5.171
 4329POPC   GL157469  36.276  41.481   5.585
 4329POPC   GL257470  35.999  41.489   5.828
 4329POPC   C1A57471  36.427  41.484   6.077
 4329POPC   D2A57472  36.213  41.569   6.476
 4329POPC   C3A57473  36.395  41.706   6.882
 4329POPC   C4A57474  36.213  41.743   7.312
 4329POPC   C1B57475  35.793  41.227   6.138
 4329POPC   C2B57476  35.757  41.354   6.550
 4329POPC   C3B57477  35.945  41.436   6.927
 4329POPC   C4B57478  35.875  41.218   7.305
 4330POPC   NC357479   8.464  20.360   5.364
 4330POPC   PO457480   8.052  20.940   5.457
 4330POPC   GL157481   8.415  20.831   5.728
 4330POPC   GL257482   8.547  20.492   5.830
 4330POPC   C1A57483   8.325  20.779   6.183
 4330POPC   D2A57484   8.168  20.521   6.535
 4330POPC   C3A57485   8.259  20.751   6.894
 4330POPC   C4A57486   8.026  20.940   7.221
 4330POPC   C1B57487   8.418  20.261   6.169
 4330POPC   C2B57488   8.577  20.154   6.581
 4330POPC   C3B57489   8.489  20.267   7.002
 4330POPC   C4B57490   8.205  20.455   7.295
 4331POPC   NC357491   6.193  10.754   5.441
 4331POPC   PO457492   6.816  10.506   5.533
 4331POPC   GL157493   6.599  10.277   5.827
 4331POPC   GL257494   6.915  10.185   5.958
 4331POPC   C1A57495   6.458  10.368   6.255
 4331POPC   D2A57496   6.237  10.649   6.557
 4331POPC   C3A57497   6.427  10.676   6.938
 4331POPC   C4A57498   6.543  10.275   7.095
 4331POPC   C1B57499   7.002  10.448   6.319
 4331POPC   C2B57500   6.886  10.715   6.683
 4331POPC   C3B57501   6.931  10.633   7.137
 4331POPC   C4B57502   7.092  10.222   7.260
 4332POPC   NC357503  42.243  28.899   5.450
 4332POPC   PO457504  42.684  29.415   5.511
 4332POPC   GL157505  42.541  29.115   5.812
 4332POPC   GL257506  42.182  29.215   5.851
 4332POPC   C1A57507  42.473  29.075   6.262
 4332POPC   D2A57508  42.158  29.298   6.509
 4332POPC   C3A57509  42.240  29.508   6.907
 4332POPC   C4A57510  42.317  29.395   7.330
 4332POPC   C1B57511  42.042  28.841   6.112
 4332POPC   C2B57512  42.095  28.764   6.576
 4332POPC   C3B57513  42.098  29.025   6.959
 4332POPC   C4B57514  42.075  28.931   7.387
 4333POPC   NC357515   2.958  37.583   5.378
 4333POPC   PO457516   2.386  37.895   5.582
 4333POPC   GL157517   2.637  37.651   5.810
 4333POPC   GL257518   2.971  37.815   5.831
 4333POPC   C1A57519   2.635  37.667   6.245
 4333POPC   D2A57520   2.497  37.450   6.589
 4333POPC   C3A57521   2.592  37.640   6.944
 4333POPC   C4A57522   2.511  37.924   7.219
 4333POPC   C1B57523   3.036  37.395   6.015
 4333POPC   C2B57524   3.030  37.348   6.437
 4333POPC   C3B57525   3.068  37.331   6.849
 4333POPC   C4B57526   2.997  37.495   7.213
 4334POPC   NC357527  20.966  44.195   5.413
 4334POPC   PO457528  21.599  43.970   5.486
 4334POPC   GL157529  21.572  43.736   5.877
 4334POPC   GL257530  21.195  43.773   5.993
 4334POPC   C1A57531  21.551  43.653   6.320
 4334POPC   D2A57532  21.188  43.725   6.543
 4334POPC   C3A57533  21.387  43.719   6.933
 4334POPC   C4A57534  21.573  43.692   7.341
 4334POPC   C1B57535  21.029  44.153   6.271
 4334POPC   C2B57536  20.976  44.473   6.586
 4334POPC   C3B57537  20.994  44.270   6.983
 4334POPC   C4B57538  21.061  43.923   7.268
 4335POPC   NC357539  31.518  44.923   5.102
 4335POPC   PO457540  31.690   0.458   5.457
 4335POPC   GL157541  31.329   0.423   5.768
 4335POPC   GL257542  31.318   0.776   5.884
 4335POPC   C1A57543  31.214   0.363   6.244
 4335POPC   D2A57544  31.487   0.311   6.653
 4335POPC   C3A57545  31.355   0.368   7.084
 4335POPC   C4A57546  31.378   0.821   7.132
 4335POPC   C1B57547  31.661   0.610   6.165
 4335POPC   C2B57548  31.886   0.677   6.554
 4335POPC   C3B57549  31.827   0.526   6.976
 4335POPC   C4B57550  31.807   0.732   7.403
 4336POPC   NC357551   7.377  42.689   5.527
 4336POPC   PO457552   7.212  41.961   5.357
 4336POPC   GL157553   7.302  42.218   5.723
 4336POPC   GL257554   7.618  42.206   5.610
 4336POPC   C1A57555   7.357  42.356   6.158
 4336POPC   D2A57556   7.184  42.258   6.564
 4336POPC   C3A57557   7.451  42.355   6.889
 4336POPC   C4A57558   7.458  42.436   7.298
 4336POPC   C1B57559   7.748  42.050   6.032
 4336POPC   C2B57560   7.877  42.289   6.395
 4336POPC   C3B57561   7.945  42.363   6.821
 4336POPC   C4B57562   7.956  42.327   7.258
 4337POPC   NC357563  41.831  26.287   5.484
 4337POPC   PO457564  41.224  25.907   5.357
 4337POPC   GL157565  41.469  26.003   5.749
 4337POPC   GL257566  41.531  26.287   5.897
 4337POPC   C1A57567  41.400  25.853   6.171
 4337POPC   D2A57568  41.166  26.010   6.527
 4337POPC   C3A57569  41.397  25.999   6.927
 4337POPC   C4A57570  41.213  25.855   7.309
 4337POPC   C1B57571  41.802  26.140   6.239
 4337POPC   C2B57572  41.993  26.168   6.643
 4337POPC   C3B57573  41.899  26.170   7.102
 4337POPC   C4B57574  41.656  26.058   7.465
 4338POPC   NC357575  17.640   3.935   5.524
 4338POPC   PO457576  17.295   3.448   5.307
 4338POPC   GL157577  17.315   3.607   5.723
 4338POPC   GL257578  17.462   3.299   5.813
 4338POPC   C1A57579  17.458   3.679   6.167
 4338POPC   D2A57580  17.337   3.419   6.531
 4338POPC   C3A57581  17.533   3.475   6.947
 4338POPC   C4A57582  17.832   3.716   7.118
 4338POPC   C1B57583  17.249   3.078   6.129
 4338POPC   C2B57584  17.326   2.901   6.521
 4338POPC   C3B57585  17.270   3.041   6.907
 4338POPC   C4B57586  17.175   3.260   7.238
 4339POPC   NC357587   3.727  15.320   5.449
 4339POPC   PO457588   3.145  14.952   5.361
 4339POPC   GL157589   3.385  15.074   5.715
 4339POPC   GL257590   3.331  15.443   5.775
 4339POPC   C1A57591   3.608  15.123   6.123
 4339POPC   D2A57592   3.456  14.986   6.537
 4339POPC   C3A57593   3.638  15.003   6.935
 4339POPC   C4A57594   3.686  14.909   7.399
 4339POPC   C1B57595   3.516  15.627   6.161
 4339POPC   C2B57596   3.543  15.494   6.576
 4339POPC   C3B57597   3.548  15.520   6.997
 4339POPC   C4B57598   3.862  15.369   7.235
 4340POPC   NC357599  44.880  17.502   5.491
 4340POPC   PO457600  44.231  17.489   5.486
 4340POPC   GL157601  44.502  17.395   5.864
 4340POPC   GL257602  44.823  17.178   5.874
 4340POPC   C1A57603  44.600  17.649   6.252
 4340POPC   D2A57604  44.534  17.815   6.688
 4340POPC   C3A57605  44.560  17.498   7.005
 4340POPC   C4A57606  44.752  17.604   7.375
 4340POPC   C1B57607   0.069  17.421   6.199
 4340POPC   C2B57608  44.908  17.414   6.625
 4340POPC   C3B57609   0.083  17.318   7.014
 4340POPC   C4B57610   0.220  17.430   7.380
 4341POPC   NC357611  10.959   0.756   5.222
 4341POPC   PO457612  10.477   0.339   5.460
 4341POPC   GL157613  10.574   0.308   5.897
 4341POPC   GL257614  10.260   0.475   5.948
 4341POPC   C1A57615  10.447   0.155   6.292
 4341POPC   D2A57616  10.266   0.306   6.669
 4341POPC   C3A57617  10.569   0.185   6.979
 4341POPC   C4A57618  10.710   0.397   7.320
 4341POPC   C1B57619  10.505   0.676   6.262
 4341POPC   C2B57620  10.433   0.899   6.582
 4341POPC   C3B57621  10.484   0.727   6.973
 4341POPC   C4B57622  10.462   0.844   7.392
 4342POPC   NC357623  26.999   1.540   5.183
 4342POPC   PO457624  26.627   2.126   5.361
 4342POPC   GL157625  26.911   2.065   5.776
 4342POPC   GL257626  26.673   1.954   6.019
 4342POPC   C1A57627  27.133   1.959   6.233
 4342POPC   D2A57628  26.982   1.873   6.656
 4342POPC   C3A57629  27.098   2.024   7.066
 4342POPC   C4A57630  26.852   2.101   7.470
 4342POPC   C1B57631  26.694   2.231   6.405
 4342POPC   C2B57632  26.647   2.207   6.875
 4342POPC   C3B57633  26.498   2.420   7.217
 4342POPC   C4B57634  26.506   2.442   7.676
 4343POPC   NC357635  31.021  41.618   5.453
 4343POPC   PO457636  30.470  41.228   5.300
 4343POPC   GL157637  30.666  41.312   5.737
 4343POPC   GL257638  30.971  41.491   5.941
 4343POPC   C1A57639  30.508  41.444   6.160
 4343POPC   D2A57640  30.365  41.631   6.562
 4343POPC   C3A57641  30.402  41.442   6.939
 4343POPC   C4A57642  30.560  41.536   7.320
 4343POPC   C1B57643  30.938  41.883   6.171
 4343POPC   C2B57644  30.790  41.997   6.542
 4343POPC   C3B57645  30.819  41.729   6.859
 4343POPC   C4B57646  30.923  41.915   7.192
 4344POPC   NC357647  21.572  16.090   5.647
 4344POPC   PO457648  21.089  15.796   5.236
 4344POPC   GL157649  21.368  15.637   5.727
 4344POPC   GL257650  21.300  15.902   6.025
 4344POPC   C1A57651  21.524  15.504   6.200
 4344POPC   D2A57652  21.313  15.801   6.547
 4344POPC   C3A57653  21.199  15.791   6.995
 4344POPC   C4A57654  21.207  16.163   7.288
 4344POPC   C1B57655  21.675  15.994   6.269
 4344POPC   C2B57656  21.809  15.895   6.666
 4344POPC   C3B57657  21.666  16.004   7.096
 4344POPC   C4B57658  21.573  15.922   7.557
 4345POPC   NC357659   8.202  19.430   5.621
 4345POPC   PO457660   7.976  18.966   5.200
 4345POPC   GL157661   8.099  18.931   5.708
 4345POPC   GL257662   7.870  19.121   5.898
 4345POPC   C1A57663   8.175  18.840   6.195
 4345POPC   D2A57664   8.046  18.832   6.673
 4345POPC   C3A57665   8.291  18.941   7.096
 4345POPC   C4A57666   8.188  19.048   7.568
 4345POPC   C1B57667   8.093  19.346   6.286
 4345POPC   C2B57668   8.147  19.347   6.761
 4345POPC   C3B57669   8.162  19.421   7.215
 4345POPC   C4B57670   8.321  19.553   7.618
 4346POPC   NC357671  28.602   2.882   5.354
 4346POPC   PO457672  28.115   2.435   5.428
 4346POPC   GL157673  28.337   2.742   5.773
 4346POPC   GL257674  28.681   2.967   5.833
 4346POPC   C1A57675  28.424   2.789   6.233
 4346POPC   D2A57676  28.203   2.784   6.628
 4346POPC   C3A57677  28.468   2.822   6.959
 4346POPC   C4A57678  28.438   2.762   7.369
 4346POPC   C1B57679  28.951   2.994   6.196
 4346POPC   C2B57680  28.761   3.063   6.606
 4346POPC   C3B57681  28.916   3.025   7.043
 4346POPC   C4B57682  28.744   3.141   7.457
 4347POPC   NC357683  37.349  42.176   5.054
 4347POPC   PO457684  37.832  42.240   5.507
 4347POPC   GL157685  37.734  42.254   5.874
 4347POPC   GL257686  37.735  42.618   5.945
 4347POPC   C1A57687  37.924  42.122   6.239
 4347POPC   D2A57688  38.101  42.185   6.638
 4347POPC   C3A57689  37.876  42.155   7.078
 4347POPC   C4A57690  37.563  42.211   7.439
 4347POPC   C1B57691  37.944  42.623   6.347
 4347POPC   C2B57692  37.948  42.633   6.804
 4347POPC   C3B57693  37.622  42.615   7.107
 4347POPC   C4B57694  37.646  42.728   7.543
 4348POPC   NC357695  25.572  43.682   5.318
 4348POPC   PO457696  24.908  43.638   5.371
 4348POPC   GL157697  25.085  43.947   5.674
 4348POPC   GL257698  24.837  44.153   5.849
 4348POPC   C1A57699  25.327  44.143   6.036
 4348POPC   D2A57700  25.338  44.289   6.491
 4348POPC   C3A57701  25.451  44.025   6.869
 4348POPC   C4A57702  25.273  43.916   7.266
 4348POPC   C1B57703  24.886  43.878   6.228
 4348POPC   C2B57704  25.011  43.814   6.677
 4348POPC   C3B57705  25.068  43.540   7.032
 4348POPC   C4B57706  24.939  43.587   7.464
 4349POPC   NC357707   9.208  19.981   5.416
 4349POPC   PO457708   8.592  19.655   5.493
 4349POPC   GL157709   8.803  19.952   5.732
 4349POPC   GL257710   9.052  19.694   5.820
 4349POPC   C1A57711   8.883  19.988   6.181
 4349POPC   D2A57712   8.895  19.698   6.525
 4349POPC   C3A57713   8.892  19.883   6.932
 4349POPC   C4A57714   8.721  19.831   7.334
 4349POPC   C1B57715   9.316  19.670   6.200
 4349POPC   C2B57716   9.443  19.539   6.590
 4349POPC   C3B57717   9.192  19.461   6.910
 4349POPC   C4B57718   9.212  19.658   7.303
 4350POPC   NC357719  37.182  23.844   5.139
 4350POPC   PO457720  37.808  23.666   5.319
 4350POPC   GL157721  37.825  23.565   5.759
 4350POPC   GL257722  38.104  23.783   5.781
 4350POPC   C1A57723  37.683  23.598   6.200
 4350POPC   D2A57724  37.473  23.660   6.612
 4350POPC   C3A57725  37.597  23.590   7.029
 4350POPC   C4A57726  37.736  23.637   7.445
 4350POPC   C1B57727  38.186  23.685   6.216
 4350POPC   C2B57728  37.948  23.909   6.544
 4350POPC   C3B57729  37.951  23.946   6.960
 4350POPC   C4B57730  38.191  23.645   7.162
 4351POPC   NC357731  20.688  44.908   5.110
 4351POPC   PO457732  20.726  44.470   5.692
 4351POPC   GL157733  20.510  44.678   5.964
 4351POPC   GL257734  20.840  44.781   6.098
 4351POPC   C1A57735  20.377  44.853   6.303
 4351POPC   D2A57736  20.502  44.695   6.680
 4351POPC   C3A57737  20.337  44.831   7.057
 4351POPC   C4A57738  20.355  44.675   7.465
 4351POPC   C1B57739  20.808   0.083   6.413
 4351POPC   C2B57740  20.908  44.977   6.797
 4351POPC   C3B57741  20.834  44.728   7.120
 4351POPC   C4B57742  21.124  44.956   7.334
 4352POPC   NC357743  28.160  30.983   5.498
 4352POPC   PO457744  28.602  30.519   5.445
 4352POPC   GL157745  28.364  30.618   5.810
 4352POPC   GL257746  28.578  30.881   5.906
 4352POPC   C1A57747  28.174  30.735   6.250
 4352POPC   D2A57748  28.112  30.753   6.732
 4352POPC   C3A57749  28.405  30.876   7.086
 4352POPC   C4A57750  28.294  30.903   7.532
 4352POPC   C1B57751  28.672  30.525   6.200
 4352POPC   C2B57752  28.729  30.379   6.594
 4352POPC   C3B57753  28.504  30.383   6.968
 4352POPC   C4B57754  28.395  30.424   7.379
 4353POPC   NC357755  14.456  37.453   5.378
 4353POPC   PO457756  13.945  37.929   5.268
 4353POPC   GL157757  14.201  37.873   5.704
 4353POPC   GL257758  14.561  37.993   5.702
 4353POPC   C1A57759  14.159  37.792   6.195
 4353POPC   D2A57760  13.919  37.662   6.588
 4353POPC   C3A57761  14.116  37.792   6.948
 4353POPC   C4A57762  14.336  37.636   7.319
 4353POPC   C1B57763  14.671  37.785   6.088
 4353POPC   C2B57764  14.655  37.673   6.517
 4353POPC   C3B57765  14.620  37.858   6.924
 4353POPC   C4B57766  14.795  37.939   7.319
 4354POPC   NC357767  27.806  30.179   5.472
 4354POPC   PO457768  27.667  30.869   5.506
 4354POPC   GL157769  27.559  30.573   5.832
 4354POPC   GL257770  27.874  30.456   5.887
 4354POPC   C1A57771  27.348  30.571   6.264
 4354POPC   D2A57772  27.270  30.705   6.723
 4354POPC   C3A57773  27.477  30.582   7.129
 4354POPC   C4A57774  27.422  30.552   7.609
 4354POPC   C1B57775  27.765  30.291   6.276
 4354POPC   C2B57776  27.709  30.414   6.675
 4354POPC   C3B57777  27.960  30.356   7.034
 4354POPC   C4B57778  27.904  30.536   7.411
 4355POPC   NC357779  37.752  23.185   5.365
 4355POPC   PO457780  37.404  22.551   5.420
 4355POPC   GL157781  37.644  22.834   5.707
 4355POPC   GL257782  37.920  22.758   5.925
 4355POPC   C1A57783  37.521  23.076   6.081
 4355POPC   D2A57784  37.655  22.923   6.478
 4355POPC   C3A57785  37.524  23.120   6.824
 4355POPC   C4A57786  37.586  23.128   7.255
 4355POPC   C1B57787  38.013  23.175   6.182
 4355POPC   C2B57788  37.936  23.378   6.608
 4355POPC   C3B57789  38.027  23.186   7.020
 4355POPC   C4B57790  38.025  23.218   7.500
 4356POPC   NC357791  30.477  13.293   5.465
 4356POPC   PO457792  30.772  12.742   5.197
 4356POPC   GL157793  30.700  12.830   5.653
 4356POPC   GL257794  30.753  12.479   5.681
 4356POPC   C1A57795  30.455  12.958   6.054
 4356POPC   D2A57796  30.646  12.957   6.484
 4356POPC   C3A57797  30.477  13.084   6.884
 4356POPC   C4A57798  30.684  13.077   7.309
 4356POPC   C1B57799  30.768  12.564   6.119
 4356POPC   C2B57800  30.769  12.446   6.526
 4356POPC   C3B57801  30.759  12.650   6.904
 4356POPC   C4B57802  30.968  12.582   7.252
 4357POPC   NC357803  41.454  28.593   4.980
 4357POPC   PO457804  41.929  28.539   5.499
 4357POPC   GL157805  41.761  28.360   5.876
 4357POPC   GL257806  41.390  28.341   5.907
 4357POPC   C1A57807  41.703  28.495   6.301
 4357POPC   D2A57808  41.586  28.580   6.697
 4357POPC   C3A57809  41.799  28.603   7.056
 4357POPC   C4A57810  41.719  28.226   7.218
 4357POPC   C1B57811  41.226  28.685   6.218
 4357POPC   C2B57812  41.194  28.903   6.634
 4357POPC   C3B57813  41.261  28.710   7.054
 4357POPC   C4B57814  41.311  28.479   7.434
 4358POPC   NC357815   9.858  38.233   5.411
 4358POPC   PO457816  10.153  38.820   5.683
 4358POPC   GL157817   9.806  38.584   5.840
 4358POPC   GL257818   9.537  38.281   5.828
 4358POPC   C1A57819   9.762  38.474   6.252
 4358POPC   D2A57820   9.588  38.627   6.616
 4358POPC   C3A57821   9.893  38.659   6.915
 4358POPC   C4A57822   9.752  38.677   7.314
 4358POPC   C1B57823   9.511  38.042   6.245
 4358POPC   C2B57824   9.613  38.005   6.670
 4358POPC   C3B57825   9.546  38.276   7.026
 4358POPC   C4B57826   9.495  38.262   7.480
 4359POPC   NC357827  14.056   0.173   5.322
 4359POPC   PO457828  14.730   0.186   5.510
 4359POPC   GL157829  14.383   0.347   5.791
 4359POPC   GL257830  14.129   0.577   5.768
 4359POPC   C1A57831  14.358   0.407   6.259
 4359POPC   D2A57832  14.721   0.320   6.574
 4359POPC   C3A57833  14.598   0.479   6.998
 4359POPC   C4A57834  14.187   0.460   7.218
 4359POPC   C1B57835  14.082   0.856   6.138
 4359POPC   C2B57836  14.073   0.796   6.575
 4359POPC   C3B57837  14.230   0.920   6.976
 4359POPC   C4B57838  14.076   0.927   7.411
 4360POPC   NC357839  15.678   2.536   5.555
 4360POPC   PO457840  16.035   1.971   5.440
 4360POPC   GL157841  16.127   2.034   5.846
 4360POPC   GL257842  15.818   2.192   5.899
 4360POPC   C1A57843  15.968   1.850   6.250
 4360POPC   D2A57844  15.697   1.967   6.605
 4360POPC   C3A57845  15.945   1.927   6.975
 4360POPC   C4A57846  16.388   1.878   7.100
 4360POPC   C1B57847  15.831   2.372   6.292
 4360POPC   C2B57848  15.545   2.493   6.586
 4360POPC   C3B57849  15.657   2.351   6.955
 4360POPC   C4B57850  15.711   2.430   7.339
 4361POPC   NC357851   8.413  12.965   5.485
 4361POPC   PO457852   7.858  12.505   5.457
 4361POPC   GL157853   8.153  12.657   5.792
 4361POPC   GL257854   8.109  13.049   5.888
 4361POPC   C1A57855   8.392  12.710   6.170
 4361POPC   D2A57856   8.084  12.945   6.428
 4361POPC   C3A57857   8.018  12.730   6.799
 4361POPC   C4A57858   8.135  12.761   7.198
 4361POPC   C1B57859   8.487  13.200   6.142
 4361POPC   C2B57860   8.563  13.022   6.561
 4361POPC   C3B57861   8.451  13.071   6.943
 4361POPC   C4B57862   8.476  13.068   7.375
 4362POPC   NC357863   9.063  39.666   5.451
 4362POPC   PO457864   8.869  40.271   5.549
 4362POPC   GL157865   9.093  40.020   5.838
 4362POPC   GL257866   8.811  39.816   5.864
 4362POPC   C1A57867   9.192  40.079   6.267
 4362POPC   D2A57868   8.972  40.018   6.651
 4362POPC   C3A57869   9.030  40.228   7.035
 4362POPC   C4A57870   8.636  40.410   7.095
 4362POPC   C1B57871   8.826  39.700   6.257
 4362POPC   C2B57872   8.585  39.660   6.608
 4362POPC   C3B57873   8.625  39.850   7.011
 4362POPC   C4B57874   8.777  39.639   7.385
 4363POPC   NC357875   0.739  20.147   5.470
 4363POPC   PO457876   1.400  19.811   5.427
 4363POPC   GL157877   1.341  19.909   5.869
 4363POPC   GL257878   1.361  19.589   5.907
 4363POPC   C1A57879   1.221  19.758   6.340
 4363POPC   D2A57880   0.863  19.671   6.603
 4363POPC   C3A57881   0.978  19.739   7.031
 4363POPC   C4A57882   1.279  19.977   7.253
 4363POPC   C1B57883   1.475  19.308   6.317
 4363POPC   C2B57884   1.427  19.315   6.805
 4363POPC   C3B57885   1.395  19.473   7.243
 4363POPC   C4B57886   1.155  19.560   7.598
 4364POPC   NC357887  23.445  33.955   5.407
 4364POPC   PO457888  23.871  33.851   5.404
 4364POPC   GL157889  23.678  33.733   5.832
 4364POPC   GL257890  23.377  33.901   5.918
 4364POPC   C1A57891  23.697  33.763   6.315
 4364POPC   D2A57892  23.899  33.816   6.726
 4364POPC   C3A57893  23.778  33.539   7.038
 4364POPC   C4A57894  23.733  33.570   7.471
 4364POPC   C1B57895  23.504  34.232   6.215
 4364POPC   C2B57896  23.540  34.189   6.664
 4364POPC   C3B57897  23.602  34.065   7.108
 4364POPC   C4B57898  23.632  34.356   7.484
 4365POPC   NC357899  28.716   3.771   5.512
 4365POPC   PO457900  28.202   3.202   5.468
 4365POPC   GL157901  28.412   3.427   5.810
 4365POPC   GL257902  28.307   3.764   5.849
 4365POPC   C1A57903  28.665   3.427   6.202
 4365POPC   D2A57904  28.781   3.576   6.645
 4365POPC   C3A57905  28.526   3.363   6.995
 4365POPC   C4A57906  28.152   3.152   7.217
 4365POPC   C1B57907  28.382   3.857   6.266
 4365POPC   C2B57908  28.249   3.703   6.679
 4365POPC   C3B57909  28.290   3.876   7.090
 4365POPC   C4B57910  28.049   3.881   7.467
 4366POPC   NC357911   8.292  23.285   5.646
 4366POPC   PO457912   7.800  22.958   5.384
 4366POPC   GL157913   7.915  22.933   5.839
 4366POPC   GL257914   8.263  22.845   5.910
 4366POPC   C1A57915   8.026  23.045   6.307
 4366POPC   D2A57916   8.222  22.909   6.715
 4366POPC   C3A57917   8.197  22.911   7.184
 4366POPC   C4A57918   7.913  22.831   7.557
 4366POPC   C1B57919   8.520  22.779   6.299
 4366POPC   C2B57920   8.724  22.878   6.729
 4366POPC   C3B57921   8.626  23.226   7.044
 4366POPC   C4B57922   8.520  23.190   7.517
 4367POPC   NC357923  19.882  40.366   5.225
 4367POPC   PO457924  19.658  40.880   5.586
 4367POPC   GL157925  19.956  40.693   5.842
 4367POPC   GL257926  19.708  40.678   6.124
 4367POPC   C1A57927  20.200  40.695   6.227
 4367POPC   D2A57928  20.010  40.850   6.618
 4367POPC   C3A57929  20.255  40.730   6.963
 4367POPC   C4A57930  20.207  40.774   7.409
 4367POPC   C1B57931  19.371  40.455   6.366
 4367POPC   C2B57932  19.430  40.355   6.791
 4367POPC   C3B57933  19.725  40.628   7.013
 4367POPC   C4B57934  19.630  41.089   7.080
 4368POPC   NC357935  43.656  22.770   5.634
 4368POPC   PO457936  44.304  22.828   5.502
 4368POPC   GL157937  44.082  22.952   5.882
 4368POPC   GL257938  43.804  23.221   5.839
 4368POPC   C1A57939  43.940  22.915   6.315
 4368POPC   D2A57940  44.052  22.637   6.672
 4368POPC   C3A57941  44.272  22.919   6.926
 4368POPC   C4A57942  44.065  23.163   7.212
 4368POPC   C1B57943  43.492  23.202   6.166
 4368POPC   C2B57944  43.447  23.001   6.527
 4368POPC   C3B57945  43.712  22.974   6.870
 4368POPC   C4B57946  43.645  22.913   7.280
 4369POPC   NC357947  13.426  34.304   5.771
 4369POPC   PO457948  13.775  34.676   5.206
 4369POPC   GL157949  13.858  34.600   5.691
 4369POPC   GL257950  14.161  34.460   5.665
 4369POPC   C1A57951  13.789  34.696   6.164
 4369POPC   D2A57952  13.501  34.435   6.431
 4369POPC   C3A57953  13.494  34.449   6.895
 4369POPC   C4A57954  13.344  34.588   7.305
 4369POPC   C1B57955  14.153  34.348   6.089
 4369POPC   C2B57956  13.959  34.194   6.461
 4369POPC   C3B57957  14.012  34.342   6.879
 4369POPC   C4B57958  13.844  34.542   7.266
 4370POPC   NC357959  26.781  21.708   5.422
 4370POPC   PO457960  26.311  21.994   5.477
 4370POPC   GL157961  26.518  21.767   5.863
 4370POPC   GL257962  26.851  21.560   5.898
 4370POPC   C1A57963  26.590  21.684   6.318
 4370POPC   D2A57964  26.607  21.800   6.745
 4370POPC   C3A57965  26.684  21.442   7.001
 4370POPC   C4A57966  26.801  21.297   7.414
 4370POPC   C1B57967  27.119  21.752   6.230
 4370POPC   C2B57968  27.117  21.730   6.713
 4370POPC   C3B57969  27.201  21.437   7.088
 4370POPC   C4B57970  27.354  21.213   7.466
 4371POPC   NC357971  19.715   7.253   5.490
 4371POPC   PO457972  19.890   7.860   5.329
 4371POPC   GL157973  19.993   7.510   5.807
 4371POPC   GL257974  19.687   7.302   5.980
 4371POPC   C1A57975  19.868   7.548   6.357
 4371POPC   D2A57976  19.579   7.408   6.688
 4371POPC   C3A57977  19.656   7.577   7.106
 4371POPC   C4A57978  19.752   7.525   7.607
 4371POPC   C1B57979  19.822   7.036   6.370
 4371POPC   C2B57980  19.852   6.991   6.835
 4371POPC   C3B57981  19.915   7.169   7.265
 4371POPC   C4B57982  20.040   7.107   7.706
 4372POPC   NC357983   2.672  40.160   5.585
 4372POPC   PO457984   3.002  39.613   5.592
 4372POPC   GL157985   2.937  39.852   5.895
 4372POPC   GL257986   3.144  40.126   5.778
 4372POPC   C1A57987   2.588  39.903   6.185
 4372POPC   D2A57988   2.403  39.679   6.527
 4372POPC   C3A57989   2.504  39.911   6.887
 4372POPC   C4A57990   2.609  40.002   7.308
 4372POPC   C1B57991   3.015  40.220   6.215
 4372POPC   C2B57992   2.788  40.245   6.593
 4372POPC   C3B57993   2.958  40.284   7.014
 4372POPC   C4B57994   2.961  40.374   7.466
 4373POPC   NC357995  26.439  33.472   5.492
 4373POPC   PO457996  26.974  33.825   5.401
 4373POPC   GL157997  26.896  33.873   5.848
 4373POPC   GL257998  26.681  33.596   5.930
 4373POPC   C1A57999  27.024  33.758   6.274
 4373POPC   D2A58000  26.785  33.531   6.578
 4373POPC   C3A58001  26.755  33.748   6.946
 4373POPC   C4A58002  26.847  34.005   7.252
 4373POPC   C1B58003  26.416  33.422   6.242
 4373POPC   C2B58004  26.288  33.280   6.662
 4373POPC   C3B58005  26.463  33.337   7.079
 4373POPC   C4B58006  26.595  33.593   7.438
 4374POPC   NC358007  10.336  13.166   5.402
 4374POPC   PO458008  10.368  12.527   5.352
 4374POPC   GL158009  10.421  12.773   5.735
 4374POPC   GL258010  10.065  12.852   5.757
 4374POPC   C1A58011  10.680  12.869   6.118
 4374POPC   D2A58012  10.770  13.027   6.550
 4374POPC   C3A58013  10.739  12.860   6.963
 4374POPC   C4A58014  10.615  12.907   7.414
 4374POPC   C1B58015  10.183  12.755   6.205
 4374POPC   C2B58016  10.317  12.788   6.635
 4374POPC   C3B58017  10.248  12.966   7.033
 4374POPC   C4B58018  10.110  12.762   7.373
 4375POPC   NC358019   8.643  44.721   5.461
 4375POPC   PO458020   9.263  44.484   5.471
 4375POPC   GL158021   8.942  44.429   5.744
 4375POPC   GL258022   8.990  44.773   5.849
 4375POPC   C1A58023   8.896  44.349   6.175
 4375POPC   D2A58024   9.116  44.559   6.504
 4375POPC   C3A58025   8.944  44.691   6.876
 4375POPC   C4A58026   9.137  44.645   7.260
 4375POPC   C1B58027   9.189   0.041   6.154
 4375POPC   C2B58028   9.158   0.114   6.591
 4375POPC   C3B58029   9.371   0.011   6.961
 4375POPC   C4B58030   9.373   0.140   7.419
 4376POPC   NC358031  11.085  44.140   5.550
 4376POPC   PO458032  11.565  43.701   5.415
 4376POPC   GL158033  11.424  43.810   5.805
 4376POPC   GL258034  11.608  43.554   5.956
 4376POPC   C1A58035  11.148  43.962   6.161
 4376POPC   D2A58036  11.052  43.931   6.573
 4376POPC   C3A58037  11.193  44.246   6.865
 4376POPC   C4A58038  11.332  44.158   7.264
 4376POPC   C1B58039  11.257  43.465   6.187
 4376POPC   C2B58040  11.261  43.453   6.618
 4376POPC   C3B58041  11.381  43.718   6.954
 4376POPC   C4B58042  11.295  43.522   7.326
 4377POPC   NC358043  28.514  16.872   5.343
 4377POPC   PO458044  28.070  16.531   5.485
 4377POPC   GL158045  28.322  16.709   5.839
 4377POPC   GL258046  28.648  16.583   5.878
 4377POPC   C1A58047  28.386  16.735   6.313
 4377POPC   D2A58048  28.475  16.643   6.777
 4377POPC   C3A58049  28.364  16.932   7.151
 4377POPC   C4A58050  28.213  17.288   7.452
 4377POPC   C1B58051  28.703  16.325   6.287
 4377POPC   C2B58052  28.715  16.180   6.745
 4377POPC   C3B58053  28.671  16.380   7.179
 4377POPC   C4B58054  28.550  16.449   7.610
 4378POPC   NC358055  33.932  20.385   5.511
 4378POPC   PO458056  33.402  20.713   5.463
 4378POPC   GL158057  33.649  20.695   5.837
 4378POPC   GL258058  34.031  20.758   5.848
 4378POPC   C1A58059  33.721  20.358   6.167
 4378POPC   D2A58060  33.911  20.228   6.574
 4378POPC   C3A58061  33.735  20.328   6.985
 4378POPC   C4A58062  33.893  20.374   7.401
 4378POPC   C1B58063  33.832  20.912   6.260
 4378POPC   C2B58064  33.787  21.020   6.699
 4378POPC   C3B58065  33.960  20.831   7.096
 4378POPC   C4B58066  34.136  21.116   7.396
 4379POPC   NC358067  34.759  39.850   5.129
 4379POPC   PO458068  34.199  39.802   5.434
 4379POPC   GL158069  34.518  39.862   5.791
 4379POPC   GL258070  34.519  40.207   5.943
 4379POPC   C1A58071  34.763  39.846   6.207
 4379POPC   D2A58072  34.739  40.190   6.497
 4379POPC   C3A58073  34.610  40.080   6.899
 4379POPC   C4A58074  34.811  40.140   7.272
 4379POPC   C1B58075  34.291  40.015   6.278
 4379POPC   C2B58076  34.134  40.113   6.672
 4379POPC   C3B58077  34.146  39.912   7.041
 4379POPC   C4B58078  34.324  40.012   7.376
 4380POPC   NC358079  22.346  22.913   5.043
 4380POPC   PO458080  22.302  23.236   5.633
 4380POPC   GL158081  22.198  23.026   5.951
 4380POPC   GL258082  21.893  22.897   5.953
 4380POPC   C1A58083  22.346  23.188   6.309
 4380POPC   D2A58084  22.199  23.254   6.688
 4380POPC   C3A58085  22.345  22.893   6.893
 4380POPC   C4A58086  22.251  22.869   7.303
 4380POPC   C1B58087  21.925  22.909   6.412
 4380POPC   C2B58088  21.818  22.973   6.845
 4380POPC   C3B58089  21.790  23.080   7.266
 4380POPC   C4B58090  21.854  22.809   7.645
 4381POPC   NC358091   9.062   3.081   5.343
 4381POPC   PO458092   9.458   2.541   5.252
 4381POPC   GL158093   9.183   2.615   5.672
 4381POPC   GL258094   8.935   2.862   5.807
 4381POPC   C1A58095   9.270   2.667   6.126
 4381POPC   D2A58096   9.027   2.710   6.496
 4381POPC   C3A58097   9.133   2.812   6.868
 4381POPC   C4A58098   8.990   2.714   7.237
 4381POPC   C1B58099   8.705   3.002   6.180
 4381POPC   C2B58100   8.782   3.133   6.603
 4381POPC   C3B58101   8.571   3.276   6.960
 4381POPC   C4B58102   8.683   3.142   7.342
 4382POPC   NC358103  16.051   3.783   5.489
 4382POPC   PO458104  15.850   3.040   5.597
 4382POPC   GL158105  15.786   3.280   5.912
 4382POPC   GL258106  16.080   3.466   5.882
 4382POPC   C1A58107  15.681   3.611   6.199
 4382POPC   D2A58108  15.773   3.839   6.577
 4382POPC   C3A58109  15.979   3.657   6.936
 4382POPC   C4A58110  15.860   3.795   7.311
 4382POPC   C1B58111  16.201   3.228   6.237
 4382POPC   C2B58112  16.340   3.119   6.639
 4382POPC   C3B58113  16.203   3.196   7.057
 4382POPC   C4B58114  16.274   3.523   7.370
 4383POPC   NC358115  32.255   3.929   5.481
 4383POPC   PO458116  32.580   4.565   5.383
 4383POPC   GL158117  32.370   4.397   5.698
 4383POPC   GL258118  32.634   4.167   5.785
 4383POPC   C1A58119  32.248   4.351   6.113
 4383POPC   D2A58120  32.491   4.353   6.471
 4383POPC   C3A58121  32.222   4.430   6.823
 4383POPC   C4A58122  32.154   4.281   7.224
 4383POPC   C1B58123  32.541   3.927   6.162
 4383POPC   C2B58124  32.634   3.870   6.599
 4383POPC   C3B58125  32.363   3.865   6.948
 4383POPC   C4B58126  32.493   3.903   7.352
 4384POPC   NC358127  14.315  15.655   5.418
 4384POPC   PO458128  14.628  16.242   5.254
 4384POPC   GL158129  14.618  16.012   5.677
 4384POPC   GL258130  14.261  15.990   5.826
 4384POPC   C1A58131  14.692  15.983   6.145
 4384POPC   D2A58132  14.602  15.691   6.518
 4384POPC   C3A58133  14.858  15.598   6.888
 4384POPC   C4A58134  14.678  15.683   7.315
 4384POPC   C1B58135  14.199  15.974   6.293
 4384POPC   C2B58136  14.503  16.192   6.581
 4384POPC   C3B58137  14.621  16.088   7.002
 4384POPC   C4B58138  14.213  15.914   7.190
 4385POPC   NC358139  15.379  28.683   5.413
 4385POPC   PO458140  15.001  28.059   5.440
 4385POPC   GL158141  15.240  28.310   5.801
 4385POPC   GL258142  15.461  28.632   5.904
 4385POPC   C1A58143  15.173  28.404   6.258
 4385POPC   D2A58144  14.890  28.480   6.610
 4385POPC   C3A58145  14.930  28.191   6.934
 4385POPC   C4A58146  14.946  28.229   7.365
 4385POPC   C1B58147  15.646  28.636   6.323
 4385POPC   C2B58148  15.459  28.468   6.712
 4385POPC   C3B58149  15.343  28.458   7.153
 4385POPC   C4B58150  15.335  28.475   7.599
 4386POPC   NC358151   9.213  14.266   5.458
 4386POPC   PO458152   8.575  14.119   5.428
 4386POPC   GL158153   8.781  14.347   5.813
 4386POPC   GL258154   9.026  14.636   5.803
 4386POPC   C1A58155   9.047  14.301   6.195
 4386POPC   D2A58156   9.144  14.436   6.622
 4386POPC   C3A58157   8.945  14.272   7.002
 4386POPC   C4A58158   9.163  14.313   7.370
 4386POPC   C1B58159   8.846  14.779   6.216
 4386POPC   C2B58160   8.944  14.901   6.633
 4386POPC   C3B58161   9.058  14.773   7.035
 4386POPC   C4B58162   8.856  14.733   7.433
 4387POPC   NC358163  24.056  12.725   5.409
 4387POPC   PO458164  23.457  13.175   5.571
 4387POPC   GL158165  23.746  12.909   5.838
 4387POPC   GL258166  23.906  12.532   5.845
 4387POPC   C1A58167  23.589  12.782   6.242
 4387POPC   D2A58168  23.383  12.864   6.647
 4387POPC   C3A58169  23.692  12.958   6.981
 4387POPC   C4A58170  23.724  12.798   7.438
 4387POPC   C1B58171  24.048  12.447   6.274
 4387POPC   C2B58172  23.828  12.567   6.646
 4387POPC   C3B58173  23.770  12.456   7.052
 4387POPC   C4B58174  24.079  12.439   7.317
 4388POPC   NC358175  12.301   1.341   5.254
 4388POPC   PO458176  11.632   1.128   5.265
 4388POPC   GL158177  11.963   1.118   5.583
 4388POPC   GL258178  12.051   1.470   5.670
 4388POPC   C1A58179  12.041   1.090   6.042
 4388POPC   D2A58180  12.022   0.963   6.480
 4388POPC   C3A58181  12.162   1.051   6.900
 4388POPC   C4A58182  11.839   0.998   7.206
 4388POPC   C1B58183  12.218   1.581   6.068
 4388POPC   C2B58184  12.292   1.417   6.491
 4388POPC   C3B58185  12.201   1.566   6.915
 4388POPC   C4B58186  12.136   1.409   7.313
 4389POPC   NC358187  39.650  16.622   5.639
 4389POPC   PO458188  40.198  16.941   5.351
 4389POPC   GL158189  40.132  16.798   5.760
 4389POPC   GL258190  39.919  17.025   5.844
 4389POPC   C1A58191  40.172  16.587   6.162
 4389POPC   D2A58192  40.341  16.533   6.587
 4389POPC   C3A58193  40.207  16.551   7.049
 4389POPC   C4A58194  40.094  16.806   7.459
 4389POPC   C1B58195  39.789  16.907   6.245
 4389POPC   C2B58196  39.870  16.713   6.641
 4389POPC   C3B58197  39.831  16.884   7.034
 4389POPC   C4B58198  39.628  17.057   7.371
 4390POPC   NC358199  14.974   3.359   5.342
 4390POPC   PO458200  15.634   3.567   5.454
 4390POPC   GL158201  15.313   3.487   5.802
 4390POPC   GL258202  15.064   3.221   5.811
 4390POPC   C1A58203  15.156   3.599   6.237
 4390POPC   D2A58204  15.365   3.503   6.646
 4390POPC   C3A58205  15.420   3.733   7.043
 4390POPC   C4A58206  15.347   3.630   7.499
 4390POPC   C1B58207  14.869   3.097   6.192
 4390POPC   C2B58208  14.927   3.242   6.618
 4390POPC   C3B58209  14.948   3.476   7.011
 4390POPC   C4B58210  14.840   3.186   7.366
 4391POPC   NC358211  41.435  31.181   5.025
 4391POPC   PO458212  41.890  31.539   5.354
 4391POPC   GL158213  41.574  31.707   5.731
 4391POPC   GL258214  41.545  31.436   5.987
 4391POPC   C1A58215  41.305  31.857   6.137
 4391POPC   D2A58216  41.230  31.758   6.604
 4391POPC   C3A58217  41.584  31.669   6.888
 4391POPC   C4A58218  41.643  31.445   7.275
 4391POPC   C1B58219  41.818  31.230   6.321
 4391POPC   C2B58220  41.919  31.228   6.783
 4391POPC   C3B58221  41.845  31.001   7.184
 4391POPC   C4B58222  41.892  31.134   7.647
 4392POPC   NC358223  26.554  29.349   5.519
 4392POPC   PO458224  26.001  28.915   5.599
 4392POPC   GL158225  26.253  29.132   5.879
 4392POPC   GL258226  25.977  29.339   5.942
 4392POPC   C1A58227  26.276  29.131   6.325
 4392POPC   D2A58228  26.013  28.889   6.583
 4392POPC   C3A58229  26.086  28.903   7.032
 4392POPC   C4A58230  26.159  29.137   7.407
 4392POPC   C1B58231  25.783  29.344   6.317
 4392POPC   C2B58232  25.991  29.375   6.731
 4392POPC   C3B58233  25.791  29.353   7.088
 4392POPC   C4B58234  25.746  29.403   7.500
 4393POPC   NC358235   0.003   3.604   5.456
 4393POPC   PO458236  44.908   3.096   5.684
 4393POPC   GL158237  44.748   3.421   5.896
 4393POPC   GL258238   0.024   3.577   5.980
 4393POPC   C1A58239  44.516   3.314   6.241
 4393POPC   D2A58240  44.651   3.420   6.644
 4393POPC   C3A58241  44.418   3.290   7.011
 4393POPC   C4A58242  44.643   3.392   7.397
 4393POPC   C1B58243   0.098   3.873   6.267
 4393POPC   C2B58244   0.112   3.934   6.710
 4393POPC   C3B58245  44.858   3.717   7.038
 4393POPC   C4B58246  44.867   3.817   7.482
 4394POPC   NC358247  41.479  28.688   5.553
 4394POPC   PO458248  41.909  29.246   5.384
 4394POPC   GL158249  41.704  29.423   5.738
 4394POPC   GL258250  41.445  29.167   5.790
 4394POPC   C1A58251  41.777  29.281   6.161
 4394POPC   D2A58252  41.668  29.009   6.456
 4394POPC   C3A58253  41.596  29.095   6.882
 4394POPC   C4A58254  41.643  29.394   7.196
 4394POPC   C1B58255  41.264  29.211   6.215
 4394POPC   C2B58256  41.271  29.428   6.618
 4394POPC   C3B58257  41.119  29.303   7.010
 4394POPC   C4B58258  41.098  29.084   7.361
 4395POPC   NC358259  37.463  31.464   5.375
 4395POPC   PO458260  38.000  31.007   5.378
 4395POPC   GL158261  37.733  31.226   5.731
 4395POPC   GL258262  37.606  31.597   5.845
 4395POPC   C1A58263  37.633  31.187   6.140
 4395POPC   D2A58264  37.365  31.383   6.408
 4395POPC   C3A58265  37.490  31.288   6.810
 4395POPC   C4A58266  37.464  31.578   7.115
 4395POPC   C1B58267  37.975  31.614   6.122
 4395POPC   C2B58268  37.852  31.532   6.504
 4395POPC   C3B58269  37.958  31.491   6.886
 4395POPC   C4B58270  37.926  31.673   7.289
 4396POPC   NC358271  22.313  22.081   5.664
 4396POPC   PO458272  22.200  22.496   5.121
 4396POPC   GL158273  22.304  22.565   5.738
 4396POPC   GL258274  22.041  22.393   5.963
 4396POPC   C1A58275  22.344  22.636   6.246
 4396POPC   D2A58276  22.218  22.271   6.471
 4396POPC   C3A58277  22.311  22.172   6.870
 4396POPC   C4A58278  22.371  22.401   7.166
 4396POPC   C1B58279  21.849  22.034   6.224
 4396POPC   C2B58280  21.861  21.956   6.711
 4396POPC   C3B58281  21.918  22.059   7.174
 4396POPC   C4B58282  21.915  21.865   7.607
 4397POPC   NC358283   8.586  17.655   5.631
 4397POPC   PO458284   9.113  17.316   5.385
 4397POPC   GL158285   8.999  17.341   5.785
 4397POPC   GL258286   9.068  17.694   5.830
 4397POPC   C1A58287   8.734  17.237   6.130
 4397POPC   D2A58288   8.714  17.367   6.542
 4397POPC   C3A58289   9.020  17.312   6.876
 4397POPC   C4A58290   8.885  17.299   7.307
 4397POPC   C1B58291   9.178  17.532   6.236
 4397POPC   C2B58292   9.093  17.733   6.602
 4397POPC   C3B58293   9.098  17.836   7.026
 4397POPC   C4B58294   9.365  17.555   7.231
 4398POPC   NC358295  38.649  35.745   5.118
 4398POPC   PO458296  38.383  36.405   5.372
 4398POPC   GL158297  38.353  36.075   5.718
 4398POPC   GL258298  38.033  36.049   5.920
 4398POPC   C1A58299  38.479  35.865   6.122
 4398POPC   D2A58300  38.599  36.088   6.494
 4398POPC   C3A58301  38.538  36.038   6.926
 4398POPC   C4A58302  38.737  36.280   7.222
 4398POPC   C1B58303  38.263  36.345   6.192
 4398POPC   C2B58304  38.321  36.529   6.611
 4398POPC   C3B58305  38.359  36.558   7.038
 4398POPC   C4B58306  38.308  36.456   7.452
 4399POPC   NC358307  19.316  29.816   5.109
 4399POPC   PO458308  19.855  29.788   5.523
 4399POPC   GL158309  20.039  29.880   5.906
 4399POPC   GL258310  19.990  30.230   5.904
 4399POPC   C1A58311  19.900  29.982   6.356
 4399POPC   D2A58312  19.726  29.905   6.778
 4399POPC   C3A58313  19.995  29.790   7.147
 4399POPC   C4A58314  19.785  29.748   7.549
 4399POPC   C1B58315  19.573  30.318   6.063
 4399POPC   C2B58316  19.517  30.352   6.500
 4399POPC   C3B58317  19.779  30.441   6.848
 4399POPC   C4B58318  19.668  30.196   7.209
 4400POPC   NC358319   9.168  33.252   5.287
 4400POPC   PO458320   8.899  32.646   5.550
 4400POPC   GL158321   9.185  32.905   5.795
 4400POPC   GL258322   9.036  33.250   5.792
 4400POPC   C1A58323   9.292  32.764   6.222
 4400POPC   D2A58324   9.227  32.583   6.644
 4400POPC   C3A58325   9.073  32.854   6.991
 4400POPC   C4A58326   8.854  33.077   7.315
 4400POPC   C1B58327   8.856  33.060   6.171
 4400POPC   C2B58328   8.972  33.147   6.587
 4400POPC   C3B58329   8.847  33.410   6.928
 4400POPC   C4B58330   8.451  33.416   7.207
 4401POPC   NC358331   9.870  19.192   5.378
 4401POPC   PO458332   9.408  19.547   5.484
 4401POPC   GL158333   9.563  19.203   5.809
 4401POPC   GL258334   9.935  19.078   5.873
 4401POPC   C1A58335   9.658  19.217   6.262
 4401POPC   D2A58336   9.664  19.001   6.658
 4401POPC   C3A58337   9.638  19.218   7.060
 4401POPC   C4A58338   9.801  19.110   7.485
 4401POPC   C1B58339  10.100  18.867   6.252
 4401POPC   C2B58340  10.174  18.958   6.671
 4401POPC   C3B58341  10.013  18.840   7.076
 4401POPC   C4B58342  10.268  18.747   7.429
 4402POPC   NC358343  21.464  31.593   5.362
 4402POPC   PO458344  21.483  30.973   5.211
 4402POPC   GL158345  21.431  31.186   5.667
 4402POPC   GL258346  21.570  31.534   5.832
 4402POPC   C1A58347  21.389  31.189   6.146
 4402POPC   D2A58348  21.269  31.265   6.580
 4402POPC   C3A58349  21.514  31.223   6.928
 4402POPC   C4A58350  21.426  31.014   7.316
 4402POPC   C1B58351  21.676  31.656   6.216
 4402POPC   C2B58352  21.525  31.711   6.624
 4402POPC   C3B58353  21.691  31.687   7.022
 4402POPC   C4B58354  21.474  31.552   7.350
 4403POPC   NC358355  26.486  13.650   5.027
 4403POPC   PO458356  26.976  13.650   5.433
 4403POPC   GL158357  26.954  13.657   5.866
 4403POPC   GL258358  26.599  13.598   5.801
 4403POPC   C1A58359  26.987  13.399   6.272
 4403POPC   D2A58360  27.109  13.368   6.726
 4403POPC   C3A58361  27.045  13.773   6.980
 4403POPC   C4A58362  27.221  14.179   7.140
 4403POPC   C1B58363  26.522  13.647   6.204
 4403POPC   C2B58364  26.512  13.356   6.554
 4403POPC   C3B58365  26.638  13.429   6.969
 4403POPC   C4B58366  26.388  13.578   7.312
 4404POPC   NC358367  29.577   6.867   5.396
 4404POPC   PO458368  28.919   6.810   5.516
 4404POPC   GL158369  29.191   6.782   5.850
 4404POPC   GL258370  29.400   6.459   5.806
 4404POPC   C1A58371  29.134   6.643   6.298
 4404POPC   D2A58372  29.063   6.247   6.486
 4404POPC   C3A58373  29.064   6.205   6.917
 4404POPC   C4A58374  29.133   6.325   7.313
 4404POPC   C1B58375  29.606   6.738   6.119
 4404POPC   C2B58376  29.525   6.940   6.504
 4404POPC   C3B58377  29.298   6.734   6.830
 4404POPC   C4B58378  29.424   6.764   7.231
 4405POPC   NC358379  39.575  10.031   5.346
 4405POPC   PO458380  40.171   9.698   5.423
 4405POPC   GL158381  39.857   9.652   5.777
 4405POPC   GL258382  39.879   9.955   5.781
 4405POPC   C1A58383  39.819   9.485   6.197
 4405POPC   D2A58384  39.859   9.643   6.605
 4405POPC   C3A58385  39.831   9.476   6.999
 4405POPC   C4A58386  40.119   9.560   7.306
 4405POPC   C1B58387  39.942   9.999   6.223
 4405POPC   C2B58388  39.684  10.098   6.594
 4405POPC   C3B58389  39.825  10.005   7.021
 4405POPC   C4B58390  39.738  10.101   7.414
 4406POPC   NC358391  10.307  18.846   5.613
 4406POPC   PO458392  10.898  19.098   5.430
 4406POPC   GL158393  10.808  19.263   5.834
 4406POPC   GL258394  10.472  19.153   5.988
 4406POPC   C1A58395  10.906  19.074   6.221
 4406POPC   D2A58396  10.669  18.881   6.524
 4406POPC   C3A58397  10.804  19.031   6.897
 4406POPC   C4A58398  10.600  19.035   7.219
 4406POPC   C1B58399  10.165  19.372   6.249
 4406POPC   C2B58400   9.964  19.437   6.649
 4406POPC   C3B58401  10.142  19.334   7.032
 4406POPC   C4B58402  10.246  19.323   7.444
 4407POPC   NC358403  37.445   8.625   5.522
 4407POPC   PO458404  38.038   8.739   5.232
 4407POPC   GL158405  37.825   8.934   5.682
 4407POPC   GL258406  37.550   9.155   5.799
 4407POPC   C1A58407  37.911   8.990   6.146
 4407POPC   D2A58408  37.861   9.282   6.482
 4407POPC   C3A58409  37.920   9.122   6.874
 4407POPC   C4A58410  37.844   9.046   7.284
 4407POPC   C1B58411  37.410   8.915   6.163
 4407POPC   C2B58412  37.521   8.878   6.608
 4407POPC   C3B58413  37.397   9.039   7.009
 4407POPC   C4B58414  37.392   8.888   7.426
 4408POPC   NC358415  29.574  31.231   5.163
 4408POPC   PO458416  30.156  31.480   5.428
 4408POPC   GL158417  30.086  31.397   5.842
 4408POPC   GL258418  29.819  31.651   5.838
 4408POPC   C1A58419  30.108  31.572   6.252
 4408POPC   D2A58420  29.872  31.587   6.599
 4408POPC   C3A58421  30.177  31.626   6.909
 4408POPC   C4A58422  30.280  31.373   7.276
 4408POPC   C1B58423  29.668  31.963   6.174
 4408POPC   C2B58424  29.544  32.070   6.596
 4408POPC   C3B58425  29.741  31.923   6.963
 4408POPC   C4B58426  29.874  31.665   7.315
 4409POPC   NC358427   5.295  38.774   5.520
 4409POPC   PO458428   4.811  38.298   5.268
 4409POPC   GL158429   4.879  38.358   5.755
 4409POPC   GL258430   5.243  38.318   5.857
 4409POPC   C1A58431   4.910  38.298   6.246
 4409POPC   D2A58432   5.041  38.539   6.626
 4409POPC   C3A58433   5.036  38.320   7.034
 4409POPC   C4A58434   4.740  38.418   7.339
 4409POPC   C1B58435   5.288  38.664   6.174
 4409POPC   C2B58436   5.422  38.915   6.525
 4409POPC   C3B58437   5.457  38.974   6.964
 4409POPC   C4B58438   5.283  38.715   7.298
 4410POPC   NC358439  42.501  24.915   5.079
 4410POPC   PO458440  42.099  24.514   5.425
 4410POPC   GL158441  42.328  24.392   5.815
 4410POPC   GL258442  42.676  24.454   5.832
 4410POPC   C1A58443  42.389  24.167   6.225
 4410POPC   D2A58444  42.498  24.280   6.661
 4410POPC   C3A58445  42.460  24.731   6.825
 4410POPC   C4A58446  42.230  24.833   7.220
 4410POPC   C1B58447  42.695  24.632   6.273
 4410POPC   C2B58448  42.940  24.584   6.662
 4410POPC   C3B58449  42.808  24.412   7.046
 4410POPC   C4B58450  42.421  24.348   7.206
 4411POPC   NC358451  15.254  23.403   5.330
 4411POPC   PO458452  14.725  23.899   5.235
 4411POPC   GL158453  14.924  23.653   5.594
 4411POPC   GL258454  14.689  23.510   5.787
 4411POPC   C1A58455  15.168  23.625   6.018
 4411POPC   D2A58456  15.158  23.753   6.489
 4411POPC   C3A58457  15.254  23.535   6.894
 4411POPC   C4A58458  15.466  23.669   7.281
 4411POPC   C1B58459  14.692  23.583   6.229
 4411POPC   C2B58460  14.725  23.457   6.650
 4411POPC   C3B58461  14.804  23.689   7.047
 4411POPC   C4B58462  14.976  23.826   7.461
 4412POPC   NC358463  27.358  31.219   5.537
 4412POPC   PO458464  27.203  31.789   5.414
 4412POPC   GL158465  27.580  31.737   5.693
 4412POPC   GL258466  27.802  31.405   5.706
 4412POPC   C1A58467  27.563  31.594   6.121
 4412POPC   D2A58468  27.731  31.455   6.516
 4412POPC   C3A58469  27.526  31.627   6.858
 4412POPC   C4A58470  27.630  31.484   7.248
 4412POPC   C1B58471  27.872  31.144   6.091
 4412POPC   C2B58472  27.696  30.918   6.454
 4412POPC   C3B58473  27.626  31.053   6.884
 4412POPC   C4B58474  27.917  30.988   7.182
 4413POPC   NC358475   8.716  43.740   5.285
 4413POPC   PO458476   9.247  43.629   5.642
 4413POPC   GL158477   9.007  43.872   5.893
 4413POPC   GL258478   9.289  44.106   5.926
 4413POPC   C1A58479   8.780  43.703   6.299
 4413POPC   D2A58480   8.686  43.581   6.752
 4413POPC   C3A58481   8.911  43.829   7.063
 4413POPC   C4A58482   8.788  44.235   7.145
 4413POPC   C1B58483   9.222  43.947   6.335
 4413POPC   C2B58484   8.962  44.091   6.640
 4413POPC   C3B58485   9.244  44.263   6.939
 4413POPC   C4B58486   9.226  44.159   7.383
 4414POPC   NC358487   2.379  34.755   5.403
 4414POPC   PO458488   3.039  34.742   5.280
 4414POPC   GL158489   2.848  34.617   5.686
 4414POPC   GL258490   2.647  34.851   5.871
 4414POPC   C1A58491   2.933  34.502   6.136
 4414POPC   D2A58492   2.795  34.505   6.590
 4414POPC   C3A58493   2.918  34.338   6.992
 4414POPC   C4A58494   3.037  34.661   7.270
 4414POPC   C1B58495   2.450  34.730   6.264
 4414POPC   C2B58496   2.249  34.552   6.597
 4414POPC   C3B58497   2.422  34.461   6.962
 4414POPC   C4B58498   2.553  34.808   7.197
 4415POPC   NC358499  26.496   8.073   5.579
 4415POPC   PO458500  26.493   7.399   5.441
 4415POPC   GL158501  26.239   7.291   5.844
 4415POPC   GL258502  25.889   7.395   5.901
 4415POPC   C1A58503  26.248   7.356   6.296
 4415POPC   D2A58504  26.268   7.771   6.525
 4415POPC   C3A58505  26.263   7.805   6.981
 4415POPC   C4A58506  26.391   7.588   7.351
 4415POPC   C1B58507  25.756   7.430   6.350
 4415POPC   C2B58508  26.005   7.386   6.762
 4415POPC   C3B58509  25.916   7.463   7.203
 4415POPC   C4B58510  25.731   7.417   7.617
 4416POPC   NC358511  12.512  35.548   5.323
 4416POPC   PO458512  11.832  35.230   5.521
 4416POPC   GL158513  11.981  35.496   5.849
 4416POPC   GL258514  12.344  35.525   5.822
 4416POPC   C1A58515  11.862  35.403   6.270
 4416POPC   D2A58516  12.067  35.218   6.627
 4416POPC   C3A58517  12.083  35.474   6.974
 4416POPC   C4A58518  11.891  35.435   7.348
 4416POPC   C1B58519  12.575  35.616   6.201
 4416POPC   C2B58520  12.488  35.608   6.652
 4416POPC   C3B58521  12.503  35.786   7.078
 4416POPC   C4B58522  12.360  35.600   7.464
 4417POPC   NC358523  40.878  34.130   5.475
 4417POPC   PO458524  40.303  33.764   5.517
 4417POPC   GL158525  40.611  33.851   5.847
 4417POPC   GL258526  40.989  33.831   5.881
 4417POPC   C1A58527  40.669  33.820   6.280
 4417POPC   D2A58528  40.407  33.867   6.610
 4417POPC   C3A58529  40.626  33.775   6.973
 4417POPC   C4A58530  40.709  34.087   7.248
 4417POPC   C1B58531  41.207  33.688   6.258
 4417POPC   C2B58532  41.032  33.662   6.664
 4417POPC   C3B58533  41.125  33.881   7.028
 4417POPC   C4B58534  41.295  33.943   7.406
 4418POPC   NC358535  41.002  35.029   5.583
 4418POPC   PO458536  40.528  34.486   5.504
 4418POPC   GL158537  40.673  34.372   5.876
 4418POPC   GL258538  41.002  34.515   5.857
 4418POPC   C1A58539  40.556  34.344   6.269
 4418POPC   D2A58540  40.683  34.616   6.605
 4418POPC   C3A58541  40.513  34.506   6.999
 4418POPC   C4A58542  40.643  34.559   7.419
 4418POPC   C1B58543  41.041  34.207   6.220
 4418POPC   C2B58544  40.870  34.141   6.638
 4418POPC   C3B58545  41.017  34.390   6.943
 4418POPC   C4B58546  41.121  34.413   7.339
 4419POPC   NC358547  22.450  31.300   5.543
 4419POPC   PO458548  21.913  31.562   5.217
 4419POPC   GL158549  21.939  31.277   5.573
 4419POPC   GL258550  22.085  31.552   5.795
 4419POPC   C1A58551  21.899  31.138   6.036
 4419POPC   D2A58552  21.808  31.243   6.494
 4419POPC   C3A58553  22.064  31.286   6.888
 4419POPC   C4A58554  21.887  31.259   7.276
 4419POPC   C1B58555  22.342  31.414   6.170
 4419POPC   C2B58556  22.538  31.594   6.528
 4419POPC   C3B58557  22.536  31.525   6.954
 4419POPC   C4B58558  22.371  31.492   7.335
 4420POPC   NC358559  44.655  22.538   5.435
 4420POPC   PO458560  44.562  21.864   5.440
 4420POPC   GL158561  44.514  22.098   5.809
 4420POPC   GL258562  44.859  22.224   5.836
 4420POPC   C1A58563  44.232  22.042   6.161
 4420POPC   D2A58564  44.331  22.038   6.594
 4420POPC   C3A58565  44.297  21.902   7.008
 4420POPC   C4A58566  44.452  22.214   7.265
 4420POPC   C1B58567  44.758  22.120   6.288
 4420POPC   C2B58568  44.857  22.004   6.735
 4420POPC   C3B58569  44.951  22.059   7.197
 4420POPC   C4B58570   0.107  21.872   7.585
 4421POPC   NC358571  41.119  38.622   5.500
 4421POPC   PO458572  40.731  38.239   5.124
 4421POPC   GL158573  40.766  38.282   5.651
 4421POPC   GL258574  40.556  38.506   5.819
 4421POPC   C1A58575  40.917  38.369   6.144
 4421POPC   D2A58576  40.880  38.614   6.560
 4421POPC   C3A58577  40.979  38.469   6.987
 4421POPC   C4A58578  40.900  38.332   7.424
 4421POPC   C1B58579  40.506  38.746   6.195
 4421POPC   C2B58580  40.362  38.637   6.607
 4421POPC   C3B58581  40.465  38.886   6.939
 4421POPC   C4B58582  40.653  38.759   7.300
 4422POPC   NC358583  18.689  10.781   5.610
 4422POPC   PO458584  18.953  10.121   5.654
 4422POPC   GL158585  18.974  10.457   5.876
 4422POPC   GL258586  19.275  10.618   5.897
 4422POPC   C1A58587  18.889  10.537   6.268
 4422POPC   D2A58588  18.677  10.391   6.628
 4422POPC   C3A58589  18.926  10.510   6.965
 4422POPC   C4A58590  18.910  10.776   7.329
 4422POPC   C1B58591  19.352  10.277   6.210
 4422POPC   C2B58592  19.526  10.187   6.615
 4422POPC   C3B58593  19.345  10.179   7.006
 4422POPC   C4B58594  19.304  10.479   7.302
 4423POPC   NC358595  15.820   5.517   5.464
 4423POPC   PO458596  15.915   4.888   5.496
 4423POPC   GL158597  16.099   5.018   5.882
 4423POPC   GL258598  15.914   5.321   5.933
 4423POPC   C1A58599  16.100   4.873   6.341
 4423POPC   D2A58600  15.841   4.916   6.722
 4423POPC   C3A58601  15.986   4.912   7.155
 4423POPC   C4A58602  15.811   4.665   7.532
 4423POPC   C1B58603  16.231   5.368   6.245
 4423POPC   C2B58604  16.195   5.322   6.688
 4423POPC   C3B58605  15.888   5.382   6.997
 4423POPC   C4B58606  15.827   5.683   7.287
 4424POPC   NC358607  40.560  14.872   5.386
 4424POPC   PO458608  40.527  15.531   5.393
 4424POPC   GL158609  40.568  15.327   5.801
 4424POPC   GL258610  40.791  15.028   5.818
 4424POPC   C1A58611  40.581  15.310   6.263
 4424POPC   D2A58612  40.393  15.345   6.683
 4424POPC   C3A58613  40.706  15.213   7.044
 4424POPC   C4A58614  41.025  15.357   7.377
 4424POPC   C1B58615  40.886  14.884   6.245
 4424POPC   C2B58616  40.645  14.858   6.637
 4424POPC   C3B58617  40.714  14.674   7.039
 4424POPC   C4B58618  41.024  14.855   7.340
 4425POPC   NC358619  14.619  26.920   5.390
 4425POPC   PO458620  13.974  26.801   5.635
 4425POPC   GL158621  14.358  26.833   5.838
 4425POPC   GL258622  14.548  26.557   5.786
 4425POPC   C1A58623  14.429  27.101   6.181
 4425POPC   D2A58624  14.173  27.045   6.546
 4425POPC   C3A58625  14.494  27.026   6.841
 4425POPC   C4A58626  14.612  27.037   7.248
 4425POPC   C1B58627  14.608  26.588   6.214
 4425POPC   C2B58628  14.750  26.604   6.649
 4425POPC   C3B58629  14.547  26.568   7.071
 4425POPC   C4B58630  14.451  26.616   7.548
 4426POPC   NC358631  21.519  24.164   5.364
 4426POPC   PO458632  21.200  24.728   5.410
 4426POPC   GL158633  21.423  24.523   5.721
 4426POPC   GL258634  21.144  24.491   5.918
 4426POPC   C1A58635  21.633  24.459   6.121
 4426POPC   D2A58636  21.412  24.556   6.518
 4426POPC   C3A58637  21.560  24.421   6.952
 4426POPC   C4A58638  21.482  24.537   7.399
 4426POPC   C1B58639  21.009  24.223   6.237
 4426POPC   C2B58640  21.192  24.107   6.632
 4426POPC   C3B58641  21.154  24.083   7.082
 4426POPC   C4B58642  21.161  24.148   7.523
 4427POPC   NC358643  12.587  12.643   5.553
 4427POPC   PO458644  12.756  13.264   5.438
 4427POPC   GL158645  12.914  13.013   5.769
 4427POPC   GL258646  13.098  12.687   5.660
 4427POPC   C1A58647  12.773  13.034   6.192
 4427POPC   D2A58648  12.495  12.958   6.506
 4427POPC   C3A58649  12.678  12.861   6.877
 4427POPC   C4A58650  12.871  12.918   7.225
 4427POPC   C1B58651  13.069  12.610   6.112
 4427POPC   C2B58652  13.041  12.710   6.548
 4427POPC   C3B58653  13.290  12.637   6.923
 4427POPC   C4B58654  13.342  12.788   7.313
 4428POPC   NC358655   2.475  10.416   5.481
 4428POPC   PO458656   3.122  10.464   5.526
 4428POPC   GL158657   2.905  10.314   5.928
 4428POPC   GL258658   2.592  10.086   5.886
 4428POPC   C1A58659   2.944  10.464   6.376
 4428POPC   D2A58660   3.121  10.732   6.729
 4428POPC   C3A58661   2.874  10.659   7.103
 4428POPC   C4A58662   2.612  10.941   7.350
 4428POPC   C1B58663   2.464  10.302   6.288
 4428POPC   C2B58664   2.541  10.535   6.699
 4428POPC   C3B58665   2.357  10.497   7.100
 4428POPC   C4B58666   2.176  10.685   7.470
 4429POPC   NC358667  29.937  42.588   5.422
 4429POPC   PO458668  30.344  42.096   5.466
 4429POPC   GL158669  30.193  42.353   5.809
 4429POPC   GL258670  29.797  42.331   5.848
 4429POPC   C1A58671  30.129  42.425   6.233
 4429POPC   D2A58672  29.860  42.355   6.590
 4429POPC   C3A58673  30.008  42.325   7.017
 4429POPC   C4A58674  29.881  42.286   7.475
 4429POPC   C1B58675  29.642  42.626   6.188
 4429POPC   C2B58676  29.713  42.832   6.571
 4429POPC   C3B58677  29.560  42.734   6.943
 4429POPC   C4B58678  29.663  42.724   7.356
 4430POPC   NC358679  24.321  43.462   5.438
 4430POPC   PO458680  24.708  42.852   5.424
 4430POPC   GL158681  24.619  43.074   5.837
 4430POPC   GL258682  24.282  43.131   5.825
 4430POPC   C1A58683  24.459  43.094   6.327
 4430POPC   D2A58684  24.295  43.301   6.728
 4430POPC   C3A58685  24.296  43.175   7.189
 4430POPC   C4A58686  24.512  42.843   7.438
 4430POPC   C1B58687  24.200  42.742   6.068
 4430POPC   C2B58688  24.288  42.620   6.497
 4430POPC   C3B58689  24.313  42.746   6.916
 4430POPC   C4B58690  24.050  42.751   7.253
 4431POPC   NC358691   4.273  19.694   5.407
 4431POPC   PO458692   4.777  20.155   5.494
 4431POPC   GL158693   4.456  20.005   5.774
 4431POPC   GL258694   4.150  20.132   5.949
 4431POPC   C1A58695   4.384  19.701   6.107
 4431POPC   D2A58696   4.189  19.802   6.495
 4431POPC   C3A58697   4.330  19.699   6.893
 4431POPC   C4A58698   4.010  19.802   7.226
 4431POPC   C1B58699   4.441  20.201   6.272
 4431POPC   C2B58700   4.542  20.171   6.700
 4431POPC   C3B58701   4.393  20.176   7.112
 4431POPC   C4B58702   4.348  20.284   7.540
 4432POPC   NC358703  10.390  36.644   5.622
 4432POPC   PO458704  10.604  37.275   5.445
 4432POPC   GL158705  10.667  37.048   5.836
 4432POPC   GL258706  10.839  36.731   5.864
 4432POPC   C1A58707  10.386  37.013   6.218
 4432POPC   D2A58708  10.410  36.796   6.607
 4432POPC   C3A58709  10.386  36.934   7.027
 4432POPC   C4A58710  10.265  36.628   7.324
 4432POPC   C1B58711  10.841  36.779   6.303
 4432POPC   C2B58712  10.837  36.533   6.678
 4432POPC   C3B58713  10.835  36.685   7.102
 4432POPC   C4B58714  10.949  37.113   7.186
 4433POPC   NC358715   7.873  31.695   5.464
 4433POPC   PO458716   7.244  31.494   5.353
 4433POPC   GL158717   7.398  31.435   5.750
 4433POPC   GL258718   7.220  31.144   5.799
 4433POPC   C1A58719   7.499  31.528   6.183
 4433POPC   D2A58720   7.602  31.316   6.582
 4433POPC   C3A58721   7.489  31.504   6.970
 4433POPC   C4A58722   7.217  31.797   7.128
 4433POPC   C1B58723   7.047  31.283   6.157
 4433POPC   C2B58724   7.113  31.452   6.542
 4433POPC   C3B58725   7.099  31.190   6.854
 4433POPC   C4B58726   7.116  31.279   7.236
 4434POPC   NC358727  22.295  15.478   5.556
 4434POPC   PO458728  22.012  14.909   5.367
 4434POPC   GL158729  22.047  14.998   5.801
 4434POPC   GL258730  22.406  14.943   5.854
 4434POPC   C1A58731  22.016  15.122   6.257
 4434POPC   D2A58732  22.195  14.938   6.657
 4434POPC   C3A58733  22.043  15.191   7.003
 4434POPC   C4A58734  21.691  15.512   6.982
 4434POPC   C1B58735  22.531  15.103   6.283
 4434POPC   C2B58736  22.460  15.385   6.654
 4434POPC   C3B58737  22.532  15.286   7.091
 4434POPC   C4B58738  22.420  14.833   7.120
 4435POPC   NC358739  36.984   6.856   5.346
 4435POPC   PO458740  36.487   6.365   5.452
 4435POPC   GL158741  36.720   6.649   5.732
 4435POPC   GL258742  36.577   6.964   5.684
 4435POPC   C1A58743  37.036   6.678   6.053
 4435POPC   D2A58744  37.056   6.556   6.474
 4435POPC   C3A58745  36.993   6.680   6.909
 4435POPC   C4A58746  36.770   6.518   7.270
 4435POPC   C1B58747  36.737   7.098   6.069
 4435POPC   C2B58748  36.834   7.047   6.478
 4435POPC   C3B58749  36.572   7.184   6.826
 4435POPC   C4B58750  36.634   7.027   7.209
 4436POPC   NC358751   0.224   2.929   5.401
 4436POPC   PO458752   0.412   2.343   5.612
 4436POPC   GL158753   0.404   2.715   5.836
 4436POPC   GL258754   0.665   2.932   5.679
 4436POPC   C1A58755   0.319   2.740   6.283
 4436POPC   D2A58756   0.513   3.028   6.613
 4436POPC   C3A58757   0.367   2.907   7.041
 4436POPC   C4A58758   0.085   2.579   7.252
 4436POPC   C1B58759   0.775   2.883   6.132
 4436POPC   C2B58760   0.750   2.588   6.486
 4436POPC   C3B58761   0.662   2.502   6.895
 4436POPC   C4B58762   0.837   2.707   7.234
 4437POPC   NC358763  12.642  42.543   5.443
 4437POPC   PO458764  13.212  42.175   5.561
 4437POPC   GL158765  12.936  42.358   5.832
 4437POPC   GL258766  13.158  42.619   5.840
 4437POPC   C1A58767  12.955  42.196   6.230
 4437POPC   D2A58768  13.166  42.305   6.604
 4437POPC   C3A58769  12.875  42.303   6.900
 4437POPC   C4A58770  12.681  42.211   7.249
 4437POPC   C1B58771  13.057  42.687   6.271
 4437POPC   C2B58772  12.908  42.777   6.673
 4437POPC   C3B58773  13.156  42.711   7.037
 4437POPC   C4B58774  13.195  42.341   7.301
 4438POPC   NC358775  42.254   9.230   5.454
 4438POPC   PO458776  42.460   8.599   5.376
 4438POPC   GL158777  42.270   8.685   5.805
 4438POPC   GL258778  42.303   9.043   5.918
 4438POPC   C1A58779  42.357   8.713   6.282
 4438POPC   D2A58780  42.191   8.871   6.654
 4438POPC   C3A58781  42.366   8.854   7.052
 4438POPC   C4A58782  42.381   8.918   7.463
 4438POPC   C1B58783  42.318   9.242   6.335
 4438POPC   C2B58784  42.395   9.318   6.803
 4438POPC   C3B58785  42.288   9.361   7.240
 4438POPC   C4B58786  42.027   9.381   7.632
 4439POPC   NC358787  34.789  38.281   5.359
 4439POPC   PO458788  34.249  38.784   5.408
 4439POPC   GL158789  34.452  38.561   5.747
 4439POPC   GL258790  34.548  38.207   5.808
 4439POPC   C1A58791  34.361  38.494   6.193
 4439POPC   D2A58792  34.526  38.658   6.585
 4439POPC   C3A58793  34.318  38.431   6.919
 4439POPC   C4A58794  34.096  38.109   7.171
 4439POPC   C1B58795  34.860  38.467   6.059
 4439POPC   C2B58796  35.017  38.415   6.489
 4439POPC   C3B58797  34.845  38.378   6.887
 4439POPC   C4B58798  34.989  38.387   7.298
 4440POPC   NC358799   2.227  42.118   5.422
 4440POPC   PO458800   1.621  42.337   5.154
 4440POPC   GL158801   1.567  42.406   5.667
 4440POPC   GL258802   1.940  42.435   5.759
 4440POPC   C1A58803   1.700  42.221   6.139
 4440POPC   D2A58804   1.896  42.331   6.546
 4440POPC   C3A58805   1.719  42.224   6.942
 4440POPC   C4A58806   1.802  42.393   7.339
 4440POPC   C1B58807   2.212  42.459   6.141
 4440POPC   C2B58808   2.348  42.586   6.580
 4440POPC   C3B58809   2.181  42.524   7.009
 4440POPC   C4B58810   2.278  42.208   7.361
 4441POPC   NC358811  16.962  15.501   5.569
 4441POPC   PO458812  16.646  14.905   5.442
 4441POPC   GL158813  16.721  15.127   5.846
 4441POPC   GL258814  16.401  15.232   5.969
 4441POPC   C1A58815  16.722  15.099   6.317
 4441POPC   D2A58816  16.375  15.176   6.633
 4441POPC   C3A58817  16.523  15.153   7.065
 4441POPC   C4A58818  16.979  15.090   7.137
 4441POPC   C1B58819  16.507  15.569   6.277
 4441POPC   C2B58820  16.292  15.699   6.663
 4441POPC   C3B58821  16.525  15.665   7.060
 4441POPC   C4B58822  16.542  15.562   7.501
 4442POPC   NC358823  20.855   0.791   5.438
 4442POPC   PO458824  20.258   1.112   5.592
 4442POPC   GL158825  20.477   1.311   5.909
 4442POPC   GL258826  20.807   1.261   5.717
 4442POPC   C1A58827  20.415   1.272   6.356
 4442POPC   D2A58828  20.218   0.892   6.566
 4442POPC   C3A58829  20.448   0.835   6.929
 4442POPC   C4A58830  20.624   1.122   7.175
 4442POPC   C1B58831  20.908   1.350   6.152
 4442POPC   C2B58832  20.938   1.322   6.603
 4442POPC   C3B58833  20.915   1.490   7.016
 4442POPC   C4B58834  21.028   1.365   7.428
 4443POPC   NC358835   9.092  30.404   4.977
 4443POPC   PO458836   8.693  29.932   5.261
 4443POPC   GL158837   8.600  29.915   5.725
 4443POPC   GL258838   8.959  29.876   5.817
 4443POPC   C1A58839   8.649  29.906   6.216
 4443POPC   D2A58840   8.638  29.603   6.565
 4443POPC   C3A58841   8.841  29.641   6.992
 4443POPC   C4A58842   8.783  30.089   7.127
 4443POPC   C1B58843   9.143  30.026   6.236
 4443POPC   C2B58844   9.020  29.977   6.669
 4443POPC   C3B58845   9.266  29.930   7.087
 4443POPC   C4B58846   9.504  29.849   7.499
 4444POPC   NC358847  40.825   5.820   5.458
 4444POPC   PO458848  40.416   6.369   5.482
 4444POPC   GL158849  40.584   6.067   5.849
 4444POPC   GL258850  40.978   6.130   5.858
 4444POPC   C1A58851  40.499   5.709   6.183
 4444POPC   D2A58852  40.280   5.716   6.624
 4444POPC   C3A58853  40.557   5.820   6.991
 4444POPC   C4A58854  40.974   5.644   7.153
 4444POPC   C1B58855  41.013   5.786   6.149
 4444POPC   C2B58856  40.844   5.770   6.564
 4444POPC   C3B58857  40.986   6.080   6.832
 4444POPC   C4B58858  40.946   6.136   7.243
 4445POPC   NC358859  41.133   0.385   5.388
 4445POPC   PO458860  41.758   0.161   5.464
 4445POPC   GL158861  41.667   0.210   5.865
 4445POPC   GL258862  41.303   0.205   5.891
 4445POPC   C1A58863  41.635   0.545   6.153
 4445POPC   D2A58864  41.690   0.379   6.568
 4445POPC   C3A58865  41.512   0.610   6.894
 4445POPC   C4A58866  41.460   0.667   7.338
 4445POPC   C1B58867  41.215   0.355   6.339
 4445POPC   C2B58868  41.215   0.150   6.743
 4445POPC   C3B58869  41.286   0.217   7.157
 4445POPC   C4B58870  41.051   0.404   7.509
 4446POPC   NC358871  35.838  18.055   5.373
 4446POPC   PO458872  36.432  18.474   5.350
 4446POPC   GL158873  36.212  18.311   5.694
 4446POPC   GL258874  36.047  18.026   5.819
 4446POPC   C1A58875  36.407  18.267   6.095
 4446POPC   D2A58876  36.461  18.086   6.499
 4446POPC   C3A58877  36.502  18.332   6.852
 4446POPC   C4A58878  36.325  18.275   7.242
 4446POPC   C1B58879  35.940  18.129   6.242
 4446POPC   C2B58880  36.069  18.432   6.564
 4446POPC   C3B58881  35.912  18.408   6.975
 4446POPC   C4B58882  35.782  18.093   7.277
 4447POPC   NC358883  39.056  32.686   5.435
 4447POPC   PO458884  39.217  32.106   5.294
 4447POPC   GL158885  39.233  31.992   5.732
 4447POPC   GL258886  39.155  32.314   5.816
 4447POPC   C1A58887  39.456  32.036   6.153
 4447POPC   D2A58888  39.549  32.192   6.609
 4447POPC   C3A58889  39.545  31.888   6.976
 4447POPC   C4A58890  39.309  31.966   7.351
 4447POPC   C1B58891  39.229  32.486   6.245
 4447POPC   C2B58892  39.022  32.401   6.616
 4447POPC   C3B58893  39.183  32.316   6.992
 4447POPC   C4B58894  39.080  32.436   7.408
 4448POPC   NC358895  36.600  13.486   5.174
 4448POPC   PO458896  37.153  13.852   5.375
 4448POPC   GL158897  37.001  13.621   5.751
 4448POPC   GL258898  36.637  13.542   5.727
 4448POPC   C1A58899  37.024  13.682   6.209
 4448POPC   D2A58900  36.688  13.734   6.520
 4448POPC   C3A58901  36.799  13.747   6.938
 4448POPC   C4A58902  37.195  13.828   7.146
 4448POPC   C1B58903  36.646  13.353   6.162
 4448POPC   C2B58904  36.492  13.272   6.602
 4448POPC   C3B58905  36.617  13.269   7.060
 4448POPC   C4B58906  36.814  13.476   7.382
 4449POPC   NC358907  39.256  22.195   5.356
 4449POPC   PO458908  39.739  22.587   5.572
 4449POPC   GL158909  39.386  22.325   5.840
 4449POPC   GL258910  39.181  21.956   5.799
 4449POPC   C1A58911  39.457  22.113   6.239
 4449POPC   D2A58912  39.508  22.335   6.618
 4449POPC   C3A58913  39.617  22.097   6.950
 4449POPC   C4A58914  39.353  22.015   7.291
 4449POPC   C1B58915  39.045  21.811   6.222
 4449POPC   C2B58916  39.181  21.877   6.661
 4449POPC   C3B58917  38.926  21.940   7.026
 4449POPC   C4B58918  38.851  22.332   7.261
 4450POPC   NC358919   0.358   7.461   5.140
 4450POPC   PO458920   0.420   8.115   5.320
 4450POPC   GL158921   0.601   8.248   5.765
 4450POPC   GL258922   0.734   7.920   5.892
 4450POPC   C1A58923   0.776   8.328   6.201
 4450POPC   D2A58924   0.553   8.388   6.609
 4450POPC   C3A58925   0.513   8.079   6.947
 4450POPC   C4A58926   0.705   8.196   7.303
 4450POPC   C1B58927   0.379   7.983   6.228
 4450POPC   C2B58928   0.099   8.082   6.622
 4450POPC   C3B58929  44.983   8.007   7.079
 4450POPC   C4B58930  44.869   7.987   7.525
 4451POPC   NC358931  19.752   2.384   5.586
 4451POPC   PO458932  19.988   3.004   5.435
 4451POPC   GL158933  19.925   2.846   5.854
 4451POPC   GL258934  19.612   2.730   5.932
 4451POPC   C1A58935  19.902   2.897   6.309
 4451POPC   D2A58936  19.676   2.879   6.674
 4451POPC   C3A58937  19.991   2.874   6.956
 4451POPC   C4A58938  20.087   2.579   7.290
 4451POPC   C1B58939  19.404   2.596   6.299
 4451POPC   C2B58940  19.458   2.419   6.705
 4451POPC   C3B58941  19.559   2.615   7.109
 4451POPC   C4B58942  19.599   2.566   7.546
 4452POPC   NC358943  31.527  37.541   5.424
 4452POPC   PO458944  32.007  38.016   5.486
 4452POPC   GL158945  31.699  37.846   5.803
 4452POPC   GL258946  31.651  37.472   5.919
 4452POPC   C1A58947  31.340  37.864   6.083
 4452POPC   D2A58948  31.357  37.891   6.528
 4452POPC   C3A58949  31.308  37.524   6.780
 4452POPC   C4A58950  31.149  37.479   7.199
 4452POPC   C1B58951  31.704  37.497   6.376
 4452POPC   C2B58952  31.794  37.713   6.748
 4452POPC   C3B58953  31.543  37.928   7.060
 4452POPC   C4B58954  31.499  37.739   7.463
 4453POPC   NC358955  11.859  44.115   5.368
 4453POPC   PO458956  12.315  43.673   5.572
 4453POPC   GL158957  11.985  43.866   5.810
 4453POPC   GL258958  11.918  44.228   5.842
 4453POPC   C1A58959  12.012  43.907   6.245
 4453POPC   D2A58960  12.237  43.758   6.580
 4453POPC   C3A58961  12.186  44.088   6.887
 4453POPC   C4A58962  12.334  43.995   7.293
 4453POPC   C1B58963  11.598  44.181   6.125
 4453POPC   C2B58964  11.564  43.984   6.525
 4453POPC   C3B58965  11.689  44.168   6.902
 4453POPC   C4B58966  11.832  44.030   7.264
 4454POPC   NC358967  18.113   2.541   5.397
 4454POPC   PO458968  18.674   2.518   5.672
 4454POPC   GL158969  18.421   2.842   5.773
 4454POPC   GL258970  18.223   2.598   5.925
 4454POPC   C1A58971  18.328   3.061   6.152
 4454POPC   D2A58972  18.270   2.789   6.513
 4454POPC   C3A58973  18.423   2.919   6.932
 4454POPC   C4A58974  18.190   2.836   7.290
 4454POPC   C1B58975  17.932   2.349   6.111
 4454POPC   C2B58976  17.809   2.454   6.514
 4454POPC   C3B58977  18.035   2.526   6.894
 4454POPC   C4B58978  17.826   2.461   7.278
 4455POPC   NC358979  29.793  37.391   5.479
 4455POPC   PO458980  30.296  37.832   5.408
 4455POPC   GL158981  30.108  37.683   5.755
 4455POPC   GL258982  30.229  37.358   5.769
 4455POPC   C1A58983  29.802  37.747   6.100
 4455POPC   D2A58984  29.828  37.927   6.511
 4455POPC   C3A58985  29.633  37.758   6.869
 4455POPC   C4A58986  29.784  37.597   7.274
 4455POPC   C1B58987  30.230  37.471   6.210
 4455POPC   C2B58988  30.333  37.371   6.623
 4455POPC   C3B58989  30.145  37.635   6.911
 4455POPC   C4B58990  30.038  38.011   7.136
 4456POPC   NC358991  44.161  21.183   5.578
 4456POPC   PO458992  43.787  21.713   5.369
 4456POPC   GL158993  43.876  21.571   5.789
 4456POPC   GL258994  43.580  21.411   5.812
 4456POPC   C1A58995  44.071  21.428   6.226
 4456POPC   D2A58996  44.032  21.611   6.653
 4456POPC   C3A58997  43.840  21.402   7.027
 4456POPC   C4A58998  44.022  21.026   7.279
 4456POPC   C1B58999  43.598  21.246   6.194
 4456POPC   C2B59000  43.743  21.151   6.581
 4456POPC   C3B59001  43.637  20.948   6.952
 4456POPC   C4B59002  43.497  21.080   7.315
 4457POPC   NC359003  23.505  42.734   5.517
 4457POPC   PO459004  23.924  43.232   5.423
 4457POPC   GL159005  23.774  43.186   5.801
 4457POPC   GL259006  23.444  43.208   5.796
 4457POPC   C1A59007  23.967  43.292   6.194
 4457POPC   D2A59008  23.958  43.010   6.500
 4457POPC   C3A59009  23.846  43.159   6.905
 4457POPC   C4A59010  23.775  43.211   7.346
 4457POPC   C1B59011  23.521  43.007   6.212
 4457POPC   C2B59012  23.408  42.966   6.659
 4457POPC   C3B59013  23.217  43.169   7.044
 4457POPC   C4B59014  23.288  43.155   7.514
 4458POPC   NC359015  38.829  11.295   5.265
 4458POPC   PO459016  39.471  11.192   5.467
 4458POPC   GL159017  39.094  11.324   5.725
 4458POPC   GL259018  38.894  11.008   5.789
 4458POPC   C1A59019  39.043  11.350   6.186
 4458POPC   D2A59020  38.998  11.487   6.631
 4458POPC   C3A59021  39.378  11.460   6.883
 4458POPC   C4A59022  39.566  11.264   7.244
 4458POPC   C1B59023  38.738  10.949   6.260
 4458POPC   C2B59024  38.823  10.968   6.735
 4458POPC   C3B59025  38.973  11.244   7.101
 4458POPC   C4B59026  39.130  11.234   7.513
 4459POPC   NC359027   7.614  23.513   5.177
 4459POPC   PO459028   8.111  23.699   5.628
 4459POPC   GL159029   7.729  23.414   5.746
 4459POPC   GL259030   7.372  23.563   5.773
 4459POPC   C1A59031   7.581  23.334   6.198
 4459POPC   D2A59032   7.633  23.162   6.646
 4459POPC   C3A59033   7.612  23.474   7.006
 4459POPC   C4A59034   7.807  23.859   7.194
 4459POPC   C1B59035   7.106  23.526   6.155
 4459POPC   C2B59036   7.170  23.377   6.588
 4459POPC   C3B59037   7.177  23.169   6.988
 4459POPC   C4B59038   7.263  23.359   7.356
 4460POPC   NC359039  16.456   2.361   5.443
 4460POPC   PO459040  16.591   1.734   5.250
 4460POPC   GL159041  16.635   1.931   5.694
 4460POPC   GL259042  16.633   2.268   5.900
 4460POPC   C1A59043  16.505   1.813   6.129
 4460POPC   D2A59044  16.412   1.760   6.585
 4460POPC   C3A59045  16.794   1.680   6.835
 4460POPC   C4A59046  16.968   1.804   7.226
 4460POPC   C1B59047  16.587   2.273   6.355
 4460POPC   C2B59048  16.776   2.193   6.764
 4460POPC   C3B59049  16.726   2.258   7.217
 4460POPC   C4B59050  16.643   2.474   7.583
 4461POPC   NC359051  43.720   2.614   5.523
 4461POPC   PO459052  44.019   3.183   5.524
 4461POPC   GL159053  44.165   3.052   5.915
 4461POPC   GL259054  44.098   2.704   5.863
 4461POPC   C1A59055  44.082   3.028   6.331
 4461POPC   D2A59056  44.040   2.677   6.584
 4461POPC   C3A59057  44.158   2.810   6.973
 4461POPC   C4A59058  44.069   2.743   7.358
 4461POPC   C1B59059  43.725   2.729   6.148
 4461POPC   C2B59060  43.585   2.908   6.507
 4461POPC   C3B59061  43.641   2.779   6.909
 4461POPC   C4B59062  43.491   2.796   7.303
 4462POPC   NC359063  21.097  32.413   5.500
 4462POPC   PO459064  21.571  32.005   5.534
 4462POPC   GL159065  21.221  31.959   5.780
 4462POPC   GL259066  21.236  32.271   5.968
 4462POPC   C1A59067  21.174  31.833   6.232
 4462POPC   D2A59068  21.144  32.088   6.627
 4462POPC   C3A59069  21.297  32.000   7.015
 4462POPC   C4A59070  21.204  31.955   7.445
 4462POPC   C1B59071  21.272  32.509   6.379
 4462POPC   C2B59072  21.551  32.407   6.767
 4462POPC   C3B59073  21.656  32.305   7.215
 4462POPC   C4B59074  21.814  32.534   7.597
 4463POPC   NC359075  33.749  32.587   5.236
 4463POPC   PO459076  33.762  33.242   5.489
 4463POPC   GL159077  33.954  33.001   5.797
 4463POPC   GL259078  33.701  32.739   5.822
 4463POPC   C1A59079  33.900  33.008   6.250
 4463POPC   D2A59080  33.836  32.873   6.673
 4463POPC   C3A59081  33.664  33.133   7.005
 4463POPC   C4A59082  33.935  33.245   7.342
 4463POPC   C1B59083  33.493  32.670   6.248
 4463POPC   C2B59084  33.548  32.464   6.673
 4463POPC   C3B59085  33.690  32.594   7.103
 4463POPC   C4B59086  33.602  32.884   7.465
 4464POPC   NC359087   8.041  42.208   5.287
 4464POPC   PO459088   8.615  42.539   5.416
 4464POPC   GL159089   8.328  42.304   5.729
 4464POPC   GL259090   8.028  42.411   5.804
 4464POPC   C1A59091   8.274  42.074   6.136
 4464POPC   D2A59092   8.351  42.170   6.576
 4464POPC   C3A59093   8.294  42.014   6.978
 4464POPC   C4A59094   8.445  42.175   7.362
 4464POPC   C1B59095   7.765  42.679   6.091
 4464POPC   C2B59096   7.770  42.780   6.558
 4464POPC   C3B59097   7.939  42.867   6.976
 4464POPC   C4B59098   8.019  42.803   7.418
 4465POPC   NC359099   4.550  44.892   5.469
 4465POPC   PO459100   3.995  44.558   5.247
 4465POPC   GL159101   4.151  44.539   5.686
 4465POPC   GL259102   4.477  44.500   5.788
 4465POPC   C1A59103   4.142  44.682   6.118
 4465POPC   D2A59104   4.216  44.562   6.493
 4465POPC   C3A59105   4.211  44.537   6.897
 4465POPC   C4A59106   4.220  44.731   7.248
 4465POPC   C1B59107   4.646  44.587   6.196
 4465POPC   C2B59108   4.684  44.687   6.645
 4465POPC   C3B59109   4.680  44.597   7.087
 4465POPC   C4B59110   4.652  44.905   7.419
 4466POPC   NC359111  18.842   2.153   5.446
 4466POPC   PO459112  19.152   1.536   5.216
 4466POPC   GL159113  19.076   1.737   5.634
 4466POPC   GL259114  18.710   1.760   5.754
 4466POPC   C1A59115  19.128   1.877   6.073
 4466POPC   D2A59116  19.244   1.955   6.507
 4466POPC   C3A59117  19.043   2.197   6.865
 4466POPC   C4A59118  19.258   2.213   7.273
 4466POPC   C1B59119  18.678   1.660   6.180
 4466POPC   C2B59120  18.708   1.917   6.537
 4466POPC   C3B59121  18.761   1.786   6.942
 4466POPC   C4B59122  18.729   2.018   7.293
 4467POPC   NC359123  11.374  32.154   5.436
 4467POPC   PO459124  11.038  32.645   5.701
 4467POPC   GL159125  11.274  32.318   5.932
 4467POPC   GL259126  11.642  32.307   5.863
 4467POPC   C1A59127  11.215  32.285   6.373
 4467POPC   D2A59128  11.143  32.028   6.718
 4467POPC   C3A59129  10.891  32.236   6.975
 4467POPC   C4A59130  11.103  32.501   7.234
 4467POPC   C1B59131  11.666  32.052   6.258
 4467POPC   C2B59132  11.654  32.170   6.697
 4467POPC   C3B59133  11.484  32.146   7.123
 4467POPC   C4B59134  11.435  32.252   7.561
 4468POPC   NC359135  30.843  30.755   5.243
 4468POPC   PO459136  30.159  30.723   5.253
 4468POPC   GL159137  30.373  30.843   5.669
 4468POPC   GL259138  30.729  30.754   5.754
 4468POPC   C1A59139  30.355  30.812   6.136
 4468POPC   D2A59140  30.596  30.934   6.465
 4468POPC   C3A59141  30.500  30.750   6.832
 4468POPC   C4A59142  30.488  30.680   7.275
 4468POPC   C1B59143  30.852  30.596   6.164
 4468POPC   C2B59144  30.953  30.581   6.622
 4468POPC   C3B59145  30.974  30.816   7.014
 4468POPC   C4B59146  30.983  30.739   7.417
 4469POPC   NC359147  10.928  37.583   5.592
 4469POPC   PO459148  11.226  38.031   5.240
 4469POPC   GL159149  11.237  37.999   5.726
 4469POPC   GL259150  11.485  37.771   5.760
 4469POPC   C1A59151  11.094  37.793   6.155
 4469POPC   D2A59152  10.893  37.755   6.529
 4469POPC   C3A59153  11.064  37.596   6.869
 4469POPC   C4A59154  11.170  37.578   7.249
 4469POPC   C1B59155  11.600  37.738   6.172
 4469POPC   C2B59156  11.437  37.570   6.531
 4469POPC   C3B59157  11.582  37.712   6.920
 4469POPC   C4B59158  11.655  37.806   7.315
 4470POPC   NC359159  41.622   3.255   5.194
 4470POPC   PO459160  41.789   2.681   5.369
 4470POPC   GL159161  41.873   2.691   5.808
 4470POPC   GL259162  41.976   3.039   5.969
 4470POPC   C1A59163  41.734   2.602   6.227
 4470POPC   D2A59164  41.869   2.780   6.602
 4470POPC   C3A59165  41.819   2.582   7.018
 4470POPC   C4A59166  41.464   2.499   7.291
 4470POPC   C1B59167  41.578   3.088   6.248
 4470POPC   C2B59168  41.383   2.916   6.630
 4470POPC   C3B59169  41.272   2.911   7.056
 4470POPC   C4B59170  41.006   2.711   7.403
 4471POPC   NC359171  44.862  40.192   5.402
 4471POPC   PO459172  44.267  39.849   5.402
 4471POPC   GL159173  44.523  39.996   5.759
 4471POPC   GL259174  44.874  39.845   5.766
 4471POPC   C1A59175  44.645  40.095   6.194
 4471POPC   D2A59176  44.823  40.014   6.602
 4471POPC   C3A59177  44.683  40.166   7.021
 4471POPC   C4A59178  44.401  40.314   7.362
 4471POPC   C1B59179  44.902  39.659   6.167
 4471POPC   C2B59180   0.009  39.510   6.579
 4471POPC   C3B59181   0.100  39.738   6.924
 4471POPC   C4B59182  44.876  39.768   7.287
 4472POPC   NC359183  12.960   4.609   5.463
 4472POPC   PO459184  12.512   4.168   5.490
 4472POPC   GL159185  12.868   4.227   5.869
 4472POPC   GL259186  13.125   4.469   5.920
 4472POPC   C1A59187  13.082   4.119   6.289
 4472POPC   D2A59188  12.983   4.333   6.694
 4472POPC   C3A59189  13.130   4.167   7.091
 4472POPC   C4A59190  12.831   4.162   7.432
 4472POPC   C1B59191  12.815   4.576   6.264
 4472POPC   C2B59192  12.661   4.745   6.686
 4472POPC   C3B59193  12.766   4.602   7.137
 4472POPC   C4B59194  12.823   4.654   7.611
 4473POPC   NC359195  28.108  29.226   5.443
 4473POPC   PO459196  28.785  29.149   5.369
 4473POPC   GL159197  28.545  29.315   5.757
 4473POPC   GL259198  28.246  29.114   5.899
 4473POPC   C1A59199  28.403  29.493   6.187
 4473POPC   D2A59200  28.218  29.438   6.619
 4473POPC   C3A59201  28.491  29.142   6.869
 4473POPC   C4A59202  28.624  28.795   7.126
 4473POPC   C1B59203  27.998  29.135   6.254
 4473POPC   C2B59204  27.863  28.952   6.605
 4473POPC   C3B59205  28.007  29.090   6.988
 4473POPC   C4B59206  28.188  29.454   7.135
 4474POPC   NC359207   2.649   1.462   5.358
 4474POPC   PO459208   2.531   0.815   5.259
 4474POPC   GL159209   2.594   1.058   5.688
 4474POPC   GL259210   2.898   1.249   5.820
 4474POPC   C1A59211   2.438   1.276   6.086
 4474POPC   D2A59212   2.383   1.419   6.523
 4474POPC   C3A59213   2.246   1.250   6.925
 4474POPC   C4A59214   2.554   1.275   7.233
 4474POPC   C1B59215   3.177   1.197   6.196
 4474POPC   C2B59216   3.285   1.141   6.649
 4474POPC   C3B59217   3.028   1.133   7.040
 4474POPC   C4B59218   2.941   1.579   7.197
 4475POPC   NC359219  36.766  18.189   5.188
 4475POPC   PO459220  37.318  18.487   5.447
 4475POPC   GL159221  36.941  18.397   5.807
 4475POPC   GL259222  36.721  18.095   5.716
 4475POPC   C1A59223  36.834  18.499   6.273
 4475POPC   D2A59224  36.951  18.219   6.619
 4475POPC   C3A59225  37.113  18.368   6.971
 4475POPC   C4A59226  36.834  18.352   7.288
 4475POPC   C1B59227  36.850  17.996   6.158
 4475POPC   C2B59228  36.821  17.718   6.554
 4475POPC   C3B59229  36.639  17.855   6.973
 4475POPC   C4B59230  36.627  17.934   7.449
 4476POPC   NC359231   0.951   3.301   5.424
 4476POPC   PO459232   1.580   3.223   5.588
 4476POPC   GL159233   1.267   3.448   5.828
 4476POPC   GL259234   0.952   3.313   5.922
 4476POPC   C1A59235   1.226   3.664   6.217
 4476POPC   D2A59236   1.088   3.888   6.587
 4476POPC   C3A59237   1.196   3.690   6.977
 4476POPC   C4A59238   1.133   3.466   7.335
 4476POPC   C1B59239   0.795   3.395   6.309
 4476POPC   C2B59240   0.846   3.444   6.708
 4476POPC   C3B59241   0.823   3.173   7.002
 4476POPC   C4B59242   0.643   3.234   7.326
 4477POPC   NC359243  18.610  38.304   5.072
 4477POPC   PO459244  18.022  38.496   5.358
 4477POPC   GL159245  18.223  38.493   5.761
 4477POPC   GL259246  18.582  38.477   5.761
 4477POPC   C1A59247  18.319  38.625   6.184
 4477POPC   D2A59248  18.202  38.469   6.575
 4477POPC   C3A59249  18.354  38.527   6.988
 4477POPC   C4A59250  18.279  38.259   7.371
 4477POPC   C1B59251  18.668  38.228   6.148
 4477POPC   C2B59252  18.578  38.108   6.580
 4477POPC   C3B59253  18.683  38.156   7.050
 4477POPC   C4B59254  18.718  38.052   7.508
 4478POPC   NC359255  33.989  43.575   5.354
 4478POPC   PO459256  33.641  44.133   5.426
 4478POPC   GL159257  33.611  43.944   5.843
 4478POPC   GL259258  33.904  43.738   5.847
 4478POPC   C1A59259  33.675  43.820   6.299
 4478POPC   D2A59260  33.876  43.616   6.654
 4478POPC   C3A59261  33.696  43.786   7.028
 4478POPC   C4A59262  33.467  44.158   7.179
 4478POPC   C1B59263  34.194  43.693   6.198
 4478POPC   C2B59264  34.370  43.807   6.594
 4478POPC   C3B59265  34.221  43.805   7.016
 4478POPC   C4B59266  34.123  43.884   7.463
 4479POPC   NC359267  25.384   9.448   5.024
 4479POPC   PO459268  25.249   9.848   5.517
 4479POPC   GL159269  25.207   9.795   5.934
 4479POPC   GL259270  25.542   9.812   5.951
 4479POPC   C1A59271  25.304  10.016   6.348
 4479POPC   D2A59272  25.455   9.905   6.759
 4479POPC   C3A59273  25.223   9.910   7.149
 4479POPC   C4A59274  25.200   9.618   7.506
 4479POPC   C1B59275  25.723   9.650   6.327
 4479POPC   C2B59276  25.707   9.428   6.674
 4479POPC   C3B59277  25.567   9.527   7.074
 4479POPC   C4B59278  25.916   9.517   7.253
 4480POPC   NC359279   9.767   1.439   5.460
 4480POPC   PO459280  10.170   0.911   5.560
 4480POPC   GL159281   9.904   1.128   5.861
 4480POPC   GL259282   9.522   1.085   5.899
 4480POPC   C1A59283   9.899   1.395   6.212
 4480POPC   D2A59284   9.959   1.190   6.597
 4480POPC   C3A59285   9.870   1.280   7.021
 4480POPC   C4A59286  10.030   1.358   7.437
 4480POPC   C1B59287   9.529   0.947   6.353
 4480POPC   C2B59288   9.510   0.929   6.816
 4480POPC   C3B59289   9.390   1.174   7.171
 4480POPC   C4B59290   9.630   1.026   7.498
 4481POPC   NC359291  36.068  31.112   5.364
 4481POPC   PO459292  36.446  31.686   5.330
 4481POPC   GL159293  36.282  31.470   5.720
 4481POPC   GL259294  36.193  31.780   5.891
 4481POPC   C1A59295  36.152  31.251   6.147
 4481POPC   D2A59296  35.837  31.198   6.542
 4481POPC   C3A59297  35.838  31.278   7.000
 4481POPC   C4A59298  36.230  31.328   7.217
 4481POPC   C1B59299  36.380  31.696   6.315
 4481POPC   C2B59300  36.163  31.576   6.709
 4481POPC   C3B59301  35.998  31.777   7.105
 4481POPC   C4B59302  36.142  31.986   7.501
 4482POPC   NC359303  36.413  21.931   5.354
 4482POPC   PO459304  35.775  21.871   5.345
 4482POPC   GL159305  36.005  22.102   5.645
 4482POPC   GL259306  36.140  21.792   5.759
 4482POPC   C1A59307  36.229  22.262   6.023
 4482POPC   D2A59308  36.091  22.237   6.483
 4482POPC   C3A59309  36.366  22.388   6.829
 4482POPC   C4A59310  36.414  22.239   7.232
 4482POPC   C1B59311  36.092  21.806   6.175
 4482POPC   C2B59312  36.282  21.777   6.550
 4482POPC   C3B59313  36.160  21.923   6.901
 4482POPC   C4B59314  36.198  21.745   7.266
 4483POPC   NC359315  12.919   3.949   5.461
 4483POPC   PO459316  12.985   3.298   5.435
 4483POPC   GL159317  12.894   3.559   5.821
 4483POPC   GL259318  12.600   3.790   5.849
 4483POPC   C1A59319  12.766   3.526   6.266
 4483POPC   D2A59320  12.907   3.361   6.664
 4483POPC   C3A59321  12.646   3.278   7.018
 4483POPC   C4A59322  12.724   3.348   7.442
 4483POPC   C1B59323  12.595   4.011   6.268
 4483POPC   C2B59324  12.805   3.865   6.669
 4483POPC   C3B59325  12.809   3.755   7.113
 4483POPC   C4B59326  12.447   3.789   7.406
 4484POPC   NC359327  37.380  41.904   5.505
 4484POPC   PO459328  36.905  42.294   5.191
 4484POPC   GL159329  36.906  42.121   5.656
 4484POPC   GL259330  37.206  42.134   5.920
 4484POPC   C1A59331  36.733  42.100   6.108
 4484POPC   D2A59332  36.998  42.134   6.498
 4484POPC   C3A59333  36.787  42.056   6.861
 4484POPC   C4A59334  36.569  42.088   7.203
 4484POPC   C1B59335  37.441  42.314   6.273
 4484POPC   C2B59336  37.590  42.253   6.670
 4484POPC   C3B59337  37.307  42.148   6.999
 4484POPC   C4B59338  36.971  42.442   7.150
 4485POPC   NC359339  43.426  44.211   5.468
 4485POPC   PO459340  43.047  44.742   5.383
 4485POPC   GL159341  43.236  44.636   5.741
 4485POPC   GL259342  42.917  44.656   5.924
 4485POPC   C1A59343  43.347  44.508   6.147
 4485POPC   D2A59344  43.152  44.718   6.488
 4485POPC   C3A59345  43.106  44.483   6.867
 4485POPC   C4A59346  43.256  44.695   7.209
 4485POPC   C1B59347  42.797   0.005   6.186
 4485POPC   C2B59348  42.854   0.142   6.607
 4485POPC   C3B59349  42.846  44.904   6.975
 4485POPC   C4B59350  42.769  44.604   7.293
 4486POPC   NC359351  38.382   3.629   5.470
 4486POPC   PO459352  38.342   3.137   5.683
 4486POPC   GL159353  38.161   3.421   5.951
 4486POPC   GL259354  38.159   3.133   6.182
 4486POPC   C1A59355  38.038   3.578   6.365
 4486POPC   D2A59356  38.221   3.311   6.699
 4486POPC   C3A59357  38.285   3.568   7.048
 4486POPC   C4A59358  38.111   3.909   7.289
 4486POPC   C1B59359  38.523   3.440   6.298
 4486POPC   C2B59360  38.753   3.399   6.682
 4486POPC   C3B59361  38.694   3.280   7.128
 4486POPC   C4B59362  38.380   3.244   7.475
 4487POPC   NC359363  26.250  44.370   5.136
 4487POPC   PO459364  25.862  43.961   5.536
 4487POPC   GL159365  26.076  43.817   5.912
 4487POPC   GL259366  26.404  43.687   5.876
 4487POPC   C1A59367  26.150  44.033   6.302
 4487POPC   D2A59368  25.891  44.232   6.617
 4487POPC   C3A59369  25.967  44.043   6.980
 4487POPC   C4A59370  25.761  43.875   7.302
 4487POPC   C1B59371  26.244  43.489   6.275
 4487POPC   C2B59372  26.132  43.607   6.710
 4487POPC   C3B59373  25.719  43.572   6.887
 4487POPC   C4B59374  25.536  43.426   7.251
 4488POPC   NC359375  43.860  25.879   5.417
 4488POPC   PO459376  43.331  26.184   5.440
 4488POPC   GL159377  43.539  25.918   5.810
 4488POPC   GL259378  43.900  26.048   5.892
 4488POPC   C1A59379  43.684  25.744   6.225
 4488POPC   D2A59380  43.982  25.913   6.546
 4488POPC   C3A59381  43.928  25.893   7.013
 4488POPC   C4A59382  43.739  25.815   7.429
 4488POPC   C1B59383  43.753  26.271   6.267
 4488POPC   C2B59384  43.792  26.351   6.736
 4488POPC   C3B59385  43.904  26.378   7.191
 4488POPC   C4B59386  44.075  26.649   7.559
 4489POPC   NC359387  35.341  15.421   5.314
 4489POPC   PO459388  35.300  16.074   5.306
 4489POPC   GL159389  35.409  16.085   5.747
 4489POPC   GL259390  35.566  16.414   5.735
 4489POPC   C1A59391  35.367  15.836   6.157
 4489POPC   D2A59392  35.562  15.755   6.584
 4489POPC   C3A59393  35.325  15.913   6.938
 4489POPC   C4A59394  35.025  15.693   7.184
 4489POPC   C1B59395  35.641  16.308   6.161
 4489POPC   C2B59396  35.657  16.357   6.584
 4489POPC   C3B59397  35.661  16.367   7.004
 4489POPC   C4B59398  35.440  16.265   7.355
 4490POPC   NC359399  39.009  28.571   5.442
 4490POPC   PO459400  39.538  28.184   5.521
 4490POPC   GL159401  39.385  28.467   5.777
 4490POPC   GL259402  39.103  28.244   5.823
 4490POPC   C1A59403  39.392  28.619   6.169
 4490POPC   D2A59404  39.075  28.644   6.496
 4490POPC   C3A59405  39.235  28.419   6.826
 4490POPC   C4A59406  39.282  28.575   7.204
 4490POPC   C1B59407  39.112  28.194   6.238
 4490POPC   C2B59408  38.847  28.156   6.579
 4490POPC   C3B59409  38.742  28.365   6.945
 4490POPC   C4B59410  38.950  28.218   7.334
 4491POPC   NC359411  17.138  27.482   5.323
 4491POPC   PO459412  16.510  27.762   5.443
 4491POPC   GL159413  16.748  27.869   5.810
 4491POPC   GL259414  16.883  27.541   5.802
 4491POPC   C1A59415  16.597  27.770   6.243
 4491POPC   D2A59416  16.467  27.396   6.512
 4491POPC   C3A59417  16.347  27.585   6.891
 4491POPC   C4A59418  16.623  27.890   7.028
 4491POPC   C1B59419  17.085  27.595   6.210
 4491POPC   C2B59420  17.107  27.355   6.603
 4491POPC   C3B59421  16.877  27.410   6.999
 4491POPC   C4B59422  17.175  27.700   7.194
 4492POPC   NC359423   3.035  35.215   5.337
 4492POPC   PO459424   3.650  35.533   5.300
 4492POPC   GL159425   3.654  35.500   5.787
 4492POPC   GL259426   3.370  35.714   5.897
 4492POPC   C1A59427   3.513  35.343   6.234
 4492POPC   D2A59428   3.186  35.316   6.576
 4492POPC   C3A59429   3.354  35.448   6.946
 4492POPC   C4A59430   3.779  35.327   7.012
 4492POPC   C1B59431   3.748  35.802   6.205
 4492POPC   C2B59432   3.859  35.703   6.637
 4492POPC   C3B59433   3.774  35.827   7.034
 4492POPC   C4B59434   3.379  35.918   7.167
 4493POPC   NC359435  19.279   0.249   5.640
 4493POPC   PO459436  18.919   0.775   5.459
 4493POPC   GL159437  18.842   0.531   5.843
 4493POPC   GL259438  18.800   0.149   5.808
 4493POPC   C1A59439  18.985   0.624   6.287
 4493POPC   D2A59440  18.891   0.779   6.736
 4493POPC   C3A59441  19.100   0.563   7.023
 4493POPC   C4A59442  19.234   0.174   7.259
 4493POPC   C1B59443  18.705   0.208   6.234
 4493POPC   C2B59444  18.890   0.267   6.653
 4493POPC   C3B59445  18.745   0.203   7.069
 4493POPC   C4B59446  18.779   0.078   7.491
 4494POPC   NC359447   9.870  12.388   5.376
 4494POPC   PO459448   9.533  12.928   5.352
 4494POPC   GL159449   9.533  12.938   5.760
 4494POPC   GL259450   9.603  12.599   5.765
 4494POPC   C1A59451   9.730  12.987   6.156
 4494POPC   D2A59452   9.927  13.112   6.540
 4494POPC   C3A59453   9.680  13.240   6.845
 4494POPC   C4A59454   9.734  13.153   7.247
 4494POPC   C1B59455   9.763  12.469   6.178
 4494POPC   C2B59456   9.817  12.604   6.571
 4494POPC   C3B59457   9.809  12.742   6.946
 4494POPC   C4B59458   9.620  12.660   7.334
 4495POPC   NC359459   3.415  32.463   5.378
 4495POPC   PO459460   3.620  31.800   5.335
 4495POPC   GL159461   3.549  32.085   5.738
 4495POPC   GL259462   3.744  32.397   5.838
 4495POPC   C1A59463   3.315  32.267   6.119
 4495POPC   D2A59464   3.474  32.483   6.527
 4495POPC   C3A59465   3.487  32.296   6.989
 4495POPC   C4A59466   3.598  32.362   7.460
 4495POPC   C1B59467   3.780  32.175   6.268
 4495POPC   C2B59468   4.018  31.841   6.436
 4495POPC   C3B59469   3.959  31.798   6.857
 4495POPC   C4B59470   3.906  32.063   7.202
 4496POPC   NC359471  44.881   6.038   5.092
 4496POPC   PO459472  44.493   5.524   5.398
 4496POPC   GL159473  44.518   5.574   5.839
 4496POPC   GL259474  44.167   5.624   5.853
 4496POPC   C1A59475  44.792   5.842   6.167
 4496POPC   D2A59476  44.929   5.985   6.603
 4496POPC   C3A59477  44.902   5.748   6.998
 4496POPC   C4A59478  44.761   5.865   7.415
 4496POPC   C1B59479  44.272   5.797   6.232
 4496POPC   C2B59480  44.450   5.707   6.638
 4496POPC   C3B59481  44.402   5.913   7.040
 4496POPC   C4B59482  44.271   5.816   7.479
 4497POPC   NC359483  29.475  41.168   5.625
 4497POPC   PO459484  28.967  41.592   5.284
 4497POPC   GL159485  29.127  41.564   5.702
 4497POPC   GL259486  29.001  41.256   5.808
 4497POPC   C1A59487  29.275  41.688   6.136
 4497POPC   D2A59488  29.108  41.655   6.579
 4497POPC   C3A59489  29.223  41.800   6.989
 4497POPC   C4A59490  29.446  41.531   7.214
 4497POPC   C1B59491  28.911  41.337   6.216
 4497POPC   C2B59492  28.811  41.141   6.621
 4497POPC   C3B59493  29.089  41.216   6.948
 4497POPC   C4B59494  28.938  41.453   7.261
 4498POPC   NC359495   1.842  38.793   5.316
 4498POPC   PO459496   2.166  38.184   5.146
 4498POPC   GL159497   2.009  38.241   5.616
 4498POPC   GL259498   2.024  38.556   5.723
 4498POPC   C1A59499   1.744  38.208   6.029
 4498POPC   D2A59500   1.783  38.158   6.502
 4498POPC   C3A59501   2.081  38.386   6.729
 4498POPC   C4A59502   2.032  38.542   7.128
 4498POPC   C1B59503   1.732  38.723   5.996
 4498POPC   C2B59504   1.769  38.692   6.418
 4498POPC   C3B59505   1.820  38.866   6.794
 4498POPC   C4B59506   1.931  39.038   7.171
 4499POPC   NC359507  21.592  25.072   5.439
 4499POPC   PO459508  21.149  25.503   5.411
 4499POPC   GL159509  21.284  25.314   5.776
 4499POPC   GL259510  21.099  25.013   5.835
 4499POPC   C1A59511  21.407  25.463   6.195
 4499POPC   D2A59512  21.204  25.626   6.559
 4499POPC   C3A59513  21.371  25.418   6.894
 4499POPC   C4A59514  21.499  25.434   7.307
 4499POPC   C1B59515  21.478  24.949   6.098
 4499POPC   C2B59516  21.526  25.072   6.526
 4499POPC   C3B59517  21.638  24.954   6.941
 4499POPC   C4B59518  21.946  25.083   7.220
 4500POPC   NC359519   5.650  16.760   5.464
 4500POPC   PO459520   5.048  17.064   5.523
 4500POPC   GL159521   5.078  16.855   5.915
 4500POPC   GL259522   5.318  16.612   5.855
 4500POPC   C1A59523   4.913  16.699   6.311
 4500POPC   D2A59524   4.660  16.734   6.701
 4500POPC   C3A59525   4.954  16.787   7.019
 4500POPC   C4A59526   4.975  16.725   7.452
 4500POPC   C1B59527   5.484  16.663   6.235
 4500POPC   C2B59528   5.348  16.708   6.635
 4500POPC   C3B59529   5.477  16.848   7.007
 4500POPC   C4B59530   5.481  16.641   7.401
 4501POPC   NC359531  22.505   8.428   4.965
 4501POPC   PO459532  22.189   8.575   5.428
 4501POPC   GL159533  22.168   8.533   5.902
 4501POPC   GL259534  22.403   8.263   5.984
 4501POPC   C1A59535  22.066   8.373   6.359
 4501POPC   D2A59536  22.296   8.135   6.713
 4501POPC   C3A59537  22.171   8.284   7.139
 4501POPC   C4A59538  21.817   8.178   7.435
 4501POPC   C1B59539  22.538   8.536   6.338
 4501POPC   C2B59540  22.505   8.578   6.801
 4501POPC   C3B59541  22.688   8.258   7.106
 4501POPC   C4B59542  22.630   8.259   7.589
 4502POPC   NC359543  31.429  17.833   5.221
 4502POPC   PO459544  31.515  17.221   5.533
 4502POPC   GL159545  31.264  17.325   5.895
 4502POPC   GL259546  31.378  17.688   5.963
 4502POPC   C1A59547  31.157  17.431   6.329
 4502POPC   D2A59548  31.391  17.732   6.577
 4502POPC   C3A59549  31.466  17.620   6.989
 4502POPC   C4A59550  31.275  17.267   7.207
 4502POPC   C1B59551  31.711  17.905   6.206
 4502POPC   C2B59552  31.939  17.885   6.598
 4502POPC   C3B59553  31.868  17.992   7.012
 4502POPC   C4B59554  31.841  17.755   7.382
 4503POPC   NC359555  40.160  12.442   5.285
 4503POPC   PO459556  39.833  11.956   5.599
 4503POPC   GL159557  40.113  11.951   5.932
 4503POPC   GL259558  40.338  12.192   5.961
 4503POPC   C1A59559  40.131  12.043   6.395
 4503POPC   D2A59560  39.939  12.186   6.773
 4503POPC   C3A59561  40.091  11.884   7.104
 4503POPC   C4A59562  40.279  11.654   7.477
 4503POPC   C1B59563  40.423  12.455   6.326
 4503POPC   C2B59564  40.386  12.417   6.745
 4503POPC   C3B59565  40.276  12.352   7.134
 4503POPC   C4B59566  40.118  12.639   7.385
 4504POPC   NC359567  38.521  16.340   5.434
 4504POPC   PO459568  38.534  17.013   5.368
 4504POPC   GL159569  38.562  16.830   5.773
 4504POPC   GL259570  38.429  16.504   5.909
 4504POPC   C1A59571  38.452  16.928   6.196
 4504POPC   D2A59572  38.574  16.593   6.461
 4504POPC   C3A59573  38.539  16.611   6.903
 4504POPC   C4A59574  38.644  16.235   7.104
 4504POPC   C1B59575  38.118  16.452   6.264
 4504POPC   C2B59576  38.155  16.306   6.705
 4504POPC   C3B59577  38.117  16.421   7.155
 4504POPC   C4B59578  38.028  16.673   7.535
 4505POPC   NC359579  44.122  34.514   5.239
 4505POPC   PO459580  43.684  34.931   5.107
 4505POPC   GL159581  43.715  34.591   5.532
 4505POPC   GL259582  44.020  34.707   5.740
 4505POPC   C1A59583  43.748  34.381   6.021
 4505POPC   D2A59584  43.976  34.494   6.458
 4505POPC   C3A59585  43.963  34.327   6.910
 4505POPC   C4A59586  43.643  34.357   7.229
 4505POPC   C1B59587  44.235  34.813   6.160
 4505POPC   C2B59588  44.263  34.958   6.623
 4505POPC   C3B59589  44.345  34.773   7.010
 4505POPC   C4B59590  43.980  34.737   7.240
 4506POPC   NC359591  34.932  33.009   5.408
 4506POPC   PO459592  35.398  33.470   5.462
 4506POPC   GL159593  35.323  33.204   5.758
 4506POPC   GL259594  35.629  33.254   5.925
 4506POPC   C1A59595  35.182  33.003   6.119
 4506POPC   D2A59596  35.311  32.877   6.514
 4506POPC   C3A59597  34.994  32.904   6.783
 4506POPC   C4A59598  35.129  32.986   7.174
 4506POPC   C1B59599  35.707  32.897   6.195
 4506POPC   C2B59600  35.826  32.869   6.652
 4506POPC   C3B59601  35.661  32.861   7.063
 4506POPC   C4B59602  35.681  33.204   7.351
 4507POPC   NC359603  33.843  29.080   5.468
 4507POPC   PO459604  33.558  29.645   5.534
 4507POPC   GL159605  33.771  29.406   5.914
 4507POPC   GL259606  34.004  29.133   5.941
 4507POPC   C1A59607  33.932  29.404   6.374
 4507POPC   D2A59608  34.074  29.367   6.818
 4507POPC   C3A59609  33.750  29.411   7.169
 4507POPC   C4A59610  33.567  29.235   7.578
 4507POPC   C1B59611  33.804  28.914   6.282
 4507POPC   C2B59612  33.751  28.968   6.730
 4507POPC   C3B59613  33.870  28.923   7.155
 4507POPC   C4B59614  33.694  28.665   7.506
 4508POPC   NC359615  17.960  26.575   5.428
 4508POPC   PO459616  18.446  27.066   5.451
 4508POPC   GL159617  18.196  26.949   5.804
 4508POPC   GL259618  18.252  26.621   5.861
 4508POPC   C1A59619  18.136  26.939   6.262
 4508POPC   D2A59620  18.436  26.779   6.563
 4508POPC   C3A59621  18.430  26.919   6.983
 4508POPC   C4A59622  18.757  27.039   7.220
 4508POPC   C1B59623  17.933  26.468   6.170
 4508POPC   C2B59624  17.886  26.599   6.626
 4508POPC   C3B59625  18.081  26.563   7.056
 4508POPC   C4B59626  18.013  26.641   7.536
 4509POPC   NC359627  27.007  25.284   5.368
 4509POPC   PO459628  26.354  25.431   5.559
 4509POPC   GL159629  26.589  25.190   5.874
 4509POPC   GL259630  26.950  25.086   5.843
 4509POPC   C1A59631  26.690  25.305   6.293
 4509POPC   D2A59632  26.860  25.505   6.677
 4509POPC   C3A59633  26.575  25.432   7.023
 4509POPC   C4A59634  26.657  25.247   7.423
 4509POPC   C1B59635  27.160  25.126   6.235
 4509POPC   C2B59636  27.095  24.971   6.627
 4509POPC   C3B59637  26.922  25.024   7.020
 4509POPC   C4B59638  27.121  25.040   7.423
 4510POPC   NC359639  29.077  39.557   5.463
 4510POPC   PO459640  29.445  39.032   5.347
 4510POPC   GL159641  29.439  39.009   5.798
 4510POPC   GL259642  29.169  39.222   5.895
 4510POPC   C1A59643  29.422  38.974   6.264
 4510POPC   D2A59644  29.329  38.803   6.682
 4510POPC   C3A59645  29.383  38.991   7.111
 4510POPC   C4A59646  29.191  39.249   7.465
 4510POPC   C1B59647  29.050  39.446   6.303
 4510POPC   C2B59648  28.814  39.628   6.669
 4510POPC   C3B59649  28.734  39.542   7.107
 4510POPC   C4B59650  28.778  39.533   7.551
 4511POPC   NC359651  15.104   8.374   5.077
 4511POPC   PO459652  15.485   8.748   5.391
 4511POPC   GL159653  15.312   8.920   5.828
 4511POPC   GL259654  15.315   9.280   5.883
 4511POPC   C1A59655  15.317   9.014   6.319
 4511POPC   D2A59656  15.167   9.204   6.731
 4511POPC   C3A59657  15.234   8.909   7.114
 4511POPC   C4A59658  15.579   8.600   7.214
 4511POPC   C1B59659  14.941   9.360   6.225
 4511POPC   C2B59660  14.716   9.452   6.676
 4511POPC   C3B59661  14.841   9.310   7.136
 4511POPC   C4B59662  15.264   9.362   7.337
 4512POPC   NC359663  31.345  21.548   5.346
 4512POPC   PO459664  31.339  22.093   5.692
 4512POPC   GL159665  31.181  21.659   5.820
 4512POPC   GL259666  31.480  21.405   5.814
 4512POPC   C1A59667  31.131  21.401   6.206
 4512POPC   D2A59668  31.317  21.404   6.619
 4512POPC   C3A59669  31.235  21.340   7.049
 4512POPC   C4A59670  31.573  21.397   7.348
 4512POPC   C1B59671  31.509  21.031   6.088
 4512POPC   C2B59672  31.453  20.922   6.529
 4512POPC   C3B59673  31.658  21.087   6.904
 4512POPC   C4B59674  31.894  21.004   7.286
 4513POPC   NC359675  30.518  34.264   5.395
 4513POPC   PO459676  31.099  34.585   5.553
 4513POPC   GL159677  30.841  34.754   5.852
 4513POPC   GL259678  30.605  34.492   5.861
 4513POPC   C1A59679  30.849  34.704   6.286
 4513POPC   D2A59680  30.935  34.457   6.614
 4513POPC   C3A59681  30.771  34.705   6.906
 4513POPC   C4A59682  30.796  34.571   7.297
 4513POPC   C1B59683  30.345  34.681   6.192
 4513POPC   C2B59684  30.299  34.623   6.638
 4513POPC   C3B59685  30.293  34.555   7.094
 4513POPC   C4B59686  30.384  34.675   7.557
 4514POPC   NC359687  39.059  12.982   5.514
 4514POPC   PO459688  39.489  12.442   5.427
 4514POPC   GL159689  39.364  12.660   5.790
 4514POPC   GL259690  39.033  12.470   5.785
 4514POPC   C1A59691  39.398  12.926   6.187
 4514POPC   D2A59692  39.538  13.169   6.571
 4514POPC   C3A59693  39.293  13.039   6.839
 4514POPC   C4A59694  39.190  12.879   7.177
 4514POPC   C1B59695  39.247  12.389   6.197
 4514POPC   C2B59696  39.220  12.595   6.584
 4514POPC   C3B59697  39.398  12.460   6.950
 4514POPC   C4B59698  39.264  12.297   7.329
 4515POPC   NC359699  17.460   6.030   5.343
 4515POPC   PO459700  18.006   6.079   5.636
 4515POPC   GL159701  17.615   5.858   5.816
 4515POPC   GL259702  17.290   5.978   5.850
 4515POPC   C1A59703  17.452   5.658   6.220
 4515POPC   D2A59704  17.386   5.790   6.664
 4515POPC   C3A59705  17.571   5.554   6.998
 4515POPC   C4A59706  17.729   5.794   7.309
 4515POPC   C1B59707  17.088   6.019   6.282
 4515POPC   C2B59708  16.982   6.214   6.678
 4515POPC   C3B59709  17.186   6.131   7.045
 4515POPC   C4B59710  17.141   5.736   7.206
 4516POPC   NC359711  23.912  14.240   5.246
 4516POPC   PO459712  23.442  14.755   5.346
 4516POPC   GL159713  23.626  14.461   5.679
 4516POPC   GL259714  23.862  14.660   5.874
 4516POPC   C1A59715  23.710  14.228   6.087
 4516POPC   D2A59716  23.622  14.270   6.523
 4516POPC   C3A59717  23.369  14.032   6.813
 4516POPC   C4A59718  23.373  14.225   7.222
 4516POPC   C1B59719  24.031  14.590   6.303
 4516POPC   C2B59720  24.130  14.300   6.637
 4516POPC   C3B59721  23.858  14.209   6.967
 4516POPC   C4B59722  23.829  14.499   7.263
 4517POPC   NC359723   8.460  22.319   5.448
 4517POPC   PO459724   9.208  22.319   5.330
 4517POPC   GL159725   9.011  22.202   5.716
 4517POPC   GL259726   8.745  21.965   5.680
 4517POPC   C1A59727   9.128  22.053   6.134
 4517POPC   D2A59728   9.097  22.202   6.573
 4517POPC   C3A59729   9.232  21.954   6.940
 4517POPC   C4A59730   9.042  21.967   7.349
 4517POPC   C1B59731   8.618  22.158   6.078
 4517POPC   C2B59732   8.650  21.983   6.489
 4517POPC   C3B59733   8.714  22.078   6.923
 4517POPC   C4B59734   8.545  22.425   7.132
 4518POPC   NC359735  16.086  41.106   5.304
 4518POPC   PO459736  15.812  40.625   5.664
 4518POPC   GL159737  16.119  40.844   5.867
 4518POPC   GL259738  16.361  41.143   5.769
 4518POPC   C1A59739  16.161  40.697   6.277
 4518POPC   D2A59740  16.190  40.419   6.635
 4518POPC   C3A59741  16.002  40.538   7.000
 4518POPC   C4A59742  15.712  40.395   7.277
 4518POPC   C1B59743  16.377  41.162   6.244
 4518POPC   C2B59744  16.114  41.048   6.641
 4518POPC   C3B59745  15.753  40.952   6.893
 4518POPC   C4B59746  15.795  40.898   7.350
 4519POPC   NC359747  27.899  18.288   5.295
 4519POPC   PO459748  27.333  18.285   5.402
 4519POPC   GL159749  27.603  18.250   5.807
 4519POPC   GL259750  27.981  18.213   5.811
 4519POPC   C1A59751  27.624  18.274   6.292
 4519POPC   D2A59752  27.437  18.177   6.728
 4519POPC   C3A59753  27.563  18.354   7.137
 4519POPC   C4A59754  27.674  18.194   7.552
 4519POPC   C1B59755  28.032  17.968   6.223
 4519POPC   C2B59756  27.911  17.967   6.692
 4519POPC   C3B59757  27.949  18.020   7.148
 4519POPC   C4B59758  27.838  17.722   7.501
 4520POPC   NC359759  30.208   7.496   5.104
 4520POPC   PO459760  29.682   7.327   5.441
 4520POPC   GL159761  29.960   7.140   5.736
 4520POPC   GL259762  30.125   7.453   5.810
 4520POPC   C1A59763  29.886   7.217   6.196
 4520POPC   D2A59764  29.952   7.412   6.602
 4520POPC   C3A59765  29.888   7.164   6.971
 4520POPC   C4A59766  29.940   6.868   7.347
 4520POPC   C1B59767  30.289   7.624   6.226
 4520POPC   C2B59768  30.313   7.769   6.680
 4520POPC   C3B59769  30.051   7.656   7.055
 4520POPC   C4B59770  30.128   7.713   7.542
 4521POPC   NC359771  33.944  42.797   5.473
 4521POPC   PO459772  33.597  43.332   5.321
 4521POPC   GL159773  33.577  43.120   5.694
 4521POPC   GL259774  33.924  43.221   5.786
 4521POPC   C1A59775  33.614  42.904   6.093
 4521POPC   D2A59776  33.500  42.924   6.526
 4521POPC   C3A59777  33.604  43.009   6.952
 4521POPC   C4A59778  33.537  43.332   7.246
 4521POPC   C1B59779  33.871  43.306   6.237
 4521POPC   C2B59780  33.990  43.121   6.643
 4521POPC   C3B59781  34.027  43.316   7.069
 4521POPC   C4B59782  34.381  43.451   7.350
 4522POPC   NC359783   5.657  42.764   5.609
 4522POPC   PO459784   5.631  42.241   5.131
 4522POPC   GL159785   5.839  42.281   5.575
 4522POPC   GL259786   5.614  42.234   5.836
 4522POPC   C1A59787   6.144  42.299   5.980
 4522POPC   D2A59788   6.207  42.130   6.436
 4522POPC   C3A59789   6.009  42.237   6.841
 4522POPC   C4A59790   6.150  42.245   7.278
 4522POPC   C1B59791   5.733  42.439   6.245
 4522POPC   C2B59792   5.805  42.822   6.495
 4522POPC   C3B59793   5.902  42.772   6.942
 4522POPC   C4B59794   5.776  42.636   7.386
 4523POPC   NC359795  37.426  27.290   5.522
 4523POPC   PO459796  37.864  27.761   5.394
 4523POPC   GL159797  37.712  27.623   5.785
 4523POPC   GL259798  37.923  27.335   5.807
 4523POPC   C1A59799  37.506  27.468   6.165
 4523POPC   D2A59800  37.648  27.353   6.575
 4523POPC   C3A59801  37.501  27.547   6.921
 4523POPC   C4A59802  37.352  27.359   7.249
 4523POPC   C1B59803  38.035  27.511   6.220
 4523POPC   C2B59804  37.960  27.755   6.611
 4523POPC   C3B59805  38.157  27.616   6.992
 4523POPC   C4B59806  38.344  27.620   7.422
 4524POPC   NC359807  21.125  28.203   5.438
 4524POPC   PO459808  21.781  27.974   5.560
 4524POPC   GL159809  21.478  28.174   5.878
 4524POPC   GL259810  21.094  28.236   5.926
 4524POPC   C1A59811  21.394  28.258   6.330
 4524POPC   D2A59812  21.677  28.255   6.654
 4524POPC   C3A59813  21.584  28.547   6.940
 4524POPC   C4A59814  21.546  28.451   7.346
 4524POPC   C1B59815  20.930  28.505   6.263
 4524POPC   C2B59816  21.114  28.550   6.687
 4524POPC   C3B59817  21.129  28.330   7.069
 4524POPC   C4B59818  21.095  28.287   7.518
 4525POPC   NC359819  29.335  33.597   5.428
 4525POPC   PO459820  28.913  33.147   5.662
 4525POPC   GL159821  29.032  33.545   5.843
 4525POPC   GL259822  29.091  33.942   5.793
 4525POPC   C1A59823  29.198  33.673   6.218
 4525POPC   D2A59824  29.028  33.773   6.617
 4525POPC   C3A59825  29.140  33.735   7.052
 4525POPC   C4A59826  29.062  33.424   7.390
 4525POPC   C1B59827  28.940  34.106   6.226
 4525POPC   C2B59828  28.883  34.255   6.706
 4525POPC   C3B59829  29.102  34.268   7.120
 4525POPC   C4B59830  29.402  34.063   7.368
 4526POPC   NC359831   6.108  34.581   5.507
 4526POPC   PO459832   6.706  34.297   5.571
 4526POPC   GL159833   6.724  34.705   5.785
 4526POPC   GL259834   6.413  34.623   5.906
 4526POPC   C1A59835   6.758  34.747   6.258
 4526POPC   D2A59836   6.756  34.455   6.626
 4526POPC   C3A59837   6.885  34.595   7.034
 4526POPC   C4A59838   7.050  34.769   7.436
 4526POPC   C1B59839   6.332  34.381   6.281
 4526POPC   C2B59840   6.279  34.264   6.695
 4526POPC   C3B59841   6.508  34.226   7.054
 4526POPC   C4B59842   6.319  34.401   7.448
 4527POPC   NC359843  19.415  16.437   5.394
 4527POPC   PO459844  18.813  16.282   5.343
 4527POPC   GL159845  18.843  16.524   5.743
 4527POPC   GL259846  19.168  16.625   5.845
 4527POPC   C1A59847  18.876  16.520   6.238
 4527POPC   D2A59848  19.167  16.485   6.610
 4527POPC   C3A59849  19.012  16.647   6.990
 4527POPC   C4A59850  18.790  16.487   7.332
 4527POPC   C1B59851  19.262  16.866   6.242
 4527POPC   C2B59852  19.387  16.958   6.664
 4527POPC   C3B59853  19.274  17.080   7.090
 4527POPC   C4B59854  18.956  16.950   7.411
 4528POPC   NC359855  43.677  31.879   5.258
 4528POPC   PO459856  43.643  32.487   5.057
 4528POPC   GL159857  43.799  32.317   5.502
 4528POPC   GL259858  43.726  32.555   5.720
 4528POPC   C1A59859  43.863  32.137   5.999
 4528POPC   D2A59860  44.000  32.001   6.476
 4528POPC   C3A59861  43.876  32.158   6.903
 4528POPC   C4A59862  43.894  32.059   7.358
 4528POPC   C1B59863  43.928  32.658   6.088
 4528POPC   C2B59864  43.904  32.504   6.501
 4528POPC   C3B59865  43.746  32.672   6.884
 4528POPC   C4B59866  43.670  32.499   7.259
 4529POPC   NC359867  32.639  16.803   5.432
 4529POPC   PO459868  32.022  16.396   5.444
 4529POPC   GL159869  32.246  16.664   5.772
 4529POPC   GL259870  32.617  16.548   5.853
 4529POPC   C1A59871  32.049  16.844   6.172
 4529POPC   D2A59872  31.786  16.725   6.546
 4529POPC   C3A59873  32.031  16.710   6.935
 4529POPC   C4A59874  32.242  16.987   7.167
 4529POPC   C1B59875  32.569  16.850   6.162
 4529POPC   C2B59876  32.383  16.938   6.555
 4529POPC   C3B59877  32.627  16.837   6.888
 4529POPC   C4B59878  32.587  16.611   7.268
 4530POPC   NC359879   5.612   2.223   5.343
 4530POPC   PO459880   6.046   1.782   5.483
 4530POPC   GL159881   5.676   1.874   5.741
 4530POPC   GL259882   5.814   2.216   5.813
 4530POPC   C1A59883   5.547   1.989   6.184
 4530POPC   D2A59884   5.750   2.151   6.574
 4530POPC   C3A59885   5.670   1.949   6.985
 4530POPC   C4A59886   5.668   2.116   7.400
 4530POPC   C1B59887   6.106   2.050   6.139
 4530POPC   C2B59888   6.207   1.910   6.544
 4530POPC   C3B59889   6.158   2.102   6.903
 4530POPC   C4B59890   6.149   2.021   7.287
 4531POPC   NC359891   5.408  36.358   5.541
 4531POPC   PO459892   5.888  36.899   5.468
 4531POPC   GL159893   5.899  36.656   5.850
 4531POPC   GL259894   6.201  36.818   5.913
 4531POPC   C1A59895   5.768  36.783   6.287
 4531POPC   D2A59896   5.660  37.128   6.574
 4531POPC   C3A59897   5.788  37.002   6.986
 4531POPC   C4A59898   5.954  36.634   7.202
 4531POPC   C1B59899   6.232  36.596   6.275
 4531POPC   C2B59900   6.169  36.752   6.677
 4531POPC   C3B59901   6.301  36.982   6.996
 4531POPC   C4B59902   6.164  37.333   7.191
 4532POPC   NC359903  28.931  31.097   5.380
 4532POPC   PO459904  29.428  31.652   5.486
 4532POPC   GL159905  29.292  31.386   5.792
 4532POPC   GL259906  29.595  31.185   5.867
 4532POPC   C1A59907  29.024  31.473   6.178
 4532POPC   D2A59908  28.837  31.662   6.577
 4532POPC   C3A59909  29.008  31.471   6.972
 4532POPC   C4A59910  29.194  31.102   7.134
 4532POPC   C1B59911  29.552  31.462   6.219
 4532POPC   C2B59912  29.355  31.603   6.578
 4532POPC   C3B59913  29.525  31.466   6.961
 4532POPC   C4B59914  29.389  31.574   7.343
 4533POPC   NC359915  14.625   4.255   5.614
 4533POPC   PO459916  14.149   3.823   5.458
 4533POPC   GL159917  14.228   4.062   5.871
 4533POPC   GL259918  14.293   4.419   5.997
 4533POPC   C1A59919  14.500   4.056   6.260
 4533POPC   D2A59920  14.258   4.178   6.625
 4533POPC   C3A59921  14.504   4.239   6.952
 4533POPC   C4A59922  14.554   4.084   7.348
 4533POPC   C1B59923  14.684   4.554   6.248
 4533POPC   C2B59924  14.857   4.569   6.684
 4533POPC   C3B59925  14.715   4.820   7.024
 4533POPC   C4B59926  14.457   4.609   7.286
 4534POPC   NC359927  10.193  34.485   5.252
 4534POPC   PO459928  10.741  34.888   5.216
 4534POPC   GL159929  10.536  34.804   5.670
 4534POPC   GL259930  10.418  34.444   5.732
 4534POPC   C1A59931  10.600  34.785   6.166
 4534POPC   D2A59932  10.412  34.755   6.623
 4534POPC   C3A59933  10.565  34.813   7.044
 4534POPC   C4A59934  10.342  34.792   7.464
 4534POPC   C1B59935  10.423  34.239   6.131
 4534POPC   C2B59936  10.473  34.184   6.569
 4534POPC   C3B59937  10.474  34.313   6.986
 4534POPC   C4B59938  10.357  34.172   7.389
 4535POPC   NC359939  33.273   3.579   5.457
 4535POPC   PO459940  32.550   3.582   5.565
 4535POPC   GL159941  32.882   3.691   5.827
 4535POPC   GL259942  32.951   3.347   5.833
 4535POPC   C1A59943  33.027   3.772   6.259
 4535POPC   D2A59944  33.152   3.736   6.690
 4535POPC   C3A59945  32.927   3.864   7.062
 4535POPC   C4A59946  32.944   3.642   7.478
 4535POPC   C1B59947  33.101   3.249   6.241
 4535POPC   C2B59948  33.232   3.219   6.664
 4535POPC   C3B59949  33.179   3.383   7.085
 4535POPC   C4B59950  33.153   3.132   7.475
 4536POPC   NC359951  27.538  29.523   5.474
 4536POPC   PO459952  27.339  30.189   5.420
 4536POPC   GL159953  27.463  30.055   5.840
 4536POPC   GL259954  27.783  29.923   5.924
 4536POPC   C1A59955  27.331  30.015   6.257
 4536POPC   D2A59956  27.340  29.805   6.644
 4536POPC   C3A59957  27.446  30.084   6.989
 4536POPC   C4A59958  27.572  30.123   7.403
 4536POPC   C1B59959  28.023  29.831   6.311
 4536POPC   C2B59960  27.862  29.911   6.720
 4536POPC   C3B59961  27.921  29.870   7.169
 4536POPC   C4B59962  28.035  30.084   7.592
 4537POPC   NC359963  43.207  29.668   5.385
 4537POPC   PO459964  43.103  30.322   5.462
 4537POPC   GL159965  43.317  30.085   5.790
 4537POPC   GL259966  43.402  29.733   5.869
 4537POPC   C1A59967  43.103  30.042   6.197
 4537POPC   D2A59968  42.872  30.111   6.558
 4537POPC   C3A59969  43.058  30.072   6.971
 4537POPC   C4A59970  42.820  30.239   7.294
 4537POPC   C1B59971  43.284  29.578   6.254
 4537POPC   C2B59972  43.194  29.706   6.650
 4537POPC   C3B59973  43.348  29.660   7.075
 4537POPC   C4B59974  43.457  29.578   7.483
 4538POPC   NC359975   0.673  41.549   5.134
 4538POPC   PO459976   0.105  41.887   5.332
 4538POPC   GL159977   0.205  41.655   5.693
 4538POPC   GL259978   0.561  41.529   5.657
 4538POPC   C1A59979   0.197  41.427   6.079
 4538POPC   D2A59980   0.406  41.239   6.481
 4538POPC   C3A59981   0.249  41.312   6.919
 4538POPC   C4A59982   0.261  41.565   7.269
 4538POPC   C1B59983   0.702  41.464   6.096
 4538POPC   C2B59984   0.805  41.606   6.547
 4538POPC   C3B59985   0.720  41.522   7.003
 4538POPC   C4B59986   0.779  41.590   7.465
 4539POPC   NC359987  16.385  37.049   5.603
 4539POPC   PO459988  17.067  36.965   5.574
 4539POPC   GL159989  16.801  36.801   5.905
 4539POPC   GL259990  16.567  37.066   6.082
 4539POPC   C1A59991  16.937  36.815   6.331
 4539POPC   D2A59992  16.998  37.212   6.540
 4539POPC   C3A59993  16.922  37.126   6.963
 4539POPC   C4A59994  16.905  36.720   7.134
 4539POPC   C1B59995  16.327  36.674   6.212
 4539POPC   C2B59996  16.106  36.501   6.580
 4539POPC   C3B59997  16.275  36.634   6.967
 4539POPC   C4B59998  16.469  36.979   7.177
 4540POPC   NC359999  41.739  21.521   5.361
 4540POPC   PO460000  41.574  20.950   5.758
 4540POPC   GL160001  41.518  21.411   5.885
 4540POPC   GL260002  41.828  21.643   5.871
 4540POPC   C1A60003  41.323  21.440   6.312
 4540POPC   D2A60004  41.118  21.207   6.672
 4540POPC   C3A60005  41.328  21.260   7.059
 4540POPC   C4A60006  41.377  21.633   7.256
 4540POPC   C1B60007  41.827  21.566   6.326
 4540POPC   C2B60008  41.962  21.465   6.748
 4540POPC   C3B60009  41.846  21.472   7.181
 4540POPC   C4B60010  41.693  21.453   7.596
 4541POPC   NC360011   7.012  43.142   5.077
 4541POPC   PO460012   7.449  43.151   5.499
 4541POPC   GL160013   7.390  43.047   5.880
 4541POPC   GL260014   7.039  42.982   5.809
 4541POPC   C1A60015   7.555  43.125   6.267
 4541POPC   D2A60016   7.447  43.240   6.687
 4541POPC   C3A60017   7.704  43.360   6.992
 4541POPC   C4A60018   7.621  43.108   7.297
 4541POPC   C1B60019   7.135  42.814   6.237
 4541POPC   C2B60020   7.243  42.779   6.671
 4541POPC   C3B60021   7.195  42.835   7.134
 4541POPC   C4B60022   7.071  42.694   7.586
 4542POPC   NC360023  38.191  22.428   5.481
 4542POPC   PO460024  38.809  22.139   5.446
 4542POPC   GL160025  38.612  21.902   5.810
 4542POPC   GL260026  38.248  21.839   5.711
 4542POPC   C1A60027  38.605  22.072   6.232
 4542POPC   D2A60028  38.513  22.387   6.520
 4542POPC   C3A60029  38.499  22.212   6.911
 4542POPC   C4A60030  38.345  22.449   7.259
 4542POPC   C1B60031  38.118  21.962   6.132
 4542POPC   C2B60032  38.193  21.943   6.575
 4542POPC   C3B60033  37.999  22.113   6.957
 4542POPC   C4B60034  38.225  21.951   7.263
 4543POPC   NC360035  44.634  32.799   5.512
 4543POPC   PO460036  44.754  33.431   5.437
 4543POPC   GL160037  44.592  33.202   5.830
 4543POPC   GL260038  44.260  32.989   5.793
 4543POPC   C1A60039  44.826  33.092   6.208
 4543POPC   D2A60040   0.006  33.212   6.622
 4543POPC   C3A60041  44.871  33.023   7.040
 4543POPC   C4A60042  44.506  33.076   7.286
 4543POPC   C1B60043  44.381  32.840   6.216
 4543POPC   C2B60044  44.548  32.912   6.624
 4543POPC   C3B60045  44.546  32.635   6.981
 4543POPC   C4B60046  44.781  32.546   7.322
 4544POPC   NC360047   5.603  35.904   5.011
 4544POPC   PO460048   6.151  36.002   5.375
 4544POPC   GL160049   5.926  36.059   5.795
 4544POPC   GL260050   5.545  35.993   5.884
 4544POPC   C1A60051   5.924  36.107   6.250
 4544POPC   D2A60052   5.899  36.331   6.623
 4544POPC   C3A60053   6.133  36.201   6.991
 4544POPC   C4A60054   6.015  36.091   7.397
 4544POPC   C1B60055   5.465  36.371   6.191
 4544POPC   C2B60056   5.430  36.562   6.628
 4544POPC   C3B60057   5.547  36.321   7.012
 4544POPC   C4B60058   5.581  36.346   7.489
 4545POPC   NC360059  32.073  34.351   5.328
 4545POPC   PO460060  32.166  34.948   5.561
 4545POPC   GL160061  32.290  34.588   5.822
 4545POPC   GL260062  32.603  34.680   6.016
 4545POPC   C1A60063  32.306  34.348   6.234
 4545POPC   D2A60064  32.218  34.502   6.630
 4545POPC   C3A60065  32.543  34.445   6.926
 4545POPC   C4A60066  32.757  34.209   7.248
 4545POPC   C1B60067  32.254  34.895   6.241
 4545POPC   C2B60068  31.963  34.973   6.524
 4545POPC   C3B60069  32.122  34.914   6.900
 4545POPC   C4B60070  32.191  34.642   7.226
 4546POPC   NC360071  39.971  39.280   5.340
 4546POPC   PO460072  39.858  38.731   5.679
 4546POPC   GL160073  39.922  39.177   5.830
 4546POPC   GL260074  40.302  39.288   5.758
 4546POPC   C1A60075  39.911  39.315   6.234
 4546POPC   D2A60076  40.218  39.140   6.528
 4546POPC   C3A60077  39.964  38.919   6.823
 4546POPC   C4A60078  39.866  39.050   7.238
 4546POPC   C1B60079  40.368  39.506   6.168
 4546POPC   C2B60080  40.152  39.660   6.532
 4546POPC   C3B60081  39.992  39.432   6.897
 4546POPC   C4B60082  40.151  39.487   7.302
 4547POPC   NC360083  31.137  35.040   5.513
 4547POPC   PO460084  30.558  35.426   5.465
 4547POPC   GL160085  30.589  35.599   5.899
 4547POPC   GL260086  30.948  35.608   5.977
 4547POPC   C1A60087  30.518  35.491   6.355
 4547POPC   D2A60088  30.514  35.066   6.524
 4547POPC   C3A60089  30.343  35.081   6.929
 4547POPC   C4A60090  30.382  35.516   7.123
 4547POPC   C1B60091  30.882  35.199   6.142
 4547POPC   C2B60092  31.003  35.119   6.576
 4547POPC   C3B60093  30.818  35.308   6.901
 4547POPC   C4B60094  30.755  35.098   7.248
 4548POPC   NC360095   4.013  20.351   5.526
 4548POPC   PO460096   4.423  20.764   5.282
 4548POPC   GL160097   4.469  20.568   5.697
 4548POPC   GL260098   4.176  20.688   5.845
 4548POPC   C1A60099   4.565  20.692   6.158
 4548POPC   D2A60100   4.351  20.640   6.548
 4548POPC   C3A60101   4.516  20.650   6.939
 4548POPC   C4A60102   4.696  20.574   7.319
 4548POPC   C1B60103   4.085  20.909   6.193
 4548POPC   C2B60104   3.902  20.880   6.574
 4548POPC   C3B60105   4.004  20.762   6.956
 4548POPC   C4B60106   4.206  20.734   7.367
 4549POPC   NC360107  31.767  20.775   5.390
 4549POPC   PO460108  31.314  20.296   5.264
 4549POPC   GL160109  31.391  20.346   5.743
 4549POPC   GL260110  31.720  20.372   5.797
 4549POPC   C1A60111  31.365  20.545   6.192
 4549POPC   D2A60112  31.106  20.494   6.581
 4549POPC   C3A60113  31.233  20.560   7.025
 4549POPC   C4A60114  31.365  20.906   7.301
 4549POPC   C1B60115  31.865  20.451   6.194
 4549POPC   C2B60116  31.894  20.700   6.586
 4549POPC   C3B60117  31.768  20.600   7.004
 4549POPC   C4B60118  31.630  20.490   7.415
 4550POPC   NC360119  19.490  11.367   5.584
 4550POPC   PO460120  20.105  11.203   5.465
 4550POPC   GL160121  19.902  11.224   5.877
 4550POPC   GL260122  19.618  10.995   5.909
 4550POPC   C1A60123  19.967  11.452   6.263
 4550POPC   D2A60124  20.230  11.357   6.609
 4550POPC   C3A60125  20.118  11.455   7.003
 4550POPC   C4A60126  20.009  11.453   7.450
 4550POPC   C1B60127  19.630  11.075   6.338
 4550POPC   C2B60128  19.710  11.290   6.716
 4550POPC   C3B60129  19.710  11.171   7.134
 4550POPC   C4B60130  19.412  10.976   7.404
 4551POPC   NC360131  38.877  36.587   5.436
 4551POPC   PO460132  39.540  36.847   5.306
 4551POPC   GL160133  39.420  36.781   5.764
 4551POPC   GL260134  39.053  36.792   5.910
 4551POPC   C1A60135  39.460  36.839   6.221
 4551POPC   D2A60136  39.157  36.878   6.560
 4551POPC   C3A60137  39.377  36.859   6.960
 4551POPC   C4A60138  39.228  36.826   7.395
 4551POPC   C1B60139  38.866  37.144   6.196
 4551POPC   C2B60140  38.957  37.357   6.599
 4551POPC   C3B60141  39.061  37.241   7.018
 4551POPC   C4B60142  38.874  37.184   7.443
 4552POPC   NC360143  28.543  27.796   5.287
 4552POPC   PO460144  27.885  27.998   5.428
 4552POPC   GL160145  28.217  27.974   5.792
 4552POPC   GL260146  28.595  27.986   5.761
 4552POPC   C1A60147  28.153  27.839   6.241
 4552POPC   D2A60148  28.234  27.465   6.525
 4552POPC   C3A60149  28.156  27.498   6.973
 4552POPC   C4A60150  28.211  27.862   7.153
 4552POPC   C1B60151  28.586  27.634   6.083
 4552POPC   C2B60152  28.712  27.651   6.540
 4552POPC   C3B60153  28.671  27.702   6.986
 4552POPC   C4B60154  28.541  27.538   7.402
 4553POPC   NC360155   1.166  33.443   5.341
 4553POPC   PO460156   1.541  33.993   5.271
 4553POPC   GL160157   1.442  33.700   5.658
 4553POPC   GL260158   1.077  33.674   5.815
 4553POPC   C1A60159   1.470  33.507   6.078
 4553POPC   D2A60160   1.244  33.448   6.462
 4553POPC   C3A60161   1.373  33.479   6.893
 4553POPC   C4A60162   1.076  33.734   7.085
 4553POPC   C1B60163   0.927  33.817   6.258
 4553POPC   C2B60164   1.081  34.133   6.587
 4553POPC   C3B60165   1.065  34.234   7.041
 4553POPC   C4B60166   0.745  34.046   7.345
 4554POPC   NC360167  20.991  29.192   5.505
 4554POPC   PO460168  20.357  29.000   5.366
 4554POPC   GL160169  20.608  29.022   5.804
 4554POPC   GL260170  20.815  29.354   5.934
 4554POPC   C1A60171  20.680  29.028   6.276
 4554POPC   D2A60172  20.391  29.291   6.527
 4554POPC   C3A60173  20.321  29.164   6.958
 4554POPC   C4A60174  20.446  28.900   7.309
 4554POPC   C1B60175  21.109  29.328   6.294
 4554POPC   C2B60176  21.043  29.064   6.666
 4554POPC   C3B60177  20.864  29.179   7.066
 4554POPC   C4B60178  20.944  29.609   7.186
 4555POPC   NC360179  31.071   2.645   5.592
 4555POPC   PO460180  31.632   2.396   5.445
 4555POPC   GL160181  31.555   2.675   5.817
 4555POPC   GL260182  31.516   3.020   5.713
 4555POPC   C1A60183  31.562   2.642   6.277
 4555POPC   D2A60184  31.521   2.349   6.642
 4555POPC   C3A60185  31.403   2.524   7.026
 4555POPC   C4A60186  31.746   2.479   7.324
 4555POPC   C1B60187  31.376   3.122   6.144
 4555POPC   C2B60188  31.470   3.055   6.575
 4555POPC   C3B60189  31.611   3.231   6.950
 4555POPC   C4B60190  31.511   2.966   7.261
 4556POPC   NC360191  14.267  12.625   5.219
 4556POPC   PO460192  14.579  13.138   5.512
 4556POPC   GL160193  14.367  12.898   5.792
 4556POPC   GL260194  14.513  12.558   5.702
 4556POPC   C1A60195  14.238  12.856   6.249
 4556POPC   D2A60196  14.270  12.986   6.684
 4556POPC   C3A60197  14.458  12.840   7.062
 4556POPC   C4A60198  14.523  13.066   7.465
 4556POPC   C1B60199  14.745  12.738   6.101
 4556POPC   C2B60200  14.774  12.732   6.581
 4556POPC   C3B60201  14.744  12.428   6.939
 4556POPC   C4B60202  14.605  12.451   7.374
 4557POPC   NC360203   8.988   0.658   5.409
 4557POPC   PO460204   8.500   0.151   5.511
 4557POPC   GL160205   8.837   0.299   5.832
 4557POPC   GL260206   8.823   0.661   5.888
 4557POPC   C1A60207   8.787   0.367   6.309
 4557POPC   D2A60208   8.647   0.656   6.668
 4557POPC   C3A60209   8.703   0.491   7.090
 4557POPC   C4A60210   8.908   0.106   7.173
 4557POPC   C1B60211   9.219   0.580   6.124
 4557POPC   C2B60212   9.148   0.654   6.565
 4557POPC   C3B60213   9.215   0.510   6.991
 4557POPC   C4B60214   9.248   0.705   7.391
 4558POPC   NC360215   6.094  41.483   5.363
 4558POPC   PO460216   5.447  41.630   5.568
 4558POPC   GL160217   5.793  41.592   5.796
 4558POPC   GL260218   6.048  41.843   5.746
 4558POPC   C1A60219   6.134  41.452   6.054
 4558POPC   D2A60220   6.162  41.374   6.474
 4558POPC   C3A60221   5.792  41.258   6.708
 4558POPC   C4A60222   5.829  41.311   7.137
 4558POPC   C1B60223   5.835  41.915   6.167
 4558POPC   C2B60224   5.837  41.766   6.586
 4558POPC   C3B60225   6.103  41.711   6.938
 4558POPC   C4B60226   5.908  41.782   7.326
 4559POPC   NC360227  23.477  26.817   5.326
 4559POPC   PO460228  24.144  26.648   5.506
 4559POPC   GL160229  23.834  26.929   5.763
 4559POPC   GL260230  23.453  26.891   5.825
 4559POPC   C1A60231  23.791  26.940   6.227
 4559POPC   D2A60232  23.997  26.749   6.591
 4559POPC   C3A60233  23.773  26.871   6.967
 4559POPC   C4A60234  23.480  27.052   7.272
 4559POPC   C1B60235  23.382  26.616   6.174
 4559POPC   C2B60236  23.509  26.548   6.611
 4559POPC   C3B60237  23.424  26.510   7.050
 4559POPC   C4B60238  23.403  26.553   7.505
 4560POPC   NC360239  26.694   7.103   5.717
 4560POPC   PO460240  27.232   6.802   5.521
 4560POPC   GL160241  27.123   6.879   5.979
 4560POPC   GL260242  26.961   7.200   6.125
 4560POPC   C1A60243  27.121   6.828   6.443
 4560POPC   D2A60244  26.944   6.986   6.829
 4560POPC   C3A60245  26.965   6.684   7.140
 4560POPC   C4A60246  27.140   6.258   7.211
 4560POPC   C1B60247  26.643   7.048   6.410
 4560POPC   C2B60248  26.386   6.983   6.785
 4560POPC   C3B60249  26.433   6.748   7.175
 4560POPC   C4B60250  26.667   6.816   7.530
 4561POPC   NC360251  30.838   2.030   5.490
 4561POPC   PO460252  30.257   1.675   5.284
 4561POPC   GL160253  30.434   1.764   5.725
 4561POPC   GL260254  30.465   2.110   5.889
 4561POPC   C1A60255  30.673   1.755   6.144
 4561POPC   D2A60256  30.563   1.998   6.496
 4561POPC   C3A60257  30.703   1.754   6.821
 4561POPC   C4A60258  30.768   1.844   7.229
 4561POPC   C1B60259  30.869   2.241   6.148
 4561POPC   C2B60260  31.004   2.359   6.569
 4561POPC   C3B60261  30.723   2.273   6.920
 4561POPC   C4B60262  30.729   2.367   7.325
 4562POPC   NC360263  22.373  25.680   5.306
 4562POPC   PO460264  22.057  25.085   5.372
 4562POPC   GL160265  22.004  25.220   5.782
 4562POPC   GL260266  22.306  25.058   5.821
 4562POPC   C1A60267  21.903  25.288   6.224
 4562POPC   D2A60268  22.020  25.191   6.643
 4562POPC   C3A60269  21.867  25.494   6.890
 4562POPC   C4A60270  21.982  25.590   7.269
 4562POPC   C1B60271  22.406  25.341   6.133
 4562POPC   C2B60272  22.500  25.348   6.543
 4562POPC   C3B60273  22.374  25.514   6.897
 4562POPC   C4B60274  22.487  25.482   7.277
 4563POPC   NC360275  21.827   9.385   5.383
 4563POPC   PO460276  21.287   9.794   5.373
 4563POPC   GL160277  21.354   9.812   5.802
 4563POPC   GL260278  21.008   9.740   5.820
 4563POPC   C1A60279  21.518   9.731   6.233
 4563POPC   D2A60280  21.830   9.839   6.552
 4563POPC   C3A60281  21.727   9.766   6.964
 4563POPC   C4A60282  21.564  10.106   7.182
 4563POPC   C1B60283  20.996   9.783   6.250
 4563POPC   C2B60284  21.173   9.684   6.653
 4563POPC   C3B60285  21.256   9.640   7.108
 4563POPC   C4B60286  21.177   9.932   7.451
 4564POPC   NC360287  36.501  42.505   5.254
 4564POPC   PO460288  35.886  42.526   5.406
 4564POPC   GL160289  36.006  42.298   5.781
 4564POPC   GL260290  36.112  41.972   5.665
 4564POPC   C1A60291  36.124  42.441   6.217
 4564POPC   D2A60292  36.460  42.325   6.535
 4564POPC   C3A60293  36.325  42.474   6.952
 4564POPC   C4A60294  36.127  42.746   7.308
 4564POPC   C1B60295  36.212  41.952   6.115
 4564POPC   C2B60296  36.038  42.038   6.528
 4564POPC   C3B60297  35.978  42.019   6.954
 4564POPC   C4B60298  36.105  42.242   7.336
 4565POPC   NC360299  35.861  11.934   5.422
 4565POPC   PO460300  36.474  12.075   5.401
 4565POPC   GL160301  36.206  12.092   5.790
 4565POPC   GL260302  35.910  12.307   5.805
 4565POPC   C1A60303  36.156  12.024   6.226
 4565POPC   D2A60304  36.025  11.861   6.599
 4565POPC   C3A60305  36.200  11.981   6.941
 4565POPC   C4A60306  36.280  11.754   7.295
 4565POPC   C1B60307  35.677  12.332   6.216
 4565POPC   C2B60308  35.537  12.136   6.598
 4565POPC   C3B60309  35.707  12.124   6.984
 4565POPC   C4B60310  35.924  12.179   7.352
 4566POPC   NC360311  28.805  34.381   5.454
 4566POPC   PO460312  28.281  34.758   5.268
 4566POPC   GL160313  28.314  34.829   5.708
 4566POPC   GL260314  28.054  34.644   5.851
 4566POPC   C1A60315  28.526  34.605   6.040
 4566POPC   D2A60316  28.516  34.336   6.355
 4566POPC   C3A60317  28.354  34.376   6.751
 4566POPC   C4A60318  28.462  34.472   7.171
 4566POPC   C1B60319  28.014  34.419   6.254
 4566POPC   C2B60320  27.806  34.439   6.662
 4566POPC   C3B60321  27.968  34.348   7.081
 4566POPC   C4B60322  28.079  34.546   7.511
 4567POPC   NC360323  16.251   1.527   5.495
 4567POPC   PO460324  15.654   1.396   5.404
 4567POPC   GL160325  15.909   1.241   5.775
 4567POPC   GL260326  16.088   0.926   5.892
 4567POPC   C1A60327  15.933   1.302   6.230
 4567POPC   D2A60328  15.681   1.357   6.606
 4567POPC   C3A60329  15.922   1.400   6.948
 4567POPC   C4A60330  16.034   1.557   7.330
 4567POPC   C1B60331  16.014   0.784   6.267
 4567POPC   C2B60332  16.060   0.975   6.644
 4567POPC   C3B60333  16.139   0.943   7.054
 4567POPC   C4B60334  15.940   1.047   7.410
 4568POPC   NC360335   0.135  31.274   5.146
 4568POPC   PO460336  44.670  31.644   5.508
 4568POPC   GL160337  44.804  31.412   5.845
 4568POPC   GL260338  44.499  31.346   5.990
 4568POPC   C1A60339  44.959  31.412   6.262
 4568POPC   D2A60340  44.664  31.359   6.552
 4568POPC   C3A60341  44.779  31.201   6.941
 4568POPC   C4A60342  44.455  31.266   7.221
 4568POPC   C1B60343  44.612  31.781   6.170
 4568POPC   C2B60344  44.789  31.870   6.562
 4568POPC   C3B60345  44.635  31.700   6.947
 4568POPC   C4B60346  44.339  31.761   7.283
 4569POPC   NC360347  42.580  33.991   5.351
 4569POPC   PO460348  41.952  33.758   5.128
 4569POPC   GL160349  42.059  33.862   5.607
 4569POPC   GL260350  42.380  33.747   5.740
 4569POPC   C1A60351  42.014  33.925   6.077
 4569POPC   D2A60352  41.973  34.137   6.507
 4569POPC   C3A60353  41.984  33.916   6.873
 4569POPC   C4A60354  42.066  34.001   7.282
 4569POPC   C1B60355  42.461  33.664   6.170
 4569POPC   C2B60356  42.417  33.887   6.561
 4569POPC   C3B60357  42.475  33.813   6.988
 4569POPC   C4B60358  42.329  33.511   7.263
 4570POPC   NC360359  38.739  23.264   5.505
 4570POPC   PO460360  38.171  22.909   5.434
 4570POPC   GL160361  38.390  22.957   5.794
 4570POPC   GL260362  38.289  23.304   5.775
 4570POPC   C1A60363  38.641  22.774   6.161
 4570POPC   D2A60364  38.799  22.876   6.584
 4570POPC   C3A60365  38.645  22.703   6.918
 4570POPC   C4A60366  38.189  22.695   6.844
 4570POPC   C1B60367  38.528  23.277   6.156
 4570POPC   C2B60368  38.457  23.315   6.571
 4570POPC   C3B60369  38.581  23.300   6.984
 4570POPC   C4B60370  38.436  22.980   7.269
 4571POPC   NC360371   1.779  19.388   5.362
 4571POPC   PO460372   2.087  20.023   5.201
 4571POPC   GL160373   2.149  19.747   5.549
 4571POPC   GL260374   1.824  19.767   5.713
 4571POPC   C1A60375   2.240  19.692   5.989
 4571POPC   D2A60376   2.370  19.587   6.412
 4571POPC   C3A60377   2.186  19.769   6.784
 4571POPC   C4A60378   2.389  19.779   7.152
 4571POPC   C1B60379   1.759  19.749   6.163
 4571POPC   C2B60380   1.723  19.962   6.533
 4571POPC   C3B60381   1.629  19.774   6.897
 4571POPC   C4B60382   1.898  19.566   7.200
 4572POPC   NC360383  34.622  15.625   5.583
 4572POPC   PO460384  34.322  16.126   5.509
 4572POPC   GL160385  34.425  16.031   5.887
 4572POPC   GL260386  34.210  15.787   5.909
 4572POPC   C1A60387  34.279  16.173   6.272
 4572POPC   D2A60388  34.287  16.088   6.702
 4572POPC   C3A60389  34.668  15.960   6.929
 4572POPC   C4A60390  34.946  16.210   7.223
 4572POPC   C1B60391  34.112  15.685   6.336
 4572POPC   C2B60392  34.314  15.582   6.719
 4572POPC   C3B60393  34.203  15.726   7.109
 4572POPC   C4B60394  34.276  16.132   7.215
 4573POPC   NC360395  37.278  38.151   5.373
 4573POPC   PO460396  37.897  38.262   5.277
 4573POPC   GL160397  37.908  38.254   5.757
 4573POPC   GL260398  37.890  38.623   5.871
 4573POPC   C1A60399  37.878  38.232   6.221
 4573POPC   D2A60400  37.802  38.565   6.547
 4573POPC   C3A60401  37.615  38.490   6.949
 4573POPC   C4A60402  37.701  38.602   7.386
 4573POPC   C1B60403  37.517  38.807   6.172
 4573POPC   C2B60404  37.234  38.751   6.524
 4573POPC   C3B60405  37.173  38.742   6.970
 4573POPC   C4B60406  37.383  38.984   7.270
 4574POPC   NC360407   9.980  37.442   5.334
 4574POPC   PO460408   9.441  37.896   5.470
 4574POPC   GL160409   9.688  37.759   5.866
 4574POPC   GL260410   9.937  37.503   5.862
 4574POPC   C1A60411   9.700  37.583   6.331
 4574POPC   D2A60412   9.658  37.356   6.755
 4574POPC   C3A60413   9.702  37.679   7.077
 4574POPC   C4A60414   9.907  38.023   7.295
 4574POPC   C1B60415  10.195  37.496   6.261
 4574POPC   C2B60416  10.181  37.297   6.665
 4574POPC   C3B60417  10.117  37.359   7.109
 4574POPC   C4B60418  10.160  37.103   7.511
 4575POPC   NC360419  28.326   7.714   5.177
 4575POPC   PO460420  28.134   7.219   5.630
 4575POPC   GL160421  28.354   7.316   5.931
 4575POPC   GL260422  28.337   7.001   6.069
 4575POPC   C1A60423  28.391   7.598   6.234
 4575POPC   D2A60424  28.138   7.626   6.605
 4575POPC   C3A60425  28.291   7.739   6.960
 4575POPC   C4A60426  28.226   7.627   7.344
 4575POPC   C1B60427  28.279   7.152   6.448
 4575POPC   C2B60428  28.592   7.377   6.671
 4575POPC   C3B60429  28.571   7.102   6.995
 4575POPC   C4B60430  28.252   7.118   7.282
 4576POPC   NC360431   2.055  31.485   5.396
 4576POPC   PO460432   1.375  31.641   5.470
 4576POPC   GL160433   1.755  31.560   5.804
 4576POPC   GL260434   2.116  31.628   5.871
 4576POPC   C1A60435   1.880  31.338   6.211
 4576POPC   D2A60436   2.157  31.265   6.590
 4576POPC   C3A60437   2.001  31.285   7.034
 4576POPC   C4A60438   1.720  31.196   7.371
 4576POPC   C1B60439   2.127  31.774   6.272
 4576POPC   C2B60440   2.321  31.774   6.638
 4576POPC   C3B60441   2.118  31.785   6.980
 4576POPC   C4B60442   2.181  31.708   7.338
 4577POPC   NC360443   6.889  12.027   5.431
 4577POPC   PO460444   6.277  11.861   5.614
 4577POPC   GL160445   6.550  12.126   5.806
 4577POPC   GL260446   6.734  11.905   5.951
 4577POPC   C1A60447   6.636  12.326   6.247
 4577POPC   D2A60448   6.549  12.350   6.731
 4577POPC   C3A60449   6.846  12.391   7.109
 4577POPC   C4A60450   6.902  12.352   7.574
 4577POPC   C1B60451   7.046  11.976   6.303
 4577POPC   C2B60452   6.985  12.006   6.762
 4577POPC   C3B60453   6.622  11.936   7.039
 4577POPC   C4B60454   6.429  11.547   7.130
 4578POPC   NC360455  25.118  30.017   5.601
 4578POPC   PO460456  25.795  29.766   5.497
 4578POPC   GL160457  25.536  29.631   5.860
 4578POPC   GL260458  25.515  29.990   5.909
 4578POPC   C1A60459  25.347  29.693   6.300
 4578POPC   D2A60460  25.006  29.888   6.578
 4578POPC   C3A60461  25.109  29.946   7.015
 4578POPC   C4A60462  25.458  29.804   7.312
 4578POPC   C1B60463  25.485  30.208   6.283
 4578POPC   C2B60464  25.322  30.327   6.676
 4578POPC   C3B60465  25.498  30.300   7.082
 4578POPC   C4B60466  25.691  30.323   7.511
 4579POPC   NC360467  19.615   1.581   5.174
 4579POPC   PO460468  19.988   1.986   5.533
 4579POPC   GL160469  19.664   1.902   5.853
 4579POPC   GL260470  19.516   2.205   6.009
 4579POPC   C1A60471  19.724   1.831   6.306
 4579POPC   D2A60472  19.711   1.958   6.731
 4579POPC   C3A60473  19.795   1.682   7.058
 4579POPC   C4A60474  19.549   1.738   7.440
 4579POPC   C1B60475  19.839   2.347   6.342
 4579POPC   C2B60476  19.947   2.390   6.812
 4579POPC   C3B60477  19.792   2.170   7.213
 4579POPC   C4B60478  19.969   2.197   7.628
 4580POPC   NC360479   1.081   0.964   5.500
 4580POPC   PO460480   1.580   1.308   5.615
 4580POPC   GL160481   1.160   1.368   5.857
 4580POPC   GL260482   1.132   1.016   5.999
 4580POPC   C1A60483   1.060   1.398   6.314
 4580POPC   D2A60484   1.322   1.441   6.689
 4580POPC   C3A60485   1.139   1.406   7.097
 4580POPC   C4A60486   1.252   1.587   7.473
 4580POPC   C1B60487   1.449   1.049   6.340
 4580POPC   C2B60488   1.261   0.907   6.714
 4580POPC   C3B60489   1.300   0.928   7.131
 4580POPC   C4B60490   0.981   1.013   7.429
 4581POPC   NC360491  37.114  21.151   5.169
 4581POPC   PO460492  36.729  20.798   5.584
 4581POPC   GL160493  37.048  20.634   5.805
 4581POPC   GL260494  37.022  20.275   5.710
 4581POPC   C1A60495  37.021  20.721   6.243
 4581POPC   D2A60496  37.008  20.812   6.686
 4581POPC   C3A60497  36.691  20.719   6.985
 4581POPC   C4A60498  36.735  20.882   7.417
 4581POPC   C1B60499  36.681  20.300   6.041
 4581POPC   C2B60500  36.805  20.323   6.489
 4581POPC   C3B60501  37.037  20.330   6.882
 4581POPC   C4B60502  36.956  20.429   7.335
 4582POPC   NC360503  42.526   5.669   5.480
 4582POPC   PO460504  41.875   5.547   5.385
 4582POPC   GL160505  42.088   5.703   5.792
 4582POPC   GL260506  42.026   6.051   5.929
 4582POPC   C1A60507  42.271   5.713   6.240
 4582POPC   D2A60508  42.323   5.521   6.688
 4582POPC   C3A60509  42.548   5.723   7.068
 4582POPC   C4A60510  42.483   5.745   7.526
 4582POPC   C1B60511  41.986   6.146   6.371
 4582POPC   C2B60512  41.847   6.178   6.801
 4582POPC   C3B60513  41.879   6.324   7.230
 4582POPC   C4B60514  42.230   6.174   7.509
 4583POPC   NC360515  15.680  31.203   5.363
 4583POPC   PO460516  16.088  31.800   5.344
 4583POPC   GL160517  16.038  31.431   5.670
 4583POPC   GL260518  15.725  31.510   5.773
 4583POPC   C1A60519  15.965  31.184   6.095
 4583POPC   D2A60520  16.188  31.347   6.490
 4583POPC   C3A60521  16.090  31.351   6.907
 4583POPC   C4A60522  16.013  31.299   7.327
 4583POPC   C1B60523  15.506  31.432   6.167
 4583POPC   C2B60524  15.635  31.420   6.592
 4583POPC   C3B60525  15.578  31.397   7.038
 4583POPC   C4B60526  15.551  31.536   7.485
 4584POPC   NC360527  11.169  40.067   5.218
 4584POPC   PO460528  11.701  39.713   5.336
 4584POPC   GL160529  11.417  39.835   5.672
 4584POPC   GL260530  11.059  39.729   5.632
 4584POPC   C1A60531  11.542  39.886   6.117
 4584POPC   D2A60532  11.364  40.132   6.453
 4584POPC   C3A60533  11.540  40.024   6.841
 4584POPC   C4A60534  11.390  40.228   7.182
 4584POPC   C1B60535  11.035  39.958   6.045
 4584POPC   C2B60536  10.915  39.900   6.504
 4584POPC   C3B60537  10.908  40.063   6.904
 4584POPC   C4B60538  10.919  39.985   7.318
 4585POPC   NC360539  41.860   6.024   5.445
 4585POPC   PO460540  41.260   5.852   5.341
 4585POPC   GL160541  41.526   5.756   5.727
 4585POPC   GL260542  41.512   6.057   5.856
 4585POPC   C1A60543  41.734   5.721   6.176
 4585POPC   D2A60544  41.787   5.453   6.540
 4585POPC   C3A60545  41.865   5.679   6.925
 4585POPC   C4A60546  41.906   5.822   7.341
 4585POPC   C1B60547  41.466   6.174   6.284
 4585POPC   C2B60548  41.439   5.896   6.626
 4585POPC   C3B60549  41.429   5.934   7.066
 4585POPC   C4B60550  41.471   6.023   7.479
 4586POPC   NC360551  15.857  39.706   5.457
 4586POPC   PO460552  16.202  39.088   5.540
 4586POPC   GL160553  15.895  39.024   5.870
 4586POPC   GL260554  16.109  39.231   6.064
 4586POPC   C1A60555  15.771  38.912   6.287
 4586POPC   D2A60556  15.921  39.236   6.566
 4586POPC   C3A60557  16.044  39.181   6.996
 4586POPC   C4A60558  15.853  38.995   7.346
 4586POPC   C1B60559  15.683  39.430   6.135
 4586POPC   C2B60560  15.522  39.599   6.523
 4586POPC   C3B60561  15.763  39.602   6.896
 4586POPC   C4B60562  15.788  39.687   7.304
 4587POPC   NC360563   6.245  30.570   5.300
 4587POPC   PO460564   5.815  31.023   5.475
 4587POPC   GL160565   5.896  30.623   5.718
 4587POPC   GL260566   5.643  30.629   5.990
 4587POPC   C1A60567   6.086  30.442   6.126
 4587POPC   D2A60568   6.182  30.680   6.513
 4587POPC   C3A60569   5.904  30.644   6.866
 4587POPC   C4A60570   5.803  30.501   7.250
 4587POPC   C1B60571   5.850  30.981   6.256
 4587POPC   C2B60572   5.931  31.129   6.711
 4587POPC   C3B60573   5.683  31.177   7.108
 4587POPC   C4B60574   5.571  30.953   7.494
 4588POPC   NC360575  29.080   4.558   5.516
 4588POPC   PO460576  29.286   3.896   5.591
 4588POPC   GL160577  29.235   4.218   5.874
 4588POPC   GL260578  29.411   4.535   5.882
 4588POPC   C1A60579  29.429   4.198   6.266
 4588POPC   D2A60580  29.582   4.337   6.636
 4588POPC   C3A60581  29.203   4.483   6.850
 4588POPC   C4A60582  29.162   4.290   7.237
 4588POPC   C1B60583  29.303   4.710   6.285
 4588POPC   C2B60584  29.530   4.845   6.631
 4588POPC   C3B60585  29.613   4.707   7.031
 4588POPC   C4B60586  29.513   4.623   7.412
 4589POPC   NC360587   5.555  33.688   5.509
 4589POPC   PO460588   6.154  33.518   5.430
 4589POPC   GL160589   6.045  33.819   5.773
 4589POPC   GL260590   5.726  34.036   5.849
 4589POPC   C1A60591   5.964  33.687   6.199
 4589POPC   D2A60592   6.134  33.801   6.578
 4589POPC   C3A60593   5.970  33.734   6.989
 4589POPC   C4A60594   6.084  33.448   7.303
 4589POPC   C1B60595   5.836  34.177   6.264
 4589POPC   C2B60596   5.773  34.131   6.700
 4589POPC   C3B60597   5.938  34.249   7.106
 4589POPC   C4B60598   5.806  33.959   7.444
 4590POPC   NC360599  25.632  39.365   5.282
 4590POPC   PO460600  25.002  39.317   5.354
 4590POPC   GL160601  25.216  39.526   5.734
 4590POPC   GL260602  25.582  39.532   5.776
 4590POPC   C1A60603  25.297  39.542   6.221
 4590POPC   D2A60604  25.211  39.522   6.696
 4590POPC   C3A60605  25.246  39.252   7.078
 4590POPC   C4A60606  25.135  39.244   7.530
 4590POPC   C1B60607  25.801  39.568   6.184
 4590POPC   C2B60608  25.670  39.745   6.604
 4590POPC   C3B60609  25.552  39.660   7.061
 4590POPC   C4B60610  25.614  39.407   7.438
 4591POPC   NC360611  17.552  13.225   5.413
 4591POPC   PO460612  17.791  12.578   5.332
 4591POPC   GL160613  17.552  12.653   5.733
 4591POPC   GL260614  17.204  12.561   5.799
 4591POPC   C1A60615  17.712  12.670   6.164
 4591POPC   D2A60616  17.708  12.922   6.542
 4591POPC   C3A60617  17.702  12.726   6.928
 4591POPC   C4A60618  17.580  12.812   7.342
 4591POPC   C1B60619  17.254  12.887   6.150
 4591POPC   C2B60620  17.197  12.777   6.587
 4591POPC   C3B60621  17.210  12.903   7.019
 4591POPC   C4B60622  17.096  12.770   7.462
 4592POPC   NC360623  27.991   9.474   5.097
 4592POPC   PO460624  27.487   9.565   5.535
 4592POPC   GL160625  27.629   9.617   5.922
 4592POPC   GL260626  27.733   9.942   5.895
 4592POPC   C1A60627  27.606   9.399   6.330
 4592POPC   D2A60628  27.283   9.439   6.666
 4592POPC   C3A60629  27.475   9.543   7.054
 4592POPC   C4A60630  27.988   9.576   7.079
 4592POPC   C1B60631  27.485   9.911   6.297
 4592POPC   C2B60632  27.691   9.788   6.675
 4592POPC   C3B60633  27.698   9.983   7.082
 4592POPC   C4B60634  27.410  10.036   7.430
 4593POPC   NC360635  24.995  24.378   5.500
 4593POPC   PO460636  25.648  24.653   5.401
 4593POPC   GL160637  25.412  24.512   5.770
 4593POPC   GL260638  25.126  24.733   5.899
 4593POPC   C1A60639  25.276  24.324   6.156
 4593POPC   D2A60640  25.445  24.285   6.557
 4593POPC   C3A60641  25.268  24.287   6.970
 4593POPC   C4A60642  25.067  24.530   7.296
 4593POPC   C1B60643  25.490  24.778   6.234
 4593POPC   C2B60644  25.705  24.711   6.649
 4593POPC   C3B60645  25.488  24.746   7.070
 4593POPC   C4B60646  25.464  24.734   7.551
 4594POPC   NC360647  12.323  11.788   5.598
 4594POPC   PO460648  12.865  12.271   5.391
 4594POPC   GL160649  12.855  12.220   5.833
 4594POPC   GL260650  12.502  12.225   5.831
 4594POPC   C1A60651  12.848  12.113   6.310
 4594POPC   D2A60652  12.980  12.166   6.774
 4594POPC   C3A60653  12.780  11.914   7.173
 4594POPC   C4A60654  12.630  11.807   7.641
 4594POPC   C1B60655  12.553  12.530   6.174
 4594POPC   C2B60656  12.554  12.456   6.578
 4594POPC   C3B60657  12.525  12.379   6.968
 4594POPC   C4B60658  12.887  12.422   7.199
 4595POPC   NC360659  32.574  17.581   5.398
 4595POPC   PO460660  33.027  17.127   5.441
 4595POPC   GL160661  33.148  17.420   5.768
 4595POPC   GL260662  32.990  17.745   5.685
 4595POPC   C1A60663  33.052  17.421   6.198
 4595POPC   D2A60664  32.852  17.172   6.526
 4595POPC   C3A60665  32.931  17.275   6.936
 4595POPC   C4A60666  32.770  17.657   7.062
 4595POPC   C1B60667  33.230  17.892   6.052
 4595POPC   C2B60668  33.365  17.758   6.472
 4595POPC   C3B60669  33.248  17.675   6.896
 4595POPC   C4B60670  33.169  17.769   7.350
 4596POPC   NC360671  33.241   7.193   5.592
 4596POPC   PO460672  33.344   6.527   5.451
 4596POPC   GL160673  33.145   6.659   5.803
 4596POPC   GL260674  33.360   6.546   6.002
 4596POPC   C1A60675  32.937   6.906   6.140
 4596POPC   D2A60676  32.766   6.842   6.561
 4596POPC   C3A60677  33.012   6.596   6.868
 4596POPC   C4A60678  32.840   6.642   7.284
 4596POPC   C1B60679  33.198   6.507   6.383
 4596POPC   C2B60680  33.564   6.504   6.661
 4596POPC   C3B60681  33.584   6.278   7.031
 4596POPC   C4B60682  33.299   6.421   7.279
 4597POPC   NC360683  35.810  28.037   5.636
 4597POPC   PO460684  36.103  27.526   5.327
 4597POPC   GL160685  36.071  27.507   5.845
 4597POPC   GL260686  36.140  27.845   5.956
 4597POPC   C1A60687  36.148  27.534   6.345
 4597POPC   D2A60688  36.186  27.871   6.683
 4597POPC   C3A60689  36.103  27.649   7.073
 4597POPC   C4A60690  36.065  27.234   7.240
 4597POPC   C1B60691  36.479  27.907   6.238
 4597POPC   C2B60692  36.696  27.846   6.635
 4597POPC   C3B60693  36.585  27.848   7.064
 4597POPC   C4B60694  36.594  27.813   7.518
 4598POPC   NC360695   9.203  21.805   5.407
 4598POPC   PO460696   8.828  21.202   5.311
 4598POPC   GL160697   8.914  21.458   5.685
 4598POPC   GL260698   9.258  21.392   5.739
 4598POPC   C1A60699   8.832  21.646   6.102
 4598POPC   D2A60700   8.641  21.472   6.470
 4598POPC   C3A60701   8.937  21.524   6.808
 4598POPC   C4A60702   8.738  21.613   7.175
 4598POPC   C1B60703   9.157  21.220   6.133
 4598POPC   C2B60704   9.406  21.292   6.492
 4598POPC   C3B60705   9.406  21.267   6.919
 4598POPC   C4B60706   9.347  21.534   7.262
 4599POPC   NC360707  33.438  10.862   5.578
 4599POPC   PO460708  33.960  10.586   5.271
 4599POPC   GL160709  33.960  10.406   5.723
 4599POPC   GL260710  33.649  10.462   5.854
 4599POPC   C1A60711  33.958  10.380   6.223
 4599POPC   D2A60712  33.634  10.385   6.560
 4599POPC   C3A60713  33.806  10.539   6.940
 4599POPC   C4A60714  33.773  10.468   7.371
 4599POPC   C1B60715  33.606  10.763   6.212
 4599POPC   C2B60716  33.473  10.876   6.611
 4599POPC   C3B60717  33.306  10.667   6.951
 4599POPC   C4B60718  33.440  10.867   7.279
 4600POPC   NC360719  44.023  17.068   5.411
 4600POPC   PO460720  43.524  17.497   5.454
 4600POPC   GL160721  43.609  17.208   5.745
 4600POPC   GL260722  43.951  17.299   5.884
 4600POPC   C1A60723  43.541  17.057   6.152
 4600POPC   D2A60724  43.822  17.200   6.482
 4600POPC   C3A60725  43.728  17.238   6.931
 4600POPC   C4A60726  44.069  17.294   7.249
 4600POPC   C1B60727  44.078  17.707   6.115
 4600POPC   C2B60728  44.067  17.918   6.511
 4600POPC   C3B60729  44.050  17.692   6.895
 4600POPC   C4B60730  44.248  17.797   7.277
 4601POPC   NC360731  37.101  19.675   5.443
 4601POPC   PO460732  36.478  19.907   5.389
 4601POPC   GL160733  36.723  19.837   5.742
 4601POPC   GL260734  36.609  19.515   5.826
 4601POPC   C1A60735  37.016  19.932   6.117
 4601POPC   D2A60736  37.180  19.920   6.559
 4601POPC   C3A60737  36.970  19.806   6.948
 4601POPC   C4A60738  37.040  19.680   7.376
 4601POPC   C1B60739  36.518  19.781   6.186
 4601POPC   C2B60740  36.611  19.866   6.583
 4601POPC   C3B60741  36.570  20.153   6.928
 4601POPC   C4B60742  36.657  20.016   7.332
 4602POPC   NC360743  33.975   8.808   5.433
 4602POPC   PO460744  33.317   8.951   5.462
 4602POPC   GL160745  33.646   9.009   5.824
 4602POPC   GL260746  34.023   9.160   5.824
 4602POPC   C1A60747  33.654   9.060   6.287
 4602POPC   D2A60748  33.938   9.208   6.591
 4602POPC   C3A60749  33.759   9.144   7.005
 4602POPC   C4A60750  33.818   9.096   7.461
 4602POPC   C1B60751  34.038   8.770   6.107
 4602POPC   C2B60752  33.934   8.687   6.531
 4602POPC   C3B60753  34.105   8.774   6.928
 4602POPC   C4B60754  34.029   8.657   7.364
 4603POPC   NC360755  24.506  26.963   5.441
 4603POPC   PO460756  24.394  27.668   5.363
 4603POPC   GL160757  24.484  27.442   5.767
 4603POPC   GL260758  24.536  27.778   5.861
 4603POPC   C1A60759  24.614  27.437   6.232
 4603POPC   D2A60760  24.331  27.732   6.466
 4603POPC   C3A60761  24.254  27.677   6.894
 4603POPC   C4A60762  24.441  27.352   7.171
 4603POPC   C1B60763  24.728  27.946   6.207
 4603POPC   C2B60764  24.859  27.894   6.591
 4603POPC   C3B60765  24.754  27.579   6.842
 4603POPC   C4B60766  24.638  27.810   7.214
 4604POPC   NC360767   7.009   8.405   5.482
 4604POPC   PO460768   6.499   7.987   5.346
 4604POPC   GL160769   6.693   8.102   5.748
 4604POPC   GL260770   6.729   7.776   5.878
 4604POPC   C1A60771   6.798   8.181   6.198
 4604POPC   D2A60772   6.481   8.110   6.536
 4604POPC   C3A60773   6.365   8.321   6.947
 4604POPC   C4A60774   6.662   8.467   7.253
 4604POPC   C1B60775   6.455   7.648   6.236
 4604POPC   C2B60776   6.597   7.613   6.671
 4604POPC   C3B60777   6.732   7.947   6.969
 4604POPC   C4B60778   6.511   7.960   7.353
 4605POPC   NC360779  38.219  41.980   5.507
 4605POPC   PO460780  38.540  42.612   5.563
 4605POPC   GL160781  38.733  42.388   5.846
 4605POPC   GL260782  38.686  42.069   5.719
 4605POPC   C1A60783  38.758  42.432   6.264
 4605POPC   D2A60784  38.430  42.568   6.524
 4605POPC   C3A60785  38.432  42.437   6.926
 4605POPC   C4A60786  38.746  42.406   7.185
 4605POPC   C1B60787  38.456  42.010   6.129
 4605POPC   C2B60788  38.589  42.052   6.548
 4605POPC   C3B60789  38.653  41.897   6.920
 4605POPC   C4B60790  38.393  42.046   7.251
 4606POPC   NC360791  31.818  14.633   5.582
 4606POPC   PO460792  32.392  14.740   5.268
 4606POPC   GL160793  32.384  14.506   5.678
 4606POPC   GL260794  32.300  14.142   5.701
 4606POPC   C1A60795  32.169  14.481   6.091
 4606POPC   D2A60796  31.931  14.641   6.454
 4606POPC   C3A60797  32.062  14.536   6.868
 4606POPC   C4A60798  32.368  14.697   7.163
 4606POPC   C1B60799  32.387  14.033   6.146
 4606POPC   C2B60800  32.360  14.252   6.505
 4606POPC   C3B60801  32.464  14.213   6.936
 4606POPC   C4B60802  32.163  14.203   7.256
 4607POPC   NC360803  22.114  28.122   5.287
 4607POPC   PO460804  22.093  28.735   5.359
 4607POPC   GL160805  21.910  28.478   5.697
 4607POPC   GL260806  22.175  28.297   5.782
 4607POPC   C1A60807  21.860  28.415   6.165
 4607POPC   D2A60808  21.910  28.711   6.505
 4607POPC   C3A60809  22.077  28.508   6.857
 4607POPC   C4A60810  22.005  28.257   7.229
 4607POPC   C1B60811  22.338  28.168   6.168
 4607POPC   C2B60812  22.172  28.116   6.547
 4607POPC   C3B60813  22.402  28.127   6.923
 4607POPC   C4B60814  22.324  27.846   7.280
 4608POPC   NC360815  23.747  32.661   5.402
 4608POPC   PO460816  24.086  32.048   5.294
 4608POPC   GL160817  23.911  32.233   5.670
 4608POPC   GL260818  23.777  31.930   5.778
 4608POPC   C1A60819  23.833  32.300   6.142
 4608POPC   D2A60820  23.762  32.519   6.551
 4608POPC   C3A60821  23.499  32.355   6.879
 4608POPC   C4A60822  23.480  32.071   7.208
 4608POPC   C1B60823  23.678  31.811   6.210
 4608POPC   C2B60824  23.733  31.980   6.610
 4608POPC   C3B60825  23.887  31.818   6.982
 4608POPC   C4B60826  23.904  31.857   7.393
 4609POPC   NC360827  36.664  17.635   5.435
 4609POPC   PO460828  37.173  17.202   5.524
 4609POPC   GL160829  37.025  17.569   5.820
 4609POPC   GL260830  36.699  17.591   5.932
 4609POPC   C1A60831  37.225  17.658   6.222
 4609POPC   D2A60832  37.297  17.370   6.571
 4609POPC   C3A60833  37.068  17.456   6.966
 4609POPC   C4A60834  37.067  17.823   7.242
 4609POPC   C1B60835  36.463  17.276   6.150
 4609POPC   C2B60836  36.546  17.253   6.572
 4609POPC   C3B60837  36.400  17.381   6.973
 4609POPC   C4B60838  36.652  17.456   7.309
 4610POPC   NC360839  40.199  22.503   5.477
 4610POPC   PO460840  40.380  21.904   5.266
 4610POPC   GL160841  40.199  21.982   5.707
 4610POPC   GL260842  39.863  22.152   5.804
 4610POPC   C1A60843  40.216  22.140   6.139
 4610POPC   D2A60844  39.949  22.109   6.491
 4610POPC   C3A60845  40.148  22.138   6.838
 4610POPC   C4A60846  40.109  22.025   7.214
 4610POPC   C1B60847  39.805  22.488   6.191
 4610POPC   C2B60848  39.866  22.695   6.609
 4610POPC   C3B60849  39.907  22.533   7.035
 4610POPC   C4B60850  39.709  22.370   7.392
 4611POPC   NC360851   2.495   3.839   5.595
 4611POPC   PO460852   2.954   3.622   5.202
 4611POPC   GL160853   2.888   3.444   5.697
 4611POPC   GL260854   2.590   3.258   5.800
 4611POPC   C1A60855   2.847   3.519   6.204
 4611POPC   D2A60856   2.940   3.406   6.684
 4611POPC   C3A60857   2.771   3.681   7.046
 4611POPC   C4A60858   2.989   3.926   7.414
 4611POPC   C1B60859   2.425   3.185   6.194
 4611POPC   C2B60860   2.432   3.390   6.580
 4611POPC   C3B60861   2.419   3.252   6.983
 4611POPC   C4B60862   2.555   3.342   7.390
 4612POPC   NC360863   4.624  44.168   5.429
 4612POPC   PO460864   4.057  43.901   5.563
 4612POPC   GL160865   4.323  43.995   5.818
 4612POPC   GL260866   4.511  43.693   5.837
 4612POPC   C1A60867   4.350  44.177   6.188
 4612POPC   D2A60868   4.237  44.065   6.596
 4612POPC   C3A60869   4.431  44.069   6.992
 4612POPC   C4A60870   4.163  43.758   7.166
 4612POPC   C1B60871   4.222  43.665   6.218
 4612POPC   C2B60872   4.208  43.523   6.653
 4612POPC   C3B60873   4.559  43.569   6.920
 4612POPC   C4B60874   4.692  43.471   7.332
 4613POPC   NC360875   3.932  18.533   5.601
 4613POPC   PO460876   3.415  18.146   5.432
 4613POPC   GL160877   3.414  18.234   5.795
 4613POPC   GL260878   3.219  17.927   5.874
 4613POPC   C1A60879   3.449  18.565   6.090
 4613POPC   D2A60880   3.563  18.412   6.487
 4613POPC   C3A60881   3.509  18.574   6.908
 4613POPC   C4A60882   3.737  18.430   7.273
 4613POPC   C1B60883   3.554  17.938   6.169
 4613POPC   C2B60884   3.692  17.898   6.543
 4613POPC   C3B60885   3.491  18.064   6.871
 4613POPC   C4B60886   3.444  17.989   7.257
 4614POPC   NC360887  28.169  21.210   5.597
 4614POPC   PO460888  28.602  21.579   5.364
 4614POPC   GL160889  28.575  21.427   5.812
 4614POPC   GL260890  28.628  21.110   5.943
 4614POPC   C1A60891  28.423  21.467   6.251
 4614POPC   D2A60892  28.356  21.349   6.696
 4614POPC   C3A60893  28.369  21.697   6.989
 4614POPC   C4A60894  28.499  21.609   7.410
 4614POPC   C1B60895  28.390  20.960   6.316
 4614POPC   C2B60896  28.518  20.870   6.744
 4614POPC   C3B60897  28.603  21.083   7.120
 4614POPC   C4B60898  28.434  21.073   7.540
 4615POPC   NC360899  35.322  37.351   5.384
 4615POPC   PO460900  35.513  37.923   5.284
 4615POPC   GL160901  35.401  37.801   5.710
 4615POPC   GL260902  35.473  37.481   5.865
 4615POPC   C1A60903  35.417  37.903   6.154
 4615POPC   D2A60904  35.575  37.664   6.520
 4615POPC   C3A60905  35.651  37.878   6.905
 4615POPC   C4A60906  35.633  37.718   7.326
 4615POPC   C1B60907  35.156  37.476   6.208
 4615POPC   C2B60908  35.178  37.338   6.617
 4615POPC   C3B60909  35.295  37.497   6.995
 4615POPC   C4B60910  35.217  37.421   7.451
 4616POPC   NC360911  18.469   0.809   5.594
 4616POPC   PO460912  18.100   1.245   5.180
 4616POPC   GL160913  18.091   1.131   5.642
 4616POPC   GL260914  18.246   1.359   5.868
 4616POPC   C1A60915  17.978   1.001   6.101
 4616POPC   D2A60916  17.958   1.225   6.494
 4616POPC   C3A60917  18.001   1.026   6.888
 4616POPC   C4A60918  18.131   1.212   7.248
 4616POPC   C1B60919  18.412   1.220   6.246
 4616POPC   C2B60920  18.431   0.977   6.616
 4616POPC   C3B60921  18.580   1.105   7.014
 4616POPC   C4B60922  18.575   1.454   7.273
 4617POPC   NC360923  32.076  14.988   5.039
 4617POPC   PO460924  32.207  15.472   5.451
 4617POPC   GL160925  32.252  15.059   5.665
 4617POPC   GL260926  32.598  14.972   5.764
 4617POPC   C1A60927  32.144  14.984   6.106
 4617POPC   D2A60928  32.290  15.052   6.530
 4617POPC   C3A60929  32.052  15.048   6.886
 4617POPC   C4A60930  32.070  15.100   7.312
 4617POPC   C1B60931  32.589  15.246   6.156
 4617POPC   C2B60932  32.574  15.472   6.604
 4617POPC   C3B60933  32.507  15.272   7.067
 4617POPC   C4B60934  32.679  15.537   7.447
 4618POPC   NC360935   0.649   4.934   5.086
 4618POPC   PO460936   0.233   5.110   5.455
 4618POPC   GL160937   0.161   5.135   5.895
 4618POPC   GL260938   0.004   5.444   5.847
 4618POPC   C1A60939   0.442   5.091   6.282
 4618POPC   D2A60940   0.585   5.237   6.713
 4618POPC   C3A60941   0.537   4.931   7.068
 4618POPC   C4A60942   0.334   4.703   7.433
 4618POPC   C1B60943  44.869   5.357   6.265
 4618POPC   C2B60944   0.073   5.268   6.626
 4618POPC   C3B60945   0.156   5.286   7.059
 4618POPC   C4B60946  44.960   5.167   7.442
 4619POPC   NC360947   4.864  14.095   5.483
 4619POPC   PO460948   5.324  14.552   5.301
 4619POPC   GL160949   5.262  14.401   5.750
 4619POPC   GL260950   4.942  14.540   5.697
 4619POPC   C1A60951   5.289  14.396   6.266
 4619POPC   D2A60952   5.347  14.521   6.721
 4619POPC   C3A60953   5.067  14.463   7.048
 4619POPC   C4A60954   5.130  14.063   7.189
 4619POPC   C1B60955   4.816  14.383   6.110
 4619POPC   C2B60956   4.834  14.416   6.561
 4619POPC   C3B60957   4.714  14.142   6.890
 4619POPC   C4B60958   4.685  14.242   7.325
 4620POPC   NC360959  26.212  10.733   5.438
 4620POPC   PO460960  25.762  10.196   5.455
 4620POPC   GL160961  26.121  10.347   5.757
 4620POPC   GL260962  26.439  10.219   5.938
 4620POPC   C1A60963  26.083  10.478   6.224
 4620POPC   D2A60964  25.980  10.585   6.632
 4620POPC   C3A60965  26.182  10.312   6.887
 4620POPC   C4A60966  26.106  10.382   7.291
 4620POPC   C1B60967  26.498  10.697   6.060
 4620POPC   C2B60968  26.319  10.913   6.423
 4620POPC   C3B60969  26.403  10.768   6.826
 4620POPC   C4B60970  26.426  10.825   7.213
 4621POPC   NC360971   5.787  44.569   5.215
 4621POPC   PO460972   6.293  44.913   5.498
 4621POPC   GL160973   5.915  44.764   5.767
 4621POPC   GL260974   5.678  44.509   5.744
 4621POPC   C1A60975   5.991  44.537   6.183
 4621POPC   D2A60976   6.250  44.587   6.515
 4621POPC   C3A60977   6.079  44.722   6.891
 4621POPC   C4A60978   5.980  44.617   7.293
 4621POPC   C1B60979   5.542  44.755   6.124
 4621POPC   C2B60980   5.661  44.819   6.574
 4621POPC   C3B60981   5.558  44.716   7.023
 4621POPC   C4B60982   5.503  44.466   7.422
 4622POPC   NC360983  37.503  11.603   5.475
 4622POPC   PO460984  37.470  10.938   5.574
 4622POPC   GL160985  37.610  11.273   5.856
 4622POPC   GL260986  37.915  11.461   5.800
 4622POPC   C1A60987  37.565  11.490   6.239
 4622POPC   D2A60988  37.249  11.402   6.555
 4622POPC   C3A60989  37.483  11.277   6.913
 4622POPC   C4A60990  37.545  11.540   7.241
 4622POPC   C1B60991  38.098  11.623   6.173
 4622POPC   C2B60992  37.985  11.499   6.581
 4622POPC   C3B60993  38.054  11.547   7.022
 4622POPC   C4B60994  37.937  11.188   7.267
 4623POPC   NC360995  22.092  13.174   5.314
 4623POPC   PO460996  22.732  13.359   5.568
 4623POPC   GL160997  22.292  13.250   5.786
 4623POPC   GL260998  22.180  12.873   5.849
 4623POPC   C1A60999  22.229  13.188   6.265
 4623POPC   D2A61000  22.351  12.926   6.660
 4623POPC   C3A61001  22.092  12.909   7.057
 4623POPC   C4A61002  22.074  13.085   7.486
 4623POPC   C1B61003  22.397  12.640   6.209
 4623POPC   C2B61004  22.434  12.412   6.598
 4623POPC   C3B61005  22.529  12.532   7.017
 4623POPC   C4B61006  22.325  12.549   7.410
 4624POPC   NC361007  18.253  12.471   5.359
 4624POPC   PO461008  18.614  13.017   5.383
 4624POPC   GL161009  18.302  12.920   5.755
 4624POPC   GL261010  18.072  12.651   5.786
 4624POPC   C1A61011  18.109  12.988   6.173
 4624POPC   D2A61012  18.132  13.283   6.482
 4624POPC   C3A61013  18.073  13.081   6.874
 4624POPC   C4A61014  18.086  12.881   7.283
 4624POPC   C1B61015  18.256  12.497   6.149
 4624POPC   C2B61016  18.055  12.510   6.527
 4624POPC   C3B61017  18.185  12.514   6.909
 4624POPC   C4B61018  18.356  12.444   7.268
 4625POPC   NC361019  41.662  11.298   5.423
 4625POPC   PO461020  41.061  11.316   5.299
 4625POPC   GL161021  41.232  11.164   5.723
 4625POPC   GL261022  41.050  10.844   5.801
 4625POPC   C1A61023  41.422  11.299   6.155
 4625POPC   D2A61024  41.347  11.550   6.560
 4625POPC   C3A61025  41.406  11.402   7.005
 4625POPC   C4A61026  41.758  11.170   7.227
 4625POPC   C1B61027  41.189  10.859   6.251
 4625POPC   C2B61028  41.372  11.019   6.653
 4625POPC   C3B61029  41.311  10.903   7.117
 4625POPC   C4B61030  41.548  10.761   7.501
 4626POPC   NC361031  30.330  39.808   5.634
 4626POPC   PO461032  29.984  40.206   5.161
 4626POPC   GL161033  29.913  40.082   5.655
 4626POPC   GL261034  29.618  39.934   5.680
 4626POPC   C1A61035  30.039  40.184   6.136
 4626POPC   D2A61036  30.152  40.330   6.609
 4626POPC   C3A61037  30.101  40.049   6.995
 4626POPC   C4A61038  30.156  39.620   7.119
 4626POPC   C1B61039  29.542  40.036   6.147
 4626POPC   C2B61040  29.747  40.002   6.552
 4626POPC   C3B61041  29.652  39.791   6.945
 4626POPC   C4B61042  29.601  40.027   7.305
 4627POPC   NC361043   0.005  42.293   5.140
 4627POPC   PO461044  44.405  42.240   5.437
 4627POPC   GL161045  44.722  42.360   5.715
 4627POPC   GL261046  44.972  42.153   5.727
 4627POPC   C1A61047  44.775  42.361   6.166
 4627POPC   D2A61048  44.489  42.274   6.506
 4627POPC   C3A61049  44.664  42.349   6.898
 4627POPC   C4A61050  44.468  42.514   7.232
 4627POPC   C1B61051  44.928  41.878   6.106
 4627POPC   C2B61052  44.935  42.014   6.553
 4627POPC   C3B61053  44.985  41.960   7.008
 4627POPC   C4B61054  44.712  42.045   7.331
 4628POPC   NC361055  13.949  22.846   5.443
 4628POPC   PO461056  14.583  23.135   5.406
 4628POPC   GL161057  14.494  23.002   5.837
 4628POPC   GL261058  14.138  22.891   5.925
 4628POPC   C1A61059  14.536  23.076   6.279
 4628POPC   D2A61060  14.301  23.027   6.650
 4628POPC   C3A61061  14.427  22.917   7.074
 4628POPC   C4A61062  14.607  23.093   7.461
 4628POPC   C1B61063  13.890  22.657   6.283
 4628POPC   C2B61064  13.996  22.594   6.727
 4628POPC   C3B61065  14.184  22.471   7.113
 4628POPC   C4B61066  14.172  22.719   7.504
 4629POPC   NC361067  17.096  44.527   5.597
 4629POPC   PO461068  17.537   0.005   5.391
 4629POPC   GL161069  17.574  44.854   5.819
 4629POPC   GL261070  17.525  44.521   5.912
 4629POPC   C1A61071  17.730  44.822   6.259
 4629POPC   D2A61072  17.468  44.908   6.636
 4629POPC   C3A61073  17.646  44.867   7.046
 4629POPC   C4A61074  17.446  44.815   7.447
 4629POPC   C1B61075  17.619  44.332   6.317
 4629POPC   C2B61076  17.602  44.419   6.747
 4629POPC   C3B61077  17.575  44.231   7.155
 4629POPC   C4B61078  17.491  44.325   7.593
 4630POPC   NC361079  39.475   7.635   5.542
 4630POPC   PO461080  39.073   7.158   5.346
 4630POPC   GL161081  39.108   7.306   5.766
 4630POPC   GL261082  39.440   7.258   5.902
 4630POPC   C1A61083  39.155   7.566   6.170
 4630POPC   D2A61084  39.396   7.421   6.557
 4630POPC   C3A61085  39.326   7.689   6.895
 4630POPC   C4A61086  39.119   7.567   7.251
 4630POPC   C1B61087  39.234   7.060   6.213
 4630POPC   C2B61088  39.024   6.939   6.553
 4630POPC   C3B61089  39.025   7.156   6.905
 4630POPC   C4B61090  39.004   7.070   7.327
 4631POPC   NC361091  27.920   3.593   5.520
 4631POPC   PO461092  27.304   3.633   5.544
 4631POPC   GL161093  27.529   3.691   5.928
 4631POPC   GL261094  27.865   3.487   6.006
 4631POPC   C1A61095  27.468   3.491   6.330
 4631POPC   D2A61096  27.646   3.213   6.632
 4631POPC   C3A61097  27.412   3.341   6.956
 4631POPC   C4A61098  27.344   3.614   7.277
 4631POPC   C1B61099  27.876   3.832   6.299
 4631POPC   C2B61100  27.793   4.002   6.700
 4631POPC   C3B61101  27.706   3.966   7.104
 4631POPC   C4B61102  27.852   3.553   7.125
 4632POPC   NC361103  13.409  20.073   5.297
 4632POPC   PO461104  13.961  19.703   5.277
 4632POPC   GL161105  13.655  19.829   5.692
 4632POPC   GL261106  13.317  20.050   5.804
 4632POPC   C1A61107  13.510  19.698   6.137
 4632POPC   D2A61108  13.595  19.544   6.575
 4632POPC   C3A61109  13.819  19.818   6.864
 4632POPC   C4A61110  13.906  19.976   7.268
 4632POPC   C1B61111  13.259  20.185   6.239
 4632POPC   C2B61112  13.470  20.118   6.632
 4632POPC   C3B61113  13.385  20.055   7.083
 4632POPC   C4B61114  13.324  20.353   7.447
 4633POPC   NC361115  12.923  22.404   5.172
 4633POPC   PO461116  12.988  21.792   5.406
 4633POPC   GL161117  12.953  22.017   5.785
 4633POPC   GL261118  13.261  21.942   5.889
 4633POPC   C1A61119  12.919  22.195   6.220
 4633POPC   D2A61120  12.999  22.382   6.623
 4633POPC   C3A61121  12.842  22.184   6.983
 4633POPC   C4A61122  12.505  22.159   7.249
 4633POPC   C1B61123  13.281  21.797   6.290
 4633POPC   C2B61124  13.171  21.862   6.706
 4633POPC   C3B61125  13.087  21.702   7.101
 4633POPC   C4B61126  12.870  21.888   7.427
 4634POPC   NC361127  24.818   9.449   5.599
 4634POPC   PO461128  24.270   9.812   5.318
 4634POPC   GL161129  24.231  10.033   5.703
 4634POPC   GL261130  24.582  10.039   5.803
 4634POPC   C1A61131  24.186  10.006   6.157
 4634POPC   D2A61132  24.405   9.784   6.503
 4634POPC   C3A61133  24.425  10.005   6.887
 4634POPC   C4A61134  24.366   9.822   7.285
 4634POPC   C1B61135  24.801   9.951   6.212
 4634POPC   C2B61136  24.904   9.916   6.673
 4634POPC   C3B61137  24.788   9.654   7.035
 4634POPC   C4B61138  24.716   9.478   7.451
 4635POPC   NC361139  16.042  16.069   5.275
 4635POPC   PO461140  15.843  15.450   5.274
 4635POPC   GL161141  15.674  15.816   5.593
 4635POPC   GL261142  15.922  16.064   5.788
 4635POPC   C1A61143  15.597  15.756   6.056
 4635POPC   D2A61144  15.703  15.845   6.509
 4635POPC   C3A61145  15.772  15.833   6.965
 4635POPC   C4A61146  15.836  16.089   7.360
 4635POPC   C1B61147  16.088  16.035   6.232
 4635POPC   C2B61148  16.042  16.205   6.664
 4635POPC   C3B61149  16.226  16.077   7.017
 4635POPC   C4B61150  16.377  16.034   7.394
 4636POPC   NC361151  41.465   5.485   5.179
 4636POPC   PO461152  41.477   4.879   5.268
 4636POPC   GL161153  41.503   5.012   5.707
 4636POPC   GL261154  41.741   5.292   5.819
 4636POPC   C1A61155  41.300   4.904   6.112
 4636POPC   D2A61156  41.486   5.002   6.521
 4636POPC   C3A61157  41.518   4.719   6.869
 4636POPC   C4A61158  41.675   4.757   7.270
 4636POPC   C1B61159  41.367   5.402   6.065
 4636POPC   C2B61160  41.206   5.426   6.496
 4636POPC   C3B61161  41.391   5.444   6.887
 4636POPC   C4B61162  41.736   5.200   7.044
 4637POPC   NC361163  21.595   0.322   5.551
 4637POPC   PO461164  20.947   0.347   5.572
 4637POPC   GL161165  21.211   0.456   5.880
 4637POPC   GL261166  21.460   0.743   5.847
 4637POPC   C1A61167  21.259   0.171   6.198
 4637POPC   D2A61168  21.218   0.357   6.605
 4637POPC   C3A61169  21.380   0.208   6.988
 4637POPC   C4A61170  21.265   0.440   7.368
 4637POPC   C1B61171  21.580   0.550   6.265
 4637POPC   C2B61172  21.752   0.392   6.663
 4637POPC   C3B61173  21.773   0.517   7.103
 4637POPC   C4B61174  21.579   0.825   7.352
 4638POPC   NC361175  13.122  11.807   5.509
 4638POPC   PO461176  13.792  11.817   5.519
 4638POPC   GL161177  13.538  12.055   5.737
 4638POPC   GL261178  13.800  12.097   5.950
 4638POPC   C1A61179  13.319  12.158   6.109
 4638POPC   D2A61180  13.419  12.340   6.511
 4638POPC   C3A61181  13.488  12.137   6.926
 4638POPC   C4A61182  13.336  12.283   7.356
 4638POPC   C1B61183  14.086  11.967   6.260
 4638POPC   C2B61184  13.987  12.079   6.654
 4638POPC   C3B61185  13.978  11.907   7.016
 4638POPC   C4B61186  13.735  11.989   7.367
 4639POPC   NC361187  20.394   6.727   5.397
 4639POPC   PO461188  20.422   6.157   5.494
 4639POPC   GL161189  20.348   6.466   5.860
 4639POPC   GL261190  20.580   6.762   5.868
 4639POPC   C1A61191  20.454   6.521   6.316
 4639POPC   D2A61192  20.632   6.633   6.749
 4639POPC   C3A61193  20.381   6.442   7.128
 4639POPC   C4A61194  20.194   6.319   7.552
 4639POPC   C1B61195  20.596   7.003   6.243
 4639POPC   C2B61196  20.304   7.045   6.578
 4639POPC   C3B61197  20.326   6.936   7.004
 4639POPC   C4B61198  20.742   6.920   7.191
 4640POPC   NC361199   6.944  14.725   5.373
 4640POPC   PO461200   6.466  15.178   5.536
 4640POPC   GL161201   6.722  15.169   5.877
 4640POPC   GL261202   6.961  14.912   5.847
 4640POPC   C1A61203   6.567  15.226   6.276
 4640POPC   D2A61204   6.598  15.502   6.592
 4640POPC   C3A61205   6.687  15.328   6.972
 4640POPC   C4A61206   7.072  15.522   7.076
 4640POPC   C1B61207   6.858  14.820   6.261
 4640POPC   C2B61208   6.702  14.894   6.676
 4640POPC   C3B61209   6.885  14.862   7.093
 4640POPC   C4B61210   6.751  14.786   7.537
 4641POPC   NC361211  39.411  19.622   5.485
 4641POPC   PO461212  39.072  20.087   5.833
 4641POPC   GL161213  39.239  19.692   5.968
 4641POPC   GL261214  38.968  19.581   5.788
 4641POPC   C1A61215  39.472  19.584   6.347
 4641POPC   D2A61216  39.529  19.923   6.625
 4641POPC   C3A61217  39.216  19.927   6.940
 4641POPC   C4A61218  39.170  20.155   7.293
 4641POPC   C1B61219  38.764  19.596   6.204
 4641POPC   C2B61220  38.988  19.605   6.576
 4641POPC   C3B61221  38.852  19.529   6.991
 4641POPC   C4B61222  38.999  19.691   7.399
 4642POPC   NC361223  17.000  33.300   5.439
 4642POPC   PO461224  16.925  32.672   5.560
 4642POPC   GL161225  16.693  32.794   5.908
 4642POPC   GL261226  16.711  33.154   5.876
 4642POPC   C1A61227  16.720  32.942   6.335
 4642POPC   D2A61228  16.556  33.239   6.640
 4642POPC   C3A61229  16.707  33.064   7.013
 4642POPC   C4A61230  17.031  32.757   7.084
 4642POPC   C1B61231  16.984  33.370   6.198
 4642POPC   C2B61232  17.215  33.371   6.606
 4642POPC   C3B61233  17.173  33.271   7.070
 4642POPC   C4B61234  16.842  33.356   7.432
 4643POPC   NC361235  18.454  34.985   5.440
 4643POPC   PO461236  18.184  35.668   5.418
 4643POPC   GL161237  18.236  35.486   5.831
 4643POPC   GL261238  18.300  35.119   5.901
 4643POPC   C1A61239  18.104  35.498   6.268
 4643POPC   D2A61240  18.311  35.447   6.661
 4643POPC   C3A61241  18.131  35.504   7.065
 4643POPC   C4A61242  17.852  35.375   7.355
 4643POPC   C1B61243  18.594  34.934   6.187
 4643POPC   C2B61244  18.439  34.833   6.621
 4643POPC   C3B61245  18.226  34.907   7.005
 4643POPC   C4B61246  18.283  35.081   7.397
 4644POPC   NC361247  22.003  32.002   5.401
 4644POPC   PO461248  22.618  31.769   5.480
 4644POPC   GL161249  22.345  32.032   5.824
 4644POPC   GL261250  21.948  32.033   5.904
 4644POPC   C1A61251  22.239  32.348   6.205
 4644POPC   D2A61252  22.067  32.234   6.644
 4644POPC   C3A61253  22.107  32.485   7.022
 4644POPC   C4A61254  22.235  32.727   7.391
 4644POPC   C1B61255  22.145  31.859   6.263
 4644POPC   C2B61256  22.052  31.719   6.644
 4644POPC   C3B61257  22.151  31.879   7.050
 4644POPC   C4B61258  22.128  32.175   7.408
 4645POPC   NC361259  40.852  17.899   4.987
 4645POPC   PO461260  40.651  18.431   5.446
 4645POPC   GL161261  40.696  18.326   5.840
 4645POPC   GL261262  40.564  18.007   5.774
 4645POPC   C1A61263  40.895  18.313   6.226
 4645POPC   D2A61264  40.779  18.437   6.608
 4645POPC   C3A61265  40.989  18.229   6.898
 4645POPC   C4A61266  40.977  18.351   7.263
 4645POPC   C1B61267  40.422  18.103   6.211
 4645POPC   C2B61268  40.528  17.951   6.580
 4645POPC   C3B61269  40.489  18.116   6.978
 4645POPC   C4B61270  40.553  18.087   7.408
 4646POPC   NC361271  13.841  28.525   5.393
 4646POPC   PO461272  13.280  28.187   5.295
 4646POPC   GL161273  13.627  28.140   5.673
 4646POPC   GL261274  13.767  27.909   5.909
 4646POPC   C1A61275  13.633  28.325   6.158
 4646POPC   D2A61276  13.587  28.551   6.567
 4646POPC   C3A61277  13.393  28.424   6.984
 4646POPC   C4A61278  13.623  28.445   7.394
 4646POPC   C1B61279  13.614  27.831   6.314
 4646POPC   C2B61280  13.597  28.051   6.692
 4646POPC   C3B61281  13.651  27.984   7.112
 4646POPC   C4B61282  13.299  28.055   7.402
 4647POPC   NC361283   6.124   4.410   5.565
 4647POPC   PO461284   6.603   4.064   5.245
 4647POPC   GL161285   6.578   4.092   5.700
 4647POPC   GL261286   6.314   3.885   5.683
 4647POPC   C1A61287   6.574   4.350   6.109
 4647POPC   D2A61288   6.421   4.604   6.481
 4647POPC   C3A61289   6.606   4.601   6.892
 4647POPC   C4A61290   6.553   4.470   7.314
 4647POPC   C1B61291   6.339   3.871   6.133
 4647POPC   C2B61292   6.481   4.066   6.542
 4647POPC   C3B61293   6.476   4.079   7.006
 4647POPC   C4B61294   6.713   3.975   7.421
 4648POPC   NC361295  19.903  11.641   5.394
 4648POPC   PO461296  19.463  12.171   5.443
 4648POPC   GL161297  19.753  12.044   5.717
 4648POPC   GL261298  19.743  11.719   5.865
 4648POPC   C1A61299  19.900  12.227   6.100
 4648POPC   D2A61300  20.110  12.246   6.505
 4648POPC   C3A61301  19.923  12.161   6.914
 4648POPC   C4A61302  20.076  11.899   7.230
 4648POPC   C1B61303  19.596  11.832   6.256
 4648POPC   C2B61304  19.413  11.709   6.655
 4648POPC   C3B61305  19.621  11.697   7.050
 4648POPC   C4B61306  19.591  12.027   7.333
 4649POPC   NC361307  31.700   3.465   5.390
 4649POPC   PO461308  31.102   3.176   5.476
 4649POPC   GL161309  31.275   3.483   5.803
 4649POPC   GL261310  31.633   3.511   5.898
 4649POPC   C1A61311  31.202   3.621   6.229
 4649POPC   D2A61312  31.284   3.522   6.668
 4649POPC   C3A61313  31.038   3.619   7.017
 4649POPC   C4A61314  31.294   3.471   7.318
 4649POPC   C1B61315  31.702   3.473   6.366
 4649POPC   C2B61316  31.798   3.685   6.765
 4649POPC   C3B61317  31.770   3.647   7.204
 4649POPC   C4B61318  31.759   3.329   7.521
 4650POPC   NC361319  37.697  24.513   5.240
 4650POPC   PO461320  38.104  24.819   5.580
 4650POPC   GL161321  37.820  24.586   5.762
 4650POPC   GL261322  37.890  24.241   5.640
 4650POPC   C1A61323  37.843  24.611   6.198
 4650POPC   D2A61324  37.862  24.428   6.561
 4650POPC   C3A61325  37.824  24.643   6.923
 4650POPC   C4A61326  37.848  24.375   7.246
 4650POPC   C1B61327  37.820  24.107   6.076
 4650POPC   C2B61328  37.483  24.141   6.388
 4650POPC   C3B61329  37.472  24.147   6.856
 4650POPC   C4B61330  37.337  24.288   7.278
 4651POPC   NC361331  13.458  35.040   5.262
 4651POPC   PO461332  13.747  35.658   5.338
 4651POPC   GL161333  13.533  35.457   5.720
 4651POPC   GL261334  13.283  35.159   5.741
 4651POPC   C1A61335  13.718  35.244   6.110
 4651POPC   D2A61336  13.949  35.341   6.512
 4651POPC   C3A61337  13.755  35.346   6.932
 4651POPC   C4A61338  13.636  35.538   7.323
 4651POPC   C1B61339  13.305  34.931   6.150
 4651POPC   C2B61340  13.530  34.979   6.528
 4651POPC   C3B61341  13.373  34.958   6.920
 4651POPC   C4B61342  13.449  35.074   7.282
 4652POPC   NC361343  19.325  25.441   5.487
 4652POPC   PO461344  18.600  25.383   5.402
 4652POPC   GL161345  18.877  25.354   5.776
 4652POPC   GL261346  19.181  25.236   5.930
 4652POPC   C1A61347  18.806  25.318   6.249
 4652POPC   D2A61348  18.993  25.071   6.590
 4652POPC   C3A61349  18.958  25.140   7.049
 4652POPC   C4A61350  18.666  25.370   7.308
 4652POPC   C1B61351  19.341  25.369   6.333
 4652POPC   C2B61352  19.372  25.332   6.803
 4652POPC   C3B61353  19.446  25.401   7.242
 4652POPC   C4B61354  19.584  25.476   7.661
 4653POPC   NC361355  27.269   9.194   5.364
 4653POPC   PO461356  26.786   8.804   5.384
 4653POPC   GL161357  26.780   8.920   5.794
 4653POPC   GL261358  27.109   8.994   5.856
 4653POPC   C1A61359  26.645   8.770   6.193
 4653POPC   D2A61360  26.512   9.006   6.526
 4653POPC   C3A61361  26.524   8.834   6.931
 4653POPC   C4A61362  26.721   9.055   7.235
 4653POPC   C1B61363  27.044   9.064   6.322
 4653POPC   C2B61364  26.990   9.025   6.780
 4653POPC   C3B61365  27.204   9.137   7.173
 4653POPC   C4B61366  26.994   9.333   7.587
 4654POPC   NC361367  12.395  40.648   5.248
 4654POPC   PO461368  11.768  40.674   5.395
 4654POPC   GL161369  12.090  40.583   5.711
 4654POPC   GL261370  12.440  40.431   5.724
 4654POPC   C1A61371  12.096  40.737   6.159
 4654POPC   D2A61372  12.104  40.655   6.604
 4654POPC   C3A61373  11.913  40.936   6.867
 4654POPC   C4A61374  11.846  41.091   7.242
 4654POPC   C1B61375  12.557  40.481   6.166
 4654POPC   C2B61376  12.540  40.391   6.605
 4654POPC   C3B61377  12.440  40.550   7.012
 4654POPC   C4B61378  12.025  40.573   7.215
 4655POPC   NC361379  16.539   6.154   5.507
 4655POPC   PO461380  17.095   5.698   5.480
 4655POPC   GL161381  16.796   5.841   5.820
 4655POPC   GL261382  16.837   6.218   5.901
 4655POPC   C1A61383  16.694   5.641   6.195
 4655POPC   D2A61384  16.946   5.580   6.560
 4655POPC   C3A61385  16.752   5.459   6.949
 4655POPC   C4A61386  16.661   5.623   7.351
 4655POPC   C1B61387  16.601   6.253   6.291
 4655POPC   C2B61388  16.488   6.096   6.725
 4655POPC   C3B61389  16.667   6.078   7.131
 4655POPC   C4B61390  16.875   6.182   7.513
 4656POPC   NC361391  28.921   6.117   5.485
 4656POPC   PO461392  29.519   5.721   5.570
 4656POPC   GL161393  29.252   5.939   5.858
 4656POPC   GL261394  28.914   5.773   5.853
 4656POPC   C1A61395  29.244   5.793   6.271
 4656POPC   D2A61396  29.330   5.815   6.675
 4656POPC   C3A61397  29.428   5.465   6.910
 4656POPC   C4A61398  29.161   5.468   7.259
 4656POPC   C1B61399  28.746   5.925   6.224
 4656POPC   C2B61400  28.648   5.966   6.658
 4656POPC   C3B61401  28.784   5.806   7.062
 4656POPC   C4B61402  28.818   5.914   7.490
 4657POPC   NC361403  31.156  12.937   5.442
 4657POPC   PO461404  31.805  12.947   5.697
 4657POPC   GL161405  31.572  12.719   5.983
 4657POPC   GL261406  31.214  12.664   5.878
 4657POPC   C1A61407  31.591  12.969   6.357
 4657POPC   D2A61408  31.560  13.232   6.715
 4657POPC   C3A61409  31.624  12.970   7.063
 4657POPC   C4A61410  31.775  12.555   7.086
 4657POPC   C1B61411  31.100  12.954   6.189
 4657POPC   C2B61412  31.151  12.844   6.610
 4657POPC   C3B61413  31.116  13.003   7.002
 4657POPC   C4B61414  31.164  13.023   7.451
 4658POPC   NC361415   1.908  39.864   5.408
 4658POPC   PO461416   2.283  40.398   5.664
 4658POPC   GL161417   2.192  40.016   5.882
 4658POPC   GL261418   1.855  39.855   5.918
 4658POPC   C1A61419   2.107  40.047   6.331
 4658POPC   D2A61420   1.866  40.131   6.717
 4658POPC   C3A61421   2.079  40.168   7.115
 4658POPC   C4A61422   2.153  40.072   7.534
 4658POPC   C1B61423   1.732  39.688   6.360
 4658POPC   C2B61424   1.749  39.636   6.839
 4658POPC   C3B61425   1.697  39.867   7.267
 4658POPC   C4B61426   1.801  39.716   7.712
 4659POPC   NC361427  37.612  38.766   5.422
 4659POPC   PO461428  37.512  39.442   5.486
 4659POPC   GL161429  37.729  39.140   5.778
 4659POPC   GL261430  37.779  39.412   5.957
 4659POPC   C1A61431  37.974  39.006   6.175
 4659POPC   D2A61432  37.913  39.191   6.545
 4659POPC   C3A61433  37.662  38.991   6.816
 4659POPC   C4A61434  37.883  39.007   7.168
 4659POPC   C1B61435  37.510  39.300   6.271
 4659POPC   C2B61436  37.277  39.285   6.630
 4659POPC   C3B61437  37.403  39.414   6.995
 4659POPC   C4B61438  37.687  39.463   7.285
 4660POPC   NC361439   7.880  34.150   5.440
 4660POPC   PO461440   8.397  33.719   5.439
 4660POPC   GL161441   8.293  33.982   5.810
 4660POPC   GL261442   7.956  34.024   5.938
 4660POPC   C1A61443   8.431  33.925   6.241
 4660POPC   D2A61444   8.162  34.012   6.591
 4660POPC   C3A61445   8.216  33.865   7.022
 4660POPC   C4A61446   8.190  33.820   7.503
 4660POPC   C1B61447   7.934  33.675   6.267
 4660POPC   C2B61448   7.829  33.497   6.719
 4660POPC   C3B61449   7.907  33.525   7.193
 4660POPC   C4B61450   8.089  33.309   7.586
 4661POPC   NC361451  14.651  17.358   5.328
 4661POPC   PO461452  14.198  17.860   5.338
 4661POPC   GL161453  14.084  17.796   5.821
 4661POPC   GL261454  14.102  17.438   5.895
 4661POPC   C1A61455  14.220  17.689   6.303
 4661POPC   D2A61456  14.450  17.581   6.719
 4661POPC   C3A61457  14.397  17.715   7.167
 4661POPC   C4A61458  14.606  17.665   7.598
 4661POPC   C1B61459  14.164  17.172   6.262
 4661POPC   C2B61460  14.071  17.247   6.687
 4661POPC   C3B61461  14.338  17.160   7.055
 4661POPC   C4B61462  14.308  17.271   7.483
 4662POPC   NC361463  30.338   2.883   5.639
 4662POPC   PO461464  29.732   3.019   5.415
 4662POPC   GL161465  29.811   2.758   5.824
 4662POPC   GL261466  30.088   2.478   5.856
 4662POPC   C1A61467  29.950   2.846   6.256
 4662POPC   D2A61468  30.178   3.003   6.620
 4662POPC   C3A61469  29.938   3.006   6.962
 4662POPC   C4A61470  30.027   3.035   7.358
 4662POPC   C1B61471  30.265   2.416   6.293
 4662POPC   C2B61472  30.141   2.513   6.765
 4662POPC   C3B61473  30.243   2.430   7.227
 4662POPC   C4B61474  30.386   2.454   7.712
 4663POPC   NC361475  35.239   8.510   5.727
 4663POPC   PO461476  35.269   7.877   5.406
 4663POPC   GL161477  35.332   8.025   5.815
 4663POPC   GL261478  34.993   8.098   5.906
 4663POPC   C1A61479  35.576   8.098   6.210
 4663POPC   D2A61480  35.573   7.989   6.660
 4663POPC   C3A61481  35.269   8.224   6.891
 4663POPC   C4A61482  35.304   8.343   7.301
 4663POPC   C1B61483  34.832   8.313   6.255
 4663POPC   C2B61484  34.800   8.174   6.674
 4663POPC   C3B61485  34.802   8.417   7.034
 4663POPC   C4B61486  34.882   8.554   7.453
 4664POPC   NC361487  30.642  17.983   5.413
 4664POPC   PO461488  30.520  17.306   5.486
 4664POPC   GL161489  30.733  17.450   5.836
 4664POPC   GL261490  30.979  17.670   5.638
 4664POPC   C1A61491  30.653  17.485   6.307
 4664POPC   D2A61492  30.800  17.470   6.747
 4664POPC   C3A61493  30.489  17.397   7.078
 4664POPC   C4A61494  30.564  17.274   7.513
 4664POPC   C1B61495  30.890  17.865   6.054
 4664POPC   C2B61496  30.912  17.905   6.491
 4664POPC   C3B61497  30.870  17.956   6.927
 4664POPC   C4B61498  30.878  17.650   7.275
 4665POPC   NC361499  10.095  35.087   5.502
 4665POPC   PO461500   9.505  35.492   5.493
 4665POPC   GL161501   9.757  35.575   5.830
 4665POPC   GL261502   9.746  35.241   5.865
 4665POPC   C1A61503   9.867  35.536   6.266
 4665POPC   D2A61504   9.707  35.387   6.602
 4665POPC   C3A61505   9.824  35.524   6.983
 4665POPC   C4A61506   9.592  35.330   7.329
 4665POPC   C1B61507   9.740  35.034   6.207
 4665POPC   C2B61508   9.816  34.886   6.571
 4665POPC   C3B61509   9.775  35.016   6.952
 4665POPC   C4B61510   9.654  34.829   7.278
 4666POPC   NC361511  11.223  19.407   5.535
 4666POPC   PO461512  11.582  18.895   5.260
 4666POPC   GL161513  11.471  18.888   5.739
 4666POPC   GL261514  11.411  19.180   5.916
 4666POPC   C1A61515  11.463  18.810   6.228
 4666POPC   D2A61516  11.195  18.851   6.607
 4666POPC   C3A61517  11.313  19.013   7.018
 4666POPC   C4A61518  11.072  18.989   7.407
 4666POPC   C1B61519  11.665  19.316   6.234
 4666POPC   C2B61520  11.528  19.307   6.629
 4666POPC   C3B61521  11.564  19.485   7.012
 4666POPC   C4B61522  11.534  19.297   7.418
 4667POPC   NC361523   2.824  11.698   5.434
 4667POPC   PO461524   3.286  12.233   5.520
 4667POPC   GL161525   3.090  11.946   5.807
 4667POPC   GL261526   2.722  12.005   5.831
 4667POPC   C1A61527   3.106  11.880   6.265
 4667POPC   D2A61528   2.925  12.048   6.676
 4667POPC   C3A61529   3.102  12.077   7.093
 4667POPC   C4A61530   3.021  12.278   7.508
 4667POPC   C1B61531   2.615  12.115   6.258
 4667POPC   C2B61532   2.443  12.242   6.677
 4667POPC   C3B61533   2.661  12.335   7.087
 4667POPC   C4B61534   2.505  12.237   7.493
 4668POPC   NC361535   6.815   3.702   5.417
 4668POPC   PO461536   6.134   3.514   5.379
 4668POPC   GL161537   6.357   3.332   5.755
 4668POPC   GL261538   6.654   3.522   5.873
 4668POPC   C1A61539   6.310   3.371   6.224
 4668POPC   D2A61540   6.149   3.615   6.582
 4668POPC   C3A61541   6.439   3.576   6.946
 4668POPC   C4A61542   6.583   3.450   7.357
 4668POPC   C1B61543   6.772   3.125   6.128
 4668POPC   C2B61544   6.898   3.026   6.591
 4668POPC   C3B61545   6.941   3.246   7.031
 4668POPC   C4B61546   7.081   3.454   7.435
 4669POPC   NC361547   0.302  41.083   5.461
 4669POPC   PO461548   0.660  40.462   5.463
 4669POPC   GL161549   0.458  40.654   5.829
 4669POPC   GL261550   0.121  40.759   5.814
 4669POPC   C1A61551   0.405  40.726   6.281
 4669POPC   D2A61552   0.621  40.615   6.673
 4669POPC   C3A61553   0.684  41.000   6.897
 4669POPC   C4A61554   0.639  41.116   7.328
 4669POPC   C1B61555  44.938  40.519   6.167
 4669POPC   C2B61556   0.041  40.558   6.613
 4669POPC   C3B61557   0.193  40.759   7.003
 4669POPC   C4B61558  44.916  40.655   7.342
 4670POPC   NC361559  11.820  44.830   5.535
 4670POPC   PO461560  12.311  44.367   5.428
 4670POPC   GL161561  12.221  44.632   5.797
 4670POPC   GL261562  12.284   0.002   5.770
 4670POPC   C1A61563  12.180  44.470   6.213
 4670POPC   D2A61564  11.858  44.440   6.504
 4670POPC   C3A61565  11.941  44.647   6.881
 4670POPC   C4A61566  12.045  44.485   7.268
 4670POPC   C1B61567  12.033   0.012   6.183
 4670POPC   C2B61568  11.821   0.096   6.591
 4670POPC   C3B61569  11.704   0.097   7.020
 4670POPC   C4B61570  11.960   0.013   7.328
 4671POPC   NC361571  29.244  27.917   5.317
 4671POPC   PO461572  28.830  27.454   5.306
 4671POPC   GL161573  28.917  27.409   5.746
 4671POPC   GL261574  29.038  27.721   5.780
 4671POPC   C1A61575  29.069  27.455   6.211
 4671POPC   D2A61576  29.230  27.733   6.547
 4671POPC   C3A61577  29.187  27.557   6.948
 4671POPC   C4A61578  28.932  27.279   7.190
 4671POPC   C1B61579  28.938  27.971   6.172
 4671POPC   C2B61580  28.901  28.131   6.587
 4671POPC   C3B61581  29.058  28.041   7.015
 4671POPC   C4B61582  29.032  27.766   7.383
 4672POPC   NC361583  20.322  39.972   5.449
 4672POPC   PO461584  20.934  39.691   5.440
 4672POPC   GL161585  20.707  39.903   5.796
 4672POPC   GL261586  20.648  40.266   5.784
 4672POPC   C1A61587  20.440  39.968   6.184
 4672POPC   D2A61588  20.338  40.173   6.596
 4672POPC   C3A61589  20.339  39.901   6.976
 4672POPC   C4A61590  20.101  39.814   7.300
 4672POPC   C1B61591  20.672  40.442   6.231
 4672POPC   C2B61592  20.854  40.220   6.610
 4672POPC   C3B61593  20.800  40.068   7.054
 4672POPC   C4B61594  20.523  40.076   7.446
 4673POPC   NC361595  25.536  30.912   5.440
 4673POPC   PO461596  25.459  30.311   5.492
 4673POPC   GL161597  25.342  30.609   5.838
 4673POPC   GL261598  25.121  30.925   5.794
 4673POPC   C1A61599  25.387  30.714   6.282
 4673POPC   D2A61600  25.605  30.785   6.695
 4673POPC   C3A61601  25.277  30.795   7.005
 4673POPC   C4A61602  24.980  30.466   7.038
 4673POPC   C1B61603  24.889  30.889   6.183
 4673POPC   C2B61604  24.799  30.838   6.627
 4673POPC   C3B61605  24.748  31.121   6.950
 4673POPC   C4B61606  24.951  31.089   7.354
 4674POPC   NC361607   9.214  36.808   5.225
 4674POPC   PO461608   8.632  36.996   5.285
 4674POPC   GL161609   8.797  36.927   5.744
 4674POPC   GL261610   9.152  36.786   5.762
 4674POPC   C1A61611   8.803  37.118   6.196
 4674POPC   D2A61612   8.684  37.336   6.633
 4674POPC   C3A61613   8.787  37.126   7.060
 4674POPC   C4A61614   8.758  37.283   7.520
 4674POPC   C1B61615   8.965  36.619   6.167
 4674POPC   C2B61616   8.882  36.436   6.584
 4674POPC   C3B61617   9.032  36.625   6.977
 4674POPC   C4B61618   9.323  36.998   7.076
 4675POPC   NC361619   9.370  39.037   5.646
 4675POPC   PO461620   8.742  39.334   5.570
 4675POPC   GL161621   8.933  39.202   5.884
 4675POPC   GL261622   9.179  39.455   5.915
 4675POPC   C1A61623   8.952  39.220   6.317
 4675POPC   D2A61624   8.729  39.180   6.715
 4675POPC   C3A61625   8.992  39.152   7.053
 4675POPC   C4A61626   9.250  38.825   7.242
 4675POPC   C1B61627   9.342  39.568   6.296
 4675POPC   C2B61628   9.113  39.537   6.671
 4675POPC   C3B61629   9.133  39.696   7.032
 4675POPC   C4B61630   9.369  39.468   7.276
 4676POPC   NC361631  37.397  28.881   5.120
 4676POPC   PO461632  37.751  29.305   5.544
 4676POPC   GL161633  37.952  29.131   5.916
 4676POPC   GL261634  37.883  28.829   5.906
 4676POPC   C1A61635  37.929  29.187   6.326
 4676POPC   D2A61636  37.586  29.410   6.440
 4676POPC   C3A61637  37.626  29.452   6.860
 4676POPC   C4A61638  37.301  29.428   7.111
 4676POPC   C1B61639  37.546  28.878   6.261
 4676POPC   C2B61640  37.609  28.961   6.698
 4676POPC   C3B61641  37.775  29.010   7.081
 4676POPC   C4B61642  37.500  28.837   7.373
 4677POPC   NC361643  40.913  36.640   5.376
 4677POPC   PO461644  40.703  37.271   5.430
 4677POPC   GL161645  40.826  37.100   5.830
 4677POPC   GL261646  40.781  36.738   5.859
 4677POPC   C1A61647  40.755  37.026   6.275
 4677POPC   D2A61648  40.988  36.888   6.610
 4677POPC   C3A61649  40.691  37.038   6.918
 4677POPC   C4A61650  40.774  36.970   7.339
 4677POPC   C1B61651  40.680  36.509   6.249
 4677POPC   C2B61652  40.551  36.638   6.629
 4677POPC   C3B61653  40.816  36.554   6.958
 4677POPC   C4B61654  40.639  36.436   7.291
 4678POPC   NC361655   4.283   3.146   5.539
 4678POPC   PO461656   3.978   2.740   5.167
 4678POPC   GL161657   3.984   2.724   5.679
 4678POPC   GL261658   4.246   2.852   5.951
 4678POPC   C1A61659   3.918   2.507   6.103
 4678POPC   D2A61660   3.798   2.650   6.542
 4678POPC   C3A61661   4.157   2.801   6.815
 4678POPC   C4A61662   4.477   2.580   7.096
 4678POPC   C1B61663   4.642   2.892   6.214
 4678POPC   C2B61664   4.666   2.903   6.655
 4678POPC   C3B61665   4.655   3.099   7.062
 4678POPC   C4B61666   4.701   2.888   7.450
 4679POPC   NC361667  26.409  15.397   5.638
 4679POPC   PO461668  25.944  15.060   5.218
 4679POPC   GL161669  25.950  15.199   5.658
 4679POPC   GL261670  26.072  14.942   5.820
 4679POPC   C1A61671  25.928  15.286   6.151
 4679POPC   D2A61672  26.123  15.355   6.582
 4679POPC   C3A61673  25.901  15.261   6.982
 4679POPC   C4A61674  25.540  15.220   7.255
 4679POPC   C1B61675  26.370  15.033   6.188
 4679POPC   C2B61676  26.384  14.919   6.598
 4679POPC   C3B61677  26.378  15.088   7.004
 4679POPC   C4B61678  26.372  14.906   7.414
 4680POPC   NC361679  42.692  19.310   5.363
 4680POPC   PO461680  43.228  18.860   5.545
 4680POPC   GL161681  42.934  19.038   5.787
 4680POPC   GL261682  43.015  18.762   6.006
 4680POPC   C1A61683  42.837  19.208   6.197
 4680POPC   D2A61684  42.955  19.049   6.614
 4680POPC   C3A61685  42.685  19.187   6.953
 4680POPC   C4A61686  42.826  19.362   7.337
 4680POPC   C1B61687  43.346  18.965   6.257
 4680POPC   C2B61688  43.592  18.842   6.616
 4680POPC   C3B61689  43.528  18.947   7.014
 4680POPC   C4B61690  43.106  18.948   7.111
 4681POPC   NC361691   9.883  39.712   5.427
 4681POPC   PO461692   9.854  40.402   5.434
 4681POPC   GL161693   9.822  40.150   5.819
 4681POPC   GL261694  10.141  40.020   5.891
 4681POPC   C1A61695   9.698  39.943   6.237
 4681POPC   D2A61696   9.475  39.924   6.677
 4681POPC   C3A61697   9.522  40.026   7.135
 4681POPC   C4A61698   9.709  39.815   7.494
 4681POPC   C1B61699  10.090  40.300   6.230
 4681POPC   C2B61700   9.889  40.254   6.594
 4681POPC   C3B61701   9.972  40.021   6.903
 4681POPC   C4B61702  10.260  39.879   7.161
 4682POPC   NC361703  29.313  28.646   5.626
 4682POPC   PO461704  28.864  28.188   5.351
 4682POPC   GL161705  29.108  28.212   5.760
 4682POPC   GL261706  28.912  28.402   5.876
 4682POPC   C1A61707  29.267  28.348   6.241
 4682POPC   D2A61708  29.409  28.242   6.681
 4682POPC   C3A61709  29.478  28.440   7.102
 4682POPC   C4A61710  29.384  28.639   7.553
 4682POPC   C1B61711  28.820  28.617   6.246
 4682POPC   C2B61712  28.624  28.573   6.620
 4682POPC   C3B61713  28.970  28.530   6.887
 4682POPC   C4B61714  28.995  28.449   7.296
 4683POPC   NC361715  27.902  28.375   5.711
 4683POPC   PO461716  27.371  28.452   5.300
 4683POPC   GL161717  27.454  28.608   5.761
 4683POPC   GL261718  27.317  28.329   5.961
 4683POPC   C1A61719  27.654  28.608   6.222
 4683POPC   D2A61720  27.452  28.643   6.563
 4683POPC   C3A61721  27.243  28.365   6.805
 4683POPC   C4A61722  27.496  28.490   7.109
 4683POPC   C1B61723  27.458  28.150   6.378
 4683POPC   C2B61724  27.709  28.129   6.774
 4683POPC   C3B61725  27.737  28.048   7.221
 4683POPC   C4B61726  27.781  27.981   7.652
 4684POPC   NC361727   2.364  40.816   5.471
 4684POPC   PO461728   2.978  40.547   5.419
 4684POPC   GL161729   2.969  40.609   5.862
 4684POPC   GL261730   2.626  40.688   5.904
 4684POPC   C1A61731   2.938  40.708   6.316
 4684POPC   D2A61732   2.718  40.755   6.673
 4684POPC   C3A61733   2.882  40.780   7.070
 4684POPC   C4A61734   2.882  41.011   7.409
 4684POPC   C1B61735   2.380  40.643   6.292
 4684POPC   C2B61736   2.293  40.422   6.646
 4684POPC   C3B61737   2.489  40.412   6.989
 4684POPC   C4B61738   2.466  40.488   7.371
 4685POPC   NC361739  44.006  25.243   5.527
 4685POPC   PO461740  43.574  24.720   5.472
 4685POPC   GL161741  43.668  24.492   5.837
 4685POPC   GL261742  43.996  24.305   5.817
 4685POPC   C1A61743  43.739  24.665   6.244
 4685POPC   D2A61744  43.963  24.674   6.663
 4685POPC   C3A61745  43.876  24.373   6.996
 4685POPC   C4A61746  44.115  23.965   7.080
 4685POPC   C1B61747  44.144  24.370   6.249
 4685POPC   C2B61748  44.269  24.250   6.679
 4685POPC   C3B61749  44.393  24.414   7.097
 4685POPC   C4B61750  44.561  24.559   7.513
 4686POPC   NC361751   1.282  39.138   5.184
 4686POPC   PO461752   0.785  39.522   5.260
 4686POPC   GL161753   1.058  39.254   5.639
 4686POPC   GL261754   1.445  39.109   5.688
 4686POPC   C1A61755   1.166  39.330   6.124
 4686POPC   D2A61756   1.062  39.570   6.554
 4686POPC   C3A61757   1.026  39.407   7.000
 4686POPC   C4A61758   0.803  39.469   7.410
 4686POPC   C1B61759   1.662  39.214   6.101
 4686POPC   C2B61760   1.502  39.248   6.540
 4686POPC   C3B61761   1.463  39.165   6.974
 4686POPC   C4B61762   1.594  39.388   7.325
 4687POPC   NC361763  14.233  22.039   5.547
 4687POPC   PO461764  14.823  22.242   5.379
 4687POPC   GL161765  14.631  22.191   5.804
 4687POPC   GL261766  14.458  22.480   5.879
 4687POPC   C1A61767  14.350  22.090   6.198
 4687POPC   D2A61768  14.151  22.126   6.621
 4687POPC   C3A61769  14.378  21.991   7.011
 4687POPC   C4A61770  14.576  21.679   7.320
 4687POPC   C1B61771  14.381  22.595   6.301
 4687POPC   C2B61772  14.511  22.526   6.697
 4687POPC   C3B61773  14.806  22.591   6.988
 4687POPC   C4B61774  14.674  22.594   7.408
 4688POPC   NC361775  17.744  40.547   5.505
 4688POPC   PO461776  17.230  41.038   5.376
 4688POPC   GL161777  17.366  40.826   5.745
 4688POPC   GL261778  17.670  41.044   5.734
 4688POPC   C1A61779  17.476  40.648   6.180
 4688POPC   D2A61780  17.735  40.525   6.558
 4688POPC   C3A61781  17.636  40.558   7.012
 4688POPC   C4A61782  17.246  40.616   7.247
 4688POPC   C1B61783  17.740  41.104   6.178
 4688POPC   C2B61784  17.478  41.055   6.538
 4688POPC   C3B61785  17.443  41.031   6.965
 4688POPC   C4B61786  17.822  41.231   7.096
 4689POPC   NC361787  29.515   3.493   5.562
 4689POPC   PO461788  28.910   3.243   5.398
 4689POPC   GL161789  29.084   3.312   5.801
 4689POPC   GL261790  29.353   3.050   5.805
 4689POPC   C1A61791  29.151   3.586   6.174
 4689POPC   D2A61792  29.441   3.738   6.481
 4689POPC   C3A61793  29.280   3.952   6.843
 4689POPC   C4A61794  29.347   3.822   7.262
 4689POPC   C1B61795  29.483   3.189   6.192
 4689POPC   C2B61796  29.252   3.243   6.573
 4689POPC   C3B61797  29.185   3.443   6.948
 4689POPC   C4B61798  29.184   3.344   7.369
 4690POPC   NC361799   3.595  28.649   5.309
 4690POPC   PO461800   3.230  28.246   5.415
 4690POPC   GL161801   3.457  28.444   5.805
 4690POPC   GL261802   3.356  28.773   5.821
 4690POPC   C1A61803   3.651  28.557   6.261
 4690POPC   D2A61804   3.758  28.839   6.670
 4690POPC   C3A61805   3.707  28.608   7.109
 4690POPC   C4A61806   3.893  28.440   7.516
 4690POPC   C1B61807   3.177  28.737   6.265
 4690POPC   C2B61808   3.310  28.599   6.688
 4690POPC   C3B61809   3.172  28.492   7.110
 4690POPC   C4B61810   3.001  28.262   7.485
 4691POPC   NC361811  37.405   9.730   5.488
 4691POPC   PO461812  37.913   9.448   5.615
 4691POPC   GL161813  37.654   9.674   5.938
 4691POPC   GL261814  37.336   9.892   5.950
 4691POPC   C1A61815  37.469   9.586   6.334
 4691POPC   D2A61816  37.486   9.796   6.754
 4691POPC   C3A61817  37.618   9.496   7.083
 4691POPC   C4A61818  38.067   9.522   7.195
 4691POPC   C1B61819  37.438  10.101   6.306
 4691POPC   C2B61820  37.279  10.293   6.666
 4691POPC   C3B61821  37.583  10.286   6.951
 4691POPC   C4B61822  37.705   9.970   7.214
 4692POPC   NC361823  44.635   4.145   5.296
 4692POPC   PO461824  44.813   4.627   5.703
 4692POPC   GL161825  44.887   4.295   5.914
 4692POPC   GL261826  44.760   3.976   5.823
 4692POPC   C1A61827  44.786   4.280   6.309
 4692POPC   D2A61828  44.909   4.432   6.660
 4692POPC   C3A61829  44.596   4.444   6.946
 4692POPC   C4A61830  44.827   4.260   7.249
 4692POPC   C1B61831  44.577   3.822   6.236
 4692POPC   C2B61832  44.609   3.987   6.689
 4692POPC   C3B61833  44.400   3.990   7.135
 4692POPC   C4B61834  44.288   3.758   7.540
 4693POPC   NC361835  11.907  15.178   5.510
 4693POPC   PO461836  12.504  14.852   5.513
 4693POPC   GL161837  12.237  14.893   5.871
 4693POPC   GL261838  12.049  15.210   5.997
 4693POPC   C1A61839  12.303  14.857   6.317
 4693POPC   D2A61840  12.315  14.890   6.779
 4693POPC   C3A61841  12.064  15.267   6.924
 4693POPC   C4A61842  11.862  15.644   7.113
 4693POPC   C1B61843  11.786  14.870   6.130
 4693POPC   C2B61844  11.836  14.708   6.526
 4693POPC   C3B61845  11.790  14.809   6.938
 4693POPC   C4B61846  12.100  14.857   7.264
 4694POPC   NC361847  21.982  22.762   5.448
 4694POPC   PO461848  21.317  23.061   5.370
 4694POPC   GL161849  21.419  23.099   5.770
 4694POPC   GL261850  21.087  23.203   5.903
 4694POPC   C1A61851  21.427  22.924   6.192
 4694POPC   D2A61852  21.329  22.705   6.590
 4694POPC   C3A61853  21.374  22.818   7.018
 4694POPC   C4A61854  21.399  22.747   7.452
 4694POPC   C1B61855  21.020  23.201   6.369
 4694POPC   C2B61856  20.984  23.137   6.842
 4694POPC   C3B61857  20.736  23.135   7.256
 4694POPC   C4B61858  20.894  22.997   7.677
 4695POPC   NC361859  40.524   6.755   5.264
 4695POPC   PO461860  41.146   7.022   5.236
 4695POPC   GL161861  40.935   6.801   5.605
 4695POPC   GL261862  40.940   7.040   5.852
 4695POPC   C1A61863  40.746   6.577   5.996
 4695POPC   D2A61864  40.683   6.256   6.346
 4695POPC   C3A61865  40.662   6.475   6.756
 4695POPC   C4A61866  40.821   6.631   7.169
 4695POPC   C1B61867  40.762   7.053   6.283
 4695POPC   C2B61868  40.931   6.961   6.695
 4695POPC   C3B61869  41.217   6.898   7.037
 4695POPC   C4B61870  41.181   6.793   7.517
 4696POPC   NC361871  30.404   5.848   5.422
 4696POPC   PO461872  31.075   5.690   5.468
 4696POPC   GL161873  30.774   5.774   5.767
 4696POPC   GL261874  30.751   6.129   5.736
 4696POPC   C1A61875  30.590   5.898   6.149
 4696POPC   D2A61876  30.559   5.757   6.564
 4696POPC   C3A61877  30.742   5.720   6.950
 4696POPC   C4A61878  30.427   5.673   7.223
 4696POPC   C1B61879  30.924   6.321   6.108
 4696POPC   C2B61880  30.756   6.232   6.516
 4696POPC   C3B61881  30.560   6.202   6.901
 4696POPC   C4B61882  30.696   6.112   7.283
 4697POPC   NC361883  40.943  17.248   5.375
 4697POPC   PO461884  40.505  17.712   5.234
 4697POPC   GL161885  40.611  17.506   5.658
 4697POPC   GL261886  40.932  17.641   5.748
 4697POPC   C1A61887  40.816  17.289   6.076
 4697POPC   D2A61888  40.731  17.446   6.484
 4697POPC   C3A61889  40.756  17.232   6.836
 4697POPC   C4A61890  40.842  17.191   7.235
 4697POPC   C1B61891  40.865  17.812   6.144
 4697POPC   C2B61892  41.038  17.855   6.547
 4697POPC   C3B61893  40.850  17.737   6.926
 4697POPC   C4B61894  41.022  17.729   7.295
 4698POPC   NC361895   7.302  18.677   5.357
 4698POPC   PO461896   7.634  18.079   5.084
 4698POPC   GL161897   7.655  18.139   5.619
 4698POPC   GL261898   7.339  18.311   5.837
 4698POPC   C1A61899   7.653  18.039   6.122
 4698POPC   D2A61900   7.446  18.093   6.579
 4698POPC   C3A61901   7.455  18.138   7.069
 4698POPC   C4A61902   7.348  18.092   7.538
 4698POPC   C1B61903   7.426  18.498   6.251
 4698POPC   C2B61904   7.537  18.689   6.645
 4698POPC   C3B61905   7.389  18.652   7.059
 4698POPC   C4B61906   7.536  18.546   7.446
 4699POPC   NC361907  12.324   2.076   5.366
 4699POPC   PO461908  11.959   1.636   5.133
 4699POPC   GL161909  11.830   1.916   5.564
 4699POPC   GL261910  11.998   2.253   5.720
 4699POPC   C1A61911  11.783   1.900   6.042
 4699POPC   D2A61912  12.029   1.860   6.452
 4699POPC   C3A61913  11.801   1.882   6.826
 4699POPC   C4A61914  11.938   1.876   7.243
 4699POPC   C1B61915  12.115   2.311   6.170
 4699POPC   C2B61916  11.936   2.340   6.596
 4699POPC   C3B61917  12.046   2.336   7.026
 4699POPC   C4B61918  12.172   2.265   7.463
 4700POPC   NC361919  14.402  40.369   5.495
 4700POPC   PO461920  14.177  39.735   5.617
 4700POPC   GL161921  14.578  39.971   5.767
 4700POPC   GL261922  14.325  40.162   5.958
 4700POPC   C1A61923  14.771  40.180   6.179
 4700POPC   D2A61924  14.538  40.293   6.589
 4700POPC   C3A61925  14.667  40.430   7.037
 4700POPC   C4A61926  14.568  40.270   7.469
 4700POPC   C1B61927  14.453  39.773   6.206
 4700POPC   C2B61928  14.284  39.684   6.568
 4700POPC   C3B61929  14.381  39.929   6.915
 4700POPC   C4B61930  14.286  39.835   7.310
 4701POPC   NC361931   6.034  35.578   5.543
 4701POPC   PO461932   5.544  35.230   5.189
 4701POPC   GL161933   5.672  35.231   5.657
 4701POPC   GL261934   5.950  35.339   5.969
 4701POPC   C1A61935   5.510  35.104   6.049
 4701POPC   D2A61936   5.762  35.124   6.430
 4701POPC   C3A61937   5.716  35.368   6.801
 4701POPC   C4A61938   5.758  35.237   7.247
 4701POPC   C1B61939   6.185  35.652   6.226
 4701POPC   C2B61940   6.172  35.801   6.671
 4701POPC   C3B61941   6.089  35.574   7.072
 4701POPC   C4B61942   6.129  35.636   7.551
 4702POPC   NC361943  37.299  15.233   5.393
 4702POPC   PO461944  37.982  14.998   5.412
 4702POPC   GL161945  37.740  15.139   5.737
 4702POPC   GL261946  37.474  14.916   5.810
 4702POPC   C1A61947  37.874  15.352   6.118
 4702POPC   D2A61948  38.047  15.237   6.513
 4702POPC   C3A61949  37.815  15.308   6.894
 4702POPC   C4A61950  37.881  15.585   7.225
 4702POPC   C1B61951  37.371  15.221   6.130
 4702POPC   C2B61952  37.437  15.146   6.555
 4702POPC   C3B61953  37.293  15.267   6.955
 4702POPC   C4B61954  37.392  15.497   7.281
 4703POPC   NC361955  10.701  22.245   5.233
 4703POPC   PO461956  10.061  21.979   5.184
 4703POPC   GL161957  10.371  22.096   5.603
 4703POPC   GL261958  10.786  22.041   5.702
 4703POPC   C1A61959  10.423  22.115   6.068
 4703POPC   D2A61960  10.364  22.305   6.478
 4703POPC   C3A61961  10.261  22.096   6.875
 4703POPC   C4A61962  10.485  22.184   7.267
 4703POPC   C1B61963  10.831  21.785   6.090
 4703POPC   C2B61964  10.728  21.918   6.479
 4703POPC   C3B61965  10.740  21.907   6.897
 4703POPC   C4B61966  10.789  21.792   7.290
 4704POPC   NC361967  11.126  22.986   5.090
 4704POPC   PO461968  10.680  23.336   5.491
 4704POPC   GL161969  10.564  23.366   5.878
 4704POPC   GL261970  10.669  23.694   5.959
 4704POPC   C1A61971  10.414  23.413   6.299
 4704POPC   D2A61972  10.483  23.714   6.613
 4704POPC   C3A61973  10.509  23.590   7.044
 4704POPC   C4A61974  10.640  23.413   7.455
 4704POPC   C1B61975  10.900  23.857   6.301
 4704POPC   C2B61976  10.985  23.718   6.692
 4704POPC   C3B61977  10.886  23.931   7.032
 4704POPC   C4B61978  11.025  23.711   7.338
 4705POPC   NC361979   9.403  37.447   5.563
 4705POPC   PO461980   8.823  37.668   5.513
 4705POPC   GL161981   9.018  37.605   5.885
 4705POPC   GL261982   9.184  37.893   5.907
 4705POPC   C1A61983   9.241  37.398   6.219
 4705POPC   D2A61984   9.181  37.167   6.597
 4705POPC   C3A61985   9.134  37.473   6.912
 4705POPC   C4A61986   8.798  37.675   7.167
 4705POPC   C1B61987   9.013  37.899   6.332
 4705POPC   C2B61988   8.669  37.875   6.648
 4705POPC   C3B61989   8.624  38.133   7.017
 4705POPC   C4B61990   8.655  38.151   7.485
 4706POPC   NC361991  36.352  36.240   5.338
 4706POPC   PO461992  35.687  35.927   5.406
 4706POPC   GL161993  36.034  35.922   5.749
 4706POPC   GL261994  36.121  36.259   5.794
 4706POPC   C1A61995  36.297  35.940   6.153
 4706POPC   D2A61996  36.467  36.177   6.522
 4706POPC   C3A61997  36.212  36.047   6.880
 4706POPC   C4A61998  36.067  35.666   7.072
 4706POPC   C1B61999  35.938  36.459   6.155
 4706POPC   C2B62000  35.997  36.605   6.574
 4706POPC   C3B62001  35.954  36.474   6.999
 4706POPC   C4B62002  36.311  36.400   7.257
 4707POPC   NC362003   8.694  34.099   5.531
 4707POPC   PO462004   9.057  34.670   5.519
 4707POPC   GL162005   8.871  34.470   5.848
 4707POPC   GL262006   9.184  34.431   5.982
 4707POPC   C1A62007   8.725  34.590   6.253
 4707POPC   D2A62008   8.905  34.769   6.601
 4707POPC   C3A62009   8.991  34.424   6.879
 4707POPC   C4A62010   8.799  34.333   7.273
 4707POPC   C1B62011   9.274  34.877   6.099
 4707POPC   C2B62012   9.296  35.091   6.510
 4707POPC   C3B62013   9.276  34.934   6.917
 4707POPC   C4B62014   9.186  34.666   7.280
 4708POPC   NC362015  39.685  15.214   5.387
 4708POPC   PO462016  40.118  14.792   5.332
 4708POPC   GL162017  40.112  15.058   5.735
 4708POPC   GL262018  39.774  15.134   5.880
 4708POPC   C1A62019  40.141  15.068   6.216
 4708POPC   D2A62020  40.143  14.810   6.572
 4708POPC   C3A62021  40.239  14.949   6.966
 4708POPC   C4A62022  40.215  15.285   7.189
 4708POPC   C1B62023  39.668  15.304   6.288
 4708POPC   C2B62024  39.863  15.228   6.681
 4708POPC   C3B62025  39.718  15.176   7.078
 4708POPC   C4B62026  39.798  15.404   7.441
 4709POPC   NC362027  20.219  28.562   5.418
 4709POPC   PO462028  20.664  28.038   5.489
 4709POPC   GL162029  20.593  28.352   5.816
 4709POPC   GL262030  20.258  28.240   5.829
 4709POPC   C1A62031  20.392  28.623   6.159
 4709POPC   D2A62032  20.383  28.773   6.615
 4709POPC   C3A62033  20.344  28.491   6.967
 4709POPC   C4A62034  20.635  28.325   7.265
 4709POPC   C1B62035  20.259  28.145   6.257
 4709POPC   C2B62036  20.390  28.066   6.664
 4709POPC   C3B62037  20.322  27.938   7.087
 4709POPC   C4B62038  20.218  27.998   7.505
 4710POPC   NC362039  32.615  15.274   5.339
 4710POPC   PO462040  33.138  14.869   5.457
 4710POPC   GL162041  33.108  15.118   5.804
 4710POPC   GL262042  32.890  15.405   5.779
 4710POPC   C1A62043  33.030  14.981   6.187
 4710POPC   D2A62044  32.837  15.046   6.555
 4710POPC   C3A62045  32.969  15.268   6.884
 4710POPC   C4A62046  33.076  15.168   7.259
 4710POPC   C1B62047  33.039  15.526   6.200
 4710POPC   C2B62048  33.082  15.686   6.638
 4710POPC   C3B62049  33.079  15.683   7.160
 4710POPC   C4B62050  33.292  15.477   7.580
 4711POPC   NC362051  42.209  29.623   5.429
 4711POPC   PO462052  42.259  30.317   5.448
 4711POPC   GL162053  42.197  30.120   5.841
 4711POPC   GL262054  41.897  29.919   5.732
 4711POPC   C1A62055  42.527  29.917   6.148
 4711POPC   D2A62056  42.655  29.634   6.515
 4711POPC   C3A62057  42.595  29.871   6.905
 4711POPC   C4A62058  42.438  29.923   7.307
 4711POPC   C1B62059  42.046  29.706   6.123
 4711POPC   C2B62060  42.185  29.873   6.532
 4711POPC   C3B62061  42.094  30.003   6.949
 4711POPC   C4B62062  41.963  29.759   7.305
 4712POPC   NC362063  27.090  43.905   5.415
 4712POPC   PO462064  26.402  43.969   5.371
 4712POPC   GL162065  26.688  44.111   5.719
 4712POPC   GL262066  26.994  44.309   5.708
 4712POPC   C1A62067  26.716  43.990   6.154
 4712POPC   D2A62068  26.550  43.834   6.530
 4712POPC   C3A62069  26.650  43.802   6.954
 4712POPC   C4A62070  27.058  43.749   7.148
 4712POPC   C1B62071  27.192  44.209   6.128
 4712POPC   C2B62072  27.035  44.073   6.557
 4712POPC   C3B62073  26.967  44.228   6.967
 4712POPC   C4B62074  27.224  44.401   7.277
 4713POPC   NC362075   4.878  10.062   5.649
 4713POPC   PO462076   5.321   9.780   5.071
 4713POPC   GL162077   5.122   9.611   5.589
 4713POPC   GL262078   5.319   9.418   5.875
 4713POPC   C1A62079   4.939   9.640   6.107
 4713POPC   D2A62080   4.754   9.683   6.551
 4713POPC   C3A62081   4.874   9.975   6.855
 4713POPC   C4A62082   5.124   9.729   7.180
 4713POPC   C1B62083   5.346   9.502   6.367
 4713POPC   C2B62084   5.289   9.374   6.804
 4713POPC   C3B62085   5.364   9.273   7.249
 4713POPC   C4B62086   5.312   9.483   7.647
 4714POPC   NC362087  37.351   7.513   5.307
 4714POPC   PO462088  36.758   7.258   5.305
 4714POPC   GL162089  36.988   7.376   5.655
 4714POPC   GL262090  37.128   7.123   5.784
 4714POPC   C1A62091  37.001   7.533   6.093
 4714POPC   D2A62092  36.745   7.549   6.477
 4714POPC   C3A62093  36.927   7.664   6.898
 4714POPC   C4A62094  36.817   7.693   7.372
 4714POPC   C1B62095  37.278   7.109   6.205
 4714POPC   C2B62096  37.321   6.987   6.630
 4714POPC   C3B62097  37.071   7.188   6.927
 4714POPC   C4B62098  37.065   7.279   7.365
 4715POPC   NC362099   2.493  20.161   5.390
 4715POPC   PO462100   2.997  19.651   5.385
 4715POPC   GL162101   2.695  19.773   5.730
 4715POPC   GL262102   2.975  19.895   5.882
 4715POPC   C1A62103   2.594  19.987   6.180
 4715POPC   D2A62104   2.678  20.104   6.619
 4715POPC   C3A62105   3.074  20.090   6.828
 4715POPC   C4A62106   2.936  19.895   7.185
 4715POPC   C1B62107   2.864  19.564   6.239
 4715POPC   C2B62108   2.840  19.611   6.712
 4715POPC   C3B62109   2.871  19.387   7.111
 4715POPC   C4B62110   3.154  19.285   7.432
 4716POPC   NC362111  43.793  43.292   5.577
 4716POPC   PO462112  44.192  43.772   5.215
 4716POPC   GL162113  43.992  43.811   5.657
 4716POPC   GL262114  43.663  43.943   5.833
 4716POPC   C1A62115  44.078  43.897   6.104
 4716POPC   D2A62116  43.977  44.145   6.481
 4716POPC   C3A62117  44.065  43.994   6.914
 4716POPC   C4A62118  43.842  43.882   7.306
 4716POPC   C1B62119  43.655  43.616   6.163
 4716POPC   C2B62120  43.823  43.669   6.572
 4716POPC   C3B62121  43.561  43.843   6.884
 4716POPC   C4B62122  43.429  43.542   7.161
 4717POPC   NC362123  20.824  43.249   5.305
 4717POPC   PO462124  21.402  42.917   5.443
 4717POPC   GL162125  21.396  43.195   5.804
 4717POPC   GL262126  21.146  42.987   5.892
 4717POPC   C1A62127  21.506  43.141   6.254
 4717POPC   D2A62128  21.308  43.249   6.657
 4717POPC   C3A62129  21.530  43.235   7.045
 4717POPC   C4A62130  21.466  43.121   7.492
 4717POPC   C1B62131  21.159  42.764   6.249
 4717POPC   C2B62132  20.963  42.821   6.621
 4717POPC   C3B62133  21.025  42.983   7.010
 4717POPC   C4B62134  21.047  42.809   7.428
 4718POPC   NC362135  43.482  37.460   5.356
 4718POPC   PO462136  42.787  37.419   5.394
 4718POPC   GL162137  42.955  37.449   5.797
 4718POPC   GL262138  43.247  37.646   5.805
 4718POPC   C1A62139  43.225  37.278   6.148
 4718POPC   D2A62140  43.410  37.382   6.522
 4718POPC   C3A62141  43.230  37.407   6.902
 4718POPC   C4A62142  43.066  37.336   7.313
 4718POPC   C1B62143  43.178  37.785   6.255
 4718POPC   C2B62144  43.283  37.905   6.689
 4718POPC   C3B62145  43.238  37.851   7.146
 4718POPC   C4B62146  43.235  37.744   7.589
 4719POPC   NC362147   4.760   5.300   5.351
 4719POPC   PO462148   4.107   4.987   5.442
 4719POPC   GL162149   4.362   5.107   5.773
 4719POPC   GL262150   4.667   4.925   5.706
 4719POPC   C1A62151   4.254   5.066   6.213
 4719POPC   D2A62152   4.266   5.293   6.600
 4719POPC   C3A62153   4.320   5.184   7.030
 4719POPC   C4A62154   4.103   5.474   7.258
 4719POPC   C1B62155   4.766   5.010   6.157
 4719POPC   C2B62156   4.775   5.208   6.582
 4719POPC   C3B62157   4.817   5.039   7.012
 4719POPC   C4B62158   4.703   5.100   7.469
 4720POPC   NC362159  30.920  35.772   5.474
 4720POPC   PO462160  30.480  36.242   5.605
 4720POPC   GL162161  30.774  36.089   5.879
 4720POPC   GL262162  30.999  36.333   5.882
 4720POPC   C1A62163  30.711  35.970   6.322
 4720POPC   D2A62164  30.693  35.798   6.760
 4720POPC   C3A62165  30.519  36.059   7.079
 4720POPC   C4A62166  30.447  35.916   7.484
 4720POPC   C1B62167  31.179  36.144   6.242
 4720POPC   C2B62168  31.082  36.143   6.673
 4720POPC   C3B62169  31.033  36.155   7.099
 4720POPC   C4B62170  30.887  36.206   7.538
 4721POPC   NC362171  17.406  39.674   5.155
 4721POPC   PO462172  17.346  40.279   5.582
 4721POPC   GL162173  17.416  40.016   5.882
 4721POPC   GL262174  17.629  39.840   5.656
 4721POPC   C1A62175  17.521  40.103   6.313
 4721POPC   D2A62176  17.764  40.011   6.653
 4721POPC   C3A62177  17.486  40.073   6.915
 4721POPC   C4A62178  17.431  40.119   7.301
 4721POPC   C1B62179  17.812  39.761   6.095
 4721POPC   C2B62180  18.031  39.628   6.448
 4721POPC   C3B62181  17.843  39.525   6.811
 4721POPC   C4B62182  17.733  39.711   7.196
 4722POPC   NC362183  24.699  44.068   5.348
 4722POPC   PO462184  24.057  43.890   5.423
 4722POPC   GL162185  24.362  43.929   5.780
 4722POPC   GL262186  24.628  43.662   5.807
 4722POPC   C1A62187  24.419  44.099   6.226
 4722POPC   D2A62188  24.204  44.180   6.634
 4722POPC   C3A62189  24.331  44.032   7.018
 4722POPC   C4A62190  24.783  44.020   7.124
 4722POPC   C1B62191  24.412  43.589   6.200
 4722POPC   C2B62192  24.502  43.745   6.621
 4722POPC   C3B62193  24.560  43.581   7.061
 4722POPC   C4B62194  24.451  43.788   7.453
 4723POPC   NC362195   1.628   3.751   5.596
 4723POPC   PO462196   2.223   3.345   5.467
 4723POPC   GL162197   2.080   3.564   5.829
 4723POPC   GL262198   1.771   3.459   6.008
 4723POPC   C1A62199   2.259   3.713   6.206
 4723POPC   D2A62200   2.150   3.861   6.602
 4723POPC   C3A62201   1.978   3.544   6.843
 4723POPC   C4A62202   2.120   3.603   7.232
 4723POPC   C1B62203   1.736   3.808   6.286
 4723POPC   C2B62204   1.620   3.997   6.698
 4723POPC   C3B62205   1.655   3.849   7.142
 4723POPC   C4B62206   1.646   3.375   7.245
 4724POPC   NC362207  41.997  41.446   5.512
 4724POPC   PO462208  41.351  41.193   5.323
 4724POPC   GL162209  41.512  41.477   5.705
 4724POPC   GL262210  41.361  41.835   5.766
 4724POPC   C1A62211  41.558  41.444   6.157
 4724POPC   D2A62212  41.483  41.165   6.534
 4724POPC   C3A62213  41.571  41.405   6.902
 4724POPC   C4A62214  41.567  41.308   7.313
 4724POPC   C1B62215  41.193  41.815   6.168
 4724POPC   C2B62216  41.247  41.650   6.582
 4724POPC   C3B62217  41.133  41.815   6.973
 4724POPC   C4B62218  41.409  41.781   7.293
 4725POPC   NC362219  16.398  33.762   5.461
 4725POPC   PO462220  15.823  33.500   5.152
 4725POPC   GL162221  15.839  33.649   5.663
 4725POPC   GL262222  15.806  33.415   5.901
 4725POPC   C1A62223  16.090  33.881   6.053
 4725POPC   D2A62224  16.233  33.922   6.530
 4725POPC   C3A62225  15.927  34.030   6.892
 4725POPC   C4A62226  15.773  34.039   7.341
 4725POPC   C1B62227  15.995  33.478   6.322
 4725POPC   C2B62228  15.717  33.530   6.670
 4725POPC   C3B62229  15.770  33.456   7.095
 4725POPC   C4B62230  16.134  33.681   7.223
 4726POPC   NC362231  11.839  24.393   5.358
 4726POPC   PO462232  12.288  24.888   5.433
 4726POPC   GL162233  12.269  24.465   5.700
 4726POPC   GL262234  11.926  24.381   5.861
 4726POPC   C1A62235  12.337  24.227   6.113
 4726POPC   D2A62236  12.221  24.387   6.530
 4726POPC   C3A62237  12.209  24.571   6.958
 4726POPC   C4A62238  11.969  24.849   7.216
 4726POPC   C1B62239  11.719  24.311   6.282
 4726POPC   C2B62240  11.798  24.186   6.723
 4726POPC   C3B62241  11.733  24.389   7.136
 4726POPC   C4B62242  11.674  24.178   7.565
 4727POPC   NC362243  23.904   2.620   5.158
 4727POPC   PO462244  23.557   3.023   5.334
 4727POPC   GL162245  23.704   2.957   5.780
 4727POPC   GL262246  23.427   2.799   5.959
 4727POPC   C1A62247  23.791   2.918   6.269
 4727POPC   D2A62248  23.538   2.708   6.627
 4727POPC   C3A62249  23.623   2.815   7.092
 4727POPC   C4A62250  23.372   2.830   7.494
 4727POPC   C1B62251  23.590   2.430   6.150
 4727POPC   C2B62252  23.670   2.191   6.522
 4727POPC   C3B62253  23.734   2.333   6.930
 4727POPC   C4B62254  24.083   2.550   7.147
 4728POPC   NC362255  14.805  14.163   5.501
 4728POPC   PO462256  15.162  14.719   5.229
 4728POPC   GL162257  15.186  14.526   5.734
 4728POPC   GL262258  15.481  14.277   5.872
 4728POPC   C1A62259  15.164  14.564   6.199
 4728POPC   D2A62260  15.439  14.751   6.518
 4728POPC   C3A62261  15.363  14.608   6.952
 4728POPC   C4A62262  14.996  14.711   7.180
 4728POPC   C1B62263  15.281  14.030   6.228
 4728POPC   C2B62264  15.085  14.105   6.647
 4728POPC   C3B62265  15.022  14.178   7.112
 4728POPC   C4B62266  15.271  14.143   7.531
 4729POPC   NC362267  35.266  10.136   5.494
 4729POPC   PO462268  35.264   9.356   5.466
 4729POPC   GL162269  35.292   9.497   5.894
 4729POPC   GL262270  35.621   9.445   5.926
 4729POPC   C1A62271  35.210   9.829   6.222
 4729POPC   D2A62272  35.348  10.041   6.617
 4729POPC   C3A62273  35.159   9.929   7.018
 4729POPC   C4A62274  34.944  10.082   7.370
 4729POPC   C1B62275  35.535   9.451   6.370
 4729POPC   C2B62276  35.457   9.570   6.799
 4729POPC   C3B62277  35.631   9.723   7.216
 4729POPC   C4B62278  35.592   9.505   7.634
 4730POPC   NC362279  13.443  23.249   5.293
 4730POPC   PO462280  13.602  22.576   5.314
 4730POPC   GL162281  13.620  22.770   5.802
 4730POPC   GL262282  13.641  23.116   5.766
 4730POPC   C1A62283  13.423  22.824   6.202
 4730POPC   D2A62284  13.243  23.018   6.572
 4730POPC   C3A62285  13.428  22.919   6.973
 4730POPC   C4A62286  13.694  22.593   7.175
 4730POPC   C1B62287  13.795  23.165   6.176
 4730POPC   C2B62288  13.787  23.048   6.605
 4730POPC   C3B62289  13.937  23.018   7.026
 4730POPC   C4B62290  13.705  23.070   7.407
 4731POPC   NC362291  37.489  28.926   5.630
 4731POPC   PO462292  37.064  29.384   5.427
 4731POPC   GL162293  37.051  29.275   5.834
 4731POPC   GL262294  37.101  28.927   5.938
 4731POPC   C1A62295  37.091  29.365   6.249
 4731POPC   D2A62296  37.155  29.135   6.596
 4731POPC   C3A62297  36.866  29.212   6.897
 4731POPC   C4A62298  36.807  29.533   7.179
 4731POPC   C1B62299  36.927  28.744   6.268
 4731POPC   C2B62300  36.874  28.710   6.671
 4731POPC   C3B62301  37.160  28.793   6.991
 4731POPC   C4B62302  37.047  29.040   7.347
 4732POPC   NC362303  28.053  22.806   5.293
 4732POPC   PO462304  28.614  23.107   5.557
 4732POPC   GL162305  28.331  23.008   5.880
 4732POPC   GL262306  28.115  22.731   5.822
 4732POPC   C1A62307  28.350  23.099   6.310
 4732POPC   D2A62308  28.567  22.904   6.628
 4732POPC   C3A62309  28.420  23.011   7.005
 4732POPC   C4A62310  28.127  23.321   7.022
 4732POPC   C1B62311  28.031  22.676   6.247
 4732POPC   C2B62312  27.941  22.913   6.621
 4732POPC   C3B62313  28.018  22.713   7.003
 4732POPC   C4B62314  27.976  22.578   7.386
 4733POPC   NC362315  15.384   7.416   5.142
 4733POPC   PO462316  15.003   7.330   5.688
 4733POPC   GL162317  15.391   7.390   5.891
 4733POPC   GL262318  15.498   7.743   5.802
 4733POPC   C1A62319  15.421   7.240   6.324
 4733POPC   D2A62320  15.378   7.450   6.743
 4733POPC   C3A62321  15.280   7.234   7.153
 4733POPC   C4A62322  15.157   7.406   7.601
 4733POPC   C1B62323  15.359   7.764   6.273
 4733POPC   C2B62324  15.081   7.847   6.649
 4733POPC   C3B62325  15.083   7.726   7.089
 4733POPC   C4B62326  15.133   7.979   7.449
 4734POPC   NC362327  37.834  10.647   5.521
 4734POPC   PO462328  37.297  10.196   5.524
 4734POPC   GL162329  37.678  10.223   5.784
 4734POPC   GL262330  37.504  10.506   5.948
 4734POPC   C1A62331  37.902  10.288   6.197
 4734POPC   D2A62332  37.721  10.564   6.520
 4734POPC   C3A62333  37.871  10.704   6.949
 4734POPC   C4A62334  38.008  10.372   7.223
 4734POPC   C1B62335  37.308  10.780   6.287
 4734POPC   C2B62336  37.328  10.802   6.751
 4734POPC   C3B62337  37.353  10.679   7.186
 4734POPC   C4B62338  37.234  10.738   7.627
 4735POPC   NC362339  10.483  17.042   5.282
 4735POPC   PO462340  10.566  16.377   5.272
 4735POPC   GL162341  10.510  16.625   5.642
 4735POPC   GL262342  10.656  16.945   5.757
 4735POPC   C1A62343  10.415  16.631   6.083
 4735POPC   D2A62344  10.587  16.713   6.490
 4735POPC   C3A62345  10.366  16.547   6.862
 4735POPC   C4A62346  10.423  16.578   7.306
 4735POPC   C1B62347  10.549  17.147   6.149
 4735POPC   C2B62348  10.688  17.210   6.576
 4735POPC   C3B62349  10.716  16.930   6.963
 4735POPC   C4B62350  10.584  17.050   7.384
 4736POPC   NC362351   3.865   8.537   5.366
 4736POPC   PO462352   4.532   8.432   5.427
 4736POPC   GL162353   4.219   8.394   5.764
 4736POPC   GL262354   4.175   8.024   5.891
 4736POPC   C1A62355   4.317   8.393   6.218
 4736POPC   D2A62356   4.389   8.175   6.608
 4736POPC   C3A62357   4.464   8.472   6.916
 4736POPC   C4A62358   4.141   8.671   7.108
 4736POPC   C1B62359   3.938   8.030   6.293
 4736POPC   C2B62360   3.875   7.938   6.740
 4736POPC   C3B62361   4.144   8.110   7.055
 4736POPC   C4B62362   4.570   8.015   7.114
 4737POPC   NC362363   5.237   0.180   5.627
 4737POPC   PO462364   4.906  44.534   5.501
 4737POPC   GL162365   5.041  44.671   5.868
 4737POPC   GL262366   5.221  44.402   5.968
 4737POPC   C1A62367   5.073  44.838   6.289
 4737POPC   D2A62368   5.191  44.649   6.663
 4737POPC   C3A62369   5.059  44.910   6.970
 4737POPC   C4A62370   5.185  44.862   7.362
 4737POPC   C1B62371   5.031  44.286   6.340
 4737POPC   C2B62372   4.887  44.223   6.753
 4737POPC   C3B62373   5.098  44.321   7.154
 4737POPC   C4B62374   4.901  44.483   7.551
 4738POPC   NC362375  11.363  28.778   5.505
 4738POPC   PO462376  11.423  29.312   5.399
 4738POPC   GL162377  11.252  29.280   5.801
 4738POPC   GL262378  11.121  28.967   5.935
 4738POPC   C1A62379  11.216  29.393   6.237
 4738POPC   D2A62380  11.028  29.385   6.639
 4738POPC   C3A62381  11.309  29.388   6.984
 4738POPC   C4A62382  11.282  29.414   7.421
 4738POPC   C1B62383  11.167  28.918   6.411
 4738POPC   C2B62384  11.107  28.922   6.875
 4738POPC   C3B62385  11.248  28.913   7.320
 4738POPC   C4B62386  11.377  28.997   7.757
 4739POPC   NC362387  24.082  24.032   5.633
 4739POPC   PO462388  23.791  23.518   5.253
 4739POPC   GL162389  23.750  23.649   5.711
 4739POPC   GL262390  24.077  23.579   5.871
 4739POPC   C1A62391  23.734  23.888   6.156
 4739POPC   D2A62392  23.857  23.948   6.616
 4739POPC   C3A62393  23.584  23.749   6.909
 4739POPC   C4A62394  23.348  24.020   7.138
 4739POPC   C1B62395  24.144  23.647   6.306
 4739POPC   C2B62396  24.018  23.475   6.701
 4739POPC   C3B62397  23.992  23.572   7.131
 4739POPC   C4B62398  24.029  23.364   7.498
 4740POPC   NC362399  42.607  35.640   5.501
 4740POPC   PO462400  42.228  35.028   5.446
 4740POPC   GL162401  42.403  35.218   5.827
 4740POPC   GL262402  42.279  35.566   5.898
 4740POPC   C1A62403  42.403  35.191   6.301
 4740POPC   D2A62404  42.140  35.045   6.660
 4740POPC   C3A62405  42.363  34.894   7.019
 4740POPC   C4A62406  42.627  35.205   7.232
 4740POPC   C1B62407  41.941  35.369   6.144
 4740POPC   C2B62408  41.811  35.485   6.520
 4740POPC   C3B62409  42.101  35.568   6.832
 4740POPC   C4B62410  42.107  35.311   7.169
 4741POPC   NC362411  35.516  22.361   5.454
 4741POPC   PO462412  35.103  21.787   5.350
 4741POPC   GL162413  35.273  22.011   5.722
 4741POPC   GL262414  35.595  21.851   5.834
 4741POPC   C1A62415  35.220  22.115   6.164
 4741POPC   D2A62416  35.286  21.936   6.580
 4741POPC   C3A62417  35.174  22.117   6.977
 4741POPC   C4A62418  35.410  22.121   7.330
 4741POPC   C1B62419  35.719  22.204   6.104
 4741POPC   C2B62420  35.602  22.414   6.501
 4741POPC   C3B62421  35.736  22.256   6.892
 4741POPC   C4B62422  35.916  22.162   7.275
 4742POPC   NC362423   5.380   0.321   5.103
 4742POPC   PO462424   4.792   0.326   5.489
 4742POPC   GL162425   4.920   0.481   5.893
 4742POPC   GL262426   5.225   0.628   5.902
 4742POPC   C1A62427   5.062   0.363   6.290
 4742POPC   D2A62428   5.292   0.217   6.610
 4742POPC   C3A62429   5.055   0.423   6.924
 4742POPC   C4A62430   4.933   0.302   7.315
 4742POPC   C1B62431   5.525   0.551   6.230
 4742POPC   C2B62432   5.556   0.693   6.662
 4742POPC   C3B62433   5.407   0.762   7.047
 4742POPC   C4B62434   5.064   0.792   7.337
 4743POPC   NC362435  35.572   6.945   5.674
 4743POPC   PO462436  35.500   6.367   5.471
 4743POPC   GL162437  35.334   6.490   5.865
 4743POPC   GL262438  35.064   6.764   5.867
 4743POPC   C1A62439  35.464   6.613   6.279
 4743POPC   D2A62440  35.415   6.765   6.677
 4743POPC   C3A62441  35.404   6.495   7.036
 4743POPC   C4A62442  35.573   6.724   7.361
 4743POPC   C1B62443  35.073   6.944   6.297
 4743POPC   C2B62444  35.131   7.182   6.699
 4743POPC   C3B62445  35.019   6.960   7.020
 4743POPC   C4B62446  34.745   7.015   7.376
 4744POPC   NC362447   0.925   8.095   5.420
 4744POPC   PO462448   1.588   7.864   5.313
 4744POPC   GL162449   1.398   8.038   5.744
 4744POPC   GL262450   1.141   8.279   5.851
 4744POPC   C1A62451   1.177   7.944   6.193
 4744POPC   D2A62452   1.146   8.240   6.558
 4744POPC   C3A62453   1.067   8.091   6.961
 4744POPC   C4A62454   1.246   8.029   7.354
 4744POPC   C1B62455   1.475   8.361   6.173
 4744POPC   C2B62456   1.593   8.512   6.607
 4744POPC   C3B62457   1.408   8.467   7.029
 4744POPC   C4B62458   1.337   8.504   7.520
 4745POPC   NC362459  43.163  17.706   5.286
 4745POPC   PO462460  42.764  17.234   5.328
 4745POPC   GL162461  42.876  17.530   5.695
 4745POPC   GL262462  43.193  17.548   5.816
 4745POPC   C1A62463  42.798  17.767   6.115
 4745POPC   D2A62464  42.980  17.695   6.545
 4745POPC   C3A62465  42.754  17.691   6.923
 4745POPC   C4A62466  43.038  17.680   7.291
 4745POPC   C1B62467  43.568  17.567   6.114
 4745POPC   C2B62468  43.615  17.683   6.533
 4745POPC   C3B62469  43.453  17.680   6.941
 4745POPC   C4B62470  43.718  17.680   7.298
 4746POPC   NC362471  34.357  17.431   5.411
 4746POPC   PO462472  34.955  17.793   5.271
 4746POPC   GL162473  34.896  17.611   5.719
 4746POPC   GL262474  34.621  17.413   5.855
 4746POPC   C1A62475  34.903  17.641   6.200
 4746POPC   D2A62476  34.763  17.404   6.571
 4746POPC   C3A62477  34.966  17.525   6.929
 4746POPC   C4A62478  34.898  17.673   7.340
 4746POPC   C1B62479  34.388  17.555   6.261
 4746POPC   C2B62480  34.271  17.525   6.706
 4746POPC   C3B62481  34.494  17.370   7.050
 4746POPC   C4B62482  34.399  17.520   7.418
 4747POPC   NC362483  28.080   6.052   5.482
 4747POPC   PO462484  28.664   5.739   5.383
 4747POPC   GL162485  28.398   5.751   5.804
 4747POPC   GL262486  28.117   5.549   5.703
 4747POPC   C1A62487  28.247   5.984   6.229
 4747POPC   D2A62488  28.063   5.855   6.644
 4747POPC   C3A62489  28.290   6.027   7.011
 4747POPC   C4A62490  28.632   6.288   7.191
 4747POPC   C1B62491  28.082   5.515   6.139
 4747POPC   C2B62492  28.417   5.540   6.441
 4747POPC   C3B62493  28.356   5.525   6.897
 4747POPC   C4B62494  27.993   5.660   7.207
 4748POPC   NC362495  44.993  30.419   5.322
 4748POPC   PO462496  44.814  31.084   5.447
 4748POPC   GL162497  44.686  30.889   5.787
 4748POPC   GL262498  44.562  30.559   5.645
 4748POPC   C1A62499  44.721  30.957   6.232
 4748POPC   D2A62500  44.894  30.819   6.612
 4748POPC   C3A62501  44.683  30.677   6.933
 4748POPC   C4A62502  44.703  30.832   7.306
 4748POPC   C1B62503  44.583  30.497   6.102
 4748POPC   C2B62504  44.349  30.567   6.512
 4748POPC   C3B62505  44.231  30.451   6.962
 4748POPC   C4B62506  44.427  30.400   7.361
 4749POPC   NC362507  14.109  34.934   5.402
 4749POPC   PO462508  14.585  34.406   5.389
 4749POPC   GL162509  14.646  34.581   5.767
 4749POPC   GL262510  14.503  34.881   5.730
 4749POPC   C1A62511  14.582  34.595   6.183
 4749POPC   D2A62512  14.407  34.438   6.544
 4749POPC   C3A62513  14.400  34.667   6.917
 4749POPC   C4A62514  14.341  34.536   7.284
 4749POPC   C1B62515  14.235  34.989   6.080
 4749POPC   C2B62516  14.197  34.901   6.508
 4749POPC   C3B62517  13.914  34.861   6.867
 4749POPC   C4B62518  13.948  35.031   7.299
 4750POPC   NC362519   9.046  22.752   5.263
 4750POPC   PO462520   8.407  22.771   5.417
 4750POPC   GL162521   8.700  22.615   5.774
 4750POPC   GL262522   8.793  22.931   5.849
 4750POPC   C1A62523   8.970  22.548   6.170
 4750POPC   D2A62524   9.189  22.707   6.570
 4750POPC   C3A62525   9.043  22.554   6.989
 4750POPC   C4A62526   8.802  22.826   7.268
 4750POPC   C1B62527   8.935  23.073   6.263
 4750POPC   C2B62528   9.071  23.261   6.642
 4750POPC   C3B62529   9.156  23.094   7.032
 4750POPC   C4B62530   9.043  23.247   7.444
 4751POPC   NC362531  40.271   5.102   5.389
 4751POPC   PO462532  39.692   5.090   5.210
 4751POPC   GL162533  39.885   5.221   5.700
 4751POPC   GL262534  40.046   4.914   5.841
 4751POPC   C1A62535  40.102   5.318   6.161
 4751POPC   D2A62536  39.971   5.290   6.575
 4751POPC   C3A62537  40.188   5.239   6.924
 4751POPC   C4A62538  39.953   5.084   7.273
 4751POPC   C1B62539  40.018   4.832   6.306
 4751POPC   C2B62540  40.342   4.832   6.658
 4751POPC   C3B62541  40.254   4.746   7.078
 4751POPC   C4B62542  40.118   4.646   7.524
 4752POPC   NC362543   9.816  42.539   5.352
 4752POPC   PO462544   9.358  42.124   5.257
 4752POPC   GL162545   9.563  42.235   5.667
 4752POPC   GL262546   9.885  42.135   5.726
 4752POPC   C1A62547   9.654  42.421   6.092
 4752POPC   D2A62548   9.566  42.239   6.531
 4752POPC   C3A62549   9.809  42.318   6.880
 4752POPC   C4A62550   9.983  42.586   7.154
 4752POPC   C1B62551   9.887  41.957   6.171
 4752POPC   C2B62552  10.107  42.053   6.548
 4752POPC   C3B62553  10.108  41.922   6.955
 4752POPC   C4B62554   9.803  41.873   7.199
 4753POPC   NC362555  40.889  10.811   5.017
 4753POPC   PO462556  40.851  10.357   5.492
 4753POPC   GL162557  40.704  10.279   5.926
 4753POPC   GL262558  40.349  10.252   5.910
 4753POPC   C1A62559  40.666  10.507   6.350
 4753POPC   D2A62560  40.506  10.598   6.793
 4753POPC   C3A62561  40.761  10.786   7.159
 4753POPC   C4A62562  41.042  10.594   7.469
 4753POPC   C1B62563  40.436  10.058   6.317
 4753POPC   C2B62564  40.689  10.090   6.700
 4753POPC   C3B62565  40.789  10.276   7.107
 4753POPC   C4B62566  40.561  10.371   7.484
 4754POPC   NC362567  40.838  21.951   5.310
 4754POPC   PO462568  40.715  22.634   5.509
 4754POPC   GL162569  40.653  22.258   5.730
 4754POPC   GL262570  41.006  22.157   5.755
 4754POPC   C1A62571  40.713  22.111   6.172
 4754POPC   D2A62572  40.842  22.332   6.533
 4754POPC   C3A62573  40.662  22.125   6.853
 4754POPC   C4A62574  40.577  22.225   7.250
 4754POPC   C1B62575  41.062  21.782   6.050
 4754POPC   C2B62576  40.914  21.726   6.511
 4754POPC   C3B62577  40.972  21.744   6.976
 4754POPC   C4B62578  41.003  21.941   7.423
 4755POPC   NC362579  16.986  10.831   5.047
 4755POPC   PO462580  16.632  10.337   5.433
 4755POPC   GL162581  16.653  10.301   5.846
 4755POPC   GL262582  16.596  10.641   5.912
 4755POPC   C1A62583  16.947  10.231   6.169
 4755POPC   D2A62584  17.065  10.321   6.605
 4755POPC   C3A62585  16.728  10.248   6.917
 4755POPC   C4A62586  16.718  10.356   7.364
 4755POPC   C1B62587  16.864  10.743   6.252
 4755POPC   C2B62588  16.711  10.767   6.656
 4755POPC   C3B62589  16.608  10.745   7.074
 4755POPC   C4B62590  16.778  10.855   7.450
 4756POPC   NC362591   4.383  17.832   5.181
 4756POPC   PO462592   4.363  18.464   5.417
 4756POPC   GL162593   4.294  18.304   5.860
 4756POPC   GL262594   4.523  18.050   5.815
 4756POPC   C1A62595   4.062  18.296   6.304
 4756POPC   D2A62596   3.965  18.288   6.786
 4756POPC   C3A62597   4.239  18.188   7.167
 4756POPC   C4A62598   4.158  18.040   7.585
 4756POPC   C1B62599   4.609  18.172   6.229
 4756POPC   C2B62600   4.476  18.299   6.616
 4756POPC   C3B62601   4.636  18.022   6.889
 4756POPC   C4B62602   4.869  18.134   7.223
 4757POPC   NC362603  12.404  21.680   5.626
 4757POPC   PO462604  12.084  22.218   5.459
 4757POPC   GL162605  12.140  22.255   5.892
 4757POPC   GL262606  12.461  22.081   5.963
 4757POPC   C1A62607  11.974  22.400   6.286
 4757POPC   D2A62608  11.727  22.252   6.625
 4757POPC   C3A62609  11.971  22.405   6.960
 4757POPC   C4A62610  12.081  22.344   7.376
 4757POPC   C1B62611  12.218  21.929   6.314
 4757POPC   C2B62612  12.200  22.000   6.754
 4757POPC   C3B62613  12.066  21.870   7.139
 4757POPC   C4B62614  12.209  21.874   7.564
 4758POPC   NC362615  13.439  34.354   5.203
 4758POPC   PO462616  13.834  33.781   5.355
 4758POPC   GL162617  13.666  33.761   5.781
 4758POPC   GL262618  13.868  34.055   5.808
 4758POPC   C1A62619  13.586  33.858   6.244
 4758POPC   D2A62620  13.562  33.959   6.706
 4758POPC   C3A62621  13.545  33.626   7.035
 4758POPC   C4A62622  13.500  33.721   7.485
 4758POPC   C1B62623  14.090  33.819   6.114
 4758POPC   C2B62624  13.963  33.654   6.524
 4758POPC   C3B62625  14.024  33.815   6.922
 4758POPC   C4B62626  13.780  34.045   7.203
 4759POPC   NC362627   1.711  34.244   5.627
 4759POPC   PO462628   1.685  34.829   5.226
 4759POPC   GL162629   1.903  34.739   5.689
 4759POPC   GL262630   2.214  34.567   5.867
 4759POPC   C1A62631   1.930  34.830   6.174
 4759POPC   D2A62632   1.802  34.833   6.615
 4759POPC   C3A62633   2.110  34.949   6.919
 4759POPC   C4A62634   2.050  34.665   7.229
 4759POPC   C1B62635   2.023  34.308   6.203
 4759POPC   C2B62636   2.069  34.073   6.603
 4759POPC   C3B62637   1.981  34.205   7.013
 4759POPC   C4B62638   2.135  34.198   7.451
 4760POPC   NC362639  29.287   2.997   5.298
 4760POPC   PO462640  28.847   2.441   5.348
 4760POPC   GL162641  28.831   2.462   5.800
 4760POPC   GL262642  29.182   2.552   5.852
 4760POPC   C1A62643  28.852   2.493   6.269
 4760POPC   D2A62644  29.072   2.673   6.645
 4760POPC   C3A62645  28.996   2.506   7.061
 4760POPC   C4A62646  29.100   2.749   7.450
 4760POPC   C1B62647  29.389   2.690   6.237
 4760POPC   C2B62648  29.572   2.837   6.642
 4760POPC   C3B62649  29.433   2.966   7.086
 4760POPC   C4B62650  29.540   3.007   7.559
 4761POPC   NC362651  36.397  35.300   5.286
 4761POPC   PO462652  35.712  35.251   5.266
 4761POPC   GL162653  36.030  35.409   5.643
 4761POPC   GL262654  36.272  35.209   5.839
 4761POPC   C1A62655  35.962  35.474   6.123
 4761POPC   D2A62656  36.105  35.118   6.401
 4761POPC   C3A62657  36.131  35.188   6.859
 4761POPC   C4A62658  36.045  35.200   7.319
 4761POPC   C1B62659  36.463  35.455   6.225
 4761POPC   C2B62660  36.378  35.620   6.611
 4761POPC   C3B62661  36.538  35.494   6.989
 4761POPC   C4B62662  36.555  35.274   7.365
 4762POPC   NC362663  44.444  19.162   5.457
 4762POPC   PO462664  44.982  18.758   5.486
 4762POPC   GL162665  44.726  18.921   5.808
 4762POPC   GL262666  44.375  18.806   5.861
 4762POPC   C1A62667  44.625  19.208   6.126
 4762POPC   D2A62668  44.785  19.440   6.450
 4762POPC   C3A62669  44.823  19.249   6.832
 4762POPC   C4A62670  44.802  19.077   7.210
 4762POPC   C1B62671  44.579  18.698   6.245
 4762POPC   C2B62672  44.607  18.801   6.669
 4762POPC   C3B62673  44.502  18.666   7.052
 4762POPC   C4B62674  44.409  18.803   7.447
 4763POPC   NC362675  13.711  39.652   5.588
 4763POPC   PO462676  13.369  40.172   5.221
 4763POPC   GL162677  13.443  40.175   5.700
 4763POPC   GL262678  13.813  40.128   5.790
 4763POPC   C1A62679  13.455  40.140   6.175
 4763POPC   D2A62680  13.416  40.304   6.606
 4763POPC   C3A62681  13.540  40.125   6.997
 4763POPC   C4A62682  13.812  40.048   7.321
 4763POPC   C1B62683  13.920  39.922   6.208
 4763POPC   C2B62684  13.902  40.032   6.642
 4763POPC   C3B62685  13.905  39.715   6.937
 4763POPC   C4B62686  13.839  39.545   7.308
 4764POPC   NC362687  20.726  40.891   5.334
 4764POPC   PO462688  20.259  40.427   5.480
 4764POPC   GL162689  20.478  40.771   5.767
 4764POPC   GL262690  20.863  40.739   5.810
 4764POPC   C1A62691  20.604  41.028   6.141
 4764POPC   D2A62692  20.560  40.877   6.555
 4764POPC   C3A62693  20.681  41.094   6.945
 4764POPC   C4A62694  20.671  40.991   7.382
 4764POPC   C1B62695  21.093  40.861   6.205
 4764POPC   C2B62696  21.047  40.705   6.622
 4764POPC   C3B62697  20.746  40.587   6.935
 4764POPC   C4B62698  20.764  40.494   7.331
 4765POPC   NC362699  15.030  31.319   5.151
 4765POPC   PO462700  15.560  31.659   5.232
 4765POPC   GL162701  15.252  31.474   5.601
 4765POPC   GL262702  15.066  31.165   5.699
 4765POPC   C1A62703  15.014  31.541   6.018
 4765POPC   D2A62704  15.037  31.748   6.420
 4765POPC   C3A62705  15.138  31.492   6.766
 4765POPC   C4A62706  15.104  31.546   7.207
 4765POPC   C1B62707  14.885  31.022   6.114
 4765POPC   C2B62708  14.832  31.085   6.572
 4765POPC   C3B62709  14.814  31.156   7.009
 4765POPC   C4B62710  14.984  31.093   7.427
 4766POPC   NC362711   7.765   0.278   5.340
 4766POPC   PO462712   7.204  44.976   5.286
 4766POPC   GL162713   7.350   0.233   5.671
 4766POPC   GL262714   7.094   0.447   5.770
 4766POPC   C1A62715   7.517   0.146   6.106
 4766POPC   D2A62716   7.397   0.204   6.540
 4766POPC   C3A62717   7.517   0.535   6.792
 4766POPC   C4A62718   7.449   0.497   7.206
 4766POPC   C1B62719   7.245   0.575   6.181
 4766POPC   C2B62720   7.027   0.561   6.552
 4766POPC   C3B62721   6.999   0.444   6.958
 4766POPC   C4B62722   6.995   0.614   7.375
 4767POPC   NC362723  30.935  17.041   5.578
 4767POPC   PO462724  30.531  16.542   5.654
 4767POPC   GL162725  30.864  16.660   5.949
 4767POPC   GL262726  30.874  16.375   6.156
 4767POPC   C1A62727  31.102  16.892   6.267
 4767POPC   D2A62728  30.984  16.993   6.712
 4767POPC   C3A62729  30.841  16.627   6.944
 4767POPC   C4A62730  30.956  16.341   7.243
 4767POPC   C1B62731  30.659  16.671   6.453
 4767POPC   C2B62732  30.394  16.848   6.801
 4767POPC   C3B62733  30.245  16.938   7.235
 4767POPC   C4B62734  30.295  16.899   7.732
 4768POPC   NC362735   5.139  35.427   5.294
 4768POPC   PO462736   4.533  35.369   5.282
 4768POPC   GL162737   4.844  35.439   5.715
 4768POPC   GL262738   5.245  35.496   5.826
 4768POPC   C1A62739   4.946  35.189   6.135
 4768POPC   D2A62740   5.250  35.095   6.488
 4768POPC   C3A62741   5.216  35.360   6.852
 4768POPC   C4A62742   5.062  35.255   7.252
 4768POPC   C1B62743   5.545  35.593   6.232
 4768POPC   C2B62744   5.645  35.864   6.624
 4768POPC   C3B62745   5.666  35.840   7.079
 4768POPC   C4B62746   5.404  35.604   7.307
 4769POPC   NC362747  38.518  24.806   5.387
 4769POPC   PO462748  38.285  25.418   5.298
 4769POPC   GL162749  38.590  25.290   5.601
 4769POPC   GL262750  38.293  25.243   5.810
 4769POPC   C1A62751  38.721  25.175   6.062
 4769POPC   D2A62752  38.460  25.118   6.467
 4769POPC   C3A62753  38.588  25.299   6.878
 4769POPC   C4A62754  38.360  25.419   7.246
 4769POPC   C1B62755  38.027  25.091   6.144
 4769POPC   C2B62756  37.917  25.011   6.538
 4769POPC   C3B62757  38.115  25.065   6.909
 4769POPC   C4B62758  37.934  25.097   7.278
 4770POPC   NC362759  43.577  23.511   5.461
 4770POPC   PO462760  44.036  23.838   5.564
 4770POPC   GL162761  43.626  23.968   5.768
 4770POPC   GL262762  43.605  23.700   5.923
 4770POPC   C1A62763  43.601  24.140   6.224
 4770POPC   D2A62764  43.793  24.008   6.650
 4770POPC   C3A62765  43.608  23.947   7.096
 4770POPC   C4A62766  43.790  23.858   7.501
 4770POPC   C1B62767  43.740  23.626   6.286
 4770POPC   C2B62768  43.865  23.369   6.571
 4770POPC   C3B62769  43.873  23.532   6.937
 4770POPC   C4B62770  43.609  23.443   7.228
 4771POPC   NC362771  13.168  13.457   5.542
 4771POPC   PO462772  12.797  14.008   5.533
 4771POPC   GL162773  12.827  13.696   5.849
 4771POPC   GL262774  12.580  13.446   5.903
 4771POPC   C1A62775  12.951  13.532   6.272
 4771POPC   D2A62776  12.754  13.372   6.675
 4771POPC   C3A62777  13.037  13.357   7.058
 4771POPC   C4A62778  13.148  13.203   7.533
 4771POPC   C1B62779  12.493  13.774   6.232
 4771POPC   C2B62780  12.291  13.802   6.618
 4771POPC   C3B62781  12.474  13.672   7.002
 4771POPC   C4B62782  12.516  13.262   7.148
 4772POPC   NC362783   3.669  35.950   5.535
 4772POPC   PO462784   3.176  36.414   5.574
 4772POPC   GL162785   3.421  36.241   5.893
 4772POPC   GL262786   3.777  36.301   5.874
 4772POPC   C1A62787   3.316  36.047   6.274
 4772POPC   D2A62788   3.382  35.916   6.657
 4772POPC   C3A62789   3.440  36.312   6.848
 4772POPC   C4A62790   3.270  36.447   7.230
 4772POPC   C1B62791   3.930  36.499   6.228
 4772POPC   C2B62792   3.881  36.237   6.569
 4772POPC   C3B62793   3.931  36.416   6.949
 4772POPC   C4B62794   3.747  36.267   7.268
 4773POPC   NC362795  15.847  38.754   5.446
 4773POPC   PO462796  15.813  38.154   5.584
 4773POPC   GL162797  15.839  38.455   5.909
 4773POPC   GL262798  16.181  38.593   5.863
 4773POPC   C1A62799  15.936  38.348   6.345
 4773POPC   D2A62800  15.765  38.205   6.748
 4773POPC   C3A62801  16.055  38.200   7.105
 4773POPC   C4A62802  16.526  38.163   7.178
 4773POPC   C1B62803  16.254  38.750   6.303
 4773POPC   C2B62804  16.046  38.727   6.739
 4773POPC   C3B62805  16.204  38.677   7.208
 4773POPC   C4B62806  16.226  38.844   7.673
 4774POPC   NC362807  16.886   3.800   5.430
 4774POPC   PO462808  16.349   3.418   5.426
 4774POPC   GL162809  16.607   3.461   5.766
 4774POPC   GL262810  16.920   3.262   5.729
 4774POPC   C1A62811  16.493   3.636   6.163
 4774POPC   D2A62812  16.293   3.729   6.546
 4774POPC   C3A62813  16.526   3.618   6.930
 4774POPC   C4A62814  16.767   3.769   7.323
 4774POPC   C1B62815  16.982   3.545   6.110
 4774POPC   C2B62816  16.878   3.727   6.527
 4774POPC   C3B62817  17.041   3.614   6.914
 4774POPC   C4B62818  17.289   3.760   7.292
 4775POPC   NC362819   7.225   5.972   5.130
 4775POPC   PO462820   6.556   5.775   5.255
 4775POPC   GL162821   6.537   5.721   5.731
 4775POPC   GL262822   6.407   6.035   5.697
 4775POPC   C1A62823   6.702   5.615   6.196
 4775POPC   D2A62824   6.477   5.746   6.593
 4775POPC   C3A62825   6.563   5.656   7.041
 4775POPC   C4A62826   6.647   5.782   7.492
 4775POPC   C1B62827   6.513   6.089   6.149
 4775POPC   C2B62828   6.687   6.212   6.571
 4775POPC   C3B62829   6.614   6.187   7.007
 4775POPC   C4B62830   6.585   6.300   7.428
 4776POPC   NC362831  42.697  30.569   5.447
 4776POPC   PO462832  42.020  30.822   5.371
 4776POPC   GL162833  42.119  30.882   5.804
 4776POPC   GL262834  42.345  30.657   5.830
 4776POPC   C1A62835  41.914  30.707   6.200
 4776POPC   D2A62836  41.719  30.783   6.601
 4776POPC   C3A62837  42.083  30.708   6.837
 4776POPC   C4A62838  42.335  30.996   7.046
 4776POPC   C1B62839  42.574  30.438   6.122
 4776POPC   C2B62840  42.407  30.337   6.501
 4776POPC   C3B62841  42.516  30.392   6.892
 4776POPC   C4B62842  42.277  30.422   7.225
 4777POPC   NC362843  33.560  14.056   5.381
 4777POPC   PO462844  33.974  14.617   5.508
 4777POPC   GL162845  33.779  14.314   5.829
 4777POPC   GL262846  33.395  14.306   5.844
 4777POPC   C1A62847  33.849  14.382   6.295
 4777POPC   D2A62848  34.040  14.694   6.625
 4777POPC   C3A62849  33.958  14.578   7.084
 4777POPC   C4A62850  33.758  14.628   7.541
 4777POPC   C1B62851  33.361  14.142   6.296
 4777POPC   C2B62852  33.563  14.092   6.715
 4777POPC   C3B62853  33.602  14.208   7.180
 4777POPC   C4B62854  33.455  14.012   7.577
 4778POPC   NC362855   4.202  18.815   5.151
 4778POPC   PO462856   4.595  19.376   5.286
 4778POPC   GL162857   4.248  19.216   5.595
 4778POPC   GL262858   4.300  18.877   5.715
 4778POPC   C1A62859   4.199  19.220   6.072
 4778POPC   D2A62860   4.427  19.293   6.459
 4778POPC   C3A62861   4.268  19.166   6.839
 4778POPC   C4A62862   4.218  19.318   7.231
 4778POPC   C1B62863   4.353  18.724   6.165
 4778POPC   C2B62864   4.169  18.723   6.608
 4778POPC   C3B62865   4.173  18.678   7.074
 4778POPC   C4B62866   4.421  18.862   7.408
 4779POPC   NC362867   8.284  10.759   5.567
 4779POPC   PO462868   8.199  10.094   5.494
 4779POPC   GL162869   8.207  10.365   5.874
 4779POPC   GL262870   7.914  10.609   5.875
 4779POPC   C1A62871   8.235  10.695   6.239
 4779POPC   D2A62872   8.214  10.927   6.607
 4779POPC   C3A62873   8.387  10.728   6.950
 4779POPC   C4A62874   8.228  10.635   7.351
 4779POPC   C1B62875   7.877  10.312   6.258
 4779POPC   C2B62876   7.956  10.215   6.692
 4779POPC   C3B62877   7.884  10.480   7.015
 4779POPC   C4B62878   7.910  10.925   7.037
 4780POPC   NC362879   0.120  44.664   5.137
 4780POPC   PO462880  44.664  44.913   5.620
 4780POPC   GL162881  44.589  44.530   5.883
 4780POPC   GL262882  44.328  44.275   5.860
 4780POPC   C1A62883  44.782  44.556   6.280
 4780POPC   D2A62884  44.744  44.855   6.585
 4780POPC   C3A62885  44.702  44.693   6.974
 4780POPC   C4A62886  44.731  44.372   7.274
 4780POPC   C1B62887  44.447  44.192   6.292
 4780POPC   C2B62888  44.391  44.401   6.695
 4780POPC   C3B62889  44.241  44.430   7.123
 4780POPC   C4B62890  44.312  44.101   7.395
 4781POPC   NC362891  37.271  12.990   5.452
 4781POPC   PO462892  37.912  12.766   5.578
 4781POPC   GL162893  37.589  12.917   5.869
 4781POPC   GL262894  37.290  12.731   5.889
 4781POPC   C1A62895  37.552  12.799   6.306
 4781POPC   D2A62896  37.742  12.685   6.696
 4781POPC   C3A62897  37.590  12.893   7.047
 4781POPC   C4A62898  37.836  13.077   7.329
 4781POPC   C1B62899  37.049  12.661   6.274
 4781POPC   C2B62900  37.215  12.744   6.702
 4781POPC   C3B62901  37.172  12.620   7.140
 4781POPC   C4B62902  37.090  12.575   7.587
 4782POPC   NC362903  40.433  41.015   5.187
 4782POPC   PO462904  40.786  40.495   5.240
 4782POPC   GL162905  40.584  40.691   5.657
 4782POPC   GL262906  40.638  41.059   5.697
 4782POPC   C1A62907  40.502  40.611   6.136
 4782POPC   D2A62908  40.706  40.428   6.539
 4782POPC   C3A62909  40.552  40.565   6.968
 4782POPC   C4A62910  40.815  40.559   7.344
 4782POPC   C1B62911  40.593  41.137   6.141
 4782POPC   C2B62912  40.594  40.929   6.548
 4782POPC   C3B62913  40.584  41.123   6.955
 4782POPC   C4B62914  40.727  41.055   7.339
 4783POPC   NC362915   5.254  20.167   5.521
 4783POPC   PO462916   5.457  19.517   5.402
 4783POPC   GL162917   5.081  19.678   5.658
 4783POPC   GL262918   5.345  19.787   5.831
 4783POPC   C1A62919   4.880  19.850   6.087
 4783POPC   D2A62920   4.713  19.714   6.518
 4783POPC   C3A62921   4.848  19.834   6.961
 4783POPC   C4A62922   4.854  20.095   7.333
 4783POPC   C1B62923   5.251  19.516   6.162
 4783POPC   C2B62924   5.229  19.696   6.583
 4783POPC   C3B62925   5.230  19.472   6.969
 4783POPC   C4B62926   5.417  19.604   7.315
 4784POPC   NC362927  29.608  23.472   5.375
 4784POPC   PO462928  29.101  23.918   5.453
 4784POPC   GL162929  29.100  23.742   5.896
 4784POPC   GL262930  29.122  23.384   5.958
 4784POPC   C1A62931  29.077  23.752   6.359
 4784POPC   D2A62932  28.821  23.752   6.740
 4784POPC   C3A62933  29.040  23.781   7.116
 4784POPC   C4A62934  28.964  23.707   7.532
 4784POPC   C1B62935  29.324  23.300   6.378
 4784POPC   C2B62936  29.337  23.376   6.833
 4784POPC   C3B62937  29.189  23.300   7.290
 4784POPC   C4B62938  29.326  23.410   7.741
 4785POPC   NC362939   8.478  31.029   5.460
 4785POPC   PO462940   8.081  30.529   5.421
 4785POPC   GL162941   8.136  30.815   5.791
 4785POPC   GL262942   8.336  30.585   5.926
 4785POPC   C1A62943   8.184  31.035   6.202
 4785POPC   D2A62944   8.015  31.014   6.649
 4785POPC   C3A62945   8.357  30.954   6.971
 4785POPC   C4A62946   8.624  30.663   7.225
 4785POPC   C1B62947   8.014  30.566   6.252
 4785POPC   C2B62948   8.106  30.496   6.684
 4785POPC   C3B62949   7.951  30.636   7.078
 4785POPC   C4B62950   8.038  30.963   7.355
 4786POPC   NC362951   4.191  31.119   5.081
 4786POPC   PO462952   4.539  31.669   5.379
 4786POPC   GL162953   4.577  31.591   5.841
 4786POPC   GL262954   4.229  31.515   5.861
 4786POPC   C1A62955   4.501  31.394   6.274
 4786POPC   D2A62956   4.257  31.378   6.669
 4786POPC   C3A62957   4.355  31.589   7.068
 4786POPC   C4A62958   4.315  31.877   7.444
 4786POPC   C1B62959   3.969  31.370   6.203
 4786POPC   C2B62960   3.735  31.412   6.584
 4786POPC   C3B62961   3.868  31.305   7.014
 4786POPC   C4B62962   3.913  31.572   7.375
 4787POPC   NC362963   8.511  43.002   5.421
 4787POPC   PO462964   7.838  42.691   5.393
 4787POPC   GL162965   8.104  42.904   5.768
 4787POPC   GL262966   8.433  42.792   5.864
 4787POPC   C1A62967   8.089  43.075   6.193
 4787POPC   D2A62968   7.962  43.306   6.554
 4787POPC   C3A62969   8.240  43.295   6.923
 4787POPC   C4A62970   8.101  43.301   7.351
 4787POPC   C1B62971   8.279  42.589   6.212
 4787POPC   C2B62972   8.293  42.707   6.624
 4787POPC   C3B62973   8.379  42.552   7.024
 4787POPC   C4B62974   8.528  42.690   7.415
 4788POPC   NC362975   2.425  43.096   5.503
 4788POPC   PO462976   3.112  42.887   5.373
 4788POPC   GL162977   2.907  43.074   5.749
 4788POPC   GL262978   2.743  42.788   5.761
 4788POPC   C1A62979   2.805  43.289   6.157
 4788POPC   D2A62980   2.925  43.401   6.563
 4788POPC   C3A62981   2.798  43.216   6.933
 4788POPC   C4A62982   2.411  43.375   7.100
 4788POPC   C1B62983   2.550  42.852   6.161
 4788POPC   C2B62984   2.810  42.856   6.523
 4788POPC   C3B62985   2.871  42.711   6.944
 4788POPC   C4B62986   2.524  42.879   7.214
 4789POPC   NC362987   3.569  23.432   5.582
 4789POPC   PO462988   3.537  22.759   5.361
 4789POPC   GL162989   3.643  22.929   5.737
 4789POPC   GL262990   3.350  22.909   5.922
 4789POPC   C1A62991   3.779  22.733   6.102
 4789POPC   D2A62992   3.635  22.675   6.510
 4789POPC   C3A62993   3.586  22.970   6.809
 4789POPC   C4A62994   3.827  22.879   7.197
 4789POPC   C1B62995   3.210  22.933   6.350
 4789POPC   C2B62996   3.163  22.643   6.690
 4789POPC   C3B62997   3.332  22.679   7.137
 4789POPC   C4B62998   3.407  23.005   7.472
 4790POPC   NC362999   5.787  43.460   5.404
 4790POPC   PO463000   5.791  44.137   5.397
 4790POPC   GL163001   5.867  44.030   5.803
 4790POPC   GL263002   5.549  43.939   5.864
 4790POPC   C1A63003   5.985  43.887   6.221
 4790POPC   D2A63004   5.818  43.783   6.593
 4790POPC   C3A63005   6.006  43.777   7.003
 4790POPC   C4A63006   5.844  43.636   7.354
 4790POPC   C1B63007   5.597  44.217   6.227
 4790POPC   C2B63008   5.778  44.328   6.626
 4790POPC   C3B63009   5.740  44.211   7.051
 4790POPC   C4B63010   5.880  44.124   7.490
 4791POPC   NC363011  38.751  18.188   5.364
 4791POPC   PO463012  38.101  18.483   5.464
 4791POPC   GL163013  38.341  18.257   5.808
 4791POPC   GL263014  38.701  18.348   5.855
 4791POPC   C1A63015  38.383  18.326   6.268
 4791POPC   D2A63016  38.577  18.299   6.685
 4791POPC   C3A63017  38.415  18.607   6.988
 4791POPC   C4A63018  38.056  18.674   7.267
 4791POPC   C1B63019  38.914  18.395   6.248
 4791POPC   C2B63020  39.061  18.612   6.633
 4791POPC   C3B63021  38.958  18.417   7.030
 4791POPC   C4B63022  38.638  18.214   7.236
 4792POPC   NC363023  16.743  37.961   5.342
 4792POPC   PO463024  16.263  37.447   5.364
 4792POPC   GL163025  16.477  37.560   5.803
 4792POPC   GL263026  16.834  37.739   5.811
 4792POPC   C1A63027  16.464  37.542   6.297
 4792POPC   D2A63028  16.519  37.344   6.719
 4792POPC   C3A63029  16.622  37.497   7.152
 4792POPC   C4A63030  16.661  37.278   7.581
 4792POPC   C1B63031  16.847  37.886   6.257
 4792POPC   C2B63032  16.756  37.828   6.718
 4792POPC   C3B63033  16.992  37.895   7.106
 4792POPC   C4B63034  16.986  38.209   7.477
 4793POPC   NC363035   0.735   0.419   5.365
 4793POPC   PO463036   0.140   0.191   5.143
 4793POPC   GL163037   0.265   0.479   5.566
 4793POPC   GL263038   0.571   0.384   5.828
 4793POPC   C1A63039   0.149   0.518   6.039
 4793POPC   D2A63040   0.431   0.338   6.378
 4793POPC   C3A63041   0.420   0.400   6.855
 4793POPC   C4A63042   0.091   0.468   7.202
 4793POPC   C1B63043   0.756   0.668   6.133
 4793POPC   C2B63044   0.844   0.618   6.581
 4793POPC   C3B63045   0.837   0.730   7.013
 4793POPC   C4B63046   0.498   0.767   7.295
 4794POPC   NC363047  19.403  29.738   5.648
 4794POPC   PO463048  19.261  30.281   5.249
 4794POPC   GL163049  19.070  30.219   5.685
 4794POPC   GL263050  18.924  29.889   5.782
 4794POPC   C1A63051  19.005  30.235   6.154
 4794POPC   D2A63052  19.151  29.968   6.504
 4794POPC   C3A63053  19.240  30.064   6.942
 4794POPC   C4A63054  19.374  29.722   7.233
 4794POPC   C1B63055  18.814  29.670   6.155
 4794POPC   C2B63056  18.681  29.753   6.569
 4794POPC   C3B63057  18.870  29.693   6.966
 4794POPC   C4B63058  18.771  30.061   7.218
 4795POPC   NC363059   7.014   5.912   5.576
 4795POPC   PO463060   7.540   5.610   5.178
 4795POPC   GL163061   7.551   5.592   5.695
 4795POPC   GL263062   7.253   5.682   5.936
 4795POPC   C1A63063   7.679   5.740   6.163
 4795POPC   D2A63064   7.441   5.640   6.541
 4795POPC   C3A63065   7.539   5.775   6.978
 4795POPC   C4A63066   7.373   5.673   7.368
 4795POPC   C1B63067   7.077   5.959   6.258
 4795POPC   C2B63068   6.971   5.799   6.679
 4795POPC   C3B63069   7.021   5.891   7.086
 4795POPC   C4B63070   7.045   6.097   7.457
 4796POPC   NC363071  18.100  28.492   5.456
 4796POPC   PO463072  18.345  29.121   5.342
 4796POPC   GL163073  18.218  29.141   5.784
 4796POPC   GL263074  18.275  28.812   5.815
 4796POPC   C1A63075  18.046  29.138   6.214
 4796POPC   D2A63076  17.905  28.989   6.647
 4796POPC   C3A63077  18.138  29.156   6.996
 4796POPC   C4A63078  17.980  29.466   7.278
 4796POPC   C1B63079  18.340  28.707   6.229
 4796POPC   C2B63080  18.433  28.905   6.603
 4796POPC   C3B63081  18.435  28.725   6.996
 4796POPC   C4B63082  18.190  28.779   7.365
 4797POPC   NC363083  41.647  23.274   5.200
 4797POPC   PO463084  41.717  23.930   5.383
 4797POPC   GL163085  41.557  23.628   5.692
 4797POPC   GL263086  41.462  23.932   5.877
 4797POPC   C1A63087  41.618  23.512   6.151
 4797POPC   D2A63088  41.571  23.725   6.568
 4797POPC   C3A63089  41.781  23.591   6.981
 4797POPC   C4A63090  41.744  23.452   7.442
 4797POPC   C1B63091  41.399  24.207   6.255
 4797POPC   C2B63092  41.629  24.340   6.585
 4797POPC   C3B63093  41.650  24.089   6.918
 4797POPC   C4B63094  41.538  23.928   7.294
 4798POPC   NC363095  34.036  40.960   5.164
 4798POPC   PO463096  33.513  41.135   5.490
 4798POPC   GL163097  33.734  40.920   5.795
 4798POPC   GL263098  33.899  41.147   5.989
 4798POPC   C1A63099  33.679  40.663   6.181
 4798POPC   D2A63100  33.842  40.583   6.640
 4798POPC   C3A63101  33.601  40.728   7.023
 4798POPC   C4A63102  33.660  40.705   7.488
 4798POPC   C1B63103  33.918  41.042   6.403
 4798POPC   C2B63104  33.877  41.108   6.844
 4798POPC   C3B63105  33.919  41.127   7.281
 4798POPC   C4B63106  34.179  41.188   7.665
 4799POPC   NC363107   5.227  11.902   5.281
 4799POPC   PO463108   5.547  12.496   5.500
 4799POPC   GL163109   5.320  12.252   5.859
 4799POPC   GL263110   5.082  12.000   5.775
 4799POPC   C1A63111   5.148  12.272   6.290
 4799POPC   D2A63112   5.329  12.337   6.717
 4799POPC   C3A63113   5.181  12.406   7.137
 4799POPC   C4A63114   5.303  12.415   7.626
 4799POPC   C1B63115   5.190  11.784   6.164
 4799POPC   C2B63116   5.177  11.873   6.611
 4799POPC   C3B63117   4.920  11.985   6.974
 4799POPC   C4B63118   4.675  11.732   7.263
 4800POPC   NC363119  39.839  42.076   5.378
 4800POPC   PO463120  40.409  42.441   5.359
 4800POPC   GL163121  40.251  42.344   5.775
 4800POPC   GL263122  39.937  42.179   5.857
 4800POPC   C1A63123  40.127  42.535   6.164
 4800POPC   D2A63124  40.006  42.374   6.549
 4800POPC   C3A63125  39.976  42.578   6.932
 4800POPC   C4A63126  39.992  42.395   7.341
 4800POPC   C1B63127  39.640  42.012   6.159
 4800POPC   C2B63128  39.600  42.061   6.619
 4800POPC   C3B63129  39.723  42.064   7.051
 4800POPC   C4B63130  39.505  42.271   7.397
 4801POPC   NC363131  20.118  26.029   5.470
 4801POPC   PO463132  20.813  26.318   5.436
 4801POPC   GL163133  20.554  26.180   5.745
 4801POPC   GL263134  20.811  25.969   5.883
 4801POPC   C1A63135  20.447  26.268   6.168
 4801POPC   D2A63136  20.315  26.069   6.536
 4801POPC   C3A63137  20.506  26.285   6.864
 4801POPC   C4A63138  20.551  26.143   7.259
 4801POPC   C1B63139  20.518  25.775   6.127
 4801POPC   C2B63140  20.695  25.682   6.519
 4801POPC   C3B63141  20.568  25.740   6.947
 4801POPC   C4B63142  20.381  25.676   7.371
 4802POPC   NC363143  35.556  42.854   5.437
 4802POPC   PO463144  34.990  42.462   5.379
 4802POPC   GL163145  35.189  42.253   5.749
 4802POPC   GL263146  35.507  42.373   5.747
 4802POPC   C1A63147  35.090  42.272   6.204
 4802POPC   D2A63148  34.777  42.400   6.539
 4802POPC   C3A63149  34.879  42.260   6.956
 4802POPC   C4A63150  35.147  42.439   7.259
 4802POPC   C1B63151  35.643  42.229   6.172
 4802POPC   C2B63152  35.655  42.366   6.614
 4802POPC   C3B63153  35.733  42.454   7.050
 4802POPC   C4B63154  35.589  42.238   7.406
 4803POPC   NC363155  30.929   2.876   5.147
 4803POPC   PO463156  30.527   2.466   5.565
 4803POPC   GL163157  30.646   2.633   5.931
 4803POPC   GL263158  30.809   2.951   5.863
 4803POPC   C1A63159  30.516   2.875   6.273
 4803POPC   D2A63160  30.601   2.658   6.602
 4803POPC   C3A63161  30.638   2.802   6.984
 4803POPC   C4A63162  30.505   2.831   7.390
 4803POPC   C1B63163  31.014   2.785   6.249
 4803POPC   C2B63164  30.955   3.053   6.586
 4803POPC   C3B63165  31.102   3.099   6.982
 4803POPC   C4B63166  31.013   2.837   7.333
 4804POPC   NC363167  26.826  38.743   5.473
 4804POPC   PO463168  26.386  38.310   5.522
 4804POPC   GL163169  26.734  38.386   5.859
 4804POPC   GL263170  27.035  38.560   5.946
 4804POPC   C1A63171  26.746  38.375   6.336
 4804POPC   D2A63172  26.574  38.548   6.742
 4804POPC   C3A63173  26.679  38.487   7.171
 4804POPC   C4A63174  26.979  38.513   7.522
 4804POPC   C1B63175  27.011  38.826   6.288
 4804POPC   C2B63176  26.832  38.983   6.674
 4804POPC   C3B63177  26.986  38.866   7.063
 4804POPC   C4B63178  26.874  38.983   7.459
 4805POPC   NC363179  32.545  42.380   5.409
 4805POPC   PO463180  31.901  42.319   5.166
 4805POPC   GL163181  32.102  42.193   5.650
 4805POPC   GL263182  32.305  42.467   5.831
 4805POPC   C1A63183  32.122  42.148   6.168
 4805POPC   D2A63184  32.315  42.247   6.587
 4805POPC   C3A63185  32.347  42.155   7.017
 4805POPC   C4A63186  32.111  41.899   7.295
 4805POPC   C1B63187  32.076  42.711   6.114
 4805POPC   C2B63188  32.090  42.843   6.521
 4805POPC   C3B63189  32.178  42.650   6.908
 4805POPC   C4B63190  32.320  42.586   7.318
 4806POPC   NC363191  30.638  32.745   5.103
 4806POPC   PO463192  30.924  32.790   5.760
 4806POPC   GL163193  30.522  32.874   6.024
 4806POPC   GL263194  30.375  33.225   6.046
 4806POPC   C1A63195  30.336  32.711   6.381
 4806POPC   D2A63196  30.098  32.906   6.690
 4806POPC   C3A63197  30.369  33.153   6.915
 4806POPC   C4A63198  30.673  32.984   7.185
 4806POPC   C1B63199  30.767  33.259   6.266
 4806POPC   C2B63200  30.806  33.218   6.661
 4806POPC   C3B63201  31.085  33.080   6.882
 4806POPC   C4B63202  31.121  33.222   7.251
 4807POPC   NC363203  17.065  39.913   5.499
 4807POPC   PO463204  16.353  39.904   5.559
 4807POPC   GL163205  16.536  40.129   5.862
 4807POPC   GL263206  16.875  40.272   5.801
 4807POPC   C1A63207  16.709  39.937   6.208
 4807POPC   D2A63208  16.519  39.992   6.591
 4807POPC   C3A63209  16.740  39.772   6.889
 4807POPC   C4A63210  16.699  39.887   7.296
 4807POPC   C1B63211  17.075  40.306   6.198
 4807POPC   C2B63212  17.063  40.099   6.597
 4807POPC   C3B63213  17.001  40.206   7.034
 4807POPC   C4B63214  16.984  40.242   7.481
 4808POPC   NC363215  13.383  44.921   5.356
 4808POPC   PO463216  13.819   0.561   5.340
 4808POPC   GL163217  13.645   0.426   5.759
 4808POPC   GL263218  13.632   0.757   5.866
 4808POPC   C1A63219  13.788   0.446   6.238
 4808POPC   D2A63220  13.903   0.330   6.707
 4808POPC   C3A63221  13.503   0.314   6.992
 4808POPC   C4A63222  13.388   0.311   7.442
 4808POPC   C1B63223  13.534   0.913   6.267
 4808POPC   C2B63224  13.571   0.717   6.647
 4808POPC   C3B63225  13.755   0.744   7.043
 4808POPC   C4B63226  13.504   0.861   7.361
 4809POPC   NC363227  14.140  21.065   5.371
 4809POPC   PO463228  13.752  20.425   5.287
 4809POPC   GL163229  13.716  20.371   5.721
 4809POPC   GL263230  13.427  20.563   5.845
 4809POPC   C1A63231  13.741  20.351   6.188
 4809POPC   D2A63232  13.522  20.601   6.497
 4809POPC   C3A63233  13.619  20.516   6.944
 4809POPC   C4A63234  13.393  20.780   7.198
 4809POPC   C1B63235  13.759  20.843   6.012
 4809POPC   C2B63236  13.941  20.893   6.442
 4809POPC   C3B63237  13.763  21.003   6.832
 4809POPC   C4B63238  13.827  21.045   7.281
 4810POPC   NC363239  36.306   7.327   5.378
 4810POPC   PO463240  35.790   7.320   5.821
 4810POPC   GL163241  36.234   7.250   5.946
 4810POPC   GL263242  36.501   7.480   5.836
 4810POPC   C1A63243  36.337   7.174   6.366
 4810POPC   D2A63244  36.138   7.443   6.641
 4810POPC   C3A63245  36.032   7.354   7.057
 4810POPC   C4A63246  35.721   7.496   7.332
 4810POPC   C1B63247  36.310   7.702   6.192
 4810POPC   C2B63248  36.381   7.889   6.592
 4810POPC   C3B63249  36.429   7.673   6.995
 4810POPC   C4B63250  36.314   7.596   7.431
 4811POPC   NC363251  10.499  41.354   5.458
 4811POPC   PO463252  10.820  41.974   5.510
 4811POPC   GL163253  10.570  41.727   5.816
 4811POPC   GL263254  10.218  41.745   5.756
 4811POPC   C1A63255  10.676  41.377   6.145
 4811POPC   D2A63256  10.718  41.136   6.559
 4811POPC   C3A63257  10.608  41.420   6.932
 4811POPC   C4A63258  10.440  41.718   7.281
 4811POPC   C1B63259  10.187  41.534   6.151
 4811POPC   C2B63260  10.211  41.540   6.598
 4811POPC   C3B63261  10.089  41.422   7.026
 4811POPC   C4B63262  10.345  41.199   7.313
 4812POPC   NC363263  18.213  27.405   5.195
 4812POPC   PO463264  17.594  27.590   5.458
 4812POPC   GL163265  17.396  27.526   5.802
 4812POPC   GL263266  17.290  27.877   5.804
 4812POPC   C1A63267  17.506  27.316   6.204
 4812POPC   D2A63268  17.732  27.201   6.613
 4812POPC   C3A63269  17.507  27.357   6.979
 4812POPC   C4A63270  17.474  27.311   7.426
 4812POPC   C1B63271  17.641  27.829   6.123
 4812POPC   C2B63272  17.597  27.692   6.559
 4812POPC   C3B63273  17.882  27.703   6.921
 4812POPC   C4B63274  17.778  27.696   7.376
 4813POPC   NC363275  28.993  14.043   5.268
 4813POPC   PO463276  29.308  14.665   5.301
 4813POPC   GL163277  29.138  14.409   5.643
 4813POPC   GL263278  29.380  14.596   5.811
 4813POPC   C1A63279  29.146  14.245   6.101
 4813POPC   D2A63280  28.964  14.116   6.509
 4813POPC   C3A63281  29.132  14.291   6.867
 4813POPC   C4A63282  29.071  14.097   7.254
 4813POPC   C1B63283  29.407  14.756   6.187
 4813POPC   C2B63284  29.483  14.583   6.568
 4813POPC   C3B63285  29.445  14.734   6.962
 4813POPC   C4B63286  29.356  14.485   7.323
 4814POPC   NC363287  15.119  29.603   5.101
 4814POPC   PO463288  14.997  29.057   5.426
 4814POPC   GL163289  15.113  28.996   5.820
 4814POPC   GL263290  15.372  29.235   5.866
 4814POPC   C1A63291  14.901  28.856   6.198
 4814POPC   D2A63292  15.212  28.855   6.494
 4814POPC   C3A63293  15.135  28.857   6.933
 4814POPC   C4A63294  15.360  28.936   7.335
 4814POPC   C1B63295  15.129  29.315   6.260
 4814POPC   C2B63296  14.957  29.261   6.677
 4814POPC   C3B63297  15.118  29.353   7.107
 4814POPC   C4B63298  14.946  29.241   7.513
 4815POPC   NC363299  42.705  36.964   5.515
 4815POPC   PO463300  43.284  36.710   5.405
 4815POPC   GL163301  43.332  36.854   5.804
 4815POPC   GL263302  42.974  36.906   5.930
 4815POPC   C1A63303  43.357  36.711   6.210
 4815POPC   D2A63304  43.107  36.924   6.523
 4815POPC   C3A63305  43.275  36.897   6.942
 4815POPC   C4A63306  43.230  36.845   7.373
 4815POPC   C1B63307  42.716  37.215   6.175
 4815POPC   C2B63308  42.852  37.404   6.542
 4815POPC   C3B63309  42.789  37.132   6.903
 4815POPC   C4B63310  42.729  36.877   7.249
 4816POPC   NC363311   4.369   4.599   5.426
 4816POPC   PO463312   3.867   4.358   5.701
 4816POPC   GL163313   4.256   4.255   5.863
 4816POPC   GL263314   4.328   4.601   5.944
 4816POPC   C1A63315   4.385   4.091   6.267
 4816POPC   D2A63316   4.547   4.267   6.659
 4816POPC   C3A63317   4.291   4.303   6.992
 4816POPC   C4A63318   4.230   3.990   7.274
 4816POPC   C1B63319   4.252   4.592   6.390
 4816POPC   C2B63320   4.479   4.760   6.765
 4816POPC   C3B63321   4.537   4.678   7.236
 4816POPC   C4B63322   4.595   4.665   7.706
 4817POPC   NC363323  36.502  26.005   5.362
 4817POPC   PO463324  36.029  25.562   5.451
 4817POPC   GL163325  36.329  25.702   5.780
 4817POPC   GL263326  36.286  26.051   5.871
 4817POPC   C1A63327  36.203  25.729   6.264
 4817POPC   D2A63328  36.140  26.008   6.615
 4817POPC   C3A63329  36.084  25.870   7.036
 4817POPC   C4A63330  35.877  25.842   7.458
 4817POPC   C1B63331  36.604  26.291   6.162
 4817POPC   C2B63332  36.844  26.364   6.557
 4817POPC   C3B63333  36.686  26.400   6.992
 4817POPC   C4B63334  36.264  26.342   7.172
 4818POPC   NC363335   2.513   7.884   5.447
 4818POPC   PO463336   2.809   8.461   5.542
 4818POPC   GL163337   2.910   8.305   5.870
 4818POPC   GL263338   3.088   8.006   5.757
 4818POPC   C1A63339   2.690   8.311   6.231
 4818POPC   D2A63340   2.669   8.549   6.574
 4818POPC   C3A63341   2.637   8.325   6.933
 4818POPC   C4A63342   2.637   8.523   7.286
 4818POPC   C1B63343   2.774   7.834   6.064
 4818POPC   C2B63344   2.670   7.889   6.524
 4818POPC   C3B63345   2.841   7.832   6.953
 4818POPC   C4B63346   2.989   8.133   7.275
 4819POPC   NC363347  35.744  11.175   5.568
 4819POPC   PO463348  36.375  11.080   5.399
 4819POPC   GL163349  36.214  11.367   5.786
 4819POPC   GL263350  35.904  11.586   5.868
 4819POPC   C1A63351  36.206  11.499   6.250
 4819POPC   D2A63352  36.061  11.344   6.636
 4819POPC   C3A63353  36.363  11.477   6.875
 4819POPC   C4A63354  36.644  11.391   7.223
 4819POPC   C1B63355  35.749  11.259   6.218
 4819POPC   C2B63356  35.603  11.095   6.642
 4819POPC   C3B63357  35.783  11.147   7.047
 4819POPC   C4B63358  36.180  11.188   7.225
 4820POPC   NC363359  35.700  17.303   5.484
 4820POPC   PO463360  36.221  17.726   5.338
 4820POPC   GL163361  36.214  17.542   5.754
 4820POPC   GL263362  35.878  17.551   5.916
 4820POPC   C1A63363  36.282  17.742   6.170
 4820POPC   D2A63364  36.058  17.713   6.539
 4820POPC   C3A63365  36.127  17.951   6.879
 4820POPC   C4A63366  36.184  17.766   7.263
 4820POPC   C1B63367  35.960  17.279   6.271
 4820POPC   C2B63368  35.785  17.299   6.698
 4820POPC   C3B63369  35.703  17.428   7.157
 4820POPC   C4B63370  35.643  17.170   7.564
 4821POPC   NC363371  28.003  40.088   5.614
 4821POPC   PO463372  27.396  40.006   5.315
 4821POPC   GL163373  27.514  39.920   5.726
 4821POPC   GL263374  27.733  39.641   5.707
 4821POPC   C1A63375  27.629  40.123   6.150
 4821POPC   D2A63376  27.640  40.408   6.501
 4821POPC   C3A63377  27.809  40.252   6.879
 4821POPC   C4A63378  27.679  39.880   7.093
 4821POPC   C1B63379  27.563  39.629   6.119
 4821POPC   C2B63380  27.662  39.683   6.550
 4821POPC   C3B63381  27.416  39.525   6.849
 4821POPC   C4B63382  27.350  39.538   7.274
 4822POPC   NC363383  21.882   1.132   5.500
 4822POPC   PO463384  21.233   1.111   5.428
 4822POPC   GL163385  21.320   1.246   5.859
 4822POPC   GL263386  21.672   1.225   5.950
 4822POPC   C1A63387  21.346   1.130   6.325
 4822POPC   D2A63388  21.474   1.391   6.690
 4822POPC   C3A63389  21.356   1.214   7.058
 4822POPC   C4A63390  21.083   0.895   7.161
 4822POPC   C1B63391  21.838   0.981   6.312
 4822POPC   C2B63392  21.727   0.927   6.769
 4822POPC   C3B63393  21.863   1.175   7.139
 4822POPC   C4B63394  22.046   1.221   7.567
 4823POPC   NC363395  22.559  28.065   5.579
 4823POPC   PO463396  22.201  27.592   5.315
 4823POPC   GL163397  22.181  27.718   5.768
 4823POPC   GL263398  21.935  27.888   6.029
 4823POPC   C1A63399  22.422  27.659   6.134
 4823POPC   D2A63400  22.582  27.802   6.519
 4823POPC   C3A63401  22.275  27.649   6.797
 4823POPC   C4A63402  22.466  27.405   7.070
 4823POPC   C1B63403  21.680  27.512   6.084
 4823POPC   C2B63404  21.671  27.234   6.463
 4823POPC   C3B63405  21.598  27.420   6.880
 4823POPC   C4B63406  21.819  27.797   7.070
 4824POPC   NC363407  17.250   2.249   5.448
 4824POPC   PO463408  17.370   1.559   5.468
 4824POPC   GL163409  17.322   1.858   5.863
 4824POPC   GL263410  17.134   2.195   5.939
 4824POPC   C1A63411  17.543   2.021   6.246
 4824POPC   D2A63412  17.868   1.947   6.549
 4824POPC   C3A63413  17.748   2.102   6.908
 4824POPC   C4A63414  17.589   1.865   7.182
 4824POPC   C1B63415  17.026   1.976   6.331
 4824POPC   C2B63416  17.249   1.904   6.730
 4824POPC   C3B63417  17.223   2.200   7.046
 4824POPC   C4B63418  17.364   2.224   7.429
 4825POPC   NC363419  34.149  41.298   5.584
 4825POPC   PO463420  33.697  41.643   5.230
 4825POPC   GL163421  33.708  41.569   5.692
 4825POPC   GL263422  33.998  41.662   5.877
 4825POPC   C1A63423  33.567  41.597   6.131
 4825POPC   D2A63424  33.652  41.460   6.544
 4825POPC   C3A63425  33.600  41.700   6.934
 4825POPC   C4A63426  33.628  41.538   7.357
 4825POPC   C1B63427  34.126  41.512   6.260
 4825POPC   C2B63428  34.102  41.685   6.628
 4825POPC   C3B63429  34.076  41.554   7.000
 4825POPC   C4B63430  34.277  41.519   7.312
 4826POPC   NC363431  26.349   0.968   5.445
 4826POPC   PO463432  25.902   1.454   5.470
 4826POPC   GL163433  26.006   1.212   5.828
 4826POPC   GL263434  25.825   0.911   5.853
 4826POPC   C1A63435  25.932   1.203   6.298
 4826POPC   D2A63436  25.662   0.993   6.614
 4826POPC   C3A63437  25.785   0.915   7.052
 4826POPC   C4A63438  26.025   1.162   7.338
 4826POPC   C1B63439  26.187   0.786   6.184
 4826POPC   C2B63440  26.305   0.990   6.606
 4826POPC   C3B63441  26.302   0.867   7.057
 4826POPC   C4B63442  26.401   0.858   7.526
 4827POPC   NC363443  24.214  29.728   5.436
 4827POPC   PO463444  24.870  29.588   5.608
 4827POPC   GL163445  24.516  29.758   5.875
 4827POPC   GL263446  24.302  30.047   5.853
 4827POPC   C1A63447  24.446  29.790   6.323
 4827POPC   D2A63448  24.650  29.513   6.627
 4827POPC   C3A63449  24.643  29.647   7.055
 4827POPC   C4A63450  24.267  29.820   7.245
 4827POPC   C1B63451  24.662  30.212   6.119
 4827POPC   C2B63452  24.729  30.328   6.560
 4827POPC   C3B63453  24.606  30.138   6.931
 4827POPC   C4B63454  24.678  30.157   7.354
 4828POPC   NC363455  29.003   8.266   5.058
 4828POPC   PO463456  29.374   7.942   5.555
 4828POPC   GL163457  29.258   8.065   5.970
 4828POPC   GL263458  29.231   8.429   5.907
 4828POPC   C1A63459  29.151   8.167   6.384
 4828POPC   D2A63460  29.157   8.295   6.789
 4828POPC   C3A63461  29.407   8.070   7.019
 4828POPC   C4A63462  29.183   7.751   7.226
 4828POPC   C1B63463  28.846   8.501   6.158
 4828POPC   C2B63464  28.687   8.437   6.570
 4828POPC   C3B63465  28.737   8.487   7.019
 4828POPC   C4B63466  29.022   8.253   7.305
 4829POPC   NC363467  33.281  19.632   5.417
 4829POPC   PO463468  33.087  18.925   5.420
 4829POPC   GL163469  33.005  19.090   5.819
 4829POPC   GL263470  32.972  19.440   5.821
 4829POPC   C1A63471  32.822  19.055   6.257
 4829POPC   D2A63472  32.698  19.075   6.695
 4829POPC   C3A63473  32.840  18.862   7.050
 4829POPC   C4A63474  33.234  18.834   7.295
 4829POPC   C1B63475  33.256  19.333   6.195
 4829POPC   C2B63476  33.215  19.137   6.613
 4829POPC   C3B63477  33.155  19.279   7.024
 4829POPC   C4B63478  33.348  19.293   7.459
 4830POPC   NC363479  27.113  40.391   5.272
 4830POPC   PO463480  26.632  39.958   5.417
 4830POPC   GL163481  26.848  39.828   5.759
 4830POPC   GL263482  27.041  40.121   5.729
 4830POPC   C1A63483  27.055  39.818   6.175
 4830POPC   D2A63484  27.243  40.005   6.555
 4830POPC   C3A63485  27.050  39.859   6.955
 4830POPC   C4A63486  26.979  39.916   7.367
 4830POPC   C1B63487  26.756  40.288   6.039
 4830POPC   C2B63488  26.814  40.423   6.447
 4830POPC   C3B63489  26.945  40.332   6.821
 4830POPC   C4B63490  26.858  40.411   7.236
 4831POPC   NC363491  36.666  34.345   5.412
 4831POPC   PO463492  37.058  34.859   5.093
 4831POPC   GL163493  37.022  34.675   5.616
 4831POPC   GL263494  36.718  34.576   5.847
 4831POPC   C1A63495  37.085  34.821   6.083
 4831POPC   D2A63496  37.050  34.877   6.557
 4831POPC   C3A63497  37.153  34.518   6.831
 4831POPC   C4A63498  37.135  34.392   7.276
 4831POPC   C1B63499  36.859  34.409   6.255
 4831POPC   C2B63500  36.700  34.329   6.646
 4831POPC   C3B63501  36.672  34.501   7.054
 4831POPC   C4B63502  36.643  34.359   7.452
 4832POPC   NC363503  23.118  19.239   5.065
 4832POPC   PO463504  22.572  19.218   5.267
 4832POPC   GL163505  22.538  19.108   5.760
 4832POPC   GL263506  22.696  18.793   5.872
 4832POPC   C1A63507  22.720  19.179   6.233
 4832POPC   D2A63508  22.829  19.045   6.715
 4832POPC   C3A63509  23.067  19.147   7.163
 4832POPC   C4A63510  23.323  19.364   7.525
 4832POPC   C1B63511  22.885  18.693   6.303
 4832POPC   C2B63512  22.902  18.531   6.733
 4832POPC   C3B63513  22.790  18.715   7.109
 4832POPC   C4B63514  22.990  18.723   7.472
 4833POPC   NC363515  32.541   7.759   5.539
 4833POPC   PO463516  32.024   7.313   5.494
 4833POPC   GL163517  32.277   7.416   5.854
 4833POPC   GL263518  32.318   7.763   5.986
 4833POPC   C1A63519  32.207   7.391   6.302
 4833POPC   D2A63520  32.208   7.514   6.696
 4833POPC   C3A63521  32.481   7.218   6.840
 4833POPC   C4A63522  32.478   6.981   7.213
 4833POPC   C1B63523  31.962   7.838   6.273
 4833POPC   C2B63524  31.909   7.962   6.712
 4833POPC   C3B63525  31.913   7.726   7.107
 4833POPC   C4B63526  32.271   7.468   7.225
 4834POPC   NC363527   6.836  17.243   4.990
 4834POPC   PO463528   6.807  17.709   5.507
 4834POPC   GL163529   6.729  17.428   5.865
 4834POPC   GL263530   6.431  17.233   5.811
 4834POPC   C1A63531   6.734  17.394   6.319
 4834POPC   D2A63532   6.486  17.604   6.642
 4834POPC   C3A63533   6.709  17.530   7.029
 4834POPC   C4A63534   6.900  17.195   7.267
 4834POPC   C1B63535   6.258  17.349   6.189
 4834POPC   C2B63536   6.245  17.151   6.551
 4834POPC   C3B63537   6.202  17.312   6.976
 4834POPC   C4B63538   6.373  17.310   7.352
 4835POPC   NC363539   1.186   5.147   5.341
 4835POPC   PO463540   0.783   4.654   5.463
 4835POPC   GL163541   1.024   4.899   5.797
 4835POPC   GL263542   1.289   5.199   5.825
 4835POPC   C1A63543   0.980   5.077   6.226
 4835POPC   D2A63544   1.219   5.015   6.591
 4835POPC   C3A63545   1.034   5.113   6.938
 4835POPC   C4A63546   1.244   5.022   7.282
 4835POPC   C1B63547   1.497   5.145   6.192
 4835POPC   C2B63548   1.594   5.393   6.545
 4835POPC   C3B63549   1.533   5.268   6.930
 4835POPC   C4B63550   1.606   5.364   7.332
 4836POPC   NC363551  32.084  29.935   5.329
 4836POPC   PO463552  32.493  30.325   5.648
 4836POPC   GL163553  32.151  30.109   5.834
 4836POPC   GL263554  32.284  29.785   5.803
 4836POPC   C1A63555  32.027  29.880   6.247
 4836POPC   D2A63556  32.146  29.696   6.663
 4836POPC   C3A63557  32.021  29.934   7.013
 4836POPC   C4A63558  31.660  30.081   7.237
 4836POPC   C1B63559  32.534  29.942   6.188
 4836POPC   C2B63560  32.505  30.076   6.629
 4836POPC   C3B63561  32.527  29.820   7.012
 4836POPC   C4B63562  32.302  29.488   7.239
 4837POPC   NC363563  34.787  43.535   5.546
 4837POPC   PO463564  35.367  43.265   5.321
 4837POPC   GL163565  35.096  43.092   5.675
 4837POPC   GL263566  35.173  42.768   5.769
 4837POPC   C1A63567  35.134  43.112   6.169
 4837POPC   D2A63568  35.342  43.143   6.594
 4837POPC   C3A63569  35.314  43.318   7.037
 4837POPC   C4A63570  35.645  43.444   7.354
 4837POPC   C1B63571  35.396  42.680   6.149
 4837POPC   C2B63572  35.228  42.645   6.552
 4837POPC   C3B63573  35.354  42.769   6.935
 4837POPC   C4B63574  35.651  42.948   7.211
 4838POPC   NC363575  33.570  15.045   5.527
 4838POPC   PO463576  34.206  15.391   5.535
 4838POPC   GL163577  34.071  15.073   5.840
 4838POPC   GL263578  33.801  14.832   5.945
 4838POPC   C1A63579  34.011  15.196   6.242
 4838POPC   D2A63580  33.811  15.182   6.630
 4838POPC   C3A63581  34.018  15.256   6.994
 4838POPC   C4A63582  34.080  15.006   7.329
 4838POPC   C1B63583  33.516  15.125   6.155
 4838POPC   C2B63584  33.324  15.233   6.529
 4838POPC   C3B63585  33.355  14.941   6.870
 4838POPC   C4B63586  33.583  15.020   7.240
 4839POPC   NC363587  37.747  33.776   5.431
 4839POPC   PO463588  37.820  34.372   5.519
 4839POPC   GL163589  37.939  34.107   5.807
 4839POPC   GL263590  37.582  34.029   5.870
 4839POPC   C1A63591  37.957  33.888   6.185
 4839POPC   D2A63592  37.802  33.647   6.506
 4839POPC   C3A63593  37.991  33.766   6.835
 4839POPC   C4A63594  37.819  33.920   7.172
 4839POPC   C1B63595  37.484  33.639   6.101
 4839POPC   C2B63596  37.321  33.500   6.530
 4839POPC   C3B63597  37.496  33.559   6.962
 4839POPC   C4B63598  37.333  33.405   7.372
 4840POPC   NC363599  33.483  17.166   5.452
 4840POPC   PO463600  33.952  17.602   5.274
 4840POPC   GL163601  33.799  17.504   5.670
 4840POPC   GL263602  34.078  17.470   5.872
 4840POPC   C1A63603  33.592  17.493   6.077
 4840POPC   D2A63604  33.864  17.642   6.408
 4840POPC   C3A63605  33.733  17.545   6.802
 4840POPC   C4A63606  33.642  17.633   7.221
 4840POPC   C1B63607  33.955  17.158   6.225
 4840POPC   C2B63608  33.898  17.069   6.690
 4840POPC   C3B63609  34.004  17.262   7.129
 4840POPC   C4B63610  33.992  17.250   7.609
 4841POPC   NC363611  40.284  34.964   5.464
 4841POPC   PO463612  39.775  34.584   5.534
 4841POPC   GL163613  39.894  34.677   5.929
 4841POPC   GL263614  40.208  34.630   5.874
 4841POPC   C1A63615  40.020  34.348   6.239
 4841POPC   D2A63616  40.198  34.364   6.623
 4841POPC   C3A63617  39.954  34.585   6.890
 4841POPC   C4A63618  39.901  34.469   7.268
 4841POPC   C1B63619  40.313  34.803   6.299
 4841POPC   C2B63620  40.292  34.946   6.759
 4841POPC   C3B63621  40.290  34.899   7.237
 4841POPC   C4B63622  40.253  34.752   7.690
 4842POPC   NC363623   5.813  39.805   5.379
 4842POPC   PO463624   6.149  40.310   5.140
 4842POPC   GL163625   5.905  40.220   5.661
 4842POPC   GL263626   5.712  39.934   5.844
 4842POPC   C1A63627   6.007  40.126   6.182
 4842POPC   D2A63628   6.011  40.330   6.575
 4842POPC   C3A63629   6.146  40.178   6.984
 4842POPC   C4A63630   6.118  40.367   7.397
 4842POPC   C1B63631   5.518  39.832   6.224
 4842POPC   C2B63632   5.529  40.017   6.649
 4842POPC   C3B63633   5.697  39.931   7.083
 4842POPC   C4B63634   5.612  39.868   7.518
 4843POPC   NC363635   0.250   6.598   5.363
 4843POPC   PO463636   0.930   6.374   5.544
 4843POPC   GL163637   0.559   6.440   5.792
 4843POPC   GL263638   0.408   6.774   5.796
 4843POPC   C1A63639   0.486   6.570   6.231
 4843POPC   D2A63640   0.211   6.650   6.557
 4843POPC   C3A63641   0.435   6.692   6.922
 4843POPC   C4A63642   0.576   6.475   7.235
 4843POPC   C1B63643   0.076   6.903   6.110
 4843POPC   C2B63644   0.076   7.133   6.548
 4843POPC   C3B63645   0.059   7.028   6.996
 4843POPC   C4B63646   0.407   6.996   7.346
 4844POPC   NC363647  40.590  40.076   5.339
 4844POPC   PO463648  41.071  39.653   5.602
 4844POPC   GL163649  40.871  39.915   5.872
 4844POPC   GL263650  40.534  39.820   5.823
 4844POPC   C1A63651  41.034  40.107   6.268
 4844POPC   D2A63652  41.019  39.910   6.667
 4844POPC   C3A63653  40.948  40.200   6.974
 4844POPC   C4A63654  41.270  40.352   7.219
 4844POPC   C1B63655  40.541  39.986   6.299
 4844POPC   C2B63656  40.450  40.047   6.769
 4844POPC   C3B63657  40.592  39.848   7.167
 4844POPC   C4B63658  40.518  39.680   7.603
 4845POPC   NC363659  44.236  36.068   5.390
 4845POPC   PO463660  43.644  35.768   5.354
 4845POPC   GL163661  43.727  35.943   5.783
 4845POPC   GL263662  43.568  36.262   5.927
 4845POPC   C1A63663  43.974  36.071   6.151
 4845POPC   D2A63664  43.916  35.938   6.575
 4845POPC   C3A63665  43.865  36.137   6.975
 4845POPC   C4A63666  43.687  36.001   7.346
 4845POPC   C1B63667  43.519  36.211   6.356
 4845POPC   C2B63668  43.427  36.465   6.699
 4845POPC   C3B63669  43.453  36.435   7.140
 4845POPC   C4B63670  43.488  36.415   7.569
 4846POPC   NC363671   8.396  40.408   5.397
 4846POPC   PO463672   8.024  40.936   5.347
 4846POPC   GL163673   8.207  40.926   5.720
 4846POPC   GL263674   7.906  40.773   5.850
 4846POPC   C1A63675   8.370  40.692   6.106
 4846POPC   D2A63676   8.576  40.696   6.534
 4846POPC   C3A63677   8.274  40.694   6.849
 4846POPC   C4A63678   8.164  40.515   7.272
 4846POPC   C1B63679   8.021  41.079   6.167
 4846POPC   C2B63680   7.900  41.011   6.588
 4846POPC   C3B63681   7.800  40.816   6.974
 4846POPC   C4B63682   7.992  40.981   7.295
 4847POPC   NC363683  14.807  22.686   5.577
 4847POPC   PO463684  15.358  22.948   5.288
 4847POPC   GL163685  15.272  22.889   5.727
 4847POPC   GL263686  15.016  23.127   5.756
 4847POPC   C1A63687  15.463  22.918   6.166
 4847POPC   D2A63688  15.417  23.185   6.559
 4847POPC   C3A63689  15.363  23.025   7.004
 4847POPC   C4A63690  15.125  22.807   7.321
 4847POPC   C1B63691  15.022  23.174   6.213
 4847POPC   C2B63692  14.926  22.977   6.624
 4847POPC   C3B63693  14.868  23.153   7.025
 4847POPC   C4B63694  15.071  23.334   7.364
 4848POPC   NC363695  16.317   7.594   5.455
 4848POPC   PO463696  15.877   7.183   5.225
 4848POPC   GL163697  15.880   7.392   5.680
 4848POPC   GL263698  16.201   7.364   5.874
 4848POPC   C1A63699  15.812   7.544   6.159
 4848POPC   D2A63700  15.847   7.317   6.573
 4848POPC   C3A63701  15.806   7.378   6.992
 4848POPC   C4A63702  15.754   7.151   7.341
 4848POPC   C1B63703  16.270   7.408   6.315
 4848POPC   C2B63704  16.338   7.385   6.743
 4848POPC   C3B63705  16.237   7.599   7.100
 4848POPC   C4B63706  16.420   7.448   7.433
 4849POPC   NC363707  16.167  21.803   5.583
 4849POPC   PO463708  15.680  22.023   5.498
 4849POPC   GL163709  15.795  22.242   5.863
 4849POPC   GL263710  15.510  22.457   5.895
 4849POPC   C1A63711  15.997  22.339   6.267
 4849POPC   D2A63712  15.869  22.223   6.684
 4849POPC   C3A63713  16.143  22.246   7.036
 4849POPC   C4A63714  16.097  22.400   7.457
 4849POPC   C1B63715  15.497  22.428   6.335
 4849POPC   C2B63716  15.607  22.690   6.688
 4849POPC   C3B63717  15.693  22.523   7.105
 4849POPC   C4B63718  15.677  22.064   7.180
 4850POPC   NC363719  38.905   9.850   5.496
 4850POPC   PO463720  39.469   9.490   5.414
 4850POPC   GL163721  39.356   9.760   5.722
 4850POPC   GL263722  39.084   9.575   5.890
 4850POPC   C1A63723  39.477   9.878   6.099
 4850POPC   D2A63724  39.369   9.713   6.454
 4850POPC   C3A63725  39.419   9.738   6.885
 4850POPC   C4A63726  39.346   9.722   7.285
 4850POPC   C1B63727  38.897   9.768   6.277
 4850POPC   C2B63728  38.932   9.704   6.719
 4850POPC   C3B63729  38.877   9.939   7.094
 4850POPC   C4B63730  38.896   9.841   7.522
 4851POPC   NC363731  36.727   8.213   5.359
 4851POPC   PO463732  37.367   8.006   5.343
 4851POPC   GL163733  37.188   7.898   5.757
 4851POPC   GL263734  36.825   7.854   5.700
 4851POPC   C1A63735  37.251   7.968   6.229
 4851POPC   D2A63736  37.348   8.027   6.688
 4851POPC   C3A63737  37.130   8.382   6.912
 4851POPC   C4A63738  36.886   8.390   7.302
 4851POPC   C1B63739  36.740   7.976   6.121
 4851POPC   C2B63740  36.857   8.063   6.543
 4851POPC   C3B63741  36.698   8.109   6.938
 4851POPC   C4B63742  36.504   8.061   7.313
 4852POPC   NC363743   1.353  28.938   5.525
 4852POPC   PO463744   0.937  29.314   5.343
 4852POPC   GL163745   0.993  29.187   5.808
 4852POPC   GL263746   0.912  28.846   5.871
 4852POPC   C1A63747   1.054  29.221   6.294
 4852POPC   D2A63748   0.975  29.360   6.752
 4852POPC   C3A63749   1.347  29.503   7.028
 4852POPC   C4A63750   1.471  29.293   7.440
 4852POPC   C1B63751   0.954  28.711   6.311
 4852POPC   C2B63752   1.160  28.871   6.669
 4852POPC   C3B63753   1.255  28.987   7.079
 4852POPC   C4B63754   1.123  28.922   7.529
 4853POPC   NC363755   6.174   0.452   5.421
 4853POPC   PO463756   5.617  44.989   5.338
 4853POPC   GL163757   5.769   0.291   5.761
 4853POPC   GL263758   6.109   0.220   5.843
 4853POPC   C1A63759   6.022   0.587   6.148
 4853POPC   D2A63760   6.079   0.826   6.541
 4853POPC   C3A63761   6.076   0.596   6.918
 4853POPC   C4A63762   5.833   0.630   7.258
 4853POPC   C1B63763   5.941   0.067   6.204
 4853POPC   C2B63764   5.829   0.293   6.563
 4853POPC   C3B63765   5.660   0.238   6.971
 4853POPC   C4B63766   5.982   0.126   7.240
 4854POPC   NC363767  11.656  39.216   5.413
 4854POPC   PO463768  11.014  38.991   5.423
 4854POPC   GL163769  11.282  39.049   5.781
 4854POPC   GL263770  11.336  39.349   5.828
 4854POPC   C1A63771  11.422  38.965   6.191
 4854POPC   D2A63772  11.304  39.069   6.600
 4854POPC   C3A63773  11.464  38.962   7.008
 4854POPC   C4A63774  11.434  39.259   7.308
 4854POPC   C1B63775  11.183  39.500   6.212
 4854POPC   C2B63776  11.345  39.605   6.602
 4854POPC   C3B63777  11.202  39.642   7.010
 4854POPC   C4B63778  11.367  39.780   7.398
 4855POPC   NC363779  16.698  16.171   5.437
 4855POPC   PO463780  16.491  15.562   5.601
 4855POPC   GL163781  16.666  15.870   5.856
 4855POPC   GL263782  16.449  16.177   5.904
 4855POPC   C1A63783  16.766  16.019   6.267
 4855POPC   D2A63784  16.605  16.098   6.664
 4855POPC   C3A63785  16.898  16.014   6.970
 4855POPC   C4A63786  16.866  16.008   7.387
 4855POPC   C1B63787  16.395  16.440   6.325
 4855POPC   C2B63788  16.411  16.548   6.794
 4855POPC   C3B63789  16.613  16.424   7.171
 4855POPC   C4B63790  16.917  16.598   7.460
 4856POPC   NC363791   1.072  37.282   5.503
 4856POPC   PO463792   1.413  36.623   5.452
 4856POPC   GL163793   1.361  36.940   5.784
 4856POPC   GL263794   1.643  37.155   5.818
 4856POPC   C1A63795   1.176  36.935   6.220
 4856POPC   D2A63796   0.857  36.755   6.475
 4856POPC   C3A63797   0.940  36.785   6.907
 4856POPC   C4A63798   0.884  36.822   7.349
 4856POPC   C1B63799   1.592  37.237   6.239
 4856POPC   C2B63800   1.358  37.242   6.642
 4856POPC   C3B63801   1.309  37.101   7.079
 4856POPC   C4B63802   1.382  37.219   7.543
 4857POPC   NC363803  39.584  24.640   5.543
 4857POPC   PO463804  38.965  24.731   5.492
 4857POPC   GL163805  39.199  24.510   5.850
 4857POPC   GL263806  39.508  24.246   5.843
 4857POPC   C1A63807  39.283  24.541   6.287
 4857POPC   D2A63808  39.164  24.485   6.705
 4857POPC   C3A63809  39.078  24.742   7.073
 4857POPC   C4A63810  39.152  24.711   7.537
 4857POPC   C1B63811  39.700  24.244   6.251
 4857POPC   C2B63812  39.682  24.489   6.640
 4857POPC   C3B63813  39.527  24.455   7.069
 4857POPC   C4B63814  39.546  24.076   7.308
 4858POPC   NC363815   8.620  10.186   5.323
 4858POPC   PO463816   8.720  10.849   5.410
 4858POPC   GL163817   8.716  10.526   5.724
 4858POPC   GL263818   9.014  10.640   5.881
 4858POPC   C1A63819   8.636  10.394   6.148
 4858POPC   D2A63820   8.657  10.626   6.517
 4858POPC   C3A63821   8.940  10.658   6.828
 4858POPC   C4A63822   8.768  10.500   7.188
 4858POPC   C1B63823   9.113  10.455   6.285
 4858POPC   C2B63824   8.990  10.204   6.641
 4858POPC   C3B63825   9.209  10.255   7.047
 4858POPC   C4B63826   9.451  10.509   7.352
 4859POPC   NC363827   4.519  11.659   5.366
 4859POPC   PO463828   4.202  11.093   5.160
 4859POPC   GL163829   4.301  11.183   5.608
 4859POPC   GL263830   4.158  11.498   5.734
 4859POPC   C1A63831   4.510  11.146   6.015
 4859POPC   D2A63832   4.441  11.207   6.474
 4859POPC   C3A63833   4.545  11.442   6.840
 4859POPC   C4A63834   4.363  11.263   7.214
 4859POPC   C1B63835   4.339  11.617   6.149
 4859POPC   C2B63836   4.142  11.619   6.566
 4859POPC   C3B63837   4.023  11.581   7.012
 4859POPC   C4B63838   4.190  11.719   7.426
 4860POPC   NC363839  18.605  43.435   5.563
 4860POPC   PO463840  18.209  42.877   5.355
 4860POPC   GL163841  18.180  43.061   5.782
 4860POPC   GL263842  17.870  43.279   5.801
 4860POPC   C1A63843  18.435  43.078   6.202
 4860POPC   D2A63844  18.577  43.209   6.659
 4860POPC   C3A63845  18.440  42.963   7.053
 4860POPC   C4A63846  18.089  42.705   7.228
 4860POPC   C1B63847  17.999  43.366   6.208
 4860POPC   C2B63848  18.008  43.074   6.532
 4860POPC   C3B63849  17.955  43.136   6.946
 4860POPC   C4B63850  18.213  43.420   7.141
 4861POPC   NC363851   8.446   3.848   5.516
 4861POPC   PO463852   7.868   3.720   5.542
 4861POPC   GL163853   8.149   3.539   5.873
 4861POPC   GL263854   8.518   3.478   5.858
 4861POPC   C1A63855   8.279   3.397   6.295
 4861POPC   D2A63856   8.182   3.606   6.657
 4861POPC   C3A63857   8.046   3.328   6.915
 4861POPC   C4A63858   8.136   3.016   7.185
 4861POPC   C1B63859   8.491   3.863   6.149
 4861POPC   C2B63860   8.676   4.086   6.484
 4861POPC   C3B63861   8.438   4.038   6.861
 4861POPC   C4B63862   8.320   3.696   7.147
 4862POPC   NC363863  30.428  40.265   5.326
 4862POPC   PO463864  30.748  39.654   5.495
 4862POPC   GL163865  30.747  40.008   5.799
 4862POPC   GL263866  31.047  40.159   5.905
 4862POPC   C1A63867  30.581  40.122   6.200
 4862POPC   D2A63868  30.835  40.180   6.559
 4862POPC   C3A63869  30.610  40.143   6.914
 4862POPC   C4A63870  30.566  39.889   7.266
 4862POPC   C1B63871  30.978  39.804   6.191
 4862POPC   C2B63872  31.139  39.746   6.581
 4862POPC   C3B63873  31.137  40.010   6.941
 4862POPC   C4B63874  31.083  39.861   7.317
 4863POPC   NC363875   3.982  20.923   5.275
 4863POPC   PO463876   4.351  21.562   5.309
 4863POPC   GL163877   4.413  21.221   5.628
 4863POPC   GL263878   4.105  21.198   5.786
 4863POPC   C1A63879   4.554  21.232   6.096
 4863POPC   D2A63880   4.584  21.573   6.469
 4863POPC   C3A63881   4.293  21.600   6.882
 4863POPC   C4A63882   4.340  21.503   7.354
 4863POPC   C1B63883   4.115  21.402   6.260
 4863POPC   C2B63884   4.333  21.156   6.593
 4863POPC   C3B63885   4.346  21.120   7.020
 4863POPC   C4B63886   3.953  21.172   7.267
 4864POPC   NC363887  16.113  29.704   5.053
 4864POPC   PO463888  15.549  29.926   5.394
 4864POPC   GL163889  15.794  29.937   5.853
 4864POPC   GL263890  16.146  29.858   5.963
 4864POPC   C1A63891  15.807  30.128   6.244
 4864POPC   D2A63892  15.735  29.926   6.590
 4864POPC   C3A63893  15.745  30.154   6.902
 4864POPC   C4A63894  15.856  30.056   7.306
 4864POPC   C1B63895  15.904  29.598   6.222
 4864POPC   C2B63896  15.911  29.452   6.614
 4864POPC   C3B63897  15.983  29.675   6.963
 4864POPC   C4B63898  16.152  29.589   7.321
 4865POPC   NC363899  41.780  25.391   5.310
 4865POPC   PO463900  41.246  25.033   5.378
 4865POPC   GL163901  41.262  25.238   5.773
 4865POPC   GL263902  41.468  25.507   5.727
 4865POPC   C1A63903  41.399  25.213   6.192
 4865POPC   D2A63904  41.732  25.184   6.493
 4865POPC   C3A63905  41.559  25.191   6.914
 4865POPC   C4A63906  41.194  24.951   7.108
 4865POPC   C1B63907  41.790  25.556   6.076
 4865POPC   C2B63908  41.829  25.692   6.501
 4865POPC   C3B63909  41.917  25.687   6.930
 4865POPC   C4B63910  41.632  25.567   7.254
 4866POPC   NC363911  12.159  19.426   5.499
 4866POPC   PO463912  12.315  20.085   5.653
 4866POPC   GL163913  11.903  19.924   5.822
 4866POPC   GL263914  11.957  19.595   5.922
 4866POPC   C1A63915  11.749  19.861   6.270
 4866POPC   D2A63916  11.932  19.642   6.603
 4866POPC   C3A63917  11.873  19.891   6.941
 4866POPC   C4A63918  11.715  19.882   7.355
 4866POPC   C1B63919  12.282  19.747   6.200
 4866POPC   C2B63920  12.576  19.790   6.522
 4866POPC   C3B63921  12.420  19.834   6.902
 4866POPC   C4B63922  12.250  19.885   7.277
 4867POPC   NC363923  39.350   5.385   5.364
 4867POPC   PO463924  39.140   4.731   5.407
 4867POPC   GL163925  39.100   5.076   5.747
 4867POPC   GL263926  39.391   5.282   5.845
 4867POPC   C1A63927  39.154   5.047   6.236
 4867POPC   D2A63928  39.279   4.834   6.641
 4867POPC   C3A63929  39.113   4.943   7.051
 4867POPC   C4A63930  39.038   5.347   7.153
 4867POPC   C1B63931  39.620   5.203   6.196
 4867POPC   C2B63932  39.455   5.321   6.594
 4867POPC   C3B63933  39.540   5.217   6.986
 4867POPC   C4B63934  39.487   5.274   7.411
 4868POPC   NC363935  24.989  23.663   5.430
 4868POPC   PO463936  25.378  24.200   5.313
 4868POPC   GL163937  25.346  23.988   5.717
 4868POPC   GL263938  25.032  24.015   5.831
 4868POPC   C1A63939  25.447  23.855   6.157
 4868POPC   D2A63940  25.618  23.815   6.575
 4868POPC   C3A63941  25.369  23.787   6.924
 4868POPC   C4A63942  25.528  23.904   7.294
 4868POPC   C1B63943  24.941  23.908   6.219
 4868POPC   C2B63944  24.964  23.669   6.588
 4868POPC   C3B63945  24.841  23.709   7.016
 4868POPC   C4B63946  25.021  23.993   7.308
 4869POPC   NC363947  20.109   0.733   5.365
 4869POPC   PO463948  19.708   0.244   5.500
 4869POPC   GL163949  19.952   0.456   5.798
 4869POPC   GL263950  20.163   0.175   5.782
 4869POPC   C1A63951  19.857   0.610   6.234
 4869POPC   D2A63952  19.475   0.586   6.549
 4869POPC   C3A63953  19.578   0.457   6.990
 4869POPC   C4A63954  19.439   0.655   7.402
 4869POPC   C1B63955  19.947   0.089   6.168
 4869POPC   C2B63956  19.863   0.245   6.590
 4869POPC   C3B63957  19.920   0.092   7.005
 4869POPC   C4B63958  20.084   0.149   7.431
 4870POPC   NC363959   8.884  29.534   5.420
 4870POPC   PO463960   9.193  29.081   5.421
 4870POPC   GL163961   8.961  29.171   5.839
 4870POPC   GL263962   8.682  29.433   5.906
 4870POPC   C1A63963   8.973  29.039   6.302
 4870POPC   D2A63964   8.752  29.122   6.696
 4870POPC   C3A63965   8.935  29.134   7.113
 4870POPC   C4A63966   8.780  29.130   7.549
 4870POPC   C1B63967   9.017  29.535   6.202
 4870POPC   C2B63968   9.147  29.448   6.611
 4870POPC   C3B63969   9.339  29.431   7.009
 4870POPC   C4B63970   9.151  29.485   7.425
 4871POPC   NC363971  17.955   6.451   5.377
 4871POPC   PO463972  18.484   6.825   5.174
 4871POPC   GL163973  18.425   6.783   5.663
 4871POPC   GL263974  18.308   6.465   5.786
 4871POPC   C1A63975  18.565   6.794   6.124
 4871POPC   D2A63976  18.426   6.584   6.519
 4871POPC   C3A63977  18.509   6.762   6.930
 4871POPC   C4A63978  18.499   6.811   7.383
 4871POPC   C1B63979  18.076   6.391   6.187
 4871POPC   C2B63980  17.920   6.513   6.572
 4871POPC   C3B63981  18.077   6.480   6.989
 4871POPC   C4B63982  18.075   6.562   7.431
 4872POPC   NC363983   8.909  16.372   5.375
 4872POPC   PO463984   8.952  15.685   5.468
 4872POPC   GL163985   8.753  15.797   5.829
 4872POPC   GL263986   8.644  16.139   5.757
 4872POPC   C1A63987   8.934  15.714   6.210
 4872POPC   D2A63988   9.281  15.805   6.462
 4872POPC   C3A63989   9.022  15.868   6.810
 4872POPC   C4A63990   8.839  15.707   7.151
 4872POPC   C1B63991   9.052  16.187   6.007
 4872POPC   C2B63992   9.129  16.298   6.435
 4872POPC   C3B63993   9.011  16.358   6.869
 4872POPC   C4B63994   8.898  16.370   7.293
 4873POPC   NC363995   4.917  13.330   5.490
 4873POPC   PO463996   5.292  13.918   5.530
 4873POPC   GL163997   5.227  13.642   5.848
 4873POPC   GL263998   4.876  13.683   5.897
 4873POPC   C1A63999   5.243  13.865   6.235
 4873POPC   D2A64000   5.177  14.018   6.650
 4873POPC   C3A64001   5.091  13.653   6.881
 4873POPC   C4A64002   5.142  13.565   7.313
 4873POPC   C1B64003   4.897  13.369   6.234
 4873POPC   C2B64004   4.701  13.322   6.650
 4873POPC   C3B64005   4.711  13.363   7.075
 4873POPC   C4B64006   4.685  13.751   7.208
 4874POPC   NC364007   3.487   6.943   5.180
 4874POPC   PO464008   2.999   6.493   5.318
 4874POPC   GL164009   3.313   6.591   5.634
 4874POPC   GL264010   3.531   6.313   5.747
 4874POPC   C1A64011   3.466   6.824   6.012
 4874POPC   D2A64012   3.571   6.744   6.433
 4874POPC   C3A64013   3.482   6.985   6.780
 4874POPC   C4A64014   3.536   6.924   7.231
 4874POPC   C1B64015   3.770   6.368   6.124
 4874POPC   C2B64016   3.912   6.399   6.533
 4874POPC   C3B64017   3.722   6.517   6.909
 4874POPC   C4B64018   3.866   6.537   7.327
 4875POPC   NC364019  30.157   5.021   5.408
 4875POPC   PO464020  29.497   4.794   5.415
 4875POPC   GL164021  29.780   4.874   5.789
 4875POPC   GL264022  30.111   4.856   5.915
 4875POPC   C1A64023  29.752   5.077   6.192
 4875POPC   D2A64024  29.815   5.356   6.529
 4875POPC   C3A64025  29.851   5.144   6.886
 4875POPC   C4A64026  29.673   5.143   7.270
 4875POPC   C1B64027  30.251   5.173   6.248
 4875POPC   C2B64028  30.330   5.308   6.693
 4875POPC   C3B64029  30.267   5.202   7.147
 4875POPC   C4B64030  30.289   4.896   7.472
 4876POPC   NC364031  29.776  15.615   5.469
 4876POPC   PO464032  29.619  16.310   5.395
 4876POPC   GL164033  29.805  16.052   5.767
 4876POPC   GL264034  29.642  15.730   5.935
 4876POPC   C1A64035  29.984  16.032   6.185
 4876POPC   D2A64036  29.886  15.790   6.541
 4876POPC   C3A64037  30.056  15.923   6.932
 4876POPC   C4A64038  29.980  16.065   7.327
 4876POPC   C1B64039  29.531  15.413   6.262
 4876POPC   C2B64040  29.557  15.425   6.696
 4876POPC   C3B64041  29.579  15.746   6.961
 4876POPC   C4B64042  29.761  15.611   7.305
 4877POPC   NC364043  16.627   5.492   5.478
 4877POPC   PO464044  16.623   4.830   5.344
 4877POPC   GL164045  16.758   5.019   5.730
 4877POPC   GL264046  16.995   5.318   5.816
 4877POPC   C1A64047  16.565   4.994   6.117
 4877POPC   D2A64048  16.649   5.180   6.490
 4877POPC   C3A64049  16.544   4.990   6.850
 4877POPC   C4A64050  16.565   5.055   7.266
 4877POPC   C1B64051  17.072   5.056   6.180
 4877POPC   C2B64052  17.025   4.837   6.581
 4877POPC   C3B64053  17.027   4.994   6.996
 4877POPC   C4B64054  17.010   4.735   7.354
 4878POPC   NC364055  25.115   0.418   5.133
 4878POPC   PO464056  24.386   0.482   5.229
 4878POPC   GL164057  24.413   0.424   5.743
 4878POPC   GL264058  24.666   0.151   5.864
 4878POPC   C1A64059  24.596   0.546   6.166
 4878POPC   D2A64060  24.674   0.746   6.557
 4878POPC   C3A64061  24.459   0.605   6.906
 4878POPC   C4A64062  24.687   0.368   7.167
 4878POPC   C1B64063  24.526   0.050   6.271
 4878POPC   C2B64064  24.576   0.064   6.747
 4878POPC   C3B64065  24.447  44.901   7.135
 4878POPC   C4B64066  24.346   0.167   7.464
 4879POPC   NC364067  18.262   5.499   5.358
 4879POPC   PO464068  18.422   4.866   5.324
 4879POPC   GL164069  18.274   5.101   5.698
 4879POPC   GL264070  18.524   5.206   5.867
 4879POPC   C1A64071  18.130   5.166   6.168
 4879POPC   D2A64072  18.376   5.142   6.564
 4879POPC   C3A64073  18.198   5.125   6.987
 4879POPC   C4A64074  18.357   5.134   7.408
 4879POPC   C1B64075  18.640   5.482   6.251
 4879POPC   C2B64076  18.513   5.621   6.689
 4879POPC   C3B64077  18.612   5.513   7.146
 4879POPC   C4B64078  18.628   5.450   7.663
 4880POPC   NC364079  13.110   0.767   5.382
 4880POPC   PO464080  12.906   0.159   5.290
 4880POPC   GL164081  13.097   0.292   5.689
 4880POPC   GL264082  12.793   0.192   5.854
 4880POPC   C1A64083  13.247   0.468   6.128
 4880POPC   D2A64084  13.154   0.428   6.599
 4880POPC   C3A64085  13.172   0.711   6.985
 4880POPC   C4A64086  13.037   0.656   7.416
 4880POPC   C1B64087  12.746   0.353   6.271
 4880POPC   C2B64088  12.692   0.660   6.608
 4880POPC   C3B64089  12.682   0.543   7.052
 4880POPC   C4B64090  12.869   0.177   7.308
 4881POPC   NC364091  15.684  13.818   5.701
 4881POPC   PO464092  15.500  13.210   5.449
 4881POPC   GL164093  15.867  13.347   5.741
 4881POPC   GL264094  16.207  13.550   5.723
 4881POPC   C1A64095  15.980  13.508   6.185
 4881POPC   D2A64096  15.865  13.422   6.597
 4881POPC   C3A64097  16.104  13.433   6.969
 4881POPC   C4A64098  15.892  13.377   7.365
 4881POPC   C1B64099  16.469  13.652   6.109
 4881POPC   C2B64100  16.265  13.817   6.504
 4881POPC   C3B64101  15.961  13.910   6.834
 4881POPC   C4B64102  16.051  13.873   7.257
 4882POPC   NC364103  10.420  17.983   5.404
 4882POPC   PO464104  10.812  17.333   5.433
 4882POPC   GL164105  10.598  17.594   5.786
 4882POPC   GL264106  10.804  17.898   5.796
 4882POPC   C1A64107  10.354  17.628   6.217
 4882POPC   D2A64108  10.125  17.363   6.531
 4882POPC   C3A64109  10.343  17.311   6.941
 4882POPC   C4A64110  10.208  17.415   7.340
 4882POPC   C1B64111  10.723  18.064   6.224
 4882POPC   C2B64112  10.479  17.971   6.606
 4882POPC   C3B64113  10.559  17.777   7.001
 4882POPC   C4B64114  10.955  17.902   7.167
 4883POPC   NC364115  30.915  18.653   5.474
 4883POPC   PO464116  30.301  18.288   5.372
 4883POPC   GL164117  30.512  18.454   5.705
 4883POPC   GL264118  30.815  18.296   5.816
 4883POPC   C1A64119  30.445  18.532   6.126
 4883POPC   D2A64120  30.545  18.261   6.460
 4883POPC   C3A64121  30.485  18.340   6.903
 4883POPC   C4A64122  30.560  18.139   7.289
 4883POPC   C1B64123  30.950  18.546   6.203
 4883POPC   C2B64124  31.024  18.387   6.636
 4883POPC   C3B64125  30.943  18.511   7.058
 4883POPC   C4B64126  31.285  18.589   7.305
 4884POPC   NC364127   7.669   9.898   5.429
 4884POPC   PO464128   7.055   9.538   5.461
 4884POPC   GL164129   7.388   9.579   5.755
 4884POPC   GL264130   7.271   9.875   5.787
 4884POPC   C1A64131   7.577   9.617   6.181
 4884POPC   D2A64132   7.713   9.787   6.577
 4884POPC   C3A64133   7.579   9.574   6.960
 4884POPC   C4A64134   7.772   9.338   7.316
 4884POPC   C1B64135   7.089   9.710   6.161
 4884POPC   C2B64136   7.208   9.751   6.559
 4884POPC   C3B64137   7.126   9.808   6.958
 4884POPC   C4B64138   7.268   9.735   7.361
 4885POPC   NC364139  12.757  20.061   5.779
 4885POPC   PO464140  13.213  19.684   5.474
 4885POPC   GL164141  13.005  19.606   5.843
 4885POPC   GL264142  12.648  19.490   5.765
 4885POPC   C1A64143  13.023  19.717   6.281
 4885POPC   D2A64144  13.147  19.747   6.688
 4885POPC   C3A64145  12.905  20.050   6.863
 4885POPC   C4A64146  12.722  20.083   7.243
 4885POPC   C1B64147  12.658  19.352   6.208
 4885POPC   C2B64148  12.841  19.357   6.633
 4885POPC   C3B64149  12.833  19.568   7.044
 4885POPC   C4B64150  12.664  19.612   7.454
 4886POPC   NC364151  31.638  41.166   5.433
 4886POPC   PO464152  31.330  41.677   5.056
 4886POPC   GL164153  31.498  41.719   5.578
 4886POPC   GL264154  31.562  41.440   5.852
 4886POPC   C1A64155  31.455  41.889   6.051
 4886POPC   D2A64156  31.558  41.733   6.509
 4886POPC   C3A64157  31.424  41.888   6.940
 4886POPC   C4A64158  31.333  41.649   7.336
 4886POPC   C1B64159  31.743  41.198   6.216
 4886POPC   C2B64160  31.847  41.297   6.665
 4886POPC   C3B64161  31.778  41.505   7.096
 4886POPC   C4B64162  31.701  41.299   7.510
 4887POPC   NC364163  29.007  10.854   5.425
 4887POPC   PO464164  29.285  10.239   5.426
 4887POPC   GL164165  29.021  10.385   5.793
 4887POPC   GL264166  29.101  10.703   5.883
 4887POPC   C1A64167  28.891  10.448   6.249
 4887POPC   D2A64168  29.044  10.662   6.611
 4887POPC   C3A64169  28.920  10.456   6.995
 4887POPC   C4A64170  29.178  10.243   7.267
 4887POPC   C1B64171  29.302  10.910   6.203
 4887POPC   C2B64172  29.471  10.942   6.600
 4887POPC   C3B64173  29.266  11.015   6.962
 4887POPC   C4B64174  29.173  10.807   7.310
 4888POPC   NC364175  29.944   0.442   5.095
 4888POPC   PO464176  29.710   0.073   5.579
 4888POPC   GL164177  29.894   0.237   5.896
 4888POPC   GL264178  29.948   0.582   5.757
 4888POPC   C1A64179  30.051   0.243   6.309
 4888POPC   D2A64180  30.214   0.552   6.581
 4888POPC   C3A64181  30.038   0.467   6.976
 4888POPC   C4A64182  29.879   0.364   7.398
 4888POPC   C1B64183  29.677   0.672   6.119
 4888POPC   C2B64184  29.665   0.595   6.535
 4888POPC   C3B64185  29.646   0.771   6.895
 4888POPC   C4B64186  29.910   0.909   7.192
 4889POPC   NC364187  25.017  12.433   5.525
 4889POPC   PO464188  25.169  13.115   5.277
 4889POPC   GL164189  25.188  12.925   5.688
 4889POPC   GL264190  25.552  12.998   5.790
 4889POPC   C1A64191  24.901  12.813   6.045
 4889POPC   D2A64192  25.006  12.472   6.373
 4889POPC   C3A64193  24.960  12.530   6.838
 4889POPC   C4A64194  24.984  12.594   7.340
 4889POPC   C1B64195  25.369  12.835   6.204
 4889POPC   C2B64196  25.474  12.589   6.597
 4889POPC   C3B64197  25.420  12.609   7.052
 4889POPC   C4B64198  25.458  13.065   7.130
 4890POPC   NC364199  43.641  41.782   5.267
 4890POPC   PO464200  44.058  41.302   5.425
 4890POPC   GL164201  43.850  41.398   5.807
 4890POPC   GL264202  43.906  41.705   5.960
 4890POPC   C1A64203  43.659  41.239   6.165
 4890POPC   D2A64204  43.680  41.131   6.599
 4890POPC   C3A64205  43.603  41.385   6.969
 4890POPC   C4A64206  43.885  41.639   7.246
 4890POPC   C1B64207  44.158  41.396   6.247
 4890POPC   C2B64208  44.354  41.217   6.664
 4890POPC   C3B64209  44.306  41.341   7.129
 4890POPC   C4B64210  44.163  41.389   7.606
 4891POPC   NC364211   2.988   4.115   5.258
 4891POPC   PO464212   2.357   4.335   5.425
 4891POPC   GL164213   2.595   4.328   5.838
 4891POPC   GL264214   2.827   4.595   5.825
 4891POPC   C1A64215   2.843   4.179   6.255
 4891POPC   D2A64216   2.964   3.923   6.604
 4891POPC   C3A64217   2.987   4.181   6.969
 4891POPC   C4A64218   2.677   4.352   7.272
 4891POPC   C1B64219   2.669   4.660   6.254
 4891POPC   C2B64220   2.870   4.660   6.668
 4891POPC   C3B64221   3.018   4.691   7.082
 4891POPC   C4B64222   2.806   4.831   7.427
 4892POPC   NC364223  32.804  10.117   5.500
 4892POPC   PO464224  33.203   9.688   5.424
 4892POPC   GL164225  33.333   9.700   5.848
 4892POPC   GL264226  33.199  10.045   5.899
 4892POPC   C1A64227  33.273   9.430   6.221
 4892POPC   D2A64228  33.071   9.419   6.640
 4892POPC   C3A64229  33.392   9.551   6.944
 4892POPC   C4A64230  33.341   9.747   7.341
 4892POPC   C1B64231  32.864   9.774   6.105
 4892POPC   C2B64232  32.691   9.872   6.516
 4892POPC   C3B64233  32.865   9.908   6.926
 4892POPC   C4B64234  32.910   9.538   7.162
 4893POPC   NC364235  28.186  14.598   5.470
 4893POPC   PO464236  28.546  14.035   5.403
 4893POPC   GL164237  28.616  14.379   5.743
 4893POPC   GL264238  28.396  14.665   5.908
 4893POPC   C1A64239  28.628  14.341   6.213
 4893POPC   D2A64240  28.517  14.530   6.615
 4893POPC   C3A64241  28.615  14.275   6.942
 4893POPC   C4A64242  28.705  14.469   7.307
 4893POPC   C1B64243  28.135  14.437   6.262
 4893POPC   C2B64244  28.109  14.250   6.708
 4893POPC   C3B64245  28.155  14.352   7.179
 4893POPC   C4B64246  27.994  14.419   7.615
 4894POPC   NC364247  14.384  18.283   5.315
 4894POPC   PO464248  14.038  18.780   5.413
 4894POPC   GL164249  14.084  18.392   5.755
 4894POPC   GL264250  14.386  18.277   5.914
 4894POPC   C1A64251  14.001  18.148   6.222
 4894POPC   D2A64252  14.157  18.033   6.674
 4894POPC   C3A64253  14.388  18.234   7.022
 4894POPC   C4A64254  14.365  18.164   7.479
 4894POPC   C1B64255  14.378  18.487   6.366
 4894POPC   C2B64256  14.321  18.723   6.807
 4894POPC   C3B64257  14.322  18.689   7.279
 4894POPC   C4B64258  14.681  18.567   7.545
 4895POPC   NC364259  36.005   6.375   5.423
 4895POPC   PO464260  35.886   7.094   5.341
 4895POPC   GL164261  36.059   6.835   5.731
 4895POPC   GL264262  36.230   6.551   5.858
 4895POPC   C1A64263  35.985   6.812   6.216
 4895POPC   D2A64264  35.920   6.965   6.646
 4895POPC   C3A64265  35.865   6.602   6.864
 4895POPC   C4A64266  35.921   6.391   7.244
 4895POPC   C1B64267  36.516   6.665   6.216
 4895POPC   C2B64268  36.534   6.684   6.667
 4895POPC   C3B64269  36.338   6.627   7.045
 4895POPC   C4B64270  36.047   6.884   7.238
 4896POPC   NC364271  20.009  23.957   5.440
 4896POPC   PO464272  19.564  23.601   5.221
 4896POPC   GL164273  19.725  23.636   5.717
 4896POPC   GL264274  19.696  24.003   5.860
 4896POPC   C1A64275  20.027  23.726   6.113
 4896POPC   D2A64276  20.164  24.027   6.483
 4896POPC   C3A64277  20.067  24.010   6.940
 4896POPC   C4A64278  19.935  23.672   7.204
 4896POPC   C1B64279  19.565  23.871   6.285
 4896POPC   C2B64280  19.625  23.852   6.729
 4896POPC   C3B64281  19.458  23.839   7.141
 4896POPC   C4B64282  19.546  23.678   7.553
 4897POPC   NC364283  14.352  35.802   5.010
 4897POPC   PO464284  14.289  35.356   5.488
 4897POPC   GL164285  14.510  35.413   5.852
 4897POPC   GL264286  14.838  35.249   5.817
 4897POPC   C1A64287  14.419  35.480   6.284
 4897POPC   D2A64288  14.573  35.302   6.657
 4897POPC   C3A64289  14.298  35.214   6.967
 4897POPC   C4A64290  14.147  35.550   7.236
 4897POPC   C1B64291  14.743  35.069   6.212
 4897POPC   C2B64292  14.758  34.830   6.598
 4897POPC   C3B64293  14.797  34.959   7.038
 4897POPC   C4B64294  14.789  35.384   7.128
 4898POPC   NC364295   6.928  31.147   5.379
 4898POPC   PO464296   6.566  31.690   5.472
 4898POPC   GL164297   6.872  31.566   5.756
 4898POPC   GL264298   6.660  31.296   5.803
 4898POPC   C1A64299   6.865  31.750   6.172
 4898POPC   D2A64300   6.630  31.610   6.503
 4898POPC   C3A64301   6.763  31.559   6.961
 4898POPC   C4A64302   6.623  31.380   7.394
 4898POPC   C1B64303   6.559  31.091   6.180
 4898POPC   C2B64304   6.457  31.109   6.592
 4898POPC   C3B64305   6.586  31.070   6.987
 4898POPC   C4B64306   6.359  30.916   7.326
 4899POPC   NC364307  12.107  30.690   5.629
 4899POPC   PO464308  11.609  30.202   5.551
 4899POPC   GL164309  11.881  30.362   5.972
 4899POPC   GL264310  12.282  30.465   6.050
 4899POPC   C1A64311  11.875  30.618   6.389
 4899POPC   D2A64312  11.857  30.848   6.821
 4899POPC   C3A64313  12.044  30.672   7.182
 4899POPC   C4A64314  12.350  30.326   7.241
 4899POPC   C1B64315  12.313  30.898   6.299
 4899POPC   C2B64316  12.306  31.093   6.747
 4899POPC   C3B64317  12.471  30.960   7.180
 4899POPC   C4B64318  12.394  30.706   7.590
 4900POPC   NC364319  23.472  31.079   5.510
 4900POPC   PO464320  22.816  31.081   5.393
 4900POPC   GL164321  22.922  30.724   5.729
 4900POPC   GL264322  23.203  30.614   5.928
 4900POPC   C1A64323  22.797  30.643   6.209
 4900POPC   D2A64324  22.869  30.805   6.653
 4900POPC   C3A64325  22.958  30.791   7.124
 4900POPC   C4A64326  22.683  30.714   7.513
 4900POPC   C1B64327  23.488  30.483   6.259
 4900POPC   C2B64328  23.284  30.488   6.651
 4900POPC   C3B64329  23.307  30.420   7.075
 4900POPC   C4B64330  23.077  30.407   7.476
 4901POPC   NC364331  31.666  38.324   5.343
 4901POPC   PO464332  31.144  38.828   5.384
 4901POPC   GL164333  31.253  38.580   5.786
 4901POPC   GL264334  31.505  38.326   5.832
 4901POPC   C1A64335  31.219  38.480   6.270
 4901POPC   D2A64336  31.351  38.366   6.742
 4901POPC   C3A64337  31.345  38.506   7.198
 4901POPC   C4A64338  31.552  38.253   7.535
 4901POPC   C1B64339  31.774  38.510   6.155
 4901POPC   C2B64340  31.928  38.525   6.574
 4901POPC   C3B64341  31.816  38.387   6.977
 4901POPC   C4B64342  31.824  38.645   7.342
 4902POPC   NC364343  15.787   8.400   5.309
 4902POPC   PO464344  16.391   8.007   5.270
 4902POPC   GL164345  16.111   8.136   5.609
 4902POPC   GL264346  16.034   7.865   5.819
 4902POPC   C1A64347  16.027   8.334   6.040
 4902POPC   D2A64348  15.782   8.182   6.433
 4902POPC   C3A64349  15.869   8.358   6.854
 4902POPC   C4A64350  16.103   8.395   7.239
 4902POPC   C1B64351  16.190   7.904   6.269
 4902POPC   C2B64352  16.046   7.793   6.656
 4902POPC   C3B64353  15.690   7.867   6.900
 4902POPC   C4B64354  15.675   8.101   7.282
 4903POPC   NC364355  15.261  27.698   5.543
 4903POPC   PO464356  14.588  27.408   5.443
 4903POPC   GL164357  14.864  27.482   5.794
 4903POPC   GL264358  14.883  27.851   5.885
 4903POPC   C1A64359  15.069  27.438   6.206
 4903POPC   D2A64360  14.925  27.311   6.633
 4903POPC   C3A64361  15.156  27.504   6.949
 4903POPC   C4A64362  15.003  27.694   7.303
 4903POPC   C1B64363  15.266  27.916   6.162
 4903POPC   C2B64364  15.300  27.991   6.611
 4903POPC   C3B64365  15.385  27.960   7.052
 4903POPC   C4B64366  15.543  27.641   7.324
 4904POPC   NC364367  15.591  26.920   5.624
 4904POPC   PO464368  14.948  26.621   5.501
 4904POPC   GL164369  15.001  26.897   5.847
 4904POPC   GL264370  15.340  26.777   6.049
 4904POPC   C1A64371  14.929  26.958   6.273
 4904POPC   D2A64372  15.211  26.867   6.596
 4904POPC   C3A64373  15.028  26.869   6.980
 4904POPC   C4A64374  15.101  27.132   7.296
 4904POPC   C1B64375  15.359  26.427   6.381
 4904POPC   C2B64376  15.340  26.391   6.859
 4904POPC   C3B64377  15.381  26.609   7.279
 4904POPC   C4B64378  15.588  26.507   7.732
 4905POPC   NC364379  36.474  27.591   5.575
 4905POPC   PO464380  37.101  27.677   5.439
 4905POPC   GL164381  36.904  27.727   5.838
 4905POPC   GL264382  37.000  27.392   5.980
 4905POPC   C1A64383  37.062  27.815   6.248
 4905POPC   D2A64384  37.140  27.485   6.543
 4905POPC   C3A64385  36.965  27.504   6.942
 4905POPC   C4A64386  37.108  27.837   7.199
 4905POPC   C1B64387  36.674  27.429   6.326
 4905POPC   C2B64388  36.477  27.408   6.763
 4905POPC   C3B64389  36.550  27.361   7.221
 4905POPC   C4B64390  36.404  27.214   7.622
 4906POPC   NC364391   5.452  14.990   5.393
 4906POPC   PO464392   4.894  15.295   5.332
 4906POPC   GL164393   5.031  15.062   5.676
 4906POPC   GL264394   4.834  15.248   5.863
 4906POPC   C1A64395   5.169  14.839   6.033
 4906POPC   D2A64396   5.274  14.944   6.460
 4906POPC   C3A64397   4.985  14.907   6.825
 4906POPC   C4A64398   5.168  14.979   7.245
 4906POPC   C1B64399   5.121  15.337   6.156
 4906POPC   C2B64400   4.949  15.351   6.554
 4906POPC   C3B64401   5.018  15.405   6.977
 4906POPC   C4B64402   4.834  15.389   7.384
 4907POPC   NC364403  36.379  20.935   5.294
 4907POPC   PO464404  36.640  21.546   5.515
 4907POPC   GL164405  36.390  21.331   5.776
 4907POPC   GL264406  36.018  21.282   5.694
 4907POPC   C1A64407  36.415  21.393   6.208
 4907POPC   D2A64408  36.127  21.304   6.511
 4907POPC   C3A64409  35.993  21.447   6.906
 4907POPC   C4A64410  35.925  21.268   7.307
 4907POPC   C1B64411  35.800  21.410   6.115
 4907POPC   C2B64412  35.743  21.706   6.531
 4907POPC   C3B64413  35.622  21.768   7.000
 4907POPC   C4B64414  35.728  21.699   7.468
 4908POPC   NC364415  18.713  40.302   5.490
 4908POPC   PO464416  19.322  40.037   5.702
 4908POPC   GL164417  18.965  40.095   5.868
 4908POPC   GL264418  18.806  39.769   5.777
 4908POPC   C1A64419  18.915  40.254   6.237
 4908POPC   D2A64420  18.790  40.118   6.622
 4908POPC   C3A64421  18.881  40.367   6.966
 4908POPC   C4A64422  18.739  40.361   7.374
 4908POPC   C1B64423  18.972  39.719   6.197
 4908POPC   C2B64424  19.254  39.954   6.479
 4908POPC   C3B64425  19.185  39.935   6.928
 4908POPC   C4B64426  18.964  39.922   7.296
 4909POPC   NC364427  37.813  19.518   5.413
 4909POPC   PO464428  37.387  20.055   5.408
 4909POPC   GL164429  37.497  19.784   5.758
 4909POPC   GL264430  37.852  19.775   5.844
 4909POPC   C1A64431  37.476  19.676   6.196
 4909POPC   D2A64432  37.728  19.732   6.562
 4909POPC   C3A64433  37.510  19.692   6.940
 4909POPC   C4A64434  37.770  19.752   7.274
 4909POPC   C1B64435  37.882  20.048   6.179
 4909POPC   C2B64436  38.126  20.217   6.519
 4909POPC   C3B64437  38.030  20.124   6.949
 4909POPC   C4B64438  37.859  20.256   7.347
 4910POPC   NC364439  35.840  27.857   5.130
 4910POPC   PO464440  35.358  28.123   5.579
 4910POPC   GL164441  35.343  27.864   5.933
 4910POPC   GL264442  35.596  27.660   5.903
 4910POPC   C1A64443  35.274  27.678   6.369
 4910POPC   D2A64444  35.142  27.657   6.822
 4910POPC   C3A64445  35.298  27.333   7.114
 4910POPC   C4A64446  35.622  27.380   7.417
 4910POPC   C1B64447  35.747  27.844   6.274
 4910POPC   C2B64448  35.712  27.673   6.662
 4910POPC   C3B64449  35.596  27.756   7.037
 4910POPC   C4B64450  35.728  27.887   7.386
 4911POPC   NC364451  41.000  18.105   5.486
 4911POPC   PO464452  41.637  18.491   5.401
 4911POPC   GL164453  41.454  18.244   5.745
 4911POPC   GL264454  41.394  18.552   5.923
 4911POPC   C1A64455  41.349  18.080   6.177
 4911POPC   D2A64456  41.441  18.183   6.624
 4911POPC   C3A64457  41.401  17.906   6.983
 4911POPC   C4A64458  41.436  18.050   7.392
 4911POPC   C1B64459  41.298  18.608   6.357
 4911POPC   C2B64460  41.241  18.660   6.794
 4911POPC   C3B64461  41.463  18.513   7.149
 4911POPC   C4B64462  41.773  18.476   7.492
 4912POPC   NC364463  29.265   7.484   5.572
 4912POPC   PO464464  28.718   7.783   5.410
 4912POPC   GL164465  28.808   7.599   5.833
 4912POPC   GL264466  28.835   7.238   5.778
 4912POPC   C1A64467  28.962   7.644   6.273
 4912POPC   D2A64468  29.127   7.746   6.696
 4912POPC   C3A64469  29.515   7.564   6.883
 4912POPC   C4A64470  29.467   7.278   7.221
 4912POPC   C1B64471  28.788   7.163   6.206
 4912POPC   C2B64472  28.993   7.061   6.585
 4912POPC   C3B64473  29.041   7.286   6.953
 4912POPC   C4B64474  28.729   7.547   7.169
 4913POPC   NC364475  16.826  38.694   5.248
 4913POPC   PO464476  16.402  38.251   5.254
 4913POPC   GL164477  16.649  38.377   5.642
 4913POPC   GL264478  17.006  38.243   5.724
 4913POPC   C1A64479  16.547  38.261   6.076
 4913POPC   D2A64480  16.408  38.176   6.518
 4913POPC   C3A64481  16.513  38.538   6.794
 4913POPC   C4A64482  16.672  38.818   7.126
 4913POPC   C1B64483  17.194  38.278   6.164
 4913POPC   C2B64484  17.154  38.205   6.642
 4913POPC   C3B64485  16.967  38.415   7.006
 4913POPC   C4B64486  17.093  38.690   7.363
 4914POPC   NC364487  24.116  40.423   5.482
 4914POPC   PO464488  24.631  40.954   5.346
 4914POPC   GL164489  24.572  40.758   5.744
 4914POPC   GL264490  24.688  40.396   5.743
 4914POPC   C1A64491  24.363  40.943   6.124
 4914POPC   D2A64492  24.385  41.130   6.551
 4914POPC   C3A64493  24.703  40.982   6.861
 4914POPC   C4A64494  24.722  40.893   7.329
 4914POPC   C1B64495  24.463  40.451   6.130
 4914POPC   C2B64496  24.414  40.613   6.553
 4914POPC   C3B64497  24.362  40.631   7.012
 4914POPC   C4B64498  24.480  40.413   7.372
 4915POPC   NC364499  35.175  28.528   5.459
 4915POPC   PO464500  35.782  28.301   5.255
 4915POPC   GL164501  35.615  28.520   5.718
 4915POPC   GL264502  35.631  28.291   6.019
 4915POPC   C1A64503  35.340  28.675   6.110
 4915POPC   D2A64504  35.431  28.619   6.581
 4915POPC   C3A64505  35.200  28.599   6.989
 4915POPC   C4A64506  35.411  28.583   7.417
 4915POPC   C1B64507  35.354  28.186   6.327
 4915POPC   C2B64508  35.297  28.141   6.760
 4915POPC   C3B64509  35.259  28.105   7.198
 4915POPC   C4B64510  35.237  27.726   7.448
 4916POPC   NC364511   4.247  10.696   5.385
 4916POPC   PO464512   4.457  10.041   5.451
 4916POPC   GL164513   4.372  10.277   5.855
 4916POPC   GL264514   4.237  10.653   5.881
 4916POPC   C1A64515   4.345  10.303   6.320
 4916POPC   D2A64516   4.132  10.413   6.693
 4916POPC   C3A64517   4.371  10.244   7.037
 4916POPC   C4A64518   4.502  10.442   7.435
 4916POPC   C1B64519   4.229  10.784   6.306
 4916POPC   C2B64520   4.553  10.707   6.636
 4916POPC   C3B64521   4.407  10.771   7.047
 4916POPC   C4B64522   3.989  10.928   7.104
 4917POPC   NC364523  23.938  22.104   5.002
 4917POPC   PO464524  23.585  22.549   5.311
 4917POPC   GL164525  23.665  22.403   5.798
 4917POPC   GL264526  23.522  22.058   5.820
 4917POPC   C1A64527  23.726  22.371   6.293
 4917POPC   D2A64528  23.633  22.524   6.739
 4917POPC   C3A64529  23.721  22.252   7.100
 4917POPC   C4A64530  24.082  22.194   7.378
 4917POPC   C1B64531  23.283  22.157   6.197
 4917POPC   C2B64532  23.205  22.194   6.629
 4917POPC   C3B64533  23.262  21.961   6.999
 4917POPC   C4B64534  23.399  21.954   7.395
 4918POPC   NC364535  37.111  25.300   5.435
 4918POPC   PO464536  36.630  24.796   5.364
 4918POPC   GL164537  36.773  25.097   5.749
 4918POPC   GL264538  37.114  24.984   5.831
 4918POPC   C1A64539  37.015  25.400   6.100
 4918POPC   D2A64540  37.088  25.642   6.497
 4918POPC   C3A64541  36.966  25.523   6.924
 4918POPC   C4A64542  36.710  25.438   7.289
 4918POPC   C1B64543  36.991  24.929   6.277
 4918POPC   C2B64544  37.042  25.054   6.711
 4918POPC   C3B64545  37.032  25.036   7.163
 4918POPC   C4B64546  36.716  24.948   7.497
 4919POPC   NC364547  17.878  35.694   5.051
 4919POPC   PO464548  17.377  35.491   5.388
 4919POPC   GL164549  17.184  35.290   5.750
 4919POPC   GL264550  17.285  35.577   5.934
 4919POPC   C1A64551  17.183  35.155   6.204
 4919POPC   D2A64552  17.357  35.312   6.607
 4919POPC   C3A64553  17.657  35.135   6.924
 4919POPC   C4A64554  17.366  35.050   7.260
 4919POPC   C1B64555  17.591  35.658   6.268
 4919POPC   C2B64556  17.772  35.597   6.680
 4919POPC   C3B64557  17.515  35.598   7.041
 4919POPC   C4B64558  17.434  35.650   7.462
 4920POPC   NC364559   4.343  12.513   5.454
 4920POPC   PO464560   4.809  12.109   5.321
 4920POPC   GL164561   4.557  12.093   5.717
 4920POPC   GL264562   4.192  12.024   5.807
 4920POPC   C1A64563   4.561  12.108   6.174
 4920POPC   D2A64564   4.643  11.848   6.533
 4920POPC   C3A64565   4.400  11.977   6.895
 4920POPC   C4A64566   4.409  12.153   7.308
 4920POPC   C1B64567   4.037  12.021   6.255
 4920POPC   C2B64568   3.934  12.064   6.705
 4920POPC   C3B64569   3.938  12.065   7.156
 4920POPC   C4B64570   3.972  12.171   7.593
 4921POPC   NC364571  39.060  17.021   5.378
 4921POPC   PO464572  38.889  17.718   5.197
 4921POPC   GL164573  39.102  17.455   5.630
 4921POPC   GL264574  38.862  17.248   5.811
 4921POPC   C1A64575  39.233  17.416   6.112
 4921POPC   D2A64576  39.369  17.634   6.516
 4921POPC   C3A64577  39.440  17.457   6.925
 4921POPC   C4A64578  39.580  17.724   7.284
 4921POPC   C1B64579  38.743  17.388   6.267
 4921POPC   C2B64580  38.872  17.558   6.710
 4921POPC   C3B64581  38.992  17.414   7.155
 4921POPC   C4B64582  38.709  17.294   7.550
 4922POPC   NC364583  28.597  30.073   5.345
 4922POPC   PO464584  27.983  29.735   5.480
 4922POPC   GL164585  28.243  30.076   5.737
 4922POPC   GL264586  28.610  30.147   5.843
 4922POPC   C1A64587  28.248  30.246   6.147
 4922POPC   D2A64588  28.209  30.265   6.563
 4922POPC   C3A64589  28.368  29.916   6.800
 4922POPC   C4A64590  28.416  29.952   7.233
 4922POPC   C1B64591  28.634  29.949   6.307
 4922POPC   C2B64592  28.723  29.585   6.610
 4922POPC   C3B64593  28.688  29.563   7.073
 4922POPC   C4B64594  28.729  29.675   7.502
 4923POPC   NC364595  12.805  23.273   5.551
 4923POPC   PO464596  13.102  22.754   5.409
 4923POPC   GL164597  13.031  22.871   5.833
 4923POPC   GL264598  12.644  22.893   5.867
 4923POPC   C1A64599  12.939  22.724   6.251
 4923POPC   D2A64600  12.704  22.858   6.598
 4923POPC   C3A64601  12.855  23.170   6.885
 4923POPC   C4A64602  12.747  23.319   7.293
 4923POPC   C1B64603  12.474  22.558   6.151
 4923POPC   C2B64604  12.470  22.381   6.555
 4923POPC   C3B64605  12.473  22.575   6.970
 4923POPC   C4B64606  12.785  22.807   7.226
 4924POPC   NC364607  15.759  12.846   5.540
 4924POPC   PO464608  16.217  13.287   5.292
 4924POPC   GL164609  16.259  13.013   5.692
 4924POPC   GL264610  16.200  12.630   5.716
 4924POPC   C1A64611  16.029  13.017   6.115
 4924POPC   D2A64612  15.736  12.902   6.472
 4924POPC   C3A64613  15.825  13.008   6.913
 4924POPC   C4A64614  15.597  12.893   7.284
 4924POPC   C1B64615  16.329  12.619   6.156
 4924POPC   C2B64616  16.256  12.889   6.558
 4924POPC   C3B64617  16.307  12.730   6.976
 4924POPC   C4B64618  16.165  12.453   7.334
 4925POPC   NC364619  18.796   7.577   5.267
 4925POPC   PO464620  19.260   7.103   5.503
 4925POPC   GL164621  19.124   7.341   5.841
 4925POPC   GL264622  18.774   7.373   5.756
 4925POPC   C1A64623  18.996   7.353   6.286
 4925POPC   D2A64624  18.816   7.289   6.685
 4925POPC   C3A64625  19.105   7.382   6.991
 4925POPC   C4A64626  19.431   7.119   7.115
 4925POPC   C1B64627  18.739   7.726   6.058
 4925POPC   C2B64628  18.721   7.777   6.528
 4925POPC   C3B64629  18.657   7.721   6.991
 4925POPC   C4B64630  18.799   7.473   7.391
 4926POPC   NC364631  29.429  18.861   5.339
 4926POPC   PO464632  28.803  18.941   5.459
 4926POPC   GL164633  29.149  19.007   5.759
 4926POPC   GL264634  29.352  19.294   5.626
 4926POPC   C1A64635  29.192  18.957   6.224
 4926POPC   D2A64636  28.965  19.009   6.631
 4926POPC   C3A64637  29.118  18.786   6.990
 4926POPC   C4A64638  29.506  18.725   7.156
 4926POPC   C1B64639  29.339  19.434   6.078
 4926POPC   C2B64640  29.411  19.338   6.546
 4926POPC   C3B64641  29.226  19.302   6.975
 4926POPC   C4B64642  28.808  19.375   7.159
 4927POPC   NC364643   5.770  25.387   5.538
 4927POPC   PO464644   6.203  25.033   5.282
 4927POPC   GL164645   5.963  24.933   5.709
 4927POPC   GL264646   6.135  24.674   5.899
 4927POPC   C1A64647   5.707  25.032   6.142
 4927POPC   D2A64648   5.549  25.258   6.552
 4927POPC   C3A64649   5.700  25.220   6.999
 4927POPC   C4A64650   5.758  25.501   7.395
 4927POPC   C1B64651   6.084  24.754   6.360
 4927POPC   C2B64652   6.103  25.026   6.744
 4927POPC   C3B64653   6.172  25.108   7.201
 4927POPC   C4B64654   6.225  24.910   7.624
 4928POPC   NC364655  17.489   5.436   5.552
 4928POPC   PO464656  17.434   4.759   5.437
 4928POPC   GL164657  17.451   4.970   5.810
 4928POPC   GL264658  17.797   4.965   5.794
 4928POPC   C1A64659  17.580   5.137   6.220
 4928POPC   D2A64660  17.363   5.254   6.587
 4928POPC   C3A64661  17.543   5.041   6.912
 4928POPC   C4A64662  17.429   5.057   7.321
 4928POPC   C1B64663  17.876   4.706   6.174
 4928POPC   C2B64664  17.933   4.846   6.593
 4928POPC   C3B64665  17.840   4.633   6.974
 4928POPC   C4B64666  18.014   4.749   7.327
 4929POPC   NC364667  38.660   6.202   5.423
 4929POPC   PO464668  38.198   5.811   5.202
 4929POPC   GL164669  38.379   5.837   5.648
 4929POPC   GL264670  38.390   6.160   5.836
 4929POPC   C1A64671  38.497   5.775   6.100
 4929POPC   D2A64672  38.666   5.594   6.415
 4929POPC   C3A64673  38.561   5.671   6.811
 4929POPC   C4A64674  38.446   5.609   7.201
 4929POPC   C1B64675  38.439   6.263   6.253
 4929POPC   C2B64676  38.317   6.139   6.644
 4929POPC   C3B64677  38.473   6.119   7.060
 4929POPC   C4B64678  38.656   6.219   7.445
 4930POPC   NC364679  33.208   8.507   5.519
 4930POPC   PO464680  32.843   7.956   5.239
 4930POPC   GL164681  33.038   8.037   5.624
 4930POPC   GL264682  32.836   8.164   5.815
 4930POPC   C1A64683  33.248   8.152   6.082
 4930POPC   D2A64684  33.059   8.340   6.448
 4930POPC   C3A64685  33.246   8.263   6.852
 4930POPC   C4A64686  33.358   8.215   7.286
 4930POPC   C1B64687  32.834   7.883   6.197
 4930POPC   C2B64688  33.025   7.822   6.614
 4930POPC   C3B64689  33.046   7.837   7.080
 4930POPC   C4B64690  32.805   8.144   7.364
 4931POPC   NC364691  28.063   7.676   5.621
 4931POPC   PO464692  27.757   8.263   5.372
 4931POPC   GL164693  27.684   8.011   5.727
 4931POPC   GL264694  27.964   8.152   5.877
 4931POPC   C1A64695  27.578   7.949   6.177
 4931POPC   D2A64696  27.313   8.141   6.515
 4931POPC   C3A64697  27.341   8.121   6.982
 4931POPC   C4A64698  27.606   8.369   7.277
 4931POPC   C1B64699  28.074   8.033   6.307
 4931POPC   C2B64700  27.843   8.030   6.727
 4931POPC   C3B64701  27.785   7.879   7.171
 4931POPC   C4B64702  27.863   7.790   7.638
 4932POPC   NC364703  13.485  23.965   5.484
 4932POPC   PO464704  13.887  23.373   5.379
 4932POPC   GL164705  13.735  23.625   5.814
 4932POPC   GL264706  13.746  23.974   5.936
 4932POPC   C1A64707  13.720  23.646   6.320
 4932POPC   D2A64708  13.527  23.468   6.712
 4932POPC   C3A64709  13.752  23.484   7.086
 4932POPC   C4A64710  13.969  23.799   7.286
 4932POPC   C1B64711  13.312  23.921   6.143
 4932POPC   C2B64712  13.225  23.973   6.585
 4932POPC   C3B64713  13.511  23.957   6.937
 4932POPC   C4B64714  13.423  23.803   7.328
 4933POPC   NC364715   9.309  32.409   5.586
 4933POPC   PO464716  10.038  32.398   5.512
 4933POPC   GL164717   9.767  32.277   5.839
 4933POPC   GL264718   9.593  31.992   5.726
 4933POPC   C1A64719   9.710  32.476   6.227
 4933POPC   D2A64720   9.808  32.668   6.611
 4933POPC   C3A64721   9.947  32.396   6.915
 4933POPC   C4A64722   9.787  32.439   7.325
 4933POPC   C1B64723   9.390  32.066   6.155
 4933POPC   C2B64724   9.543  32.158   6.603
 4933POPC   C3B64725   9.531  32.090   7.066
 4933POPC   C4B64726   9.579  32.007   7.540
 4934POPC   NC364727  10.180  32.797   5.290
 4934POPC   PO464728   9.648  33.219   5.278
 4934POPC   GL164729   9.849  33.175   5.714
 4934POPC   GL264730   9.554  33.332   5.835
 4934POPC   C1A64731   9.835  33.053   6.215
 4934POPC   D2A64732   9.989  33.174   6.687
 4934POPC   C3A64733  10.051  32.898   7.096
 4934POPC   C4A64734   9.862  32.892   7.526
 4934POPC   C1B64735   9.341  33.269   6.223
 4934POPC   C2B64736   9.478  33.052   6.607
 4934POPC   C3B64737   9.556  33.029   7.035
 4934POPC   C4B64738   9.301  33.326   7.231
 4935POPC   NC364739  38.418  19.131   5.350
 4935POPC   PO464740  39.060  19.296   5.354
 4935POPC   GL164741  38.712  19.166   5.759
 4935POPC   GL264742  38.547  18.833   5.771
 4935POPC   C1A64743  38.412  19.214   6.165
 4935POPC   D2A64744  38.315  18.932   6.579
 4935POPC   C3A64745  38.338  19.123   7.065
 4935POPC   C4A64746  38.164  19.409   7.449
 4935POPC   C1B64747  38.770  18.869   6.189
 4935POPC   C2B64748  38.790  19.122   6.579
 4935POPC   C3B64749  38.859  18.973   6.998
 4935POPC   C4B64750  38.732  18.746   7.361
 4936POPC   NC364751   5.234  10.995   5.585
 4936POPC   PO464752   4.956  11.590   5.492
 4936POPC   GL164753   4.977  11.384   5.870
 4936POPC   GL264754   5.301  11.265   6.020
 4936POPC   C1A64755   4.867  11.415   6.290
 4936POPC   D2A64756   5.193  11.371   6.552
 4936POPC   C3A64757   5.089  11.492   6.943
 4936POPC   C4A64758   4.868  11.279   7.213
 4936POPC   C1B64759   5.153  10.938   6.286
 4936POPC   C2B64760   5.283  10.901   6.733
 4936POPC   C3B64761   5.186  10.885   7.153
 4936POPC   C4B64762   5.362  10.927   7.550
 4937POPC   NC364763  21.102  40.114   5.346
 4937POPC   PO464764  21.742  40.317   5.413
 4937POPC   GL164765  21.546  40.164   5.833
 4937POPC   GL264766  21.167  40.155   5.841
 4937POPC   C1A64767  21.427  39.915   6.234
 4937POPC   D2A64768  21.158  39.808   6.617
 4937POPC   C3A64769  21.271  39.862   7.060
 4937POPC   C4A64770  21.644  40.006   7.271
 4937POPC   C1B64771  21.178  40.356   6.226
 4937POPC   C2B64772  21.380  40.296   6.615
 4937POPC   C3B64773  21.208  40.368   7.008
 4937POPC   C4B64774  21.245  40.338   7.428
 4938POPC   NC364775  19.193  24.381   5.430
 4938POPC   PO464776  19.520  24.999   5.479
 4938POPC   GL164777  19.132  24.788   5.730
 4938POPC   GL264778  19.137  24.448   5.930
 4938POPC   C1A64779  18.892  24.826   6.139
 4938POPC   D2A64780  19.019  24.565   6.501
 4938POPC   C3A64781  18.989  24.647   6.939
 4938POPC   C4A64782  18.656  24.580   7.251
 4938POPC   C1B64783  19.104  24.122   6.275
 4938POPC   C2B64784  19.059  24.027   6.735
 4938POPC   C3B64785  19.080  24.181   7.170
 4938POPC   C4B64786  19.338  24.160   7.589
 4939POPC   NC364787   3.178   6.088   5.449
 4939POPC   PO464788   3.779   5.848   5.580
 4939POPC   GL164789   3.423   5.793   5.791
 4939POPC   GL264790   3.224   5.513   5.649
 4939POPC   C1A64791   3.435   5.977   6.183
 4939POPC   D2A64792   3.419   6.233   6.533
 4939POPC   C3A64793   3.527   6.015   6.877
 4939POPC   C4A64794   3.561   6.147   7.284
 4939POPC   C1B64795   3.178   5.495   6.112
 4939POPC   C2B64796   3.165   5.714   6.527
 4939POPC   C3B64797   3.297   5.536   6.891
 4939POPC   C4B64798   3.593   5.601   7.239
 4940POPC   NC364799  27.364   5.095   5.473
 4940POPC   PO464800  26.790   5.236   5.427
 4940POPC   GL164801  26.927   4.978   5.779
 4940POPC   GL264802  27.237   5.070   5.965
 4940POPC   C1A64803  26.829   4.911   6.232
 4940POPC   D2A64804  26.752   5.154   6.627
 4940POPC   C3A64805  26.709   4.984   7.064
 4940POPC   C4A64806  26.496   4.931   7.477
 4940POPC   C1B64807  27.225   5.235   6.395
 4940POPC   C2B64808  27.086   5.532   6.697
 4940POPC   C3B64809  26.981   5.422   7.105
 4940POPC   C4B64810  26.949   5.212   7.486
 4941POPC   NC364811  19.082  12.393   5.534
 4941POPC   PO464812  19.346  11.714   5.301
 4941POPC   GL164813  19.247  11.858   5.780
 4941POPC   GL264814  18.907  12.011   5.826
 4941POPC   C1A64815  19.093  11.874   6.259
 4941POPC   D2A64816  19.063  12.150   6.616
 4941POPC   C3A64817  19.157  12.031   7.056
 4941POPC   C4A64818  19.148  12.183   7.522
 4941POPC   C1B64819  18.835  12.357   6.154
 4941POPC   C2B64820  18.596  12.388   6.545
 4941POPC   C3B64821  18.738  12.354   6.964
 4941POPC   C4B64822  18.701  12.067   7.316
 4942POPC   NC364823  17.224   2.999   5.391
 4942POPC   PO464824  17.645   2.520   5.429
 4942POPC   GL164825  17.587   2.782   5.784
 4942POPC   GL264826  17.904   2.988   5.823
 4942POPC   C1A64827  17.435   2.559   6.151
 4942POPC   D2A64828  17.293   2.384   6.554
 4942POPC   C3A64829  17.503   2.583   6.897
 4942POPC   C4A64830  17.394   2.698   7.290
 4942POPC   C1B64831  17.813   2.898   6.262
 4942POPC   C2B64832  17.808   2.958   6.720
 4942POPC   C3B64833  17.732   3.031   7.163
 4942POPC   C4B64834  17.797   2.964   7.629
 4943POPC   NC364835  23.816  31.666   5.330
 4943POPC   PO464836  23.908  31.122   5.628
 4943POPC   GL164837  23.816  31.417   5.846
 4943POPC   GL264838  23.511  31.489   5.825
 4943POPC   C1A64839  23.832  31.326   6.251
 4943POPC   D2A64840  23.949  31.501   6.580
 4943POPC   C3A64841  23.785  31.304   6.920
 4943POPC   C4A64842  23.935  31.256   7.314
 4943POPC   C1B64843  23.312  31.434   6.183
 4943POPC   C2B64844  23.436  31.434   6.564
 4943POPC   C3B64845  23.401  31.667   6.891
 4943POPC   C4B64846  23.526  31.555   7.283
 4944POPC   NC364847  33.036  21.777   5.332
 4944POPC   PO464848  32.663  21.238   5.397
 4944POPC   GL164849  32.826  21.357   5.793
 4944POPC   GL264850  33.146  21.520   5.790
 4944POPC   C1A64851  33.006  21.095   6.155
 4944POPC   D2A64852  33.259  21.042   6.540
 4944POPC   C3A64853  33.041  21.042   6.909
 4944POPC   C4A64854  33.037  21.324   7.213
 4944POPC   C1B64855  32.984  21.589   6.233
 4944POPC   C2B64856  33.050  21.519   6.685
 4944POPC   C3B64857  33.149  21.792   7.056
 4944POPC   C4B64858  32.916  21.771   7.439
 4945POPC   NC364859  28.841   9.145   5.506
 4945POPC   PO464860  29.181   8.554   5.380
 4945POPC   GL164861  29.283   8.905   5.689
 4945POPC   GL264862  29.005   8.909   5.925
 4945POPC   C1A64863  29.372   9.223   6.070
 4945POPC   D2A64864  29.271   9.290   6.543
 4945POPC   C3A64865  29.320   9.195   7.020
 4945POPC   C4A64866  29.169   9.081   7.464
 4945POPC   C1B64867  29.256   8.777   6.300
 4945POPC   C2B64868  29.155   8.786   6.726
 4945POPC   C3B64869  29.184   8.697   7.147
 4945POPC   C4B64870  28.828   8.711   7.484
 4946POPC   NC364871  37.475  32.102   5.468
 4946POPC   PO464872  37.914  32.639   5.218
 4946POPC   GL164873  37.800  32.430   5.672
 4946POPC   GL264874  37.794  32.102   5.837
 4946POPC   C1A64875  37.565  32.492   6.105
 4946POPC   D2A64876  37.453  32.732   6.517
 4946POPC   C3A64877  37.616  32.534   6.921
 4946POPC   C4A64878  37.452  32.458   7.325
 4946POPC   C1B64879  37.629  31.980   6.199
 4946POPC   C2B64880  37.881  32.059   6.549
 4946POPC   C3B64881  37.744  32.016   6.950
 4946POPC   C4B64882  37.928  32.198   7.287
 4947POPC   NC364883  16.793  25.192   5.400
 4947POPC   PO464884  16.233  24.860   5.462
 4947POPC   GL164885  16.352  25.177   5.792
 4947POPC   GL264886  16.562  25.499   5.773
 4947POPC   C1A64887  16.513  25.192   6.244
 4947POPC   D2A64888  16.376  25.410   6.628
 4947POPC   C3A64889  16.616  25.348   6.971
 4947POPC   C4A64890  16.723  25.631   7.298
 4947POPC   C1B64891  16.888  25.533   6.131
 4947POPC   C2B64892  16.930  25.342   6.547
 4947POPC   C3B64893  17.129  25.461   6.941
 4947POPC   C4B64894  17.220  25.565   7.352
 4948POPC   NC364895  43.479  15.368   5.203
 4948POPC   PO464896  43.070  14.952   5.199
 4948POPC   GL164897  43.086  15.183   5.650
 4948POPC   GL264898  43.389  15.315   5.771
 4948POPC   C1A64899  42.846  15.302   6.033
 4948POPC   D2A64900  42.819  15.223   6.517
 4948POPC   C3A64901  42.963  15.453   6.901
 4948POPC   C4A64902  42.922  15.398   7.354
 4948POPC   C1B64903  43.302  15.168   6.228
 4948POPC   C2B64904  43.294  15.111   6.707
 4948POPC   C3B64905  43.124  14.979   7.134
 4948POPC   C4B64906  43.162  14.678   7.516
 4949POPC   NC364907  38.194  15.401   5.543
 4949POPC   PO464908  38.715  14.915   5.428
 4949POPC   GL164909  38.587  14.965   5.845
 4949POPC   GL264910  38.241  14.975   5.865
 4949POPC   C1A64911  38.492  15.265   6.204
 4949POPC   D2A64912  38.623  15.361   6.621
 4949POPC   C3A64913  38.330  15.385   6.928
 4949POPC   C4A64914  38.508  15.415   7.280
 4949POPC   C1B64915  38.370  14.764   6.270
 4949POPC   C2B64916  38.355  14.878   6.718
 4949POPC   C3B64917  38.493  14.897   7.150
 4949POPC   C4B64918  38.867  15.018   7.374
 4950POPC   NC364919  25.511   0.592   5.541
 4950POPC   PO464920  24.831   0.437   5.484
 4950POPC   GL164921  25.029   0.528   5.850
 4950POPC   GL264922  25.215   0.281   5.807
 4950POPC   C1A64923  25.067   0.441   6.316
 4950POPC   D2A64924  25.002   0.374   6.756
 4950POPC   C3A64925  25.095   0.696   7.074
 4950POPC   C4A64926  24.736   0.899   7.206
 4950POPC   C1B64927  25.448   0.168   6.125
 4950POPC   C2B64928  25.405   0.126   6.554
 4950POPC   C3B64929  25.498   0.297   6.959
 4950POPC   C4B64930  25.175   0.213   7.212
 4951POPC   NC364931  27.083  26.914   5.513
 4951POPC   PO464932  26.503  26.415   5.488
 4951POPC   GL164933  26.592  26.714   5.799
 4951POPC   GL264934  26.643  27.076   5.760
 4951POPC   C1A64935  26.833  26.783   6.158
 4951POPC   D2A64936  26.789  26.953   6.564
 4951POPC   C3A64937  26.979  26.721   6.887
 4951POPC   C4A64938  26.781  26.698   7.279
 4951POPC   C1B64939  26.450  27.180   6.155
 4951POPC   C2B64940  26.399  27.306   6.585
 4951POPC   C3B64941  26.604  27.194   6.980
 4951POPC   C4B64942  26.608  27.152   7.425
 4952POPC   NC364943  11.674  21.050   5.364
 4952POPC   PO464944  12.403  21.251   5.446
 4952POPC   GL164945  12.244  21.217   5.828
 4952POPC   GL264946  11.922  21.289   5.731
 4952POPC   C1A64947  12.386  21.277   6.242
 4952POPC   D2A64948  12.333  21.507   6.618
 4952POPC   C3A64949  12.311  21.283   6.998
 4952POPC   C4A64950  12.134  21.399   7.390
 4952POPC   C1B64951  11.813  21.359   6.144
 4952POPC   C2B64952  11.953  21.187   6.513
 4952POPC   C3B64953  11.822  21.239   6.916
 4952POPC   C4B64954  11.659  21.228   7.289
 4953POPC   NC364955  12.633   3.020   5.257
 4953POPC   PO464956  12.463   2.457   5.580
 4953POPC   GL164957  12.724   2.795   5.716
 4953POPC   GL264958  13.044   2.704   5.764
 4953POPC   C1A64959  12.860   3.051   6.069
 4953POPC   D2A64960  13.047   2.918   6.426
 4953POPC   C3A64961  12.806   2.852   6.790
 4953POPC   C4A64962  12.850   2.840   7.241
 4953POPC   C1B64963  13.145   2.496   6.131
 4953POPC   C2B64964  12.985   2.409   6.529
 4953POPC   C3B64965  13.154   2.505   6.933
 4953POPC   C4B64966  13.448   2.309   7.187
 4954POPC   NC364967  43.195  17.062   5.442
 4954POPC   PO464968  42.767  16.568   5.593
 4954POPC   GL164969  43.079  16.729   5.873
 4954POPC   GL264970  42.992  17.065   5.895
 4954POPC   C1A64971  43.106  16.810   6.317
 4954POPC   D2A64972  42.997  16.881   6.707
 4954POPC   C3A64973  43.264  16.838   7.027
 4954POPC   C4A64974  42.980  16.930   7.305
 4954POPC   C1B64975  43.110  17.316   6.236
 4954POPC   C2B64976  43.305  17.271   6.594
 4954POPC   C3B64977  43.108  17.309   6.964
 4954POPC   C4B64978  43.383  17.276   7.319
 4955POPC   NC364979  43.408  36.256   5.451
 4955POPC   PO464980  42.740  36.098   5.552
 4955POPC   GL164981  43.097  36.047   5.797
 4955POPC   GL264982  43.075  36.398   5.890
 4955POPC   C1A64983  43.162  35.872   6.179
 4955POPC   D2A64984  42.937  35.894   6.568
 4955POPC   C3A64985  43.157  36.067   6.904
 4955POPC   C4A64986  43.204  36.012   7.327
 4955POPC   C1B64987  43.021  36.355   6.358
 4955POPC   C2B64988  42.914  36.519   6.780
 4955POPC   C3B64989  42.941  36.430   7.204
 4955POPC   C4B64990  42.990  36.487   7.654
 4956POPC   NC364991  31.171  31.951   5.398
 4956POPC   PO464992  31.697  32.347   5.308
 4956POPC   GL164993  31.579  32.206   5.708
 4956POPC   GL264994  31.545  31.873   5.766
 4956POPC   C1A64995  31.513  32.276   6.154
 4956POPC   D2A64996  31.548  32.580   6.518
 4956POPC   C3A64997  31.317  32.428   6.877
 4956POPC   C4A64998  31.421  32.315   7.300
 4956POPC   C1B64999  31.683  31.772   6.190
 4956POPC   C2B65000  31.839  32.036   6.527
 4956POPC   C3B65001  31.653  32.018   6.934
 4956POPC   C4B65002  31.824  31.992   7.340
 4957POPC   NC365003   3.866  17.057   5.544
 4957POPC   PO465004   3.389  16.724   5.282
 4957POPC   GL165005   3.372  16.677   5.762
 4957POPC   GL265006   3.151  16.423   5.878
 4957POPC   C1A65007   3.582  16.836   6.193
 4957POPC   D2A65008   3.843  16.975   6.557
 4957POPC   C3A65009   3.651  16.953   6.973
 4957POPC   C4A65010   3.771  16.772   7.390
 4957POPC   C1B65011   3.071  16.777   6.178
 4957POPC   C2B65012   3.225  16.862   6.602
 4957POPC   C3B65013   3.264  16.606   6.986
 4957POPC   C4B65014   3.249  16.801   7.380
 4958POPC   NC365015  36.002  28.672   5.416
 4958POPC   PO465016  36.338  28.059   5.546
 4958POPC   GL165017  36.406  28.456   5.750
 4958POPC   GL265018  36.092  28.434   5.872
 4958POPC   C1A65019  36.432  28.620   6.187
 4958POPC   D2A65020  36.493  28.333   6.549
 4958POPC   C3A65021  36.261  28.343   6.954
 4958POPC   C4A65022  36.197  28.079   7.319
 4958POPC   C1B65023  36.064  28.252   6.288
 4958POPC   C2B65024  35.789  28.209   6.636
 4958POPC   C3B65025  35.721  28.288   7.053
 4958POPC   C4B65026  35.926  28.502   7.358
 4959POPC   NC365027  12.483  16.445   5.351
 4959POPC   PO465028  13.147  16.498   5.538
 4959POPC   GL165029  12.820  16.650   5.817
 4959POPC   GL265030  12.584  16.914   5.711
 4959POPC   C1A65031  12.824  16.707   6.272
 4959POPC   D2A65032  12.737  16.591   6.715
 4959POPC   C3A65033  13.021  16.706   7.056
 4959POPC   C4A65034  13.019  16.525   7.460
 4959POPC   C1B65035  12.549  17.102   6.128
 4959POPC   C2B65036  12.611  17.076   6.570
 4959POPC   C3B65037  12.646  17.041   7.005
 4959POPC   C4B65038  12.858  17.017   7.422
 4960POPC   NC365039  44.839   0.523   5.283
 4960POPC   PO465040  44.175   0.417   5.161
 4960POPC   GL165041  44.331   0.545   5.637
 4960POPC   GL265042  44.676   0.413   5.758
 4960POPC   C1A65043  44.386   0.584   6.131
 4960POPC   D2A65044  44.427   0.417   6.573
 4960POPC   C3A65045  44.454   0.693   6.923
 4960POPC   C4A65046  44.610   0.684   7.327
 4960POPC   C1B65047  44.752   0.235   6.209
 4960POPC   C2B65048  44.925   0.313   6.664
 4960POPC   C3B65049  44.672   0.212   7.056
 4960POPC   C4B65050  44.667  44.913   7.421
 4961POPC   NC365051   6.392  23.596   5.410
 4961POPC   PO465052   6.454  24.173   5.670
 4961POPC   GL165053   6.466  23.816   5.914
 4961POPC   GL265054   6.733  23.607   5.797
 4961POPC   C1A65055   6.252  23.745   6.303
 4961POPC   D2A65056   6.288  23.952   6.706
 4961POPC   C3A65057   6.408  23.743   7.082
 4961POPC   C4A65058   6.414  23.957   7.457
 4961POPC   C1B65059   6.604  23.386   6.192
 4961POPC   C2B65060   6.663  23.553   6.627
 4961POPC   C3B65061   6.952  23.664   6.979
 4961POPC   C4B65062   6.855  23.665   7.422
 4962POPC   NC365063  22.607   9.946   5.559
 4962POPC   PO465064  23.073   9.480   5.402
 4962POPC   GL165065  23.135   9.700   5.806
 4962POPC   GL265066  23.004  10.035   5.867
 4962POPC   C1A65067  23.004   9.708   6.261
 4962POPC   D2A65068  22.846   9.746   6.691
 4962POPC   C3A65069  22.936   9.462   7.070
 4962POPC   C4A65070  23.043   9.413   7.543
 4962POPC   C1B65071  22.741  10.160   6.256
 4962POPC   C2B65072  22.751  10.245   6.714
 4962POPC   C3B65073  23.137  10.060   6.952
 4962POPC   C4B65074  23.097   9.868   7.349
 4963POPC   NC365075  39.073  42.498   5.468
 4963POPC   PO465076  39.857  42.540   5.487
 4963POPC   GL165077  39.491  42.414   5.792
 4963POPC   GL265078  39.193  42.158   5.813
 4963POPC   C1A65079  39.301  42.410   6.222
 4963POPC   D2A65080  39.141  42.498   6.609
 4963POPC   C3A65081  39.440  42.525   6.922
 4963POPC   C4A65082  39.183  42.614   7.271
 4963POPC   C1B65083  38.971  41.989   6.157
 4963POPC   C2B65084  39.099  41.970   6.576
 4963POPC   C3B65085  39.125  42.127   6.998
 4963POPC   C4B65086  38.899  41.939   7.351
 4964POPC   NC365087  36.862  18.750   5.456
 4964POPC   PO465088  37.376  19.280   5.481
 4964POPC   GL165089  37.021  19.201   5.723
 4964POPC   GL265090  37.104  19.468   5.911
 4964POPC   C1A65091  36.800  19.014   6.080
 4964POPC   D2A65092  36.882  18.994   6.508
 4964POPC   C3A65093  36.770  18.772   6.851
 4964POPC   C4A65094  36.946  18.823   7.225
 4964POPC   C1B65095  36.939  19.470   6.308
 4964POPC   C2B65096  37.167  19.396   6.674
 4964POPC   C3B65097  36.963  19.293   7.035
 4964POPC   C4B65098  36.547  19.164   7.173
 4965POPC   NC365099   1.607  35.293   5.180
 4965POPC   PO465100   0.945  35.411   5.187
 4965POPC   GL165101   1.204  35.480   5.574
 4965POPC   GL265102   1.158  35.137   5.614
 4965POPC   C1A65103   1.312  35.411   6.062
 4965POPC   D2A65104   1.306  35.529   6.556
 4965POPC   C3A65105   1.062  35.634   6.939
 4965POPC   C4A65106   1.373  35.492   7.198
 4965POPC   C1B65107   0.960  35.023   6.003
 4965POPC   C2B65108   1.058  35.092   6.438
 4965POPC   C3B65109   1.148  35.129   6.897
 4965POPC   C4B65110   1.049  35.027   7.351
 4966POPC   NC365111  16.933  29.099   5.475
 4966POPC   PO465112  16.407  29.492   5.336
 4966POPC   GL165113  16.514  29.249   5.708
 4966POPC   GL265114  16.764  29.473   5.817
 4966POPC   C1A65115  16.669  28.988   6.111
 4966POPC   D2A65116  16.796  28.801   6.526
 4966POPC   C3A65117  16.711  29.053   6.898
 4966POPC   C4A65118  16.871  29.071   7.305
 4966POPC   C1B65119  16.943  29.457   6.210
 4966POPC   C2B65120  16.761  29.540   6.594
 4966POPC   C3B65121  16.506  29.553   6.937
 4966POPC   C4B65122  16.663  29.543   7.330
 4967POPC   NC365123  37.861  21.489   5.378
 4967POPC   PO465124  37.354  21.043   5.560
 4967POPC   GL165125  37.721  21.222   5.813
 4967POPC   GL265126  37.796  21.617   5.859
 4967POPC   C1A65127  37.738  21.044   6.228
 4967POPC   D2A65128  37.454  21.023   6.578
 4967POPC   C3A65129  37.577  21.122   7.003
 4967POPC   C4A65130  37.427  21.498   7.193
 4967POPC   C1B65131  37.972  21.492   6.248
 4967POPC   C2B65132  37.889  21.343   6.660
 4967POPC   C3B65133  37.915  21.589   7.045
 4967POPC   C4B65134  37.771  21.800   7.422
 4968POPC   NC365135   2.104  41.429   5.377
 4968POPC   PO465136   1.789  41.978   5.547
 4968POPC   GL165137   2.063  41.699   5.836
 4968POPC   GL265138   1.899  41.379   5.835
 4968POPC   C1A65139   2.322  41.547   6.226
 4968POPC   D2A65140   2.356  41.579   6.707
 4968POPC   C3A65141   1.956  41.708   6.901
 4968POPC   C4A65142   1.883  41.882   7.296
 4968POPC   C1B65143   1.734  41.475   6.228
 4968POPC   C2B65144   1.726  41.273   6.627
 4968POPC   C3B65145   1.983  41.190   6.971
 4968POPC   C4B65146   2.178  41.421   7.270
 4969POPC   NC365147  33.745  22.086   5.440
 4969POPC   PO465148  34.367  21.789   5.406
 4969POPC   GL165149  34.084  21.755   5.752
 4969POPC   GL265150  33.733  21.755   5.835
 4969POPC   C1A65151  34.090  21.964   6.121
 4969POPC   D2A65152  33.835  21.981   6.441
 4969POPC   C3A65153  34.059  22.106   6.788
 4969POPC   C4A65154  33.926  22.377   7.138
 4969POPC   C1B65155  33.442  21.777   6.150
 4969POPC   C2B65156  33.346  21.920   6.566
 4969POPC   C3B65157  33.628  21.872   6.912
 4969POPC   C4B65158  33.582  21.914   7.352
 4970POPC   NC365159  36.851  11.827   5.516
 4970POPC   PO465160  37.245  12.501   5.436
 4970POPC   GL165161  37.016  12.320   5.840
 4970POPC   GL265162  36.685  12.294   5.808
 4970POPC   C1A65163  36.990  12.030   6.247
 4970POPC   D2A65164  37.119  11.921   6.646
 4970POPC   C3A65165  36.954  12.268   6.861
 4970POPC   C4A65166  36.892  12.222   7.297
 4970POPC   C1B65167  36.613  12.352   6.208
 4970POPC   C2B65168  36.505  12.264   6.596
 4970POPC   C3B65169  36.426  12.445   6.956
 4970POPC   C4B65170  36.405  12.266   7.320
 4971POPC   NC365171   9.318  17.745   5.242
 4971POPC   PO465172   9.971  17.777   5.309
 4971POPC   GL165173   9.739  17.781   5.732
 4971POPC   GL265174   9.518  17.479   5.732
 4971POPC   C1A65175   9.767  17.626   6.192
 4971POPC   D2A65176   9.581  17.577   6.613
 4971POPC   C3A65177   9.852  17.544   6.965
 4971POPC   C4A65178   9.826  17.768   7.334
 4971POPC   C1B65179   9.507  17.157   6.075
 4971POPC   C2B65180   9.603  17.081   6.503
 4971POPC   C3B65181   9.546  17.105   6.948
 4971POPC   C4B65182   9.947  17.037   7.115
 4972POPC   NC365183   7.737   8.121   5.464
 4972POPC   PO465184   8.164   8.478   5.140
 4972POPC   GL165185   8.203   8.392   5.679
 4972POPC   GL265186   7.996   8.123   5.902
 4972POPC   C1A65187   8.374   8.324   6.142
 4972POPC   D2A65188   8.113   8.137   6.475
 4972POPC   C3A65189   8.208   8.136   6.923
 4972POPC   C4A65190   8.307   8.190   7.372
 4972POPC   C1B65191   7.897   8.502   6.204
 4972POPC   C2B65192   8.025   8.591   6.669
 4972POPC   C3B65193   8.147   8.611   7.114
 4972POPC   C4B65194   7.981   8.577   7.540
 4973POPC   NC365195   9.343  43.345   4.996
 4973POPC   PO465196   9.800  43.012   5.287
 4973POPC   GL165197   9.767  42.915   5.730
 4973POPC   GL265198   9.452  42.748   5.666
 4973POPC   C1A65199   9.873  43.092   6.167
 4973POPC   D2A65200  10.101  43.204   6.579
 4973POPC   C3A65201   9.861  43.099   6.965
 4973POPC   C4A65202   9.546  43.333   7.212
 4973POPC   C1B65203   9.380  42.914   6.076
 4973POPC   C2B65204   9.505  42.849   6.511
 4973POPC   C3B65205   9.355  42.964   6.920
 4973POPC   C4B65206   9.545  42.822   7.318
 4974POPC   NC365207   0.751  21.492   5.247
 4974POPC   PO465208   1.356  21.348   5.493
 4974POPC   GL165209   1.063  21.253   5.795
 4974POPC   GL265210   0.887  21.581   5.877
 4974POPC   C1A65211   0.977  21.205   6.231
 4974POPC   D2A65212   1.133  21.240   6.646
 4974POPC   C3A65213   1.169  21.370   7.080
 4974POPC   C4A65214   1.524  21.586   7.243
 4974POPC   C1B65215   0.719  21.644   6.325
 4974POPC   C2B65216   0.773  21.624   6.789
 4974POPC   C3B65217   0.961  21.825   7.179
 4974POPC   C4B65218   1.104  21.633   7.578
 4975POPC   NC365219  28.656  41.078   5.460
 4975POPC   PO465220  28.263  40.460   5.519
 4975POPC   GL165221  28.245  40.579   5.940
 4975POPC   GL265222  28.430  40.882   5.871
 4975POPC   C1A65223  28.365  40.712   6.369
 4975POPC   D2A65224  28.597  40.665   6.749
 4975POPC   C3A65225  28.299  40.519   7.092
 4975POPC   C4A65226  28.028  40.750   7.397
 4975POPC   C1B65227  28.430  41.195   6.177
 4975POPC   C2B65228  28.261  41.190   6.585
 4975POPC   C3B65229  28.338  41.030   7.001
 4975POPC   C4B65230  28.501  41.206   7.355
 4976POPC   NC365231  30.203  11.796   5.378
 4976POPC   PO465232  29.962  12.382   5.142
 4976POPC   GL165233  30.019  12.212   5.595
 4976POPC   GL265234  29.824  12.419   5.775
 4976POPC   C1A65235  30.041  12.018   6.029
 4976POPC   D2A65236  30.117  12.083   6.482
 4976POPC   C3A65237  29.840  11.879   6.807
 4976POPC   C4A65238  29.679  11.894   7.246
 4976POPC   C1B65239  29.664  12.314   6.175
 4976POPC   C2B65240  29.776  12.492   6.525
 4976POPC   C3B65241  29.769  12.382   6.908
 4976POPC   C4B65242  30.027  12.312   7.229
 4977POPC   NC365243   3.685  42.669   5.439
 4977POPC   PO465244   3.330  42.106   5.327
 4977POPC   GL165245   3.382  42.284   5.718
 4977POPC   GL265246   3.572  42.018   5.877
 4977POPC   C1A65247   3.253  42.440   6.151
 4977POPC   D2A65248   3.295  42.511   6.582
 4977POPC   C3A65249   3.610  42.227   6.758
 4977POPC   C4A65250   3.614  42.147   7.195
 4977POPC   C1B65251   3.923  41.881   6.164
 4977POPC   C2B65252   3.993  41.854   6.630
 4977POPC   C3B65253   3.979  41.776   7.092
 4977POPC   C4B65254   3.958  41.951   7.519
 4978POPC   NC365255   0.302   4.698   5.657
 4978POPC   PO465256   0.080   4.059   5.409
 4978POPC   GL165257   0.306   4.049   5.825
 4978POPC   GL265258   0.576   4.292   5.826
 4978POPC   C1A65259   0.295   4.329   6.242
 4978POPC   D2A65260   0.525   4.347   6.621
 4978POPC   C3A65261   0.308   4.358   6.998
 4978POPC   C4A65262   0.265   3.979   7.204
 4978POPC   C1B65263   0.721   4.616   6.184
 4978POPC   C2B65264   0.785   4.773   6.613
 4978POPC   C3B65265   0.932   4.612   7.017
 4978POPC   C4B65266   0.723   4.340   7.308
 4979POPC   NC365267  15.508  14.446   5.376
 4979POPC   PO465268  15.967  13.914   5.352
 4979POPC   GL165269  16.019  14.205   5.733
 4979POPC   GL265270  16.086  13.974   5.989
 4979POPC   C1A65271  15.985  14.450   6.156
 4979POPC   D2A65272  16.120  14.321   6.578
 4979POPC   C3A65273  15.915  14.462   6.961
 4979POPC   C4A65274  16.139  14.715   7.234
 4979POPC   C1B65275  15.796  13.988   6.328
 4979POPC   C2B65276  15.586  14.244   6.629
 4979POPC   C3B65277  15.537  14.124   7.072
 4979POPC   C4B65278  15.769  14.280   7.443
 4980POPC   NC365279  37.029  26.878   5.147
 4980POPC   PO465280  36.793  26.356   5.388
 4980POPC   GL165281  36.977  26.532   5.814
 4980POPC   GL265282  37.101  26.904   5.804
 4980POPC   C1A65283  36.861  26.763   6.236
 4980POPC   D2A65284  36.897  27.024   6.635
 4980POPC   C3A65285  36.572  26.917   6.935
 4980POPC   C4A65286  36.523  26.778   7.357
 4980POPC   C1B65287  37.362  26.778   6.162
 4980POPC   C2B65288  37.326  26.595   6.580
 4980POPC   C3B65289  37.120  26.662   6.977
 4980POPC   C4B65290  36.964  27.034   7.237
 4981POPC   NC365291  44.959   2.304   5.513
 4981POPC   PO465292  44.513   1.788   5.554
 4981POPC   GL165293  44.835   1.915   5.838
 4981POPC   GL265294  44.625   2.203   5.890
 4981POPC   C1A65295   0.006   2.103   6.208
 4981POPC   D2A65296  44.887   1.952   6.619
 4981POPC   C3A65297  44.879   2.187   6.988
 4981POPC   C4A65298  44.991   2.049   7.409
 4981POPC   C1B65299  44.496   2.128   6.298
 4981POPC   C2B65300  44.441   2.317   6.678
 4981POPC   C3B65301  44.382   2.155   7.078
 4981POPC   C4B65302  44.607   2.374   7.398
 4982POPC   NC365303  34.760  20.742   5.335
 4982POPC   PO465304  34.356  20.188   5.531
 4982POPC   GL165305  34.656  20.477   5.785
 4982POPC   GL265306  34.634  20.855   5.809
 4982POPC   C1A65307  34.651  20.589   6.245
 4982POPC   D2A65308  34.466  20.433   6.606
 4982POPC   C3A65309  34.713  20.408   6.965
 4982POPC   C4A65310  34.359  20.440   7.187
 4982POPC   C1B65311  34.353  21.033   6.133
 4982POPC   C2B65312  34.268  21.063   6.546
 4982POPC   C3B65313  34.450  20.876   6.889
 4982POPC   C4B65314  34.612  20.878   7.275
 4983POPC   NC365315  36.930  21.199   5.692
 4983POPC   PO465316  37.366  21.558   5.308
 4983POPC   GL165317  37.302  21.529   5.796
 4983POPC   GL265318  37.012  21.596   6.004
 4983POPC   C1A65319  37.436  21.458   6.251
 4983POPC   D2A65320  37.290  21.511   6.690
 4983POPC   C3A65321  37.019  21.265   6.981
 4983POPC   C4A65322  36.984  21.432   7.421
 4983POPC   C1B65323  36.963  21.253   6.347
 4983POPC   C2B65324  36.626  21.171   6.632
 4983POPC   C3B65325  36.498  21.443   6.940
 4983POPC   C4B65326  36.492  21.348   7.367
 4984POPC   NC365327  16.353  30.547   5.440
 4984POPC   PO465328  17.006  30.270   5.443
 4984POPC   GL165329  16.891  30.529   5.841
 4984POPC   GL265330  16.530  30.626   5.908
 4984POPC   C1A65331  16.833  30.660   6.314
 4984POPC   D2A65332  16.737  30.567   6.732
 4984POPC   C3A65333  16.806  30.941   6.979
 4984POPC   C4A65334  16.782  31.011   7.419
 4984POPC   C1B65335  16.325  30.843   6.270
 4984POPC   C2B65336  16.353  30.935   6.719
 4984POPC   C3B65337  16.337  30.912   7.137
 4984POPC   C4B65338  16.590  30.552   7.242
 4985POPC   NC365339   6.820  42.109   5.079
 4985POPC   PO465340   6.847  42.767   5.285
 4985POPC   GL165341   6.865  42.512   5.677
 4985POPC   GL265342   6.799  42.124   5.659
 4985POPC   C1A65343   6.668  42.669   6.072
 4985POPC   D2A65344   6.490  42.582   6.489
 4985POPC   C3A65345   6.809  42.556   6.828
 4985POPC   C4A65346   6.716  42.556   7.266
 4985POPC   C1B65347   6.868  42.172   6.127
 4985POPC   C2B65348   6.698  42.111   6.562
 4985POPC   C3B65349   6.622  42.100   6.996
 4985POPC   C4B65350   7.051  42.165   7.145
 4986POPC   NC365351  31.078   0.427   5.278
 4986POPC   PO465352  30.352   0.169   5.203
 4986POPC   GL165353  30.625   0.347   5.516
 4986POPC   GL265354  30.742   0.057   5.673
 4986POPC   C1A65355  30.838   0.519   5.918
 4986POPC   D2A65356  30.754   0.651   6.368
 4986POPC   C3A65357  30.974   0.483   6.744
 4986POPC   C4A65358  30.897   0.584   7.196
 4986POPC   C1B65359  30.482   0.171   6.024
 4986POPC   C2B65360  30.602   0.175   6.485
 4986POPC   C3B65361  30.526   0.282   6.911
 4986POPC   C4B65362  30.573   0.152   7.319
 4987POPC   NC365363  32.337  21.594   5.456
 4987POPC   PO465364  31.734  21.238   5.356
 4987POPC   GL165365  31.959  21.145   5.781
 4987POPC   GL265366  32.318  21.041   5.730
 4987POPC   C1A65367  31.968  21.205   6.279
 4987POPC   D2A65368  32.152  21.122   6.722
 4987POPC   C3A65369  32.072  21.424   7.081
 4987POPC   C4A65370  31.998  21.823   7.325
 4987POPC   C1B65371  32.501  21.198   6.142
 4987POPC   C2B65372  32.670  21.131   6.576
 4987POPC   C3B65373  32.559  21.196   7.054
 4987POPC   C4B65374  32.387  21.067   7.503
 4988POPC   NC365375  37.067  30.548   5.442
 4988POPC   PO465376  36.464  30.872   5.416
 4988POPC   GL165377  36.652  30.629   5.731
 4988POPC   GL265378  36.888  30.867   5.800
 4988POPC   C1A65379  36.835  30.469   6.126
 4988POPC   D2A65380  37.112  30.533   6.488
 4988POPC   C3A65381  36.935  30.575   6.885
 4988POPC   C4A65382  37.049  30.763   7.269
 4988POPC   C1B65383  36.606  30.971   6.142
 4988POPC   C2B65384  36.467  31.142   6.545
 4988POPC   C3B65385  36.570  30.958   6.923
 4988POPC   C4B65386  36.644  31.048   7.291
 4989POPC   NC365387   1.890  17.812   5.446
 4989POPC   PO465388   2.404  17.350   5.538
 4989POPC   GL165389   2.208  17.599   5.865
 4989POPC   GL265390   1.909  17.414   5.894
 4989POPC   C1A65391   2.093  17.565   6.335
 4989POPC   D2A65392   1.847  17.469   6.725
 4989POPC   C3A65393   2.140  17.428   7.078
 4989POPC   C4A65394   2.234  17.493   7.523
 4989POPC   C1B65395   1.725  17.185   6.275
 4989POPC   C2B65396   1.467  17.107   6.661
 4989POPC   C3B65397   1.457  17.295   7.067
 4989POPC   C4B65398   1.748  17.273   7.400
 4990POPC   NC365399  17.095  31.434   5.730
 4990POPC   PO465400  17.630  31.324   5.339
 4990POPC   GL165401  17.627  31.482   5.771
 4990POPC   GL265402  17.551  31.837   5.739
 4990POPC   C1A65403  17.584  31.456   6.234
 4990POPC   D2A65404  17.550  31.327   6.663
 4990POPC   C3A65405  17.579  31.447   7.108
 4990POPC   C4A65406  17.625  31.241   7.516
 4990POPC   C1B65407  17.391  31.965   6.148
 4990POPC   C2B65408  17.278  31.761   6.540
 4990POPC   C3B65409  17.211  31.856   6.958
 4990POPC   C4B65410  17.277  31.935   7.371
 4991POPC   NC365411  11.418  18.483   5.437
 4991POPC   PO465412  10.841  18.235   5.335
 4991POPC   GL165413  11.006  18.374   5.731
 4991POPC   GL265414  10.943  18.735   5.790
 4991POPC   C1A65415  11.229  18.156   6.080
 4991POPC   D2A65416  11.374  18.360   6.474
 4991POPC   C3A65417  11.256  18.171   6.836
 4991POPC   C4A65418  11.436  18.067   7.197
 4991POPC   C1B65419  10.985  18.574   6.211
 4991POPC   C2B65420  10.837  18.404   6.608
 4991POPC   C3B65421  10.955  18.558   7.008
 4991POPC   C4B65422  11.287  18.551   7.268
 4992POPC   NC365423  42.157  24.055   5.459
 4992POPC   PO465424  42.363  23.413   5.523
 4992POPC   GL165425  42.075  23.519   5.887
 4992POPC   GL265426  41.987  23.831   5.873
 4992POPC   C1A65427  42.142  23.573   6.336
 4992POPC   D2A65428  42.506  23.732   6.572
 4992POPC   C3A65429  42.577  23.496   6.942
 4992POPC   C4A65430  42.255  23.440   7.233
 4992POPC   C1B65431  41.859  23.996   6.231
 4992POPC   C2B65432  42.050  24.020   6.601
 4992POPC   C3B65433  42.212  23.927   6.985
 4992POPC   C4B65434  42.024  23.869   7.362
 4993POPC   NC365435  32.972   6.247   5.415
 4993POPC   PO465436  33.042   5.623   5.754
 4993POPC   GL165437  32.954   6.041   5.918
 4993POPC   GL265438  33.270   6.111   5.796
 4993POPC   C1A65439  32.895   6.046   6.369
 4993POPC   D2A65440  32.811   5.651   6.647
 4993POPC   C3A65441  32.806   5.711   7.100
 4993POPC   C4A65442  32.867   6.152   7.157
 4993POPC   C1B65443  33.423   6.067   6.244
 4993POPC   C2B65444  33.271   6.070   6.697
 4993POPC   C3B65445  33.297   5.867   7.100
 4993POPC   C4B65446  33.601   5.800   7.411
 4994POPC   NC365447  39.834  28.581   5.513
 4994POPC   PO465448  40.386  28.127   5.397
 4994POPC   GL165449  40.070  28.134   5.728
 4994POPC   GL265450  40.295  28.366   5.878
 4994POPC   C1A65451  39.890  28.199   6.175
 4994POPC   D2A65452  39.834  27.990   6.624
 4994POPC   C3A65453  39.924  28.257   7.022
 4994POPC   C4A65454  39.811  28.668   7.229
 4994POPC   C1B65455  40.293  28.772   6.119
 4994POPC   C2B65456  40.256  28.910   6.553
 4994POPC   C3B65457  40.306  28.707   6.986
 4994POPC   C4B65458  40.271  28.459   7.393
 4995POPC   NC365459  15.019  29.481   5.605
 4995POPC   PO465460  15.011  30.041   5.213
 4995POPC   GL165461  15.070  30.052   5.670
 4995POPC   GL265462  15.305  29.829   5.816
 4995POPC   C1A65463  15.012  30.057   6.149
 4995POPC   D2A65464  15.303  30.192   6.499
 4995POPC   C3A65465  15.109  30.180   6.917
 4995POPC   C4A65466  14.917  29.846   7.176
 4995POPC   C1B65467  15.420  29.736   6.218
 4995POPC   C2B65468  15.256  29.690   6.626
 4995POPC   C3B65469  15.417  29.777   7.014
 4995POPC   C4B65470  15.616  29.594   7.326
 4996POPC   NC365471  17.596  32.694   5.495
 4996POPC   PO465472  17.421  33.264   5.220
 4996POPC   GL165473  17.331  33.107   5.730
 4996POPC   GL265474  17.444  33.333   5.984
 4996POPC   C1A65475  17.206  32.892   6.119
 4996POPC   D2A65476  17.182  32.865   6.562
 4996POPC   C3A65477  17.552  32.786   6.800
 4996POPC   C4A65478  17.519  32.877   7.238
 4996POPC   C1B65479  17.697  33.352   6.340
 4996POPC   C2B65480  17.695  33.283   6.771
 4996POPC   C3B65481  17.700  33.373   7.173
 4996POPC   C4B65482  17.741  33.168   7.600
 4997POPC   NC365483  37.827  43.563   5.414
 4997POPC   PO465484  37.413  43.911   5.398
 4997POPC   GL165485  37.493  43.654   5.810
 4997POPC   GL265486  37.778  43.403   5.897
 4997POPC   C1A65487  37.507  43.663   6.287
 4997POPC   D2A65488  37.753  43.719   6.687
 4997POPC   C3A65489  37.572  43.813   7.114
 4997POPC   C4A65490  37.809  43.877   7.515
 4997POPC   C1B65491  37.803  43.242   6.337
 4997POPC   C2B65492  37.927  43.240   6.793
 4997POPC   C3B65493  38.010  43.542   7.137
 4997POPC   C4B65494  38.163  43.488   7.573
 4998POPC   NC365495   2.493  14.965   5.452
 4998POPC   PO465496   2.709  14.261   5.495
 4998POPC   GL165497   2.791  14.437   5.902
 4998POPC   GL265498   3.104  14.278   6.017
 4998POPC   C1A65499   2.902  14.663   6.302
 4998POPC   D2A65500   3.067  14.605   6.724
 4998POPC   C3A65501   2.841  14.500   7.159
 4998POPC   C4A65502   2.801  14.529   7.647
 4998POPC   C1B65503   2.772  14.152   6.311
 4998POPC   C2B65504   2.693  14.242   6.727
 4998POPC   C3B65505   2.595  14.041   7.097
 4998POPC   C4B65506   2.856  14.050   7.427
 4999POPC   NC365507  32.435  43.333   5.361
 4999POPC   PO465508  31.774  43.257   5.299
 4999POPC   GL165509  32.033  43.209   5.702
 4999POPC   GL265510  32.380  43.016   5.777
 4999POPC   C1A65511  32.112  43.255   6.153
 4999POPC   D2A65512  32.330  43.336   6.567
 4999POPC   C3A65513  32.072  43.186   6.904
 4999POPC   C4A65514  31.966  42.961   7.267
 4999POPC   C1B65515  32.586  43.054   6.211
 4999POPC   C2B65516  32.581  42.924   6.681
 4999POPC   C3B65517  32.612  42.939   7.108
 4999POPC   C4B65518  32.389  43.232   7.303
 5000POPC   NC365519  35.815  19.761   5.508
 5000POPC   PO465520  35.304  20.126   5.570
 5000POPC   GL165521  35.426  19.749   5.849
 5000POPC   GL265522  35.256  19.406   5.835
 5000POPC   C1A65523  35.629  19.513   6.194
 5000POPC   D2A65524  35.554  19.569   6.626
 5000POPC   C3A65525  35.579  19.993   6.755
 5000POPC   C4A65526  35.585  20.188   7.140
 5000POPC   C1B65527  35.066  19.621   6.222
 5000POPC   C2B65528  34.796  19.561   6.585
 5000POPC   C3B65529  34.993  19.471   6.969
 5000POPC   C4B65530  35.100  19.636   7.383
 5001POPC   NC365531  31.301  28.164   5.523
 5001POPC   PO465532  31.505  28.709   5.478
 5001POPC   GL165533  31.340  28.643   5.895
 5001POPC   GL265534  31.372  28.293   6.002
 5001POPC   C1A65535  31.210  28.639   6.345
 5001POPC   D2A65536  31.176  28.359   6.699
 5001POPC   C3A65537  31.342  28.532   7.100
 5001POPC   C4A65538  31.247  28.691   7.528
 5001POPC   C1B65539  31.704  28.483   6.226
 5001POPC   C2B65540  31.677  28.480   6.652
 5001POPC   C3B65541  31.863  28.516   7.050
 5001POPC   C4B65542  31.710  28.450   7.486
 5002POPC   NC365543   4.649  32.198   5.337
 5002POPC   PO465544   5.245  32.368   5.273
 5002POPC   GL165545   5.175  32.275   5.724
 5002POPC   GL265546   5.437  32.036   5.839
 5002POPC   C1A65547   4.871  32.275   6.099
 5002POPC   D2A65548   4.924  32.174   6.553
 5002POPC   C3A65549   4.777  32.451   6.888
 5002POPC   C4A65550   4.998  32.588   7.240
 5002POPC   C1B65551   5.236  31.889   6.241
 5002POPC   C2B65552   5.271  31.830   6.698
 5002POPC   C3B65553   5.176  32.102   7.073
 5002POPC   C4B65554   4.770  32.077   7.277
 5003POPC   NC365555   2.600  19.398   5.369
 5003POPC   PO465556   2.862  18.762   5.305
 5003POPC   GL165557   2.744  19.017   5.682
 5003POPC   GL265558   2.960  19.309   5.799
 5003POPC   C1A65559   2.531  19.100   6.085
 5003POPC   D2A65560   2.694  19.152   6.501
 5003POPC   C3A65561   2.444  19.301   6.824
 5003POPC   C4A65562   2.488  19.062   7.159
 5003POPC   C1B65563   3.026  18.935   6.103
 5003POPC   C2B65564   3.160  18.741   6.486
 5003POPC   C3B65565   2.924  18.787   6.853
 5003POPC   C4B65566   2.922  18.836   7.306
 5004POPC   NC365567  20.903  24.348   5.468
 5004POPC   PO465568  20.248  24.335   5.309
 5004POPC   GL165569  20.403  24.244   5.695
 5004POPC   GL265570  20.460  24.594   5.744
 5004POPC   C1A65571  20.494  24.216   6.132
 5004POPC   D2A65572  20.573  24.433   6.525
 5004POPC   C3A65573  20.590  24.269   6.937
 5004POPC   C4A65574  20.846  24.446   7.260
 5004POPC   C1B65575  20.505  24.788   6.153
 5004POPC   C2B65576  20.338  24.890   6.588
 5004POPC   C3B65577  20.550  24.787   7.001
 5004POPC   C4B65578  20.633  24.833   7.488
 5005POPC   NC365579  24.353  21.612   5.057
 5005POPC   PO465580  24.779  21.188   5.205
 5005POPC   GL165581  24.649  21.194   5.692
 5005POPC   GL265582  24.339  21.421   5.804
 5005POPC   C1A65583  24.672  21.275   6.179
 5005POPC   D2A65584  24.488  21.332   6.611
 5005POPC   C3A65585  24.692  21.540   6.964
 5005POPC   C4A65586  24.757  21.416   7.400
 5005POPC   C1B65587  24.212  21.567   6.245
 5005POPC   C2B65588  24.089  21.626   6.701
 5005POPC   C3B65589  24.220  21.481   7.139
 5005POPC   C4B65590  24.375  21.772   7.454
 5006POPC   NC365591  27.780  38.678   5.532
 5006POPC   PO465592  27.197  38.399   5.502
 5006POPC   GL165593  27.488  38.311   5.870
 5006POPC   GL265594  27.845  38.349   5.924
 5006POPC   C1A65595  27.378  38.397   6.321
 5006POPC   D2A65596  27.132  38.541   6.692
 5006POPC   C3A65597  27.370  38.490   7.074
 5006POPC   C4A65598  27.695  38.148   7.159
 5006POPC   C1B65599  27.767  38.695   6.238
 5006POPC   C2B65600  27.672  38.695   6.687
 5006POPC   C3B65601  27.898  38.811   7.078
 5006POPC   C4B65602  27.885  38.608   7.457
 5007POPC   NC365603  17.158  40.577   5.272
 5007POPC   PO465604  16.525  40.867   5.351
 5007POPC   GL165605  16.824  40.802   5.696
 5007POPC   GL265606  16.576  40.661   5.904
 5007POPC   C1A65607  16.989  40.826   6.158
 5007POPC   D2A65608  17.131  40.674   6.599
 5007POPC   C3A65609  16.856  40.858   6.936
 5007POPC   C4A65610  16.398  40.870   7.071
 5007POPC   C1B65611  16.595  40.434   6.291
 5007POPC   C2B65612  16.679  40.443   6.730
 5007POPC   C3B65613  16.471  40.337   7.132
 5007POPC   C4B65614  16.210  40.576   7.473
 5008POPC   NC365615  16.506  12.186   5.579
 5008POPC   PO465616  17.007  11.922   5.240
 5008POPC   GL165617  16.886  11.818   5.684
 5008POPC   GL265618  16.517  11.700   5.767
 5008POPC   C1A65619  16.981  12.025   6.095
 5008POPC   D2A65620  17.058  12.274   6.475
 5008POPC   C3A65621  16.864  12.119   6.849
 5008POPC   C4A65622  16.954  12.025   7.275
 5008POPC   C1B65623  16.475  11.961   6.168
 5008POPC   C2B65624  16.327  11.995   6.579
 5008POPC   C3B65625  16.360  12.190   6.960
 5008POPC   C4B65626  16.448  12.023   7.380
 5009POPC   NC365627  43.477  21.433   5.170
 5009POPC   PO465628  42.895  21.283   5.391
 5009POPC   GL165629  43.071  21.511   5.757
 5009POPC   GL265630  43.102  21.236   5.934
 5009POPC   C1A65631  43.259  21.637   6.205
 5009POPC   D2A65632  43.512  21.612   6.600
 5009POPC   C3A65633  43.326  21.388   6.936
 5009POPC   C4A65634  43.077  21.391   7.302
 5009POPC   C1B65635  43.163  21.010   6.268
 5009POPC   C2B65636  43.251  20.968   6.631
 5009POPC   C3B65637  43.100  20.781   6.941
 5009POPC   C4B65638  43.025  20.891   7.343
 5010POPC   NC365639  23.559  25.903   5.043
 5010POPC   PO465640  24.119  25.823   5.498
 5010POPC   GL165641  23.978  25.882   5.902
 5010POPC   GL265642  23.753  26.168   5.791
 5010POPC   C1A65643  24.104  25.888   6.343
 5010POPC   D2A65644  24.047  26.195   6.687
 5010POPC   C3A65645  23.930  25.946   7.031
 5010POPC   C4A65646  23.786  25.637   7.288
 5010POPC   C1B65647  23.723  26.226   6.250
 5010POPC   C2B65648  23.540  26.013   6.622
 5010POPC   C3B65649  23.391  25.848   7.018
 5010POPC   C4B65650  23.535  26.093   7.353
 5011POPC   NC365651  36.761  28.937   5.552
 5011POPC   PO465652  36.135  29.133   5.521
 5011POPC   GL165653  36.280  29.200   5.916
 5011POPC   GL265654  36.600  29.069   6.009
 5011POPC   C1A65655  36.159  29.104   6.317
 5011POPC   D2A65656  36.264  28.778   6.637
 5011POPC   C3A65657  36.105  28.855   7.016
 5011POPC   C4A65658  35.910  29.286   7.058
 5011POPC   C1B65659  36.639  29.131   6.448
 5011POPC   C2B65660  36.343  29.285   6.764
 5011POPC   C3B65661  36.426  29.206   7.146
 5011POPC   C4B65662  36.636  28.780   7.129
 5012POPC   NC365663  29.879   7.810   5.532
 5012POPC   PO465664  30.177   8.529   5.457
 5012POPC   GL165665  30.054   8.268   5.770
 5012POPC   GL265666  29.716   8.240   5.790
 5012POPC   C1A65667  30.046   8.114   6.178
 5012POPC   D2A65668  30.197   8.245   6.565
 5012POPC   C3A65669  29.926   8.132   6.860
 5012POPC   C4A65670  30.078   8.117   7.229
 5012POPC   C1B65671  29.672   8.477   6.147
 5012POPC   C2B65672  29.599   8.457   6.571
 5012POPC   C3B65673  29.648   8.543   6.995
 5012POPC   C4B65674  29.658   8.350   7.385
 5013POPC   NC365675  34.666  37.289   5.373
 5013POPC   PO465676  34.429  37.925   5.396
 5013POPC   GL165677  34.549  37.652   5.761
 5013POPC   GL265678  34.893  37.745   5.837
 5013POPC   C1A65679  34.615  37.501   6.225
 5013POPC   D2A65680  34.745  37.612   6.665
 5013POPC   C3A65681  34.418  37.609   6.987
 5013POPC   C4A65682  34.340  37.309   7.298
 5013POPC   C1B65683  34.917  37.949   6.257
 5013POPC   C2B65684  35.158  37.918   6.659
 5013POPC   C3B65685  35.048  37.923   7.094
 5013POPC   C4B65686  34.619  38.036   7.195
 5014POPC   NC365687  11.910  43.412   5.551
 5014POPC   PO465688  12.256  42.812   5.482
 5014POPC   GL165689  12.110  43.011   5.824
 5014POPC   GL265690  12.336  43.253   5.901
 5014POPC   C1A65691  12.073  42.855   6.238
 5014POPC   D2A65692  12.328  42.872   6.592
 5014POPC   C3A65693  12.169  43.201   6.827
 5014POPC   C4A65694  12.140  43.106   7.236
 5014POPC   C1B65695  12.035  43.380   6.205
 5014POPC   C2B65696  11.777  43.494   6.541
 5014POPC   C3B65697  11.891  43.651   6.938
 5014POPC   C4B65698  11.836  43.527   7.356
 5015POPC   NC365699  36.764  32.562   5.344
 5015POPC   PO465700  37.079  33.173   5.352
 5015POPC   GL165701  36.987  32.890   5.745
 5015POPC   GL265702  36.634  32.765   5.784
 5015POPC   C1A65703  37.046  32.961   6.212
 5015POPC   D2A65704  36.839  33.233   6.551
 5015POPC   C3A65705  37.099  33.197   6.894
 5015POPC   C4A65706  37.103  32.937   7.201
 5015POPC   C1B65707  36.645  32.647   6.207
 5015POPC   C2B65708  36.800  32.696   6.630
 5015POPC   C3B65709  36.645  32.937   6.978
 5015POPC   C4B65710  36.637  32.884   7.427
 5016POPC   NC365711   6.368  33.908   5.274
 5016POPC   PO465712   6.716  33.343   5.436
 5016POPC   GL165713   6.592  33.694   5.720
 5016POPC   GL265714   6.901  33.889   5.823
 5016POPC   C1A65715   6.476  33.861   6.156
 5016POPC   D2A65716   6.653  33.942   6.585
 5016POPC   C3A65717   6.508  33.720   6.938
 5016POPC   C4A65718   6.617  33.405   7.218
 5016POPC   C1B65719   7.038  33.921   6.255
 5016POPC   C2B65720   7.186  34.180   6.591
 5016POPC   C3B65721   6.993  34.094   6.960
 5016POPC   C4B65722   7.129  33.960   7.325
 5017POPC   NC365723  19.330  34.550   5.380
 5017POPC   PO465724  18.887  34.999   5.293
 5017POPC   GL165725  18.998  34.765   5.706
 5017POPC   GL265726  19.108  34.414   5.821
 5017POPC   C1A65727  19.124  34.802   6.143
 5017POPC   D2A65728  18.918  34.704   6.508
 5017POPC   C3A65729  18.916  34.817   6.911
 5017POPC   C4A65730  19.053  34.457   7.150
 5017POPC   C1B65731  19.153  34.274   6.253
 5017POPC   C2B65732  19.193  34.300   6.683
 5017POPC   C3B65733  19.501  34.228   7.021
 5017POPC   C4B65734  19.512  34.405   7.419
 5018POPC   NC365735  19.409  43.551   5.538
 5018POPC   PO465736  18.961  43.009   5.465
 5018POPC   GL165737  19.073  43.209   5.817
 5018POPC   GL265738  19.108  42.868   5.966
 5018POPC   C1A65739  18.921  43.323   6.224
 5018POPC   D2A65740  19.121  43.317   6.618
 5018POPC   C3A65741  19.008  42.994   6.925
 5018POPC   C4A65742  18.858  42.949   7.365
 5018POPC   C1B65743  19.391  43.062   6.241
 5018POPC   C2B65744  19.528  42.997   6.634
 5018POPC   C3B65745  19.481  43.258   6.970
 5018POPC   C4B65746  19.348  43.102   7.303
 5019POPC   NC365747  43.149  28.100   5.402
 5019POPC   PO465748  43.451  28.774   5.542
 5019POPC   GL165749  43.109  28.536   5.748
 5019POPC   GL265750  42.876  28.750   5.917
 5019POPC   C1A65751  43.157  28.217   6.090
 5019POPC   D2A65752  43.077  28.212   6.557
 5019POPC   C3A65753  43.360  28.284   6.925
 5019POPC   C4A65754  43.170  28.352   7.336
 5019POPC   C1B65755  42.968  28.645   6.301
 5019POPC   C2B65756  43.255  28.745   6.604
 5019POPC   C3B65757  43.172  28.761   7.010
 5019POPC   C4B65758  42.800  28.652   7.125
 5020POPC   NC365759   0.142   9.466   5.360
 5020POPC   PO465760  44.701   9.785   5.389
 5020POPC   GL165761  44.855   9.738   5.814
 5020POPC   GL265762  44.556   9.575   5.929
 5020POPC   C1A65763  44.813   9.841   6.288
 5020POPC   D2A65764  44.564   9.648   6.661
 5020POPC   C3A65765  44.567   9.781   7.121
 5020POPC   C4A65766  44.778   9.895   7.515
 5020POPC   C1B65767  44.771   9.330   6.266
 5020POPC   C2B65768  44.818   9.189   6.713
 5020POPC   C3B65769  44.797   9.283   7.164
 5020POPC   C4B65770  44.510   9.421   7.500
 5021POPC   NC365771   3.089  22.644   5.475
 5021POPC   PO465772   3.137  23.280   5.663
 5021POPC   GL165773   2.854  22.924   5.839
 5021POPC   GL265774   2.546  23.068   5.933
 5021POPC   C1A65775   2.769  22.711   6.249
 5021POPC   D2A65776   2.682  22.894   6.672
 5021POPC   C3A65777   2.988  23.025   6.978
 5021POPC   C4A65778   2.911  22.941   7.415
 5021POPC   C1B65779   2.774  23.244   6.295
 5021POPC   C2B65780   2.735  23.410   6.734
 5021POPC   C3B65781   2.587  23.280   7.180
 5021POPC   C4B65782   2.593  23.256   7.663
 5022POPC   NC365783  38.534   5.485   5.253
 5022POPC   PO465784  38.351   4.893   5.472
 5022POPC   GL165785  38.583   5.032   5.812
 5022POPC   GL265786  38.631   5.390   5.786
 5022POPC   C1A65787  38.669   5.082   6.269
 5022POPC   D2A65788  38.874   5.200   6.665
 5022POPC   C3A65789  38.594   5.155   7.018
 5022POPC   C4A65790  38.267   4.913   7.217
 5022POPC   C1B65791  38.263   5.329   6.124
 5022POPC   C2B65792  38.320   5.249   6.596
 5022POPC   C3B65793  38.086   5.319   6.983
 5022POPC   C4B65794  38.098   5.368   7.461
 5023POPC   NC365795  37.416  34.557   5.349
 5023POPC   PO465796  38.040  34.832   5.279
 5023POPC   GL165797  37.660  34.851   5.673
 5023POPC   GL265798  37.474  34.542   5.850
 5023POPC   C1A65799  37.570  34.911   6.167
 5023POPC   D2A65800  37.583  34.736   6.590
 5023POPC   C3A65801  37.426  34.941   6.958
 5023POPC   C4A65802  37.507  34.772   7.342
 5023POPC   C1B65803  37.414  34.366   6.259
 5023POPC   C2B65804  37.636  34.181   6.629
 5023POPC   C3B65805  37.616  34.370   7.044
 5023POPC   C4B65806  37.723  34.305   7.496
 5024POPC   NC365807  22.219  22.040   5.164
 5024POPC   PO465808  22.276  21.468   5.505
 5024POPC   GL165809  22.119  21.613   5.888
 5024POPC   GL265810  22.440  21.704   5.984
 5024POPC   C1A65811  22.110  21.622   6.371
 5024POPC   D2A65812  22.286  21.683   6.790
 5024POPC   C3A65813  21.991  21.548   7.114
 5024POPC   C4A65814  22.124  21.414   7.527
 5024POPC   C1B65815  22.601  21.511   6.369
 5024POPC   C2B65816  22.633  21.328   6.756
 5024POPC   C3B65817  22.479  21.313   7.166
 5024POPC   C4B65818  22.642  21.335   7.592
 5025POPC   NC365819  16.425  13.723   5.288
 5025POPC   PO465820  17.099  13.377   5.396
 5025POPC   GL165821  16.817  13.506   5.730
 5025POPC   GL265822  16.994  13.752   5.849
 5025POPC   C1A65823  16.929  13.406   6.198
 5025POPC   D2A65824  17.214  13.279   6.510
 5025POPC   C3A65825  17.090  13.386   6.905
 5025POPC   C4A65826  16.951  13.593   7.261
 5025POPC   C1B65827  16.914  13.915   6.262
 5025POPC   C2B65828  16.753  13.719   6.652
 5025POPC   C3B65829  16.511  13.754   7.044
 5025POPC   C4B65830  16.531  13.824   7.513
 5026POPC   NC365831  16.694  13.138   5.340
 5026POPC   PO465832  16.798  12.476   5.386
 5026POPC   GL165833  16.711  12.712   5.740
 5026POPC   GL265834  16.905  13.005   5.787
 5026POPC   C1A65835  16.826  12.618   6.181
 5026POPC   D2A65836  16.600  12.494   6.574
 5026POPC   C3A65837  16.799  12.624   6.943
 5026POPC   C4A65838  16.700  12.466   7.347
 5026POPC   C1B65839  16.577  13.067   6.097
 5026POPC   C2B65840  16.737  13.033   6.517
 5026POPC   C3B65841  16.584  13.201   6.889
 5026POPC   C4B65842  16.799  13.099   7.231
 5027POPC   NC365843  40.537  10.008   5.499
 5027POPC   PO465844  40.661   9.392   5.660
 5027POPC   GL165845  40.643   9.721   5.935
 5027POPC   GL265846  40.328   9.750   5.928
 5027POPC   C1A65847  40.814   9.734   6.344
 5027POPC   D2A65848  40.919   9.534   6.723
 5027POPC   C3A65849  40.932   9.777   7.091
 5027POPC   C4A65850  41.142   9.805   7.493
 5027POPC   C1B65851  40.312   9.561   6.333
 5027POPC   C2B65852  40.348   9.690   6.753
 5027POPC   C3B65853  40.426   9.918   7.112
 5027POPC   C4B65854  40.616   9.737   7.496
 5028POPC   NC365855   6.810  20.302   5.370
 5028POPC   PO465856   6.373  20.811   5.268
 5028POPC   GL165857   6.601  20.849   5.715
 5028POPC   GL265858   6.946  20.659   5.761
 5028POPC   C1A65859   6.682  20.753   6.187
 5028POPC   D2A65860   6.593  20.446   6.536
 5028POPC   C3A65861   6.551  20.671   6.948
 5028POPC   C4A65862   6.261  20.515   7.268
 5028POPC   C1B65863   6.940  20.286   6.068
 5028POPC   C2B65864   7.089  20.216   6.498
 5028POPC   C3B65865   6.899  20.134   6.897
 5028POPC   C4B65866   6.731  20.305   7.271
 5029POPC   NC365867   4.176   6.101   5.504
 5029POPC   PO465868   4.714   5.757   5.245
 5029POPC   GL165869   4.572   5.616   5.704
 5029POPC   GL265870   4.225   5.661   5.791
 5029POPC   C1A65871   4.543   5.499   6.163
 5029POPC   D2A65872   4.500   5.767   6.511
 5029POPC   C3A65873   4.359   5.715   6.900
 5029POPC   C4A65874   4.447   5.917   7.278
 5029POPC   C1B65875   4.169   5.958   6.164
 5029POPC   C2B65876   3.991   5.914   6.599
 5029POPC   C3B65877   4.015   6.082   7.035
 5029POPC   C4B65878   3.967   5.918   7.464
 5030POPC   NC365879  19.726  44.793   5.359
 5030POPC   PO465880  20.364  44.599   5.256
 5030POPC   GL165881  20.059  44.682   5.720
 5030POPC   GL265882  19.685  44.778   5.859
 5030POPC   C1A65883  20.009  44.520   6.171
 5030POPC   D2A65884  19.962  44.750   6.569
 5030POPC   C3A65885  19.938  44.528   6.893
 5030POPC   C4A65886  19.949  44.452   7.295
 5030POPC   C1B65887  19.450   0.025   6.215
 5030POPC   C2B65888  19.386   0.082   6.658
 5030POPC   C3B65889  19.491  44.806   6.956
 5030POPC   C4B65890  19.629  44.823   7.341
 5031POPC   NC365891   5.022  26.967   5.495
 5031POPC   PO465892   5.431  27.469   5.283
 5031POPC   GL165893   5.402  27.553   5.783
 5031POPC   GL265894   5.040  27.631   5.921
 5031POPC   C1A65895   5.387  27.593   6.283
 5031POPC   D2A65896   5.112  27.542   6.672
 5031POPC   C3A65897   5.225  27.560   7.139
 5031POPC   C4A65898   5.242  27.142   7.414
 5031POPC   C1B65899   4.816  27.790   6.333
 5031POPC   C2B65900   4.898  27.988   6.790
 5031POPC   C3B65901   4.847  27.925   7.263
 5031POPC   C4B65902   4.901  28.042   7.711
 5032POPC   NC365903  25.628  40.327   5.480
 5032POPC   PO465904  25.002  40.155   5.307
 5032POPC   GL165905  25.169  40.215   5.699
 5032POPC   GL265906  25.412  40.014   5.851
 5032POPC   C1A65907  25.045  40.274   6.162
 5032POPC   D2A65908  25.106  40.001   6.564
 5032POPC   C3A65909  25.124  40.008   7.059
 5032POPC   C4A65910  24.884  40.076   7.485
 5032POPC   C1B65911  25.532  40.147   6.275
 5032POPC   C2B65912  25.502  40.244   6.745
 5032POPC   C3B65913  25.631  40.147   7.151
 5032POPC   C4B65914  25.720  39.920   7.512
 5033POPC   NC365915  18.449   5.978   5.601
 5033POPC   PO465916  17.831   5.672   5.348
 5033POPC   GL165917  17.997   5.546   5.809
 5033POPC   GL265918  18.304   5.657   5.938
 5033POPC   C1A65919  17.950   5.820   6.242
 5033POPC   D2A65920  18.110   6.006   6.639
 5033POPC   C3A65921  18.088   5.669   6.970
 5033POPC   C4A65922  18.210   5.666   7.406
 5033POPC   C1B65923  18.459   6.018   6.247
 5033POPC   C2B65924  18.629   6.135   6.679
 5033POPC   C3B65925  18.445   6.018   7.066
 5033POPC   C4B65926  18.634   5.940   7.458
 5034POPC   NC365927   5.608   4.933   4.959
 5034POPC   PO465928   5.967   5.394   5.365
 5034POPC   GL165929   5.946   5.180   5.778
 5034POPC   GL265930   5.819   4.853   5.644
 5034POPC   C1A65931   5.750   5.189   6.218
 5034POPC   D2A65932   5.551   5.025   6.637
 5034POPC   C3A65933   5.661   5.300   7.006
 5034POPC   C4A65934   5.597   5.397   7.455
 5034POPC   C1B65935   5.862   4.726   6.063
 5034POPC   C2B65936   5.935   4.744   6.480
 5034POPC   C3B65937   6.043   4.994   6.828
 5034POPC   C4B65938   5.805   4.846   7.193
 5035POPC   NC365939   2.361   6.169   5.615
 5035POPC   PO465940   2.832   5.823   5.260
 5035POPC   GL165941   2.773   5.779   5.710
 5035POPC   GL265942   2.484   5.538   5.791
 5035POPC   C1A65943   2.932   5.931   6.111
 5035POPC   D2A65944   2.866   6.183   6.463
 5035POPC   C3A65945   3.014   6.100   6.854
 5035POPC   C4A65946   3.150   5.893   7.223
 5035POPC   C1B65947   2.441   5.828   6.170
 5035POPC   C2B65948   2.652   5.737   6.564
 5035POPC   C3B65949   2.784   5.647   6.968
 5035POPC   C4B65950   2.667   5.858   7.355
 5036POPC   NC365951   5.059  37.166   5.369
 5036POPC   PO465952   4.991  36.491   5.399
 5036POPC   GL165953   5.093  36.776   5.757
 5036POPC   GL265954   4.912  37.115   5.841
 5036POPC   C1A65955   5.276  36.903   6.162
 5036POPC   D2A65956   5.103  37.115   6.500
 5036POPC   C3A65957   5.270  37.002   6.886
 5036POPC   C4A65958   5.377  36.740   7.216
 5036POPC   C1B65959   4.706  36.966   6.181
 5036POPC   C2B65960   4.495  36.944   6.562
 5036POPC   C3B65961   4.739  37.053   6.881
 5036POPC   C4B65962   4.932  37.072   7.248
 5037POPC   NC365963  15.969  24.865   4.976
 5037POPC   PO465964  16.067  25.496   5.351
 5037POPC   GL165965  15.882  25.463   5.796
 5037POPC   GL265966  15.620  25.744   5.870
 5037POPC   C1A65967  16.016  25.296   6.225
 5037POPC   D2A65968  16.073  24.999   6.605
 5037POPC   C3A65969  16.055  25.226   7.016
 5037POPC   C4A65970  16.236  25.603   7.198
 5037POPC   C1B65971  15.536  25.482   6.209
 5037POPC   C2B65972  15.594  25.190   6.515
 5037POPC   C3B65973  15.431  25.275   6.883
 5037POPC   C4B65974  15.584  25.299   7.276
 5038POPC   NC365975   0.151  29.736   5.510
 5038POPC   PO465976  44.617  30.109   5.336
 5038POPC   GL165977  44.757  30.085   5.796
 5038POPC   GL265978  44.768  29.760   5.893
 5038POPC   C1A65979  44.580  30.034   6.263
 5038POPC   D2A65980  44.777  30.295   6.577
 5038POPC   C3A65981  44.672  30.161   6.961
 5038POPC   C4A65982  44.673  29.860   7.254
 5038POPC   C1B65983  44.864  29.628   6.335
 5038POPC   C2B65984  44.761  29.669   6.763
 5038POPC   C3B65985  44.851  29.385   7.096
 5038POPC   C4B65986  44.997  29.542   7.496
 5039POPC   NC365987  41.128   3.894   5.591
 5039POPC   PO465988  41.711   3.677   5.334
 5039POPC   GL165989  41.614   3.646   5.753
 5039POPC   GL265990  41.414   3.366   5.765
 5039POPC   C1A65991  41.798   3.540   6.179
 5039POPC   D2A65992  42.011   3.273   6.499
 5039POPC   C3A65993  41.772   3.188   6.907
 5039POPC   C4A65994  41.774   3.300   7.361
 5039POPC   C1B65995  41.304   3.540   6.176
 5039POPC   C2B65996  41.400   3.445   6.628
 5039POPC   C3B65997  41.344   3.446   7.099
 5039POPC   C4B65998  41.331   3.468   7.559
 5040POPC   NC365999  12.148  17.892   5.508
 5040POPC   PO466000  11.790  18.439   5.692
 5040POPC   GL166001  12.165  18.288   5.873
 5040POPC   GL266002  12.326  18.621   5.845
 5040POPC   C1A66003  12.104  18.036   6.266
 5040POPC   D2A66004  11.764  18.038   6.602
 5040POPC   C3A66005  11.794  18.335   6.941
 5040POPC   C4A66006  12.170  18.302   7.180
 5040POPC   C1B66007  12.413  18.492   6.269
 5040POPC   C2B66008  12.444  18.380   6.683
 5040POPC   C3B66009  12.513  18.648   7.021
 5040POPC   C4B66010  12.239  18.905   7.213
 5041POPC   NC366011  16.806  41.242   5.401
 5041POPC   PO466012  16.701  41.883   5.302
 5041POPC   GL166013  16.621  41.642   5.665
 5041POPC   GL266014  16.942  41.743   5.825
 5041POPC   C1A66015  16.471  41.659   6.091
 5041POPC   D2A66016  16.670  41.671   6.515
 5041POPC   C3A66017  16.538  41.339   6.808
 5041POPC   C4A66018  16.579  41.317   7.248
 5041POPC   C1B66019  16.883  41.354   6.097
 5041POPC   C2B66020  16.986  41.229   6.541
 5041POPC   C3B66021  17.021  41.333   6.997
 5041POPC   C4B66022  17.024  41.053   7.367
 5042POPC   NC366023   2.313  43.754   5.650
 5042POPC   PO466024   2.195  44.269   5.213
 5042POPC   GL166025   1.900  44.216   5.664
 5042POPC   GL266026   1.777  43.833   5.763
 5042POPC   C1A66027   1.915  44.116   6.153
 5042POPC   D2A66028   2.140  44.049   6.565
 5042POPC   C3A66029   1.976  44.061   7.013
 5042POPC   C4A66030   2.173  44.045   7.445
 5042POPC   C1B66031   1.849  43.584   6.187
 5042POPC   C2B66032   1.937  43.457   6.660
 5042POPC   C3B66033   1.930  43.561   7.140
 5042POPC   C4B66034   1.697  43.844   7.444
 5043POPC   NC366035  34.238  31.448   5.209
 5043POPC   PO466036  34.870  31.767   5.424
 5043POPC   GL166037  34.791  31.439   5.711
 5043POPC   GL266038  34.449  31.414   5.673
 5043POPC   C1A66039  34.836  31.399   6.157
 5043POPC   D2A66040  34.637  31.528   6.557
 5043POPC   C3A66041  34.903  31.654   6.925
 5043POPC   C4A66042  34.926  31.320   7.229
 5043POPC   C1B66043  34.291  31.324   6.080
 5043POPC   C2B66044  34.266  31.147   6.489
 5043POPC   C3B66045  34.460  31.151   6.868
 5043POPC   C4B66046  34.458  31.520   7.097
 5044POPC   NC366047   9.611  43.367   5.532
 5044POPC   PO466048   9.161  42.968   5.214
 5044POPC   GL166049   8.961  42.909   5.682
 5044POPC   GL266050   9.023  43.233   5.879
 5044POPC   C1A66051   8.853  42.858   6.170
 5044POPC   D2A66052   8.900  43.121   6.571
 5044POPC   C3A66053   8.743  42.923   6.961
 5044POPC   C4A66054   9.029  42.765   7.281
 5044POPC   C1B66055   9.239  43.414   6.276
 5044POPC   C2B66056   9.216  43.551   6.727
 5044POPC   C3B66057   9.027  43.329   7.097
 5044POPC   C4B66058   8.725  43.181   7.417
 5045POPC   NC366059  41.898  18.083   5.460
 5045POPC   PO466060  42.351  18.523   5.561
 5045POPC   GL166061  42.203  18.276   5.849
 5045POPC   GL266062  41.908  18.472   5.851
 5045POPC   C1A66063  42.331  18.173   6.252
 5045POPC   D2A66064  42.254  18.350   6.655
 5045POPC   C3A66065  42.421  18.098   6.956
 5045POPC   C4A66066  42.707  18.075   7.294
 5045POPC   C1B66067  41.794  18.340   6.245
 5045POPC   C2B66068  41.903  17.985   6.479
 5045POPC   C3B66069  41.936  17.881   6.885
 5045POPC   C4B66070  41.992  18.107   7.248
 5046POPC   NC366071  20.274  42.432   5.482
 5046POPC   PO466072  20.875  42.149   5.406
 5046POPC   GL166073  20.915  42.261   5.849
 5046POPC   GL266074  20.548  42.250   5.896
 5046POPC   C1A66075  20.801  42.405   6.296
 5046POPC   D2A66076  20.562  42.373   6.678
 5046POPC   C3A66077  20.873  42.453   6.964
 5046POPC   C4A66078  20.683  42.438   7.320
 5046POPC   C1B66079  20.389  42.055   6.294
 5046POPC   C2B66080  20.081  42.091   6.661
 5046POPC   C3B66081  20.132  41.990   7.118
 5046POPC   C4B66082  20.461  41.979   7.426
 5047POPC   NC366083  29.028  15.034   5.145
 5047POPC   PO466084  29.378  15.368   5.625
 5047POPC   GL166085  29.201  15.074   5.833
 5047POPC   GL266086  28.949  14.888   5.626
 5047POPC   C1A66087  29.064  15.142   6.234
 5047POPC   D2A66088  29.233  15.046   6.602
 5047POPC   C3A66089  29.068  15.264   6.914
 5047POPC   C4A66090  29.331  15.373   7.193
 5047POPC   C1B66091  28.922  14.696   6.015
 5047POPC   C2B66092  28.983  14.632   6.471
 5047POPC   C3B66093  28.919  14.754   6.935
 5047POPC   C4B66094  29.115  14.933   7.329
 5048POPC   NC366095  28.941   8.153   5.590
 5048POPC   PO466096  28.289   8.173   5.261
 5048POPC   GL166097  28.435   8.268   5.689
 5048POPC   GL266098  28.438   7.953   5.817
 5048POPC   C1A66099  28.335   8.451   6.125
 5048POPC   D2A66100  28.163   8.490   6.539
 5048POPC   C3A66101  28.299   8.241   6.862
 5048POPC   C4A66102  28.111   8.247   7.244
 5048POPC   C1B66103  28.644   8.038   6.180
 5048POPC   C2B66104  28.619   7.905   6.578
 5048POPC   C3B66105  28.763   7.992   6.941
 5048POPC   C4B66106  28.571   8.033   7.301
 5049POPC   NC366107  10.808  20.559   5.448
 5049POPC   PO466108  10.366  21.045   5.371
 5049POPC   GL166109  10.409  20.786   5.742
 5049POPC   GL266110  10.720  20.912   5.830
 5049POPC   C1A66111  10.480  20.577   6.165
 5049POPC   D2A66112  10.766  20.427   6.518
 5049POPC   C3A66113  10.625  20.490   6.948
 5049POPC   C4A66114  10.232  20.624   7.103
 5049POPC   C1B66115  10.866  20.936   6.255
 5049POPC   C2B66116  10.712  20.975   6.682
 5049POPC   C3B66117  10.865  20.916   7.118
 5049POPC   C4B66118  10.906  20.607   7.416
 5050POPC   NC366119   3.991   0.401   5.432
 5050POPC   PO466120   3.806   1.023   5.472
 5050POPC   GL166121   4.065   0.760   5.779
 5050POPC   GL266122   4.446   0.686   5.810
 5050POPC   C1A66123   4.076   0.513   6.176
 5050POPC   D2A66124   3.885   0.522   6.603
 5050POPC   C3A66125   4.106   0.541   6.996
 5050POPC   C4A66126   4.082   0.210   7.287
 5050POPC   C1B66127   4.578   0.549   6.254
 5050POPC   C2B66128   4.675   0.210   6.584
 5050POPC   C3B66129   4.542   0.229   7.006
 5050POPC   C4B66130   4.596   0.678   7.135
 5051POPC   NC366131  25.618  13.210   5.254
 5051POPC   PO466132  25.161  13.700   5.361
 5051POPC   GL166133  25.200  13.753   5.798
 5051POPC   GL266134  25.208  13.415   5.822
 5051POPC   C1A66135  25.248  13.816   6.252
 5051POPC   D2A66136  25.080  13.906   6.657
 5051POPC   C3A66137  25.250  13.998   7.037
 5051POPC   C4A66138  25.021  13.904   7.397
 5051POPC   C1B66139  25.514  13.378   6.145
 5051POPC   C2B66140  25.409  13.273   6.569
 5051POPC   C3B66141  25.165  13.455   6.904
 5051POPC   C4B66142  25.369  13.556   7.263
 5052POPC   NC366143   9.873  38.915   5.336
 5052POPC   PO466144   9.478  39.479   5.510
 5052POPC   GL166145   9.822  39.273   5.754
 5052POPC   GL266146  10.056  39.514   5.864
 5052POPC   C1A66147   9.786  39.224   6.224
 5052POPC   D2A66148   9.462  39.151   6.583
 5052POPC   C3A66149   9.618  39.092   7.011
 5052POPC   C4A66150   9.688  39.144   7.480
 5052POPC   C1B66151  10.121  39.661   6.272
 5052POPC   C2B66152   9.855  39.578   6.624
 5052POPC   C3B66153   9.838  39.553   7.070
 5052POPC   C4B66154  10.082  39.474   7.443
 5053POPC   NC366155  36.767  38.651   5.412
 5053POPC   PO466156  37.445  38.432   5.684
 5053POPC   GL166157  37.022  38.412   5.799
 5053POPC   GL266158  36.904  38.726   5.895
 5053POPC   C1A66159  36.873  38.309   6.220
 5053POPC   D2A66160  37.112  38.091   6.565
 5053POPC   C3A66161  36.971  38.248   6.949
 5053POPC   C4A66162  37.090  38.358   7.360
 5053POPC   C1B66163  36.680  38.783   6.266
 5053POPC   C2B66164  36.758  38.612   6.673
 5053POPC   C3B66165  36.669  38.696   7.114
 5053POPC   C4B66166  36.662  38.547   7.553
 5054POPC   NC366167  43.915  40.280   5.709
 5054POPC   PO466168  43.469  39.902   5.401
 5054POPC   GL166169  43.554  39.999   5.911
 5054POPC   GL266170  43.554  40.323   6.066
 5054POPC   C1A66171  43.698  39.966   6.387
 5054POPC   D2A66172  43.639  40.099   6.811
 5054POPC   C3A66173  43.686  39.990   7.239
 5054POPC   C4A66174  44.087  39.903   7.448
 5054POPC   C1B66175  43.971  40.377   6.321
 5054POPC   C2B66176  44.241  40.062   6.539
 5054POPC   C3B66177  44.142  40.081   6.965
 5054POPC   C4B66178  43.943  40.428   7.179
 5055POPC   NC366179  22.012  39.934   5.382
 5055POPC   PO466180  22.492  40.197   5.705
 5055POPC   GL166181  22.070  40.216   5.845
 5055POPC   GL266182  21.986  40.578   5.787
 5055POPC   C1A66183  21.939  40.021   6.252
 5055POPC   D2A66184  22.103  39.738   6.622
 5055POPC   C3A66185  22.093  39.817   7.075
 5055POPC   C4A66186  22.412  39.837   7.423
 5055POPC   C1B66187  22.117  40.541   6.240
 5055POPC   C2B66188  22.166  40.294   6.636
 5055POPC   C3B66189  22.323  40.255   7.055
 5055POPC   C4B66190  22.174  40.286   7.486
 5056POPC   NC366191  34.351  12.312   5.230
 5056POPC   PO466192  34.939  12.437   5.537
 5056POPC   GL166193  34.713  12.143   5.803
 5056POPC   GL266194  34.363  12.064   5.801
 5056POPC   C1A66195  34.691  11.954   6.205
 5056POPC   D2A66196  34.552  12.101   6.597
 5056POPC   C3A66197  34.777  12.026   6.952
 5056POPC   C4A66198  34.886  12.125   7.359
 5056POPC   C1B66199  34.199  12.277   6.196
 5056POPC   C2B66200  34.139  12.410   6.659
 5056POPC   C3B66201  34.294  12.185   7.077
 5056POPC   C4B66202  34.421  11.748   7.206
 5057POPC   NC366203  37.089  35.619   5.604
 5057POPC   PO466204  36.660  35.896   5.183
 5057POPC   GL166205  36.718  36.037   5.698
 5057POPC   GL266206  37.068  36.119   5.776
 5057POPC   C1A66207  36.846  35.900   6.194
 5057POPC   D2A66208  37.181  35.934   6.569
 5057POPC   C3A66209  36.963  35.983   6.986
 5057POPC   C4A66210  36.566  35.929   7.239
 5057POPC   C1B66211  37.200  36.300   6.182
 5057POPC   C2B66212  36.957  36.409   6.561
 5057POPC   C3B66213  36.709  36.460   6.934
 5057POPC   C4B66214  36.819  36.441   7.351
 5058POPC   NC366215  30.937  20.373   5.005
 5058POPC   PO466216  30.728  20.746   5.479
 5058POPC   GL166217  30.621  20.604   5.858
 5058POPC   GL266218  30.908  20.535   6.011
 5058POPC   C1A66219  30.469  20.482   6.260
 5058POPC   D2A66220  30.627  20.693   6.589
 5058POPC   C3A66221  30.635  20.561   6.977
 5058POPC   C4A66222  30.330  20.387   7.208
 5058POPC   C1B66223  30.981  20.906   6.273
 5058POPC   C2B66224  30.996  21.007   6.726
 5058POPC   C3B66225  30.900  20.967   7.142
 5058POPC   C4B66226  30.877  20.871   7.577
 5059POPC   NC366227   8.627  33.815   5.046
 5059POPC   PO466228   9.151  33.973   5.448
 5059POPC   GL166229   9.015  33.932   5.883
 5059POPC   GL266230   8.748  33.689   5.876
 5059POPC   C1A66231   8.929  34.119   6.280
 5059POPC   D2A66232   9.244  34.065   6.588
 5059POPC   C3A66233   9.193  33.834   6.966
 5059POPC   C4A66234   9.182  34.034   7.329
 5059POPC   C1B66235   8.900  33.615   6.325
 5059POPC   C2B66236   8.730  33.877   6.695
 5059POPC   C3B66237   8.703  33.869   7.136
 5059POPC   C4B66238   8.917  33.619   7.396
 5060POPC   NC366239  19.061   8.742   5.509
 5060POPC   PO466240  18.928   8.031   5.335
 5060POPC   GL166241  18.873   8.208   5.734
 5060POPC   GL266242  19.141   7.997   5.853
 5060POPC   C1A66243  18.803   8.268   6.196
 5060POPC   D2A66244  19.000   8.239   6.611
 5060POPC   C3A66245  18.864   8.202   7.034
 5060POPC   C4A66246  19.075   7.871   7.270
 5060POPC   C1B66247  19.188   7.853   6.285
 5060POPC   C2B66248  19.220   7.787   6.716
 5060POPC   C3B66249  19.368   8.101   6.947
 5060POPC   C4B66250  19.315   8.455   7.200
 5061POPC   NC366251  41.332  27.134   5.296
 5061POPC   PO466252  41.862  26.782   5.517
 5061POPC   GL166253  41.484  26.783   5.742
 5061POPC   GL266254  41.326  27.101   5.812
 5061POPC   C1A66255  41.331  26.695   6.142
 5061POPC   D2A66256  41.476  26.424   6.484
 5061POPC   C3A66257  41.714  26.562   6.825
 5061POPC   C4A66258  41.487  26.467   7.200
 5061POPC   C1B66259  41.661  27.092   6.139
 5061POPC   C2B66260  41.511  26.949   6.552
 5061POPC   C3B66261  41.318  26.868   6.928
 5061POPC   C4B66262  41.423  26.972   7.356
 5062POPC   NC366263  18.033  44.252   5.450
 5062POPC   PO466264  18.185  43.624   5.609
 5062POPC   GL166265  18.182  43.983   5.883
 5062POPC   GL266266  17.823  44.100   5.882
 5062POPC   C1A66267  18.352  43.946   6.308
 5062POPC   D2A66268  18.275  43.639   6.661
 5062POPC   C3A66269  18.436  43.863   7.027
 5062POPC   C4A66270  18.530  44.288   7.107
 5062POPC   C1B66271  17.845  43.878   6.260
 5062POPC   C2B66272  17.955  44.047   6.641
 5062POPC   C3B66273  17.929  43.864   7.014
 5062POPC   C4B66274  18.066  44.103   7.285
 5063POPC   NC366275  15.773  34.538   5.372
 5063POPC   PO466276  16.413  34.237   5.447
 5063POPC   GL166277  16.136  34.327   5.804
 5063POPC   GL266278  15.950  34.622   5.822
 5063POPC   C1A66279  16.041  34.348   6.264
 5063POPC   D2A66280  16.202  34.431   6.680
 5063POPC   C3A66281  15.832  34.604   6.849
 5063POPC   C4A66282  15.618  34.552   7.227
 5063POPC   C1B66283  16.103  34.849   6.137
 5063POPC   C2B66284  16.140  34.925   6.529
 5063POPC   C3B66285  16.241  34.919   6.931
 5063POPC   C4B66286  16.110  34.680   7.269
 5064POPC   NC366287  26.931  18.094   5.455
 5064POPC   PO466288  26.454  17.868   5.636
 5064POPC   GL166289  26.740  18.104   5.943
 5064POPC   GL266290  27.079  18.292   5.905
 5064POPC   C1A66291  26.671  18.277   6.359
 5064POPC   D2A66292  26.404  18.191   6.727
 5064POPC   C3A66293  26.576  18.335   7.109
 5064POPC   C4A66294  26.703  18.089   7.470
 5064POPC   C1B66295  27.136  18.057   6.300
 5064POPC   C2B66296  26.940  18.024   6.730
 5064POPC   C3B66297  27.068  18.225   7.112
 5064POPC   C4B66298  27.122  18.515   7.465
 5065POPC   NC366299  22.353  10.705   5.599
 5065POPC   PO466300  22.208  10.054   5.377
 5065POPC   GL166301  22.264  10.253   5.808
 5065POPC   GL266302  21.935  10.358   5.798
 5065POPC   C1A66303  22.306  10.480   6.229
 5065POPC   D2A66304  22.213  10.357   6.645
 5065POPC   C3A66305  22.206  10.558   7.084
 5065POPC   C4A66306  22.344  10.293   7.451
 5065POPC   C1B66307  21.831  10.250   6.237
 5065POPC   C2B66308  21.722  10.544   6.589
 5065POPC   C3B66309  21.701  10.613   7.047
 5065POPC   C4B66310  21.806  10.900   7.381
 5066POPC   NC366311  40.489  16.572   5.406
 5066POPC   PO466312  41.196  16.873   5.345
 5066POPC   GL166313  40.878  16.751   5.656
 5066POPC   GL266314  40.599  16.995   5.720
 5066POPC   C1A66315  40.728  16.658   6.087
 5066POPC   D2A66316  40.779  16.892   6.466
 5066POPC   C3A66317  40.691  16.738   6.902
 5066POPC   C4A66318  40.616  16.683   7.341
 5066POPC   C1B66319  40.361  17.072   6.165
 5066POPC   C2B66320  40.301  17.042   6.651
 5066POPC   C3B66321  40.349  17.079   7.114
 5066POPC   C4B66322  40.487  17.141   7.589
 5067POPC   NC366323  42.476  25.849   5.243
 5067POPC   PO466324  41.863  25.808   5.485
 5067POPC   GL166325  42.047  25.994   5.834
 5067POPC   GL266326  42.339  25.861   5.786
 5067POPC   C1A66327  42.293  26.193   6.178
 5067POPC   D2A66328  42.503  26.083   6.543
 5067POPC   C3A66329  42.391  26.214   6.970
 5067POPC   C4A66330  42.556  26.174   7.392
 5067POPC   C1B66331  42.284  25.675   6.245
 5067POPC   C2B66332  42.502  25.591   6.661
 5067POPC   C3B66333  42.489  25.718   7.089
 5067POPC   C4B66334  42.573  25.667   7.523
 5068POPC   NC366335  35.661  38.236   5.595
 5068POPC   PO466336  35.175  38.540   5.217
 5068POPC   GL166337  35.304  38.621   5.667
 5068POPC   GL266338  35.605  38.845   5.678
 5068POPC   C1A66339  35.369  38.437   6.116
 5068POPC   D2A66340  35.539  38.232   6.514
 5068POPC   C3A66341  35.351  38.353   6.895
 5068POPC   C4A66342  35.488  38.206   7.277
 5068POPC   C1B66343  35.641  38.887   6.133
 5068POPC   C2B66344  35.449  38.725   6.521
 5068POPC   C3B66345  35.582  38.836   6.938
 5068POPC   C4B66346  35.404  38.704   7.305
 5069POPC   NC366347   7.050  22.844   5.368
 5069POPC   PO466348   6.405  23.119   5.392
 5069POPC   GL166349   6.625  22.853   5.675
 5069POPC   GL266350   6.833  23.112   5.803
 5069POPC   C1A66351   6.584  22.754   6.126
 5069POPC   D2A66352   6.343  22.589   6.498
 5069POPC   C3A66353   6.429  22.775   6.915
 5069POPC   C4A66354   6.791  22.831   7.184
 5069POPC   C1B66355   6.987  23.038   6.254
 5069POPC   C2B66356   6.782  23.054   6.682
 5069POPC   C3B66357   6.652  23.287   7.106
 5069POPC   C4B66358   6.837  23.186   7.566
 5070POPC   NC366359  39.485   6.893   5.371
 5070POPC   PO466360  39.028   6.449   5.576
 5070POPC   GL166361  39.252   6.735   5.830
 5070POPC   GL266362  39.621   6.779   5.859
 5070POPC   C1A66363  39.350   6.579   6.261
 5070POPC   D2A66364  39.181   6.464   6.646
 5070POPC   C3A66365  39.277   6.653   7.036
 5070POPC   C4A66366  39.080   6.548   7.405
 5070POPC   C1B66367  39.738   6.961   6.276
 5070POPC   C2B66368  39.543   6.935   6.692
 5070POPC   C3B66369  39.471   7.124   7.121
 5070POPC   C4B66370  39.501   6.843   7.505
 5071POPC   NC366371  32.127   6.074   5.348
 5071POPC   PO466372  32.302   5.390   5.351
 5071POPC   GL166373  32.381   5.764   5.703
 5071POPC   GL266374  32.439   6.113   5.793
 5071POPC   C1A66375  32.501   5.791   6.183
 5071POPC   D2A66376  32.406   5.984   6.575
 5071POPC   C3A66377  32.295   5.742   6.928
 5071POPC   C4A66378  32.401   5.952   7.296
 5071POPC   C1B66379  32.108   6.144   6.126
 5071POPC   C2B66380  31.930   6.185   6.557
 5071POPC   C3B66381  32.040   6.212   7.006
 5071POPC   C4B66382  31.969   6.160   7.472
 5072POPC   NC366383  23.942  28.874   5.468
 5072POPC   PO466384  23.883  28.177   5.426
 5072POPC   GL166385  23.794  28.427   5.788
 5072POPC   GL266386  23.664  28.094   5.903
 5072POPC   C1A66387  23.584  28.519   6.194
 5072POPC   D2A66388  23.395  28.377   6.595
 5072POPC   C3A66389  23.521  28.617   6.953
 5072POPC   C4A66390  23.745  28.541   7.298
 5072POPC   C1B66391  23.939  28.074   6.248
 5072POPC   C2B66392  23.944  28.027   6.673
 5072POPC   C3B66393  23.968  28.126   7.085
 5072POPC   C4B66394  23.700  28.050   7.427
 5073POPC   NC366395  13.886  14.022   5.136
 5073POPC   PO466396  13.639  13.474   5.457
 5073POPC   GL166397  13.614  13.430   5.887
 5073POPC   GL266398  13.874  13.690   5.954
 5073POPC   C1A66399  13.483  13.484   6.322
 5073POPC   D2A66400  13.771  13.694   6.596
 5073POPC   C3A66401  13.792  13.591   7.030
 5073POPC   C4A66402  13.918  13.641   7.464
 5073POPC   C1B66403  13.466  13.923   6.066
 5073POPC   C2B66404  13.334  13.993   6.499
 5073POPC   C3B66405  13.326  13.762   6.890
 5073POPC   C4B66406  13.349  13.651   7.344
 5074POPC   NC366407  12.529  37.264   5.525
 5074POPC   PO466408  13.104  36.984   5.332
 5074POPC   GL166409  13.069  36.841   5.797
 5074POPC   GL266410  12.740  36.928   5.853
 5074POPC   C1A66411  12.908  36.567   6.174
 5074POPC   D2A66412  12.719  36.651   6.591
 5074POPC   C3A66413  13.010  36.641   6.959
 5074POPC   C4A66414  13.079  37.055   7.189
 5074POPC   C1B66415  12.685  37.158   6.240
 5074POPC   C2B66416  12.302  37.173   6.500
 5074POPC   C3B66417  12.291  37.115   6.942
 5074POPC   C4B66418  12.575  36.835   7.143
 5075POPC   NC366419   6.131  40.707   5.381
 5075POPC   PO466420   5.714  41.204   5.246
 5075POPC   GL166421   5.879  41.106   5.699
 5075POPC   GL266422   6.097  40.854   5.875
 5075POPC   C1A66423   5.786  41.112   6.187
 5075POPC   D2A66424   6.074  40.860   6.466
 5075POPC   C3A66425   6.008  40.814   6.906
 5075POPC   C4A66426   5.701  40.831   7.230
 5075POPC   C1B66427   5.781  40.603   6.111
 5075POPC   C2B66428   5.593  40.624   6.535
 5075POPC   C3B66429   5.670  40.427   6.939
 5075POPC   C4B66430   5.591  40.354   7.374
 5076POPC   NC366431  26.179  30.178   5.658
 5076POPC   PO466432  25.980  30.748   5.374
 5076POPC   GL166433  25.880  30.600   5.776
 5076POPC   GL266434  26.244  30.662   5.852
 5076POPC   C1A66435  25.896  30.714   6.227
 5076POPC   D2A66436  26.141  31.009   6.459
 5076POPC   C3A66437  26.075  30.968   6.892
 5076POPC   C4A66438  26.158  31.115   7.301
 5076POPC   C1B66439  26.417  30.575   6.253
 5076POPC   C2B66440  26.319  30.564   6.683
 5076POPC   C3B66441  26.477  30.662   7.107
 5076POPC   C4B66442  26.620  30.426   7.487
 5077POPC   NC366443   2.837   5.288   5.350
 5077POPC   PO466444   2.216   5.054   5.428
 5077POPC   GL166445   2.553   5.013   5.704
 5077POPC   GL266446   2.367   5.009   5.988
 5077POPC   C1A66447   2.861   5.092   6.061
 5077POPC   D2A66448   2.897   5.273   6.507
 5077POPC   C3A66449   2.839   5.141   6.925
 5077POPC   C4A66450   3.155   5.215   7.251
 5077POPC   C1B66451   2.450   5.338   6.284
 5077POPC   C2B66452   2.252   5.439   6.692
 5077POPC   C3B66453   2.393   5.340   7.094
 5077POPC   C4B66454   2.681   5.331   7.387
 5078POPC   NC366455  14.315   3.367   5.505
 5078POPC   PO466456  14.900   3.743   5.589
 5078POPC   GL166457  14.642   3.506   5.889
 5078POPC   GL266458  14.272   3.559   5.957
 5078POPC   C1A66459  14.651   3.556   6.326
 5078POPC   D2A66460  14.586   3.786   6.710
 5078POPC   C3A66461  14.484   3.627   7.117
 5078POPC   C4A66462  14.757   3.653   7.512
 5078POPC   C1B66463  14.165   3.695   6.357
 5078POPC   C2B66464  14.044   3.706   6.774
 5078POPC   C3B66465  14.094   3.952   7.144
 5078POPC   C4B66466  14.161   3.818   7.543
 5079POPC   NC366467  43.960  20.547   5.203
 5079POPC   PO466468  43.666  21.096   5.423
 5079POPC   GL166469  43.701  20.868   5.801
 5079POPC   GL266470  43.654  20.487   5.690
 5079POPC   C1A66471  43.990  20.898   6.174
 5079POPC   D2A66472  44.232  20.684   6.483
 5079POPC   C3A66473  44.047  20.649   6.888
 5079POPC   C4A66474  44.156  20.526   7.312
 5079POPC   C1B66475  43.911  20.379   6.081
 5079POPC   C2B66476  43.945  20.242   6.526
 5079POPC   C3B66477  43.927  20.147   6.959
 5079POPC   C4B66478  43.762  20.232   7.366
 5080POPC   NC366479  20.751  44.924   5.604
 5080POPC   PO466480  20.510   0.502   5.256
 5080POPC   GL166481  20.516   0.560   5.759
 5080POPC   GL266482  20.625   0.247   5.961
 5080POPC   C1A66483  20.795   0.664   6.164
 5080POPC   D2A66484  20.724   0.553   6.612
 5080POPC   C3A66485  20.889   0.436   7.022
 5080POPC   C4A66486  20.797   0.592   7.453
 5080POPC   C1B66487  20.353   0.379   6.282
 5080POPC   C2B66488  20.354   0.206   6.690
 5080POPC   C3B66489  20.393   0.349   7.088
 5080POPC   C4B66490  20.629   0.119   7.370
 5081POPC   NC366491  19.701  15.589   5.524
 5081POPC   PO466492  20.168  16.146   5.452
 5081POPC   GL166493  19.999  15.905   5.832
 5081POPC   GL266494  19.704  15.838   5.952
 5081POPC   C1A66495  20.048  15.690   6.273
 5081POPC   D2A66496  19.868  15.624   6.693
 5081POPC   C3A66497  20.119  15.656   7.025
 5081POPC   C4A66498  20.032  15.939   7.383
 5081POPC   C1B66499  19.504  15.997   6.267
 5081POPC   C2B66500  19.521  15.995   6.668
 5081POPC   C3B66501  19.603  16.103   7.049
 5081POPC   C4B66502  19.219  16.228   7.191
 5082POPC   NC366503  14.540  27.917   5.419
 5082POPC   PO466504  14.248  28.523   5.187
 5082POPC   GL166505  14.416  28.505   5.670
 5082POPC   GL266506  14.328  28.183   5.809
 5082POPC   C1A66507  14.656  28.379   6.123
 5082POPC   D2A66508  14.535  28.100   6.504
 5082POPC   C3A66509  14.428  28.325   6.891
 5082POPC   C4A66510  14.490  28.504   7.291
 5082POPC   C1B66511  14.140  28.363   6.145
 5082POPC   C2B66512  14.033  28.280   6.554
 5082POPC   C3B66513  13.921  28.407   6.963
 5082POPC   C4B66514  14.072  28.236   7.334
 5083POPC   NC366515  40.089  25.892   5.564
 5083POPC   PO466516  39.586  26.409   5.711
 5083POPC   GL166517  39.869  26.138   5.957
 5083POPC   GL266518  40.217  26.220   5.906
 5083POPC   C1A66519  40.063  25.848   6.251
 5083POPC   D2A66520  40.131  26.006   6.653
 5083POPC   C3A66521  40.329  25.815   6.960
 5083POPC   C4A66522  40.060  25.734   7.304
 5083POPC   C1B66523  40.292  26.327   6.285
 5083POPC   C2B66524  40.571  26.263   6.634
 5083POPC   C3B66525  40.575  26.304   7.055
 5083POPC   C4B66526  40.304  26.182   7.345
 5084POPC   NC366527  31.873   5.453   5.577
 5084POPC   PO466528  31.487   4.873   5.346
 5084POPC   GL166529  31.359   5.061   5.776
 5084POPC   GL266530  31.023   5.264   5.784
 5084POPC   C1A66531  31.502   4.970   6.228
 5084POPC   D2A66532  31.782   4.955   6.619
 5084POPC   C3A66533  31.530   5.013   6.980
 5084POPC   C4A66534  31.154   4.922   7.194
 5084POPC   C1B66535  31.248   5.436   6.145
 5084POPC   C2B66536  31.425   5.378   6.573
 5084POPC   C3B66537  31.316   5.507   7.001
 5084POPC   C4B66538  31.540   5.359   7.368
 5085POPC   NC366539  39.005  14.544   5.417
 5085POPC   PO466540  39.425  14.048   5.418
 5085POPC   GL166541  39.121  14.208   5.781
 5085POPC   GL266542  39.322  14.450   5.799
 5085POPC   C1A66543  39.078  14.401   6.233
 5085POPC   D2A66544  39.315  14.215   6.597
 5085POPC   C3A66545  39.260  14.379   6.989
 5085POPC   C4A66546  38.883  14.516   7.197
 5085POPC   C1B66547  39.564  14.343   6.161
 5085POPC   C2B66548  39.695  14.555   6.540
 5085POPC   C3B66549  39.734  14.663   6.973
 5085POPC   C4B66550  39.583  14.468   7.377
 5086POPC   NC366551  31.219   5.281   5.304
 5086POPC   PO466552  30.620   4.992   5.348
 5086POPC   GL166553  30.556   5.036   5.755
 5086POPC   GL266554  30.456   5.364   5.808
 5086POPC   C1A66555  30.578   4.793   6.113
 5086POPC   D2A66556  30.663   4.927   6.507
 5086POPC   C3A66557  30.449   4.826   6.858
 5086POPC   C4A66558  30.692   4.708   7.177
 5086POPC   C1B66559  30.720   5.389   6.193
 5086POPC   C2B66560  30.900   5.363   6.618
 5086POPC   C3B66561  30.777   5.230   7.058
 5086POPC   C4B66562  31.023   5.341   7.444
 5087POPC   NC366563   2.483  16.090   5.408
 5087POPC   PO466564   3.090  15.862   5.273
 5087POPC   GL166565   2.903  15.992   5.704
 5087POPC   GL266566   2.619  15.806   5.831
 5087POPC   C1A66567   2.785  16.160   6.160
 5087POPC   D2A66568   2.468  16.028   6.507
 5087POPC   C3A66569   2.577  15.920   6.944
 5087POPC   C4A66570   2.910  16.049   7.238
 5087POPC   C1B66571   3.000  15.694   6.110
 5087POPC   C2B66572   3.041  15.827   6.563
 5087POPC   C3B66573   3.026  15.609   6.956
 5087POPC   C4B66574   3.181  15.635   7.363
 5088POPC   NC366575  19.944  26.960   5.425
 5088POPC   PO466576  19.902  26.325   5.184
 5088POPC   GL166577  19.615  26.596   5.605
 5088POPC   GL266578  19.602  26.984   5.795
 5088POPC   C1A66579  19.562  26.585   6.084
 5088POPC   D2A66580  19.582  26.835   6.484
 5088POPC   C3A66581  19.813  26.687   6.851
 5088POPC   C4A66582  19.717  26.707   7.290
 5088POPC   C1B66583  19.948  26.954   6.139
 5088POPC   C2B66584  20.185  27.175   6.484
 5088POPC   C3B66585  20.011  27.162   6.903
 5088POPC   C4B66586  20.119  27.030   7.310
 5089POPC   NC366587  19.558  31.453   5.464
 5089POPC   PO466588  20.150  31.605   5.357
 5089POPC   GL166589  20.030  31.518   5.815
 5089POPC   GL266590  19.725  31.431   5.939
 5089POPC   C1A66591  19.975  31.773   6.228
 5089POPC   D2A66592  19.891  31.808   6.674
 5089POPC   C3A66593  20.001  31.441   6.953
 5089POPC   C4A66594  19.963  31.490   7.399
 5089POPC   C1B66595  19.518  31.541   6.304
 5089POPC   C2B66596  19.548  31.377   6.706
 5089POPC   C3B66597  19.495  31.503   7.133
 5089POPC   C4B66598  19.472  31.490   7.583
 5090POPC   NC366599   3.237  16.296   5.381
 5090POPC   PO466600   3.673  15.787   5.514
 5090POPC   GL166601   3.401  15.974   5.787
 5090POPC   GL266602   3.636  16.224   5.836
 5090POPC   C1A66603   3.323  16.104   6.234
 5090POPC   D2A66604   3.560  16.009   6.614
 5090POPC   C3A66605   3.392  16.005   7.030
 5090POPC   C4A66606   3.617  15.861   7.412
 5090POPC   C1B66607   3.791  16.353   6.246
 5090POPC   C2B66608   3.624  16.519   6.620
 5090POPC   C3B66609   3.732  16.420   7.026
 5090POPC   C4B66610   3.490  16.349   7.400
 5091POPC   NC366611   0.328  39.427   5.267
 5091POPC   PO466612   0.519  38.958   5.707
 5091POPC   GL166613   0.604  39.347   5.859
 5091POPC   GL266614   0.306  39.550   5.814
 5091POPC   C1A66615   0.702  39.307   6.305
 5091POPC   D2A66616   0.467  39.257   6.680
 5091POPC   C3A66617   0.599  39.125   7.090
 5091POPC   C4A66618   0.694  38.972   7.508
 5091POPC   C1B66619   0.214  39.261   6.181
 5091POPC   C2B66620   0.043  38.999   6.507
 5091POPC   C3B66621   0.117  39.012   6.942
 5091POPC   C4B66622   0.161  39.345   7.237
 5092POPC   NC366623  37.931  35.254   5.449
 5092POPC   PO466624  37.242  35.186   5.578
 5092POPC   GL166625  37.615  35.346   5.849
 5092POPC   GL266626  37.958  35.146   5.951
 5092POPC   C1A66627  37.684  35.419   6.290
 5092POPC   D2A66628  37.395  35.296   6.592
 5092POPC   C3A66629  37.496  35.488   6.977
 5092POPC   C4A66630  37.883  35.688   7.147
 5092POPC   C1B66631  38.021  34.985   6.384
 5092POPC   C2B66632  37.918  35.256   6.753
 5092POPC   C3B66633  37.849  35.166   7.181
 5092POPC   C4B66634  37.982  34.909   7.507
 5093POPC   NC366635  28.776   5.342   5.589
 5093POPC   PO466636  28.143   5.024   5.515
 5093POPC   GL166637  28.483   4.935   5.814
 5093POPC   GL266638  28.479   5.254   5.980
 5093POPC   C1A66639  28.682   4.882   6.252
 5093POPC   D2A66640  28.531   5.078   6.619
 5093POPC   C3A66641  28.328   4.823   6.912
 5093POPC   C4A66642  28.486   4.777   7.321
 5093POPC   C1B66643  28.185   5.022   6.235
 5093POPC   C2B66644  28.023   5.243   6.594
 5093POPC   C3B66645  27.896   5.198   6.996
 5093POPC   C4B66646  28.219   5.186   7.261
 5094POPC   NC366647  42.973  28.980   5.483
 5094POPC   PO466648  43.355  29.315   5.127
 5094POPC   GL166649  43.396  29.268   5.649
 5094POPC   GL266650  43.070  29.306   5.861
 5094POPC   C1A66651  43.463  29.114   6.123
 5094POPC   D2A66652  43.516  29.254   6.582
 5094POPC   C3A66653  43.159  29.238   6.856
 5094POPC   C4A66654  43.158  29.186   7.307
 5094POPC   C1B66655  42.988  29.156   6.316
 5094POPC   C2B66656  42.767  28.949   6.671
 5094POPC   C3B66657  42.654  29.163   7.026
 5094POPC   C4B66658  42.811  29.547   7.259
 5095POPC   NC366659  18.042   3.489   5.003
 5095POPC   PO466660  18.507   3.215   5.436
 5095POPC   GL166661  18.268   3.396   5.755
 5095POPC   GL266662  17.928   3.543   5.709
 5095POPC   C1A66663  18.298   3.666   6.107
 5095POPC   D2A66664  18.334   3.451   6.508
 5095POPC   C3A66665  18.268   3.759   6.796
 5095POPC   C4A66666  18.325   3.768   7.241
 5095POPC   C1B66667  17.877   3.387   6.137
 5095POPC   C2B66668  17.851   3.448   6.574
 5095POPC   C3B66669  18.101   3.315   6.964
 5095POPC   C4B66670  18.081   3.346   7.416
 5096POPC   NC366671  33.757  36.971   5.410
 5096POPC   PO466672  33.211  36.798   5.119
 5096POPC   GL166673  33.346  36.892   5.709
 5096POPC   GL266674  33.636  37.090   5.888
 5096POPC   C1A66675  33.348  36.854   6.205
 5096POPC   D2A66676  33.674  37.067   6.506
 5096POPC   C3A66677  33.766  36.892   6.947
 5096POPC   C4A66678  33.880  37.098   7.345
 5096POPC   C1B66679  33.909  36.803   6.117
 5096POPC   C2B66680  34.049  36.634   6.527
 5096POPC   C3B66681  34.254  36.587   6.940
 5096POPC   C4B66682  34.140  36.665   7.357
 5097POPC   NC366683  12.106   5.178   5.219
 5097POPC   PO466684  11.759   5.014   5.490
 5097POPC   GL166685  12.095   5.182   5.752
 5097POPC   GL266686  11.964   5.456   5.903
 5097POPC   C1A66687  12.289   5.146   6.190
 5097POPC   D2A66688  12.172   5.117   6.656
 5097POPC   C3A66689  12.308   4.918   7.067
 5097POPC   C4A66690  12.335   4.717   7.486
 5097POPC   C1B66691  11.820   5.340   6.325
 5097POPC   C2B66692  11.807   5.456   6.766
 5097POPC   C3B66693  11.888   5.262   7.161
 5097POPC   C4B66694  11.724   5.300   7.605
 5098POPC   NC366695  44.726  35.215   5.211
 5098POPC   PO466696  44.475  35.678   5.576
 5098POPC   GL166697  44.592  35.398   5.872
 5098POPC   GL266698  44.943  35.322   6.021
 5098POPC   C1A66699  44.510  35.240   6.269
 5098POPC   D2A66700  44.765  35.081   6.568
 5098POPC   C3A66701  44.737  35.237   6.970
 5098POPC   C4A66702  44.395  35.232   7.220
 5098POPC   C1B66703  44.824  35.675   6.287
 5098POPC   C2B66704  44.772  35.726   6.720
 5098POPC   C3B66705  44.611  35.701   7.134
 5098POPC   C4B66706  44.854  35.552   7.461
 5099POPC   NC366707  42.509  21.118   5.172
 5099POPC   PO466708  42.260  20.511   5.374
 5099POPC   GL166709  42.386  20.652   5.786
 5099POPC   GL266710  42.667  20.872   5.647
 5099POPC   C1A66711  42.326  20.648   6.267
 5099POPC   D2A66712  42.233  20.881   6.657
 5099POPC   C3A66713  42.072  20.657   7.046
 5099POPC   C4A66714  42.064  20.679   7.530
 5099POPC   C1B66715  42.690  20.957   6.100
 5099POPC   C2B66716  42.770  20.769   6.516
 5099POPC   C3B66717  42.604  20.622   6.891
 5099POPC   C4B66718  42.510  20.741   7.289
 5100POPC   NC366719   0.922  31.719   5.574
 5100POPC   PO466720   0.994  32.395   5.433
 5100POPC   GL166721   1.138  32.531   5.796
 5100POPC   GL266722   1.063  32.208   5.907
 5100POPC   C1A66723   1.019  32.616   6.212
 5100POPC   D2A66724   1.298  32.601   6.554
 5100POPC   C3A66725   1.146  32.400   6.910
 5100POPC   C4A66726   1.331  32.459   7.286
 5100POPC   C1B66727   1.284  32.168   6.283
 5100POPC   C2B66728   1.408  32.015   6.689
 5100POPC   C3B66729   1.161  31.868   7.014
 5100POPC   C4B66730   1.226  31.972   7.419
 5101POPC   NC366731  25.726  14.728   5.463
 5101POPC   PO466732  25.154  14.650   5.673
 5101POPC   GL166733  25.247  14.270   5.914
 5101POPC   GL266734  25.568  14.134   5.830
 5101POPC   C1A66735  25.066  14.295   6.313
 5101POPC   D2A66736  25.035  14.621   6.599
 5101POPC   C3A66737  25.147  14.500   6.991
 5101POPC   C4A66738  25.093  14.389   7.390
 5101POPC   C1B66739  25.639  14.341   6.235
 5101POPC   C2B66740  25.468  14.292   6.650
 5101POPC   C3B66741  25.634  14.358   7.071
 5101POPC   C4B66742  25.546  14.189   7.484
 5102POPC   NC366743  43.390  19.989   5.397
 5102POPC   PO466744  42.861  19.748   5.307
 5102POPC   GL166745  42.976  19.903   5.766
 5102POPC   GL266746  43.267  20.140   5.906
 5102POPC   C1A66747  43.086  19.763   6.202
 5102POPC   D2A66748  42.912  19.566   6.564
 5102POPC   C3A66749  43.068  19.578   6.953
 5102POPC   C4A66750  42.938  19.876   7.223
 5102POPC   C1B66751  43.476  20.094   6.289
 5102POPC   C2B66752  43.309  19.927   6.655
 5102POPC   C3B66753  43.399  20.032   7.053
 5102POPC   C4B66754  43.295  20.115   7.486
 5103POPC   NC366755   4.902  18.292   5.555
 5103POPC   PO466756   5.487  17.959   5.602
 5103POPC   GL166757   5.229  18.144   5.949
 5103POPC   GL266758   5.281  18.514   5.985
 5103POPC   C1A66759   5.102  18.142   6.397
 5103POPC   D2A66760   4.966  18.434   6.720
 5103POPC   C3A66761   5.296  18.440   6.993
 5103POPC   C4A66762   5.371  18.082   7.204
 5103POPC   C1B66763   4.902  18.624   6.213
 5103POPC   C2B66764   4.684  18.838   6.532
 5103POPC   C3B66765   4.632  18.818   6.920
 5103POPC   C4B66766   4.834  18.631   7.196
 5104POPC   NC366767  17.307  24.440   5.391
 5104POPC   PO466768  17.958  24.616   5.407
 5104POPC   GL166769  17.624  24.632   5.747
 5104POPC   GL266770  17.319  24.879   5.742
 5104POPC   C1A66771  17.477  24.659   6.210
 5104POPC   D2A66772  17.190  24.456   6.553
 5104POPC   C3A66773  17.368  24.295   6.949
 5104POPC   C4A66774  17.719  24.346   7.248
 5104POPC   C1B66775  17.280  25.134   6.169
 5104POPC   C2B66776  17.326  24.983   6.607
 5104POPC   C3B66777  17.219  24.788   6.992
 5104POPC   C4B66778  17.111  24.709   7.407
 5105POPC   NC366779  12.228  39.662   5.214
 5105POPC   PO466780  12.031  38.987   5.236
 5105POPC   GL166781  12.052  39.252   5.702
 5105POPC   GL266782  11.817  39.517   5.811
 5105POPC   C1A66783  12.174  39.253   6.163
 5105POPC   D2A66784  12.387  39.382   6.568
 5105POPC   C3A66785  12.254  39.209   6.969
 5105POPC   C4A66786  11.959  39.123   7.292
 5105POPC   C1B66787  11.687  39.394   6.253
 5105POPC   C2B66788  11.761  39.290   6.706
 5105POPC   C3B66789  11.723  39.570   7.057
 5105POPC   C4B66790  11.797  39.562   7.511
 5106POPC   NC366791  25.501   2.481   5.529
 5106POPC   PO466792  25.282   1.847   5.292
 5106POPC   GL166793  25.170   1.792   5.733
 5106POPC   GL266794  25.265   2.119   5.864
 5106POPC   C1A66795  25.197   1.707   6.187
 5106POPC   D2A66796  25.368   1.933   6.559
 5106POPC   C3A66797  25.141   1.835   6.946
 5106POPC   C4A66798  24.840   1.852   7.274
 5106POPC   C1B66799  25.019   2.175   6.253
 5106POPC   C2B66800  25.037   2.309   6.669
 5106POPC   C3B66801  25.108   2.326   7.117
 5106POPC   C4B66802  25.465   2.455   7.440
 5107POPC   NC366803   7.692   4.174   5.504
 5107POPC   PO466804   8.453   4.306   5.419
 5107POPC   GL166805   8.173   4.252   5.701
 5107POPC   GL266806   8.032   4.562   5.711
 5107POPC   C1A66807   8.010   4.166   6.080
 5107POPC   D2A66808   8.122   4.083   6.467
 5107POPC   C3A66809   7.969   4.299   6.822
 5107POPC   C4A66810   8.069   4.145   7.211
 5107POPC   C1B66811   8.328   4.563   6.102
 5107POPC   C2B66812   8.411   4.493   6.562
 5107POPC   C3B66813   8.381   4.564   7.000
 5107POPC   C4B66814   8.009   4.648   7.241
 5108POPC   NC366815  28.175  39.262   5.778
 5108POPC   PO466816  28.627  39.607   5.350
 5108POPC   GL166817  28.694  39.463   5.822
 5108POPC   GL266818  28.664  39.082   5.859
 5108POPC   C1A66819  28.549  39.377   6.287
 5108POPC   D2A66820  28.332  39.067   6.567
 5108POPC   C3A66821  28.344  39.191   7.002
 5108POPC   C4A66822  28.282  39.457   7.365
 5108POPC   C1B66823  28.893  38.978   6.262
 5108POPC   C2B66824  28.855  39.083   6.676
 5108POPC   C3B66825  28.871  39.019   7.090
 5108POPC   C4B66826  28.624  39.065   7.428
 5109POPC   NC366827  19.914   8.228   5.604
 5109POPC   PO466828  20.581   8.188   5.511
 5109POPC   GL166829  20.342   8.237   5.875
 5109POPC   GL266830  20.220   7.933   5.966
 5109POPC   C1A66831  20.244   8.326   6.311
 5109POPC   D2A66832  20.371   8.510   6.694
 5109POPC   C3A66833  20.499   8.311   7.040
 5109POPC   C4A66834  20.281   8.194   7.364
 5109POPC   C1B66835  20.568   7.938   6.228
 5109POPC   C2B66836  20.654   8.006   6.658
 5109POPC   C3B66837  20.555   7.789   7.051
 5109POPC   C4B66838  20.573   7.774   7.495
 5110POPC   NC366839  33.066   4.564   5.434
 5110POPC   PO466840  33.438   4.033   5.488
 5110POPC   GL166841  33.186   4.229   5.815
 5110POPC   GL266842  33.320   4.564   5.901
 5110POPC   C1A66843  32.942   4.275   6.185
 5110POPC   D2A66844  33.020   4.229   6.611
 5110POPC   C3A66845  32.750   4.370   6.900
 5110POPC   C4A66846  32.716   4.347   7.299
 5110POPC   C1B66847  33.351   4.557   6.359
 5110POPC   C2B66848  33.396   4.518   6.824
 5110POPC   C3B66849  33.224   4.265   7.122
 5110POPC   C4B66850  33.310   4.041   7.497
 5111POPC   NC366851  41.994   0.568   5.508
 5111POPC   PO466852  42.613   0.248   5.518
 5111POPC   GL166853  42.609   0.483   5.874
 5111POPC   GL266854  42.316   0.703   5.923
 5111POPC   C1A66855  42.559   0.450   6.304
 5111POPC   D2A66856  42.306   0.707   6.520
 5111POPC   C3A66857  42.488   0.714   6.926
 5111POPC   C4A66858  42.544   0.299   7.021
 5111POPC   C1B66859  42.098   0.374   6.166
 5111POPC   C2B66860  42.186   0.204   6.593
 5111POPC   C3B66861  42.051   0.448   6.931
 5111POPC   C4B66862  41.792   0.326   7.226
 5112POPC   NC366863  35.449  31.119   5.543
 5112POPC   PO466864  35.064  30.653   5.393
 5112POPC   GL166865  35.120  30.579   5.805
 5112POPC   GL266866  34.831  30.523   5.944
 5112POPC   C1A66867  35.413  30.612   6.137
 5112POPC   D2A66868  35.396  30.942   6.456
 5112POPC   C3A66869  35.581  30.824   6.862
 5112POPC   C4A66870  35.694  30.680   7.283
 5112POPC   C1B66871  34.958  30.611   6.368
 5112POPC   C2B66872  35.274  30.469   6.648
 5112POPC   C3B66873  35.282  30.410   7.089
 5112POPC   C4B66874  35.101  30.677   7.409
 5113POPC   NC366875  38.301  14.641   5.465
 5113POPC   PO466876  38.729  14.126   5.469
 5113POPC   GL166877  38.627  14.403   5.817
 5113POPC   GL266878  38.283  14.296   5.860
 5113POPC   C1A66879  38.597  14.281   6.280
 5113POPC   D2A66880  38.791  14.391   6.689
 5113POPC   C3A66881  38.617  14.120   7.005
 5113POPC   C4A66882  38.322  14.324   7.244
 5113POPC   C1B66883  38.085  14.337   6.277
 5113POPC   C2B66884  38.167  14.389   6.733
 5113POPC   C3B66885  38.026  14.679   7.081
 5113POPC   C4B66886  38.092  14.669   7.538
 5114POPC   NC366887  41.796  30.640   5.018
 5114POPC   PO466888  41.296  30.577   5.522
 5114POPC   GL166889  41.472  30.658   5.901
 5114POPC   GL266890  41.621  30.949   5.850
 5114POPC   C1A66891  41.410  30.492   6.297
 5114POPC   D2A66892  41.184  30.682   6.642
 5114POPC   C3A66893  41.400  30.749   7.023
 5114POPC   C4A66894  41.332  30.522   7.406
 5114POPC   C1B66895  41.372  31.002   6.256
 5114POPC   C2B66896  41.371  31.207   6.676
 5114POPC   C3B66897  41.200  31.229   7.113
 5114POPC   C4B66898  41.414  31.023   7.472
 5115POPC   NC366899  19.132   1.200   5.532
 5115POPC   PO466900  19.754   1.154   5.202
 5115POPC   GL166901  19.776   1.309   5.660
 5115POPC   GL266902  19.784   0.954   5.738
 5115POPC   C1A66903  19.916   1.371   6.147
 5115POPC   D2A66904  20.024   1.519   6.612
 5115POPC   C3A66905  20.010   1.211   6.970
 5115POPC   C4A66906  19.959   0.768   7.081
 5115POPC   C1B66907  19.549   0.999   6.113
 5115POPC   C2B66908  19.711   1.045   6.540
 5115POPC   C3B66909  19.501   0.977   6.929
 5115POPC   C4B66910  19.473   1.316   7.171
 5116POPC   NC366911  40.820  11.702   5.355
 5116POPC   PO466912  40.589  12.272   5.230
 5116POPC   GL166913  40.751  12.151   5.671
 5116POPC   GL266914  40.668  11.812   5.848
 5116POPC   C1A66915  40.819  12.181   6.168
 5116POPC   D2A66916  40.685  12.036   6.618
 5116POPC   C3A66917  40.781  12.246   7.073
 5116POPC   C4A66918  40.620  12.511   7.465
 5116POPC   C1B66919  40.895  11.670   6.279
 5116POPC   C2B66920  40.875  11.584   6.764
 5116POPC   C3B66921  40.600  11.774   7.086
 5116POPC   C4B66922  40.662  11.978   7.492
 5117POPC   NC366923   4.513  33.572   5.477
 5117POPC   PO466924   5.156  33.531   5.370
 5117POPC   GL166925   5.126  33.775   5.779
 5117POPC   GL266926   4.829  33.996   5.801
 5117POPC   C1A66927   5.371  33.833   6.172
 5117POPC   D2A66928   5.183  33.811   6.565
 5117POPC   C3A66929   5.384  33.873   6.937
 5117POPC   C4A66930   5.031  33.945   7.189
 5117POPC   C1B66931   4.875  34.095   6.262
 5117POPC   C2B66932   4.864  34.230   6.719
 5117POPC   C3B66933   4.585  34.176   7.105
 5117POPC   C4B66934   4.713  34.088   7.563
 5118POPC   NC366935  27.315  14.131   5.314
 5118POPC   PO466936  27.723  14.718   5.532
 5118POPC   GL166937  27.625  14.300   5.710
 5118POPC   GL266938  27.269  14.308   5.793
 5118POPC   C1A66939  27.594  14.188   6.169
 5118POPC   D2A66940  27.668  14.517   6.473
 5118POPC   C3A66941  27.686  14.450   6.900
 5118POPC   C4A66942  27.708  14.659   7.268
 5118POPC   C1B66943  27.127  14.472   6.208
 5118POPC   C2B66944  27.187  14.390   6.661
 5118POPC   C3B66945  27.261  14.680   7.021
 5118POPC   C4B66946  27.211  14.740   7.437
 5119POPC   NC366947  34.199  29.837   5.560
 5119POPC   PO466948  34.895  30.006   5.461
 5119POPC   GL166949  34.698  29.844   5.797
 5119POPC   GL266950  34.547  30.126   5.851
 5119POPC   C1A66951  34.541  29.779   6.220
 5119POPC   D2A66952  34.765  29.739   6.590
 5119POPC   C3A66953  34.497  29.681   6.896
 5119POPC   C4A66954  34.596  29.705   7.285
 5119POPC   C1B66955  34.438  30.285   6.259
 5119POPC   C2B66956  34.306  30.146   6.668
 5119POPC   C3B66957  34.414  30.168   7.059
 5119POPC   C4B66958  34.708  30.439   7.191
 5120POPC   NC366959   4.906  16.565   5.493
 5120POPC   PO466960   4.330  16.991   5.504
 5120POPC   GL166961   4.560  16.851   5.886
 5120POPC   GL266962   4.686  16.475   5.929
 5120POPC   C1A66963   4.372  16.682   6.281
 5120POPC   D2A66964   4.142  16.508   6.638
 5120POPC   C3A66965   4.150  16.790   6.987
 5120POPC   C4A66966   4.414  16.733   7.353
 5120POPC   C1B66967   4.644  16.235   6.327
 5120POPC   C2B66968   4.537  16.153   6.758
 5120POPC   C3B66969   4.717  16.358   7.118
 5120POPC   C4B66970   4.692  16.340   7.559
 5121POPC   NC366971  36.997  16.760   5.506
 5121POPC   PO466972  36.331  16.811   5.322
 5121POPC   GL166973  36.555  16.804   5.770
 5121POPC   GL266974  36.739  17.111   5.774
 5121POPC   C1A66975  36.863  16.679   6.145
 5121POPC   D2A66976  37.148  16.474   6.460
 5121POPC   C3A66977  36.995  16.354   6.871
 5121POPC   C4A66978  37.034  16.606   7.247
 5121POPC   C1B66979  36.965  17.193   6.185
 5121POPC   C2B66980  36.982  16.967   6.579
 5121POPC   C3B66981  36.822  17.010   6.995
 5121POPC   C4B66982  36.990  17.094   7.420
 5122POPC   NC366983   2.678  21.734   5.518
 5122POPC   PO466984   2.736  22.355   5.463
 5122POPC   GL166985   2.914  22.349   5.883
 5122POPC   GL266986   2.647  22.106   5.948
 5122POPC   C1A66987   2.937  22.235   6.359
 5122POPC   D2A66988   2.705  22.390   6.691
 5122POPC   C3A66989   2.837  22.539   7.085
 5122POPC   C4A66990   2.710  22.411   7.487
 5122POPC   C1B66991   2.513  21.927   6.360
 5122POPC   C2B66992   2.748  21.884   6.735
 5122POPC   C3B66993   2.720  22.041   7.130
 5122POPC   C4B66994   2.900  21.946   7.510
 5123POPC   NC366995  11.546  14.186   5.416
 5123POPC   PO466996  12.194  14.084   5.331
 5123POPC   GL166997  12.066  14.226   5.718
 5123POPC   GL266998  12.355  14.048   5.833
 5123POPC   C1A66999  11.844  14.338   6.116
 5123POPC   D2A67000  12.035  14.237   6.517
 5123POPC   C3A67001  11.905  14.316   6.914
 5123POPC   C4A67002  11.772  14.451   7.319
 5123POPC   C1B67003  12.358  14.368   6.136
 5123POPC   C2B67004  12.527  14.278   6.515
 5123POPC   C3B67005  12.420  14.187   6.917
 5123POPC   C4B67006  12.303  14.406   7.271
 5124POPC   NC367007  38.574  41.206   5.370
 5124POPC   PO467008  38.425  40.567   5.444
 5124POPC   GL167009  38.588  40.655   5.840
 5124POPC   GL267010  38.657  41.032   5.868
 5124POPC   C1A67011  38.533  40.662   6.278
 5124POPC   D2A67012  38.583  41.000   6.534
 5124POPC   C3A67013  38.357  40.879   6.860
 5124POPC   C4A67014  38.555  40.841   7.210
 5124POPC   C1B67015  38.300  41.150   6.136
 5124POPC   C2B67016  38.096  41.230   6.519
 5124POPC   C3B67017  38.044  41.307   6.925
 5124POPC   C4B67018  38.198  41.179   7.300
 5125POPC   NC367019  44.648  41.839   5.486
 5125POPC   PO467020  44.874  41.236   5.489
 5125POPC   GL167021  44.718  41.451   5.810
 5125POPC   GL267022  44.375  41.490   5.774
 5125POPC   C1A67023  44.679  41.420   6.225
 5125POPC   D2A67024  44.969  41.525   6.523
 5125POPC   C3A67025  44.758  41.524   6.872
 5125POPC   C4A67026  44.741  41.538   7.287
 5125POPC   C1B67027  44.402  41.838   6.095
 5125POPC   C2B67028  44.458  41.762   6.534
 5125POPC   C3B67029  44.406  41.895   6.953
 5125POPC   C4B67030  44.196  42.086   7.301
 5126POPC   NC367031  27.165  39.580   5.413
 5126POPC   PO467032  27.819  39.210   5.461
 5126POPC   GL167033  27.620  39.126   5.865
 5126POPC   GL267034  27.228  39.058   5.823
 5126POPC   C1A67035  27.753  39.205   6.305
 5126POPC   D2A67036  27.836  39.179   6.720
 5126POPC   C3A67037  27.879  39.424   7.050
 5126POPC   C4A67038  27.795  39.249   7.435
 5126POPC   C1B67039  27.235  39.268   6.239
 5126POPC   C2B67040  27.325  39.074   6.641
 5126POPC   C3B67041  27.452  39.065   7.072
 5126POPC   C4B67042  27.368  38.857   7.451
 5127POPC   NC367043   4.182  33.075   5.213
 5127POPC   PO467044   4.177  33.816   5.248
 5127POPC   GL167045   4.237  33.979   5.698
 5127POPC   GL267046   4.191  33.695   5.891
 5127POPC   C1A67047   4.379  34.077   6.132
 5127POPC   D2A67048   4.261  33.746   6.450
 5127POPC   C3A67049   4.151  33.669   6.883
 5127POPC   C4A67050   4.104  33.872   7.250
 5127POPC   C1B67051   4.631  33.630   6.105
 5127POPC   C2B67052   4.744  33.527   6.507
 5127POPC   C3B67053   4.661  33.758   6.834
 5127POPC   C4B67054   4.588  33.668   7.258
 5128POPC   NC367055  19.449  33.152   5.050
 5128POPC   PO467056  18.907  33.227   5.317
 5128POPC   GL167057  18.900  33.111   5.742
 5128POPC   GL267058  18.836  32.772   5.886
 5128POPC   C1A67059  18.873  33.296   6.146
 5128POPC   D2A67060  19.011  33.191   6.561
 5128POPC   C3A67061  19.298  33.351   6.857
 5128POPC   C4A67062  19.190  33.235   7.245
 5128POPC   C1B67063  19.239  32.917   6.135
 5128POPC   C2B67064  19.455  32.935   6.561
 5128POPC   C3B67065  19.193  32.840   6.913
 5128POPC   C4B67066  18.932  32.781   7.265
 5129POPC   NC367067  25.365  32.554   5.690
 5129POPC   PO467068  24.859  32.563   5.338
 5129POPC   GL167069  24.895  32.391   5.785
 5129POPC   GL267070  25.169  32.093   5.777
 5129POPC   C1A67071  25.068  32.402   6.221
 5129POPC   D2A67072  25.478  32.245   6.387
 5129POPC   C3A67073  25.530  32.273   6.820
 5129POPC   C4A67074  25.422  32.607   7.135
 5129POPC   C1B67075  25.167  31.893   6.180
 5129POPC   C2B67076  25.029  32.079   6.601
 5129POPC   C3B67077  25.091  32.187   7.050
 5129POPC   C4B67078  25.063  31.972   7.448
 5130POPC   NC367079  33.949   7.816   5.522
 5130POPC   PO467080  33.696   8.413   5.489
 5130POPC   GL167081  33.679   8.179   5.809
 5130POPC   GL267082  33.507   7.899   5.728
 5130POPC   C1A67083  33.756   8.302   6.210
 5130POPC   D2A67084  33.969   8.174   6.552
 5130POPC   C3A67085  33.773   8.348   6.903
 5130POPC   C4A67086  33.883   8.159   7.264
 5130POPC   C1B67087  33.609   7.793   6.158
 5130POPC   C2B67088  33.505   7.972   6.531
 5130POPC   C3B67089  33.564   7.867   6.961
 5130POPC   C4B67090  33.653   7.685   7.348
 5131POPC   NC367091   9.000  38.124   5.471
 5131POPC   PO467092   9.490  38.634   5.448
 5131POPC   GL167093   9.074  38.603   5.751
 5131POPC   GL267094   8.881  38.314   5.921
 5131POPC   C1A67095   8.823  38.762   6.146
 5131POPC   D2A67096   9.045  38.802   6.575
 5131POPC   C3A67097   8.868  38.609   6.930
 5131POPC   C4A67098   9.054  38.345   7.223
 5131POPC   C1B67099   9.208  38.438   6.216
 5131POPC   C2B67100   9.191  38.311   6.629
 5131POPC   C3B67101   9.123  37.981   6.860
 5131POPC   C4B67102   9.264  37.879   7.227
 5132POPC   NC367103   8.827  35.907   5.422
 5132POPC   PO467104   9.367  36.310   5.206
 5132POPC   GL167105   9.122  36.287   5.608
 5132POPC   GL267106   8.764  36.386   5.692
 5132POPC   C1A67107   9.119  36.142   6.060
 5132POPC   D2A67108   9.319  36.213   6.482
 5132POPC   C3A67109   9.108  36.075   6.870
 5132POPC   C4A67110   9.194  36.167   7.311
 5132POPC   C1B67111   8.616  36.230   6.115
 5132POPC   C2B67112   8.590  36.017   6.525
 5132POPC   C3B67113   8.610  36.143   6.949
 5132POPC   C4B67114   8.757  35.902   7.296
 5133POPC   NC367115  31.267  15.386   5.335
 5133POPC   PO467116  31.652  14.855   5.216
 5133POPC   GL167117  31.406  14.949   5.663
 5133POPC   GL267118  31.188  15.265   5.804
 5133POPC   C1A67119  31.495  15.023   6.144
 5133POPC   D2A67120  31.695  15.231   6.540
 5133POPC   C3A67121  31.548  15.088   6.968
 5133POPC   C4A67122  31.702  14.726   7.208
 5133POPC   C1B67123  31.115  15.386   6.215
 5133POPC   C2B67124  31.188  15.177   6.605
 5133POPC   C3B67125  31.110  15.397   6.973
 5133POPC   C4B67126  31.151  15.411   7.399
 5134POPC   NC367127  35.414  12.716   5.478
 5134POPC   PO467128  35.022  13.275   5.407
 5134POPC   GL167129  35.251  13.074   5.838
 5134POPC   GL267130  35.148  12.720   5.936
 5134POPC   C1A67131  35.565  12.861   6.194
 5134POPC   D2A67132  35.542  12.642   6.634
 5134POPC   C3A67133  35.446  12.872   7.028
 5134POPC   C4A67134  35.502  13.095   7.440
 5134POPC   C1B67135  35.096  12.700   6.381
 5134POPC   C2B67136  35.088  12.385   6.714
 5134POPC   C3B67137  35.261  12.399   7.117
 5134POPC   C4B67138  35.182  12.463   7.563
 5135POPC   NC367139  37.826   8.031   5.201
 5135POPC   PO467140  37.929   8.450   5.674
 5135POPC   GL167141  37.630   8.187   5.895
 5135POPC   GL267142  37.345   8.418   5.983
 5135POPC   C1A67143  37.763   7.991   6.315
 5135POPC   D2A67144  37.815   7.789   6.718
 5135POPC   C3A67145  37.686   8.035   7.075
 5135POPC   C4A67146  37.895   8.277   7.364
 5135POPC   C1B67147  37.710   8.509   6.284
 5135POPC   C2B67148  37.755   8.387   6.698
 5135POPC   C3B67149  37.584   8.562   7.067
 5135POPC   C4B67150  37.397   8.386   7.411
 5136POPC   NC367151  21.220  12.710   5.470
 5136POPC   PO467152  21.879  12.793   5.428
 5136POPC   GL167153  21.634  12.918   5.810
 5136POPC   GL267154  21.280  13.079   5.822
 5136POPC   C1A67155  21.467  12.812   6.230
 5136POPC   D2A67156  21.283  12.894   6.621
 5136POPC   C3A67157  21.561  12.851   6.947
 5136POPC   C4A67158  21.599  12.992   7.313
 5136POPC   C1B67159  21.106  13.251   6.215
 5136POPC   C2B67160  21.088  13.374   6.632
 5136POPC   C3B67161  21.316  13.322   6.990
 5136POPC   C4B67162  21.197  13.300   7.418
 5137POPC   NC367163  40.349  38.355   5.376
 5137POPC   PO467164  39.693  38.444   5.201
 5137POPC   GL167165  39.821  38.194   5.613
 5137POPC   GL267166  40.140  38.199   5.834
 5137POPC   C1A67167  39.683  38.197   6.067
 5137POPC   D2A67168  39.915  38.420   6.408
 5137POPC   C3A67169  39.913  38.407   6.853
 5137POPC   C4A67170  40.140  38.604   7.192
 5137POPC   C1B67171  40.389  38.245   6.235
 5137POPC   C2B67172  40.656  38.169   6.596
 5137POPC   C3B67173  40.501  38.287   6.998
 5137POPC   C4B67174  40.150  38.088   7.181
 5138POPC   NC367175   9.562  11.810   5.094
 5138POPC   PO467176   9.547  11.270   5.515
 5138POPC   GL167177   9.892  11.433   5.781
 5138POPC   GL267178   9.618  11.527   6.030
 5138POPC   C1A67179  10.081  11.444   6.214
 5138POPC   D2A67180   9.739  11.549   6.530
 5138POPC   C3A67181   9.753  11.315   6.919
 5138POPC   C4A67182   9.938  11.258   7.322
 5138POPC   C1B67183   9.270  11.248   6.198
 5138POPC   C2B67184   9.204  11.315   6.654
 5138POPC   C3B67185   9.282  11.419   7.088
 5138POPC   C4B67186   9.413  11.079   7.326
 5139POPC   NC367187  32.316  38.307   5.299
 5139POPC   PO467188  31.994  38.814   5.520
 5139POPC   GL167189  32.123  38.434   5.777
 5139POPC   GL267190  32.344  38.100   5.843
 5139POPC   C1A67191  32.309  38.482   6.188
 5139POPC   D2A67192  32.395  38.744   6.535
 5139POPC   C3A67193  32.354  38.428   6.844
 5139POPC   C4A67194  32.254  38.381   7.218
 5139POPC   C1B67195  32.570  38.017   6.239
 5139POPC   C2B67196  32.666  38.034   6.698
 5139POPC   C3B67197  32.660  38.063   7.157
 5139POPC   C4B67198  32.353  37.992   7.516
 5140POPC   NC367199   4.939  40.288   5.467
 5140POPC   PO467200   5.369  39.895   5.495
 5140POPC   GL167201   5.111  39.880   5.880
 5140POPC   GL267202   4.855  39.614   5.908
 5140POPC   C1A67203   5.080  40.085   6.313
 5140POPC   D2A67204   4.755  40.173   6.628
 5140POPC   C3A67205   4.834  40.328   7.041
 5140POPC   C4A67206   5.243  40.181   7.046
 5140POPC   C1B67207   4.877  39.616   6.381
 5140POPC   C2B67208   5.086  39.765   6.754
 5140POPC   C3B67209   5.158  39.713   7.193
 5140POPC   C4B67210   5.196  39.576   7.627
 5141POPC   NC367211  18.275  13.324   5.433
 5141POPC   PO467212  18.586  13.860   5.514
 5141POPC   GL167213  18.182  13.717   5.795
 5141POPC   GL267214  18.033  13.382   5.871
 5141POPC   C1A67215  17.918  13.765   6.186
 5141POPC   D2A67216  18.181  13.796   6.524
 5141POPC   C3A67217  18.064  13.630   6.881
 5141POPC   C4A67218  18.270  13.827   7.172
 5141POPC   C1B67219  18.465  13.350   6.066
 5141POPC   C2B67220  18.685  13.294   6.457
 5141POPC   C3B67221  18.515  13.366   6.846
 5141POPC   C4B67222  18.316  13.335   7.229
 5142POPC   NC367223  11.521   3.164   5.469
 5142POPC   PO467224  11.682   2.543   5.451
 5142POPC   GL167225  11.483   2.687   5.843
 5142POPC   GL267226  11.404   3.008   5.941
 5142POPC   C1A67227  11.317   2.570   6.247
 5142POPC   D2A67228  11.405   2.334   6.630
 5142POPC   C3A67229  11.205   2.553   6.977
 5142POPC   C4A67230  11.361   2.898   7.249
 5142POPC   C1B67231  11.072   3.027   6.252
 5142POPC   C2B67232  11.046   2.881   6.648
 5142POPC   C3B67233  10.895   3.021   7.048
 5142POPC   C4B67234  10.982   3.451   7.230
 5143POPC   NC367235   6.565  17.989   5.197
 5143POPC   PO467236   6.953  18.392   5.468
 5143POPC   GL167237   6.785  18.136   5.812
 5143POPC   GL267238   6.591  18.390   6.017
 5143POPC   C1A67239   6.631  17.901   6.187
 5143POPC   D2A67240   6.540  18.130   6.584
 5143POPC   C3A67241   6.774  18.069   6.983
 5143POPC   C4A67242   6.979  18.369   7.290
 5143POPC   C1B67243   6.291  18.694   6.241
 5143POPC   C2B67244   6.190  18.584   6.716
 5143POPC   C3B67245   6.342  18.354   7.040
 5143POPC   C4B67246   6.450  18.551   7.418
 5144POPC   NC367247  28.219  42.633   5.620
 5144POPC   PO467248  28.737  42.279   5.395
 5144POPC   GL167249  28.447  42.181   5.773
 5144POPC   GL267250  28.608  42.379   6.034
 5144POPC   C1A67251  28.192  42.099   6.159
 5144POPC   D2A67252  28.458  42.108   6.532
 5144POPC   C3A67253  28.266  42.044   6.907
 5144POPC   C4A67254  28.147  42.258   7.239
 5144POPC   C1B67255  28.333  42.580   6.353
 5144POPC   C2B67256  28.356  42.620   6.823
 5144POPC   C3B67257  28.497  42.618   7.271
 5144POPC   C4B67258  28.625  42.744   7.687
 5145POPC   NC367259   9.422  34.348   5.511
 5145POPC   PO467260   9.754  34.887   5.200
 5145POPC   GL167261   9.663  34.777   5.700
 5145POPC   GL267262  10.007  34.762   5.861
 5145POPC   C1A67263   9.641  34.533   6.146
 5145POPC   D2A67264   9.369  34.565   6.495
 5145POPC   C3A67265   9.573  34.518   6.854
 5145POPC   C4A67266   9.560  34.321   7.194
 5145POPC   C1B67267  10.120  34.627   6.235
 5145POPC   C2B67268  10.029  34.433   6.624
 5145POPC   C3B67269  10.063  34.607   7.055
 5145POPC   C4B67270   9.940  34.470   7.493
 5146POPC   NC367271  32.522  35.239   5.424
 5146POPC   PO467272  31.921  35.487   5.321
 5146POPC   GL167273  32.194  35.418   5.776
 5146POPC   GL267274  32.480  35.176   5.902
 5146POPC   C1A67275  32.372  35.528   6.222
 5146POPC   D2A67276  32.399  35.290   6.613
 5146POPC   C3A67277  32.482  35.531   7.003
 5146POPC   C4A67278  32.116  35.588   7.264
 5146POPC   C1B67279  32.743  35.114   6.246
 5146POPC   C2B67280  32.696  34.786   6.548
 5146POPC   C3B67281  32.650  34.976   6.942
 5146POPC   C4B67282  32.365  35.111   7.291
 5147POPC   NC367283   7.182  17.980   5.507
 5147POPC   PO467284   7.578  17.364   5.428
 5147POPC   GL167285   7.549  17.630   5.743
 5147POPC   GL267286   7.226  17.541   5.793
 5147POPC   C1A67287   7.661  17.535   6.160
 5147POPC   D2A67288   7.453  17.589   6.532
 5147POPC   C3A67289   7.671  17.696   6.880
 5147POPC   C4A67290   7.682  17.612   7.291
 5147POPC   C1B67291   7.145  17.778   6.153
 5147POPC   C2B67292   6.973  17.791   6.569
 5147POPC   C3B67293   7.168  17.736   6.948
 5147POPC   C4B67294   7.162  17.653   7.369
 5148POPC   NC367295   8.452   4.788   5.469
 5148POPC   PO467296   7.994   5.228   5.440
 5148POPC   GL167297   7.794   5.029   5.805
 5148POPC   GL267298   8.165   5.012   5.901
 5148POPC   C1A67299   7.815   4.789   6.187
 5148POPC   D2A67300   8.117   4.885   6.472
 5148POPC   C3A67301   7.979   4.970   6.853
 5148POPC   C4A67302   7.884   5.161   7.234
 5148POPC   C1B67303   8.409   5.250   6.203
 5148POPC   C2B67304   8.366   5.312   6.658
 5148POPC   C3B67305   8.388   5.193   7.104
 5148POPC   C4B67306   8.680   5.265   7.466
 5149POPC   NC367307  30.208  44.037   5.357
 5149POPC   PO467308  29.725  43.672   5.530
 5149POPC   GL167309  30.010  43.890   5.845
 5149POPC   GL267310  30.203  44.206   5.835
 5149POPC   C1A67311  30.216  43.830   6.280
 5149POPC   D2A67312  30.127  43.787   6.760
 5149POPC   C3A67313  29.739  44.018   6.928
 5149POPC   C4A67314  29.563  44.021   7.361
 5149POPC   C1B67315  30.116  44.334   6.244
 5149POPC   C2B67316  30.317  44.382   6.648
 5149POPC   C3B67317  30.388  44.159   7.011
 5149POPC   C4B67318  30.083  44.017   7.293
 5150POPC   NC367319  34.957   7.652   5.677
 5150POPC   PO467320  34.354   7.651   5.358
 5150POPC   GL167321  34.458   7.295   5.705
 5150POPC   GL267322  34.700   7.343   5.965
 5150POPC   C1A67323  34.313   7.178   6.203
 5150POPC   D2A67324  34.232   7.282   6.660
 5150POPC   C3A67325  34.348   7.250   7.121
 5150POPC   C4A67326  34.148   6.986   7.448
 5150POPC   C1B67327  34.819   7.399   6.361
 5150POPC   C2B67328  34.701   7.445   6.784
 5150POPC   C3B67329  34.915   7.459   7.157
 5150POPC   C4B67330  34.746   7.624   7.516
 5151POPC   NC367331  19.026  32.747   5.390
 5151POPC   PO467332  19.270  32.074   5.262
 5151POPC   GL167333  19.148  32.286   5.640
 5151POPC   GL267334  18.988  32.030   5.822
 5151POPC   C1A67335  19.144  32.410   6.093
 5151POPC   D2A67336  19.169  32.518   6.507
 5151POPC   C3A67337  18.976  32.354   6.872
 5151POPC   C4A67338  18.957  32.289   7.306
 5151POPC   C1B67339  19.016  31.839   6.263
 5151POPC   C2B67340  18.823  31.867   6.719
 5151POPC   C3B67341  18.620  31.964   7.164
 5151POPC   C4B67342  18.739  31.988   7.664
 5152POPC   NC367343  25.067  43.138   5.380
 5152POPC   PO467344  25.752  43.261   5.396
 5152POPC   GL167345  25.531  42.988   5.734
 5152POPC   GL267346  25.167  43.107   5.877
 5152POPC   C1A67347  25.432  42.802   6.169
 5152POPC   D2A67348  25.193  43.017   6.475
 5152POPC   C3A67349  25.348  43.143   6.859
 5152POPC   C4A67350  25.290  42.962   7.245
 5152POPC   C1B67351  24.894  43.340   6.193
 5152POPC   C2B67352  24.805  43.318   6.658
 5152POPC   C3B67353  24.806  43.111   7.097
 5152POPC   C4B67354  24.933  43.096   7.569
 5153POPC   NC367355   4.945  25.208   5.248
 5153POPC   PO467356   5.406  25.628   5.410
 5153POPC   GL167357   5.172  25.388   5.710
 5153POPC   GL267358   5.069  25.038   5.826
 5153POPC   C1A67359   5.227  25.371   6.162
 5153POPC   D2A67360   5.040  25.379   6.589
 5153POPC   C3A67361   5.250  25.436   6.977
 5153POPC   C4A67362   5.251  25.388   7.433
 5153POPC   C1B67363   5.220  24.885   6.287
 5153POPC   C2B67364   5.200  24.925   6.757
 5153POPC   C3B67365   5.292  24.928   7.192
 5153POPC   C4B67366   5.028  24.885   7.555
 5154POPC   NC367367  29.212  30.335   5.422
 5154POPC   PO467368  29.369  30.973   5.474
 5154POPC   GL167369  29.124  30.893   5.829
 5154POPC   GL267370  28.984  30.562   5.808
 5154POPC   C1A67371  29.281  31.016   6.224
 5154POPC   D2A67372  29.365  31.096   6.640
 5154POPC   C3A67373  29.611  30.837   6.920
 5154POPC   C4A67374  29.424  30.664   7.298
 5154POPC   C1B67375  29.185  30.521   6.221
 5154POPC   C2B67376  29.223  30.571   6.682
 5154POPC   C3B67377  29.001  30.475   7.077
 5154POPC   C4B67378  28.892  30.174   7.411
 5155POPC   NC367379   1.969  15.261   5.539
 5155POPC   PO467380   2.403  14.774   5.858
 5155POPC   GL167381   2.241  15.146   5.998
 5155POPC   GL267382   2.221  15.486   5.937
 5155POPC   C1A67383   2.215  15.259   6.440
 5155POPC   D2A67384   2.189  14.965   6.764
 5155POPC   C3A67385   2.164  15.030   7.158
 5155POPC   C4A67386   1.861  14.823   7.365
 5155POPC   C1B67387   1.803  15.354   6.166
 5155POPC   C2B67388   1.729  15.190   6.579
 5155POPC   C3B67389   1.818  15.340   6.980
 5155POPC   C4B67390   1.578  15.542   7.269
 5156POPC   NC367391   1.471  20.942   5.671
 5156POPC   PO467392   0.972  20.568   5.450
 5156POPC   GL167393   1.101  20.634   5.862
 5156POPC   GL267394   1.429  20.444   5.856
 5156POPC   C1A67395   1.233  20.766   6.280
 5156POPC   D2A67396   0.972  20.756   6.630
 5156POPC   C3A67397   1.148  20.869   7.001
 5156POPC   C4A67398   1.334  20.696   7.292
 5156POPC   C1B67399   1.213  20.258   6.226
 5156POPC   C2B67400   1.237  20.144   6.672
 5156POPC   C3B67401   1.082  20.362   6.995
 5156POPC   C4B67402   0.971  20.364   7.422
 5157POPC   NC367403  41.461   6.961   4.885
 5157POPC   PO467404  41.818   6.666   5.404
 5157POPC   GL167405  41.727   6.521   5.824
 5157POPC   GL267406  41.334   6.536   5.856
 5157POPC   C1A67407  41.656   6.663   6.254
 5157POPC   D2A67408  41.456   6.971   6.563
 5157POPC   C3A67409  41.690   7.092   6.927
 5157POPC   C4A67410  41.679   6.829   7.286
 5157POPC   C1B67411  41.160   6.733   6.214
 5157POPC   C2B67412  41.145   6.509   6.560
 5157POPC   C3B67413  41.445   6.474   6.831
 5157POPC   C4B67414  41.358   6.430   7.218
 5158POPC   NC367415  13.303  16.937   5.515
 5158POPC   PO467416  13.922  16.902   5.264
 5158POPC   GL167417  13.711  16.642   5.664
 5158POPC   GL267418  14.039  16.724   5.761
 5158POPC   C1A67419  13.399  16.641   6.114
 5158POPC   D2A67420  13.248  16.757   6.566
 5158POPC   C3A67421  13.494  16.599   6.923
 5158POPC   C4A67422  13.498  16.697   7.348
 5158POPC   C1B67423  13.880  16.773   6.149
 5158POPC   C2B67424  13.751  16.863   6.545
 5158POPC   C3B67425  13.948  16.822   6.923
 5158POPC   C4B67426  13.913  16.975   7.301
 5159POPC   NC367427   6.567  43.969   5.040
 5159POPC   PO467428   6.761  44.152   5.639
 5159POPC   GL167429   6.685  43.801   5.908
 5159POPC   GL267430   6.367  43.947   5.894
 5159POPC   C1A67431   6.714  43.737   6.349
 5159POPC   D2A67432   6.738  44.020   6.678
 5159POPC   C3A67433   6.561  43.821   7.000
 5159POPC   C4A67434   6.729  43.578   7.278
 5159POPC   C1B67435   6.415  44.161   6.277
 5159POPC   C2B67436   6.230  44.105   6.685
 5159POPC   C3B67437   6.261  44.216   7.120
 5159POPC   C4B67438   6.683  44.201   7.313
 5160POPC   NC367439  40.068   6.081   5.392
 5160POPC   PO467440  39.653   5.685   5.557
 5160POPC   GL167441  39.852   5.922   5.849
 5160POPC   GL267442  40.102   5.708   5.861
 5160POPC   C1A67443  40.130   6.053   6.234
 5160POPC   D2A67444  40.198   6.257   6.648
 5160POPC   C3A67445  40.056   6.032   7.020
 5160POPC   C4A67446  40.086   5.925   7.467
 5160POPC   C1B67447  39.771   5.686   6.272
 5160POPC   C2B67448  39.752   5.731   6.725
 5160POPC   C3B67449  39.870   5.573   7.140
 5160POPC   C4B67450  39.902   5.467   7.600
 5161POPC   NC367451   3.371  10.861   5.462
 5161POPC   PO467452   3.240  11.496   5.513
 5161POPC   GL167453   3.551  11.269   5.837
 5161POPC   GL267454   3.825  11.006   5.736
 5161POPC   C1A67455   3.498  11.145   6.314
 5161POPC   D2A67456   3.165  11.276   6.648
 5161POPC   C3A67457   3.096  11.143   7.098
 5161POPC   C4A67458   2.940  11.314   7.503
 5161POPC   C1B67459   3.996  11.209   6.137
 5161POPC   C2B67460   3.942  11.135   6.587
 5161POPC   C3B67461   3.586  11.061   6.836
 5161POPC   C4B67462   3.581  11.274   7.216
 5162POPC   NC367463  42.646  34.748   5.388
 5162POPC   PO467464  42.189  34.316   5.404
 5162POPC   GL167465  42.121  34.373   5.800
 5162POPC   GL267466  42.276  34.693   5.826
 5162POPC   C1A67467  42.300  34.348   6.198
 5162POPC   D2A67468  42.344  34.564   6.580
 5162POPC   C3A67469  42.343  34.327   6.962
 5162POPC   C4A67470  42.234  34.510   7.354
 5162POPC   C1B67471  42.630  34.771   6.080
 5162POPC   C2B67472  42.830  34.761   6.488
 5162POPC   C3B67473  42.847  34.726   6.938
 5162POPC   C4B67474  42.713  34.671   7.359
 5163POPC   NC367475  27.537  43.872   5.107
 5163POPC   PO467476  28.039  44.150   5.374
 5163POPC   GL167477  27.771  43.951   5.709
 5163POPC   GL267478  27.903  43.597   5.763
 5163POPC   C1A67479  27.709  43.976   6.186
 5163POPC   D2A67480  27.526  44.220   6.544
 5163POPC   C3A67481  27.454  44.054   6.941
 5163POPC   C4A67482  27.775  43.869   7.121
 5163POPC   C1B67483  27.805  43.478   6.204
 5163POPC   C2B67484  27.661  43.652   6.643
 5163POPC   C3B67485  27.722  43.388   7.054
 5163POPC   C4B67486  27.443  43.555   7.399
 5164POPC   NC367487  17.207  30.709   5.422
 5164POPC   PO467488  17.696  30.343   5.524
 5164POPC   GL167489  17.578  30.641   5.850
 5164POPC   GL267490  17.779  30.970   5.799
 5164POPC   C1A67491  17.336  30.539   6.231
 5164POPC   D2A67492  17.252  30.312   6.647
 5164POPC   C3A67493  17.173  30.574   7.026
 5164POPC   C4A67494  17.263  30.985   7.225
 5164POPC   C1B67495  17.753  30.938   6.265
 5164POPC   C2B67496  17.802  30.904   6.723
 5164POPC   C3B67497  17.713  30.788   7.152
 5164POPC   C4B67498  17.519  30.349   7.313
 5165POPC   NC367499  27.311  25.983   5.457
 5165POPC   PO467500  28.006  26.275   5.425
 5165POPC   GL167501  27.690  26.203   5.760
 5165POPC   GL267502  27.714  25.830   5.758
 5165POPC   C1A67503  27.494  26.325   6.169
 5165POPC   D2A67504  27.279  26.444   6.565
 5165POPC   C3A67505  27.502  26.303   6.928
 5165POPC   C4A67506  27.776  26.003   7.141
 5165POPC   C1B67507  27.441  25.830   6.107
 5165POPC   C2B67508  27.493  25.940   6.540
 5165POPC   C3B67509  27.343  25.809   6.928
 5165POPC   C4B67510  27.162  25.460   7.138
 5166POPC   NC367511  11.960   3.779   5.395
 5166POPC   PO467512  11.306   3.549   5.341
 5166POPC   GL167513  11.216   3.455   5.770
 5166POPC   GL267514  10.945   3.665   5.809
 5166POPC   C1A67515  11.287   3.472   6.223
 5166POPC   D2A67516  10.995   3.392   6.611
 5166POPC   C3A67517  11.319   3.264   6.894
 5166POPC   C4A67518  11.526   3.419   7.264
 5166POPC   C1B67519  10.895   3.772   6.250
 5166POPC   C2B67520  11.077   3.894   6.652
 5166POPC   C3B67521  11.048   3.938   7.104
 5166POPC   C4B67522  11.241   3.810   7.506
 5167POPC   NC367523  31.975  39.972   5.485
 5167POPC   PO467524  32.576  40.385   5.589
 5167POPC   GL167525  32.229  40.213   5.856
 5167POPC   GL267526  32.127  39.845   5.954
 5167POPC   C1A67527  32.159  40.240   6.290
 5167POPC   D2A67528  32.155  39.930   6.641
 5167POPC   C3A67529  32.135  40.178   7.028
 5167POPC   C4A67530  32.436  40.445   7.185
 5167POPC   C1B67531  32.509  39.870   6.204
 5167POPC   C2B67532  32.667  39.758   6.597
 5167POPC   C3B67533  32.525  39.845   6.995
 5167POPC   C4B67534  32.196  39.726   7.296
 5168POPC   NC367535   7.588  32.602   5.384
 5168POPC   PO467536   7.292  33.136   5.358
 5168POPC   GL167537   7.418  32.950   5.756
 5168POPC   GL267538   7.200  32.692   5.850
 5168POPC   C1A67539   7.289  33.073   6.180
 5168POPC   D2A67540   7.160  32.885   6.567
 5168POPC   C3A67541   7.314  33.114   6.932
 5168POPC   C4A67542   7.111  33.149   7.340
 5168POPC   C1B67543   7.473  32.587   6.227
 5168POPC   C2B67544   7.453  32.432   6.665
 5168POPC   C3B67545   7.211  32.620   7.014
 5168POPC   C4B67546   7.393  32.738   7.431
 5169POPC   NC367547  15.716   9.152   5.454
 5169POPC   PO467548  16.177   8.676   5.437
 5169POPC   GL167549  16.072   8.919   5.768
 5169POPC   GL267550  15.786   8.760   5.845
 5169POPC   C1A67551  16.164   8.831   6.218
 5169POPC   D2A67552  16.048   9.049   6.600
 5169POPC   C3A67553  16.050   8.861   7.009
 5169POPC   C4A67554  16.312   8.893   7.361
 5169POPC   C1B67555  15.772   9.158   6.124
 5169POPC   C2B67556  15.646   9.365   6.531
 5169POPC   C3B67557  15.631   9.187   6.935
 5169POPC   C4B67558  15.704   9.089   7.339
 5170POPC   NC367559  26.903   8.365   5.276
 5170POPC   PO467560  26.317   8.512   5.579
 5170POPC   GL167561  26.743   8.409   5.847
 5170POPC   GL267562  27.082   8.479   5.749
 5170POPC   C1A67563  26.875   8.114   6.212
 5170POPC   D2A67564  26.859   7.924   6.636
 5170POPC   C3A67565  26.744   8.152   6.975
 5170POPC   C4A67566  26.950   8.114   7.360
 5170POPC   C1B67567  27.145   8.562   6.219
 5170POPC   C2B67568  26.950   8.526   6.668
 5170POPC   C3B67569  26.980   8.598   7.169
 5170POPC   C4B67570  27.215   8.467   7.597
 5171POPC   NC367571  36.397  25.284   5.405
 5171POPC   PO467572  35.981  24.801   5.494
 5171POPC   GL167573  36.143  25.132   5.815
 5171POPC   GL267574  35.946  25.409   5.933
 5171POPC   C1A67575  36.466  25.320   6.092
 5171POPC   D2A67576  36.658  25.374   6.501
 5171POPC   C3A67577  36.409  25.473   6.873
 5171POPC   C4A67578  36.271  25.176   7.197
 5171POPC   C1B67579  35.998  25.259   6.330
 5171POPC   C2B67580  35.931  25.469   6.695
 5171POPC   C3B67581  35.842  25.444   7.118
 5171POPC   C4B67582  35.835  25.326   7.537
 5172POPC   NC367583  12.750  34.673   5.334
 5172POPC   PO467584  13.383  34.685   5.534
 5172POPC   GL167585  13.022  34.630   5.800
 5172POPC   GL267586  12.677  34.768   5.839
 5172POPC   C1A67587  12.987  34.489   6.226
 5172POPC   D2A67588  13.084  34.683   6.592
 5172POPC   C3A67589  12.963  34.537   6.979
 5172POPC   C4A67590  12.903  34.912   7.220
 5172POPC   C1B67591  12.482  34.467   6.152
 5172POPC   C2B67592  12.576  34.404   6.592
 5172POPC   C3B67593  12.461  34.628   6.968
 5172POPC   C4B67594  12.533  34.283   7.228
 5173POPC   NC367595   8.925   1.656   5.421
 5173POPC   PO467596   8.705   1.031   5.379
 5173POPC   GL167597   8.948   1.141   5.736
 5173POPC   GL267598   8.740   1.409   5.831
 5173POPC   C1A67599   8.993   1.055   6.198
 5173POPC   D2A67600   9.104   1.181   6.627
 5173POPC   C3A67601   8.943   0.962   6.990
 5173POPC   C4A67602   8.711   1.228   7.243
 5173POPC   C1B67603   8.800   1.779   6.093
 5173POPC   C2B67604   8.671   1.766   6.509
 5173POPC   C3B67605   8.769   1.632   6.924
 5173POPC   C4B67606   8.533   1.695   7.305
 5174POPC   NC367607  28.417  26.030   5.417
 5174POPC   PO467608  28.874  26.488   5.594
 5174POPC   GL167609  28.538  26.220   5.900
 5174POPC   GL267610  28.178  26.055   5.878
 5174POPC   C1A67611  28.337  26.130   6.351
 5174POPC   D2A67612  27.979  26.189   6.684
 5174POPC   C3A67613  28.198  26.289   7.096
 5174POPC   C4A67614  28.635  26.105   7.173
 5174POPC   C1B67615  27.925  25.839   6.245
 5174POPC   C2B67616  27.909  25.672   6.694
 5174POPC   C3B67617  28.254  25.782   6.991
 5174POPC   C4B67618  28.231  25.894   7.436
 5175POPC   NC367619  34.165  32.531   5.677
 5175POPC   PO467620  33.468  32.341   5.495
 5175POPC   GL167621  33.661  32.247   5.891
 5175POPC   GL267622  33.964  32.138   5.928
 5175POPC   C1A67623  33.578  31.996   6.247
 5175POPC   D2A67624  33.782  31.985   6.616
 5175POPC   C3A67625  33.631  32.084   7.004
 5175POPC   C4A67626  33.947  32.180   7.314
 5175POPC   C1B67627  33.925  32.397   6.310
 5175POPC   C2B67628  34.095  32.386   6.728
 5175POPC   C3B67629  34.217  32.560   7.104
 5175POPC   C4B67630  34.031  32.635   7.517
 5176POPC   NC367631  11.729  36.995   5.480
 5176POPC   PO467632  12.346  36.818   5.538
 5176POPC   GL167633  12.067  36.900   5.839
 5176POPC   GL267634  12.259  37.138   5.972
 5176POPC   C1A67635  11.871  36.792   6.231
 5176POPC   D2A67636  11.606  36.924   6.554
 5176POPC   C3A67637  11.758  36.856   6.964
 5176POPC   C4A67638  12.021  36.887   7.313
 5176POPC   C1B67639  12.394  36.749   6.188
 5176POPC   C2B67640  12.232  36.519   6.485
 5176POPC   C3B67641  12.187  36.610   6.873
 5176POPC   C4B67642  12.199  36.419   7.237
 5177POPC   NC367643  31.576   7.992   5.409
 5177POPC   PO467644  31.264   7.449   5.484
 5177POPC   GL167645  31.384   7.537   5.860
 5177POPC   GL267646  31.758   7.646   5.812
 5177POPC   C1A67647  31.221   7.361   6.284
 5177POPC   D2A67648  31.164   7.406   6.725
 5177POPC   C3A67649  31.387   7.344   7.084
 5177POPC   C4A67650  31.331   7.347   7.525
 5177POPC   C1B67651  31.717   7.393   6.206
 5177POPC   C2B67652  31.692   7.480   6.650
 5177POPC   C3B67653  31.870   7.231   7.004
 5177POPC   C4B67654  31.849   7.332   7.464
 5178POPC   NC367655   6.280  44.452   5.618
 5178POPC   PO467656   6.682  44.459   5.121
 5178POPC   GL167657   6.747  44.646   5.654
 5178POPC   GL267658   7.015  44.858   5.761
 5178POPC   C1A67659   6.632  44.719   6.111
 5178POPC   D2A67660   6.759  44.503   6.473
 5178POPC   C3A67661   6.607  44.500   6.880
 5178POPC   C4A67662   6.480  44.724   7.242
 5178POPC   C1B67663   6.992   0.108   6.151
 5178POPC   C2B67664   6.804   0.100   6.550
 5178POPC   C3B67665   6.852  44.954   6.939
 5178POPC   C4B67666   7.119   0.088   7.340
 5179POPC   NC367667  41.654  24.400   5.359
 5179POPC   PO467668  41.116  24.334   5.689
 5179POPC   GL167669  41.501  24.496   5.855
 5179POPC   GL267670  41.812  24.305   5.826
 5179POPC   C1A67671  41.544  24.725   6.239
 5179POPC   D2A67672  41.369  24.809   6.633
 5179POPC   C3A67673  41.618  24.688   7.004
 5179POPC   C4A67674  41.500  24.631   7.463
 5179POPC   C1B67675  41.995  24.505   6.190
 5179POPC   C2B67676  41.980  24.726   6.576
 5179POPC   C3B67677  42.045  24.447   6.887
 5179POPC   C4B67678  41.902  24.340   7.261
 5180POPC   NC367679  11.831  23.395   5.427
 5180POPC   PO467680  12.084  24.026   5.457
 5180POPC   GL167681  11.908  23.865   5.827
 5180POPC   GL267682  12.113  23.631   5.847
 5180POPC   C1A67683  11.973  23.884   6.293
 5180POPC   D2A67684  12.311  23.899   6.582
 5180POPC   C3A67685  12.220  24.057   6.976
 5180POPC   C4A67686  11.868  23.902   7.170
 5180POPC   C1B67687  11.977  23.394   6.193
 5180POPC   C2B67688  11.854  23.303   6.619
 5180POPC   C3B67689  11.938  23.392   7.060
 5180POPC   C4B67690  12.233  23.408   7.387
 5181POPC   NC367691  25.990  42.785   5.464
 5181POPC   PO467692  26.345  42.185   5.326
 5181POPC   GL167693  26.089  42.319   5.681
 5181POPC   GL267694  25.792  42.147   5.830
 5181POPC   C1A67695  26.145  42.500   6.083
 5181POPC   D2A67696  26.382  42.384   6.430
 5181POPC   C3A67697  26.131  42.360   6.812
 5181POPC   C4A67698  26.109  42.442   7.266
 5181POPC   C1B67699  25.803  42.148   6.324
 5181POPC   C2B67700  25.629  42.250   6.762
 5181POPC   C3B67701  25.707  42.149   7.207
 5181POPC   C4B67702  25.765  41.981   7.614
 5182POPC   NC367703  29.923  31.058   5.492
 5182POPC   PO467704  29.624  30.521   5.471
 5182POPC   GL167705  29.569  30.644   5.892
 5182POPC   GL267706  29.899  30.758   5.916
 5182POPC   C1A67707  29.651  30.680   6.370
 5182POPC   D2A67708  30.057  30.667   6.567
 5182POPC   C3A67709  30.105  30.462   6.973
 5182POPC   C4A67710  29.916  30.535   7.346
 5182POPC   C1B67711  29.932  31.090   6.247
 5182POPC   C2B67712  30.157  31.162   6.641
 5182POPC   C3B67713  30.093  30.966   7.060
 5182POPC   C4B67714  30.145  30.962   7.535
 5183POPC   NC367715  43.284   2.246   5.095
 5183POPC   PO467716  42.889   1.825   5.484
 5183POPC   GL167717  43.122   1.922   5.801
 5183POPC   GL267718  43.422   1.718   5.814
 5183POPC   C1A67719  43.085   1.850   6.214
 5183POPC   D2A67720  43.074   2.104   6.550
 5183POPC   C3A67721  43.064   1.935   6.909
 5183POPC   C4A67722  42.947   2.113   7.255
 5183POPC   C1B67723  43.436   1.467   6.225
 5183POPC   C2B67724  43.338   1.535   6.687
 5183POPC   C3B67725  43.497   1.481   7.094
 5183POPC   C4B67726  43.322   1.794   7.347
 5184POPC   NC367727  15.336   3.966   5.535
 5184POPC   PO467728  14.972   4.556   5.485
 5184POPC   GL167729  15.150   4.587   5.903
 5184POPC   GL267730  15.444   4.401   5.862
 5184POPC   C1A67731  15.183   4.382   6.331
 5184POPC   D2A67732  15.219   3.994   6.612
 5184POPC   C3A67733  14.974   4.008   7.007
 5184POPC   C4A67734  14.936   4.408   7.202
 5184POPC   C1B67735  15.647   4.197   6.207
 5184POPC   C2B67736  15.622   4.327   6.646
 5184POPC   C3B67737  15.436   4.264   7.052
 5184POPC   C4B67738  15.541   4.121   7.471
 5185POPC   NC367739  19.869  39.404   5.118
 5185POPC   PO467740  19.317  39.158   5.520
 5185POPC   GL167741  19.512  39.140   5.917
 5185POPC   GL267742  19.856  39.271   5.864
 5185POPC   C1A67743  19.664  39.324   6.325
 5185POPC   D2A67744  19.950  39.140   6.596
 5185POPC   C3A67745  19.780  38.947   6.965
 5185POPC   C4A67746  19.973  38.853   7.350
 5185POPC   C1B67747  20.128  39.539   6.174
 5185POPC   C2B67748  20.119  39.637   6.609
 5185POPC   C3B67749  19.978  39.428   7.011
 5185POPC   C4B67750  19.670  39.290   7.356
 5186POPC   NC367751  11.582   0.675   5.452
 5186POPC   PO467752  11.042   0.291   5.223
 5186POPC   GL167753  11.078   0.325   5.727
 5186POPC   GL267754  11.427   0.452   5.887
 5186POPC   C1A67755  10.983   0.491   6.177
 5186POPC   D2A67756  11.149   0.725   6.540
 5186POPC   C3A67757  11.005   0.588   6.951
 5186POPC   C4A67758  11.153   0.187   7.190
 5186POPC   C1B67759  11.417   0.223   6.285
 5186POPC   C2B67760  11.329   0.267   6.722
 5186POPC   C3B67761  11.490   0.555   7.115
 5186POPC   C4B67762  11.519   0.350   7.528
 5187POPC   NC367763  17.227  36.526   5.471
 5187POPC   PO467764  17.761  36.942   5.383
 5187POPC   GL167765  17.535  36.860   5.757
 5187POPC   GL267766  17.729  36.595   5.796
 5187POPC   C1A67767  17.354  37.081   6.130
 5187POPC   D2A67768  17.529  37.246   6.480
 5187POPC   C3A67769  17.403  36.956   6.770
 5187POPC   C4A67770  17.369  37.017   7.170
 5187POPC   C1B67771  17.788  36.827   6.211
 5187POPC   C2B67772  17.781  36.606   6.624
 5187POPC   C3B67773  17.796  36.745   7.050
 5187POPC   C4B67774  17.873  37.126   7.218
 5188POPC   NC367775  36.610   9.153   5.675
 5188POPC   PO467776  36.020   8.862   5.521
 5188POPC   GL167777  35.940   9.045   5.925
 5188POPC   GL267778  36.228   9.176   5.997
 5188POPC   C1A67779  35.955   9.038   6.417
 5188POPC   D2A67780  36.054   8.715   6.750
 5188POPC   C3A67781  36.003   8.829   7.167
 5188POPC   C4A67782  35.938   9.238   7.352
 5188POPC   C1B67783  36.456   8.907   6.265
 5188POPC   C2B67784  36.485   8.968   6.665
 5188POPC   C3B67785  36.372   9.144   7.021
 5188POPC   C4B67786  36.461   8.974   7.390
 5189POPC   NC367787  18.350   8.983   5.433
 5189POPC   PO467788  18.208   9.595   5.482
 5189POPC   GL167789  18.149   9.247   5.810
 5189POPC   GL267790  18.497   9.115   5.888
 5189POPC   C1A67791  18.076   8.900   6.132
 5189POPC   D2A67792  17.928   8.842   6.572
 5189POPC   C3A67793  18.201   8.902   6.934
 5189POPC   C4A67794  18.206   8.768   7.326
 5189POPC   C1B67795  18.599   8.792   6.160
 5189POPC   C2B67796  18.478   8.722   6.566
 5189POPC   C3B67797  18.664   8.694   6.976
 5189POPC   C4B67798  18.645   9.038   7.216
 5190POPC   NC367799  22.763  31.465   5.137
 5190POPC   PO467800  23.345  31.591   5.371
 5190POPC   GL167801  23.008  31.488   5.682
 5190POPC   GL267802  23.074  31.185   5.832
 5190POPC   C1A67803  22.839  31.637   6.099
 5190POPC   D2A67804  23.082  31.804   6.456
 5190POPC   C3A67805  22.916  31.823   6.849
 5190POPC   C4A67806  23.060  31.769   7.281
 5190POPC   C1B67807  22.834  31.150   6.214
 5190POPC   C2B67808  22.946  31.314   6.614
 5190POPC   C3B67809  23.026  31.318   7.042
 5190POPC   C4B67810  22.787  31.193   7.390
 5191POPC   NC367811  15.845  16.689   5.507
 5191POPC   PO467812  15.448  16.241   5.411
 5191POPC   GL167813  15.370  16.552   5.771
 5191POPC   GL267814  15.529  16.900   5.839
 5191POPC   C1A67815  15.131  16.615   6.184
 5191POPC   D2A67816  14.885  16.526   6.556
 5191POPC   C3A67817  15.086  16.444   6.931
 5191POPC   C4A67818  15.293  16.720   7.206
 5191POPC   C1B67819  15.439  17.013   6.269
 5191POPC   C2B67820  15.192  16.952   6.696
 5191POPC   C3B67821  15.223  17.206   7.096
 5191POPC   C4B67822  15.114  17.365   7.534
 5192POPC   NC367823  43.676  18.769   5.451
 5192POPC   PO467824  44.052  19.401   5.380
 5192POPC   GL167825  43.998  19.116   5.723
 5192POPC   GL267826  43.672  19.054   5.878
 5192POPC   C1A67827  44.111  19.186   6.143
 5192POPC   D2A67828  43.855  19.242   6.474
 5192POPC   C3A67829  43.990  19.147   6.881
 5192POPC   C4A67830  44.324  19.230   7.160
 5192POPC   C1B67831  43.857  18.736   6.173
 5192POPC   C2B67832  44.093  18.736   6.575
 5192POPC   C3B67833  43.968  18.638   7.026
 5192POPC   C4B67834  43.910  18.956   7.367
 5193POPC   NC367835  15.417  42.501   5.338
 5193POPC   PO467836  15.198  41.846   5.448
 5193POPC   GL167837  15.192  42.148   5.797
 5193POPC   GL267838  15.455  42.403   5.839
 5193POPC   C1A67839  15.131  42.177   6.244
 5193POPC   D2A67840  14.992  42.121   6.678
 5193POPC   C3A67841  14.868  42.433   7.007
 5193POPC   C4A67842  14.871  42.368   7.464
 5193POPC   C1B67843  15.596  42.592   6.212
 5193POPC   C2B67844  15.433  42.426   6.578
 5193POPC   C3B67845  15.363  42.339   6.985
 5193POPC   C4B67846  15.643  42.545   7.256
 5194POPC   NC367847  26.366   5.099   5.409
 5194POPC   PO467848  26.001   4.666   5.372
 5194POPC   GL167849  26.059   4.903   5.782
 5194POPC   GL267850  26.418   4.898   5.880
 5194POPC   C1A67851  26.093   4.962   6.276
 5194POPC   D2A67852  26.287   4.933   6.718
 5194POPC   C3A67853  26.048   5.085   7.093
 5194POPC   C4A67854  26.056   5.243   7.503
 5194POPC   C1B67855  26.475   5.272   6.126
 5194POPC   C2B67856  26.301   5.411   6.520
 5194POPC   C3B67857  26.425   5.406   6.942
 5194POPC   C4B67858  26.519   5.424   7.341
 5195POPC   NC367859  30.304  41.661   5.359
 5195POPC   PO467860  29.866  41.177   5.367
 5195POPC   GL167861  30.105  41.407   5.758
 5195POPC   GL267862  30.049  41.811   5.813
 5195POPC   C1A67863  29.995  41.483   6.213
 5195POPC   D2A67864  29.609  41.428   6.472
 5195POPC   C3A67865  29.694  41.232   6.865
 5195POPC   C4A67866  29.952  41.440   7.161
 5195POPC   C1B67867  29.854  41.970   6.237
 5195POPC   C2B67868  29.875  41.842   6.698
 5195POPC   C3B67869  29.793  41.901   7.148
 5195POPC   C4B67870  30.038  41.792   7.558
 5196POPC   NC367871   2.039  30.508   5.606
 5196POPC   PO467872   1.768  31.129   5.478
 5196POPC   GL167873   2.016  31.010   5.840
 5196POPC   GL267874   2.359  30.882   5.749
 5196POPC   C1A67875   1.883  30.847   6.276
 5196POPC   D2A67876   1.696  31.019   6.697
 5196POPC   C3A67877   1.857  30.741   7.045
 5196POPC   C4A67878   2.233  30.445   7.176
 5196POPC   C1B67879   2.403  31.012   6.190
 5196POPC   C2B67880   2.510  30.870   6.616
 5196POPC   C3B67881   2.365  30.920   7.040
 5196POPC   C4B67882   2.148  30.893   7.449
 5197POPC   NC367883  18.412   7.148   4.850
 5197POPC   PO467884  18.355   7.524   5.441
 5197POPC   GL167885  18.259   7.289   5.808
 5197POPC   GL267886  17.986   7.055   5.667
 5197POPC   C1A67887  18.441   7.292   6.246
 5197POPC   D2A67888  18.314   7.391   6.674
 5197POPC   C3A67889  18.468   7.251   7.068
 5197POPC   C4A67890  18.315   7.536   7.358
 5197POPC   C1B67891  18.077   6.895   6.068
 5197POPC   C2B67892  18.017   7.009   6.489
 5197POPC   C3B67893  18.019   6.995   6.921
 5197POPC   C4B67894  18.075   7.091   7.351
 5198POPC   NC367895  27.323  37.222   5.437
 5198POPC   PO467896  27.512  36.575   5.403
 5198POPC   GL167897  27.410  36.826   5.762
 5198POPC   GL267898  27.673  37.065   5.865
 5198POPC   C1A67899  27.300  37.004   6.182
 5198POPC   D2A67900  27.596  37.145   6.523
 5198POPC   C3A67901  27.467  37.140   6.964
 5198POPC   C4A67902  27.641  36.975   7.370
 5198POPC   C1B67903  27.876  36.799   6.195
 5198POPC   C2B67904  27.856  36.626   6.635
 5198POPC   C3B67905  27.964  36.485   7.092
 5198POPC   C4B67906  27.982  36.645   7.540
 5199POPC   NC367907  35.552  35.531   5.611
 5199POPC   PO467908  35.077  36.004   5.439
 5199POPC   GL167909  35.262  36.093   5.817
 5199POPC   GL267910  35.602  36.176   5.852
 5199POPC   C1A67911  35.193  36.038   6.239
 5199POPC   D2A67912  35.025  36.261   6.602
 5199POPC   C3A67913  35.205  36.070   6.949
 5199POPC   C4A67914  35.297  35.730   7.266
 5199POPC   C1B67915  35.762  35.965   6.182
 5199POPC   C2B67916  35.889  35.773   6.541
 5199POPC   C3B67917  35.619  35.790   6.855
 5199POPC   C4B67918  35.677  36.078   7.185
 5200POPC   NC367919   7.010  41.545   5.493
 5200POPC   PO467920   6.504  41.810   5.340
 5200POPC   GL167921   6.561  41.534   5.762
 5200POPC   GL267922   6.862  41.676   5.954
 5200POPC   C1A67923   6.609  41.271   6.200
 5200POPC   D2A67924   6.545  41.041   6.606
 5200POPC   C3A67925   6.326  41.224   6.946
 5200POPC   C4A67926   6.559  41.143   7.286
 5200POPC   C1B67927   6.519  41.764   6.237
 5200POPC   C2B67928   6.555  41.628   6.673
 5200POPC   C3B67929   6.679  41.602   7.102
 5200POPC   C4B67930   6.399  41.765   7.394
 5201POPC   NC367931  32.067  32.391   5.594
 5201POPC   PO467932  32.532  32.051   5.296
 5201POPC   GL167933  32.393  32.047   5.815
 5201POPC   GL267934  32.002  32.100   5.984
 5201POPC   C1A67935  32.370  32.101   6.302
 5201POPC   D2A67936  32.332  31.763   6.578
 5201POPC   C3A67937  32.182  31.878   6.984
 5201POPC   C4A67938  32.266  32.227   7.257
 5201POPC   C1B67939  31.990  32.477   6.229
 5201POPC   C2B67940  32.057  32.596   6.629
 5201POPC   C3B67941  31.860  32.487   7.005
 5201POPC   C4B67942  31.855  32.516   7.434
 5202POPC   NC367943  17.741  10.534   5.409
 5202POPC   PO467944  18.266  10.982   5.570
 5202POPC   GL167945  18.243  10.559   5.774
 5202POPC   GL267946  17.903  10.409   5.874
 5202POPC   C1A67947  18.386  10.502   6.202
 5202POPC   D2A67948  18.306  10.770   6.578
 5202POPC   C3A67949  18.452  10.712   7.007
 5202POPC   C4A67950  18.530  10.375   7.282
 5202POPC   C1B67951  17.992  10.196   6.240
 5202POPC   C2B67952  18.180  10.240   6.664
 5202POPC   C3B67953  18.047  10.344   7.098
 5202POPC   C4B67954  18.102  10.153   7.500
 5203POPC   NC367955   3.559  44.656   5.164
 5203POPC   PO467956   3.856   0.009   5.644
 5203POPC   GL167957   3.685  44.657   5.903
 5203POPC   GL267958   3.486  44.353   5.948
 5203POPC   C1A67959   3.677  44.747   6.349
 5203POPC   D2A67960   3.905  44.940   6.709
 5203POPC   C3A67961   3.738  44.793   7.111
 5203POPC   C4A67962   3.406  44.751   7.421
 5203POPC   C1B67963   3.838  44.267   6.236
 5203POPC   C2B67964   3.793  44.351   6.677
 5203POPC   C3B67965   3.851  44.237   7.098
 5203POPC   C4B67966   3.505  44.227   7.394
 5204POPC   NC367967  23.818  44.306   5.444
 5204POPC   PO467968  24.036  44.889   5.430
 5204POPC   GL167969  23.776  44.706   5.761
 5204POPC   GL267970  23.559  44.938   5.893
 5204POPC   C1A67971  23.566  44.501   6.135
 5204POPC   D2A67972  23.380  44.709   6.526
 5204POPC   C3A67973  23.413  44.461   6.912
 5204POPC   C4A67974  23.712  44.448   7.243
 5204POPC   C1B67975  23.908  44.964   6.195
 5204POPC   C2B67976  23.782   0.040   6.607
 5204POPC   C3B67977  23.675  44.918   6.996
 5204POPC   C4B67978  23.943  44.887   7.359
 5205POPC   NC367979   1.248   4.439   5.463
 5205POPC   PO467980   1.039   3.789   5.494
 5205POPC   GL167981   1.243   4.032   5.833
 5205POPC   GL267982   1.066   4.359   5.916
 5205POPC   C1A67983   1.358   4.165   6.261
 5205POPC   D2A67984   1.176   4.410   6.603
 5205POPC   C3A67985   1.238   4.198   6.995
 5205POPC   C4A67986   1.133   4.008   7.395
 5205POPC   C1B67987   1.307   4.666   6.159
 5205POPC   C2B67988   1.596   4.695   6.516
 5205POPC   C3B67989   1.477   4.717   6.949
 5205POPC   C4B67990   1.339   4.537   7.353
 5206POPC   NC367991  15.122  37.288   5.337
 5206POPC   PO467992  15.374  36.674   5.282
 5206POPC   GL167993  15.323  36.874   5.706
 5206POPC   GL267994  14.989  36.972   5.748
 5206POPC   C1A67995  15.200  36.752   6.169
 5206POPC   D2A67996  15.108  36.885   6.594
 5206POPC   C3A67997  15.192  36.692   6.997
 5206POPC   C4A67998  15.464  36.742   7.324
 5206POPC   C1B67999  14.913  37.221   6.122
 5206POPC   C2B68000  14.723  37.180   6.526
 5206POPC   C3B68001  14.882  37.131   6.985
 5206POPC   C4B68002  14.823  37.422   7.364
 5207POPC   NC368003  22.214  11.369   5.336
 5207POPC   PO468004  21.879  10.915   5.661
 5207POPC   GL168005  22.212  11.143   5.855
 5207POPC   GL268006  22.266  11.503   5.805
 5207POPC   C1A68007  22.420  11.014   6.217
 5207POPC   D2A68008  22.450  11.244   6.606
 5207POPC   C3A68009  22.101  11.077   6.840
 5207POPC   C4A68010  22.241  11.111   7.222
 5207POPC   C1B68011  22.350  11.547   6.207
 5207POPC   C2B68012  22.075  11.596   6.558
 5207POPC   C3B68013  22.190  11.563   6.957
 5207POPC   C4B68014  22.123  11.747   7.325
 5208POPC   NC368015  42.643  20.154   5.403
 5208POPC   PO468016  42.278  19.522   5.522
 5208POPC   GL168017  42.432  19.854   5.779
 5208POPC   GL268018  42.197  20.142   5.742
 5208POPC   C1A68019  42.575  19.753   6.190
 5208POPC   D2A68020  42.425  19.484   6.510
 5208POPC   C3A68021  42.527  19.681   6.937
 5208POPC   C4A68022  42.481  19.779   7.390
 5208POPC   C1B68023  42.281  20.158   6.190
 5208POPC   C2B68024  42.487  20.165   6.622
 5208POPC   C3B68025  42.396  20.193   7.085
 5208POPC   C4B68026  42.092  20.171   7.432
 5209POPC   NC368027  38.755  30.091   5.438
 5209POPC   PO468028  39.296  29.604   5.366
 5209POPC   GL168029  39.391  29.777   5.768
 5209POPC   GL268030  39.043  29.858   5.803
 5209POPC   C1A68031  39.414  29.709   6.199
 5209POPC   D2A68032  39.287  29.609   6.590
 5209POPC   C3A68033  39.414  29.913   6.878
 5209POPC   C4A68034  39.270  29.934   7.266
 5209POPC   C1B68035  39.233  30.168   6.096
 5209POPC   C2B68036  39.092  30.091   6.517
 5209POPC   C3B68037  38.921  29.926   6.906
 5209POPC   C4B68038  38.754  29.980   7.305
 5210POPC   NC368039  35.938  32.740   5.427
 5210POPC   PO468040  36.140  33.415   5.358
 5210POPC   GL168041  36.104  33.150   5.764
 5210POPC   GL268042  36.132  32.788   5.889
 5210POPC   C1A68043  36.101  33.209   6.230
 5210POPC   D2A68044  36.291  33.141   6.630
 5210POPC   C3A68045  36.058  33.290   6.978
 5210POPC   C4A68046  36.272  33.243   7.374
 5210POPC   C1B68047  36.147  32.654   6.311
 5210POPC   C2B68048  36.287  32.622   6.727
 5210POPC   C3B68049  36.176  32.807   7.121
 5210POPC   C4B68050  35.981  32.823   7.530
 5211POPC   NC368051  32.806  30.423   5.318
 5211POPC   PO468052  32.795  31.113   5.355
 5211POPC   GL168053  32.717  30.814   5.704
 5211POPC   GL268054  33.053  30.744   5.774
 5211POPC   C1A68055  32.717  30.646   6.145
 5211POPC   D2A68056  32.859  30.467   6.508
 5211POPC   C3A68057  32.878  30.789   6.805
 5211POPC   C4A68058  32.914  30.728   7.234
 5211POPC   C1B68059  33.245  30.632   6.186
 5211POPC   C2B68060  33.381  30.675   6.649
 5211POPC   C3B68061  33.364  30.495   7.099
 5211POPC   C4B68062  33.228  30.396   7.533
 5212POPC   NC368063  15.499   4.704   5.427
 5212POPC   PO468064  15.398   5.423   5.283
 5212POPC   GL168065  15.414   5.217   5.758
 5212POPC   GL268066  15.581   4.915   5.885
 5212POPC   C1A68067  15.188   5.029   6.193
 5212POPC   D2A68068  14.964   5.079   6.635
 5212POPC   C3A68069  15.108   5.139   7.098
 5212POPC   C4A68070  15.020   5.303   7.534
 5212POPC   C1B68071  15.587   4.712   6.289
 5212POPC   C2B68072  15.352   4.750   6.701
 5212POPC   C3B68073  15.466   4.773   7.152
 5212POPC   C4B68074  15.307   4.547   7.516
 5213POPC   NC368075  35.096  17.327   5.260
 5213POPC   PO468076  35.465  17.823   5.538
 5213POPC   GL168077  35.388  17.526   5.794
 5213POPC   GL268078  35.363  17.697   6.026
 5213POPC   C1A68079  35.462  17.223   6.135
 5213POPC   D2A68080  35.268  17.346   6.512
 5213POPC   C3A68081  35.337  17.146   6.882
 5213POPC   C4A68082  35.222  17.254   7.281
 5213POPC   C1B68083  35.559  17.760   6.394
 5213POPC   C2B68084  35.279  17.876   6.739
 5213POPC   C3B68085  35.347  17.833   7.175
 5213POPC   C4B68086  35.396  17.937   7.616
 5214POPC   NC368087   0.786  38.609   5.602
 5214POPC   PO468088   1.366  38.712   5.341
 5214POPC   GL168089   1.273  38.616   5.789
 5214POPC   GL268090   1.045  38.844   5.954
 5214POPC   C1A68091   1.138  38.338   6.134
 5214POPC   D2A68092   1.271  38.206   6.546
 5214POPC   C3A68093   1.390  38.567   6.785
 5214POPC   C4A68094   1.510  38.665   7.198
 5214POPC   C1B68095   1.276  38.839   6.309
 5214POPC   C2B68096   1.043  39.008   6.649
 5214POPC   C3B68097   1.032  38.870   7.053
 5214POPC   C4B68098   1.177  39.077   7.409
 5215POPC   NC368099   9.497  17.058   5.430
 5215POPC   PO468100  10.099  16.779   5.336
 5215POPC   GL168101   9.920  16.914   5.714
 5215POPC   GL268102   9.646  16.702   5.817
 5215POPC   C1A68103   9.985  16.913   6.165
 5215POPC   D2A68104  10.045  16.561   6.442
 5215POPC   C3A68105   9.857  16.617   6.843
 5215POPC   C4A68106   9.919  16.555   7.273
 5215POPC   C1B68107   9.537  16.632   6.249
 5215POPC   C2B68108   9.374  16.667   6.687
 5215POPC   C3B68109   9.434  16.476   7.121
 5215POPC   C4B68110   9.330  16.429   7.556
 5216POPC   NC368111  13.988  38.390   5.221
 5216POPC   PO468112  14.654  38.646   5.413
 5216POPC   GL168113  14.459  38.517   5.755
 5216POPC   GL268114  14.774  38.436   5.903
 5216POPC   C1A68115  14.326  38.270   6.091
 5216POPC   D2A68116  14.516  38.166   6.481
 5216POPC   C3A68117  14.258  38.273   6.834
 5216POPC   C4A68118  14.288  38.165   7.262
 5216POPC   C1B68119  14.968  38.670   6.214
 5216POPC   C2B68120  14.826  38.573   6.589
 5216POPC   C3B68121  14.747  38.356   6.954
 5216POPC   C4B68122  14.656  38.503   7.354
 5217POPC   NC368123  32.298  30.671   5.419
 5217POPC   PO468124  31.852  31.086   5.545
 5217POPC   GL168125  32.189  30.993   5.843
 5217POPC   GL268126  32.252  30.660   5.925
 5217POPC   C1A68127  32.412  31.042   6.243
 5217POPC   D2A68128  32.414  30.731   6.574
 5217POPC   C3A68129  32.356  30.885   6.968
 5217POPC   C4A68130  32.483  30.976   7.391
 5217POPC   C1B68131  32.251  30.371   6.262
 5217POPC   C2B68132  32.023  30.283   6.618
 5217POPC   C3B68133  31.971  30.503   6.998
 5217POPC   C4B68134  32.290  30.499   7.313
 5218POPC   NC368135  41.619  44.717   5.459
 5218POPC   PO468136  41.519  44.103   5.545
 5218POPC   GL168137  41.690  44.359   5.897
 5218POPC   GL268138  41.517  44.699   5.963
 5218POPC   C1A68139  41.738  44.460   6.349
 5218POPC   D2A68140  41.559  44.862   6.499
 5218POPC   C3A68141  41.762  44.954   6.885
 5218POPC   C4A68142  41.878  44.610   7.173
 5218POPC   C1B68143  41.245  44.449   6.265
 5218POPC   C2B68144  41.155  44.584   6.696
 5218POPC   C3B68145  41.353  44.690   7.099
 5218POPC   C4B68146  41.198  44.870   7.508
 5219POPC   NC368147  21.722  41.864   5.109
 5219POPC   PO468148  21.461  41.339   5.390
 5219POPC   GL168149  21.305  41.473   5.800
 5219POPC   GL268150  20.956  41.304   5.835
 5219POPC   C1A68151  21.450  41.697   6.164
 5219POPC   D2A68152  21.333  41.788   6.565
 5219POPC   C3A68153  21.461  41.608   6.951
 5219POPC   C4A68154  21.416  41.694   7.397
 5219POPC   C1B68155  21.043  41.377   6.293
 5219POPC   C2B68156  20.904  41.518   6.723
 5219POPC   C3B68157  21.009  41.459   7.176
 5219POPC   C4B68158  21.173  41.238   7.542
 5220POPC   NC368159  14.005  43.407   5.442
 5220POPC   PO468160  14.626  43.302   5.418
 5220POPC   GL168161  14.583  43.113   5.801
 5220POPC   GL268162  14.231  43.049   5.827
 5220POPC   C1A68163  14.638  42.920   6.197
 5220POPC   D2A68164  14.372  42.803   6.531
 5220POPC   C3A68165  14.420  42.963   6.939
 5220POPC   C4A68166  14.604  42.806   7.315
 5220POPC   C1B68167  14.237  43.240   6.216
 5220POPC   C2B68168  14.103  43.517   6.529
 5220POPC   C3B68169  14.111  43.419   6.948
 5220POPC   C4B68170  14.478  43.370   7.242
 5221POPC   NC368171  37.199  26.158   5.494
 5221POPC   PO468172  36.746  25.610   5.389
 5221POPC   GL168173  36.983  25.761   5.753
 5221POPC   GL268174  36.787  26.018   5.781
 5221POPC   C1A68175  37.119  26.053   6.142
 5221POPC   D2A68176  37.299  26.086   6.532
 5221POPC   C3A68177  37.055  26.036   6.879
 5221POPC   C4A68178  37.091  26.139   7.283
 5221POPC   C1B68179  36.689  25.790   6.175
 5221POPC   C2B68180  36.637  25.879   6.629
 5221POPC   C3B68181  36.610  25.907   7.098
 5221POPC   C4B68182  36.371  25.877   7.468
 5222POPC   NC368183  33.607  31.898   5.525
 5222POPC   PO468184  33.789  31.227   5.368
 5222POPC   GL168185  33.516  31.396   5.701
 5222POPC   GL268186  33.760  31.624   5.916
 5222POPC   C1A68187  33.427  31.302   6.121
 5222POPC   D2A68188  33.633  31.523   6.448
 5222POPC   C3A68189  33.638  31.469   6.880
 5222POPC   C4A68190  33.998  31.272   7.063
 5222POPC   C1B68191  34.057  31.756   6.238
 5222POPC   C2B68192  34.147  31.624   6.645
 5222POPC   C3B68193  34.053  31.794   7.011
 5222POPC   C4B68194  33.820  31.654   7.349
 5223POPC   NC368195  12.973  18.586   5.347
 5223POPC   PO468196  12.568  18.049   5.320
 5223POPC   GL168197  12.654  18.079   5.780
 5223POPC   GL268198  12.779  18.390   5.916
 5223POPC   C1A68199  12.612  18.011   6.241
 5223POPC   D2A68200  12.765  17.962   6.664
 5223POPC   C3A68201  12.674  18.151   7.092
 5223POPC   C4A68202  12.561  18.252   7.520
 5223POPC   C1B68203  12.971  18.376   6.346
 5223POPC   C2B68204  13.039  18.372   6.801
 5223POPC   C3B68205  12.982  18.560   7.211
 5223POPC   C4B68206  13.063  18.704   7.622
 5224POPC   NC368207  42.307  17.191   5.250
 5224POPC   PO468208  41.904  17.627   5.450
 5224POPC   GL168209  42.036  17.458   5.787
 5224POPC   GL268210  42.374  17.451   5.722
 5224POPC   C1A68211  42.200  17.642   6.174
 5224POPC   D2A68212  42.010  17.475   6.528
 5224POPC   C3A68213  42.260  17.470   6.897
 5224POPC   C4A68214  42.317  17.716   7.262
 5224POPC   C1B68215  42.609  17.309   6.110
 5224POPC   C2B68216  42.681  17.255   6.545
 5224POPC   C3B68217  42.602  17.096   6.941
 5224POPC   C4B68218  42.668  17.323   7.265
 5225POPC   NC368219  17.648  33.567   5.586
 5225POPC   PO468220  18.301  33.714   5.374
 5225POPC   GL168221  18.264  33.874   5.768
 5225POPC   GL268222  18.098  33.554   5.847
 5225POPC   C1A68223  18.269  34.115   6.148
 5225POPC   D2A68224  18.272  33.881   6.549
 5225POPC   C3A68225  18.542  33.949   6.894
 5225POPC   C4A68226  18.397  33.899   7.283
 5225POPC   C1B68227  18.216  33.404   6.235
 5225POPC   C2B68228  18.180  33.331   6.630
 5225POPC   C3B68229  18.193  33.527   6.987
 5225POPC   C4B68230  18.445  33.399   7.321
 5226POPC   NC368231  37.954  40.573   5.369
 5226POPC   PO468232  38.047  41.289   5.304
 5226POPC   GL168233  37.864  40.993   5.664
 5226POPC   GL268234  38.190  40.950   5.677
 5226POPC   C1A68235  37.588  40.786   6.056
 5226POPC   D2A68236  37.466  40.803   6.502
 5226POPC   C3A68237  37.543  40.485   6.873
 5226POPC   C4A68238  37.491  40.776   7.232
 5226POPC   C1B68239  38.092  40.693   6.018
 5226POPC   C2B68240  37.970  40.764   6.422
 5226POPC   C3B68241  37.851  40.866   6.845
 5226POPC   C4B68242  37.998  40.709   7.244
 5227POPC   NC368243  17.352   0.430   5.245
 5227POPC   PO468244  17.927   0.738   5.341
 5227POPC   GL168245  17.586   0.699   5.647
 5227POPC   GL268246  17.522   0.362   5.755
 5227POPC   C1A68247  17.572   0.702   6.130
 5227POPC   D2A68248  17.877   0.656   6.534
 5227POPC   C3A68249  17.646   0.663   6.949
 5227POPC   C4A68250  17.293   0.712   7.265
 5227POPC   C1B68251  17.416   0.212   6.189
 5227POPC   C2B68252  17.392   0.425   6.575
 5227POPC   C3B68253  17.323   0.283   7.004
 5227POPC   C4B68254  17.610   0.305   7.360
 5228POPC   NC368255   5.279  41.227   5.430
 5228POPC   PO468256   4.813  40.728   5.507
 5228POPC   GL168257   5.118  40.718   5.886
 5228POPC   GL268258   5.406  40.969   5.860
 5228POPC   C1A68259   5.049  40.621   6.352
 5228POPC   D2A68260   4.697  40.696   6.650
 5228POPC   C3A68261   4.856  40.890   6.998
 5228POPC   C4A68262   5.228  40.681   7.139
 5228POPC   C1B68263   5.244  41.095   6.257
 5228POPC   C2B68264   5.293  41.007   6.682
 5228POPC   C3B68265   5.349  41.177   7.053
 5228POPC   C4B68266   5.092  41.131   7.388
 5229POPC   NC368267  20.011   9.164   5.396
 5229POPC   PO468268  19.631   8.570   5.432
 5229POPC   GL168269  19.786   8.850   5.759
 5229POPC   GL268270  19.561   8.848   6.023
 5229POPC   C1A68271  19.890   9.218   6.065
 5229POPC   D2A68272  19.770   9.200   6.519
 5229POPC   C3A68273  20.021   9.223   6.886
 5229POPC   C4A68274  19.953   9.241   7.310
 5229POPC   C1B68275  19.911   8.738   6.279
 5229POPC   C2B68276  19.905   8.739   6.726
 5229POPC   C3B68277  19.711   8.821   7.130
 5229POPC   C4B68278  20.114   8.728   7.252
 5230POPC   NC368279  38.112  41.667   5.034
 5230POPC   PO468280  38.650  41.677   5.384
 5230POPC   GL168281  38.577  41.553   5.777
 5230POPC   GL268282  38.255  41.465   5.737
 5230POPC   C1A68283  38.711  41.495   6.189
 5230POPC   D2A68284  38.474  41.554   6.549
 5230POPC   C3A68285  38.568  41.354   6.933
 5230POPC   C4A68286  38.538  41.555   7.318
 5230POPC   C1B68287  38.099  41.635   6.123
 5230POPC   C2B68288  37.933  41.707   6.535
 5230POPC   C3B68289  38.159  41.773   6.906
 5230POPC   C4B68290  38.002  41.686   7.312
 5231POPC   NC368291  21.415  22.625   5.268
 5231POPC   PO468292  21.928  22.280   5.500
 5231POPC   GL168293  21.588  22.249   5.750
 5231POPC   GL268294  21.525  22.579   5.815
 5231POPC   C1A68295  21.342  22.147   6.119
 5231POPC   D2A68296  21.413  22.166   6.577
 5231POPC   C3A68297  21.445  22.231   7.041
 5231POPC   C4A68298  21.464  21.888   7.364
 5231POPC   C1B68299  21.673  22.498   6.272
 5231POPC   C2B68300  21.807  22.476   6.724
 5231POPC   C3B68301  21.832  22.562   7.180
 5231POPC   C4B68302  21.679  22.331   7.561
 5232POPC   NC368303  29.577  12.242   5.353
 5232POPC   PO468304  28.939  12.004   5.435
 5232POPC   GL168305  29.290  12.020   5.743
 5232POPC   GL268306  29.333  12.340   5.794
 5232POPC   C1A68307  29.405  11.857   6.151
 5232POPC   D2A68308  29.125  11.739   6.504
 5232POPC   C3A68309  29.279  11.890   6.901
 5232POPC   C4A68310  29.094  12.121   7.239
 5232POPC   C1B68311  29.120  12.264   6.198
 5232POPC   C2B68312  29.267  12.330   6.589
 5232POPC   C3B68313  29.270  12.504   6.971
 5232POPC   C4B68314  29.506  12.384   7.337
 5233POPC   NC368315  36.901  22.800   5.425
 5233POPC   PO468316  37.140  23.406   5.326
 5233POPC   GL168317  37.114  23.167   5.769
 5233POPC   GL268318  37.162  22.786   5.846
 5233POPC   C1A68319  36.926  23.053   6.214
 5233POPC   D2A68320  36.652  22.945   6.595
 5233POPC   C3A68321  36.837  22.960   7.005
 5233POPC   C4A68322  36.723  23.177   7.406
 5233POPC   C1B68323  37.255  22.641   6.255
 5233POPC   C2B68324  37.186  22.733   6.678
 5233POPC   C3B68325  37.311  22.730   7.091
 5233POPC   C4B68326  37.168  22.906   7.448
 5234POPC   NC368327  40.740  12.698   5.361
 5234POPC   PO468328  40.256  12.603   5.716
 5234POPC   GL168329  40.657  12.633   5.881
 5234POPC   GL268330  40.739  12.979   5.843
 5234POPC   C1A68331  40.891  12.680   6.258
 5234POPC   D2A68332  40.884  12.513   6.658
 5234POPC   C3A68333  40.878  12.745   7.078
 5234POPC   C4A68334  40.650  13.036   7.389
 5234POPC   C1B68335  40.838  13.176   6.276
 5234POPC   C2B68336  40.980  13.047   6.699
 5234POPC   C3B68337  41.002  13.263   7.106
 5234POPC   C4B68338  41.087  13.310   7.556
 5235POPC   NC368339  17.990  11.374   5.532
 5235POPC   PO468340  18.461  11.850   5.475
 5235POPC   GL168341  18.308  11.647   5.838
 5235POPC   GL268342  18.488  11.326   5.869
 5235POPC   C1A68343  18.274  11.545   6.288
 5235POPC   D2A68344  18.474  11.286   6.612
 5235POPC   C3A68345  18.190  11.158   6.908
 5235POPC   C4A68346  18.104  11.526   7.098
 5235POPC   C1B68347  18.607  10.993   6.207
 5235POPC   C2B68348  18.813  10.899   6.612
 5235POPC   C3B68349  18.807  11.093   6.966
 5235POPC   C4B68350  18.550  11.182   7.272
 5236POPC   NC368351  26.551  41.781   5.433
 5236POPC   PO468352  26.491  41.198   5.690
 5236POPC   GL168353  26.572  41.581   5.885
 5236POPC   GL268354  26.913  41.623   5.814
 5236POPC   C1A68355  26.670  41.753   6.264
 5236POPC   D2A68356  26.578  41.431   6.569
 5236POPC   C3A68357  26.436  41.618   6.913
 5236POPC   C4A68358  26.738  41.730   7.199
 5236POPC   C1B68359  26.984  41.345   6.208
 5236POPC   C2B68360  27.105  41.219   6.631
 5236POPC   C3B68361  26.924  41.308   7.040
 5236POPC   C4B68362  26.921  41.324   7.521
 5237POPC   NC368363  20.332  43.414   5.666
 5237POPC   PO468364  20.453  42.866   5.342
 5237POPC   GL168365  20.661  43.036   5.748
 5237POPC   GL268366  20.835  43.397   5.813
 5237POPC   C1A68367  20.680  42.956   6.197
 5237POPC   D2A68368  20.419  42.828   6.541
 5237POPC   C3A68369  20.526  42.840   6.977
 5237POPC   C4A68370  20.612  43.192   7.232
 5237POPC   C1B68371  21.017  43.343   6.223
 5237POPC   C2B68372  20.794  43.310   6.596
 5237POPC   C3B68373  20.911  43.509   6.936
 5237POPC   C4B68374  21.113  43.412   7.262
 5238POPC   NC368375   2.457  35.599   5.608
 5238POPC   PO468376   1.968  35.580   5.142
 5238POPC   GL168377   1.986  35.403   5.601
 5238POPC   GL268378   2.199  35.140   5.823
 5238POPC   C1A68379   1.948  35.515   6.070
 5238POPC   D2A68380   1.724  35.280   6.387
 5238POPC   C3A68381   1.694  35.290   6.847
 5238POPC   C4A68382   1.832  35.242   7.273
 5238POPC   C1B68383   2.262  35.198   6.317
 5238POPC   C2B68384   2.189  35.425   6.692
 5238POPC   C3B68385   2.341  35.405   7.111
 5238POPC   C4B68386   2.192  35.557   7.529
 5239POPC   NC368387  19.693   5.151   5.472
 5239POPC   PO468388  20.248   5.302   5.634
 5239POPC   GL168389  19.884   5.379   5.912
 5239POPC   GL268390  19.516   5.338   5.896
 5239POPC   C1A68391  19.752   5.189   6.321
 5239POPC   D2A68392  19.876   4.967   6.706
 5239POPC   C3A68393  19.756   5.177   7.062
 5239POPC   C4A68394  19.954   5.382   7.378
 5239POPC   C1B68395  19.303   5.570   6.206
 5239POPC   C2B68396  19.431   5.484   6.621
 5239POPC   C3B68397  19.293   5.430   7.043
 5239POPC   C4B68398  19.454   5.336   7.454
 5240POPC   NC368399  31.775  35.052   5.341
 5240POPC   PO468400  31.286  35.484   5.478
 5240POPC   GL168401  31.415  35.327   5.841
 5240POPC   GL268402  31.698  35.480   5.794
 5240POPC   C1A68403  31.357  35.319   6.265
 5240POPC   D2A68404  31.106  35.635   6.494
 5240POPC   C3A68405  31.230  35.614   6.930
 5240POPC   C4A68406  31.306  35.181   7.065
 5240POPC   C1B68407  31.871  35.373   6.182
 5240POPC   C2B68408  31.750  35.458   6.596
 5240POPC   C3B68409  31.802  35.292   6.983
 5240POPC   C4B68410  31.746  34.942   7.246
 5241POPC   NC368411   3.842  14.445   5.134
 5241POPC   PO468412   4.456  14.469   5.511
 5241POPC   GL168413   4.386  14.606   5.883
 5241POPC   GL268414   4.617  14.812   5.948
 5241POPC   C1A68415   4.343  14.499   6.284
 5241POPC   D2A68416   4.309  14.313   6.645
 5241POPC   C3A68417   4.055  14.430   6.964
 5241POPC   C4A68418   4.198  14.324   7.346
 5241POPC   C1B68419   4.762  14.893   6.339
 5241POPC   C2B68420   4.501  14.798   6.662
 5241POPC   C3B68421   4.542  14.625   7.027
 5241POPC   C4B68422   4.678  14.874   7.331
 5242POPC   NC368423   6.256  36.592   5.426
 5242POPC   PO468424   6.655  37.135   5.303
 5242POPC   GL168425   6.661  36.878   5.687
 5242POPC   GL268426   6.525  37.202   5.839
 5242POPC   C1A68427   6.701  36.589   6.082
 5242POPC   D2A68428   6.679  36.687   6.566
 5242POPC   C3A68429   6.571  36.548   6.987
 5242POPC   C4A68430   6.547  36.765   7.399
 5242POPC   C1B68431   6.595  37.077   6.272
 5242POPC   C2B68432   6.725  37.176   6.728
 5242POPC   C3B68433   6.691  37.216   7.207
 5242POPC   C4B68434   6.616  37.215   7.673
 5243POPC   NC368435  21.914  43.603   5.482
 5243POPC   PO468436  22.378  44.079   5.486
 5243POPC   GL168437  22.037  44.059   5.796
 5243POPC   GL268438  22.115  43.738   5.919
 5243POPC   C1A68439  22.015  44.092   6.266
 5243POPC   D2A68440  22.107  44.148   6.688
 5243POPC   C3A68441  21.903  43.897   6.981
 5243POPC   C4A68442  22.062  43.829   7.386
 5243POPC   C1B68443  22.438  43.819   6.209
 5243POPC   C2B68444  22.287  43.673   6.600
 5243POPC   C3B68445  22.426  43.757   7.004
 5243POPC   C4B68446  22.459  43.525   7.373
 5244POPC   NC368447  21.744  10.041   5.409
 5244POPC   PO468448  22.244   9.537   5.484
 5244POPC   GL168449  22.222   9.750   5.836
 5244POPC   GL268450  21.888   9.838   5.881
 5244POPC   C1A68451  22.262   9.956   6.244
 5244POPC   D2A68452  22.343   9.847   6.673
 5244POPC   C3A68453  22.132  10.048   7.034
 5244POPC   C4A68454  21.962   9.927   7.423
 5244POPC   C1B68455  22.011   9.505   6.213
 5244POPC   C2B68456  22.034   9.381   6.661
 5244POPC   C3B68457  22.213   9.526   7.059
 5244POPC   C4B68458  22.574   9.817   7.161
 5245POPC   NC368459   7.534  16.139   5.383
 5245POPC   PO468460   6.896  15.971   5.421
 5245POPC   GL168461   7.211  15.883   5.736
 5245POPC   GL268462   7.408  16.204   5.860
 5245POPC   C1A68463   7.391  15.765   6.132
 5245POPC   D2A68464   7.547  16.003   6.486
 5245POPC   C3A68465   7.381  15.917   6.895
 5245POPC   C4A68466   7.325  16.088   7.305
 5245POPC   C1B68467   7.587  16.444   6.189
 5245POPC   C2B68468   7.656  16.490   6.603
 5245POPC   C3B68469   7.569  16.416   7.016
 5245POPC   C4B68470   7.629  16.494   7.468
 5246POPC   NC368471  11.265  17.499   5.346
 5246POPC   PO468472  11.762  17.180   5.704
 5246POPC   GL168473  11.458  17.456   5.963
 5246POPC   GL268474  11.100  17.455   5.854
 5246POPC   C1A68475  11.337  17.457   6.401
 5246POPC   D2A68476  11.449  17.686   6.783
 5246POPC   C3A68477  11.363  17.571   7.185
 5246POPC   C4A68478  11.525  17.355   7.546
 5246POPC   C1B68479  10.872  17.568   6.228
 5246POPC   C2B68480  10.935  17.669   6.668
 5246POPC   C3B68481  10.913  17.393   7.029
 5246POPC   C4B68482  11.048  17.223   7.422
 5247POPC   NC368483   8.897   4.199   5.296
 5247POPC   PO468484   8.918   4.844   5.424
 5247POPC   GL168485   8.799   4.498   5.737
 5247POPC   GL268486   8.805   4.104   5.789
 5247POPC   C1A68487   8.837   4.444   6.161
 5247POPC   D2A68488   8.910   4.584   6.548
 5247POPC   C3A68489   8.862   4.323   6.914
 5247POPC   C4A68490   8.853   4.561   7.301
 5247POPC   C1B68491   9.079   3.983   6.154
 5247POPC   C2B68492   9.183   3.981   6.609
 5247POPC   C3B68493   9.296   4.051   7.041
 5247POPC   C4B68494   9.559   4.010   7.414
 5248POPC   NC368495  23.496  29.446   5.600
 5248POPC   PO468496  23.414  28.789   5.575
 5248POPC   GL168497  23.705  29.034   5.877
 5248POPC   GL268498  23.826  29.382   5.994
 5248POPC   C1A68499  23.839  28.966   6.268
 5248POPC   D2A68500  23.563  28.957   6.581
 5248POPC   C3A68501  23.838  29.036   6.910
 5248POPC   C4A68502  23.742  29.050   7.310
 5248POPC   C1B68503  23.474  29.378   6.276
 5248POPC   C2B68504  23.451  29.574   6.670
 5248POPC   C3B68505  23.454  29.388   7.048
 5248POPC   C4B68506  23.835  29.530   7.195
 5249POPC   NC368507  44.845  16.539   5.499
 5249POPC   PO468508  44.223  16.615   5.425
 5249POPC   GL168509  44.433  16.831   5.813
 5249POPC   GL268510  44.759  16.669   5.979
 5249POPC   C1A68511  44.478  16.984   6.258
 5249POPC   D2A68512  44.589  16.726   6.634
 5249POPC   C3A68513  44.693  16.979   6.984
 5249POPC   C4A68514  44.573  17.120   7.379
 5249POPC   C1B68515   0.061  16.440   6.286
 5249POPC   C2B68516   0.098  16.397   6.747
 5249POPC   C3B68517  44.844  16.501   7.136
 5249POPC   C4B68518  44.613  16.637   7.541
 5250POPC   NC368519   2.929  39.193   5.429
 5250POPC   PO468520   2.380  39.764   5.465
 5250POPC   GL168521   2.550  39.517   5.817
 5250POPC   GL268522   2.577  39.143   5.819
 5250POPC   C1A68523   2.749  39.402   6.207
 5250POPC   D2A68524   2.601  39.205   6.559
 5250POPC   C3A68525   2.685  39.426   6.909
 5250POPC   C4A68526   2.814  39.537   7.294
 5250POPC   C1B68527   2.739  38.864   6.180
 5250POPC   C2B68528   2.915  38.799   6.615
 5250POPC   C3B68529   2.931  38.993   7.017
 5250POPC   C4B68530   3.120  39.143   7.371
 5251POPC   NC368531  19.827  23.257   5.375
 5251POPC   PO468532  19.541  22.737   5.541
 5251POPC   GL168533  19.674  23.091   5.849
 5251POPC   GL268534  20.013  23.230   5.895
 5251POPC   C1A68535  19.672  23.368   6.235
 5251POPC   D2A68536  19.970  23.496   6.581
 5251POPC   C3A68537  19.914  23.236   6.960
 5251POPC   C4A68538  19.674  22.931   7.212
 5251POPC   C1B68539  19.955  22.934   6.277
 5251POPC   C2B68540  19.980  22.780   6.739
 5251POPC   C3B68541  20.189  22.837   7.171
 5251POPC   C4B68542  20.324  22.823   7.621
 5252POPC   NC368543  29.857   6.049   5.533
 5252POPC   PO468544  30.080   5.481   5.456
 5252POPC   GL168545  30.099   5.743   5.858
 5252POPC   GL268546  29.748   5.861   6.016
 5252POPC   C1A68547  30.131   5.690   6.300
 5252POPC   D2A68548  29.891   5.942   6.593
 5252POPC   C3A68549  30.052   5.996   7.009
 5252POPC   C4A68550  29.906   5.609   7.187
 5252POPC   C1B68551  29.559   6.215   6.283
 5252POPC   C2B68552  29.534   6.278   6.744
 5252POPC   C3B68553  29.517   5.983   7.129
 5252POPC   C4B68554  29.784   5.990   7.520
 5253POPC   NC368555  35.919  14.833   5.881
 5253POPC   PO468556  35.687  15.113   5.287
 5253POPC   GL168557  35.530  15.170   5.762
 5253POPC   GL268558  35.189  15.296   5.903
 5253POPC   C1A68559  35.584  15.358   6.216
 5253POPC   D2A68560  35.346  15.275   6.624
 5253POPC   C3A68561  35.563  15.398   7.029
 5253POPC   C4A68562  35.573  15.136   7.418
 5253POPC   C1B68563  34.911  15.200   6.271
 5253POPC   C2B68564  34.809  14.854   6.560
 5253POPC   C3B68565  34.908  14.891   6.981
 5253POPC   C4B68566  35.101  15.195   7.189
 5254POPC   NC368567  37.878  25.202   5.453
 5254POPC   PO468568  37.337  25.720   5.390
 5254POPC   GL168569  37.493  25.423   5.741
 5254POPC   GL268570  37.842  25.517   5.861
 5254POPC   C1A68571  37.512  25.152   6.115
 5254POPC   D2A68572  37.454  25.292   6.523
 5254POPC   C3A68573  37.560  25.124   6.909
 5254POPC   C4A68574  37.469  25.337   7.274
 5254POPC   C1B68575  38.112  25.576   6.243
 5254POPC   C2B68576  38.147  25.506   6.679
 5254POPC   C3B68577  37.907  25.548   7.053
 5254POPC   C4B68578  37.947  25.578   7.521
 5255POPC   NC368579  24.148  41.135   5.320
 5255POPC   PO468580  23.731  40.637   5.320
 5255POPC   GL168581  23.856  40.795   5.757
 5255POPC   GL268582  23.948  40.513   5.992
 5255POPC   C1A68583  23.848  40.972   6.202
 5255POPC   D2A68584  23.655  40.937   6.635
 5255POPC   C3A68585  23.885  40.826   7.025
 5255POPC   C4A68586  23.992  40.588   7.386
 5255POPC   C1B68587  23.515  40.565   6.239
 5255POPC   C2B68588  23.264  40.496   6.663
 5255POPC   C3B68589  23.417  40.519   7.108
 5255POPC   C4B68590  23.521  40.755   7.492
 5256POPC   NC368591   7.442  19.220   5.407
 5256POPC   PO468592   7.640  18.669   5.666
 5256POPC   GL168593   7.318  18.877   5.877
 5256POPC   GL268594   7.363  19.223   5.891
 5256POPC   C1A68595   7.262  18.993   6.327
 5256POPC   D2A68596   7.077  18.971   6.718
 5256POPC   C3A68597   7.245  19.132   7.092
 5256POPC   C4A68598   7.266  18.965   7.534
 5256POPC   C1B68599   7.581  19.374   6.221
 5256POPC   C2B68600   7.684  19.193   6.583
 5256POPC   C3B68601   7.683  19.343   6.978
 5256POPC   C4B68602   7.743  19.102   7.307
 5257POPC   NC368603   9.942  40.913   5.438
 5257POPC   PO468604   9.407  41.024   5.759
 5257POPC   GL168605   9.654  40.656   5.843
 5257POPC   GL268606  10.022  40.671   5.894
 5257POPC   C1A68607   9.589  40.456   6.229
 5257POPC   D2A68608   9.621  40.688   6.622
 5257POPC   C3A68609   9.440  40.597   7.019
 5257POPC   C4A68610   9.344  41.025   7.177
 5257POPC   C1B68611   9.971  41.036   6.183
 5257POPC   C2B68612   9.847  41.170   6.636
 5257POPC   C3B68613   9.835  40.973   7.032
 5257POPC   C4B68614   9.960  40.550   6.998
 5258POPC   NC368615  33.210   7.650   5.199
 5258POPC   PO468616  32.763   7.322   5.539
 5258POPC   GL168617  32.799   7.470   5.910
 5258POPC   GL268618  33.121   7.606   5.869
 5258POPC   C1A68619  32.714   7.354   6.333
 5258POPC   D2A68620  32.963   7.328   6.682
 5258POPC   C3A68621  32.941   7.087   7.015
 5258POPC   C4A68622  32.769   7.423   7.227
 5258POPC   C1B68623  33.234   7.449   6.255
 5258POPC   C2B68624  33.454   7.467   6.632
 5258POPC   C3B68625  33.344   7.397   7.034
 5258POPC   C4B68626  33.229   7.406   7.427
 5259POPC   NC368627  33.957  42.022   5.339
 5259POPC   PO468628  33.541  42.570   5.515
 5259POPC   GL168629  33.743  42.439   5.872
 5259POPC   GL268630  33.746  42.097   5.818
 5259POPC   C1A68631  33.637  42.444   6.319
 5259POPC   D2A68632  33.871  42.615   6.664
 5259POPC   C3A68633  33.755  42.519   7.081
 5259POPC   C4A68634  34.009  42.475   7.447
 5259POPC   C1B68635  33.903  42.007   6.241
 5259POPC   C2B68636  33.823  42.107   6.671
 5259POPC   C3B68637  33.997  42.069   7.052
 5259POPC   C4B68638  33.800  42.014   7.402
 5260POPC   NC368639  30.583  42.522   5.478
 5260POPC   PO468640  31.069  42.072   5.521
 5260POPC   GL168641  30.731  42.156   5.808
 5260POPC   GL268642  30.579  41.816   5.808
 5260POPC   C1A68643  30.647  42.371   6.195
 5260POPC   D2A68644  30.810  42.593   6.530
 5260POPC   C3A68645  30.630  42.439   6.914
 5260POPC   C4A68646  30.844  42.408   7.299
 5260POPC   C1B68647  30.368  41.960   6.184
 5260POPC   C2B68648  30.317  42.136   6.632
 5260POPC   C3B68649  30.406  41.991   7.093
 5260POPC   C4B68650  30.578  42.020   7.557
 5261POPC   NC368651  19.379  41.983   5.376
 5261POPC   PO468652  19.822  42.523   5.378
 5261POPC   GL168653  19.811  42.403   5.796
 5261POPC   GL268654  19.742  42.048   5.786
 5261POPC   C1A68655  19.941  42.336   6.228
 5261POPC   D2A68656  19.948  42.609   6.592
 5261POPC   C3A68657  20.128  42.490   6.987
 5261POPC   C4A68658  19.858  42.410   7.336
 5261POPC   C1B68659  19.509  42.013   6.184
 5261POPC   C2B68660  19.594  41.931   6.615
 5261POPC   C3B68661  19.637  42.127   6.988
 5261POPC   C4B68662  19.542  41.991   7.403
 5262POPC   NC368663   9.703  22.266   5.295
 5262POPC   PO468664   9.630  21.700   5.543
 5262POPC   GL168665   9.809  22.032   5.780
 5262POPC   GL268666   9.520  22.251   5.803
 5262POPC   C1A68667   9.852  22.033   6.238
 5262POPC   D2A68668   9.704  21.767   6.602
 5262POPC   C3A68669   9.763  21.921   7.025
 5262POPC   C4A68670  10.004  22.058   7.369
 5262POPC   C1B68671   9.484  22.399   6.255
 5262POPC   C2B68672   9.577  22.299   6.710
 5262POPC   C3B68673   9.498  22.349   7.174
 5262POPC   C4B68674   9.701  22.427   7.612
 5263POPC   NC368675  32.631   3.114   5.473
 5263POPC   PO468676  32.032   3.252   5.116
 5263POPC   GL168677  32.117   3.347   5.641
 5263POPC   GL268678  32.370   3.167   5.890
 5263POPC   C1A68679  32.120   3.555   6.085
 5263POPC   D2A68680  32.244   3.524   6.543
 5263POPC   C3A68681  32.134   3.330   6.941
 5263POPC   C4A68682  32.215   3.475   7.368
 5263POPC   C1B68683  32.615   3.422   6.213
 5263POPC   C2B68684  32.745   3.367   6.654
 5263POPC   C3B68685  32.638   3.448   7.087
 5263POPC   C4B68686  32.644   3.220   7.487
 5264POPC   NC368687  28.058  10.263   5.615
 5264POPC   PO468688  28.621  10.566   5.435
 5264POPC   GL168689  28.486  10.491   5.823
 5264POPC   GL268690  28.233  10.765   5.896
 5264POPC   C1A68691  28.353  10.418   6.241
 5264POPC   D2A68692  28.115  10.562   6.565
 5264POPC   C3A68693  28.370  10.509   6.930
 5264POPC   C4A68694  28.218  10.582   7.318
 5264POPC   C1B68695  28.655  10.877   6.093
 5264POPC   C2B68696  28.581  10.863   6.528
 5264POPC   C3B68697  28.756  10.940   6.935
 5264POPC   C4B68698  28.667  10.790   7.335
 5265POPC   NC368699   0.259  33.411   5.439
 5265POPC   PO468700   0.796  33.020   5.207
 5265POPC   GL168701   0.551  33.012   5.658
 5265POPC   GL268702   0.634  32.710   5.856
 5265POPC   C1A68703   0.372  33.214   6.072
 5265POPC   D2A68704   0.535  33.269   6.504
 5265POPC   C3A68705   0.415  33.101   6.907
 5265POPC   C4A68706   0.636  33.031   7.279
 5265POPC   C1B68707   0.206  32.740   6.097
 5265POPC   C2B68708  44.992  32.695   6.485
 5265POPC   C3B68709   0.150  32.649   6.866
 5265POPC   C4B68710   0.243  32.742   7.261
 5266POPC   NC368711   9.454   3.667   5.585
 5266POPC   PO468712   8.862   3.735   5.388
 5266POPC   GL168713   9.014   3.580   5.811
 5266POPC   GL268714   9.236   3.269   5.847
 5266POPC   C1A68715   8.881   3.519   6.234
 5266POPC   D2A68716   8.667   3.609   6.583
 5266POPC   C3A68717   8.857   3.742   6.928
 5266POPC   C4A68718   9.029   3.717   7.304
 5266POPC   C1B68719   9.201   3.141   6.280
 5266POPC   C2B68720   9.234   3.361   6.678
 5266POPC   C3B68721   9.094   3.262   7.092
 5266POPC   C4B68722   9.134   3.304   7.577
 5267POPC   NC368723  32.542  20.816   5.248
 5267POPC   PO468724  32.054  20.388   5.406
 5267POPC   GL168725  32.235  20.517   5.783
 5267POPC   GL268726  32.191  20.157   5.855
 5267POPC   C1A68727  32.225  20.783   6.194
 5267POPC   D2A68728  32.418  20.681   6.634
 5267POPC   C3A68729  32.299  20.763   7.091
 5267POPC   C4A68730  32.500  20.523   7.452
 5267POPC   C1B68731  32.359  20.302   6.236
 5267POPC   C2B68732  32.128  20.259   6.589
 5267POPC   C3B68733  32.175  20.301   6.979
 5267POPC   C4B68734  32.047  20.218   7.368
 5268POPC   NC368735  29.750  39.809   5.124
 5268POPC   PO468736  29.165  40.009   5.412
 5268POPC   GL168737  29.137  40.069   5.828
 5268POPC   GL268738  29.213  39.728   5.905
 5268POPC   C1A68739  29.032  39.963   6.281
 5268POPC   D2A68740  29.286  39.803   6.571
 5268POPC   C3A68741  29.149  39.967   6.917
 5268POPC   C4A68742  29.099  40.251   7.248
 5268POPC   C1B68743  29.532  39.514   6.178
 5268POPC   C2B68744  29.502  39.342   6.620
 5268POPC   C3B68745  29.236  39.458   6.980
 5268POPC   C4B68746  29.184  39.741   7.347
 5269POPC   NC368747  26.891  42.926   5.412
 5269POPC   PO468748  27.277  43.503   5.244
 5269POPC   GL168749  27.161  43.270   5.664
 5269POPC   GL268750  26.797  43.366   5.717
 5269POPC   C1A68751  26.951  43.001   6.048
 5269POPC   D2A68752  27.032  43.085   6.486
 5269POPC   C3A68753  26.935  42.953   6.927
 5269POPC   C4A68754  26.860  43.078   7.397
 5269POPC   C1B68755  26.745  43.447   6.188
 5269POPC   C2B68756  26.601  43.336   6.622
 5269POPC   C3B68757  26.522  43.242   7.028
 5269POPC   C4B68758  26.380  42.849   7.156
 5270POPC   NC368759  16.232  15.198   5.460
 5270POPC   PO468760  15.652  14.853   5.539
 5270POPC   GL168761  15.903  15.115   5.842
 5270POPC   GL268762  15.987  15.486   5.800
 5270POPC   C1A68763  16.035  15.022   6.248
 5270POPC   D2A68764  15.964  14.834   6.619
 5270POPC   C3A68765  15.668  15.016   6.887
 5270POPC   C4A68766  15.706  14.976   7.289
 5270POPC   C1B68767  16.012  15.527   6.230
 5270POPC   C2B68768  15.895  15.376   6.616
 5270POPC   C3B68769  16.034  15.360   7.026
 5270POPC   C4B68770  16.075  15.645   7.349
 5271POPC   NC368771  26.316  28.538   5.632
 5271POPC   PO468772  26.131  27.975   5.336
 5271POPC   GL168773  26.024  28.160   5.770
 5271POPC   GL268774  25.770  28.445   5.782
 5271POPC   C1A68775  26.205  28.127   6.234
 5271POPC   D2A68776  26.208  28.379   6.631
 5271POPC   C3A68777  26.294  28.127   6.988
 5271POPC   C4A68778  26.054  27.932   7.313
 5271POPC   C1B68779  25.903  28.527   6.225
 5271POPC   C2B68780  25.705  28.507   6.675
 5271POPC   C3B68781  25.868  28.434   7.097
 5271POPC   C4B68782  25.881  28.721   7.485
 5272POPC   NC368783  25.712   9.727   5.472
 5272POPC   PO468784  26.459   9.509   5.509
 5272POPC   GL168785  26.161   9.811   5.703
 5272POPC   GL268786  25.960   9.525   5.852
 5272POPC   C1A68787  25.976  10.010   6.084
 5272POPC   D2A68788  25.833  10.118   6.503
 5272POPC   C3A68789  25.999   9.830   6.819
 5272POPC   C4A68790  26.246   9.896   7.195
 5272POPC   C1B68791  26.250   9.587   6.158
 5272POPC   C2B68792  26.234   9.472   6.536
 5272POPC   C3B68793  26.362   9.374   6.913
 5272POPC   C4B68794  26.225   9.124   7.238
 5273POPC   NC368795  40.293  23.942   5.443
 5273POPC   PO468796  39.740  23.438   5.403
 5273POPC   GL168797  39.730  23.746   5.789
 5273POPC   GL268798  39.988  24.018   5.877
 5273POPC   C1A68799  39.819  23.690   6.239
 5273POPC   D2A68800  40.176  23.523   6.465
 5273POPC   C3A68801  40.167  23.512   6.909
 5273POPC   C4A68802  39.936  23.787   7.212
 5273POPC   C1B68803  40.326  23.901   6.162
 5273POPC   C2B68804  40.512  23.908   6.629
 5273POPC   C3B68805  40.381  23.952   7.073
 5273POPC   C4B68806  40.321  24.001   7.519
 5274POPC   NC368807  40.664  44.427   5.387
 5274POPC   PO468808  41.007  44.942   5.362
 5274POPC   GL168809  41.023  44.770   5.809
 5274POPC   GL268810  40.956  44.404   5.836
 5274POPC   C1A68811  41.037  44.899   6.273
 5274POPC   D2A68812  40.754  44.918   6.648
 5274POPC   C3A68813  40.859  44.799   7.082
 5274POPC   C4A68814  40.681  44.755   7.507
 5274POPC   C1B68815  40.702  44.521   6.228
 5274POPC   C2B68816  40.662  44.387   6.686
 5274POPC   C3B68817  40.496  44.423   7.145
 5274POPC   C4B68818  40.558  44.258   7.576
 5275POPC   NC368819  38.844  39.153   5.391
 5275POPC   PO468820  38.133  38.997   5.473
 5275POPC   GL168821  38.254  39.243   5.819
 5275POPC   GL268822  38.566  39.205   5.822
 5275POPC   C1A68823  38.217  39.451   6.208
 5275POPC   D2A68824  38.417  39.384   6.590
 5275POPC   C3A68825  38.180  39.358   6.946
 5275POPC   C4A68826  38.398  39.039   7.177
 5275POPC   C1B68827  38.493  39.011   6.221
 5275POPC   C2B68828  38.762  38.961   6.552
 5275POPC   C3B68829  38.832  39.177   6.897
 5275POPC   C4B68830  38.912  39.145   7.314
 5276POPC   NC368831  34.909  41.344   5.383
 5276POPC   PO468832  34.372  41.703   5.522
 5276POPC   GL168833  34.507  41.550   5.904
 5276POPC   GL268834  34.615  41.229   5.831
 5276POPC   C1A68835  34.653  41.492   6.330
 5276POPC   D2A68836  34.581  41.600   6.761
 5276POPC   C3A68837  34.842  41.525   7.101
 5276POPC   C4A68838  35.068  41.829   7.328
 5276POPC   C1B68839  34.399  41.056   6.194
 5276POPC   C2B68840  34.341  41.171   6.636
 5276POPC   C3B68841  34.428  41.063   7.067
 5276POPC   C4B68842  34.645  41.185   7.448
 5277POPC   NC368843  27.287   4.104   5.576
 5277POPC   PO468844  27.978   4.047   5.589
 5277POPC   GL168845  27.956   4.217   5.984
 5277POPC   GL268846  27.596   4.214   5.981
 5277POPC   C1A68847  27.811   4.409   6.404
 5277POPC   D2A68848  27.459   4.390   6.726
 5277POPC   C3A68849  27.599   4.484   7.142
 5277POPC   C4A68850  27.923   4.762   7.294
 5277POPC   C1B68851  27.404   4.019   6.343
 5277POPC   C2B68852  27.295   3.834   6.767
 5277POPC   C3B68853  27.206   4.106   7.131
 5277POPC   C4B68854  27.297   4.293   7.537
 5278POPC   NC368855  27.217  30.657   5.433
 5278POPC   PO468856  26.547  30.424   5.502
 5278POPC   GL168857  26.806  30.629   5.779
 5278POPC   GL268858  27.069  30.389   5.836
 5278POPC   C1A68859  26.868  30.837   6.189
 5278POPC   D2A68860  26.640  31.012   6.567
 5278POPC   C3A68861  26.864  30.964   6.949
 5278POPC   C4A68862  27.025  30.757   7.292
 5278POPC   C1B68863  26.901  30.324   6.235
 5278POPC   C2B68864  26.812  30.512   6.622
 5278POPC   C3B68865  26.932  30.359   7.014
 5278POPC   C4B68866  27.078  30.224   7.411
 5279POPC   NC368867  42.162  42.097   5.424
 5279POPC   PO468868  42.865  42.258   5.321
 5279POPC   GL168869  42.602  42.223   5.738
 5279POPC   GL268870  42.267  42.177   5.911
 5279POPC   C1A68871  42.611  42.382   6.189
 5279POPC   D2A68872  42.395  42.368   6.595
 5279POPC   C3A68873  42.584  42.492   6.970
 5279POPC   C4A68874  42.623  42.260   7.371
 5279POPC   C1B68875  41.993  42.332   6.273
 5279POPC   C2B68876  41.851  42.361   6.714
 5279POPC   C3B68877  42.103  42.414   7.110
 5279POPC   C4B68878  42.113  42.306   7.558
 5280POPC   NC368879  33.782  38.775   5.468
 5280POPC   PO468880  33.708  39.386   5.328
 5280POPC   GL168881  33.836  39.215   5.761
 5280POPC   GL268882  34.192  39.230   5.887
 5280POPC   C1A68883  33.677  39.142   6.211
 5280POPC   D2A68884  33.440  39.047   6.601
 5280POPC   C3A68885  33.522  39.256   7.004
 5280POPC   C4A68886  33.610  39.396   7.436
 5280POPC   C1B68887  34.358  39.496   6.215
 5280POPC   C2B68888  34.212  39.578   6.665
 5280POPC   C3B68889  34.038  39.413   7.107
 5280POPC   C4B68890  34.056  39.125   7.487
 5281POPC   NC368891  39.056  13.757   5.518
 5281POPC   PO468892  39.490  13.233   5.592
 5281POPC   GL168893  39.310  13.506   5.901
 5281POPC   GL268894  39.462  13.868   5.897
 5281POPC   C1A68895  39.143  13.386   6.329
 5281POPC   D2A68896  38.965  13.439   6.769
 5281POPC   C3A68897  39.171  13.399   7.169
 5281POPC   C4A68898  39.287  13.633   7.561
 5281POPC   C1B68899  39.120  13.890   6.201
 5281POPC   C2B68900  38.910  13.912   6.590
 5281POPC   C3B68901  39.080  13.900   7.011
 5281POPC   C4B68902  38.847  13.746   7.333
 5282POPC   NC368903  14.897  32.806   5.639
 5282POPC   PO468904  15.360  33.265   5.456
 5282POPC   GL168905  15.377  33.073   5.841
 5282POPC   GL268906  15.674  32.922   5.823
 5282POPC   C1A68907  15.242  32.861   6.238
 5282POPC   D2A68908  15.000  32.995   6.604
 5282POPC   C3A68909  14.950  32.817   7.001
 5282POPC   C4A68910  15.131  32.837   7.393
 5282POPC   C1B68911  15.701  33.077   6.263
 5282POPC   C2B68912  15.526  33.040   6.647
 5282POPC   C3B68913  15.463  33.025   7.057
 5282POPC   C4B68914  15.481  33.195   7.477
 5283POPC   NC368915  34.876  20.082   5.382
 5283POPC   PO468916  34.551  19.568   5.220
 5283POPC   GL168917  34.621  19.583   5.703
 5283POPC   GL268918  34.903  19.794   5.783
 5283POPC   C1A68919  34.540  19.750   6.159
 5283POPC   D2A68920  34.351  19.923   6.550
 5283POPC   C3A68921  34.575  19.891   6.924
 5283POPC   C4A68922  34.537  19.523   7.165
 5283POPC   C1B68923  34.892  20.129   6.100
 5283POPC   C2B68924  34.847  20.090   6.528
 5283POPC   C3B68925  35.077  19.964   6.879
 5283POPC   C4B68926  35.082  20.168   7.262
 5284POPC   NC368927  31.859  16.888   5.496
 5284POPC   PO468928  31.201  16.605   5.567
 5284POPC   GL168929  31.470  16.808   5.865
 5284POPC   GL268930  31.734  16.556   5.890
 5284POPC   C1A68931  31.583  17.093   6.232
 5284POPC   D2A68932  31.454  17.194   6.677
 5284POPC   C3A68933  31.551  16.887   7.004
 5284POPC   C4A68934  31.800  16.888   7.388
 5284POPC   C1B68935  31.383  16.379   6.158
 5284POPC   C2B68936  31.215  16.172   6.530
 5284POPC   C3B68937  31.358  16.336   6.926
 5284POPC   C4B68938  31.687  16.417   7.213
 5285POPC   NC368939  42.824  43.500   5.451
 5285POPC   PO468940  43.518  43.707   5.411
 5285POPC   GL168941  43.169  43.805   5.736
 5285POPC   GL268942  43.030  44.147   5.832
 5285POPC   C1A68943  43.161  43.808   6.206
 5285POPC   D2A68944  43.235  43.559   6.589
 5285POPC   C3A68945  42.940  43.549   6.961
 5285POPC   C4A68946  42.966  43.592   7.420
 5285POPC   C1B68947  42.879  44.236   6.284
 5285POPC   C2B68948  42.927  44.015   6.714
 5285POPC   C3B68949  43.053  44.053   7.172
 5285POPC   C4B68950  43.143  44.337   7.554
 5286POPC   NC368951   5.678  19.141   5.549
 5286POPC   PO468952   6.083  18.671   5.356
 5286POPC   GL168953   5.919  18.753   5.775
 5286POPC   GL268954   6.050  19.047   5.930
 5286POPC   C1A68955   5.740  18.733   6.188
 5286POPC   D2A68956   5.880  18.941   6.552
 5286POPC   C3A68957   5.692  18.814   6.939
 5286POPC   C4A68958   5.978  18.720   7.275
 5286POPC   C1B68959   5.753  19.281   6.188
 5286POPC   C2B68960   5.518  19.284   6.569
 5286POPC   C3B68961   5.727  19.333   6.954
 5286POPC   C4B68962   5.670  19.160   7.320
 5287POPC   NC368963  30.982  22.263   5.461
 5287POPC   PO468964  30.309  22.444   5.517
 5287POPC   GL168965  30.548  22.163   5.829
 5287POPC   GL268966  30.869  22.238   5.961
 5287POPC   C1A68967  30.386  22.026   6.249
 5287POPC   D2A68968  30.524  21.874   6.657
 5287POPC   C3A68969  30.674  22.168   6.970
 5287POPC   C4A68970  30.693  22.287   7.401
 5287POPC   C1B68971  30.862  21.860   6.176
 5287POPC   C2B68972  31.020  21.817   6.568
 5287POPC   C3B68973  30.958  21.755   6.996
 5287POPC   C4B68974  31.135  22.092   7.250
 5288POPC   NC368975  15.731   6.142   5.546
 5288POPC   PO468976  16.250   5.731   5.567
 5288POPC   GL168977  16.166   5.790   5.937
 5288POPC   GL268978  16.086   6.112   5.916
 5288POPC   C1A68979  16.251   5.864   6.347
 5288POPC   D2A68980  16.009   5.820   6.711
 5288POPC   C3A68981  16.275   5.729   7.035
 5288POPC   C4A68982  16.237   5.948   7.411
 5288POPC   C1B68983  15.829   6.136   6.301
 5288POPC   C2B68984  15.817   6.303   6.726
 5288POPC   C3B68985  15.893   6.217   7.147
 5288POPC   C4B68986  15.760   6.097   7.566
 5289POPC   NC368987  29.268  43.687   5.403
 5289POPC   PO468988  29.005  44.366   5.516
 5289POPC   GL168989  29.042  44.062   5.887
 5289POPC   GL268990  29.068  43.706   5.851
 5289POPC   C1A68991  29.056  44.004   6.368
 5289POPC   D2A68992  28.973  44.016   6.823
 5289POPC   C3A68993  29.163  44.260   7.182
 5289POPC   C4A68994  29.147  44.159   7.660
 5289POPC   C1B68995  29.315  43.608   6.169
 5289POPC   C2B68996  29.168  43.533   6.587
 5289POPC   C3B68997  29.310  43.634   7.006
 5289POPC   C4B68998  29.049  43.804   7.308
 5290POPC   NC368999  13.391  20.709   5.356
 5290POPC   PO469000  12.869  20.366   5.456
 5290POPC   GL169001  12.926  20.680   5.733
 5290POPC   GL269002  12.613  20.868   5.761
 5290POPC   C1A69003  13.045  20.668   6.164
 5290POPC   D2A69004  12.872  20.451   6.504
 5290POPC   C3A69005  13.107  20.513   6.855
 5290POPC   C4A69006  12.904  20.551   7.226
 5290POPC   C1B69007  12.544  20.772   6.160
 5290POPC   C2B69008  12.646  20.935   6.567
 5290POPC   C3B69009  12.566  20.844   6.992
 5290POPC   C4B69010  12.557  20.904   7.442
 5291POPC   NC369011  18.476  24.912   5.480
 5291POPC   PO469012  18.010  25.447   5.538
 5291POPC   GL169013  18.121  25.354   5.931
 5291POPC   GL269014  18.415  25.210   5.897
 5291POPC   C1A69015  18.250  25.472   6.310
 5291POPC   D2A69016  18.484  25.342   6.654
 5291POPC   C3A69017  18.203  25.526   6.904
 5291POPC   C4A69018  18.286  25.694   7.260
 5291POPC   C1B69019  18.404  24.974   6.280
 5291POPC   C2B69020  18.558  24.834   6.680
 5291POPC   C3B69021  18.455  24.999   7.055
 5291POPC   C4B69022  18.106  25.170   7.253
 5292POPC   NC369023  28.466   6.887   5.592
 5292POPC   PO469024  28.497   6.217   5.640
 5292POPC   GL169025  28.401   6.495   5.924
 5292POPC   GL269026  28.709   6.661   5.983
 5292POPC   C1A69027  28.173   6.538   6.267
 5292POPC   D2A69028  28.281   6.399   6.675
 5292POPC   C3A69029  28.322   6.657   7.067
 5292POPC   C4A69030  28.327   6.532   7.542
 5292POPC   C1B69031  28.618   6.727   6.414
 5292POPC   C2B69032  28.778   6.610   6.785
 5292POPC   C3B69033  28.902   6.757   7.163
 5292POPC   C4B69034  28.663   6.882   7.490
 5293POPC   NC369035  23.204  38.384   5.290
 5293POPC   PO469036  22.812  38.762   5.407
 5293POPC   GL169037  23.030  38.568   5.794
 5293POPC   GL269038  23.125  38.823   6.029
 5293POPC   C1A69039  23.006  38.339   6.218
 5293POPC   D2A69040  22.711  38.205   6.547
 5293POPC   C3A69041  22.782  38.277   7.002
 5293POPC   C4A69042  23.179  38.309   7.229
 5293POPC   C1B69043  22.735  38.766   6.260
 5293POPC   C2B69044  22.678  38.690   6.699
 5293POPC   C3B69045  22.935  38.776   7.061
 5293POPC   C4B69046  23.020  38.954   7.487
 5294POPC   NC369047  11.499  41.064   5.402
 5294POPC   PO469048  11.296  40.402   5.500
 5294POPC   GL169049  11.331  40.772   5.792
 5294POPC   GL269050  11.655  40.835   5.876
 5294POPC   C1A69051  11.245  41.020   6.163
 5294POPC   D2A69052  11.196  40.855   6.552
 5294POPC   C3A69053  11.255  41.078   6.919
 5294POPC   C4A69054  11.154  41.039   7.339
 5294POPC   C1B69055  11.574  40.606   6.277
 5294POPC   C2B69056  11.578  40.546   6.751
 5294POPC   C3B69057  11.519  40.710   7.184
 5294POPC   C4B69058  11.626  40.538   7.593
 5295POPC   NC369059  44.100  38.988   5.481
 5295POPC   PO469060  43.664  38.524   5.435
 5295POPC   GL169061  43.783  38.423   5.860
 5295POPC   GL269062  43.865  38.063   5.923
 5295POPC   C1A69063  43.799  38.614   6.276
 5295POPC   D2A69064  44.070  38.557   6.635
 5295POPC   C3A69065  43.937  38.618   7.044
 5295POPC   C4A69066  43.967  38.598   7.475
 5295POPC   C1B69067  43.606  38.103   6.290
 5295POPC   C2B69068  43.531  38.361   6.649
 5295POPC   C3B69069  43.444  38.320   7.072
 5295POPC   C4B69070  43.465  38.200   7.496
 5296POPC   NC369071  12.702  24.878   5.219
 5296POPC   PO469072  13.173  25.203   5.569
 5296POPC   GL169073  12.985  25.299   5.921
 5296POPC   GL269074  13.287  25.478   6.001
 5296POPC   C1A69075  12.778  25.247   6.338
 5296POPC   D2A69076  12.568  25.064   6.699
 5296POPC   C3A69077  12.670  25.207   7.099
 5296POPC   C4A69078  12.865  25.111   7.476
 5296POPC   C1B69079  13.128  25.609   6.394
 5296POPC   C2B69080  12.996  25.498   6.810
 5296POPC   C3B69081  12.991  25.578   7.258
 5296POPC   C4B69082  12.870  25.941   7.520
 5297POPC   NC369083  28.916   0.203   5.338
 5297POPC   PO469084  28.336  44.786   5.353
 5297POPC   GL169085  28.184  44.694   5.773
 5297POPC   GL269086  28.010  44.414   5.791
 5297POPC   C1A69087  28.305  44.778   6.218
 5297POPC   D2A69088  28.442  44.982   6.592
 5297POPC   C3A69089  28.394  44.671   6.854
 5297POPC   C4A69090  28.493  44.754   7.212
 5297POPC   C1B69091  28.124  44.297   6.180
 5297POPC   C2B69092  28.001  44.460   6.558
 5297POPC   C3B69093  28.027  44.295   6.950
 5297POPC   C4B69094  28.094  44.487   7.322
 5298POPC   NC369095   3.534  11.844   5.554
 5298POPC   PO469096   3.957  12.258   5.411
 5298POPC   GL169097   3.723  12.274   5.828
 5298POPC   GL269098   3.572  11.987   6.021
 5298POPC   C1A69099   3.668  12.387   6.288
 5298POPC   D2A69100   3.451  12.108   6.584
 5298POPC   C3A69101   3.541  12.303   6.963
 5298POPC   C4A69102   3.502  12.187   7.393
 5298POPC   C1B69103   3.693  11.631   6.258
 5298POPC   C2B69104   3.622  11.561   6.682
 5298POPC   C3B69105   3.529  11.772   7.063
 5298POPC   C4B69106   3.696  11.726   7.488
 5299POPC   NC369107  31.982  14.008   5.294
 5299POPC   PO469108  32.456  13.535   5.453
 5299POPC   GL169109  32.472  13.662   5.831
 5299POPC   GL269110  32.109  13.670   5.901
 5299POPC   C1A69111  32.483  13.529   6.267
 5299POPC   D2A69112  32.516  13.791   6.620
 5299POPC   C3A69113  32.295  13.729   6.991
 5299POPC   C4A69114  32.538  13.402   7.110
 5299POPC   C1B69115  32.010  13.336   6.221
 5299POPC   C2B69116  32.055  13.411   6.657
 5299POPC   C3B69117  32.032  13.288   7.081
 5299POPC   C4B69118  31.769  13.309   7.426
 5300POPC   NC369119  15.678  36.356   5.462
 5300POPC   PO469120  16.186  35.874   5.260
 5300POPC   GL169121  16.107  36.088   5.682
 5300POPC   GL269122  15.789  35.968   5.790
 5300POPC   C1A69123  16.063  36.196   6.161
 5300POPC   D2A69124  16.107  35.939   6.574
 5300POPC   C3A69125  16.224  36.110   6.952
 5300POPC   C4A69126  15.975  36.313   7.239
 5300POPC   C1B69127  15.874  35.712   6.167
 5300POPC   C2B69128  15.713  35.597   6.602
 5300POPC   C3B69129  15.733  35.830   7.014
 5300POPC   C4B69130  15.763  35.927   7.481
 5301POPC   NC369131  15.511  37.827   5.614
 5301POPC   PO469132  14.906  37.706   5.429
 5301POPC   GL169133  15.081  37.636   5.816
 5301POPC   GL269134  15.322  37.383   5.807
 5301POPC   C1A69135  15.166  37.656   6.248
 5301POPC   D2A69136  15.162  37.400   6.591
 5301POPC   C3A69137  15.075  37.594   6.957
 5301POPC   C4A69138  15.294  37.634   7.322
 5301POPC   C1B69139  15.456  37.195   6.190
 5301POPC   C2B69140  15.575  37.084   6.615
 5301POPC   C3B69141  15.464  37.213   7.018
 5301POPC   C4B69142  15.718  37.365   7.361
 5302POPC   NC369143  16.085  42.837   5.386
 5302POPC   PO469144  16.153  43.476   5.356
 5302POPC   GL169145  15.977  43.198   5.749
 5302POPC   GL269146  15.825  42.833   5.830
 5302POPC   C1A69147  16.051  43.089   6.214
 5302POPC   D2A69148  16.256  43.014   6.610
 5302POPC   C3A69149  16.134  43.314   6.926
 5302POPC   C4A69150  16.121  43.093   7.303
 5302POPC   C1B69151  15.565  43.139   6.076
 5302POPC   C2B69152  15.574  43.181   6.518
 5302POPC   C3B69153  15.745  42.995   6.873
 5302POPC   C4B69154  15.610  43.047   7.266
 5303POPC   NC369155  11.072  34.876   5.523
 5303POPC   PO469156  11.597  34.396   5.375
 5303POPC   GL169157  11.427  34.519   5.784
 5303POPC   GL269158  11.054  34.472   5.841
 5303POPC   C1A69159  11.535  34.386   6.198
 5303POPC   D2A69160  11.353  34.362   6.617
 5303POPC   C3A69161  11.443  34.641   6.962
 5303POPC   C4A69162  11.579  34.545   7.364
 5303POPC   C1B69163  11.101  34.666   6.266
 5303POPC   C2B69164  10.873  34.546   6.650
 5303POPC   C3B69165  10.971  34.450   7.078
 5303POPC   C4B69166  11.125  34.742   7.406
 5304POPC   NC369167  39.495  40.671   5.238
 5304POPC   PO469168  39.041  41.145   5.336
 5304POPC   GL169169  39.071  40.783   5.637
 5304POPC   GL269170  39.410  40.668   5.781
 5304POPC   C1A69171  39.020  40.749   6.100
 5304POPC   D2A69172  39.008  40.576   6.499
 5304POPC   C3A69173  38.957  40.802   6.869
 5304POPC   C4A69174  39.127  40.531   7.181
 5304POPC   C1B69175  39.523  40.804   6.233
 5304POPC   C2B69176  39.589  41.024   6.638
 5304POPC   C3B69177  39.339  41.113   7.017
 5304POPC   C4B69178  38.952  41.198   7.263
 5305POPC   NC369179   1.931  33.727   5.356
 5305POPC   PO469180   2.146  34.327   5.453
 5305POPC   GL169181   2.141  34.017   5.784
 5305POPC   GL269182   1.870  33.821   5.872
 5305POPC   C1A69183   2.252  33.819   6.179
 5305POPC   D2A69184   2.421  33.526   6.415
 5305POPC   C3A69185   2.269  33.623   6.812
 5305POPC   C4A69186   2.014  33.744   7.189
 5305POPC   C1B69187   1.705  33.905   6.290
 5305POPC   C2B69188   1.561  33.968   6.724
 5305POPC   C3B69189   1.533  33.929   7.160
 5305POPC   C4B69190   1.522  33.518   7.401
 5306POPC   NC369191  29.110  42.040   5.298
 5306POPC   PO469192  29.457  42.546   5.369
 5306POPC   GL169193  29.237  42.319   5.735
 5306POPC   GL269194  28.961  42.049   5.814
 5306POPC   C1A69195  29.377  42.194   6.154
 5306POPC   D2A69196  29.349  42.428   6.545
 5306POPC   C3A69197  29.472  42.231   6.900
 5306POPC   C4A69198  29.350  42.329   7.288
 5306POPC   C1B69199  28.908  42.046   6.285
 5306POPC   C2B69200  28.947  42.153   6.722
 5306POPC   C3B69201  28.855  42.232   7.154
 5306POPC   C4B69202  29.013  41.952   7.455
 5307POPC   NC369203   6.325   2.146   5.499
 5307POPC   PO469204   7.032   2.247   5.498
 5307POPC   GL169205   6.719   2.220   5.821
 5307POPC   GL269206   6.560   1.857   5.875
 5307POPC   C1A69207   6.700   2.179   6.248
 5307POPC   D2A69208   6.722   1.914   6.580
 5307POPC   C3A69209   6.667   2.151   6.933
 5307POPC   C4A69210   6.744   2.070   7.352
 5307POPC   C1B69211   6.386   1.571   6.220
 5307POPC   C2B69212   6.476   1.471   6.691
 5307POPC   C3B69213   6.501   1.683   7.120
 5307POPC   C4B69214   6.426   1.787   7.625
 5308POPC   NC369215  15.675  20.590   5.236
 5308POPC   PO469216  16.035  20.239   5.591
 5308POPC   GL169217  15.842  20.663   5.746
 5308POPC   GL269218  16.038  20.959   5.816
 5308POPC   C1A69219  15.656  20.794   6.169
 5308POPC   D2A69220  15.439  20.581   6.514
 5308POPC   C3A69221  15.566  20.610   6.957
 5308POPC   C4A69222  15.832  20.766   7.321
 5308POPC   C1B69223  16.162  20.675   6.160
 5308POPC   C2B69224  15.961  20.498   6.546
 5308POPC   C3B69225  16.060  20.424   7.002
 5308POPC   C4B69226  16.292  20.440   7.398
 5309POPC   NC369227  16.029  35.500   5.462
 5309POPC   PO469228  16.120  34.878   5.312
 5309POPC   GL169229  16.180  35.089   5.707
 5309POPC   GL269230  15.848  35.134   5.798
 5309POPC   C1A69231  16.230  35.350   6.093
 5309POPC   D2A69232  16.337  35.387   6.525
 5309POPC   C3A69233  16.094  35.423   6.899
 5309POPC   C4A69234  16.127  35.648   7.274
 5309POPC   C1B69235  15.747  35.217   6.239
 5309POPC   C2B69236  15.650  35.076   6.664
 5309POPC   C3B69237  15.782  35.058   7.113
 5309POPC   C4B69238  16.114  35.164   7.418
 5310POPC   NC369239  32.953   0.117   5.196
 5310POPC   PO469240  32.846  44.509   5.470
 5310POPC   GL169241  32.945  44.419   5.820
 5310POPC   GL269242  33.304  44.424   5.847
 5310POPC   C1A69243  32.937  44.526   6.232
 5310POPC   D2A69244  33.226  44.372   6.535
 5310POPC   C3A69245  33.196  44.530   6.960
 5310POPC   C4A69246  33.001  44.328   7.337
 5310POPC   C1B69247  33.383  44.759   6.181
 5310POPC   C2B69248  33.319  44.921   6.616
 5310POPC   C3B69249  33.445   0.038   7.055
 5310POPC   C4B69250  33.436   0.062   7.546
 5311POPC   NC369251  16.656   0.619   5.393
 5311POPC   PO469252  17.040   0.149   5.067
 5311POPC   GL169253  16.997   0.251   5.559
 5311POPC   GL269254  16.669   0.235   5.768
 5311POPC   C1A69255  17.053   0.485   5.981
 5311POPC   D2A69256  16.899   0.404   6.430
 5311POPC   C3A69257  16.976   0.663   6.833
 5311POPC   C4A69258  16.863   0.478   7.275
 5311POPC   C1B69259  16.528   0.571   6.091
 5311POPC   C2B69260  16.398   0.571   6.531
 5311POPC   C3B69261  16.479   0.586   6.971
 5311POPC   C4B69262  16.549   0.902   7.337
 5312POPC   NC369263  39.514  35.815   5.433
 5312POPC   PO469264  39.120  35.280   5.396
 5312POPC   GL169265  39.262  35.201   5.818
 5312POPC   GL269266  39.356  35.542   5.849
 5312POPC   C1A69267  39.398  35.258   6.261
 5312POPC   D2A69268  39.168  35.359   6.629
 5312POPC   C3A69269  39.371  35.176   6.988
 5312POPC   C4A69270  39.332  35.101   7.438
 5312POPC   C1B69271  38.935  35.507   6.102
 5312POPC   C2B69272  38.705  35.573   6.509
 5312POPC   C3B69273  38.842  35.619   6.941
 5312POPC   C4B69274  39.113  35.508   7.263
 5313POPC   NC369275  10.987  16.540   5.301
 5313POPC   PO469276  11.265  17.077   5.124
 5313POPC   GL169277  11.137  16.907   5.608
 5313POPC   GL269278  11.319  16.999   5.840
 5313POPC   C1A69279  11.223  16.574   6.031
 5313POPC   D2A69280  11.129  16.563   6.508
 5313POPC   C3A69281  11.157  16.641   6.982
 5313POPC   C4A69282  10.943  16.667   7.371
 5313POPC   C1B69283  11.067  17.040   6.231
 5313POPC   C2B69284  11.171  17.068   6.684
 5313POPC   C3B69285  11.413  17.086   7.059
 5313POPC   C4B69286  11.408  16.877   7.431
 5314POPC   NC369287  29.377  29.472   5.518
 5314POPC   PO469288  28.946  29.865   5.138
 5314POPC   GL169289  28.937  29.806   5.637
 5314POPC   GL269290  29.063  29.575   5.909
 5314POPC   C1A69291  29.056  30.067   6.036
 5314POPC   D2A69292  29.154  30.080   6.492
 5314POPC   C3A69293  28.906  29.996   6.877
 5314POPC   C4A69294  29.164  29.785   7.166
 5314POPC   C1B69295  29.452  29.760   6.152
 5314POPC   C2B69296  29.644  29.762   6.579
 5314POPC   C3B69297  29.631  29.556   7.012
 5314POPC   C4B69298  29.636  29.669   7.460
 5315POPC   NC369299  28.826  13.239   5.421
 5315POPC   PO469300  28.430  12.788   5.188
 5315POPC   GL169301  28.440  12.672   5.751
 5315POPC   GL269302  28.557  12.926   5.949
 5315POPC   C1A69303  28.342  12.484   6.182
 5315POPC   D2A69304  28.440  12.464   6.647
 5315POPC   C3A69305  28.240  12.754   6.950
 5315POPC   C4A69306  28.450  12.993   7.237
 5315POPC   C1B69307  28.165  12.964   6.216
 5315POPC   C2B69308  28.062  13.137   6.607
 5315POPC   C3B69309  28.037  13.308   7.023
 5315POPC   C4B69310  27.997  13.124   7.447
 5316POPC   NC369311  16.459  25.697   5.126
 5316POPC   PO469312  16.952  25.926   5.526
 5316POPC   GL169313  17.006  26.009   5.939
 5316POPC   GL269314  16.651  25.979   5.962
 5316POPC   C1A69315  16.893  26.035   6.387
 5316POPC   D2A69316  16.735  25.824   6.757
 5316POPC   C3A69317  16.862  26.073   7.095
 5316POPC   C4A69318  17.272  26.033   7.193
 5316POPC   C1B69319  16.447  25.785   6.301
 5316POPC   C2B69320  16.238  25.931   6.692
 5316POPC   C3B69321  16.343  26.104   7.100
 5316POPC   C4B69322  16.458  26.014   7.526
 5317POPC   NC369323  36.545  37.768   5.577
 5317POPC   PO469324  36.827  38.197   5.337
 5317POPC   GL169325  37.000  37.895   5.751
 5317POPC   GL269326  36.919  37.519   5.833
 5317POPC   C1A69327  36.813  37.807   6.216
 5317POPC   D2A69328  36.603  37.993   6.572
 5317POPC   C3A69329  36.714  37.777   6.936
 5317POPC   C4A69330  36.966  37.831   7.244
 5317POPC   C1B69331  37.182  37.441   6.225
 5317POPC   C2B69332  37.109  37.552   6.685
 5317POPC   C3B69333  37.028  37.335   7.095
 5317POPC   C4B69334  37.224  37.214   7.486
 5318POPC   NC369335  29.604   5.256   5.523
 5318POPC   PO469336  29.016   4.971   5.718
 5318POPC   GL169337  29.320   5.104   5.950
 5318POPC   GL269338  29.269   5.421   5.918
 5318POPC   C1A69339  29.320   5.246   6.399
 5318POPC   D2A69340  29.046   5.005   6.648
 5318POPC   C3A69341  29.203   5.000   7.041
 5318POPC   C4A69342  28.996   4.756   7.298
 5318POPC   C1B69343  28.888   5.419   6.236
 5318POPC   C2B69344  28.877   5.480   6.688
 5318POPC   C3B69345  28.738   5.224   7.065
 5318POPC   C4B69346  28.792   5.171   7.502
 5319POPC   NC369347  13.625  42.357   5.470
 5319POPC   PO469348  14.285  42.200   5.648
 5319POPC   GL169349  13.867  42.322   5.917
 5319POPC   GL269350  13.548  42.140   5.916
 5319POPC   C1A69351  13.537  42.467   6.269
 5319POPC   D2A69352  13.483  42.699   6.612
 5319POPC   C3A69353  13.582  42.444   6.963
 5319POPC   C4A69354  13.660  42.529   7.398
 5319POPC   C1B69355  13.408  41.965   6.259
 5319POPC   C2B69356  13.593  42.010   6.613
 5319POPC   C3B69357  13.370  41.984   6.959
 5319POPC   C4B69358  13.601  42.038   7.317
 5320POPC   NC369359  23.046  27.366   5.393
 5320POPC   PO469360  23.006  27.999   5.526
 5320POPC   GL169361  22.812  27.665   5.785
 5320POPC   GL269362  22.588  27.403   5.648
 5320POPC   C1A69363  22.924  27.542   6.197
 5320POPC   D2A69364  23.111  27.701   6.576
 5320POPC   C3A69365  22.981  27.484   6.951
 5320POPC   C4A69366  22.827  27.676   7.324
 5320POPC   C1B69367  22.584  27.166   6.057
 5320POPC   C2B69368  22.713  27.188   6.526
 5320POPC   C3B69369  22.641  26.959   6.935
 5320POPC   C4B69370  22.806  27.161   7.344
 5321POPC   NC369371   7.486  35.218   5.320
 5321POPC   PO469372   6.980  35.667   5.420
 5321POPC   GL169373   7.194  35.396   5.769
 5321POPC   GL269374   7.532  35.297   5.815
 5321POPC   C1A69375   7.023  35.158   6.112
 5321POPC   D2A69376   6.974  35.338   6.515
 5321POPC   C3A69377   7.299  35.333   6.849
 5321POPC   C4A69378   7.285  35.235   7.305
 5321POPC   C1B69379   7.485  35.249   6.263
 5321POPC   C2B69380   7.687  35.550   6.512
 5321POPC   C3B69381   7.814  35.521   6.910
 5321POPC   C4B69382   7.750  35.168   7.164
 5322POPC   NC369383  28.201  10.968   5.444
 5322POPC   PO469384  28.824  11.323   5.458
 5322POPC   GL169385  28.497  11.273   5.783
 5322POPC   GL269386  28.519  11.597   5.943
 5322POPC   C1A69387  28.283  11.194   6.191
 5322POPC   D2A69388  28.062  11.071   6.554
 5322POPC   C3A69389  28.262  11.016   6.909
 5322POPC   C4A69390  28.252  11.168   7.278
 5322POPC   C1B69391  28.196  11.693   6.239
 5322POPC   C2B69392  28.125  11.579   6.674
 5322POPC   C3B69393  28.443  11.568   7.019
 5322POPC   C4B69394  28.465  11.616   7.497
 5323POPC   NC369395  19.440  39.596   5.685
 5323POPC   PO469396  19.877  39.920   5.220
 5323POPC   GL169397  19.868  40.094   5.662
 5323POPC   GL269398  19.881  39.809   5.840
 5323POPC   C1A69399  20.014  40.234   6.089
 5323POPC   D2A69400  19.860  40.360   6.503
 5323POPC   C3A69401  19.885  40.117   6.880
 5323POPC   C4A69402  20.119  40.311   7.218
 5323POPC   C1B69403  19.734  39.852   6.298
 5323POPC   C2B69404  19.607  39.664   6.713
 5323POPC   C3B69405  19.602  39.748   7.143
 5323POPC   C4B69406  19.676  40.084   7.376
 5324POPC   NC369407  39.392  37.273   5.473
 5324POPC   PO469408  39.014  37.745   5.349
 5324POPC   GL169409  39.090  37.571   5.797
 5324POPC   GL269410  39.415  37.666   5.924
 5324POPC   C1A69411  38.994  37.738   6.236
 5324POPC   D2A69412  38.950  37.995   6.623
 5324POPC   C3A69413  39.190  37.780   6.956
 5324POPC   C4A69414  39.202  37.573   7.369
 5324POPC   C1B69415  39.350  37.343   6.231
 5324POPC   C2B69416  39.473  37.286   6.652
 5324POPC   C3B69417  39.591  37.454   7.042
 5324POPC   C4B69418  39.569  37.199   7.364
 5325POPC   NC369419   3.449  13.536   5.335
 5325POPC   PO469420   3.696  14.121   5.427
 5325POPC   GL169421   3.810  13.763   5.695
 5325POPC   GL269422   3.482  13.712   5.831
 5325POPC   C1A69423   3.892  13.531   6.086
 5325POPC   D2A69424   3.910  13.601   6.538
 5325POPC   C3A69425   3.669  13.570   6.928
 5325POPC   C4A69426   3.788  13.327   7.272
 5325POPC   C1B69427   3.552  13.876   6.264
 5325POPC   C2B69428   3.281  14.148   6.541
 5325POPC   C3B69429   3.143  14.118   6.993
 5325POPC   C4B69430   3.349  13.876   7.347
 5326POPC   NC369431  22.606  42.141   5.170
 5326POPC   PO469432  21.893  42.271   5.232
 5326POPC   GL169433  22.182  42.296   5.651
 5326POPC   GL269434  21.950  42.458   5.854
 5326POPC   C1A69435  22.328  42.353   6.138
 5326POPC   D2A69436  22.306  42.063   6.516
 5326POPC   C3A69437  22.344  42.260   6.942
 5326POPC   C4A69438  22.185  42.527   7.295
 5326POPC   C1B69439  21.847  42.118   6.140
 5326POPC   C2B69440  21.706  42.144   6.557
 5326POPC   C3B69441  21.832  41.984   6.957
 5326POPC   C4B69442  21.679  42.181   7.325
 5327POPC   NC369443  20.815  13.922   5.465
 5327POPC   PO469444  20.200  13.658   5.402
 5327POPC   GL169445  20.473  13.615   5.809
 5327POPC   GL269446  20.788  13.715   5.952
 5327POPC   C1A69447  20.460  13.400   6.214
 5327POPC   D2A69448  20.365  13.251   6.629
 5327POPC   C3A69449  20.661  13.405   6.943
 5327POPC   C4A69450  20.468  13.475   7.328
 5327POPC   C1B69451  20.817  13.730   6.391
 5327POPC   C2B69452  20.937  13.887   6.789
 5327POPC   C3B69453  20.670  13.918   7.151
 5327POPC   C4B69454  20.693  14.075   7.566
 5328POPC   NC369455  26.315  40.293   5.294
 5328POPC   PO469456  25.921  39.704   5.425
 5328POPC   GL169457  25.957  40.010   5.777
 5328POPC   GL269458  26.316  40.123   5.805
 5328POPC   C1A69459  26.038  40.010   6.255
 5328POPC   D2A69460  26.202  39.708   6.558
 5328POPC   C3A69461  26.050  39.786   6.967
 5328POPC   C4A69462  26.141  40.074   7.262
 5328POPC   C1B69463  26.516  39.856   6.152
 5328POPC   C2B69464  26.690  39.945   6.556
 5328POPC   C3B69465  26.560  40.034   6.974
 5328POPC   C4B69466  26.535  39.706   7.251
 5329POPC   NC369467  36.827  14.142   5.541
 5329POPC   PO469468  37.170  14.757   5.429
 5329POPC   GL169469  37.161  14.475   5.790
 5329POPC   GL269470  36.810  14.488   5.930
 5329POPC   C1A69471  37.139  14.186   6.170
 5329POPC   D2A69472  37.219  14.015   6.589
 5329POPC   C3A69473  37.006  14.245   6.909
 5329POPC   C4A69474  36.684  14.161   7.220
 5329POPC   C1B69475  36.623  14.165   6.237
 5329POPC   C2B69476  36.528  14.198   6.705
 5329POPC   C3B69477  36.631  14.601   6.936
 5329POPC   C4B69478  36.534  14.877   7.321
 5330POPC   NC369479  10.886  10.785   5.453
 5330POPC   PO469480  10.342  10.691   5.335
 5330POPC   GL169481  10.531  10.605   5.788
 5330POPC   GL269482  10.826  10.371   5.757
 5330POPC   C1A69483  10.358  10.560   6.247
 5330POPC   D2A69484  10.381  10.762   6.687
 5330POPC   C3A69485  10.398  10.570   7.104
 5330POPC   C4A69486  10.207  10.471   7.528
 5330POPC   C1B69487  10.849  10.434   6.200
 5330POPC   C2B69488  10.804  10.448   6.643
 5330POPC   C3B69489  10.931  10.563   7.051
 5330POPC   C4B69490  11.126  10.859   7.335
 5331POPC   NC369491  27.545  21.945   5.330
 5331POPC   PO469492  27.829  22.456   5.500
 5331POPC   GL169493  27.734  22.288   5.880
 5331POPC   GL269494  27.466  22.015   5.838
 5331POPC   C1A69495  27.750  22.247   6.333
 5331POPC   D2A69496  27.684  22.452   6.720
 5331POPC   C3A69497  27.745  22.234   7.091
 5331POPC   C4A69498  27.909  21.788   7.203
 5331POPC   C1B69499  27.279  22.294   6.123
 5331POPC   C2B69500  27.180  22.376   6.556
 5331POPC   C3B69501  27.251  22.183   6.947
 5331POPC   C4B69502  27.418  21.880   7.257
 5332POPC   NC369503   8.422  14.670   5.686
 5332POPC   PO469504   7.910  14.223   5.675
 5332POPC   GL169505   8.105  14.406   5.983
 5332POPC   GL269506   7.813  14.638   6.037
 5332POPC   C1A69507   8.395  14.392   6.343
 5332POPC   D2A69508   8.108  14.490   6.692
 5332POPC   C3A69509   8.062  14.313   7.071
 5332POPC   C4A69510   8.422  14.068   7.180
 5332POPC   C1B69511   8.090  14.821   6.303
 5332POPC   C2B69512   8.444  14.853   6.577
 5332POPC   C3B69513   8.570  14.616   6.959
 5332POPC   C4B69514   8.379  14.557   7.378
 5333POPC   NC369515  37.904   7.010   5.468
 5333POPC   PO469516  37.788   7.578   5.187
 5333POPC   GL169517  37.658   7.433   5.682
 5333POPC   GL269518  37.911   7.319   5.880
 5333POPC   C1A69519  37.533   7.548   6.139
 5333POPC   D2A69520  37.282   7.516   6.547
 5333POPC   C3A69521  37.438   7.560   6.998
 5333POPC   C4A69522  37.531   7.454   7.425
 5333POPC   C1B69523  37.818   7.130   6.285
 5333POPC   C2B69524  37.740   7.265   6.709
 5333POPC   C3B69525  37.843   7.161   7.136
 5333POPC   C4B69526  37.903   7.150   7.585
 5334POPC   NC369527   4.645  17.329   5.486
 5334POPC   PO469528   4.004  17.582   5.284
 5334POPC   GL169529   4.267  17.644   5.659
 5334POPC   GL269530   4.190  17.379   5.804
 5334POPC   C1A69531   4.515  17.628   6.097
 5334POPC   D2A69532   4.791  17.690   6.451
 5334POPC   C3A69533   4.612  17.502   6.813
 5334POPC   C4A69534   4.364  17.665   7.173
 5334POPC   C1B69535   4.217  17.163   6.171
 5334POPC   C2B69536   4.333  17.133   6.584
 5334POPC   C3B69537   4.071  17.332   6.873
 5334POPC   C4B69538   4.003  17.221   7.276
 5335POPC   NC369539  14.986  34.668   5.375
 5335POPC   PO469540  15.449  34.226   5.180
 5335POPC   GL169541  15.376  34.577   5.665
 5335POPC   GL269542  15.092  34.794   5.860
 5335POPC   C1A69543  15.527  34.758   6.099
 5335POPC   D2A69544  15.245  34.735   6.479
 5335POPC   C3A69545  15.291  34.810   6.931
 5335POPC   C4A69546  15.123  34.656   7.327
 5335POPC   C1B69547  15.051  34.408   6.074
 5335POPC   C2B69548  14.909  34.313   6.496
 5335POPC   C3B69549  14.886  34.450   6.910
 5335POPC   C4B69550  14.778  34.294   7.289
 5336POPC   NC369551   4.141  40.259   5.100
 5336POPC   PO469552   4.699  39.880   5.344
 5336POPC   GL169553   4.521  39.976   5.729
 5336POPC   GL269554   4.329  39.693   5.866
 5336POPC   C1A69555   4.576  39.997   6.174
 5336POPC   D2A69556   4.341  39.857   6.532
 5336POPC   C3A69557   4.300  40.193   6.840
 5336POPC   C4A69558   4.476  39.934   7.143
 5336POPC   C1B69559   3.975  39.823   6.154
 5336POPC   C2B69560   3.885  40.093   6.508
 5336POPC   C3B69561   3.903  39.868   6.878
 5336POPC   C4B69562   4.006  39.724   7.239
 5337POPC   NC369563  43.523  39.457   5.298
 5337POPC   PO469564  42.911  39.359   5.454
 5337POPC   GL169565  43.272  39.277   5.710
 5337POPC   GL269566  43.530  39.512   5.797
 5337POPC   C1A69567  43.369  39.140   6.114
 5337POPC   D2A69568  43.086  39.281   6.452
 5337POPC   C3A69569  43.107  39.154   6.859
 5337POPC   C4A69570  42.872  39.146   7.246
 5337POPC   C1B69571  43.362  39.632   6.216
 5337POPC   C2B69572  43.458  39.596   6.648
 5337POPC   C3B69573  43.427  39.546   7.068
 5337POPC   C4B69574  43.371  39.198   7.337
 5338POPC   NC369575  31.713   1.927   5.381
 5338POPC   PO469576  31.148   1.686   5.639
 5338POPC   GL169577  31.504   1.882   5.854
 5338POPC   GL269578  31.856   1.757   5.845
 5338POPC   C1A69579  31.387   2.075   6.229
 5338POPC   D2A69580  31.090   1.872   6.493
 5338POPC   C3A69581  31.157   1.989   6.925
 5338POPC   C4A69582  31.200   2.181   7.340
 5338POPC   C1B69583  31.788   1.736   6.295
 5338POPC   C2B69584  31.586   1.806   6.688
 5338POPC   C3B69585  31.637   2.046   7.077
 5338POPC   C4B69586  31.626   1.977   7.555
 5339POPC   NC369587  13.626  30.309   5.353
 5339POPC   PO469588  13.194  29.791   5.377
 5339POPC   GL169589  13.437  29.924   5.709
 5339POPC   GL269590  13.304  30.241   5.749
 5339POPC   C1A69591  13.696  29.982   6.077
 5339POPC   D2A69592  13.872  30.127   6.475
 5339POPC   C3A69593  13.639  29.939   6.811
 5339POPC   C4A69594  13.686  29.840   7.238
 5339POPC   C1B69595  13.205  30.270   6.135
 5339POPC   C2B69596  13.391  30.305   6.502
 5339POPC   C3B69597  13.254  30.287   6.918
 5339POPC   C4B69598  13.212  30.086   7.310
 5340POPC   NC369599  41.830  32.026   5.384
 5340POPC   PO469600  41.162  32.200   5.531
 5340POPC   GL169601  41.383  32.404   5.831
 5340POPC   GL269602  41.726  32.415   5.732
 5340POPC   C1A69603  41.454  32.523   6.253
 5340POPC   D2A69604  41.511  32.542   6.696
 5340POPC   C3A69605  41.347  32.190   6.952
 5340POPC   C4A69606  41.531  32.383   7.280
 5340POPC   C1B69607  41.748  32.101   6.070
 5340POPC   C2B69608  41.651  32.073   6.516
 5340POPC   C3B69609  41.845  32.143   6.919
 5340POPC   C4B69610  41.875  31.912   7.267
 5341POPC   NC369611  19.914  36.881   5.525
 5341POPC   PO469612  19.508  37.357   5.594
 5341POPC   GL169613  19.672  37.064   5.932
 5341POPC   GL269614  19.645  36.689   5.939
 5341POPC   C1A69615  19.890  36.922   6.319
 5341POPC   D2A69616  19.729  36.694   6.706
 5341POPC   C3A69617  19.952  36.869   7.083
 5341POPC   C4A69618  20.251  36.698   7.393
 5341POPC   C1B69619  19.393  36.832   6.289
 5341POPC   C2B69620  19.227  36.998   6.663
 5341POPC   C3B69621  19.418  36.961   7.065
 5341POPC   C4B69622  19.538  36.600   7.217
 5342POPC   NC369623   9.994   3.700   5.329
 5342POPC   PO469624   9.509   3.244   5.418
 5342POPC   GL169625   9.773   3.332   5.792
 5342POPC   GL269626   9.898   3.669   5.835
 5342POPC   C1A69627   9.578   3.451   6.201
 5342POPC   D2A69628   9.757   3.388   6.601
 5342POPC   C3A69629   9.610   3.689   6.861
 5342POPC   C4A69630   9.496   3.536   7.229
 5342POPC   C1B69631  10.060   3.543   6.220
 5342POPC   C2B69632  10.061   3.806   6.609
 5342POPC   C3B69633  10.095   3.675   7.023
 5342POPC   C4B69634   9.959   3.704   7.449
 5343POPC   NC369635  37.625  14.712   5.343
 5343POPC   PO469636  38.006  14.210   5.417
 5343POPC   GL169637  37.696  14.350   5.721
 5343POPC   GL269638  37.886  14.621   5.791
 5343POPC   C1A69639  37.569  14.442   6.164
 5343POPC   D2A69640  37.671  14.281   6.576
 5343POPC   C3A69641  37.508  14.362   6.981
 5343POPC   C4A69642  37.640  14.510   7.398
 5343POPC   C1B69643  37.866  14.845   6.184
 5343POPC   C2B69644  37.817  14.778   6.613
 5343POPC   C3B69645  37.577  14.858   6.971
 5343POPC   C4B69646  37.559  15.030   7.355
 5344POPC   NC369647  33.770  44.562   5.353
 5344POPC   PO469648  33.625   0.132   5.410
 5344POPC   GL169649  33.715  44.820   5.794
 5344POPC   GL269650  33.815  44.425   5.837
 5344POPC   C1A69651  33.894  44.725   6.226
 5344POPC   D2A69652  33.698  44.565   6.579
 5344POPC   C3A69653  33.827  44.709   6.959
 5344POPC   C4A69654  33.612  44.630   7.311
 5344POPC   C1B69655  34.004  44.201   6.214
 5344POPC   C2B69656  33.941  44.120   6.678
 5344POPC   C3B69657  33.964  44.246   7.126
 5344POPC   C4B69658  34.107  44.561   7.443
 5345POPC   NC369659  41.957  43.003   5.510
 5345POPC   PO469660  42.650  43.078   5.409
 5345POPC   GL169661  42.427  43.219   5.780
 5345POPC   GL269662  42.250  42.921   5.918
 5345POPC   C1A69663  42.324  43.346   6.216
 5345POPC   D2A69664  42.327  43.251   6.675
 5345POPC   C3A69665  42.405  43.376   7.125
 5345POPC   C4A69666  42.211  43.231   7.527
 5345POPC   C1B69667  42.329  42.816   6.341
 5345POPC   C2B69668  42.143  42.785   6.745
 5345POPC   C3B69669  42.048  42.971   7.127
 5345POPC   C4B69670  41.890  42.787   7.527
 5346POPC   NC369671  22.470  39.047   5.439
 5346POPC   PO469672  22.039  39.483   5.171
 5346POPC   GL169673  22.093  39.478   5.666
 5346POPC   GL269674  22.146  39.140   5.835
 5346POPC   C1A69675  22.217  39.540   6.147
 5346POPC   D2A69676  22.322  39.268   6.534
 5346POPC   C3A69677  22.427  39.356   6.976
 5346POPC   C4A69678  22.514  39.088   7.366
 5346POPC   C1B69679  22.241  38.882   6.221
 5346POPC   C2B69680  22.184  38.798   6.681
 5346POPC   C3B69681  22.069  38.988   7.095
 5346POPC   C4B69682  21.684  39.123   7.333
 5347POPC   NC369683  22.633   9.319   5.401
 5347POPC   PO469684  22.024   9.127   5.051
 5347POPC   GL169685  22.164   9.057   5.597
 5347POPC   GL269686  22.398   9.247   5.859
 5347POPC   C1A69687  22.034   8.998   6.082
 5347POPC   D2A69688  22.272   8.950   6.502
 5347POPC   C3A69689  22.099   8.898   6.943
 5347POPC   C4A69690  21.810   8.676   7.236
 5347POPC   C1B69691  22.519   9.479   6.251
 5347POPC   C2B69692  22.537   9.357   6.688
 5347POPC   C3B69693  22.573   9.083   7.015
 5347POPC   C4B69694  22.876   8.984   7.351
 5348POPC   NC369695   1.730  36.258   5.413
 5348POPC   PO469696   2.359  36.035   5.474
 5348POPC   GL169697   2.060  36.179   5.776
 5348POPC   GL269698   1.807  35.906   5.772
 5348POPC   C1A69699   2.020  36.382   6.160
 5348POPC   D2A69700   2.128  36.155   6.532
 5348POPC   C3A69701   1.947  36.214   6.946
 5348POPC   C4A69702   1.819  36.452   7.289
 5348POPC   C1B69703   1.726  35.961   6.230
 5348POPC   C2B69704   1.788  35.771   6.655
 5348POPC   C3B69705   1.886  35.718   7.107
 5348POPC   C4B69706   1.691  35.671   7.541
 5349POPC   NC369707  32.504  19.372   5.431
 5349POPC   PO469708  32.067  18.816   5.409
 5349POPC   GL169709  32.121  19.081   5.778
 5349POPC   GL269710  32.448  19.203   5.914
 5349POPC   C1A69711  31.999  18.951   6.189
 5349POPC   D2A69712  32.241  18.859   6.565
 5349POPC   C3A69713  32.080  18.865   6.985
 5349POPC   C4A69714  32.354  19.072   7.277
 5349POPC   C1B69715  32.292  19.353   6.332
 5349POPC   C2B69716  32.296  19.337   6.808
 5349POPC   C3B69717  32.630  19.448   7.089
 5349POPC   C4B69718  32.626  19.607   7.526
 5350POPC   NC369719  13.609  40.589   5.253
 5350POPC   PO469720  13.454  41.282   5.413
 5350POPC   GL169721  13.698  40.961   5.633
 5350POPC   GL269722  13.784  41.171   5.906
 5350POPC   C1A69723  13.724  40.636   5.989
 5350POPC   D2A69724  13.625  40.740   6.439
 5350POPC   C3A69725  13.804  40.553   6.822
 5350POPC   C4A69726  13.738  40.575   7.273
 5350POPC   C1B69727  13.354  40.984   6.056
 5350POPC   C2B69728  13.218  41.046   6.492
 5350POPC   C3B69729  13.368  40.885   6.885
 5350POPC   C4B69730  13.670  41.074   7.096
 5351POPC   NC369731  42.614  24.931   5.615
 5351POPC   PO469732  42.216  25.299   5.140
 5351POPC   GL169733  42.220  25.367   5.637
 5351POPC   GL269734  42.517  25.391   5.897
 5351POPC   C1A69735  42.106  25.159   6.074
 5351POPC   D2A69736  42.290  25.152   6.495
 5351POPC   C3A69737  42.073  25.182   6.886
 5351POPC   C4A69738  42.151  25.385   7.279
 5351POPC   C1B69739  42.765  25.372   6.269
 5351POPC   C2B69740  42.793  25.122   6.633
 5351POPC   C3B69741  42.585  25.200   7.016
 5351POPC   C4B69742  42.578  25.177   7.446
 5352POPC   NC369743  29.613  14.970   5.508
 5352POPC   PO469744  30.086  15.337   5.281
 5352POPC   GL169745  30.040  15.291   5.755
 5352POPC   GL269746  29.787  15.066   5.964
 5352POPC   C1A69747  30.050  15.456   6.176
 5352POPC   D2A69748  30.119  15.173   6.535
 5352POPC   C3A69749  29.879  15.088   6.927
 5352POPC   C4A69750  30.036  15.180   7.338
 5352POPC   C1B69751  29.900  14.763   6.303
 5352POPC   C2B69752  29.981  14.596   6.716
 5352POPC   C3B69753  29.951  14.605   7.142
 5352POPC   C4B69754  29.710  14.813   7.382
 5353POPC   NC369755   5.911  34.957   5.099
 5353POPC   PO469756   5.699  34.366   5.450
 5353POPC   GL169757   5.663  34.603   5.818
 5353POPC   GL269758   5.927  34.844   5.882
 5353POPC   C1A69759   5.637  34.651   6.257
 5353POPC   D2A69760   5.920  34.605   6.578
 5353POPC   C3A69761   5.840  34.867   6.883
 5353POPC   C4A69762   5.574  34.747   7.195
 5353POPC   C1B69763   6.165  34.896   6.237
 5353POPC   C2B69764   6.390  34.808   6.609
 5353POPC   C3B69765   6.291  34.664   7.012
 5353POPC   C4B69766   6.062  34.829   7.351
 5354POPC   NC369767  26.355  39.622   5.547
 5354POPC   PO469768  26.820  39.208   5.446
 5354POPC   GL169769  26.753  39.297   5.850
 5354POPC   GL269770  26.684  38.948   5.920
 5354POPC   C1A69771  26.715  39.334   6.293
 5354POPC   D2A69772  26.960  39.489   6.628
 5354POPC   C3A69773  26.900  39.370   7.092
 5354POPC   C4A69774  26.931  39.468   7.574
 5354POPC   C1B69775  26.499  38.842   6.305
 5354POPC   C2B69776  26.303  38.983   6.680
 5354POPC   C3B69777  26.481  39.012   7.095
 5354POPC   C4B69778  26.473  39.256   7.474
 5355POPC   NC369779  15.207  10.095   5.332
 5355POPC   PO469780  15.628   9.584   5.325
 5355POPC   GL169781  15.503   9.760   5.734
 5355POPC   GL269782  15.709  10.003   5.866
 5355POPC   C1A69783  15.414   9.671   6.189
 5355POPC   D2A69784  15.129   9.718   6.514
 5355POPC   C3A69785  15.116   9.676   6.944
 5355POPC   C4A69786  15.017   9.825   7.375
 5355POPC   C1B69787  15.704  10.086   6.314
 5355POPC   C2B69788  15.582   9.853   6.688
 5355POPC   C3B69789  15.589   9.684   7.097
 5355POPC   C4B69790  15.504   9.835   7.487
 5356POPC   NC369791   4.132   9.706   5.304
 5356POPC   PO469792   4.682   9.387   5.345
 5356POPC   GL169793   4.564   9.645   5.748
 5356POPC   GL269794   4.191   9.709   5.800
 5356POPC   C1A69795   4.475   9.851   6.177
 5356POPC   D2A69796   4.247   9.863   6.618
 5356POPC   C3A69797   4.474   9.723   7.027
 5356POPC   C4A69798   4.728  10.011   7.334
 5356POPC   C1B69799   3.965   9.930   6.129
 5356POPC   C2B69800   3.772  10.070   6.529
 5356POPC   C3B69801   3.872  10.071   6.976
 5356POPC   C4B69802   4.024   9.751   7.267
 5357POPC   NC369803   2.287   2.072   5.210
 5357POPC   PO469804   1.884   2.353   5.588
 5357POPC   GL169805   2.166   2.257   5.878
 5357POPC   GL269806   2.201   1.928   5.770
 5357POPC   C1A69807   2.038   2.203   6.305
 5357POPC   D2A69808   2.063   2.318   6.716
 5357POPC   C3A69809   2.041   1.991   7.030
 5357POPC   C4A69810   2.013   2.032   7.478
 5357POPC   C1B69811   2.311   1.796   6.175
 5357POPC   C2B69812   2.419   1.929   6.613
 5357POPC   C3B69813   2.480   1.737   7.014
 5357POPC   C4B69814   2.453   1.798   7.458
 5358POPC   NC369815  30.112  43.404   5.491
 5358POPC   PO469816  30.070  42.853   5.072
 5358POPC   GL169817  29.772  43.038   5.545
 5358POPC   GL269818  29.886  42.846   5.840
 5358POPC   C1A69819  29.623  43.207   6.021
 5358POPC   D2A69820  29.625  43.325   6.474
 5358POPC   C3A69821  29.828  43.244   6.881
 5358POPC   C4A69822  29.841  43.567   7.189
 5358POPC   C1B69823  30.078  42.938   6.237
 5358POPC   C2B69824  30.250  42.729   6.626
 5358POPC   C3B69825  30.076  42.809   7.017
 5358POPC   C4B69826  30.130  42.893   7.432
 5359POPC   NC369827  10.423  31.856   5.355
 5359POPC   PO469828  10.590  32.585   5.259
 5359POPC   GL169829  10.565  32.246   5.662
 5359POPC   GL269830  10.324  32.397   5.926
 5359POPC   C1A69831  10.709  32.149   6.128
 5359POPC   D2A69832  10.602  32.349   6.531
 5359POPC   C3A69833  10.383  32.110   6.844
 5359POPC   C4A69834  10.547  31.962   7.243
 5359POPC   C1B69835  10.205  32.668   6.268
 5359POPC   C2B69836  10.326  32.771   6.682
 5359POPC   C3B69837  10.490  32.562   7.023
 5359POPC   C4B69838  10.271  32.370   7.322
 5360POPC   NC369839  35.964  14.143   5.580
 5360POPC   PO469840  36.198  13.558   5.380
 5360POPC   GL169841  36.113  13.630   5.818
 5360POPC   GL269842  36.278  13.931   5.925
 5360POPC   C1A69843  36.179  13.518   6.261
 5360POPC   D2A69844  35.956  13.399   6.629
 5360POPC   C3A69845  36.197  13.545   6.961
 5360POPC   C4A69846  36.350  13.633   7.358
 5360POPC   C1B69847  35.899  13.922   6.232
 5360POPC   C2B69848  36.028  13.924   6.662
 5360POPC   C3B69849  36.186  14.050   7.092
 5360POPC   C4B69850  36.043  13.981   7.533
 5361POPC   NC369851  19.137  35.392   5.302
 5361POPC   PO469852  19.562  34.950   5.507
 5361POPC   GL169853  19.222  35.212   5.790
 5361POPC   GL269854  18.815  35.252   5.783
 5361POPC   C1A69855  19.120  35.304   6.249
 5361POPC   D2A69856  19.253  35.129   6.670
 5361POPC   C3A69857  19.140  35.355   7.061
 5361POPC   C4A69858  19.242  35.394   7.524
 5361POPC   C1B69859  18.628  35.434   6.202
 5361POPC   C2B69860  18.754  35.219   6.611
 5361POPC   C3B69861  18.631  35.283   7.048
 5361POPC   C4B69862  18.782  35.649   7.299
 5362POPC   NC369863  20.451  13.251   5.467
 5362POPC   PO469864  20.762  12.655   5.383
 5362POPC   GL169865  20.572  12.840   5.764
 5362POPC   GL269866  20.764  13.128   5.868
 5362POPC   C1A69867  20.484  12.895   6.228
 5362POPC   D2A69868  20.771  12.941   6.601
 5362POPC   C3A69869  20.545  12.905   6.997
 5362POPC   C4A69870  20.363  12.711   7.341
 5362POPC   C1B69871  20.964  12.736   6.121
 5362POPC   C2B69872  21.089  12.432   6.488
 5362POPC   C3B69873  20.909  12.513   6.911
 5362POPC   C4B69874  21.067  12.890   7.117
 5363POPC   NC369875  24.896  27.624   5.488
 5363POPC   PO469876  25.497  27.908   5.299
 5363POPC   GL169877  25.378  27.708   5.754
 5363POPC   GL269878  25.046  27.609   5.953
 5363POPC   C1A69879  25.559  27.464   6.156
 5363POPC   D2A69880  25.520  27.197   6.545
 5363POPC   C3A69881  25.408  27.328   6.988
 5363POPC   C4A69882  24.990  27.289   7.213
 5363POPC   C1B69883  25.245  27.859   6.239
 5363POPC   C2B69884  25.387  27.691   6.619
 5363POPC   C3B69885  25.176  27.796   7.005
 5363POPC   C4B69886  25.068  27.719   7.450
 5364POPC   NC369887  11.149  33.007   5.424
 5364POPC   PO469888  11.785  32.813   5.195
 5364POPC   GL169889  11.631  32.994   5.635
 5364POPC   GL269890  11.620  33.375   5.638
 5364POPC   C1A69891  11.507  32.844   6.107
 5364POPC   D2A69892  11.564  32.631   6.525
 5364POPC   C3A69893  11.439  32.757   6.959
 5364POPC   C4A69894  11.478  32.769   7.431
 5364POPC   C1B69895  11.568  33.348   6.093
 5364POPC   C2B69896  11.451  33.430   6.528
 5364POPC   C3B69897  11.367  33.257   6.936
 5364POPC   C4B69898  11.572  33.260   7.336
 5365POPC   NC369899  32.623  33.043   5.577
 5365POPC   PO469900  31.984  32.853   5.545
 5365POPC   GL169901  32.192  33.108   5.846
 5365POPC   GL269902  32.427  33.449   5.784
 5365POPC   C1A69903  32.351  32.879   6.224
 5365POPC   D2A69904  32.551  32.932   6.636
 5365POPC   C3A69905  32.476  32.587   6.924
 5365POPC   C4A69906  32.286  32.735   7.302
 5365POPC   C1B69907  32.310  33.398   6.225
 5365POPC   C2B69908  32.276  33.547   6.615
 5365POPC   C3B69909  32.426  33.355   6.932
 5365POPC   C4B69910  32.313  33.243   7.300
 5366POPC   NC369911  31.505  42.893   5.372
 5366POPC   PO469912  31.221  43.532   5.509
 5366POPC   GL169913  31.490  43.295   5.755
 5366POPC   GL269914  31.244  43.062   5.776
 5366POPC   C1A69915  31.489  43.335   6.210
 5366POPC   D2A69916  31.560  43.145   6.608
 5366POPC   C3A69917  31.378  43.322   6.978
 5366POPC   C4A69918  31.647  43.357   7.323
 5366POPC   C1B69919  31.502  42.828   6.075
 5366POPC   C2B69920  31.393  42.667   6.505
 5366POPC   C3B69921  31.615  42.720   6.901
 5366POPC   C4B69922  31.470  42.888   7.272
 5367POPC   NC369923  23.187  11.233   5.436
 5367POPC   PO469924  22.561  11.107   5.472
 5367POPC   GL169925  22.733  11.295   5.870
 5367POPC   GL269926  23.066  11.466   5.861
 5367POPC   C1A69927  22.876  11.188   6.295
 5367POPC   D2A69928  23.017  11.018   6.693
 5367POPC   C3A69929  22.754  11.156   7.040
 5367POPC   C4A69930  22.610  11.527   7.233
 5367POPC   C1B69931  23.325  11.396   6.211
 5367POPC   C2B69932  23.439  11.313   6.629
 5367POPC   C3B69933  23.263  11.316   7.046
 5367POPC   C4B69934  23.328  11.504   7.448
 5368POPC   NC369935  22.304  23.707   5.517
 5368POPC   PO469936  21.988  23.171   5.217
 5368POPC   GL169937  21.857  23.380   5.764
 5368POPC   GL269938  21.842  23.754   5.794
 5368POPC   C1A69939  21.955  23.490   6.228
 5368POPC   D2A69940  22.085  23.768   6.583
 5368POPC   C3A69941  22.380  23.665   6.912
 5368POPC   C4A69942  22.243  23.392   7.257
 5368POPC   C1B69943  21.963  24.040   6.148
 5368POPC   C2B69944  21.787  24.193   6.546
 5368POPC   C3B69945  21.979  24.118   6.938
 5368POPC   C4B69946  22.211  23.966   7.278
 5369POPC   NC369947  27.382  32.219   5.507
 5369POPC   PO469948  26.702  32.288   5.352
 5369POPC   GL169949  26.906  32.353   5.739
 5369POPC   GL269950  26.953  32.016   5.790
 5369POPC   C1A69951  26.950  32.303   6.211
 5369POPC   D2A69952  27.005  32.620   6.518
 5369POPC   C3A69953  27.040  32.516   6.913
 5369POPC   C4A69954  26.836  32.319   7.204
 5369POPC   C1B69955  26.616  31.843   6.038
 5369POPC   C2B69956  26.427  31.997   6.427
 5369POPC   C3B69957  26.483  31.906   6.869
 5369POPC   C4B69958  26.711  31.823   7.245
 5370POPC   NC369959  12.630  33.687   5.453
 5370POPC   PO469960  13.099  34.180   5.469
 5370POPC   GL169961  13.154  33.864   5.820
 5370POPC   GL269962  12.891  33.626   5.898
 5370POPC   C1A69963  13.074  33.936   6.281
 5370POPC   D2A69964  12.787  33.824   6.630
 5370POPC   C3A69965  12.800  33.862   7.085
 5370POPC   C4A69966  13.004  33.667   7.430
 5370POPC   C1B69967  12.775  33.397   6.290
 5370POPC   C2B69968  12.466  33.429   6.642
 5370POPC   C3B69969  12.597  33.380   7.068
 5370POPC   C4B69970  12.523  33.569   7.448
 5371POPC   NC369971   6.095   3.009   5.409
 5371POPC   PO469972   5.591   2.672   5.443
 5371POPC   GL169973   5.725   2.740   5.808
 5371POPC   GL269974   5.734   3.116   5.769
 5371POPC   C1A69975   5.781   2.542   6.226
 5371POPC   D2A69976   5.603   2.623   6.645
 5371POPC   C3A69977   5.791   2.471   7.032
 5371POPC   C4A69978   5.627   2.618   7.430
 5371POPC   C1B69979   6.079   2.958   6.063
 5371POPC   C2B69980   6.059   2.899   6.503
 5371POPC   C3B69981   5.895   2.973   6.920
 5371POPC   C4B69982   6.067   2.836   7.313
 5372POPC   NC369983  27.178  44.734   5.208
 5372POPC   PO469984  26.452  44.787   5.362
 5372POPC   GL169985  26.705  44.735   5.755
 5372POPC   GL269986  27.078  44.810   5.706
 5372POPC   C1A69987  26.760  44.495   6.160
 5372POPC   D2A69988  26.600  44.361   6.578
 5372POPC   C3A69989  26.683  44.645   6.933
 5372POPC   C4A69990  26.679  44.699   7.372
 5372POPC   C1B69991  27.217  44.735   6.129
 5372POPC   C2B69992  27.090  44.615   6.589
 5372POPC   C3B69993  27.181  44.839   7.009
 5372POPC   C4B69994  27.153  44.875   7.474
 5373POPC   NC369995   1.216  40.973   5.370
 5373POPC   PO469996   0.614  41.054   5.119
 5373POPC   GL169997   0.777  40.995   5.636
 5373POPC   GL269998   1.076  41.153   5.840
 5373POPC   C1A69999   0.887  40.766   6.090
 5373POPC   D2A70000   1.131  40.483   6.393
 5373POPC   C3A70001   1.118  40.498   6.863
 5373POPC   C4A70002   1.061  40.817   7.191
 5373POPC   C1B70003   1.416  41.036   6.167
 5373POPC   C2B70004   1.415  40.862   6.619
 5373POPC   C3B70005   1.520  41.004   7.049
 5373POPC   C4B70006   1.629  41.412   7.242
 5374POPC   NC370007   4.095  25.636   5.554
 5374POPC   PO470008   4.706  25.575   5.374
 5374POPC   GL170009   4.648  25.397   5.790
 5374POPC   GL270010   4.484  25.685   5.898
 5374POPC   C1A70011   4.395  25.196   6.185
 5374POPC   D2A70012   4.354  24.988   6.641
 5374POPC   C3A70013   4.389  25.170   7.090
 5374POPC   C4A70014   4.157  25.223   7.505
 5374POPC   C1B70015   4.698  25.579   6.272
 5374POPC   C2B70016   4.535  25.473   6.679
 5374POPC   C3B70017   4.308  25.678   7.023
 5374POPC   C4B70018   4.377  25.676   7.459
 5375POPC   NC370019  27.901  44.610   5.322
 5375POPC   PO470020  27.305  44.274   5.224
 5375POPC   GL170021  27.500  44.415   5.659
 5375POPC   GL270022  27.602  44.759   5.723
 5375POPC   C1A70023  27.644  44.476   6.128
 5375POPC   D2A70024  27.571  44.748   6.505
 5375POPC   C3A70025  27.599  44.566   6.916
 5375POPC   C4A70026  27.636  44.719   7.320
 5375POPC   C1B70027  27.827  44.948   6.082
 5375POPC   C2B70028  27.946   0.080   6.528
 5375POPC   C3B70029  27.978  44.926   6.986
 5375POPC   C4B70030  28.102  44.981   7.471
 5376POPC   NC370031   3.252   8.551   5.548
 5376POPC   PO470032   3.717   8.070   5.391
 5376POPC   GL170033   3.725   8.280   5.820
 5376POPC   GL270034   3.426   8.339   5.972
 5376POPC   C1A70035   3.804   8.506   6.254
 5376POPC   D2A70036   3.560   8.328   6.589
 5376POPC   C3A70037   3.722   8.391   7.003
 5376POPC   C4A70038   3.829   8.266   7.434
 5376POPC   C1B70039   3.172   8.120   6.264
 5376POPC   C2B70040   3.047   8.214   6.652
 5376POPC   C3B70041   3.212   8.452   6.952
 5376POPC   C4B70042   3.360   8.492   7.353
 5377POPC   NC370043  29.618  21.155   5.357
 5377POPC   PO470044  30.130  21.541   5.586
 5377POPC   GL170045  29.996  21.264   5.907
 5377POPC   GL270046  29.688  21.035   5.851
 5377POPC   C1A70047  29.972  21.367   6.347
 5377POPC   D2A70048  30.161  21.521   6.746
 5377POPC   C3A70049  30.119  21.339   7.186
 5377POPC   C4A70050  30.161  21.513   7.619
 5377POPC   C1B70051  29.552  21.095   6.284
 5377POPC   C2B70052  29.664  21.188   6.718
 5377POPC   C3B70053  29.688  21.070   7.125
 5377POPC   C4B70054  29.713  21.300   7.515
 5378POPC   NC370055  33.938   4.081   5.377
 5378POPC   PO470056  33.722   3.474   5.430
 5378POPC   GL170057  33.739   3.756   5.806
 5378POPC   GL270058  34.090   3.893   5.821
 5378POPC   C1A70059  33.549   3.701   6.247
 5378POPC   D2A70060  33.637   3.572   6.699
 5378POPC   C3A70061  33.516   3.770   7.101
 5378POPC   C4A70062  33.463   3.562   7.525
 5378POPC   C1B70063  34.076   3.769   6.237
 5378POPC   C2B70064  34.012   3.920   6.644
 5378POPC   C3B70065  34.103   3.808   7.078
 5378POPC   C4B70066  33.989   3.635   7.483
 5379POPC   NC370067  13.278  12.759   5.150
 5379POPC   PO470068  13.821  12.580   5.284
 5379POPC   GL170069  13.702  12.585   5.750
 5379POPC   GL270070  14.022  12.543   5.886
 5379POPC   C1A70071  13.690  12.892   6.144
 5379POPC   D2A70072  13.817  13.161   6.528
 5379POPC   C3A70073  13.522  13.162   6.894
 5379POPC   C4A70074  13.634  13.211   7.331
 5379POPC   C1B70075  13.892  12.446   6.296
 5379POPC   C2B70076  13.821  12.666   6.652
 5379POPC   C3B70077  13.901  12.831   7.031
 5379POPC   C4B70078  13.759  12.499   7.225
 5380POPC   NC370079  39.182  31.000   5.383
 5380POPC   PO470080  39.142  30.354   5.432
 5380POPC   GL170081  39.123  30.667   5.783
 5380POPC   GL270082  39.439  30.892   5.806
 5380POPC   C1A70083  38.970  30.592   6.190
 5380POPC   D2A70084  39.137  30.607   6.556
 5380POPC   C3A70085  38.903  30.669   6.887
 5380POPC   C4A70086  39.091  30.362   7.091
 5380POPC   C1B70087  39.523  30.698   6.190
 5380POPC   C2B70088  39.559  30.879   6.581
 5380POPC   C3B70089  39.410  30.822   7.002
 5380POPC   C4B70090  39.593  30.836   7.412
 5381POPC   NC370091  40.905  24.729   5.524
 5381POPC   PO470092  40.733  24.089   5.296
 5381POPC   GL170093  40.627  24.196   5.782
 5381POPC   GL270094  40.676  24.562   5.946
 5381POPC   C1A70095  40.772  24.143   6.241
 5381POPC   D2A70096  40.612  24.440   6.571
 5381POPC   C3A70097  40.738  24.509   7.013
 5381POPC   C4A70098  40.592  24.408   7.423
 5381POPC   C1B70099  41.025  24.593   6.285
 5381POPC   C2B70100  41.117  24.348   6.671
 5381POPC   C3B70101  41.244  24.354   7.099
 5381POPC   C4B70102  41.196  24.219   7.518
 5382POPC   NC370103   6.719  39.905   5.519
 5382POPC   PO470104   6.348  40.435   5.677
 5382POPC   GL170105   6.344  40.000   5.834
 5382POPC   GL270106   6.628  40.140   6.013
 5382POPC   C1A70107   6.436  39.729   6.197
 5382POPC   D2A70108   6.362  39.910   6.584
 5382POPC   C3A70109   6.651  40.010   6.890
 5382POPC   C4A70110   6.566  40.065   7.296
 5382POPC   C1B70111   6.922  40.200   6.335
 5382POPC   C2B70112   7.098  40.209   6.719
 5382POPC   C3B70113   6.974  40.337   7.131
 5382POPC   C4B70114   7.011  40.230   7.547
 5383POPC   NC370115  17.382  25.772   5.577
 5383POPC   PO470116  17.549  26.383   5.536
 5383POPC   GL170117  17.602  26.115   5.908
 5383POPC   GL270118  17.873  25.853   5.834
 5383POPC   C1A70119  17.384  25.911   6.259
 5383POPC   D2A70120  17.283  25.929   6.694
 5383POPC   C3A70121  17.554  26.259   6.833
 5383POPC   C4A70122  17.652  26.369   7.233
 5383POPC   C1B70123  17.948  25.940   6.282
 5383POPC   C2B70124  17.794  25.807   6.669
 5383POPC   C3B70125  17.729  25.796   7.129
 5383POPC   C4B70126  17.890  25.643   7.557
 5384POPC   NC370127  23.356  28.308   5.524
 5384POPC   PO470128  22.631  28.470   5.383
 5384POPC   GL170129  22.873  28.394   5.799
 5384POPC   GL270130  22.675  28.523   5.998
 5384POPC   C1A70131  22.876  28.096   6.180
 5384POPC   D2A70132  22.816  28.269   6.581
 5384POPC   C3A70133  22.916  28.040   6.935
 5384POPC   C4A70134  22.738  28.192   7.296
 5384POPC   C1B70135  23.056  28.596   6.247
 5384POPC   C2B70136  23.048  28.756   6.673
 5384POPC   C3B70137  23.000  28.590   7.085
 5384POPC   C4B70138  23.273  28.280   7.248
 5385POPC   NC370139  15.148  39.747   5.389
 5385POPC   PO470140  14.885  40.391   5.497
 5385POPC   GL170141  15.148  40.061   5.814
 5385POPC   GL270142  15.432  39.767   5.821
 5385POPC   C1A70143  15.116  39.806   6.237
 5385POPC   D2A70144  14.812  39.802   6.590
 5385POPC   C3A70145  15.010  40.096   6.844
 5385POPC   C4A70146  15.144  40.274   7.223
 5385POPC   C1B70147  15.595  39.990   6.158
 5385POPC   C2B70148  15.448  40.133   6.546
 5385POPC   C3B70149  15.527  40.041   6.962
 5385POPC   C4B70150  15.294  39.720   7.136
 5386POPC   NC370151  25.969  44.994   5.246
 5386POPC   PO470152  26.120   0.552   5.564
 5386POPC   GL170153  25.869   0.411   5.889
 5386POPC   GL270154  25.786   0.134   5.753
 5386POPC   C1A70155  25.752   0.518   6.326
 5386POPC   D2A70156  25.997   0.608   6.681
 5386POPC   C3A70157  26.014   0.423   7.069
 5386POPC   C4A70158  26.384   0.403   7.301
 5386POPC   C1B70159  25.916   0.022   6.210
 5386POPC   C2B70160  25.901   0.108   6.660
 5386POPC   C3B70161  25.851  44.930   7.056
 5386POPC   C4B70162  25.769   0.154   7.458
 5387POPC   NC370163   0.178  15.615   5.375
 5387POPC   PO470164   0.218  16.282   5.407
 5387POPC   GL170165   0.430  16.147   5.767
 5387POPC   GL270166   0.211  15.930   5.937
 5387POPC   C1A70167   0.565  16.261   6.180
 5387POPC   D2A70168   0.762  16.258   6.591
 5387POPC   C3A70169   0.531  16.136   6.939
 5387POPC   C4A70170   0.345  16.021   7.328
 5387POPC   C1B70171   0.564  15.733   6.181
 5387POPC   C2B70172   0.730  15.741   6.624
 5387POPC   C3B70173   0.579  15.633   7.069
 5387POPC   C4B70174   0.394  15.536   7.504
 5388POPC   NC370175   7.960  36.640   5.375
 5388POPC   PO470176   8.001  37.268   5.594
 5388POPC   GL170177   8.294  37.072   5.818
 5388POPC   GL270178   8.093  36.770   5.872
 5388POPC   C1A70179   8.283  37.169   6.262
 5388POPC   D2A70180   8.100  36.929   6.593
 5388POPC   C3A70181   8.293  37.112   6.928
 5388POPC   C4A70182   8.366  37.423   7.214
 5388POPC   C1B70183   8.456  36.709   6.163
 5388POPC   C2B70184   8.603  36.836   6.584
 5388POPC   C3B70185   8.492  36.647   6.972
 5388POPC   C4B70186   8.041  36.710   7.107
 5389POPC   NC370187   2.776   6.228   5.016
 5389POPC   PO470188   2.431   6.599   5.452
 5389POPC   GL170189   2.708   6.600   5.772
 5389POPC   GL270190   2.865   6.300   5.782
 5389POPC   C1A70191   2.692   6.580   6.188
 5389POPC   D2A70192   2.435   6.466   6.493
 5389POPC   C3A70193   2.685   6.536   6.876
 5389POPC   C4A70194   2.864   6.359   7.268
 5389POPC   C1B70195   3.168   6.420   6.115
 5389POPC   C2B70196   3.095   6.626   6.538
 5389POPC   C3B70197   3.204   6.593   6.969
 5389POPC   C4B70198   2.974   6.857   7.265
 5390POPC   NC370199  41.082  20.418   5.241
 5390POPC   PO470200  40.491  20.421   5.656
 5390POPC   GL170201  40.818  20.502   5.860
 5390POPC   GL270202  40.996  20.178   5.748
 5390POPC   C1A70203  40.803  20.724   6.271
 5390POPC   D2A70204  41.030  20.666   6.657
 5390POPC   C3A70205  40.777  20.776   6.991
 5390POPC   C4A70206  40.825  20.935   7.385
 5390POPC   C1B70207  40.862  20.120   6.186
 5390POPC   C2B70208  40.694  20.265   6.577
 5390POPC   C3B70209  40.879  20.272   6.999
 5390POPC   C4B70210  40.688  20.438   7.417
 5391POPC   NC370211   1.849   5.386   5.474
 5391POPC   PO470212   1.911   6.057   5.570
 5391POPC   GL170213   1.733   5.913   5.945
 5391POPC   GL270214   1.844   5.564   5.960
 5391POPC   C1A70215   1.552   6.046   6.357
 5391POPC   D2A70216   1.659   5.870   6.766
 5391POPC   C3A70217   1.863   6.138   7.070
 5391POPC   C4A70218   1.730   6.251   7.464
 5391POPC   C1B70219   1.969   5.728   6.360
 5391POPC   C2B70220   2.210   6.011   6.610
 5391POPC   C3B70221   2.313   5.882   6.985
 5391POPC   C4B70222   1.977   5.633   7.140
 5392POPC   NC370223  31.267   1.231   5.552
 5392POPC   PO470224  31.825   1.448   5.405
 5392POPC   GL170225  31.697   1.248   5.807
 5392POPC   GL270226  31.945   0.949   5.868
 5392POPC   C1A70227  31.421   1.388   6.206
 5392POPC   D2A70228  31.211   1.401   6.657
 5392POPC   C3A70229  31.478   1.371   7.046
 5392POPC   C4A70230  31.606   1.371   7.506
 5392POPC   C1B70231  31.928   1.237   6.234
 5392POPC   C2B70232  31.709   1.201   6.599
 5392POPC   C3B70233  31.847   1.027   6.962
 5392POPC   C4B70234  32.034   1.200   7.286
 5393POPC   NC370235   9.430  44.913   5.546
 5393POPC   PO470236  10.034   0.058   5.703
 5393POPC   GL170237   9.845  44.730   5.922
 5393POPC   GL270238   9.473  44.599   5.941
 5393POPC   C1A70239  10.043  44.809   6.308
 5393POPC   D2A70240   9.852  44.979   6.706
 5393POPC   C3A70241  10.093  44.963   7.076
 5393POPC   C4A70242  10.261  44.727   7.413
 5393POPC   C1B70243   9.567  44.695   6.358
 5393POPC   C2B70244   9.858  44.461   6.630
 5393POPC   C3B70245   9.775  44.394   7.020
 5393POPC   C4B70246   9.636  44.712   7.275
 5394POPC   NC370247  18.110  39.707   5.540
 5394POPC   PO470248  18.247  40.354   5.512
 5394POPC   GL170249  18.066  40.165   5.829
 5394POPC   GL270250  18.421  40.094   5.918
 5394POPC   C1A70251  18.031  40.203   6.265
 5394POPC   D2A70252  18.295  40.042   6.594
 5394POPC   C3A70253  18.449  40.091   7.023
 5394POPC   C4A70254  18.150  39.980   7.331
 5394POPC   C1B70255  18.452  39.745   6.169
 5394POPC   C2B70256  18.552  39.593   6.570
 5394POPC   C3B70257  18.331  39.606   6.958
 5394POPC   C4B70258  18.470  39.514   7.346
 5395POPC   NC370259   5.579  20.899   5.532
 5395POPC   PO470260   6.028  21.393   5.417
 5395POPC   GL170261   5.887  21.551   5.806
 5395POPC   GL270262   5.869  21.215   5.940
 5395POPC   C1A70263   5.987  21.611   6.232
 5395POPC   D2A70264   6.226  21.436   6.538
 5395POPC   C3A70265   5.956  21.381   6.886
 5395POPC   C4A70266   5.892  21.636   7.250
 5395POPC   C1B70267   5.854  21.119   6.408
 5395POPC   C2B70268   5.484  20.930   6.667
 5395POPC   C3B70269   5.445  20.891   7.125
 5395POPC   C4B70270   5.494  21.142   7.517
 5396POPC   NC370271  18.110  36.604   5.393
 5396POPC   PO470272  18.132  36.067   5.071
 5396POPC   GL170273  18.093  36.133   5.585
 5396POPC   GL270274  18.403  36.299   5.716
 5396POPC   C1A70275  18.169  35.970   6.037
 5396POPC   D2A70276  18.407  35.911   6.410
 5396POPC   C3A70277  18.382  35.921   6.867
 5396POPC   C4A70278  18.248  35.978   7.300
 5396POPC   C1B70279  18.597  36.347   6.156
 5396POPC   C2B70280  18.786  36.234   6.563
 5396POPC   C3B70281  18.648  36.343   6.953
 5396POPC   C4B70282  18.536  36.410   7.361
 5397POPC   NC370283   3.138  14.517   5.542
 5397POPC   PO470284   3.733  14.838   5.342
 5397POPC   GL170285   3.597  14.600   5.768
 5397POPC   GL270286   3.609  14.248   5.900
 5397POPC   C1A70287   3.437  14.585   6.246
 5397POPC   D2A70288   3.581  14.521   6.721
 5397POPC   C3A70289   3.349  14.612   7.138
 5397POPC   C4A70290   3.256  14.351   7.523
 5397POPC   C1B70291   3.853  14.282   6.287
 5397POPC   C2B70292   3.861  14.080   6.641
 5397POPC   C3B70293   3.648  14.083   6.978
 5397POPC   C4B70294   3.709  14.318   7.328
 5398POPC   NC370295  10.361  44.010   5.377
 5398POPC   PO470296  10.884  43.702   5.578
 5398POPC   GL170297  10.622  43.957   5.839
 5398POPC   GL270298  10.238  43.928   5.861
 5398POPC   C1A70299  10.665  44.143   6.246
 5398POPC   D2A70300  10.757  44.357   6.636
 5398POPC   C3A70301  10.714  44.012   6.941
 5398POPC   C4A70302  10.616  43.844   7.354
 5398POPC   C1B70303  10.371  43.637   6.166
 5398POPC   C2B70304  10.583  43.696   6.544
 5398POPC   C3B70305  10.455  43.554   6.946
 5398POPC   C4B70306  10.531  43.313   7.314
 5399POPC   NC370307  20.090  14.864   5.609
 5399POPC   PO470308  19.697  14.482   5.141
 5399POPC   GL170309  19.800  14.469   5.651
 5399POPC   GL270310  19.623  14.718   5.854
 5399POPC   C1A70311  19.863  14.301   6.110
 5399POPC   D2A70312  20.028  14.137   6.536
 5399POPC   C3A70313  19.862  14.198   6.964
 5399POPC   C4A70314  19.613  13.927   7.248
 5399POPC   C1B70315  19.841  14.783   6.256
 5399POPC   C2B70316  20.086  14.651   6.641
 5399POPC   C3B70317  19.915  14.719   7.044
 5399POPC   C4B70318  19.452  14.778   7.097
 5400POPC   NC370319  28.040   8.589   5.565
 5400POPC   PO470320  27.727   9.116   5.253
 5400POPC   GL170321  27.597   8.884   5.672
 5400POPC   GL270322  27.588   8.531   5.794
 5400POPC   C1A70323  27.530   8.923   6.126
 5400POPC   D2A70324  27.462   8.948   6.574
 5400POPC   C3A70325  27.746   9.171   6.824
 5400POPC   C4A70326  27.742   9.164   7.271
 5400POPC   C1B70327  27.713   8.448   6.241
 5400POPC   C2B70328  27.664   8.504   6.694
 5400POPC   C3B70329  27.916   8.696   7.012
 5400POPC   C4B70330  27.918   8.737   7.479
 5401POPC   NC370331  33.240  34.590   5.376
 5401POPC   PO470332  32.969  35.134   5.225
 5401POPC   GL170333  32.975  34.879   5.711
 5401POPC   GL270334  33.017  34.447   5.807
 5401POPC   C1A70335  33.121  34.770   6.175
 5401POPC   D2A70336  33.273  34.558   6.578
 5401POPC   C3A70337  33.082  34.647   7.000
 5401POPC   C4A70338  33.180  34.766   7.438
 5401POPC   C1B70339  32.901  34.276   6.257
 5401POPC   C2B70340  32.949  34.224   6.732
 5401POPC   C3B70341  33.235  34.133   7.056
 5401POPC   C4B70342  33.228  34.173   7.479
 5402POPC   NC370343  18.886   2.895   5.510
 5402POPC   PO470344  19.296   2.288   5.529
 5402POPC   GL170345  19.144   2.590   5.835
 5402POPC   GL270346  18.999   2.364   6.046
 5402POPC   C1A70347  18.996   2.888   6.187
 5402POPC   D2A70348  19.062   2.746   6.637
 5402POPC   C3A70349  19.223   2.974   6.967
 5402POPC   C4A70350  18.903   3.102   7.211
 5402POPC   C1B70351  18.698   2.504   6.344
 5402POPC   C2B70352  18.628   2.485   6.768
 5402POPC   C3B70353  18.741   2.528   7.177
 5402POPC   C4B70354  18.614   2.630   7.597
 5403POPC   NC370355  24.753  29.118   5.514
 5403POPC   PO470356  24.066  29.310   5.563
 5403POPC   GL170357  24.333  29.275   5.855
 5403POPC   GL270358  24.243  28.955   5.910
 5403POPC   C1A70359  24.252  29.297   6.298
 5403POPC   D2A70360  24.268  28.963   6.602
 5403POPC   C3A70361  24.557  29.106   6.919
 5403POPC   C4A70362  24.282  29.282   7.183
 5403POPC   C1B70363  24.605  28.932   6.219
 5403POPC   C2B70364  24.689  28.673   6.639
 5403POPC   C3B70365  24.611  28.650   7.111
 5403POPC   C4B70366  24.604  28.995   7.459
 5404POPC   NC370367  10.285  40.382   5.564
 5404POPC   PO470368  10.728  39.937   5.287
 5404POPC   GL170369  10.650  40.051   5.719
 5404POPC   GL270370  10.543  39.727   5.773
 5404POPC   C1A70371  10.588  40.171   6.173
 5404POPC   D2A70372  10.411  40.123   6.606
 5404POPC   C3A70373  10.478  40.381   6.989
 5404POPC   C4A70374  10.496  40.254   7.437
 5404POPC   C1B70375  10.643  39.622   6.192
 5404POPC   C2B70376  10.474  39.610   6.641
 5404POPC   C3B70377  10.671  39.604   7.056
 5404POPC   C4B70378  10.564  39.696   7.515
 5405POPC   NC370379  29.436  36.756   5.348
 5405POPC   PO470380  30.087  37.041   5.371
 5405POPC   GL170381  30.065  36.862   5.784
 5405POPC   GL270382  29.700  36.937   5.763
 5405POPC   C1A70383  30.159  36.576   6.172
 5405POPC   D2A70384  29.992  36.583   6.615
 5405POPC   C3A70385  30.002  36.990   6.778
 5405POPC   C4A70386  30.019  37.139   7.167
 5405POPC   C1B70387  29.790  37.208   6.120
 5405POPC   C2B70388  29.777  37.388   6.540
 5405POPC   C3B70389  29.560  37.243   6.932
 5405POPC   C4B70390  29.550  37.145   7.379
 5406POPC   NC370391  36.988  24.506   5.190
 5406POPC   PO470392  37.453  24.933   5.411
 5406POPC   GL170393  37.242  24.532   5.620
 5406POPC   GL270394  37.407  24.272   5.808
 5406POPC   C1A70395  36.942  24.401   5.998
 5406POPC   D2A70396  37.059  24.432   6.472
 5406POPC   C3A70397  36.963  24.264   6.894
 5406POPC   C4A70398  36.871  24.519   7.245
 5406POPC   C1B70399  37.371  24.633   6.100
 5406POPC   C2B70400  37.450  24.764   6.523
 5406POPC   C3B70401  37.314  24.664   6.936
 5406POPC   C4B70402  37.506  24.795   7.337
 5407POPC   NC370403  14.141  20.147   5.307
 5407POPC   PO470404  14.491  20.765   5.250
 5407POPC   GL170405  14.388  20.660   5.685
 5407POPC   GL270406  14.658  20.762   5.935
 5407POPC   C1A70407  14.206  20.592   6.118
 5407POPC   D2A70408  14.280  20.519   6.583
 5407POPC   C3A70409  14.132  20.679   7.004
 5407POPC   C4A70410  14.368  20.595   7.401
 5407POPC   C1B70411  14.559  20.909   6.370
 5407POPC   C2B70412  14.593  20.870   6.829
 5407POPC   C3B70413  14.428  21.077   7.196
 5407POPC   C4B70414  14.210  21.329   7.505
 5408POPC   NC370415  14.967  12.443   5.414
 5408POPC   PO470416  15.128  11.820   5.257
 5408POPC   GL170417  15.147  11.885   5.715
 5408POPC   GL270418  15.165  12.226   5.819
 5408POPC   C1A70419  15.236  11.755   6.166
 5408POPC   D2A70420  15.230  11.582   6.604
 5408POPC   C3A70421  15.106  11.881   6.912
 5408POPC   C4A70422  15.409  11.924   7.258
 5408POPC   C1B70423  15.454  12.214   6.135
 5408POPC   C2B70424  15.547  12.363   6.539
 5408POPC   C3B70425  15.371  12.306   6.917
 5408POPC   C4B70426  15.105  12.318   7.292
 5409POPC   NC370427  33.181  44.160   5.417
 5409POPC   PO470428  32.775  43.654   5.281
 5409POPC   GL170429  32.816  43.896   5.686
 5409POPC   GL270430  33.151  43.741   5.726
 5409POPC   C1A70431  33.007  44.021   6.115
 5409POPC   D2A70432  33.111  43.838   6.493
 5409POPC   C3A70433  33.044  44.026   6.887
 5409POPC   C4A70434  32.747  43.909   7.171
 5409POPC   C1B70435  33.383  43.488   6.030
 5409POPC   C2B70436  33.409  43.416   6.486
 5409POPC   C3B70437  33.229  43.522   6.887
 5409POPC   C4B70438  33.219  43.738   7.269
 5410POPC   NC370439  44.870   1.489   5.539
 5410POPC   PO470440  44.634   0.898   5.452
 5410POPC   GL170441  44.628   0.970   5.890
 5410POPC   GL270442  44.701   1.318   5.980
 5410POPC   C1A70443  44.348   1.075   6.251
 5410POPC   D2A70444  44.172   1.048   6.643
 5410POPC   C3A70445  44.480   1.231   6.907
 5410POPC   C4A70446  44.767   1.145   7.202
 5410POPC   C1B70447  44.528   1.617   6.273
 5410POPC   C2B70448  44.417   1.733   6.718
 5410POPC   C3B70449  44.675   1.704   7.115
 5410POPC   C4B70450  44.879   1.540   7.516
 5411POPC   NC370451  40.142  41.273   5.628
 5411POPC   PO470452  39.946  40.640   5.375
 5411POPC   GL170453  40.062  40.654   5.795
 5411POPC   GL270454  39.856  40.912   5.856
 5411POPC   C1A70455  39.947  40.498   6.212
 5411POPC   D2A70456  40.197  40.536   6.580
 5411POPC   C3A70457  40.023  40.424   6.966
 5411POPC   C4A70458  40.113  40.510   7.404
 5411POPC   C1B70459  40.110  40.977   6.225
 5411POPC   C2B70460  40.111  41.059   6.631
 5411POPC   C3B70461  40.125  40.923   7.028
 5411POPC   C4B70462  39.803  41.092   7.229
 5412POPC   NC370463  34.884  18.236   5.137
 5412POPC   PO470464  34.466  17.859   5.578
 5412POPC   GL170465  34.385  18.276   5.797
 5412POPC   GL270466  34.715  18.477   5.869
 5412POPC   C1A70467  34.293  18.492   6.207
 5412POPC   D2A70468  34.513  18.438   6.606
 5412POPC   C3A70469  34.370  18.361   7.023
 5412POPC   C4A70470  34.620  18.531   7.374
 5412POPC   C1B70471  34.680  18.131   6.203
 5412POPC   C2B70472  34.718  17.912   6.598
 5412POPC   C3B70473  34.572  17.867   6.995
 5412POPC   C4B70474  34.540  18.024   7.404
 5413POPC   NC370475  12.472  12.167   5.144
 5413POPC   PO470476  11.918  11.975   5.512
 5413POPC   GL170477  12.012  12.096   5.926
 5413POPC   GL270478  12.006  12.426   5.876
 5413POPC   C1A70479  12.310  12.087   6.298
 5413POPC   D2A70480  12.517  11.941   6.698
 5413POPC   C3A70481  12.268  11.906   7.093
 5413POPC   C4A70482  11.853  11.758   7.257
 5413POPC   C1B70483  11.953  12.452   6.324
 5413POPC   C2B70484  12.061  12.284   6.738
 5413POPC   C3B70485  12.003  12.325   7.192
 5413POPC   C4B70486  11.996  12.448   7.617
 5414POPC   NC370487  32.240   4.918   5.336
 5414POPC   PO470488  32.210   5.322   5.872
 5414POPC   GL170489  32.499   5.143   6.137
 5414POPC   GL270490  32.364   4.836   5.998
 5414POPC   C1A70491  32.415   5.326   6.537
 5414POPC   D2A70492  31.967   5.470   6.599
 5414POPC   C3A70493  31.948   5.326   7.002
 5414POPC   C4A70494  32.389   5.239   7.079
 5414POPC   C1B70495  32.271   4.816   6.443
 5414POPC   C2B70496  32.544   4.841   6.791
 5414POPC   C3B70497  32.422   4.744   7.185
 5414POPC   C4B70498  31.988   4.833   7.174
 5415POPC   NC370499  21.052  10.175   5.539
 5415POPC   PO470500  20.457  10.362   5.183
 5415POPC   GL170501  20.522  10.423   5.698
 5415POPC   GL270502  20.763  10.251   5.929
 5415POPC   C1A70503  20.528  10.641   6.134
 5415POPC   D2A70504  20.776  10.621   6.516
 5415POPC   C3A70505  20.617  10.454   6.887
 5415POPC   C4A70506  20.582  10.684   7.244
 5415POPC   C1B70507  20.640  10.148   6.323
 5415POPC   C2B70508  20.923  10.143   6.614
 5415POPC   C3B70509  20.965  10.047   6.990
 5415POPC   C4B70510  20.864  10.287   7.340
 5416POPC   NC370511  13.020  31.053   5.443
 5416POPC   PO470512  12.550  30.540   5.537
 5416POPC   GL170513  12.800  30.452   5.875
 5416POPC   GL270514  13.012  30.702   5.852
 5416POPC   C1A70515  12.802  30.609   6.313
 5416POPC   D2A70516  12.775  30.875   6.689
 5416POPC   C3A70517  12.793  30.582   7.052
 5416POPC   C4A70518  12.802  30.393   7.481
 5416POPC   C1B70519  13.284  30.772   6.225
 5416POPC   C2B70520  13.279  30.787   6.664
 5416POPC   C3B70521  13.172  30.957   7.057
 5416POPC   C4B70522  13.226  30.600   7.307
 5417POPC   NC370523   2.028   6.833   5.435
 5417POPC   PO470524   1.464   7.113   5.694
 5417POPC   GL170525   1.813   6.812   5.903
 5417POPC   GL270526   2.145   6.602   5.880
 5417POPC   C1A70527   1.972   6.789   6.329
 5417POPC   D2A70528   1.810   6.940   6.721
 5417POPC   C3A70529   1.707   6.660   7.077
 5417POPC   C4A70530   1.976   6.797   7.358
 5417POPC   C1B70531   1.993   6.292   6.198
 5417POPC   C2B70532   1.857   6.383   6.614
 5417POPC   C3B70533   2.145   6.535   6.892
 5417POPC   C4B70534   2.341   6.360   7.215
 5418POPC   NC370535   8.100  16.383   5.593
 5418POPC   PO470536   7.877  15.794   5.494
 5418POPC   GL170537   8.168  15.924   5.802
 5418POPC   GL270538   7.919  16.115   5.982
 5418POPC   C1A70539   8.413  15.944   6.190
 5418POPC   D2A70540   8.538  15.715   6.553
 5418POPC   C3A70541   8.472  15.946   6.903
 5418POPC   C4A70542   8.356  16.059   7.282
 5418POPC   C1B70543   8.103  16.336   6.321
 5418POPC   C2B70544   8.085  16.272   6.769
 5418POPC   C3B70545   7.879  16.004   7.069
 5418POPC   C4B70546   7.918  15.738   7.408
 5419POPC   NC370547  14.281  34.017   5.385
 5419POPC   PO470548  14.751  33.517   5.284
 5419POPC   GL170549  14.580  33.698   5.722
 5419POPC   GL270550  14.570  34.070   5.791
 5419POPC   C1A70551  14.521  33.547   6.181
 5419POPC   D2A70552  14.645  33.347   6.567
 5419POPC   C3A70553  14.616  33.595   6.918
 5419POPC   C4A70554  14.363  33.545   7.191
 5419POPC   C1B70555  14.559  34.068   6.200
 5419POPC   C2B70556  14.388  33.926   6.554
 5419POPC   C3B70557  14.486  34.100   6.918
 5419POPC   C4B70558  14.343  34.023   7.289
 5420POPC   NC370559   6.495  21.251   5.366
 5420POPC   PO470560   6.744  21.872   5.345
 5420POPC   GL170561   6.750  21.556   5.700
 5420POPC   GL270562   6.406  21.538   5.805
 5420POPC   C1A70563   6.845  21.604   6.163
 5420POPC   D2A70564   6.681  21.704   6.587
 5420POPC   C3A70565   6.843  21.562   6.998
 5420POPC   C4A70566   6.607  21.460   7.370
 5420POPC   C1B70567   6.482  21.235   6.129
 5420POPC   C2B70568   6.675  21.170   6.544
 5420POPC   C3B70569   6.450  21.214   6.929
 5420POPC   C4B70570   6.344  21.021   7.304
 5421POPC   NC370571  31.178  13.865   5.552
 5421POPC   PO470572  31.757  13.609   5.274
 5421POPC   GL170573  31.601  13.571   5.728
 5421POPC   GL270574  31.617  13.891   5.904
 5421POPC   C1A70575  31.496  13.482   6.197
 5421POPC   D2A70576  31.553  13.767   6.565
 5421POPC   C3A70577  31.676  13.661   6.991
 5421POPC   C4A70578  31.349  13.422   7.160
 5421POPC   C1B70579  31.332  14.084   6.204
 5421POPC   C2B70580  31.262  14.207   6.638
 5421POPC   C3B70581  31.213  13.944   7.009
 5421POPC   C4B70582  31.388  13.873   7.404
 5422POPC   NC370583  12.495  23.826   5.501
 5422POPC   PO470584  13.143  23.587   5.469
 5422POPC   GL170585  12.853  23.667   5.869
 5422POPC   GL270586  12.553  23.406   5.955
 5422POPC   C1A70587  12.686  23.733   6.288
 5422POPC   D2A70588  12.506  23.424   6.584
 5422POPC   C3A70589  12.497  23.625   6.992
 5422POPC   C4A70590  12.778  23.842   7.309
 5422POPC   C1B70591  12.855  23.235   6.240
 5422POPC   C2B70592  13.047  23.500   6.547
 5422POPC   C3B70593  13.098  23.612   6.978
 5422POPC   C4B70594  13.271  23.301   7.275
 5423POPC   NC370595  31.078  36.663   5.465
 5423POPC   PO470596  31.614  37.098   5.540
 5423POPC   GL170597  31.368  36.872   5.832
 5423POPC   GL270598  31.250  37.134   6.031
 5423POPC   C1A70599  31.274  36.639   6.206
 5423POPC   D2A70600  31.481  36.578   6.607
 5423POPC   C3A70601  31.302  36.772   7.011
 5423POPC   C4A70602  31.290  36.993   7.433
 5423POPC   C1B70603  31.632  36.998   6.288
 5423POPC   C2B70604  31.699  37.079   6.745
 5423POPC   C3B70605  31.639  37.325   7.128
 5423POPC   C4B70606  31.695  37.275   7.581
 5424POPC   NC370607  29.309  17.326   5.490
 5424POPC   PO470608  29.224  18.032   5.510
 5424POPC   GL170609  29.284  17.719   5.817
 5424POPC   GL270610  28.968  17.533   5.856
 5424POPC   C1A70611  29.343  17.453   6.207
 5424POPC   D2A70612  29.630  17.287   6.554
 5424POPC   C3A70613  29.467  17.420   6.930
 5424POPC   C4A70614  29.142  17.310   7.167
 5424POPC   C1B70615  28.875  17.643   6.323
 5424POPC   C2B70616  28.847  17.545   6.797
 5424POPC   C3B70617  28.644  17.386   7.193
 5424POPC   C4B70618  28.701  17.483   7.644
 5425POPC   NC370619   8.365  33.253   5.408
 5425POPC   PO470620   8.038  32.742   5.479
 5425POPC   GL170621   7.970  32.936   5.871
 5425POPC   GL270622   7.787  33.282   5.921
 5425POPC   C1A70623   8.304  32.923   6.186
 5425POPC   D2A70624   8.476  32.918   6.603
 5425POPC   C3A70625   8.164  33.084   6.883
 5425POPC   C4A70626   8.190  32.950   7.266
 5425POPC   C1B70627   7.802  33.064   6.338
 5425POPC   C2B70628   7.912  32.702   6.607
 5425POPC   C3B70629   7.736  32.716   7.031
 5425POPC   C4B70630   7.698  33.091   7.267
 5426POPC   NC370631  41.091  30.133   5.481
 5426POPC   PO470632  40.543  30.529   5.439
 5426POPC   GL170633  40.673  30.499   5.834
 5426POPC   GL270634  40.996  30.442   5.925
 5426POPC   C1A70635  40.649  30.770   6.222
 5426POPC   D2A70636  40.403  30.877   6.590
 5426POPC   C3A70637  40.619  30.785   6.959
 5426POPC   C4A70638  40.934  30.787   7.284
 5426POPC   C1B70639  40.692  30.263   6.264
 5426POPC   C2B70640  40.854  30.275   6.638
 5426POPC   C3B70641  40.605  30.227   6.957
 5426POPC   C4B70642  40.516  30.432   7.305
 5427POPC   NC370643  21.246   1.580   5.423
 5427POPC   PO470644  21.851   1.588   5.498
 5427POPC   GL170645  21.539   1.715   5.848
 5427POPC   GL270646  21.222   1.904   5.831
 5427POPC   C1A70647  21.310   1.643   6.261
 5427POPC   D2A70648  21.128   1.797   6.669
 5427POPC   C3A70649  21.357   1.738   7.089
 5427POPC   C4A70650  21.768   1.651   7.317
 5427POPC   C1B70651  21.199   2.146   6.244
 5427POPC   C2B70652  21.046   2.296   6.669
 5427POPC   C3B70653  21.159   2.233   7.120
 5427POPC   C4B70654  21.178   2.238   7.607
 5428POPC   NC370655  14.243  10.004   5.084
 5428POPC   PO470656  14.733  10.013   5.449
 5428POPC   GL170657  14.599   9.815   5.862
 5428POPC   GL270658  14.298   9.591   5.844
 5428POPC   C1A70659  14.672   9.841   6.315
 5428POPC   D2A70660  14.767  10.000   6.736
 5428POPC   C3A70661  14.602   9.783   7.085
 5428POPC   C4A70662  14.484  10.017   7.452
 5428POPC   C1B70663  14.228   9.596   6.299
 5428POPC   C2B70664  14.262   9.847   6.680
 5428POPC   C3B70665  14.100   9.917   7.113
 5428POPC   C4B70666  14.107   9.667   7.505
 5429POPC   NC370667  12.486  43.262   5.411
 5429POPC   PO470668  12.996  42.868   5.403
 5429POPC   GL170669  12.758  42.947   5.759
 5429POPC   GL270670  12.843  43.241   5.776
 5429POPC   C1A70671  12.676  43.028   6.228
 5429POPC   D2A70672  12.701  43.250   6.659
 5429POPC   C3A70673  12.629  43.012   7.094
 5429POPC   C4A70674  12.504  43.058   7.597
 5429POPC   C1B70675  13.221  43.089   6.032
 5429POPC   C2B70676  13.262  43.147   6.515
 5429POPC   C3B70677  13.117  43.220   6.972
 5429POPC   C4B70678  13.165  43.402   7.410
 5430POPC   NC370679  40.097  19.380   5.491
 5430POPC   PO470680  40.056  18.753   5.213
 5430POPC   GL170681  40.056  18.848   5.714
 5430POPC   GL270682  39.729  18.835   5.917
 5430POPC   C1A70683  40.209  18.858   6.198
 5430POPC   D2A70684  40.351  18.730   6.655
 5430POPC   C3A70685  40.191  18.975   7.024
 5430POPC   C4A70686  40.213  19.406   7.148
 5430POPC   C1B70687  39.757  19.125   6.305
 5430POPC   C2B70688  39.843  19.251   6.738
 5430POPC   C3B70689  39.737  19.256   7.194
 5430POPC   C4B70690  39.580  19.045   7.556
 5431W        W70691  18.636  26.690  14.863
 5432W        W70692   0.786  43.046   1.912
 5433W        W70693  32.720  40.555   0.915
 5434W        W70694   6.226  13.650   3.729
 5435W        W70695  43.979  21.080   4.174
 5436W        W70696   5.032  15.014  14.381
 5437W        W70697  27.592  29.096   2.207
 5438W        W70698  12.832  44.559   1.226
 5439W        W70699  32.029  37.977   1.457
 5440W        W70700  41.092   7.697   1.708
 5441W        W70701  42.853  21.528   3.843
 5442W        W70702  15.519   4.214   0.162
 5443W        W70703   5.470  19.595   3.126
 5444W        W70704  10.506  12.201   2.712
 5445W        W70705  12.047  33.498   2.248
 5446W        W70706  27.206  30.060  14.692
 5447W        W70707  38.778  17.592  14.344
 5448W        W70708  31.151   1.266   3.354
 5449W        W70709  40.889  11.896  10.001
 5450W        W70710  12.122   4.799  13.492
 5451W        W70711   2.877  34.402   2.212
 5452W        W70712  30.509  10.469   1.683
 5453W        W70713  17.528  39.426   0.168
 5454W        W70714  33.085  36.780   2.781
 5455W        W70715  34.234  17.051   0.302
 5456W        W70716  10.340  19.475  14.866
 5457W        W70717  40.311  13.744  12.662
 5458W        W70718  11.538  13.660   4.622
 5459W        W70719  34.721   1.475  14.992
 5460W        W70720  25.736  31.052   2.209
 5461W        W70721  12.168  12.839  11.348
 5462W        W70722   4.888  17.097  13.491
 5463W        W70723  21.226  29.231   2.265
 5464W        W70724   8.936   3.691  11.325
 5465W        W70725   3.453  26.148  12.589
 5466W        W70726  10.531  15.593  10.349
 5467W        W70727  13.214   6.919   0.411
 5468W        W70728  16.075  36.023   3.714
 5469W        W70729  16.523  26.910  12.874
 5470W        W70730  21.058  39.285   3.758
 5471W        W70731  29.572  13.168  12.526
 5472W        W70732  25.539  12.457  13.513
 5473W        W70733  29.640  30.527   3.593
 5474W        W70734  27.760  43.420   1.767
 5475W        W70735   3.923  30.866  11.175
 5476W        W70736  26.224   5.338   2.457
 5477W        W70737  13.802  33.036   1.913
 5478W        W70738  28.528  40.130  12.023
 5479W        W70739  12.667  42.252  14.594
 5480W        W70740  36.574   3.827  13.423
 5481W        W70741   1.573  25.813   4.024
 5482W        W70742  38.783   2.543  14.972
 5483W        W70743   5.295   2.179  12.986
 5484W        W70744  10.754  19.465   1.846
 5485W        W70745  34.058  24.143   3.383
 5486W        W70746  25.073  32.025   1.062
 5487W        W70747   6.199  10.585   0.747
 5488W        W70748  35.214  40.479  14.517
 5489W        W70749  19.090  28.876  14.105
 5490W        W70750  18.325   9.749  11.182
 5491W        W70751   2.574  41.644   0.459
 5492W        W70752   4.819  29.236  14.690
 5493W        W70753  29.823  39.303   3.001
 5494W        W70754  43.384  28.384  11.675
 5495W        W70755  32.225  39.023   1.203
 5496W        W70756  38.075   5.962   3.183
 5497W        W70757  35.798  23.552   0.677
 5498W        W70758  27.481  41.966   2.901
 5499W        W70759   6.657  20.156  14.312
 5500W        W70760  25.571  23.139  11.256
 5501W        W70761   4.303  33.615  12.909
 5502W        W70762  25.125  27.388  11.162
 5503W        W70763  35.068  21.545  12.388
 5504W        W70764  25.984  28.757   0.385
 5505W        W70765  30.176   6.754   1.429
 5506W        W70766  25.864  27.189   0.384
 5507W        W70767  17.376  11.517  11.054
 5508W        W70768   6.714  40.065  10.941
 5509W        W70769  42.109   9.801  10.789
 5510W        W70770  12.208  32.580  11.987
 5511W        W70771  18.789  13.136   0.411
 5512W        W70772  31.976   1.433   2.358
 5513W        W70773  42.713  43.113  14.384
 5514W        W70774   5.702  24.911   4.708
 5515W        W70775   1.409  30.566   4.678
 5516W        W70776  22.969  27.393   0.562
 5517W        W70777  34.479  38.482  11.431
 5518W        W70778   6.970  25.607   4.540
 5519W        W70779   8.880  17.317  10.410
 5520W        W70780   5.713  23.720  11.421
 5521W        W70781  37.819  19.445   4.501
 5522W        W70782  39.587  19.477   4.058
 5523W        W70783   0.005   9.097   1.229
 5524W        W70784  34.553  43.018   4.720
 5525W        W70785  40.171  25.070   4.122
 5526W        W70786  20.762  38.511  14.463
 5527W        W70787   3.418   7.293   3.345
 5528W        W70788  43.558  19.503  11.577
 5529W        W70789  17.894  25.701  12.098
 5530W        W70790  24.206   9.844  11.037
 5531W        W70791  11.108  37.018  13.104
 5532W        W70792  25.434  27.094  11.496
 5533W        W70793  35.757  23.714   3.703
 5534W        W70794  13.922  19.474   1.490
 5535W        W70795  31.865  37.304   1.160
 5536W        W70796  36.927   1.698   0.367
 5537W        W70797  10.580  25.317  12.596
 5538W        W70798  40.657  42.382  13.698
 5539W        W70799  17.763  26.525  10.886
 5540W        W70800  31.269  16.153  12.176
 5541W        W70801  34.223   1.493  14.820
 5542W        W70802  37.113  28.585  11.539
 5543W        W70803   2.583   1.900   9.832
 5544W        W70804  24.182   8.625   2.813
 5545W        W70805  28.960  23.174  13.758
 5546W        W70806  30.109  15.589   1.973
 5547W        W70807  18.057  18.393   2.668
 5548W        W70808  25.441  44.163  12.147
 5549W        W70809  30.243  31.987   1.352
 5550W        W70810  31.677   6.693   0.860
 5551W        W70811  22.140  33.374  13.866
 5552W        W70812  23.659   1.888  13.294
 5553W        W70813  24.634  41.476  14.370
 5554W        W70814   8.606  10.907  11.095
 5555W        W70815   3.410   2.292   3.553
 5556W        W70816  43.440  24.243  12.628
 5557W        W70817  19.747   6.198   0.833
 5558W        W70818   8.195  41.490  10.936
 5559W        W70819  14.344   2.476  10.644
 5560W        W70820  41.985  42.822  12.506
 5561W        W70821  24.789  30.161  13.302
 5562W        W70822  10.900  39.801  11.194
 5563W        W70823  13.530  32.628   1.724
 5564W        W70824  11.550   9.907   1.290
 5565W        W70825  38.996   8.370   1.244
 5566W        W70826  32.654  41.229  11.843
 5567W        W70827   9.630   6.761   5.466
 5568W        W70828  37.915  33.150  13.988
 5569W        W70829  35.948  30.472   0.267
 5570W        W70830  24.013  23.567   2.800
 5571W        W70831  31.438  15.750  14.302
 5572W        W70832   6.998  39.292  10.545
 5573W        W70833  15.727  35.122  10.496
 5574W        W70834  38.373  15.241  14.950
 5575W        W70835  37.524  19.574  10.589
 5576W        W70836   4.996  11.640  13.492
 5577W        W70837  35.006  43.729   2.666
 5578W        W70838  30.984  20.078  12.020
 5579W        W70839  18.368  21.596   4.162
 5580W        W70840   0.963  15.229   2.634
 5581W        W70841  24.002  43.849   3.700
 5582W        W70842  10.650  12.087  11.537
 5583W        W70843  11.132  41.319   2.346
 5584W        W70844  38.292  26.958   0.212
 5585W        W70845  33.628  11.900  13.514
 5586W        W70846  40.564  41.875   1.312
 5587W        W70847  17.022  13.035   3.123
 5588W        W70848   0.260  31.229  11.100
 5589W        W70849  17.516   5.633  12.598
 5590W        W70850  27.047  40.872  11.665
 5591W        W70851   7.080  30.118   3.079
 5592W        W70852  15.045  30.032   1.422
 5593W        W70853  12.580  21.362  13.019
 5594W        W70854   0.877  30.119   3.020
 5595W        W70855  16.092   2.868  12.135
 5596W        W70856  31.399  40.386   2.195
 5597W        W70857   7.347   7.416   3.617
 5598W        W70858  21.781  43.275   2.422
 5599W        W70859   4.120  35.480  11.928
 5600W        W70860  26.204  11.302  12.505
 5601W        W70861  21.741  26.209   4.955
 5602W        W70862   2.822  29.427   4.612
 5603W        W70863  43.611  13.688  12.535
 5604W        W70864  40.820  40.848  12.844
 5605W        W70865  35.579  31.448  13.524
 5606W        W70866   0.023  22.187  11.033
 5607W        W70867  41.364  39.071  11.120
 5608W        W70868  30.255  27.472  12.882
 5609W        W70869  41.313  35.544  12.931
 5610W        W70870  15.568  26.645   1.264
 5611W        W70871  37.449  27.840   1.197
 5612W        W70872  27.959  14.841  14.402
 5613W        W70873  28.103  24.782  12.390
 5614W        W70874  39.883  27.359   3.792
 5615W        W70875  42.305   3.453  12.502
 5616W        W70876  31.206   9.115   0.912
 5617W        W70877  29.469   3.800   0.040
 5618W        W70878   1.416   9.228  14.840
 5619W        W70879  26.899   0.261  10.588
 5620W        W70880  12.373  10.262   1.144
 5621W        W70881  40.807   4.747  14.426
 5622W        W70882  36.836  20.455  14.377
 5623W        W70883  42.030  32.698  14.474
 5624W        W70884  25.679  16.714   2.862
 5625W        W70885   3.848  34.194  13.823
 5626W        W70886  19.562  14.868   1.309
 5627W        W70887  10.876  14.762   4.244
 5628W        W70888  21.750  33.962  14.863
 5629W        W70889  28.990   5.675   1.830
 5630W        W70890  17.798  13.609  10.848
 5631W        W70891  23.509  17.633  14.450
 5632W        W70892  18.700  13.559  12.084
 5633W        W70893  43.857  44.324   5.012
 5634W        W70894  20.623  32.141  12.221
 5635W        W70895  30.648  20.167  11.375
 5636W        W70896  11.321  12.737   0.849
 5637W        W70897  16.592   0.520  14.791
 5638W        W70898  38.944  10.321   1.738
 5639W        W70899  41.483  10.266  11.084
 5640W        W70900  13.395   4.694   0.241
 5641W        W70901  27.044   0.092  14.830
 5642W        W70902  39.595  43.752   2.971
 5643W        W70903  28.478  21.075  12.012
 5644W        W70904   1.833  14.318  14.498
 5645W        W70905  11.659   9.353   1.346
 5646W        W70906   1.682  25.515   0.352
 5647W        W70907  40.587   6.154   1.748
 5648W        W70908  12.024  41.303   3.637
 5649W        W70909  27.919   3.230  14.806
 5650W        W70910   2.864  12.710  11.555
 5651W        W70911  20.519   7.762  12.563
 5652W        W70912  11.946  38.820  14.864
 5653W        W70913   1.301   2.425  12.495
 5654W        W70914   4.964  14.836   1.695
 5655W        W70915   9.682  44.352   2.122
 5656W        W70916  42.756  39.970  14.434
 5657W        W70917  31.497  34.295  14.501
 5658W        W70918  11.225  39.048  11.201
 5659W        W70919  18.118  21.240   1.645
 5660W        W70920  42.338  27.190  11.139
 5661W        W70921   7.592  12.622   2.604
 5662W        W70922  22.071  33.388  12.920
 5663W        W70923  36.358  42.850  14.377
 5664W        W70924  41.868  15.224  10.755
 5665W        W70925   6.305   0.440   4.022
 5666W        W70926  23.129  41.075  11.402
 5667W        W70927  10.155  30.550   9.687
 5668W        W70928  39.735  10.216   3.470
 5669W        W70929  22.998  21.818   4.824
 5670W        W70930  27.566   5.233  12.902
 5671W        W70931  13.519  27.743  14.278
 5672W        W70932  32.875   3.396  14.803
 5673W        W70933  32.348  26.869   1.842
 5674W        W70934  42.157  21.873   3.193
 5675W        W70935  34.583  20.533   4.717
 5676W        W70936  12.644  26.635   0.336
 5677W        W70937  34.062  38.549   0.241
 5678W        W70938   9.693   4.532  14.945
 5679W        W70939   5.557  30.991  14.975
 5680W        W70940  19.681  10.675   1.457
 5681W        W70941   4.737   0.910   3.200
 5682W        W70942  25.917  22.812   0.198
 5683W        W70943  31.854  19.600  14.946
 5684W        W70944  16.743  19.045   1.752
 5685W        W70945  24.581  29.619   1.944
 5686W        W70946  17.766  44.278   3.621
 5687W        W70947   2.309   7.599   2.204
 5688W        W70948   4.793  37.315  14.782
 5689W        W70949  39.297  21.776  14.523
 5690W        W70950  25.728  15.293  11.974
 5691W        W70951   0.850  12.557  10.930
 5692W        W70952  29.524   3.889   1.998
 5693W        W70953  12.497  27.232   1.682
 5694W        W70954  14.127  29.497   2.021
 5695W        W70955  44.511  32.163  13.405
 5696W        W70956  23.515  33.929  13.812
 5697W        W70957  25.602  13.064  12.892
 5698W        W70958   8.687  39.898  11.308
 5699W        W70959  29.724  25.012  14.234
 5700W        W70960  37.007  29.428  11.712
 5701W        W70961  15.058  43.991   1.626
 5702W        W70962   5.244  33.879   4.579
 5703W        W70963  31.018   9.904   2.178
 5704W        W70964  19.634  31.418   4.750
 5705W        W70965  36.046  10.234  14.784
 5706W        W70966  15.644  33.530  11.211
 5707W        W70967  26.024   1.687  13.021
 5708W        W70968   2.328   7.254  10.632
 5709W        W70969  18.492  14.235   4.144
 5710W        W70970  37.249   6.274   1.276
 5711W        W70971  11.615  28.887   1.928
 5712W        W70972  35.169  30.137  12.969
 5713W        W70973  29.037  37.595  13.957
 5714W        W70974  38.888  13.249  10.788
 5715W        W70975  14.767   9.935   0.901
 5716W        W70976  12.002  14.641  13.440
 5717W        W70977   2.954  33.329  11.441
 5718W        W70978  25.089  39.802   3.755
 5719W        W70979   0.950  22.909   1.079
 5720W        W70980  44.390  10.816   4.651
 5721W        W70981   9.891   5.814  12.185
 5722W        W70982  20.503  14.185   4.096
 5723W        W70983  34.818  18.990   2.311
 5724W        W70984  18.864  40.883   3.855
 5725W        W70985   6.805  19.689   3.415
 5726W        W70986   5.417   4.552   3.108
 5727W        W70987  32.342  14.489   0.228
 5728W        W70988  18.503  18.569   1.430
 5729W        W70989  10.661  23.063   3.765
 5730W        W70990  14.344  43.403  14.320
 5731W        W70991  34.803  26.426   9.877
 5732W        W70992  43.085  15.753   1.684
 5733W        W70993  28.638   8.365  12.098
 5734W        W70994  37.062   8.686   3.310
 5735W        W70995  12.621  42.510   2.930
 5736W        W70996  34.501  40.565   5.084
 5737W        W70997  25.252  17.026   0.795
 5738W        W70998  19.174  12.197   0.864
 5739W        W70999  12.770   3.346   1.844
 5740W        W71000  44.345  44.051  11.657
 5741W        W71001   9.028  29.712  11.063
 5742W        W71002  33.862   9.724  10.745
 5743W        W71003  12.687  24.548  12.096
 5744W        W71004   6.924  40.560   0.495
 5745W        W71005   7.333  44.736   3.750
 5746W        W71006   4.817  14.560   4.168
 5747W        W71007  33.357  13.660  11.694
 5748W        W71008  26.992   7.301  11.211
 5749W        W71009  34.404  31.731   1.703
 5750W        W71010   5.763   6.409   0.857
 5751W        W71011  23.111  35.991  13.771
 5752W        W71012  31.409  21.799  11.868
 5753W        W71013  13.004  32.129  12.212
 5754W        W71014   4.249   8.603  11.553
 5755W        W71015  17.090  26.458  12.892
 5756W        W71016  24.980  22.568   2.791
 5757W        W71017   3.781  43.035  14.818
 5758W        W71018  22.971  10.634  13.376
 5759W        W71019  15.244  20.648  12.948
 5760W        W71020   1.902  39.782   3.657
 5761W        W71021  27.768  10.146   3.786
 5762W        W71022  28.179  40.300   3.133
 5763W        W71023  33.363   8.214   1.725
 5764W        W71024  35.379  34.742  12.659
 5765W        W71025  11.997  42.472   2.280
 5766W        W71026  17.319   7.754  10.990
 5767W        W71027  34.318  12.655  11.077
 5768W        W71028  33.128  42.344  14.387
 5769W        W71029  21.228  36.930   2.229
 5770W        W71030  26.340   0.339   3.686
 5771W        W71031  42.931   6.575   2.405
 5772W        W71032  16.263  10.383   1.939
 5773W        W71033   8.249  32.573   1.394
 5774W        W71034  11.591  35.390  13.439
 5775W        W71035   0.190  23.217   3.768
 5776W        W71036  28.521  35.652  14.085
 5777W        W71037  20.620  22.702  11.255
 5778W        W71038  20.478  29.805  11.561
 5779W        W71039  18.271  38.561  14.978
 5780W        W71040  40.847  22.538  13.915
 5781W        W71041   1.766  23.708  14.844
 5782W        W71042  21.452  22.783  14.283
 5783W        W71043  25.238  28.602  14.306
 5784W        W71044  34.378  13.993  14.937
 5785W        W71045  30.375   0.515  12.568
 5786W        W71046  21.028  31.998  10.502
 5787W        W71047  38.128  44.373   3.666
 5788W        W71048   0.871  31.363  11.066
 5789W        W71049   8.398  42.425  12.851
 5790W        W71050  24.164   1.324   2.256
 5791W        W71051  29.416   6.736  10.730
 5792W        W71052  30.385  26.428   2.596
 5793W        W71053  33.643   6.962   4.591
 5794W        W71054  36.882  24.564   2.924
 5795W        W71055  20.032  13.866  12.670
 5796W        W71056  21.305  13.132   3.815
 5797W        W71057  19.008   8.371   2.971
 5798W        W71058  13.655  36.195   0.417
 5799W        W71059  36.415  31.439  10.729
 5800W        W71060  16.727  11.697  11.974
 5801W        W71061   8.178  14.137  13.901
 5802W        W71062  33.592  32.631   2.445
 5803W        W71063  41.093   6.739  11.825
 5804W        W71064  29.772  10.757  13.934
 5805W        W71065  44.959  14.358  13.357
 5806W        W71066  15.089  15.863  10.834
 5807W        W71067  12.939  26.877   2.578
 5808W        W71068  42.406  36.680  14.384
 5809W        W71069   4.709  24.757  13.103
 5810W        W71070  38.445  22.504   3.350
 5811W        W71071  44.485  28.917  12.934
 5812W        W71072  36.600  23.054   1.324
 5813W        W71073  44.557  24.465  13.342
 5814W        W71074  16.775   3.870  13.388
 5815W        W71075   5.977  42.342   1.495
 5816W        W71076  41.130  25.709  14.385
 5817W        W71077   3.968  20.857   0.438
 5818W        W71078   1.310   7.925  11.576
 5819W        W71079  13.019  27.248  14.888
 5820W        W71080  35.833  43.898   3.599
 5821W        W71081  11.703  12.332   0.859
 5822W        W71082  16.574   0.411  12.977
 5823W        W71083  19.202  33.325  11.996
 5824W        W71084  11.908  34.464   3.049
 5825W        W71085  31.887  39.926   4.104
 5826W        W71086  26.966  43.517   1.315
 5827W        W71087  22.094  11.302  14.765
 5828W        W71088  42.883  24.421   2.732
 5829W        W71089  40.426  16.373  12.403
 5830W        W71090  28.797  26.570   1.331
 5831W        W71091   2.215  27.093  13.040
 5832W        W71092  15.067  33.325   0.740
 5833W        W71093  39.766  39.823   3.653
 5834W        W71094   5.101  23.868   0.720
 5835W        W71095  17.997   7.361   0.762
 5836W        W71096   4.240  13.606   1.383
 5837W        W71097  16.650  35.798  11.041
 5838W        W71098  18.173  42.025   3.689
 5839W        W71099  36.938  35.985   1.511
 5840W        W71100  35.801  11.571   3.750
 5841W        W71101  27.243  13.985   0.247
 5842W        W71102   1.814  17.041   4.185
 5843W        W71103  23.068  24.783   3.223
 5844W        W71104  20.783  19.250  11.043
 5845W        W71105  43.917  19.072  12.845
 5846W        W71106  36.777  13.405   2.367
 5847W        W71107   7.612  28.655   0.480
 5848W        W71108  17.229  28.867  13.884
 5849W        W71109  26.599  31.382   1.775
 5850W        W71110  44.128  20.339   0.462
 5851W        W71111   0.695  19.771  11.841
 5852W        W71112  42.924  32.470  12.497
 5853W        W71113  33.699  30.209   5.021
 5854W        W71114  19.550  17.149  11.216
 5855W        W71115  40.006  30.526  13.099
 5856W        W71116  22.009  30.189   4.574
 5857W        W71117  26.542  23.602  13.573
 5858W        W71118  40.407  43.766  14.759
 5859W        W71119  44.052  30.478   2.888
 5860W        W71120  22.260  21.795  11.011
 5861W        W71121  43.365  42.332  11.091
 5862W        W71122  34.351  15.199   1.442
 5863W        W71123  40.996   2.715  10.143
 5864W        W71124  21.778   0.787   4.094
 5865W        W71125  44.985  20.277   0.319
 5866W        W71126  35.936  14.256   4.396
 5867W        W71127  25.456  27.967  11.778
 5868W        W71128   3.249  27.922   0.456
 5869W        W71129  26.928  28.240   4.203
 5870W        W71130  41.700  44.316   1.416
 5871W        W71131  29.911  23.010   0.187
 5872W        W71132  26.711  34.124   1.754
 5873W        W71133   2.894   9.091   2.746
 5874W        W71134  11.608   1.830  12.489
 5875W        W71135  14.578  10.162  14.512
 5876W        W71136   1.207  39.615  14.942
 5877W        W71137   6.689  28.624  14.407
 5878W        W71138  32.494  33.006  14.348
 5879W        W71139  36.384   2.200   1.762
 5880W        W71140  18.801  28.080   1.708
 5881W        W71141  30.111   4.360  12.048
 5882W        W71142  19.873  11.782  12.532
 5883W        W71143  30.477  28.090   0.510
 5884W        W71144  13.081   5.916   1.353
 5885W        W71145   7.692  14.509  12.108
 5886W        W71146  42.035  14.052  13.433
 5887W        W71147  26.904   1.787  10.555
 5888W        W71148  33.238  11.010  11.098
 5889W        W71149  28.910  34.008   4.170
 5890W        W71150  20.788   0.368   3.315
 5891W        W71151  43.960  44.552  12.056
 5892W        W71152   9.147  33.380  10.655
 5893W        W71153  38.044   7.722  13.549
 5894W        W71154  28.233  38.446   0.545
 5895W        W71155  31.468  43.431  10.921
 5896W        W71156   9.648  37.513   2.993
 5897W        W71157  39.123  11.034  13.981
 5898W        W71158   1.925  36.753   4.195
 5899W        W71159  37.929  18.708   2.762
 5900W        W71160  27.347   0.450  12.007
 5901W        W71161  16.631  18.849  13.715
 5902W        W71162  17.615  11.859  14.061
 5903W        W71163  15.371   0.883  13.230
 5904W        W71164  42.867   4.806   4.061
 5905W        W71165  16.957  24.120  14.521
 5906W        W71166  29.447  20.046  14.094
 5907W        W71167  23.609  25.911  13.914
 5908W        W71168  38.459  24.632  11.572
 5909W        W71169   4.671  23.177  14.721
 5910W        W71170  13.296  11.129  13.584
 5911W        W71171  43.318  18.869   2.356
 5912W        W71172  42.787  10.026  11.542
 5913W        W71173  35.018  17.128   1.248
 5914W        W71174   1.512  31.606   1.019
 5915W        W71175  40.971  26.022   1.760
 5916W        W71176   8.220   4.928  12.008
 5917W        W71177   6.515  39.940  14.789
 5918W        W71178  10.095   2.875   4.152
 5919W        W71179  12.767  18.512  13.961
 5920W        W71180  43.409  34.356   2.522
 5921W        W71181  33.093  32.432   2.513
 5922W        W71182  27.899  44.914   0.796
 5923W        W71183  30.440  21.113  11.660
 5924W        W71184  23.449  33.444   2.822
 5925W        W71185  14.110  22.613  14.464
 5926W        W71186  41.372  38.619   0.254
 5927W        W71187  20.883  24.096  12.811
 5928W        W71188   2.639  17.858  10.424
 5929W        W71189  34.106   0.570  11.227
 5930W        W71190  26.546  42.248  14.943
 5931W        W71191   2.000   5.208   4.135
 5932W        W71192  21.523   3.007  12.811
 5933W        W71193  26.110  17.068  10.319
 5934W        W71194   6.189  43.272   3.260
 5935W        W71195  37.263  38.687   0.234
 5936W        W71196   3.784  33.363  12.776
 5937W        W71197   6.871   6.713   1.599
 5938W        W71198  18.747  34.850   1.067
 5939W        W71199   2.285  35.095  14.305
 5940W        W71200  28.500  35.505   2.797
 5941W        W71201  41.374  41.966  13.748
 5942W        W71202   5.392  13.076  12.192
 5943W        W71203   6.785  39.346   3.803
 5944W        W71204  21.140  35.935  13.615
 5945W        W71205  28.204  28.046   1.781
 5946W        W71206   2.240   3.373   4.505
 5947W        W71207  33.389  18.219  12.609
 5948W        W71208  37.899   6.986   3.130
 5949W        W71209  39.061  20.137  11.004
 5950W        W71210   1.532  42.537  12.921
 5951W        W71211  15.765  20.599  12.888
 5952W        W71212  26.470  38.407  11.065
 5953W        W71213  13.637  14.791  13.978
 5954W        W71214  40.268  18.564  12.931
 5955W        W71215  43.037  13.604   0.891
 5956W        W71216  10.110  13.099  13.075
 5957W        W71217   4.684   9.160  11.151
 5958W        W71218  21.216  16.242  11.972
 5959W        W71219   6.696   0.724   2.314
 5960W        W71220  38.977  18.965  13.569
 5961W        W71221  30.568  34.037   0.680
 5962W        W71222  21.087  42.942   0.745
 5963W        W71223  38.023  32.190   3.282
 5964W        W71224  21.899  28.469   0.744
 5965W        W71225  42.904  12.628  14.375
 5966W        W71226  21.655  17.319   2.740
 5967W        W71227   9.409  12.595   2.335
 5968W        W71228  28.999  11.366   2.839
 5969W        W71229  34.467  28.496  13.119
 5970W        W71230  44.108   8.337  11.622
 5971W        W71231   8.677  22.890   4.927
 5972W        W71232  35.000  39.803   4.662
 5973W        W71233  11.750  44.846  10.842
 5974W        W71234   5.633  35.503   2.325
 5975W        W71235  27.964  14.633   2.046
 5976W        W71236   9.901   0.032  13.865
 5977W        W71237  34.432   6.643   1.443
 5978W        W71238  34.017  31.068   0.774
 5979W        W71239   5.413   6.433  12.497
 5980W        W71240  31.889   4.249   0.055
 5981W        W71241  28.083  14.242   4.626
 5982W        W71242  27.173  41.827   4.080
 5983W        W71243  10.593  31.998  11.096
 5984W        W71244   4.129  22.453   1.192
 5985W        W71245  10.381  22.705  13.467
 5986W        W71246  28.450  31.582  10.770
 5987W        W71247  13.342   3.056  10.336
 5988W        W71248  34.419  13.461  14.883
 5989W        W71249  24.983   9.259   3.614
 5990W        W71250  42.391   4.855   3.878
 5991W        W71251  32.519  19.284   1.590
 5992W        W71252  37.032   3.149  10.714
 5993W        W71253   1.676  37.126  12.956
 5994W        W71254  13.761  16.342   1.312
 5995W        W71255  43.955  39.473  14.850
 5996W        W71256  17.556  38.429   1.728
 5997W        W71257  41.039   2.529   5.011
 5998W        W71258  32.638   5.948   4.536
 5999W        W71259  35.496   9.794  10.400
 6000W        W71260  37.510  31.028  13.474
 6001W        W71261  43.338  25.125   0.158
 6002W        W71262  44.844  16.013   2.664
 6003W        W71263  22.804  38.055   4.640
 6004W        W71264  44.017  35.214   2.398
 6005W        W71265  24.071  14.111   0.548
 6006W        W71266  13.164  17.309  14.903
 6007W        W71267  30.980  14.519   3.774
 6008W        W71268  22.676  36.420   0.848
 6009W        W71269  40.287  33.964   4.963
 6010W        W71270   0.089  15.395   2.280
 6011W        W71271  29.059  37.356  12.250
 6012W        W71272  11.411  18.806   3.686
 6013W        W71273   4.755  35.580  13.562
 6014W        W71274   8.287  43.959   1.451
 6015W        W71275  23.543  31.400   1.217
 6016W        W71276   0.457  44.414   4.083
 6017W        W71277   2.476  35.540   0.871
 6018W        W71278   1.689  15.170   0.944
 6019W        W71279   4.489  28.939  12.446
 6020W        W71280  15.840  28.129   4.129
 6021W        W71281   6.446   5.815  14.059
 6022W        W71282  41.754  34.083   4.742
 6023W        W71283  32.346  25.099   4.072
 6024W        W71284  33.031  42.668  12.482
 6025W        W71285  26.627   8.324   2.852
 6026W        W71286  44.291  14.879  13.888
 6027W        W71287  40.745  25.399   3.145
 6028W        W71288  37.598  16.286  14.016
 6029W        W71289  42.927  24.325  14.348
 6030W        W71290   2.286  10.219   0.206
 6031W        W71291  17.596   6.641   1.033
 6032W        W71292  21.665  13.882   1.323
 6033W        W71293  40.089  44.435  12.922
 6034W        W71294  40.598  40.497  14.400
 6035W        W71295  23.482   1.253  13.597
 6036W        W71296  37.448   7.783  10.652
 6037W        W71297   2.891  42.418  13.192
 6038W        W71298   0.184  24.537   3.202
 6039W        W71299   2.567   6.411  12.788
 6040W        W71300  43.527  37.786   0.814
 6041W        W71301  22.464   8.659  13.367
 6042W        W71302   0.449   8.672   1.415
 6043W        W71303  31.591   2.923  11.945
 6044W        W71304   0.188   2.743  10.712
 6045W        W71305  32.855  27.503  11.983
 6046W        W71306  29.122  27.098   1.059
 6047W        W71307  14.283  40.897   4.125
 6048W        W71308   2.328   9.879   4.131
 6049W        W71309  38.072   5.946   0.281
 6050W        W71310   0.307  38.651   2.275
 6051W        W71311  33.416  37.031  12.547
 6052W        W71312  30.239  13.017   3.693
 6053W        W71313   6.443  36.427  13.491
 6054W        W71314  43.268   1.073   0.725
 6055W        W71315  18.558  33.101  11.976
 6056W        W71316  35.682  14.930   2.341
 6057W        W71317  27.624  22.540   2.274
 6058W        W71318  12.090   8.619   0.976
 6059W        W71319   4.932  10.865   3.284
 6060W        W71320  33.999  35.913  11.111
 6061W        W71321   9.777   0.362   0.791
 6062W        W71322  37.415  15.030   3.926
 6063W        W71323   9.636  30.096  11.641
 6064W        W71324  25.643  31.945  11.937
 6065W        W71325  17.271   3.878   4.577
 6066W        W71326  11.629  16.153  10.627
 6067W        W71327  38.069   4.322   5.095
 6068W        W71328  14.272  43.055   5.138
 6069W        W71329  28.063   0.426  14.543
 6070W        W71330  14.632  20.534   3.738
 6071W        W71331  18.704  22.274  14.322
 6072W        W71332  39.317  38.822   2.769
 6073W        W71333  26.454  31.059  13.985
 6074W        W71334  38.539  15.256   0.427
 6075W        W71335  32.712   2.097   2.124
 6076W        W71336  23.166  15.231   4.092
 6077W        W71337  31.849   0.487   3.234
 6078W        W71338  41.772  35.379  14.257
 6079W        W71339  42.555   4.259   2.574
 6080W        W71340  10.482  18.720  14.519
 6081W        W71341  15.257  43.983  11.615
 6082W        W71342  12.826  40.588   0.913
 6083W        W71343  12.889   9.677   2.619
 6084W        W71344  37.471  17.554  10.569
 6085W        W71345  40.604  11.577   4.110
 6086W        W71346  33.548  37.051   2.850
 6087W        W71347  15.136  42.448  14.739
 6088W        W71348  39.240   6.158  10.521
 6089W        W71349   8.291   6.739  14.937
 6090W        W71350   8.850   1.050   1.970
 6091W        W71351  20.587  13.267   3.265
 6092W        W71352  21.966  11.641  13.446
 6093W        W71353  41.431  13.417  12.136
 6094W        W71354   5.457   2.341  14.970
 6095W        W71355   9.813  35.563   3.139
 6096W        W71356  44.406  31.243  13.664
 6097W        W71357  32.696  16.883   2.679
 6098W        W71358   8.205  34.195   4.564
 6099W        W71359  20.292  10.687  12.529
 6100W        W71360  30.378   0.888  10.486
 6101W        W71361  22.300  13.349   2.277
 6102W        W71362  10.167  32.927   1.844
 6103W        W71363  14.128  10.206   1.062
 6104W        W71364  29.173  44.653   0.222
 6105W        W71365  30.251   7.633   3.483
 6106W        W71366  39.398  37.068  11.233
 6107W        W71367  25.505   0.126  13.340
 6108W        W71368  42.846  40.309  12.653
 6109W        W71369  44.573  33.939  12.341
 6110W        W71370  18.919   3.484  10.710
 6111W        W71371  33.872  28.913  12.336
 6112W        W71372   4.117  12.261   0.958
 6113W        W71373  21.850  43.499   3.296
 6114W        W71374  29.017  34.499   4.422
 6115W        W71375   2.459   9.881   2.844
 6116W        W71376  42.304   9.224  13.312
 6117W        W71377  12.607  10.835   0.343
 6118W        W71378  37.546  13.593  12.561
 6119W        W71379  22.028  11.365  12.486
 6120W        W71380   5.712  30.996   1.314
 6121W        W71381  16.808  11.284  12.299
 6122W        W71382  13.248  39.317  12.969
 6123W        W71383  27.497   1.173  11.129
 6124W        W71384  31.271  32.045   2.312
 6125W        W71385  37.413  43.248  10.614
 6126W        W71386  38.810  27.903   3.109
 6127W        W71387  23.753  34.617  11.437
 6128W        W71388  36.944   4.022  14.858
 6129W        W71389   3.408   9.205   1.403
 6130W        W71390   4.952  40.548  10.646
 6131W        W71391   1.444  22.666  12.884
 6132W        W71392   3.322  30.697  12.343
 6133W        W71393  10.295   0.941   3.345
 6134W        W71394  36.893  10.743   1.387
 6135W        W71395  40.311  36.956  14.672
 6136W        W71396  27.732  33.693  14.479
 6137W        W71397  19.287   1.719  14.379
 6138W        W71398  28.201   4.770  11.172
 6139W        W71399  42.610  28.028  11.469
 6140W        W71400  36.187  12.222   0.367
 6141W        W71401  42.837  31.589   2.754
 6142W        W71402  15.439   9.691   3.781
 6143W        W71403  22.477   8.716   3.841
 6144W        W71404  16.724   9.717   2.255
 6145W        W71405  37.460   1.169   2.791
 6146W        W71406  27.350   6.669   0.091
 6147W        W71407   8.693  15.679   2.802
 6148W        W71408  20.606  31.876   4.184
 6149W        W71409  28.119  28.610  12.902
 6150W        W71410  22.059   7.816  13.560
 6151W        W71411  13.418  10.334   0.291
 6152W        W71412  44.894  26.058   1.905
 6153W        W71413  30.451  25.787   0.896
 6154W        W71414  15.016  29.802  11.929
 6155W        W71415  38.922  15.113  12.920
 6156W        W71416  38.465  27.666  14.913
 6157W        W71417  14.135   4.360  10.409
 6158W        W71418  15.621  12.551   3.472
 6159W        W71419  18.610  14.195   0.791
 6160W        W71420   4.883  26.599   2.697
 6161W        W71421  39.873  25.646  14.464
 6162W        W71422  38.839  14.115   3.672
 6163W        W71423   4.927  35.384   0.032
 6164W        W71424  43.653  34.414   0.569
 6165W        W71425  26.171  31.364  14.295
 6166W        W71426  17.427  32.884  11.147
 6167W        W71427  22.929  41.398   4.603
 6168W        W71428   4.458   6.046   0.750
 6169W        W71429  30.845   3.372  12.479
 6170W        W71430   0.072  17.103   4.180
 6171W        W71431   5.783  14.378  13.444
 6172W        W71432  40.149  27.936   4.640
 6173W        W71433   2.360  27.079  12.547
 6174W        W71434  28.985  42.308   2.258
 6175W        W71435  18.248   2.238   0.966
 6176W        W71436   1.927   2.968  13.534
 6177W        W71437   6.679  11.483   4.220
 6178W        W71438  21.708  26.110  14.922
 6179W        W71439  41.200  34.000   2.742
 6180W        W71440  28.039  22.016  14.213
 6181W        W71441  11.115  36.684   3.877
 6182W        W71442   9.714  14.787  11.661
 6183W        W71443   7.353  26.210  10.973
 6184W        W71444  21.450  42.342   3.803
 6185W        W71445  19.333  12.093   1.743
 6186W        W71446  37.512  26.181  11.201
 6187W        W71447  15.237  32.802  13.513
 6188W        W71448  41.774  13.288   4.182
 6189W        W71449  18.001  38.102   2.233
 6190W        W71450  25.271  32.405  12.552
 6191W        W71451  12.290  34.518  10.450
 6192W        W71452  22.411  10.099  14.401
 6193W        W71453  11.448   1.347  12.112
 6194W        W71454  13.967  27.027   0.471
 6195W        W71455  14.108  21.424   3.716
 6196W        W71456   4.360  20.551   0.307
 6197W        W71457   5.870  15.320  11.562
 6198W        W71458  17.015  35.154  13.851
 6199W        W71459   3.505  38.874  11.505
 6200W        W71460   7.342  37.738   0.985
 6201W        W71461   3.342  17.663   1.684
 6202W        W71462   2.012   8.247  13.941
 6203W        W71463  43.296   4.969  14.913
 6204W        W71464  34.385  14.604   3.999
 6205W        W71465   0.956  12.713  12.878
 6206W        W71466  16.916  29.438  11.997
 6207W        W71467  22.037  41.116   1.668
 6208W        W71468  38.445  37.107  13.534
 6209W        W71469  20.493  29.102   3.676
 6210W        W71470   9.835  16.733  11.645
 6211W        W71471  38.790  13.631   4.340
 6212W        W71472  13.746   3.238   3.150
 6213W        W71473  23.538  31.395   0.679
 6214W        W71474  16.112  33.682  13.944
 6215W        W71475  21.666  34.079  13.006
 6216W        W71476  42.653   6.494  13.464
 6217W        W71477   0.546  12.043  14.388
 6218W        W71478  31.354  19.650  10.603
 6219W        W71479  16.561  25.014  11.459
 6220W        W71480   4.695  18.994   0.050
 6221W        W71481   0.375  22.145  11.430
 6222W        W71482  44.853   7.738   3.991
 6223W        W71483  37.931  19.234   0.564
 6224W        W71484  22.482   8.636  10.636
 6225W        W71485   4.556  34.964  14.467
 6226W        W71486   0.265  24.190   0.044
 6227W        W71487  43.572  40.924  14.071
 6228W        W71488  17.242  33.660   0.256
 6229W        W71489  31.206  27.592   1.335
 6230W        W71490   3.411  22.677  14.288
 6231W        W71491   6.419  37.168   2.784
 6232W        W71492  29.612   9.201  14.919
 6233W        W71493  19.748  30.626  13.073
 6234W        W71494  41.014  19.216  10.740
 6235W        W71495  37.323   0.930   0.913
 6236W        W71496  39.469  39.984   2.369
 6237W        W71497  17.154  11.332   1.351
 6238W        W71498  29.434  26.463   2.689
 6239W        W71499  24.224   9.824   1.637
 6240W        W71500  29.505  33.989   2.255
 6241W        W71501   6.830  18.940  13.338
 6242W        W71502  12.385   7.407  12.614
 6243W        W71503  31.871  23.115   4.882
 6244W        W71504  30.008  38.861  12.130
 6245W        W71505  14.864   2.618   1.363
 6246W        W71506  39.333   7.883  14.420
 6247W        W71507   0.305  19.838   0.235
 6248W        W71508  30.019  43.678   2.228
 6249W        W71509  42.270   8.828   3.287
 6250W        W71510  38.382  35.521   2.651
 6251W        W71511  14.833  39.900   1.433
 6252W        W71512   5.956  21.659  14.421
 6253W        W71513  27.513   5.738   2.173
 6254W        W71514  33.220   9.347   0.252
 6255W        W71515  39.923  35.132   1.232
 6256W        W71516   7.862  16.089   2.557
 6257W        W71517  12.203   5.184   1.760
 6258W        W71518  12.224   8.391   3.351
 6259W        W71519  18.294  24.295   1.791
 6260W        W71520   0.603  12.693  14.785
 6261W        W71521  44.710  26.311  10.936
 6262W        W71522  40.663  20.666  11.885
 6263W        W71523  41.401  43.951  12.043
 6264W        W71524  30.197  27.603   3.644
 6265W        W71525  10.430  27.116   2.459
 6266W        W71526  39.732  20.574   3.631
 6267W        W71527  27.693   5.109   3.641
 6268W        W71528  24.090  14.819   2.589
 6269W        W71529  44.884  13.222  13.584
 6270W        W71530  16.764  14.363   2.264
 6271W        W71531  42.461  18.709  12.103
 6272W        W71532  30.001  28.460   3.259
 6273W        W71533  35.697  31.126  11.086
 6274W        W71534  44.237   3.477  12.329
 6275W        W71535  11.948  14.286   0.263
 6276W        W71536  19.639  31.492   1.439
 6277W        W71537  19.493  32.582  14.369
 6278W        W71538  44.324   6.118   5.172
 6279W        W71539  42.030  12.366  13.858
 6280W        W71540   8.662  36.448  11.099
 6281W        W71541  35.693  32.032  14.709
 6282W        W71542  34.547  10.216   1.254
 6283W        W71543  42.386  20.174  13.094
 6284W        W71544  36.451  16.461   2.863
 6285W        W71545  21.359  17.189   2.202
 6286W        W71546   3.765  23.507   0.018
 6287W        W71547  30.502  29.175  10.403
 6288W        W71548  43.292  22.024  14.874
 6289W        W71549  33.661   4.952  12.888
 6290W        W71550  41.749  32.905   2.199
 6291W        W71551  19.776  15.688  14.319
 6292W        W71552   4.256  19.349   2.140
 6293W        W71553  14.544  37.479  14.812
 6294W        W71554   3.950  15.779   0.682
 6295W        W71555  40.930  38.995   4.981
 6296W        W71556   4.434  29.014  10.669
 6297W        W71557  28.049  13.847  11.169
 6298W        W71558  35.012  13.831  12.396
 6299W        W71559  12.149   4.705   2.679
 6300W        W71560   7.679  16.076  11.098
 6301W        W71561  38.622   4.809  11.113
 6302W        W71562   5.795  42.726  13.085
 6303W        W71563  36.032  37.948   4.156
 6304W        W71564  26.413  10.162  13.120
 6305W        W71565  32.457  38.552   4.848
 6306W        W71566  34.081   3.370   9.936
 6307W        W71567  41.898   3.775   1.236
 6308W        W71568   6.992  19.229   1.754
 6309W        W71569  36.021  23.321  11.691
 6310W        W71570  13.485  32.976   4.861
 6311W        W71571  42.489  44.467   0.844
 6312W        W71572   2.941  26.180   2.167
 6313W        W71573  39.949  41.080  10.756
 6314W        W71574  22.403   3.312  12.557
 6315W        W71575  23.647   7.344  11.613
 6316W        W71576   0.845  12.590  12.006
 6317W        W71577  39.292  39.512  11.611
 6318W        W71578   3.156  25.156   0.369
 6319W        W71579  34.848  21.786   1.355
 6320W        W71580  33.858  14.470  12.938
 6321W        W71581   1.575  36.511   4.503
 6322W        W71582  22.037   2.728  13.979
 6323W        W71583  17.839  18.520   3.174
 6324W        W71584  26.123  15.274   4.142
 6325W        W71585  32.135  11.469  11.243
 6326W        W71586  42.383  28.089  11.922
 6327W        W71587  31.063  34.844   2.653
 6328W        W71588  26.227   1.529  12.578
 6329W        W71589  37.320  39.457  14.935
 6330W        W71590   3.450   6.420  12.339
 6331W        W71591  13.067  22.515   2.676
 6332W        W71592   2.870  27.026   0.789
 6333W        W71593  28.541   1.711   0.385
 6334W        W71594  39.624   1.744  11.563
 6335W        W71595  15.675  25.464  10.273
 6336W        W71596   1.272   7.738  13.867
 6337W        W71597  37.328  14.196   3.806
 6338W        W71598  26.454  30.006  12.685
 6339W        W71599  34.496  13.923  10.670
 6340W        W71600  25.136   0.821  12.364
 6341W        W71601  11.652  12.681   2.195
 6342W        W71602   7.214   9.917   1.746
 6343W        W71603  42.494  40.036   4.185
 6344W        W71604  30.910  40.982   1.407
 6345W        W71605   0.583  13.079   4.758
 6346W        W71606  10.858  39.547  10.502
 6347W        W71607  11.923  25.604  14.885
 6348W        W71608  20.552  34.512  14.349
 6349W        W71609  37.495  30.971  11.636
 6350W        W71610   5.723  14.328  12.514
 6351W        W71611   0.022  38.308   2.711
 6352W        W71612  11.466  42.050  11.675
 6353W        W71613  34.978  30.879   3.698
 6354W        W71614  16.752  28.006  11.913
 6355W        W71615  26.368  40.483  12.544
 6356W        W71616  20.622  20.647  11.414
 6357W        W71617  16.301  35.702   2.428
 6358W        W71618  23.088  33.450  11.629
 6359W        W71619  18.168  37.966   4.199
 6360W        W71620  30.750  38.450   2.341
 6361W        W71621  27.238  21.207  13.498
 6362W        W71622  10.733   5.779  13.550
 6363W        W71623  33.134   3.903  11.229
 6364W        W71624  27.517  26.684  13.786
 6365W        W71625  25.224   8.991  14.698
 6366W        W71626  28.609   6.435   3.194
 6367W        W71627   4.424  21.997   0.289
 6368W        W71628  28.881  27.446  14.782
 6369W        W71629  34.008  33.822   0.787
 6370W        W71630  37.571  16.673   0.295
 6371W        W71631  39.525  19.405  11.342
 6372W        W71632  33.838  34.023  11.399
 6373W        W71633  12.765   8.696   4.146
 6374W        W71634  26.503  14.568  13.062
 6375W        W71635   9.753   1.802  14.029
 6376W        W71636  21.037  37.390   3.008
 6377W        W71637  10.261  33.455  14.971
 6378W        W71638  20.258  19.230   4.060
 6379W        W71639  15.307  38.856   2.938
 6380W        W71640   2.971  24.945   0.806
 6381W        W71641  26.546  42.760   4.615
 6382W        W71642  36.636  43.722   2.727
 6383W        W71643  44.571  25.428   5.117
 6384W        W71644  31.503  31.121  11.839
 6385W        W71645  19.194  23.280  11.030
 6386W        W71646  14.139  15.557   2.183
 6387W        W71647   4.383  44.469  14.938
 6388W        W71648  16.614  32.518   2.890
 6389W        W71649  17.007  19.236  13.789
 6390W        W71650  37.538   4.786  11.584
 6391W        W71651  38.736  24.679   3.611
 6392W        W71652  11.683  12.181   4.530
 6393W        W71653  35.872  25.647   1.025
 6394W        W71654  17.286   9.826   1.211
 6395W        W71655  14.218  36.400   4.226
 6396W        W71656  25.717  21.705  10.903
 6397W        W71657  18.775  25.958   3.144
 6398W        W71658   7.896  33.502  11.082
 6399W        W71659  12.404  18.048   3.747
 6400W        W71660   7.921  25.118   3.557
 6401W        W71661   9.087   7.087  12.088
 6402W        W71662  42.012  22.067   4.397
 6403W        W71663  11.204  16.786  11.960
 6404W        W71664   9.145   5.359  14.779
 6405W        W71665  37.577  32.462   3.758
 6406W        W71666  36.513  39.016  13.353
 6407W        W71667   7.399  14.422   3.190
 6408W        W71668  30.403  40.988   1.298
 6409W        W71669   9.849  15.374   3.752
 6410W        W71670  11.332  21.493   2.671
 6411W        W71671   9.121  39.047   1.865
 6412W        W71672  36.446  30.140   1.806
 6413W        W71673  15.003   2.306   4.492
 6414W        W71674  18.481   0.754   2.243
 6415W        W71675  41.001  40.680   1.191
 6416W        W71676  38.795   3.221  14.226
 6417W        W71677   5.964  43.912  11.285
 6418W        W71678  35.869  38.521   3.405
 6419W        W71679   0.809   8.188   3.438
 6420W        W71680   9.319  36.032  10.728
 6421W        W71681  13.502  11.214   0.454
 6422W        W71682  31.827  24.867  13.733
 6423W        W71683  42.991  31.413   1.814
 6424W        W71684  41.674  42.917   4.650
 6425W        W71685  34.031   1.752   2.358
 6426W        W71686   0.932  27.826  13.053
 6427W        W71687  42.555  41.426  12.999
 6428W        W71688   1.450  36.363  11.366
 6429W        W71689  43.687  36.854  13.020
 6430W        W71690  33.077   6.138  11.489
 6431W        W71691  21.014  11.291  12.444
 6432W        W71692  15.122  13.684  10.992
 6433W        W71693  25.727  24.158  13.762
 6434W        W71694  20.087  13.824  12.176
 6435W        W71695  27.036   4.622   4.774
 6436W        W71696  44.405  38.739   0.753
 6437W        W71697  32.440  18.946   1.208
 6438W        W71698  22.537  27.906   5.066
 6439W        W71699   1.376  34.475  13.851
 6440W        W71700  36.595  38.846  14.837
 6441W        W71701  41.761   9.797  11.209
 6442W        W71702  15.635  39.874   2.850
 6443W        W71703  20.569   8.413   0.440
 6444W        W71704  10.630  14.531   0.199
 6445W        W71705  10.409  20.649   4.504
 6446W        W71706  21.155  27.904   3.365
 6447W        W71707  38.296  43.306   1.873
 6448W        W71708  36.965  19.655   2.788
 6449W        W71709  40.344  38.469   2.193
 6450W        W71710   0.504  34.636  11.458
 6451W        W71711  20.667   0.520  14.898
 6452W        W71712  21.690  28.999   2.249
 6453W        W71713  29.066   2.718  14.023
 6454W        W71714  37.980  12.846  11.756
 6455W        W71715  17.711  38.556   2.754
 6456W        W71716  30.967  35.118  11.301
 6457W        W71717  34.365   2.408   4.598
 6458W        W71718  16.622  26.449  14.349
 6459W        W71719  30.838  10.172   4.641
 6460W        W71720  42.320  21.806  13.073
 6461W        W71721  26.121   8.267  10.668
 6462W        W71722  21.577  19.265  11.517
 6463W        W71723  36.854  18.568   3.797
 6464W        W71724  10.758  15.528  13.098
 6465W        W71725  19.561  12.458   2.791
 6466W        W71726  17.998  28.364  11.042
 6467W        W71727  33.176  27.616  14.838
 6468W        W71728  35.165  44.576   2.221
 6469W        W71729  32.965  28.427  11.033
 6470W        W71730  24.714   3.102  12.237
 6471W        W71731  34.414  19.993  14.366
 6472W        W71732  17.274  24.991   4.582
 6473W        W71733  29.391  32.054  11.877
 6474W        W71734  43.049  14.938  13.853
 6475W        W71735   3.238  15.656  13.412
 6476W        W71736  42.472  42.001   4.144
 6477W        W71737  43.310  31.458   2.869
 6478W        W71738  33.294  44.263   2.726
 6479W        W71739   4.410  37.467   1.400
 6480W        W71740   5.157  29.017  12.906
 6481W        W71741  32.929  33.137  14.597
 6482W        W71742  10.181  17.168  12.550
 6483W        W71743  19.804  31.984  14.746
 6484W        W71744  27.007  17.147   4.444
 6485W        W71745   0.778  43.192  13.022
 6486W        W71746  34.502  42.296  12.862
 6487W        W71747  17.702  24.533   2.748
 6488W        W71748  36.170  17.951   4.128
 6489W        W71749  44.314  13.259  12.909
 6490W        W71750  26.293  27.318   0.704
 6491W        W71751  18.696   2.327   2.645
 6492W        W71752  27.056   1.652  13.823
 6493W        W71753  17.208  24.170  14.057
 6494W        W71754  34.762  35.957  10.851
 6495W        W71755  30.965   9.268  10.859
 6496W        W71756  25.922   7.357   0.016
 6497W        W71757  26.735  20.441  12.355
 6498W        W71758  40.918  27.074  13.387
 6499W        W71759  39.990  35.822  11.950
 6500W        W71760   3.767  27.625   3.235
 6501W        W71761  15.576   6.654  13.500
 6502W        W71762  26.075  14.749  13.883
 6503W        W71763   3.209   1.754   4.279
 6504W        W71764  21.341  26.981   4.296
 6505W        W71765  44.105  10.165  12.478
 6506W        W71766  19.280  16.293  12.966
 6507W        W71767  16.113   7.656   2.132
 6508W        W71768   8.994  30.053   3.653
 6509W        W71769  13.987  17.187   3.606
 6510W        W71770  28.187  27.990  14.905
 6511W        W71771  40.400   7.449   3.698
 6512W        W71772   5.803  39.273   3.572
 6513W        W71773  23.974  10.658  11.471
 6514W        W71774   7.645   5.665  14.698
 6515W        W71775  25.978  22.795   2.782
 6516W        W71776  12.215  16.990  11.464
 6517W        W71777   1.546  27.632  13.885
 6518W        W71778  28.260  17.400  12.642
 6519W        W71779   6.139  16.091  11.175
 6520W        W71780  16.522  28.618  14.884
 6521W        W71781  15.347  37.995  14.140
 6522W        W71782  10.577  30.862   1.458
 6523W        W71783  25.970  39.752   2.078
 6524W        W71784   9.424  34.444   3.312
 6525W        W71785  10.742  26.811   1.727
 6526W        W71786  26.662  35.142  11.089
 6527W        W71787  32.125  27.027   1.407
 6528W        W71788   1.962  41.284  12.013
 6529W        W71789  28.125  13.703   3.896
 6530W        W71790   2.881  39.095  14.356
 6531W        W71791  40.411  14.622   4.128
 6532W        W71792  15.347  33.104  11.201
 6533W        W71793  35.008  23.551   1.631
 6534W        W71794   4.483  42.653  11.551
 6535W        W71795  22.589  10.642  13.748
 6536W        W71796  28.127  26.763   0.731
 6537W        W71797   6.993   8.688   3.796
 6538W        W71798  16.836   8.895   0.953
 6539W        W71799  40.462  20.818   1.927
 6540W        W71800   2.424  29.515   1.701
 6541W        W71801   5.281   4.912  10.677
 6542W        W71802   5.173  37.845   3.369
 6543W        W71803  44.964  20.734   1.299
 6544W        W71804   5.959  21.939  13.475
 6545W        W71805  13.970  10.335   0.350
 6546W        W71806  37.988  36.611   2.298
 6547W        W71807  13.260  24.203  13.610
 6548W        W71808   5.223   3.457  10.678
 6549W        W71809   5.414   7.871  11.943
 6550W        W71810  15.819   8.289   1.973
 6551W        W71811  26.897   5.620   4.541
 6552W        W71812  28.104   3.561   1.364
 6553W        W71813  44.461  22.251  11.505
 6554W        W71814  41.408  37.734  13.738
 6555W        W71815  34.998  27.044   2.550
 6556W        W71816  24.542  12.234   0.695
 6557W        W71817  24.114  15.230   0.352
 6558W        W71818   1.935  30.339  14.862
 6559W        W71819  37.369  13.315   3.760
 6560W        W71820  41.922   7.496  12.657
 6561W        W71821  16.619  22.516   0.051
 6562W        W71822  17.370  23.245   1.001
 6563W        W71823  26.639  38.101  10.677
 6564W        W71824  39.980  30.916  10.922
 6565W        W71825  39.769  31.006   4.501
 6566W        W71826  29.960  43.501  13.993
 6567W        W71827  10.233  37.392   9.739
 6568W        W71828  17.716  34.194  12.416
 6569W        W71829  40.549  26.181   0.439
 6570W        W71830   6.019  42.634  11.613
 6571W        W71831   2.268  37.338   4.655
 6572W        W71832  41.344  34.513   0.390
 6573W        W71833  44.337  24.160   1.822
 6574W        W71834  26.581  22.638  13.648
 6575W        W71835  19.898  19.551   4.209
 6576W        W71836   6.526  14.508   3.713
 6577W        W71837  38.800  11.024  11.142
 6578W        W71838  30.996  14.088  13.495
 6579W        W71839   3.171  17.538  11.094
 6580W        W71840  18.763  17.169   3.652
 6581W        W71841   9.613  25.826   0.293
 6582W        W71842   1.679  29.245  11.840
 6583W        W71843  39.006  40.056   4.566
 6584W        W71844   2.025  37.564   2.800
 6585W        W71845  25.109  11.549   2.211
 6586W        W71846   8.555  24.618   5.398
 6587W        W71847  29.385  25.579  10.555
 6588W        W71848  37.433   6.789  10.704
 6589W        W71849  24.623  21.813   2.810
 6590W        W71850  18.022  26.055   1.899
 6591W        W71851  16.270  41.855  10.874
 6592W        W71852  19.463   7.251   4.187
 6593W        W71853  12.721   3.444  10.716
 6594W        W71854  44.476  43.353  14.761
 6595W        W71855  15.787  29.407  11.150
 6596W        W71856  18.670   9.813   1.890
 6597W        W71857  10.701  44.522  11.604
 6598W        W71858  18.154  26.967  12.870
 6599W        W71859   3.219   5.959   4.882
 6600W        W71860  26.147  21.847  10.168
 6601W        W71861   3.990  29.948  13.537
 6602W        W71862  44.480  23.078  12.553
 6603W        W71863  22.653  12.900  14.351
 6604W        W71864  41.582  42.007  12.305
 6605W        W71865  30.685  44.343   5.004
 6606W        W71866  36.474  31.583   0.477
 6607W        W71867   3.421  24.547  12.849
 6608W        W71868  23.626  26.128  11.609
 6609W        W71869  27.617  13.294  10.731
 6610W        W71870  21.731  30.923  13.816
 6611W        W71871   2.780  22.101   0.354
 6612W        W71872  26.474  27.090  11.581
 6613W        W71873   3.002  11.405  10.911
 6614W        W71874  15.567   6.571  14.028
 6615W        W71875   5.269  36.937   0.206
 6616W        W71876   8.814  36.009  12.493
 6617W        W71877  15.675  36.426  11.136
 6618W        W71878   2.274  14.284   4.519
 6619W        W71879  13.426  14.021   0.393
 6620W        W71880  33.097   3.247   3.324
 6621W        W71881  17.107  41.863  11.286
 6622W        W71882  27.814  37.126   4.165
 6623W        W71883  20.723  43.428  14.858
 6624W        W71884  41.339   3.963   5.127
 6625W        W71885   6.406  30.120  14.961
 6626W        W71886   7.839  37.511  11.910
 6627W        W71887   3.415  32.984   3.099
 6628W        W71888  29.381  22.136   2.322
 6629W        W71889   0.702  34.446  10.632
 6630W        W71890  16.651   4.700   4.808
 6631W        W71891  14.275   9.805  14.709
 6632W        W71892  12.559  16.602   3.668
 6633W        W71893  14.978  10.927   4.996
 6634W        W71894   9.671  16.557  10.671
 6635W        W71895   2.565  42.018   2.301
 6636W        W71896  41.769  19.233   4.242
 6637W        W71897  32.456   9.892   4.087
 6638W        W71898  14.169  33.350  14.245
 6639W        W71899   3.377  39.072   9.912
 6640W        W71900   5.987  22.247   1.839
 6641W        W71901  20.560  23.484   5.052
 6642W        W71902  30.172  14.887   4.303
 6643W        W71903  24.035  25.562   3.082
 6644W        W71904  24.167   6.779  12.017
 6645W        W71905  18.803  27.878  11.168
 6646W        W71906  32.113  19.910  14.633
 6647W        W71907  28.988  34.017  12.415
 6648W        W71908   6.430  26.253  14.247
 6649W        W71909  21.237   5.674   3.381
 6650W        W71910  24.974  25.128   4.090
 6651W        W71911  14.830   0.713   4.303
 6652W        W71912  16.641   1.993   0.809
 6653W        W71913  12.804  39.356  12.401
 6654W        W71914  13.365  36.402   0.837
 6655W        W71915   8.431   5.716  11.587
 6656W        W71916  32.443  21.079  10.663
 6657W        W71917  44.800  13.739  14.353
 6658W        W71918   3.383  18.597   0.293
 6659W        W71919  33.455  38.510   3.156
 6660W        W71920   2.387  39.118  10.530
 6661W        W71921  24.021   7.663  14.232
 6662W        W71922   7.467  25.406   4.536
 6663W        W71923  17.263  28.617  10.737
 6664W        W71924  26.003  32.515  11.911
 6665W        W71925  23.658  24.778   1.484
 6666W        W71926  43.913  37.997  12.100
 6667W        W71927  34.008  37.699  11.734
 6668W        W71928  15.518  11.847   1.202
 6669W        W71929   2.505   5.830   1.943
 6670W        W71930   0.042  42.152  11.634
 6671W        W71931  40.554   5.849  11.993
 6672W        W71932  43.971   5.455   1.983
 6673W        W71933  16.887  37.680   4.219
 6674W        W71934   4.146  44.244  14.506
 6675W        W71935  35.437  18.016  11.647
 6676W        W71936  12.339  33.819   2.623
 6677W        W71937   9.209   2.966  14.320
 6678W        W71938   5.121   0.586  11.960
 6679W        W71939  42.826  38.535   2.626
 6680W        W71940  41.844  24.047  14.134
 6681W        W71941  26.053  19.837   5.178
 6682W        W71942  24.025  25.018   3.983
 6683W        W71943   9.865  32.894  13.991
 6684W        W71944  19.724  12.149  13.826
 6685W        W71945  44.444  12.301  10.694
 6686W        W71946  35.994  13.751  11.182
 6687W        W71947   0.997  23.206   3.416
 6688W        W71948  24.944   5.194  11.776
 6689W        W71949  20.867  43.406  11.909
 6690W        W71950  15.229  16.735  13.134
 6691W        W71951  15.563   0.532   3.269
 6692W        W71952   1.472  35.442   1.006
 6693W        W71953  33.134  19.663  13.286
 6694W        W71954   2.709  18.533  14.307
 6695W        W71955  28.149  27.888  11.016
 6696W        W71956  41.271  35.114  14.272
 6697W        W71957  39.262   4.474   4.979
 6698W        W71958   0.901  42.345  13.529
 6699W        W71959   1.326   5.934  10.553
 6700W        W71960   2.195  11.889  11.777
 6701W        W71961  41.052   0.617  11.259
 6702W        W71962  16.591  24.577   0.322
 6703W        W71963  30.643  31.393   0.516
 6704W        W71964  43.317  25.594   3.816
 6705W        W71965  25.486  39.136   3.366
 6706W        W71966  31.583   0.075  13.332
 6707W        W71967   7.190  26.131   4.090
 6708W        W71968   5.661   6.727   0.368
 6709W        W71969  36.406  11.516  12.496
 6710W        W71970   5.740   9.477  13.612
 6711W        W71971  39.460   9.876   1.184
 6712W        W71972  40.055  15.772   0.699
 6713W        W71973   7.381  16.931   2.855
 6714W        W71974  32.899  32.710  13.460
 6715W        W71975  34.990  35.167  14.932
 6716W        W71976  24.304  16.681  12.049
 6717W        W71977  14.168  35.420   0.338
 6718W        W71978  28.086  12.436   1.062
 6719W        W71979  17.753  44.951   2.766
 6720W        W71980   8.163  19.538   3.088
 6721W        W71981   5.978  11.454   1.871
 6722W        W71982  15.688   1.046   3.134
 6723W        W71983  28.545  39.341   4.097
 6724W        W71984   3.080  31.407  11.601
 6725W        W71985  42.226  28.605   0.981
 6726W        W71986  37.139   4.285   2.664
 6727W        W71987  29.092   1.914   2.377
 6728W        W71988  35.925  27.095  13.492
 6729W        W71989  16.640   8.261  13.579
 6730W        W71990  43.876  24.057   3.231
 6731W        W71991   2.968   6.759   0.298
 6732W        W71992  42.386  25.619  12.406
 6733W        W71993  26.065   4.170  13.917
 6734W        W71994  17.462   5.289   1.493
 6735W        W71995   5.732  44.251   3.301
 6736W        W71996  14.216  12.068  12.382
 6737W        W71997   5.688   2.345   4.674
 6738W        W71998  22.303  21.799  12.011
 6739W        W71999   8.347  11.608   4.932
 6740W        W72000   1.455  24.653  13.540
 6741W        W72001   5.145  16.770  10.877
 6742W        W72002   4.766  33.501  11.698
 6743W        W72003  32.879  26.461  14.358
 6744W        W72004  25.432   6.760  12.230
 6745W        W72005   3.996  31.613  11.593
 6746W        W72006   3.180  28.847  13.470
 6747W        W72007  19.036  41.795   2.908
 6748W        W72008  11.155  25.358   0.990
 6749W        W72009  18.803  31.928   4.186
 6750W        W72010   3.244  10.878  12.318
 6751W        W72011  40.501  37.393  13.383
 6752W        W72012   6.289   2.731   1.792
 6753W        W72013  22.955  10.713  10.420
 6754W        W72014  35.315  41.369   2.827
 6755W        W72015  27.937  34.357   0.842
 6756W        W72016  22.316  33.650  13.454
 6757W        W72017  10.193  16.686  14.421
 6758W        W72018  14.795   3.967   1.763
 6759W        W72019  32.420  41.958   3.663
 6760W        W72020  32.425  29.622   0.750
 6761W        W72021  30.058  13.840   2.128
 6762W        W72022  44.885   2.272  12.324
 6763W        W72023  16.553  17.232   1.025
 6764W        W72024   9.430  10.806   3.037
 6765W        W72025  33.851  30.143   0.918
 6766W        W72026  43.930  38.796  10.597
 6767W        W72027  23.560  36.339   3.794
 6768W        W72028  18.382  21.628   5.050
 6769W        W72029   3.811  17.853  12.495
 6770W        W72030  20.411  14.059   0.299
 6771W        W72031  12.338  42.290  11.176
 6772W        W72032  18.958  42.763  14.941
 6773W        W72033  29.687   8.275   0.901
 6774W        W72034  12.890  14.691   3.399
 6775W        W72035  30.594   3.496  14.301
 6776W        W72036  10.161  15.831   4.543
 6777W        W72037   8.483  20.762  12.711
 6778W        W72038  31.478  36.904   3.733
 6779W        W72039  13.507  29.623  14.308
 6780W        W72040  39.815  18.194   0.205
 6781W        W72041   3.670  12.078   4.930
 6782W        W72042  29.179  27.215  12.113
 6783W        W72043  31.968   6.758  14.291
 6784W        W72044   0.284  35.329   2.007
 6785W        W72045  30.410  17.715   3.269
 6786W        W72046  18.288  21.116   1.180
 6787W        W72047  44.693  43.734  14.417
 6788W        W72048  31.607  44.079   1.960
 6789W        W72049  29.899  26.116   1.691
 6790W        W72050  11.036  34.413   4.886
 6791W        W72051  30.516   1.777  10.971
 6792W        W72052   6.365   6.706  13.888
 6793W        W72053  33.444   3.292   5.019
 6794W        W72054   0.625  16.513   4.557
 6795W        W72055  41.551  30.511   1.640
 6796W        W72056   7.751  37.418  10.950
 6797W        W72057   6.401  31.969  12.920
 6798W        W72058  44.498   7.763  13.315
 6799W        W72059  26.439   8.831   5.019
 6800W        W72060   4.481  37.899   2.386
 6801W        W72061  16.795  18.232   4.105
 6802W        W72062   5.526  10.352   1.763
 6803W        W72063  24.255   6.228   0.062
 6804W        W72064  25.599  18.576   0.391
 6805W        W72065  21.562  38.668  11.065
 6806W        W72066  18.779  37.862  12.630
 6807W        W72067  27.735  13.291  12.395
 6808W        W72068  10.635  35.533  12.451
 6809W        W72069  13.895  22.676   4.406
 6810W        W72070  40.228  44.528  14.359
 6811W        W72071  38.255  22.143  13.059
 6812W        W72072  35.465  28.916   0.689
 6813W        W72073  39.052  42.311   3.352
 6814W        W72074  40.925  22.654   0.951
 6815W        W72075   1.888  24.576  13.278
 6816W        W72076  42.196  35.943  13.949
 6817W        W72077  38.906  42.439   1.898
 6818W        W72078  35.972   1.180   1.742
 6819W        W72079  42.292  13.697   1.721
 6820W        W72080  22.211  18.323   4.603
 6821W        W72081   2.903   9.835  11.651
 6822W        W72082   5.668   6.039   3.279
 6823W        W72083  16.808   3.658  11.030
 6824W        W72084  18.519  37.435   3.240
 6825W        W72085   4.802  11.344  12.606
 6826W        W72086   1.467  14.324   4.225
 6827W        W72087  20.019  21.776   4.498
 6828W        W72088  32.138   1.496   3.145
 6829W        W72089   6.666  35.881   3.643
 6830W        W72090  18.174  21.075   2.119
 6831W        W72091  26.106  35.626  14.461
 6832W        W72092  42.333   5.310   4.632
 6833W        W72093  19.323   3.294   2.800
 6834W        W72094  12.654  24.469  12.596
 6835W        W72095  31.219  18.969   0.499
 6836W        W72096  36.598  10.245  12.820
 6837W        W72097  19.069  19.319   3.224
 6838W        W72098  39.135  43.446  13.480
 6839W        W72099  34.365  38.077   4.873
 6840W        W72100   0.029  13.847   3.173
 6841W        W72101  35.646  24.102  14.425
 6842W        W72102  12.312  11.506  11.582
 6843W        W72103   7.871   0.147  14.783
 6844W        W72104  35.200   0.431   4.465
 6845W        W72105  27.058  23.837   3.101
 6846W        W72106  21.195  13.042   4.756
 6847W        W72107   5.308  34.461  14.037
 6848W        W72108  44.277  13.269   3.085
 6849W        W72109  40.609  31.510  13.080
 6850W        W72110  24.644  13.140   1.770
 6851W        W72111   7.739   9.035   0.759
 6852W        W72112  34.360   7.035   3.578
 6853W        W72113  26.156  14.860   1.622
 6854W        W72114   6.391   7.758   2.212
 6855W        W72115  23.977  18.845  12.544
 6856W        W72116  19.135  38.977   5.057
 6857W        W72117  42.045   6.831  11.471
 6858W        W72118  40.477   8.325   4.645
 6859W        W72119  40.516  21.274  11.273
 6860W        W72120  26.711  27.367   1.899
 6861W        W72121  21.819  16.223   4.638
 6862W        W72122   2.252  21.145   1.382
 6863W        W72123   0.911  14.717  13.074
 6864W        W72124  27.186  32.171  11.517
 6865W        W72125  16.050   0.847   1.865
 6866W        W72126  39.754  44.322  14.755
 6867W        W72127   9.323  28.699   1.159
 6868W        W72128  33.817  36.536   4.982
 6869W        W72129  32.941  14.330   3.553
 6870W        W72130   8.868  36.776  10.743
 6871W        W72131  39.031  31.062   4.108
 6872W        W72132  30.452  31.177   2.454
 6873W        W72133  18.298  18.681  10.399
 6874W        W72134  18.566  13.860   0.401
 6875W        W72135  39.528  37.786  14.969
 6876W        W72136   5.667  17.303   3.152
 6877W        W72137  29.924  43.568   4.602
 6878W        W72138   4.651  18.060  10.683
 6879W        W72139  22.393  39.949  10.552
 6880W        W72140   0.959  15.900   1.255
 6881W        W72141  28.585  14.334  14.535
 6882W        W72142  24.492  16.106   1.379
 6883W        W72143  43.322  44.344   4.533
 6884W        W72144  10.858  14.088  11.731
 6885W        W72145   2.691  20.113  14.524
 6886W        W72146  20.960  22.653   0.836
 6887W        W72147  40.281  15.683  14.354
 6888W        W72148   8.863   7.560  11.945
 6889W        W72149  16.812  15.053   3.237
 6890W        W72150  43.306  28.026  14.879
 6891W        W72151  39.820   3.256   0.988
 6892W        W72152  30.134  18.184   2.573
 6893W        W72153  37.669  26.625   1.801
 6894W        W72154  18.086  18.115  10.254
 6895W        W72155  40.267  13.281  12.897
 6896W        W72156  27.695  35.503  12.834
 6897W        W72157   5.838  20.568   0.891
 6898W        W72158  15.006   3.717  10.657
 6899W        W72159  18.387  40.689   3.828
 6900W        W72160  27.450  28.952   4.564
 6901W        W72161  42.606  38.507  14.847
 6902W        W72162  30.056  19.264   0.842
 6903W        W72163   4.166  40.001   1.754
 6904W        W72164  30.986  43.210   3.073
 6905W        W72165  12.131   2.628  13.284
 6906W        W72166   5.900   1.289  12.479
 6907W        W72167  27.971  18.663  14.384
 6908W        W72168  31.679   3.394  12.159
 6909W        W72169  25.165  17.426   9.745
 6910W        W72170  37.845  36.107  14.795
 6911W        W72171  35.352  23.287  10.800
 6912W        W72172   9.843  32.127  12.107
 6913W        W72173  22.699  40.441  14.351
 6914W        W72174  21.231  27.959  14.299
 6915W        W72175   0.702   2.656  10.663
 6916W        W72176  25.433   2.946   2.401
 6917W        W72177  44.206   7.311   2.334
 6918W        W72178  12.671  44.773  10.603
 6919W        W72179  38.293  38.533  12.861
 6920W        W72180  20.319  33.848  11.483
 6921W        W72181  32.119  35.775  13.025
 6922W        W72182   5.834  37.899  10.659
 6923W        W72183  40.605   1.385  13.105
 6924W        W72184  19.954  14.719   0.494
 6925W        W72185   3.906  33.886   3.818
 6926W        W72186  10.609   8.878   0.822
 6927W        W72187   7.111  26.170  12.416
 6928W        W72188  22.467  14.651  13.122
 6929W        W72189  40.850  14.605  12.078
 6930W        W72190  21.791  30.561  12.870
 6931W        W72191  20.682  28.460  14.827
 6932W        W72192   9.116  10.971  14.754
 6933W        W72193  22.630  37.645   1.951
 6934W        W72194  21.911  43.306   1.408
 6935W        W72195  28.349   2.684   4.194
 6936W        W72196  10.462   2.500   4.183
 6937W        W72197  33.825  13.637   3.494
 6938W        W72198   9.870  28.627  11.574
 6939W        W72199  20.181   5.659  14.497
 6940W        W72200  42.850  20.587   4.863
 6941W        W72201  30.253  39.154   0.336
 6942W        W72202  33.613  37.480   1.218
 6943W        W72203  16.498  21.235  12.616
 6944W        W72204  23.592  35.871   1.308
 6945W        W72205   3.980  43.290  14.375
 6946W        W72206  34.356  22.054  13.852
 6947W        W72207  23.886  25.218  12.390
 6948W        W72208  22.607   9.417  12.972
 6949W        W72209   9.699  30.915  12.437
 6950W        W72210  11.811  34.569   4.629
 6951W        W72211   6.850   3.413  13.776
 6952W        W72212  41.994  33.110   4.630
 6953W        W72213   0.980  15.265   4.034
 6954W        W72214  27.842  35.870   4.783
 6955W        W72215  41.244  37.539   1.314
 6956W        W72216   3.297  42.847  13.969
 6957W        W72217   0.908   8.923   1.339
 6958W        W72218   6.592  33.236   2.289
 6959W        W72219  37.111   0.946  13.943
 6960W        W72220  35.086   3.175  12.619
 6961W        W72221  11.594  31.588   2.240
 6962W        W72222  14.747  28.505   4.022
 6963W        W72223   2.653  29.053   4.965
 6964W        W72224  24.755  42.572  14.394
 6965W        W72225  41.224   6.202   0.884
 6966W        W72226  31.050  41.093   4.623
 6967W        W72227  30.333  26.803  10.714
 6968W        W72228  44.289  29.679   4.476
 6969W        W72229  27.042  35.832  11.022
 6970W        W72230  41.104  34.392   4.879
 6971W        W72231  17.741   4.972   4.139
 6972W        W72232  11.227  16.582   4.089
 6973W        W72233  26.478   1.023  13.401
 6974W        W72234  19.679  11.299  10.216
 6975W        W72235   9.707  30.817  13.912
 6976W        W72236  12.151  15.159  10.695
 6977W        W72237  31.587  10.621  14.712
 6978W        W72238  18.964  43.393   1.328
 6979W        W72239  34.484  43.307  13.820
 6980W        W72240   1.706  28.979  11.397
 6981W        W72241  18.582  18.048   1.276
 6982W        W72242   1.226  29.432   1.312
 6983W        W72243  20.730  11.288  12.866
 6984W        W72244  19.047   8.315   4.223
 6985W        W72245  18.557   0.436   3.884
 6986W        W72246  18.473  40.636   5.145
 6987W        W72247  23.238  25.073   2.812
 6988W        W72248  33.442  24.656  12.440
 6989W        W72249  42.584  41.486  11.587
 6990W        W72250  31.655  18.981   0.763
 6991W        W72251  31.943  40.814  14.753
 6992W        W72252  14.816  31.557   1.160
 6993W        W72253  11.151  31.180  11.500
 6994W        W72254  10.512   3.204   4.109
 6995W        W72255   1.163  40.456   5.372
 6996W        W72256  37.217  41.840   4.087
 6997W        W72257  32.627   1.044  12.474
 6998W        W72258  37.358   5.805   4.618
 6999W        W72259  22.198  20.033   4.279
 7000W        W72260   7.104  20.485   2.708
 7001W        W72261   2.296   0.008  13.025
 7002W        W72262  17.686  26.059   3.676
 7003W        W72263  26.582  18.309  13.827
 7004W        W72264   2.369   9.147   3.577
 7005W        W72265  21.546  31.395   0.492
 7006W        W72266  25.308  17.215  13.486
 7007W        W72267  28.253  40.474   3.626
 7008W        W72268  10.627  27.542   2.708
 7009W        W72269   1.401  12.233   1.781
 7010W        W72270  31.706  37.875   3.671
 7011W        W72271  12.183  31.525  11.994
 7012W        W72272  32.023  31.303   2.544
 7013W        W72273  40.553  32.975  14.333
 7014W        W72274  39.459  39.612   0.355
 7015W        W72275  38.963  31.441  14.267
 7016W        W72276  36.891  19.649  13.127
 7017W        W72277  37.054   0.814   3.566
 7018W        W72278  15.326  40.318   2.866
 7019W        W72279  26.449  22.141  11.914
 7020W        W72280  16.556   0.057  12.554
 7021W        W72281  31.378  36.316   4.882
 7022W        W72282   8.072  26.958   2.135
 7023W        W72283   6.503  41.351   5.044
 7024W        W72284  22.501  39.924  14.375
 7025W        W72285  22.601   6.567   3.604
 7026W        W72286  25.699  42.833   4.443
 7027W        W72287  35.986  35.134  11.174
 7028W        W72288  18.477   5.884   3.690
 7029W        W72289  10.688   5.212  13.779
 7030W        W72290   5.853  19.516   0.480
 7031W        W72291  42.748  35.602   3.725
 7032W        W72292  44.840   9.190   2.872
 7033W        W72293  38.562  27.181  12.048
 7034W        W72294  11.550  27.792  12.378
 7035W        W72295   7.016  35.518  11.280
 7036W        W72296  27.305  20.552  13.622
 7037W        W72297  24.908   8.288  12.112
 7038W        W72298  21.507  41.532  13.922
 7039W        W72299  13.719  39.851  14.911
 7040W        W72300  13.387  23.230   0.036
 7041W        W72301  25.197  31.414  12.923
 7042W        W72302  42.886  27.789  10.140
 7043W        W72303  39.841  33.397   2.917
 7044W        W72304  37.866  19.069   0.075
 7045W        W72305  19.300  18.119  12.105
 7046W        W72306  20.240   0.805  13.343
 7047W        W72307  37.929  10.928  14.449
 7048W        W72308  16.240   7.237   3.962
 7049W        W72309  14.243   7.285   1.804
 7050W        W72310   5.863  34.076  12.058
 7051W        W72311  24.408  19.966  14.394
 7052W        W72312  23.598  36.104  14.935
 7053W        W72313  32.704  23.961   3.492
 7054W        W72314  36.948  36.584  14.919
 7055W        W72315  17.979  37.471   3.400
 7056W        W72316  20.294  23.693  14.830
 7057W        W72317  36.104  15.486  11.866
 7058W        W72318  41.048  14.004  12.994
 7059W        W72319  28.516   0.825  10.917
 7060W        W72320  33.382  12.882  12.109
 7061W        W72321  16.118  15.665   3.888
 7062W        W72322  19.991  24.848   0.872
 7063W        W72323   4.438   4.212   0.342
 7064W        W72324   6.951  37.513   0.698
 7065W        W72325   3.909  30.634  10.723
 7066W        W72326  24.082  28.023   2.617
 7067W        W72327  40.488  10.878   0.940
 7068W        W72328  40.778  36.587  11.638
 7069W        W72329  27.014  38.471  11.908
 7070W        W72330   8.956  34.447  14.510
 7071W        W72331   3.244  31.433   3.946
 7072W        W72332  32.665   7.423   4.618
 7073W        W72333  17.865  33.281   2.246
 7074W        W72334   8.165  21.216  11.936
 7075W        W72335   6.275   4.029  12.838
 7076W        W72336  26.909  33.064   0.405
 7077W        W72337  29.388  15.278   3.103
 7078W        W72338  20.006   2.804  14.747
 7079W        W72339   1.501  15.317   4.537
 7080W        W72340  16.803  31.082  11.943
 7081W        W72341  35.453  29.569   3.789
 7082W        W72342   3.865  38.606   0.919
 7083W        W72343   9.124  22.102  11.225
 7084W        W72344  27.570   4.716  12.552
 7085W        W72345  37.822   8.179   4.667
 7086W        W72346   4.278  43.714   0.061
 7087W        W72347  25.148  33.448  13.791
 7088W        W72348  22.680  22.404   3.798
 7089W        W72349  12.839  30.296   4.052
 7090W        W72350  18.819  11.912   1.721
 7091W        W72351  17.700  27.306   1.098
 7092W        W72352   9.558   9.262   2.159
 7093W        W72353  33.528  25.129  12.620
 7094W        W72354  40.923   8.817  14.403
 7095W        W72355  23.921  39.368  13.728
 7096W        W72356  36.144  32.416  10.691
 7097W        W72357  35.767  34.934   3.069
 7098W        W72358   7.617  37.157  13.023
 7099W        W72359   9.402  35.335   3.358
 7100W        W72360  33.537   0.109   2.971
 7101W        W72361  28.483  41.052  12.003
 7102W        W72362  12.129  14.237  14.750
 7103W        W72363  41.953  24.025   2.151
 7104W        W72364   7.099  32.543  12.476
 7105W        W72365  19.273   1.246   1.472
 7106W        W72366   6.825   7.884   4.109
 7107W        W72367  14.740   3.251  11.552
 7108W        W72368  38.781   6.933   4.211
 7109W        W72369  43.411  13.742  11.548
 7110W        W72370  23.601  31.253  11.690
 7111W        W72371  28.910  18.782   4.308
 7112W        W72372  32.052  44.386  13.578
 7113W        W72373  28.658   0.755   1.987
 7114W        W72374  20.243  34.444   0.262
 7115W        W72375  31.165  41.904  11.961
 7116W        W72376  25.110   4.392  12.098
 7117W        W72377  26.016   7.329  12.206
 7118W        W72378  12.270  11.206  10.663
 7119W        W72379  16.051  41.386  11.404
 7120W        W72380  34.545   6.740  11.642
 7121W        W72381  17.901  44.493   0.794
 7122W        W72382  21.775   6.611  14.910
 7123W        W72383  43.418  43.529  13.918
 7124W        W72384  18.371  36.401   1.183
 7125W        W72385  20.712  40.841   2.182
 7126W        W72386  12.146  31.097   1.457
 7127W        W72387  42.804  15.387   1.964
 7128W        W72388   9.177  37.157  10.594
 7129W        W72389  29.049   3.293  12.025
 7130W        W72390   3.371  10.174  11.154
 7131W        W72391  12.025  10.406  12.415
 7132W        W72392   5.699  27.070   3.606
 7133W        W72393  44.915   2.005   0.002
 7134W        W72394   6.932  18.353  10.988
 7135W        W72395  39.898  26.783   0.463
 7136W        W72396  35.056  38.026   4.107
 7137W        W72397  26.614   4.088  10.434
 7138W        W72398  24.464   8.922  11.485
 7139W        W72399   0.079   9.794  14.282
 7140W        W72400  24.024  41.925   1.821
 7141W        W72401  33.435   9.365  14.755
 7142W        W72402  19.195  42.774   2.463
 7143W        W72403   9.929   2.773  11.984
 7144W        W72404  38.953  25.190   1.938
 7145W        W72405   5.738   8.476  13.797
 7146W        W72406  14.582  20.004   0.467
 7147W        W72407  28.399  42.465  13.514
 7148W        W72408   4.710  36.415  13.064
 7149W        W72409  19.979  13.325   2.838
 7150W        W72410  38.308  38.860   0.830
 7151W        W72411  19.623  20.730  10.310
 7152W        W72412  12.797  25.732  10.745
 7153W        W72413  19.590  11.107  14.471
 7154W        W72414  26.238  15.649  14.852
 7155W        W72415  14.275  30.695  14.019
 7156W        W72416  31.358  23.011   2.742
 7157W        W72417   7.425   3.268   1.330
 7158W        W72418  16.689  39.230   1.306
 7159W        W72419  13.383  40.241  11.304
 7160W        W72420  23.359  13.703  12.134
 7161W        W72421  41.454  10.582   0.754
 7162W        W72422  23.798  29.894  12.371
 7163W        W72423   7.765   0.849  13.275
 7164W        W72424  18.069   6.860  14.285
 7165W        W72425  28.222   3.835  14.535
 7166W        W72426   5.835   6.643   4.239
 7167W        W72427   1.796  10.675   2.840
 7168W        W72428   0.879  20.064   3.839
 7169W        W72429  31.150   4.043   1.328
 7170W        W72430  21.743   4.424  13.499
 7171W        W72431  44.874  41.339   4.390
 7172W        W72432  37.586  28.774   4.062
 7173W        W72433  35.323  23.860  12.604
 7174W        W72434   0.571   4.696  13.619
 7175W        W72435  12.241   8.866   3.607
 7176W        W72436  38.085  21.502   0.327
 7177W        W72437  39.037  31.851  12.443
 7178W        W72438  16.646  18.802  12.253
 7179W        W72439  22.997  19.211  12.503
 7180W        W72440  32.985   8.242  13.029
 7181W        W72441  34.805   7.736  14.980
 7182W        W72442  25.281  10.827   3.150
 7183W        W72443   5.460  23.426   0.700
 7184W        W72444  16.002   3.765   0.839
 7185W        W72445  33.036  43.007   3.915
 7186W        W72446   0.276   1.496  10.939
 7187W        W72447   7.688  41.904   1.267
 7188W        W72448  10.851  27.601   0.569
 7189W        W72449  41.601   3.029   0.373
 7190W        W72450  42.637  29.559   0.008
 7191W        W72451  35.245  19.740   2.715
 7192W        W72452  15.823  35.364   2.413
 7193W        W72453  28.759  34.425   2.771
 7194W        W72454  18.324   1.509  12.595
 7195W        W72455  10.380  10.359   4.100
 7196W        W72456  36.568  40.107  12.164
 7197W        W72457  10.714  31.012   5.556
 7198W        W72458   4.920  19.295  14.413
 7199W        W72459   6.685  25.641  11.635
 7200W        W72460  19.291   1.442   3.243
 7201W        W72461  44.944  34.853   3.980
 7202W        W72462  13.193   4.280   4.076
 7203W        W72463  26.905  25.640   4.170
 7204W        W72464   5.461   9.825   2.159
 7205W        W72465   5.836  26.177   1.812
 7206W        W72466   9.142  14.049  14.930
 7207W        W72467   6.211  32.399   3.498
 7208W        W72468  44.473  11.908   1.297
 7209W        W72469  16.971  26.167  11.192
 7210W        W72470  32.375  39.612   1.725
 7211W        W72471  25.978  24.468   0.928
 7212W        W72472  15.062  36.871   3.399
 7213W        W72473   2.499  22.818  10.505
 7214W        W72474  14.037  23.501  14.232
 7215W        W72475  23.233  20.170  13.359
 7216W        W72476  24.933  27.249  13.402
 7217W        W72477  20.073   9.717  14.994
 7218W        W72478   4.744  39.433   2.604
 7219W        W72479  20.262  31.106   3.681
 7220W        W72480  10.569  44.233  13.071
 7221W        W72481   3.772   4.277  13.838
 7222W        W72482  30.991   1.801  10.681
 7223W        W72483  44.903   1.801  14.338
 7224W        W72484  29.648  26.489  12.205
 7225W        W72485   2.498  41.387   4.695
 7226W        W72486   7.815  41.408   2.156
 7227W        W72487  35.569   7.642   4.095
 7228W        W72488  15.212   0.335   4.564
 7229W        W72489  22.195   6.548  11.395
 7230W        W72490  37.959  22.034   2.839
 7231W        W72491   8.443   5.772  10.123
 7232W        W72492   2.757   5.365   1.856
 7233W        W72493   2.597  37.152  12.051
 7234W        W72494  26.643  36.884   1.999
 7235W        W72495  13.659  33.059  10.741
 7236W        W72496  33.778   5.783   9.848
 7237W        W72497   3.278  27.106   3.827
 7238W        W72498  41.532  22.802   4.079
 7239W        W72499   7.176  27.952   1.899
 7240W        W72500  30.944  33.053   4.652
 7241W        W72501  41.571  11.455   9.863
 7242W        W72502  32.910  10.403  13.676
 7243W        W72503  27.393  26.932  14.514
 7244W        W72504  13.522  23.041   4.170
 7245W        W72505   0.318  21.095   1.214
 7246W        W72506  23.129   5.897   0.309
 7247W        W72507  31.891  23.017   2.766
 7248W        W72508  42.025  16.812   0.509
 7249W        W72509  28.105  15.791   0.773
 7250W        W72510  22.675  22.982  12.598
 7251W        W72511   8.660  23.933   4.981
 7252W        W72512   5.863   4.247  10.695
 7253W        W72513   7.684  14.304  12.979
 7254W        W72514  12.096   3.385  11.091
 7255W        W72515  29.698  35.841  13.157
 7256W        W72516  25.519   4.018   3.275
 7257W        W72517  17.110   1.053  11.023
 7258W        W72518   1.202  23.519  11.987
 7259W        W72519   1.954  20.641   2.674
 7260W        W72520  20.700   3.417  13.485
 7261W        W72521  44.784  41.996   0.011
 7262W        W72522  20.843  32.644   2.029
 7263W        W72523  37.121  21.508   0.331
 7264W        W72524   3.416  34.837  12.173
 7265W        W72525  19.061  42.994   0.380
 7266W        W72526  36.265  26.684  14.041
 7267W        W72527  15.363   8.789   3.347
 7268W        W72528   6.500   7.772  11.183
 7269W        W72529  35.622  16.532  11.584
 7270W        W72530  13.804  25.366   0.294
 7271W        W72531  19.112  35.240  14.921
 7272W        W72532  16.145  20.933  13.797
 7273W        W72533  20.176  38.500  14.412
 7274W        W72534  33.069  39.128  11.617
 7275W        W72535  12.251  10.694   3.788
 7276W        W72536  24.437   8.178   2.880
 7277W        W72537  13.388  12.172   2.732
 7278W        W72538  25.406  15.010   5.168
 7279W        W72539  35.617  28.076  11.129
 7280W        W72540   9.718  13.438  11.002
 7281W        W72541  33.816  34.491  12.168
 7282W        W72542  19.523  39.453   1.689
 7283W        W72543  12.698  35.458  14.741
 7284W        W72544  38.122  36.561  12.943
 7285W        W72545   9.348  42.333  12.839
 7286W        W72546   4.816   7.603  12.961
 7287W        W72547  21.667  43.738  12.987
 7288W        W72548  28.199  28.658  14.021
 7289W        W72549  12.832  37.357  11.956
 7290W        W72550  10.186  25.568  12.338
 7291W        W72551   1.900  40.373   1.823
 7292W        W72552  34.623  21.256  12.452
 7293W        W72553  42.354  35.473   4.012
 7294W        W72554  37.892  32.396  14.077
 7295W        W72555  31.706  41.282  14.787
 7296W        W72556  19.727   2.678  11.833
 7297W        W72557  16.742  24.991   3.708
 7298W        W72558  34.069  18.342   4.344
 7299W        W72559   6.726   9.879  10.774
 7300W        W72560  19.923  19.021  10.860
 7301W        W72561  35.999   5.099   3.633
 7302W        W72562  42.083  30.497   1.690
 7303W        W72563  32.422  23.231  13.568
 7304W        W72564   8.618  31.295   4.699
 7305W        W72565  17.599  22.176   4.317
 7306W        W72566  28.518   7.859  11.289
 7307W        W72567  23.119  21.973   0.420
 7308W        W72568   4.777  14.163   0.535
 7309W        W72569  22.126   0.173   0.760
 7310W        W72570  17.108   9.781   3.156
 7311W        W72571  36.586  24.600   4.153
 7312W        W72572   3.474  11.799   2.164
 7313W        W72573  44.325   4.896   3.783
 7314W        W72574   2.265  33.684  13.529
 7315W        W72575   2.522  18.039   0.421
 7316W        W72576  11.814  20.509  12.430
 7317W        W72577  39.191  29.234   2.801
 7318W        W72578   9.846  30.175   1.305
 7319W        W72579  41.733  39.511  11.116
 7320W        W72580   9.187  25.161  12.451
 7321W        W72581  19.540   8.219   1.326
 7322W        W72582  13.861  36.127   1.324
 7323W        W72583  40.508  19.832  11.185
 7324W        W72584  12.596  27.813   0.802
 7325W        W72585  24.713  31.091   4.322
 7326W        W72586   4.760  23.211   0.225
 7327W        W72587  14.319  11.075   2.280
 7328W        W72588  40.157  35.944   2.323
 7329W        W72589   8.830  13.108   4.577
 7330W        W72590  41.133  42.472   0.955
 7331W        W72591  14.011  34.108   4.326
 7332W        W72592  24.121  23.151   4.485
 7333W        W72593  14.587  13.653   1.896
 7334W        W72594  30.103  29.541  14.385
 7335W        W72595  18.249   0.646  10.459
 7336W        W72596   5.478  25.144   4.308
 7337W        W72597   0.107  15.357  10.593
 7338W        W72598  32.919  34.812  11.404
 7339W        W72599  38.958  18.961  11.851
 7340W        W72600  19.164  20.978  13.147
 7341W        W72601  34.116  16.613  12.995
 7342W        W72602  43.847   3.499   1.768
 7343W        W72603   3.915  39.046   3.680
 7344W        W72604  28.054  19.611  14.295
 7345W        W72605  25.010  24.697  13.940
 7346W        W72606   9.601  19.654   0.329
 7347W        W72607  43.140  29.382  11.510
 7348W        W72608  23.106  16.022   2.212
 7349W        W72609  11.758  14.557   3.161
 7350W        W72610  15.273  12.905   1.422
 7351W        W72611  41.988  36.798   3.963
 7352W        W72612   0.882  10.163  12.096
 7353W        W72613   0.277  18.636  13.952
 7354W        W72614   4.468  10.164  12.375
 7355W        W72615   9.221  12.554   0.439
 7356W        W72616   3.186  22.120  10.752
 7357W        W72617  14.266  43.944   3.714
 7358W        W72618   7.872   7.915  11.096
 7359W        W72619  29.983  14.111  12.573
 7360W        W72620   2.685  41.099   2.219
 7361W        W72621  23.816   0.206  13.897
 7362W        W72622  39.621  27.003   2.219
 7363W        W72623   6.137   1.948  12.149
 7364W        W72624  30.431   2.904   2.414
 7365W        W72625  38.058  21.200   3.680
 7366W        W72626  16.596   6.026   3.603
 7367W        W72627  20.466  24.617  11.452
 7368W        W72628  34.537  33.212   0.239
 7369W        W72629  19.058  19.606  13.587
 7370W        W72630  32.212  33.545   4.837
 7371W        W72631  29.603   3.334   5.051
 7372W        W72632   4.274  10.908  11.957
 7373W        W72633  41.600  22.400  14.254
 7374W        W72634  28.193  15.337  11.391
 7375W        W72635   6.324  12.638   2.877
 7376W        W72636  30.293  44.466  12.797
 7377W        W72637   4.797  25.991  10.163
 7378W        W72638  42.997  43.706   4.083
 7379W        W72639  39.865   0.787   0.033
 7380W        W72640  34.094  15.578  10.124
 7381W        W72641  43.837  42.007   1.760
 7382W        W72642  40.939  28.197  11.991
 7383W        W72643  27.701  35.668   1.443
 7384W        W72644   0.012   6.992   5.081
 7385W        W72645  33.010  35.851   3.780
 7386W        W72646  13.163   8.767  13.100
 7387W        W72647  18.680  31.013   4.707
 7388W        W72648  36.810  32.921   1.844
 7389W        W72649  34.350  30.864  14.870
 7390W        W72650   0.565  13.846   3.211
 7391W        W72651   5.195  34.000  14.891
 7392W        W72652  39.797  22.461  13.877
 7393W        W72653   9.659  16.105  13.997
 7394W        W72654  14.105  27.813  11.673
 7395W        W72655   8.980  37.295   4.757
 7396W        W72656  37.006  42.345  14.877
 7397W        W72657  24.720   9.736   1.510
 7398W        W72658  35.803  20.664  13.714
 7399W        W72659   9.579  27.046  14.003
 7400W        W72660  21.367  20.974   0.150
 7401W        W72661   7.712   5.413   3.213
 7402W        W72662  35.867  28.034  14.292
 7403W        W72663  28.663  36.034   2.653
 7404W        W72664  43.220  26.561  14.381
 7405W        W72665  19.258   4.364  10.652
 7406W        W72666  30.426   4.361  12.511
 7407W        W72667  13.186  40.861  11.788
 7408W        W72668  40.805  43.849   0.908
 7409W        W72669  40.819  14.404   4.955
 7410W        W72670  31.748  33.348   0.289
 7411W        W72671  34.068  27.927   1.273
 7412W        W72672  21.276  27.338  10.270
 7413W        W72673  14.299  10.643   0.673
 7414W        W72674  14.773  16.644   3.709
 7415W        W72675  24.512  32.044  10.245
 7416W        W72676  41.453   5.444  12.870
 7417W        W72677   9.422  43.792  14.334
 7418W        W72678  33.728  33.942   2.883
 7419W        W72679  28.499  37.606  11.010
 7420W        W72680  21.108  27.661   1.002
 7421W        W72681   5.108   6.815   4.710
 7422W        W72682  39.455  27.043  14.792
 7423W        W72683  18.659   0.376  10.664
 7424W        W72684  26.893   6.768   1.946
 7425W        W72685   3.814  27.907  10.900
 7426W        W72686  12.453  28.974   3.946
 7427W        W72687  42.016  13.688  10.678
 7428W        W72688   5.370  13.643   2.094
 7429W        W72689  21.291  19.296  11.091
 7430W        W72690  33.087  27.930   0.597
 7431W        W72691   2.369  13.248  10.083
 7432W        W72692  38.034   3.725   3.428
 7433W        W72693  12.164  44.718   0.026
 7434W        W72694   4.882  19.004  12.670
 7435W        W72695  21.531  16.112  11.119
 7436W        W72696  23.163  35.700   4.350
 7437W        W72697  31.516  24.457  13.427
 7438W        W72698  27.237  33.460   4.674
 7439W        W72699  32.452  16.878  10.622
 7440W        W72700   3.342  37.306  10.614
 7441W        W72701  23.432  30.394  11.976
 7442W        W72702  35.900   8.213  13.672
 7443W        W72703  32.431  16.245   4.253
 7444W        W72704  27.551  36.135   1.159
 7445W        W72705   4.611  37.233  11.152
 7446W        W72706  28.039  32.447   1.423
 7447W        W72707  33.966  18.053   3.933
 7448W        W72708  30.164  40.539   1.282
 7449W        W72709   9.289  12.797  11.105
 7450W        W72710  33.899  38.487   1.410
 7451W        W72711   5.812  33.326   4.152
 7452W        W72712  31.623  24.493  11.104
 7453W        W72713  40.445  39.593  11.110
 7454W        W72714   3.029  35.023   3.049
 7455W        W72715  42.500  25.562  14.862
 7456W        W72716  43.324  36.835   1.723
 7457W        W72717  32.986  24.605  10.216
 7458W        W72718  27.629   4.947  11.653
 7459W        W72719   2.710  22.485   3.711
 7460W        W72720  17.317  26.754  11.636
 7461W        W72721  20.336   8.900   2.284
 7462W        W72722  17.666   5.920  13.886
 7463W        W72723  32.434  12.903  12.068
 7464W        W72724  15.527  31.960  10.716
 7465W        W72725  29.166  32.475   1.903
 7466W        W72726   8.560  23.683   2.763
 7467W        W72727  44.463   7.778  12.760
 7468W        W72728   7.113  38.343  12.476
 7469W        W72729   9.795  42.801   4.662
 7470W        W72730  44.288  44.342   1.876
 7471W        W72731  18.559   8.934  14.728
 7472W        W72732   1.789  41.001  11.533
 7473W        W72733  40.523  14.061  13.397
 7474W        W72734   1.347  37.857   2.185
 7475W        W72735   5.212  29.144   9.997
 7476W        W72736  27.942   7.477   2.674
 7477W        W72737  29.676  39.377  12.441
 7478W        W72738  10.665  18.045   0.770
 7479W        W72739  38.338  11.378  11.228
 7480W        W72740   9.768  44.827  11.058
 7481W        W72741   8.463  33.429  11.051
 7482W        W72742  22.178  13.631  10.718
 7483W        W72743  44.745  16.813   3.325
 7484W        W72744   5.793  38.834   2.228
 7485W        W72745  40.926  35.545  14.127
 7486W        W72746  24.253  20.714   4.426
 7487W        W72747  41.244  14.134  10.942
 7488W        W72748  11.145  40.894  14.418
 7489W        W72749  16.222  23.783  10.759
 7490W        W72750  23.184   8.145  13.851
 7491W        W72751   8.758  39.489   1.791
 7492W        W72752   4.691  44.448  11.050
 7493W        W72753  38.076  23.560  13.717
 7494W        W72754  13.367  26.676   2.342
 7495W        W72755   3.379  15.173   4.127
 7496W        W72756  21.689  27.916   2.232
 7497W        W72757  36.854  17.664   1.439
 7498W        W72758   0.323   7.400  14.276
 7499W        W72759  14.305  18.610  13.882
 7500W        W72760   6.862  26.905  11.111
 7501W        W72761  26.728  34.562   1.390
 7502W        W72762   6.237  40.451  14.891
 7503W        W72763  41.560  27.951  13.452
 7504W        W72764  39.505  30.869  11.131
 7505W        W72765  16.102  44.831   1.003
 7506W        W72766  39.447  30.625   3.168
 7507W        W72767  23.629  41.449  13.253
 7508W        W72768  28.972  20.220   3.546
 7509W        W72769   3.736   1.481  12.067
 7510W        W72770  20.511   2.866   1.526
 7511W        W72771  21.864   8.455   2.229
 7512W        W72772  43.016  35.850  12.838
 7513W        W72773   9.639  30.979   3.843
 7514W        W72774  19.648  30.317   1.566
 7515W        W72775  36.526  40.302  14.834
 7516W        W72776  22.524  43.869   4.614
 7517W        W72777  22.222  21.537   1.854
 7518W        W72778   4.203  25.132  13.871
 7519W        W72779  44.212   2.754  14.004
 7520W        W72780  20.627  15.779  10.061
 7521W        W72781  39.301  12.208  10.645
 7522W        W72782  22.477  32.110  14.412
 7523W        W72783  21.145  15.783  12.187
 7524W        W72784  33.275  15.558   2.627
 7525W        W72785   4.420  38.086   0.923
 7526W        W72786  40.840   6.396   3.063
 7527W        W72787  20.084  10.411  14.369
 7528W        W72788  14.339  24.730   0.702
 7529W        W72789  20.084  38.069  12.215
 7530W        W72790  31.866  33.481   1.518
 7531W        W72791  24.068   2.432  14.868
 7532W        W72792  30.865   2.594   4.722
 7533W        W72793  14.354  13.686  11.832
 7534W        W72794  23.648   9.549  10.122
 7535W        W72795  24.071  24.702  14.843
 7536W        W72796   0.992  41.361  11.972
 7537W        W72797  25.992  37.382  10.627
 7538W        W72798  24.802  37.676  12.919
 7539W        W72799   7.130  29.271  12.625
 7540W        W72800  38.236  38.882   2.262
 7541W        W72801  38.473  12.096  11.684
 7542W        W72802  34.124  22.246  12.009
 7543W        W72803  23.976  26.216   5.199
 7544W        W72804   5.423   2.239  11.116
 7545W        W72805  30.208  25.592  12.726
 7546W        W72806  10.406  42.488   2.404
 7547W        W72807  32.839  27.346   5.346
 7548W        W72808  38.536  22.319   4.014
 7549W        W72809  44.018  12.498  12.521
 7550W        W72810   4.648  40.402   4.141
 7551W        W72811   1.358  14.776   0.944
 7552W        W72812  37.831  24.598   0.856
 7553W        W72813  23.920   3.609  10.405
 7554W        W72814  41.825   5.878   2.244
 7555W        W72815  42.620   1.121   1.413
 7556W        W72816  30.148  17.309   1.217
 7557W        W72817  41.232  12.212  13.378
 7558W        W72818  37.137   6.317  14.993
 7559W        W72819  37.487  16.772  11.160
 7560W        W72820   1.135   2.447   2.686
 7561W        W72821   9.639  35.071   2.377
 7562W        W72822  28.139   6.853   1.373
 7563W        W72823  29.164  39.489   4.553
 7564W        W72824  30.002  39.222   3.671
 7565W        W72825  10.771  33.934   4.166
 7566W        W72826  42.853  23.786  14.446
 7567W        W72827  20.960  35.874   2.242
 7568W        W72828  32.487  38.116   1.293
 7569W        W72829  39.018  33.175  13.471
 7570W        W72830  13.156  26.793   1.349
 7571W        W72831  16.340  33.668   2.356
 7572W        W72832  35.201  11.343   0.026
 7573W        W72833   4.535  21.101  11.074
 7574W        W72834  32.538  32.970   2.292
 7575W        W72835  17.671  21.363   0.407
 7576W        W72836  32.159  16.274   3.786
 7577W        W72837  24.995  23.582  10.771
 7578W        W72838   5.496  15.249  14.289
 7579W        W72839  33.037  10.834  10.580
 7580W        W72840   3.013  41.002   1.815
 7581W        W72841  37.422  12.255   1.957
 7582W        W72842  43.921   4.212   3.238
 7583W        W72843   5.393  11.775   2.109
 7584W        W72844   4.303   2.640   0.921
 7585W        W72845  10.845  18.371  14.429
 7586W        W72846  38.921  18.840   3.621
 7587W        W72847  18.071  14.990  13.992
 7588W        W72848  38.058  11.764  10.926
 7589W        W72849  11.118  28.172   3.175
 7590W        W72850  19.668  44.499  10.676
 7591W        W72851  27.407  31.398   1.804
 7592W        W72852   3.539  38.765   1.919
 7593W        W72853  35.797  22.775  13.418
 7594W        W72854   6.027  27.638   4.652
 7595W        W72855  43.300  42.888   1.723
 7596W        W72856  36.995  20.135  11.560
 7597W        W72857  35.684  36.075  11.292
 7598W        W72858   8.949   7.082   3.633
 7599W        W72859  42.189  13.273   0.942
 7600W        W72860  13.930  17.576  12.962
 7601W        W72861  28.699  17.259  10.667
 7602W        W72862  43.696  39.900   0.709
 7603W        W72863   0.951   8.207   2.939
 7604W        W72864  25.522  30.266  14.095
 7605W        W72865  18.098  28.667   3.786
 7606W        W72866  36.324  44.775  11.569
 7607W        W72867  33.168  22.051  12.155
 7608W        W72868  10.337   1.392  10.738
 7609W        W72869  22.794   0.880  14.531
 7610W        W72870  39.816   2.144   1.230
 7611W        W72871   4.912   0.504   0.718
 7612W        W72872  32.014  41.553  10.701
 7613W        W72873  38.102  42.393  11.935
 7614W        W72874  15.771   4.676   9.883
 7615W        W72875  17.722  11.016  14.366
 7616W        W72876  42.943  33.628  14.331
 7617W        W72877  15.235  10.425  14.068
 7618W        W72878  14.321  18.141  10.268
 7619W        W72879   7.293   4.490  11.935
 7620W        W72880  15.388  28.217   1.912
 7621W        W72881  38.813  37.061   3.419
 7622W        W72882  19.174  27.558  12.655
 7623W        W72883  23.595   8.842   4.574
 7624W        W72884  10.414  17.245  12.099
 7625W        W72885   5.821  42.542  10.171
 7626W        W72886   9.453  15.192  12.914
 7627W        W72887  34.614  22.144   4.473
 7628W        W72888  38.881  30.566  13.923
 7629W        W72889   3.749   5.275   0.856
 7630W        W72890  26.285  42.455  11.587
 7631W        W72891  43.345  40.416   2.467
 7632W        W72892  36.016   2.222  11.948
 7633W        W72893  42.891  28.988   1.445
 7634W        W72894  21.185  26.648   4.703
 7635W        W72895  34.022   7.594   2.307
 7636W        W72896  11.252  32.542  14.396
 7637W        W72897  41.544  38.454  12.588
 7638W        W72898   3.405   5.825   3.184
 7639W        W72899   1.837  15.903   1.219
 7640W        W72900  39.272   3.255   1.761
 7641W        W72901  22.588  30.997  14.845
 7642W        W72902   8.822  30.170   1.410
 7643W        W72903  27.673   3.005  10.573
 7644W        W72904  15.094  37.214  12.092
 7645W        W72905  23.617   5.791   3.656
 7646W        W72906  17.654  39.608  11.985
 7647W        W72907  38.830  41.004  12.311
 7648W        W72908  29.587  36.584   1.221
 7649W        W72909  44.970   5.303  12.062
 7650W        W72910  31.893  29.916   2.363
 7651W        W72911  15.165   9.251   3.405
 7652W        W72912  17.951   8.290  11.421
 7653W        W72913  31.419  21.805   3.175
 7654W        W72914  16.181   0.820  14.443
 7655W        W72915   0.250  11.670   2.625
 7656W        W72916  30.425  27.889  12.054
 7657W        W72917  28.033  21.075  14.146
 7658W        W72918  17.015  38.025  12.327
 7659W        W72919  41.356  12.042  14.926
 7660W        W72920  44.242  25.998  14.744
 7661W        W72921  13.385   4.428  11.436
 7662W        W72922  26.650  37.854   0.405
 7663W        W72923  19.062  20.266  12.053
 7664W        W72924  34.230  31.984   1.276
 7665W        W72925  18.111  41.825  14.201
 7666W        W72926   9.876   8.148   1.424
 7667W        W72927  14.867  26.371   5.053
 7668W        W72928  43.775  15.107  13.770
 7669W        W72929  38.398  42.504   1.241
 7670W        W72930   3.677   2.163  14.366
 7671W        W72931  19.494  26.007  13.505
 7672W        W72932  11.316  34.809  11.123
 7673W        W72933  16.681  30.877   1.390
 7674W        W72934  18.050  18.045   2.221
 7675W        W72935  12.704   9.049   3.784
 7676W        W72936  18.279  16.135   3.724
 7677W        W72937  10.146  42.751  12.047
 7678W        W72938  32.421  25.889  14.878
 7679W        W72939  43.284  11.130  11.958
 7680W        W72940  39.207  23.830  14.399
 7681W        W72941  37.977  36.283   2.698
 7682W        W72942  31.126  12.090  12.049
 7683W        W72943  42.277  34.883   4.410
 7684W        W72944  13.592  27.176  14.049
 7685W        W72945  30.037   7.400   4.651
 7686W        W72946  15.576   2.012   0.005
 7687W        W72947  33.598  12.620   3.756
 7688W        W72948  42.941   7.568   1.621
 7689W        W72949  11.569  18.663  11.219
 7690W        W72950  22.628  24.080  13.626
 7691W        W72951  21.236  37.110  11.662
 7692W        W72952  18.467  11.634  12.873
 7693W        W72953  41.167  20.573  11.810
 7694W        W72954  30.461  17.744  10.667
 7695W        W72955   4.842  43.020   0.967
 7696W        W72956  25.577   5.396  14.891
 7697W        W72957  38.790   6.428   4.110
 7698W        W72958   1.163  16.116  13.108
 7699W        W72959  23.192  28.348   4.156
 7700W        W72960  19.550  28.735  11.422
 7701W        W72961  32.375  13.170  12.532
 7702W        W72962  29.474  38.874   2.831
 7703W        W72963   6.203  13.051  12.514
 7704W        W72964  26.009  12.351   1.846
 7705W        W72965  14.322  17.431  11.198
 7706W        W72966  43.741  35.908  11.057
 7707W        W72967  44.806  11.674  14.341
 7708W        W72968  32.114  39.550   2.749
 7709W        W72969  10.696  42.351   1.885
 7710W        W72970  15.755  29.742  10.771
 7711W        W72971  34.824  11.423   2.652
 7712W        W72972  15.193  32.868  14.922
 7713W        W72973  33.716  39.943  13.934
 7714W        W72974  32.563  21.930  10.306
 7715W        W72975   8.775  30.294   4.579
 7716W        W72976  22.790  11.122  11.075
 7717W        W72977  18.552   0.412   2.931
 7718W        W72978  40.909  25.028   4.559
 7719W        W72979  12.243   5.703   1.730
 7720W        W72980  41.237  37.147  14.905
 7721W        W72981  36.061  19.208   4.545
 7722W        W72982  29.703  43.481  12.389
 7723W        W72983  24.266  23.944  12.886
 7724W        W72984  40.772   9.540   3.669
 7725W        W72985  26.104  18.214   0.661
 7726W        W72986   0.021  26.607   2.278
 7727W        W72987  34.337  15.226  14.339
 7728W        W72988   1.411   0.568  14.499
 7729W        W72989  40.859  30.696   2.782
 7730W        W72990  17.609   6.902  11.238
 7731W        W72991  41.473  38.192  11.570
 7732W        W72992  34.945  22.431   2.366
 7733W        W72993   7.256  22.913   4.572
 7734W        W72994  15.303   7.964   3.210
 7735W        W72995  20.966  38.884   3.041
 7736W        W72996   0.064  43.474   0.385
 7737W        W72997   1.894   5.400  13.890
 7738W        W72998  11.179   6.916  12.453
 7739W        W72999  12.809  40.519   1.765
 7740W        W73000  34.978  12.057   0.862
 7741W        W73001  43.081  17.733   0.341
 7742W        W73002  27.692   8.340  14.801
 7743W        W73003  36.149  43.186   1.229
 7744W        W73004   0.493  26.705  10.786
 7745W        W73005  20.255  20.047   1.713
 7746W        W73006   2.187   2.658   1.875
 7747W        W73007  17.228  35.957  10.630
 7748W        W73008  31.028  27.612   1.829
 7749W        W73009  19.884  40.378  14.897
 7750W        W73010  27.114  21.495   0.527
 7751W        W73011  27.214  15.761  13.855
 7752W        W73012  28.557  20.755  12.806
 7753W        W73013  26.934   9.395  12.052
 7754W        W73014  11.281  32.007   3.201
 7755W        W73015  34.374  34.571  13.508
 7756W        W73016  21.468  20.826  10.971
 7757W        W73017  13.909  43.060   3.673
 7758W        W73018  26.171  20.882  12.084
 7759W        W73019  22.035  30.088  10.718
 7760W        W73020   4.777  18.110  12.089
 7761W        W73021  24.524   5.537   3.194
 7762W        W73022  31.024  30.029   0.984
 7763W        W73023  40.017  29.114   3.250
 7764W        W73024  36.699  11.860   0.833
 7765W        W73025   3.947  29.189   4.197
 7766W        W73026  24.515  31.062  13.470
 7767W        W73027  42.272  11.743  14.510
 7768W        W73028   5.804  30.012  12.549
 7769W        W73029  42.747  28.369  12.546
 7770W        W73030   7.892   6.682   0.251
 7771W        W73031  38.834   6.421  10.718
 7772W        W73032   3.427  32.152  11.011
 7773W        W73033  28.513   5.864   4.894
 7774W        W73034  22.301  12.758   1.173
 7775W        W73035   2.553  13.256   0.949
 7776W        W73036  28.125  24.025   2.788
 7777W        W73037  38.155   7.525  13.019
 7778W        W73038  13.416  42.364   1.794
 7779W        W73039  12.548  16.337  11.846
 7780W        W73040  18.170  18.500   9.915
 7781W        W73041   4.983  17.242  11.505
 7782W        W73042  18.793  13.069  12.078
 7783W        W73043  12.782  35.470  14.230
 7784W        W73044  43.826  32.658  14.705
 7785W        W73045  38.276  21.612  13.006
 7786W        W73046   7.058  15.025  13.933
 7787W        W73047  16.329   3.507  10.868
 7788W        W73048  28.354  42.944   3.087
 7789W        W73049  16.247  14.043  11.762
 7790W        W73050  39.119  42.565   0.727
 7791W        W73051  34.657   9.680   3.283
 7792W        W73052   4.828  41.864   0.954
 7793W        W73053  13.283  39.562  10.668
 7794W        W73054  27.346  21.752   3.623
 7795W        W73055  11.334  21.100  11.913
 7796W        W73056  19.949   9.390   0.944
 7797W        W73057   1.230  36.512   4.063
 7798W        W73058  39.649  44.528   3.667
 7799W        W73059   7.498   8.637   3.926
 7800W        W73060   8.382   8.627   4.249
 7801W        W73061  30.943   9.161  14.491
 7802W        W73062   3.298  23.509   1.944
 7803W        W73063  37.497  32.190  12.513
 7804W        W73064  17.264  15.350   3.280
 7805W        W73065   7.478   3.848  10.821
 7806W        W73066  38.519  25.637  12.494
 7807W        W73067   1.992  26.187   1.832
 7808W        W73068  41.457  18.556   4.203
 7809W        W73069  20.266  40.989   0.654
 7810W        W73070  13.818  20.295  12.046
 7811W        W73071  18.512  15.601   1.828
 7812W        W73072   2.027  24.758   4.499
 7813W        W73073  22.050   6.052   2.230
 7814W        W73074  38.039  16.699  12.350
 7815W        W73075  35.081  20.442   2.243
 7816W        W73076  42.178   6.221   0.642
 7817W        W73077  16.679  22.922   1.854
 7818W        W73078  21.524  15.045  11.635
 7819W        W73079  23.446  27.337  12.085
 7820W        W73080  26.548  16.308  11.937
 7821W        W73081  17.607   3.254   4.899
 7822W        W73082  38.159  36.653   0.431
 7823W        W73083  19.182  20.205   1.780
 7824W        W73084  25.273   4.546   3.695
 7825W        W73085  21.680  25.950   3.206
 7826W        W73086  26.557  16.768  12.144
 7827W        W73087  30.472  44.320   3.630
 7828W        W73088   5.134  15.799   0.199
 7829W        W73089   6.977  39.805   0.040
 7830W        W73090  40.817  18.563  12.942
 7831W        W73091  32.672  22.286   4.592
 7832W        W73092  11.164  42.601   1.887
 7833W        W73093  29.222  42.048  14.310
 7834W        W73094  17.673  29.889   2.217
 7835W        W73095  37.261  41.554  12.015
 7836W        W73096  28.116   1.799   4.611
 7837W        W73097  23.032  43.058   2.799
 7838W        W73098  27.925  29.978   1.943
 7839W        W73099   9.926  15.790  11.275
 7840W        W73100  29.855  12.100  14.979
 7841W        W73101  44.396   5.827  10.290
 7842W        W73102  25.742   0.955  14.456
 7843W        W73103  23.757  12.216   2.847
 7844W        W73104  15.916  22.515  11.589
 7845W        W73105  33.673  24.547   5.015
 7846W        W73106  14.209  42.175  14.760
 7847W        W73107  26.631  24.065  13.372
 7848W        W73108  13.780  22.115   2.044
 7849W        W73109   6.951  18.291   1.687
 7850W        W73110  17.345  10.231  14.610
 7851W        W73111  37.500  23.766   2.636
 7852W        W73112  11.615  11.331   2.807
 7853W        W73113  43.265   9.197  10.224
 7854W        W73114  43.333   8.625  11.966
 7855W        W73115  37.316  38.794  11.861
 7856W        W73116   5.263  39.073  12.156
 7857W        W73117   3.191   7.986   4.708
 7858W        W73118  32.787  18.258  10.479
 7859W        W73119  26.826  32.907  11.757
 7860W        W73120  31.398  10.215   1.946
 7861W        W73121  27.950  43.436   5.120
 7862W        W73122  19.169  44.999  12.746
 7863W        W73123  35.647   1.343   2.136
 7864W        W73124  26.722  30.009  13.556
 7865W        W73125  40.785  23.169   1.283
 7866W        W73126  24.820  22.148  13.504
 7867W        W73127   7.105   3.671  10.458
 7868W        W73128  10.296   6.663  14.443
 7869W        W73129  18.657   3.656  11.120
 7870W        W73130   0.306  35.031  12.894
 7871W        W73131   3.859  33.042   2.840
 7872W        W73132  26.555   8.803   3.069
 7873W        W73133  12.391   2.151  13.107
 7874W        W73134  34.622  26.091   1.213
 7875W        W73135   0.990  25.963  13.467
 7876W        W73136  42.962  10.700   0.719
 7877W        W73137  30.388  44.448   0.700
 7878W        W73138  38.929  33.306   2.925
 7879W        W73139  31.198  38.349   2.144
 7880W        W73140  25.340  15.606  12.241
 7881W        W73141  12.880  18.870   4.619
 7882W        W73142  26.474   2.945   3.198
 7883W        W73143  32.608  31.062  14.665
 7884W        W73144   5.184  15.876  10.885
 7885W        W73145  23.721  11.607   1.951
 7886W        W73146  35.449  10.951   3.526
 7887W        W73147  36.985  16.355  13.303
 7888W        W73148  36.270  21.508  11.696
 7889W        W73149  40.464  37.166  14.229
 7890W        W73150  44.186  37.460  10.241
 7891W        W73151   3.650  35.102   3.614
 7892W        W73152  42.394  31.558  13.516
 7893W        W73153  21.520  21.271   1.927
 7894W        W73154   7.278  23.776   1.432
 7895W        W73155  15.171   7.843   0.328
 7896W        W73156  30.008  34.954   4.153
 7897W        W73157  21.472  28.817   0.710
 7898W        W73158  44.979  43.871   1.664
 7899W        W73159  19.747  15.911  12.061
 7900W        W73160  28.725  29.960  11.714
 7901W        W73161  43.063  44.239  14.772
 7902W        W73162  24.349   2.981   2.508
 7903W        W73163  26.896  29.524  14.604
 7904W        W73164   9.388  14.234   3.244
 7905W        W73165   3.337   8.635  10.066
 7906W        W73166  35.043  26.557   2.682
 7907W        W73167  35.389  16.100   3.870
 7908W        W73168   5.824   5.460   2.367
 7909W        W73169   9.392  23.220   0.717
 7910W        W73170  26.612  10.108   0.587
 7911W        W73171  35.023  16.665   1.945
 7912W        W73172   3.478   4.986   4.579
 7913W        W73173  11.398   2.361   4.844
 7914W        W73174  22.202  28.495  14.811
 7915W        W73175   2.184  44.209  11.462
 7916W        W73176  38.962  29.559  10.679
 7917W        W73177  14.104   7.407  14.070
 7918W        W73178  18.059   8.111   1.026
 7919W        W73179  44.925  32.589   4.658
 7920W        W73180  35.104   8.131   4.709
 7921W        W73181  35.058   3.829  11.416
 7922W        W73182  33.151  34.329   2.364
 7923W        W73183   0.905  27.020  11.761
 7924W        W73184  33.841  28.308   1.990
 7925W        W73185   6.571  40.473  12.352
 7926W        W73186  43.482   5.286   2.164
 7927W        W73187  18.384  18.075   5.022
 7928W        W73188  41.555  22.735   1.752
 7929W        W73189  11.736  18.638   0.359
 7930W        W73190  28.188  34.384  11.563
 7931W        W73191  36.879  40.841   4.254
 7932W        W73192  25.337  36.758  10.318
 7933W        W73193  33.109  33.264   2.360
 7934W        W73194   3.474  23.478   3.746
 7935W        W73195  18.634  31.324  13.443
 7936W        W73196   6.944  33.357   3.822
 7937W        W73197  12.205  11.614   0.296
 7938W        W73198  33.597  26.634  13.861
 7939W        W73199  35.050  16.573  13.915
 7940W        W73200   3.816   7.470   1.399
 7941W        W73201   9.437  40.558  13.551
 7942W        W73202  26.988   4.377  13.778
 7943W        W73203   8.202  21.216  12.815
 7944W        W73204  20.095  19.336   3.194
 7945W        W73205  13.159  14.242  12.472
 7946W        W73206  40.211  13.068  11.566
 7947W        W73207  43.821  23.599   4.001
 7948W        W73208  43.887  28.801   4.975
 7949W        W73209  42.387   2.767   2.714
 7950W        W73210  15.686  43.804  13.019
 7951W        W73211  11.253  11.714   2.806
 7952W        W73212   7.759  11.078  14.431
 7953W        W73213  41.298  37.101   4.214
 7954W        W73214  17.559  19.305  10.796
 7955W        W73215  22.813  24.699  12.028
 7956W        W73216  18.040   3.786  13.932
 7957W        W73217  29.019   8.848  14.497
 7958W        W73218  41.716  29.557  11.050
 7959W        W73219  41.432   8.386  12.928
 7960W        W73220   4.576   4.770   4.166
 7961W        W73221  11.288   4.922   4.148
 7962W        W73222  14.757  38.485  12.971
 7963W        W73223   5.769   3.400  11.838
 7964W        W73224  38.735   1.346   1.907
 7965W        W73225  13.875  22.952  10.638
 7966W        W73226  17.930  19.129   3.335
 7967W        W73227   0.484  12.136  13.263
 7968W        W73228  28.141  22.363  12.366
 7969W        W73229  35.201  21.106   1.685
 7970W        W73230  29.373   3.772   1.058
 7971W        W73231   0.536  12.721  12.605
 7972W        W73232  29.191  43.576  12.455
 7973W        W73233  29.218  18.242  13.400
 7974W        W73234  42.206  11.621   3.253
 7975W        W73235  32.214  18.571   0.642
 7976W        W73236  34.429   0.234  11.475
 7977W        W73237  11.743  15.042   1.408
 7978W        W73238   3.506   1.749   3.802
 7979W        W73239   3.273  30.954   3.726
 7980W        W73240  37.800  23.937   2.245
 7981W        W73241  29.058  30.821   4.524
 7982W        W73242  37.745   7.244  11.586
 7983W        W73243  34.953  15.822   0.015
 7984W        W73244  44.187   1.971   4.688
 7985W        W73245  18.553  19.541   0.383
 7986W        W73246  19.090   9.648  13.933
 7987W        W73247  18.203  12.791   1.760
 7988W        W73248  28.451  40.457   4.658
 7989W        W73249   5.844  22.664  14.026
 7990W        W73250  20.355  22.010   0.461
 7991W        W73251  14.347  25.559   2.924
 7992W        W73252  26.574  38.844   0.367
 7993W        W73253  14.147  26.272  12.403
 7994W        W73254  23.650  30.663   2.841
 7995W        W73255  22.897  38.569   3.904
 7996W        W73256  28.670  10.779   1.858
 7997W        W73257   6.204   4.281   2.825
 7998W        W73258   1.741  42.638   3.428
 7999W        W73259   5.829  37.518  13.948
 8000W        W73260  26.571  11.274   3.797
 8001W        W73261  14.649  10.213  10.151
 8002W        W73262  39.403  39.054  14.425
 8003W        W73263  40.535  12.841   2.341
 8004W        W73264  14.510  34.951   2.662
 8005W        W73265  19.388  27.632  14.501
 8006W        W73266  34.160   3.478  14.308
 8007W        W73267  31.452  23.891   9.844
 8008W        W73268  26.353  44.079  12.315
 8009W        W73269  28.059  43.337   1.353
 8010W        W73270  32.567  27.458  11.559
 8011W        W73271  38.395   6.636   4.401
 8012W        W73272   2.777  10.410   2.413
 8013W        W73273  37.378  27.232   2.256
 8014W        W73274  35.855  41.626   3.150
 8015W        W73275  29.381  16.164   1.618
 8016W        W73276   6.969  18.821   2.436
 8017W        W73277  10.832  38.254  11.102
 8018W        W73278  44.816  33.992   3.696
 8019W        W73279   5.338  33.141  14.408
 8020W        W73280   2.448  29.993   1.948
 8021W        W73281  35.333  34.925   5.131
 8022W        W73282   4.825  29.105   0.252
 8023W        W73283  38.924  31.543   2.132
 8024W        W73284  25.462   4.440  12.640
 8025W        W73285  35.790  30.020   0.492
 8026W        W73286  19.227   7.420   2.769
 8027W        W73287  12.568  37.155   3.410
 8028W        W73288  13.912  30.410  13.796
 8029W        W73289  28.430  22.995   3.624
 8030W        W73290  17.240   7.939  14.981
 8031W        W73291   8.439  41.419  11.569
 8032W        W73292   5.332   0.270  11.233
 8033W        W73293  42.755  42.990   1.768
 8034W        W73294  37.781  30.158   4.581
 8035W        W73295  14.201  28.740   4.202
 8036W        W73296   8.631   5.742  12.153
 8037W        W73297  43.520  41.764  14.852
 8038W        W73298   5.672  18.075   3.641
 8039W        W73299   4.539  27.721   2.185
 8040W        W73300  11.088  13.664   3.188
 8041W        W73301   1.007  21.285   1.823
 8042W        W73302  42.756  18.788   4.583
 8043W        W73303   9.860   7.288   0.807
 8044W        W73304  28.346   4.986   2.878
 8045W        W73305  15.770  15.305  11.883
 8046W        W73306  38.329  39.487   3.511
 8047W        W73307  23.611   3.627   5.730
 8048W        W73308  37.193  37.450   2.205
 8049W        W73309  35.120   8.422  14.851
 8050W        W73310  25.700   9.806  11.197
 8051W        W73311  12.420  17.476   1.439
 8052W        W73312  24.556  31.946  11.114
 8053W        W73313  40.604  38.384  12.194
 8054W        W73314  26.889  31.644   0.917
 8055W        W73315  44.387  40.511  13.863
 8056W        W73316  20.312  13.410  11.130
 8057W        W73317  32.097   2.931  14.981
 8058W        W73318   7.961  12.226   3.806
 8059W        W73319   3.295  15.113   0.899
 8060W        W73320  23.542  28.331   0.262
 8061W        W73321  20.220  25.271   2.089
 8062W        W73322  41.638  44.981  14.314
 8063W        W73323  43.451   3.913   3.208
 8064W        W73324  31.140  32.158  12.513
 8065W        W73325   5.169   2.327   4.527
 8066W        W73326  42.469  15.089  11.584
 8067W        W73327   1.612  34.954  11.186
 8068W        W73328  21.816  20.402   3.585
 8069W        W73329  34.011  40.563   0.854
 8070W        W73330  42.759  19.577  14.408
 8071W        W73331  22.263  26.613   3.838
 8072W        W73332  44.636  37.873   0.714
 8073W        W73333   6.745  44.003  14.685
 8074W        W73334  44.281  42.782  11.236
 8075W        W73335  35.909  14.070  11.564
 8076W        W73336  44.698   2.772   4.148
 8077W        W73337  24.056  20.720   2.423
 8078W        W73338   3.819   0.901   4.067
 8079W        W73339   8.330  28.608  12.499
 8080W        W73340   4.660  26.616   3.191
 8081W        W73341  25.962   9.442   4.161
 8082W        W73342   6.764  28.401  12.446
 8083W        W73343  18.033   1.963  12.808
 8084W        W73344  27.409  41.276   3.649
 8085W        W73345  30.054  31.400  14.082
 8086W        W73346  44.361   0.101   9.656
 8087W        W73347   5.345  26.734   0.291
 8088W        W73348   8.662   2.285  10.992
 8089W        W73349  23.607  30.545   3.775
 8090W        W73350  14.524  38.779   3.295
 8091W        W73351  23.513   9.906  12.909
 8092W        W73352  38.988  42.363  12.949
 8093W        W73353  27.007  40.409   0.931
 8094W        W73354   0.864  42.826   0.372
 8095W        W73355  14.735  38.407  14.458
 8096W        W73356  13.622  26.512  11.517
 8097W        W73357  10.276  22.815  14.432
 8098W        W73358  18.086  31.032  12.593
 8099W        W73359  37.189   0.429   1.406
 8100W        W73360  44.534  29.864  13.843
 8101W        W73361  41.844   2.836  13.243
 8102W        W73362   5.170  25.223  14.888
 8103W        W73363   7.882  21.322  12.354
 8104W        W73364  31.504  18.789  14.503
 8105W        W73365  13.056   4.766   2.764
 8106W        W73366  11.889  39.308  10.648
 8107W        W73367  15.523  16.602  13.987
 8108W        W73368  38.745   4.323   0.565
 8109W        W73369  41.580  11.154  12.614
 8110W        W73370  37.082  33.442  10.318
 8111W        W73371  31.446  21.908  12.909
 8112W        W73372   3.187  41.725  13.596
 8113W        W73373   2.097   1.777  12.565
 8114W        W73374  36.924   0.233   1.854
 8115W        W73375  39.554   0.566   1.288
 8116W        W73376  39.002   8.052  11.616
 8117W        W73377   0.587  22.247  14.952
 8118W        W73378  32.049  40.894  11.405
 8119W        W73379  18.540  32.241   1.543
 8120W        W73380  39.296  39.324   3.095
 8121W        W73381  35.695  32.600  12.500
 8122W        W73382  11.258   4.578   1.866
 8123W        W73383  13.937  13.630   3.786
 8124W        W73384  35.014  24.076   4.674
 8125W        W73385   8.941  28.482  11.592
 8126W        W73386   6.339  16.293   1.919
 8127W        W73387  22.271  11.089   0.222
 8128W        W73388  38.950  23.800  11.499
 8129W        W73389  13.587  42.479   4.061
 8130W        W73390  23.275  38.174   4.415
 8131W        W73391  38.813  19.513   3.524
 8132W        W73392  33.310  14.107   1.267
 8133W        W73393   6.862  42.866  14.245
 8134W        W73394  33.140  18.036   3.655
 8135W        W73395   9.271  31.205   1.993
 8136W        W73396  12.711  24.766   1.921
 8137W        W73397  41.413   5.416  12.015
 8138W        W73398   3.339  40.066  12.388
 8139W        W73399  29.113  14.820   3.738
 8140W        W73400  35.820  36.465   4.007
 8141W        W73401  27.060   1.799  12.024
 8142W        W73402  44.304  23.913  13.917
 8143W        W73403   9.188  22.574   2.629
 8144W        W73404   5.935  35.623   4.062
 8145W        W73405  12.540  30.524   1.671
 8146W        W73406  13.565  36.099   3.373
 8147W        W73407  39.612   1.091   1.340
 8148W        W73408  41.989  33.556   9.889
 8149W        W73409   8.773  31.131   4.219
 8150W        W73410  21.848  22.371  14.838
 8151W        W73411  30.029  35.625  11.400
 8152W        W73412  30.291  14.075  14.018
 8153W        W73413  41.939  33.405  13.421
 8154W        W73414   5.337  18.586   1.377
 8155W        W73415  16.853  35.362   0.747
 8156W        W73416  42.718  17.931  13.537
 8157W        W73417   8.410  32.493  14.944
 8158W        W73418  15.632  30.662   4.158
 8159W        W73419  32.851  33.372   1.454
 8160W        W73420  31.980  28.205  13.296
 8161W        W73421   7.829   7.354   1.454
 8162W        W73422  14.311  12.895   0.473
 8163W        W73423   5.339  41.383   0.791
 8164W        W73424  34.946  12.124   3.917
 8165W        W73425  27.292  41.543   2.629
 8166W        W73426  16.656  44.052  11.561
 8167W        W73427   4.535  25.285  12.365
 8168W        W73428  10.349   8.338   3.207
 8169W        W73429  25.058  26.183   3.300
 8170W        W73430  39.906  11.727   5.085
 8171W        W73431  29.499  25.976   2.896
 8172W        W73432  28.948  35.082  12.385
 8173W        W73433   1.992   1.705  14.870
 8174W        W73434  27.209  15.140   3.157
 8175W        W73435  30.546  13.647   4.755
 8176W        W73436  10.431  34.979   1.854
 8177W        W73437  22.867  30.145   2.395
 8178W        W73438  36.850  21.278  11.126
 8179W        W73439  10.833  10.413  12.105
 8180W        W73440  16.102  35.688  13.921
 8181W        W73441  16.775  17.116  12.945
 8182W        W73442  44.375  13.733  12.166
 8183W        W73443   4.644   3.851   0.688
 8184W        W73444  34.841  21.965  12.624
 8185W        W73445  15.825  36.863  14.302
 8186W        W73446  38.019  36.740  13.809
 8187W        W73447  12.857  31.496   0.801
 8188W        W73448   2.978  26.008  14.013
 8189W        W73449  30.072  36.920   3.786
 8190W        W73450   0.976  40.522   3.954
 8191W        W73451  39.392  31.683   2.616
 8192W        W73452  29.034  20.188  10.626
 8193W        W73453  20.576  25.231  12.590
 8194W        W73454  38.809   1.326   1.282
 8195W        W73455  30.650   6.722  12.989
 8196W        W73456  11.186  14.844  11.698
 8197W        W73457  14.338   9.434   1.779
 8198W        W73458  43.335  20.061  12.441
 8199W        W73459   2.928  23.556   4.524
 8200W        W73460  13.186   2.509   4.182
 8201W        W73461  17.471  28.506  14.875
 8202W        W73462  34.907   9.127   2.063
 8203W        W73463  25.075   1.459  14.957
 8204W        W73464  31.960  35.284  12.164
 8205W        W73465  43.053  21.772   5.298
 8206W        W73466  31.934   9.272  11.419
 8207W        W73467   4.712   7.694  14.863
 8208W        W73468  44.391  11.678  10.786
 8209W        W73469  39.130  44.672   1.413
 8210W        W73470   0.823  23.725   4.125
 8211W        W73471  31.795  10.188   0.459
 8212W        W73472   0.238  42.635   3.771
 8213W        W73473  26.834  29.131   2.818
 8214W        W73474   6.946   7.777   2.774
 8215W        W73475  21.077  35.612   4.955
 8216W        W73476  39.087  19.504   4.589
 8217W        W73477  44.877  24.060   4.350
 8218W        W73478  15.175  12.227  14.515
 8219W        W73479  18.086  40.982  10.538
 8220W        W73480  22.617  41.640   4.985
 8221W        W73481  11.794   2.712  14.989
 8222W        W73482   9.187  43.756   2.929
 8223W        W73483  27.957  18.973   0.736
 8224W        W73484  22.246  32.661  12.457
 8225W        W73485   9.387  36.844  10.933
 8226W        W73486  15.792  28.051  12.008
 8227W        W73487   7.966  43.391   2.788
 8228W        W73488  26.747  41.564   1.790
 8229W        W73489  14.266  39.563   2.819
 8230W        W73490  37.082  15.992  12.950
 8231W        W73491   3.766  38.546  14.417
 8232W        W73492   6.887  32.830  11.146
 8233W        W73493  33.539  31.886  13.374
 8234W        W73494  41.674  38.486   4.711
 8235W        W73495  19.505  16.860   3.630
 8236W        W73496  15.005  22.214  12.519
 8237W        W73497  31.213  39.465   2.921
 8238W        W73498  32.257  19.051  14.909
 8239W        W73499  23.916   0.760   4.968
 8240W        W73500  42.037  25.095  13.914
 8241W        W73501  32.113  42.551  12.554
 8242W        W73502  28.964  38.584   1.907
 8243W        W73503  33.043   4.403   0.923
 8244W        W73504  28.641  34.340   1.291
 8245W        W73505  18.202   1.888   1.765
 8246W        W73506  29.832   1.021   1.452
 8247W        W73507  39.409  41.089   3.753
 8248W        W73508  12.791   3.759  12.532
 8249W        W73509  14.587  13.087   2.737
 8250W        W73510   4.682  21.261  13.987
 8251W        W73511  24.452  31.191   2.910
 8252W        W73512  19.745  23.914  14.091
 8253W        W73513   4.744  42.055   2.302
 8254W        W73514  19.558   8.288   1.832
 8255W        W73515  17.748  11.915  11.057
 8256W        W73516  36.884  27.663  13.343
 8257W        W73517  11.789  14.849  13.922
 8258W        W73518  18.967  25.512   0.029
 8259W        W73519  38.022  30.492   4.974
 8260W        W73520  37.373  34.581   0.356
 8261W        W73521  43.996   3.924   4.649
 8262W        W73522  25.108  22.084   0.912
 8263W        W73523  32.567  37.435  14.409
 8264W        W73524  24.117  29.180   5.045
 8265W        W73525  29.555   5.328  12.251
 8266W        W73526   3.929  37.539   4.034
 8267W        W73527  30.169  17.677   2.814
 8268W        W73528   4.247  26.156   2.695
 8269W        W73529   4.318  27.059  14.223
 8270W        W73530  30.182  34.870   2.682
 8271W        W73531  22.456  33.890   0.225
 8272W        W73532  32.909  16.773   3.601
 8273W        W73533   3.391   5.424   4.094
 8274W        W73534  39.565  39.040  11.586
 8275W        W73535  21.093  40.912  11.183
 8276W        W73536  11.689  35.982  12.832
 8277W        W73537  15.043   5.984   0.253
 8278W        W73538  40.055  22.999  11.137
 8279W        W73539  41.510  37.992   3.217
 8280W        W73540  26.028  10.043   1.293
 8281W        W73541  21.512  13.919   4.730
 8282W        W73542  36.390  44.944   2.234
 8283W        W73543  38.912   4.829   1.923
 8284W        W73544   0.814  24.723  12.358
 8285W        W73545  10.424   4.369  14.705
 8286W        W73546  39.532  31.389  11.190
 8287W        W73547  19.708  14.234  11.229
 8288W        W73548  42.286  37.437   1.097
 8289W        W73549   0.972  19.557  13.428
 8290W        W73550  39.268  40.406   0.722
 8291W        W73551  10.903   5.838   9.841
 8292W        W73552  11.153   9.414  14.069
 8293W        W73553   0.687  41.008  10.728
 8294W        W73554  31.568  23.548  14.546
 8295W        W73555  29.108  19.511  10.235
 8296W        W73556   6.812  25.654   1.830
 8297W        W73557  18.132  18.277  14.203
 8298W        W73558  23.968   0.001   1.768
 8299W        W73559  23.540  28.597   4.507
 8300W        W73560   6.699  44.790  10.529
 8301W        W73561  32.559   4.215   2.348
 8302W        W73562  24.551  21.500   1.315
 8303W        W73563  21.138  11.094  13.354
 8304W        W73564  19.343  39.058  12.945
 8305W        W73565   0.707  14.542  14.983
 8306W        W73566  36.085  20.362   2.310
 8307W        W73567  17.129  38.403   1.364
 8308W        W73568  25.651  15.513  10.163
 8309W        W73569  29.161  40.928  13.474
 8310W        W73570   0.669  43.539   1.009
 8311W        W73571   1.294  35.382  13.766
 8312W        W73572  26.636   4.648   5.492
 8313W        W73573   0.838  42.904  12.567
 8314W        W73574  22.333  44.830  14.416
 8315W        W73575   4.354  30.616  10.433
 8316W        W73576  17.549  13.099   3.194
 8317W        W73577  18.376   1.870   4.521
 8318W        W73578  12.036  15.781   1.803
 8319W        W73579  43.579  25.305  12.549
 8320W        W73580  19.669   2.107   0.028
 8321W        W73581  11.888  21.214  13.686
 8322W        W73582  18.187  11.203   3.134
 8323W        W73583  37.048   3.767   1.215
 8324W        W73584   7.059   9.175  12.932
 8325W        W73585  37.887  35.120  12.656
 8326W        W73586  44.061  11.181  13.769
 8327W        W73587  11.959  34.314  11.403
 8328W        W73588  28.702  28.587   2.884
 8329W        W73589   3.961  37.103  11.710
 8330W        W73590  18.873  14.650   4.949
 8331W        W73591  39.908  25.923  12.626
 8332W        W73592  25.956  16.013   1.362
 8333W        W73593  32.696  16.369  12.938
 8334W        W73594   8.862  43.760   3.328
 8335W        W73595  21.584  19.276   4.103
 8336W        W73596   5.342  44.315   1.342
 8337W        W73597   3.868  38.016  11.205
 8338W        W73598  40.985   1.256   4.420
 8339W        W73599  29.845   2.772  10.784
 8340W        W73600  17.669  43.432  10.708
 8341W        W73601  19.355  13.702  12.961
 8342W        W73602   8.966  17.820   0.266
 8343W        W73603  24.480  16.177   1.894
 8344W        W73604  24.061  23.152   2.438
 8345W        W73605  34.220  21.552  14.194
 8346W        W73606  40.821  39.621   4.252
 8347W        W73607  43.891  31.037   1.356
 8348W        W73608  33.000   9.116  12.544
 8349W        W73609   1.645  11.840  12.438
 8350W        W73610   1.752  29.300  10.960
 8351W        W73611   3.673  19.027  11.667
 8352W        W73612  25.944  25.720  13.032
 8353W        W73613  32.454  13.831   0.927
 8354W        W73614  19.323   8.460   0.893
 8355W        W73615   9.410  15.720   4.680
 8356W        W73616  34.580   9.742  13.966
 8357W        W73617  20.199  13.259  14.656
 8358W        W73618  26.573  16.654   2.352
 8359W        W73619  31.982  35.087   1.650
 8360W        W73620  32.510  26.223   3.983
 8361W        W73621  29.145  19.242  13.762
 8362W        W73622   3.793  19.633  14.372
 8363W        W73623  11.988  31.672   0.866
 8364W        W73624  38.186  16.306   1.882
 8365W        W73625  21.267  34.613  14.617
 8366W        W73626  23.039  41.361   2.356
 8367W        W73627  21.005   7.689  14.913
 8368W        W73628  31.600  38.058   2.255
 8369W        W73629  11.782  27.525   3.619
 8370W        W73630   3.929  11.823   3.277
 8371W        W73631  22.481  28.118   0.042
 8372W        W73632  24.558  44.864  12.990
 8373W        W73633  17.231  13.543   0.870
 8374W        W73634  32.414  40.403  12.858
 8375W        W73635   9.372  42.818  10.716
 8376W        W73636  15.670   9.261   3.577
 8377W        W73637  44.474  23.732   4.638
 8378W        W73638   6.517   4.946  11.062
 8379W        W73639   4.459   0.576   2.803
 8380W        W73640  19.778  31.057   0.866
 8381W        W73641  13.341  35.345  11.774
 8382W        W73642  22.735  12.943  13.514
 8383W        W73643  18.803  11.077  12.018
 8384W        W73644  18.782  13.638  13.885
 8385W        W73645  11.434   3.389   3.283
 8386W        W73646  34.524  20.143  12.583
 8387W        W73647  38.274   7.087   4.106
 8388W        W73648  29.500  30.587   4.095
 8389W        W73649  15.265  33.338  13.571
 8390W        W73650  31.899  33.301  12.073
 8391W        W73651  40.081  32.696   3.572
 8392W        W73652   4.905  23.231  12.841
 8393W        W73653  10.314  18.174  14.493
 8394W        W73654  10.047  37.542   4.474
 8395W        W73655  15.271  12.692  10.489
 8396W        W73656  42.408  37.594  12.385
 8397W        W73657  42.393  15.113  10.717
 8398W        W73658  20.575  17.541   0.359
 8399W        W73659   6.369  36.326   1.214
 8400W        W73660  30.986  27.481  14.194
 8401W        W73661  24.687  18.293  13.804
 8402W        W73662  10.749  25.771  11.678
 8403W        W73663  38.393  27.053   0.697
 8404W        W73664  17.546   5.979  10.788
 8405W        W73665  39.049  28.162   2.731
 8406W        W73666  11.378  26.426  14.242
 8407W        W73667   5.868  23.118  14.523
 8408W        W73668  26.605  11.744   3.581
 8409W        W73669  27.141  27.710  13.371
 8410W        W73670  17.076  19.923  14.295
 8411W        W73671  29.627  15.637   2.821
 8412W        W73672   0.240  28.398  11.187
 8413W        W73673  23.585  44.758  13.707
 8414W        W73674  28.558  25.655   0.346
 8415W        W73675  38.322  36.826   3.265
 8416W        W73676  35.336  26.531   0.825
 8417W        W73677  33.853   2.898   9.787
 8418W        W73678  38.018  32.145   2.154
 8419W        W73679  20.073  31.910  13.341
 8420W        W73680  23.126  26.933   3.931
 8421W        W73681  23.425   3.579  10.295
 8422W        W73682  16.313  25.975  13.968
 8423W        W73683  42.058  14.761  11.570
 8424W        W73684  42.436   9.287   3.105
 8425W        W73685  33.602   0.426  14.067
 8426W        W73686   8.695   3.692   3.731
 8427W        W73687  25.587  34.834  12.662
 8428W        W73688  34.836  34.116  14.322
 8429W        W73689  16.268  17.137  12.872
 8430W        W73690  29.903  26.740  14.975
 8431W        W73691   9.810   0.980  11.558
 8432W        W73692   7.167  40.515   1.387
 8433W        W73693  17.112  36.988  10.931
 8434W        W73694   9.500  22.698   5.524
 8435W        W73695   9.220   2.511   1.202
 8436W        W73696   9.896   5.652   0.270
 8437W        W73697  34.635  26.670  11.222
 8438W        W73698  38.157  37.992   2.461
 8439W        W73699  17.308  39.827   2.858
 8440W        W73700  40.345   5.272   2.627
 8441W        W73701  40.859  10.792  14.525
 8442W        W73702   8.301  28.458   2.745
 8443W        W73703  29.418  43.360  13.505
 8444W        W73704   8.442  34.870   1.929
 8445W        W73705   1.555  16.628  13.937
 8446W        W73706  24.462   0.952   1.850
 8447W        W73707  43.248  34.806  13.435
 8448W        W73708  26.011  14.805  11.042
 8449W        W73709  39.314  16.806  11.873
 8450W        W73710  13.221  15.510   0.277
 8451W        W73711  36.888  24.681   2.000
 8452W        W73712   1.345  43.845   4.337
 8453W        W73713  31.062  10.278  10.598
 8454W        W73714  39.583  41.919   4.936
 8455W        W73715   8.680  42.975   1.484
 8456W        W73716   5.668  37.913   3.646
 8457W        W73717   2.721  10.605   2.911
 8458W        W73718  31.630   0.315  11.182
 8459W        W73719  23.469  10.161  12.368
 8460W        W73720  31.424   1.948  14.830
 8461W        W73721  38.800  21.600  12.913
 8462W        W73722  33.086  32.722  14.843
 8463W        W73723  33.545  13.138  10.825
 8464W        W73724  41.286  12.729  10.749
 8465W        W73725  43.303  27.180  10.646
 8466W        W73726  15.923  37.405   0.074
 8467W        W73727   7.102  38.774  13.902
 8468W        W73728  11.594  33.377   1.281
 8469W        W73729  26.415  12.810  11.124
 8470W        W73730  39.767  43.466  12.950
 8471W        W73731  19.911  22.211  11.851
 8472W        W73732  22.756  26.999   0.004
 8473W        W73733  17.896  35.480  12.543
 8474W        W73734  42.835  42.610   2.554
 8475W        W73735  36.428   6.023   5.071
 8476W        W73736   2.218  17.851   3.010
 8477W        W73737  35.495  42.969  11.182
 8478W        W73738  24.944   0.824  12.832
 8479W        W73739  40.777  23.226  12.845
 8480W        W73740  42.990  37.163  11.056
 8481W        W73741  26.692   5.830  10.719
 8482W        W73742  17.043  23.127   2.846
 8483W        W73743  40.402   8.552  12.516
 8484W        W73744  33.679  17.931  14.353
 8485W        W73745  28.135  25.214   2.166
 8486W        W73746  38.221  19.208   2.897
 8487W        W73747  13.784  36.635   4.105
 8488W        W73748   7.184  17.196   3.267
 8489W        W73749  24.508  17.910  14.173
 8490W        W73750  24.617  39.513   9.721
 8491W        W73751   7.010   3.757   3.357
 8492W        W73752  14.550  38.290  14.929
 8493W        W73753  17.122  11.827   1.470
 8494W        W73754  32.608  26.782  13.966
 8495W        W73755  39.819  14.148  11.635
 8496W        W73756  34.013   6.164  14.822
 8497W        W73757  20.419  18.863  10.978
 8498W        W73758  18.121  33.671  13.766
 8499W        W73759   1.124   6.249   1.786
 8500W        W73760  31.245   5.758  12.523
 8501W        W73761  29.393  21.015  10.564
 8502W        W73762  32.508  12.338  12.893
 8503W        W73763  31.523  39.077   2.336
 8504W        W73764  11.641  23.514  13.318
 8505W        W73765   2.070  35.377  11.154
 8506W        W73766  14.556  43.522  11.540
 8507W        W73767  28.144   9.497   3.635
 8508W        W73768  32.293  38.062   2.718
 8509W        W73769  11.134  19.010  10.599
 8510W        W73770  16.550  39.518   0.857
 8511W        W73771  22.219  43.032  14.253
 8512W        W73772  12.910  15.709  11.602
 8513W        W73773  28.215   0.403  10.880
 8514W        W73774  41.027   7.671  11.520
 8515W        W73775  26.127   0.791   3.820
 8516W        W73776  26.786  34.092  13.004
 8517W        W73777  40.206  29.307   2.710
 8518W        W73778  20.691  33.076  11.146
 8519W        W73779  22.162  15.049   0.824
 8520W        W73780  41.439   1.921  11.207
 8521W        W73781  27.449   3.939   4.690
 8522W        W73782  36.959  43.394  14.817
 8523W        W73783  21.475  31.779  10.611
 8524W        W73784  39.709   8.940   3.106
 8525W        W73785  38.194  36.323  14.085
 8526W        W73786   0.328   2.712   1.723
 8527W        W73787  10.936  23.549   1.756
 8528W        W73788  23.566   2.021   3.319
 8529W        W73789  32.022   2.258  10.961
 8530W        W73790  15.650  19.164   4.153
 8531W        W73791   8.585  39.027  11.592
 8532W        W73792  21.234  42.494  11.457
 8533W        W73793   6.232  30.595   0.259
 8534W        W73794  28.373   4.837   1.493
 8535W        W73795  26.077  14.903  14.375
 8536W        W73796  32.477  23.456  11.029
 8537W        W73797  35.765   1.687   2.810
 8538W        W73798  26.586  32.989   2.751
 8539W        W73799  36.505   2.486   0.490
 8540W        W73800  22.316   5.239   1.906
 8541W        W73801  35.429  44.200   0.750
 8542W        W73802  25.338  37.889  11.074
 8543W        W73803  19.806   4.960  10.521
 8544W        W73804   4.214  39.851   4.675
 8545W        W73805   8.517  11.425  11.128
 8546W        W73806  20.513  12.418  12.459
 8547W        W73807  26.027  36.443  11.155
 8548W        W73808  33.888  33.345  14.025
 8549W        W73809  19.794  24.448   1.157
 8550W        W73810  14.769  15.314  13.312
 8551W        W73811  19.767  26.017   0.030
 8552W        W73812  26.459  39.305   3.244
 8553W        W73813  18.477   1.408   3.677
 8554W        W73814  15.850   3.457   0.310
 8555W        W73815   3.951   2.280  11.674
 8556W        W73816  29.593   5.980   4.690
 8557W        W73817  28.105  39.040  10.209
 8558W        W73818   3.924  39.362   3.245
 8559W        W73819  29.755   3.321   3.656
 8560W        W73820   6.285   8.232  14.047
 8561W        W73821  44.725  42.269   1.697
 8562W        W73822  13.506   6.123  11.029
 8563W        W73823  41.460   0.840  13.789
 8564W        W73824  14.753  12.347  10.637
 8565W        W73825  20.534   4.511   3.239
 8566W        W73826  37.269  21.261  14.759
 8567W        W73827  42.020   1.258  14.317
 8568W        W73828  34.717   8.472   2.721
 8569W        W73829  21.511   4.726  11.659
 8570W        W73830  16.980  34.655   4.222
 8571W        W73831  20.760  21.511   0.801
 8572W        W73832  32.140  42.423  14.449
 8573W        W73833  22.254  12.292   2.768
 8574W        W73834  37.919  10.475  10.251
 8575W        W73835   0.029  29.419   3.955
 8576W        W73836  41.530  26.130   0.322
 8577W        W73837   3.370  14.579   0.973
 8578W        W73838  24.402  10.128  12.887
 8579W        W73839  35.349   6.383   0.623
 8580W        W73840   7.368  24.995   0.395
 8581W        W73841  40.527   7.557  11.407
 8582W        W73842  41.348   0.187  11.204
 8583W        W73843  44.008  27.205  12.980
 8584W        W73844   2.884  36.708   1.884
 8585W        W73845  16.701  27.442   3.813
 8586W        W73846  28.192   9.492  10.701
 8587W        W73847  28.299   5.275  11.072
 8588W        W73848   0.668  28.147  10.995
 8589W        W73849  36.595  35.806   0.384
 8590W        W73850   8.616  34.553  12.459
 8591W        W73851  38.412  33.983  10.703
 8592W        W73852  30.790   7.368  12.662
 8593W        W73853  20.102  22.701  11.909
 8594W        W73854  42.313  37.538   4.117
 8595W        W73855   4.882  38.327   0.281
 8596W        W73856   4.762  17.439  14.935
 8597W        W73857  25.184  21.416   4.981
 8598W        W73858   0.374   7.369   0.697
 8599W        W73859  23.065   6.829   4.408
 8600W        W73860  21.157  28.052   4.288
 8601W        W73861  36.476  28.225   1.407
 8602W        W73862  38.917  24.509   4.069
 8603W        W73863  36.735  10.606  12.477
 8604W        W73864  43.531   1.739   5.301
 8605W        W73865  34.201  17.997  14.277
 8606W        W73866  37.247  33.878  11.699
 8607W        W73867   0.775   6.450  13.386
 8608W        W73868  34.605  24.175   1.155
 8609W        W73869  18.005   3.445   2.971
 8610W        W73870  35.572   3.990  11.443
 8611W        W73871  19.656  40.522   0.340
 8612W        W73872   5.992  27.221   0.842
 8613W        W73873  21.244  17.846   5.429
 8614W        W73874  21.689  41.809   4.521
 8615W        W73875  30.074  22.025  14.801
 8616W        W73876  16.961  43.442   1.757
 8617W        W73877  33.962  20.864   1.717
 8618W        W73878  22.031  14.728   4.394
 8619W        W73879  44.625   9.014   4.725
 8620W        W73880  18.597  36.459   4.382
 8621W        W73881   4.346  15.668   2.938
 8622W        W73882   3.379  30.999  14.272
 8623W        W73883   8.663  24.787   0.446
 8624W        W73884  18.975  25.203  11.034
 8625W        W73885  37.054   3.934  11.513
 8626W        W73886  42.246   7.275  10.723
 8627W        W73887   6.905  31.195   2.845
 8628W        W73888  17.144   9.732   2.601
 8629W        W73889  19.026  41.108  11.199
 8630W        W73890   9.402  39.341   4.597
 8631W        W73891  38.150  13.779   2.795
 8632W        W73892   1.008  18.547   2.619
 8633W        W73893   3.122   6.769   2.418
 8634W        W73894  22.553  18.261   4.105
 8635W        W73895  30.647   5.866   3.733
 8636W        W73896  17.120  23.303  12.976
 8637W        W73897  11.156  13.868   1.328
 8638W        W73898  11.448  15.869   3.643
 8639W        W73899  25.524  44.095  13.396
 8640W        W73900  26.873   8.267  13.444
 8641W        W73901   0.543  12.804  10.393
 8642W        W73902  29.580   4.279   0.296
 8643W        W73903   5.509  29.550   2.631
 8644W        W73904  21.737   2.745  12.408
 8645W        W73905  34.078  16.698  14.350
 8646W        W73906  17.685   0.494   2.888
 8647W        W73907  23.540  26.165  10.733
 8648W        W73908  10.765  30.979  12.437
 8649W        W73909  21.097  15.075   3.586
 8650W        W73910   2.168  25.713   1.944
 8651W        W73911  33.083  29.046   4.827
 8652W        W73912  13.146  13.573   0.316
 8653W        W73913  36.942  31.840   0.535
 8654W        W73914  26.633  11.654   0.755
 8655W        W73915   7.894   0.745  13.783
 8656W        W73916   5.906  26.179   3.818
 8657W        W73917  21.645  33.914   4.064
 8658W        W73918  39.113  12.637   4.098
 8659W        W73919  12.768  18.511  10.457
 8660W        W73920   3.969  20.621   1.262
 8661W        W73921  26.715  37.604   0.861
 8662W        W73922  33.846  19.326  12.742
 8663W        W73923  26.377  20.271   0.172
 8664W        W73924   6.896  25.496   2.884
 8665W        W73925  35.010  29.747  13.314
 8666W        W73926  37.338  29.464   1.047
 8667W        W73927  35.932  38.353  13.883
 8668W        W73928  18.973   5.813   3.233
 8669W        W73929  25.196  15.915   4.326
 8670W        W73930  30.125  10.455   1.320
 8671W        W73931   4.896  19.211  10.245
 8672W        W73932  40.249  14.532   0.947
 8673W        W73933  40.888   5.484   4.370
 8674W        W73934  24.182  26.477  11.651
 8675W        W73935  24.496  27.211   3.786
 8676W        W73936   3.312  42.318  13.950
 8677W        W73937  25.708  42.325   2.985
 8678W        W73938  36.851   0.702   2.080
 8679W        W73939  25.001   9.224   1.161
 8680W        W73940  14.178   9.188   2.729
 8681W        W73941  22.891  12.009  12.582
 8682W        W73942  31.686  42.269   3.197
 8683W        W73943   3.248  27.680  14.381
 8684W        W73944  31.034   2.316   2.846
 8685W        W73945  10.223  34.157  13.942
 8686W        W73946  15.577  38.527  11.967
 8687W        W73947  32.176  26.777  12.779
 8688W        W73948   8.407  13.774  12.099
 8689W        W73949   6.217  38.291  12.506
 8690W        W73950   5.064   6.453  10.311
 8691W        W73951   2.095  21.167   2.330
 8692W        W73952  16.101  24.018   4.287
 8693W        W73953   8.740  38.526  12.833
 8694W        W73954  27.133  20.499  12.734
 8695W        W73955   0.644  32.159  11.269
 8696W        W73956  18.470  17.159   1.735
 8697W        W73957  20.922   4.024   5.154
 8698W        W73958   7.930  36.964  11.102
 8699W        W73959  43.360  27.070   4.713
 8700W        W73960   6.799  42.323   3.903
 8701W        W73961  39.919  27.857   3.734
 8702W        W73962  40.452  34.889  12.102
 8703W        W73963   4.333   6.442  14.841
 8704W        W73964  12.757   5.497  14.504
 8705W        W73965   9.407  36.904   2.304
 8706W        W73966  15.313  40.364  14.864
 8707W        W73967   5.928  20.972  11.683
 8708W        W73968  14.316  43.970   1.147
 8709W        W73969  19.932  36.767   3.094
 8710W        W73970  11.671  29.643   3.044
 8711W        W73971  12.038   5.789  10.685
 8712W        W73972  27.043  30.588   1.872
 8713W        W73973  28.863   1.754  10.639
 8714W        W73974  31.971  43.830   4.318
 8715W        W73975  15.991  22.776   0.857
 8716W        W73976  20.079  11.422   3.251
 8717W        W73977  41.334  43.977  13.420
 8718W        W73978  41.287   0.775  10.722
 8719W        W73979   0.892   0.191  11.552
 8720W        W73980  26.074  14.880  13.027
 8721W        W73981   3.779   1.002   3.196
 8722W        W73982  40.489  44.556  12.565
 8723W        W73983  42.504  27.460  13.493
 8724W        W73984  16.531  13.734   1.627
 8725W        W73985  20.540   1.941   3.292
 8726W        W73986  16.273   3.328   3.946
 8727W        W73987  22.523  30.647  13.460
 8728W        W73988  17.961   7.825  11.667
 8729W        W73989  28.171  10.249  10.342
 8730W        W73990   6.609  19.487  11.711
 8731W        W73991  29.018  39.399  10.603
 8732W        W73992   5.401  34.365  10.733
 8733W        W73993  32.570   8.045   0.631
 8734W        W73994  44.597  36.830   2.727
 8735W        W73995  25.717  33.639  13.478
 8736W        W73996  13.094  26.567  14.372
 8737W        W73997  18.507  11.529  13.870
 8738W        W73998  31.586   0.446  12.964
 8739W        W73999  31.562  34.974   2.838
 8740W        W74000  10.908  33.608  13.043
 8741W        W74001  25.430  28.411   2.251
 8742W        W74002  31.948  34.599   1.822
 8743W        W74003   6.601  18.870  12.365
 8744W        W74004  40.237  26.036  14.454
 8745W        W74005  28.468  42.773   1.783
 8746W        W74006  27.242  36.943  12.853
 8747W        W74007   7.781  33.880  11.438
 8748W        W74008   1.554   6.402  13.051
 8749W        W74009  26.277  11.830  13.819
 8750W        W74010  14.562  39.825  10.297
 8751W        W74011  36.124  13.283   1.634
 8752W        W74012  21.271  25.774  13.306
 8753W        W74013  33.452  26.635  14.771
 8754W        W74014   5.329  15.311   0.377
 8755W        W74015  26.744  19.110   3.452
 8756W        W74016  32.359  42.781   5.067
 8757W        W74017  14.215  42.397   0.227
 8758W        W74018  24.564  34.948   2.619
 8759W        W74019   4.514  31.701  13.512
 8760W        W74020  31.938  28.167  14.525
 8761W        W74021  31.445   6.831   0.419
 8762W        W74022  43.353  19.135  14.880
 8763W        W74023  35.863   7.909  12.449
 8764W        W74024  21.515  27.155  11.505
 8765W        W74025  30.733  33.180   0.752
 8766W        W74026  43.066  36.521  12.135
 8767W        W74027  40.529   2.869   3.340
 8768W        W74028  18.634   1.892   3.503
 8769W        W74029  15.787  39.524   4.974
 8770W        W74030  38.024  44.338   0.811
 8771W        W74031  30.594  40.281   3.004
 8772W        W74032  32.944  36.124  14.351
 8773W        W74033  24.592  13.747  14.246
 8774W        W74034   2.352  41.548   1.199
 8775W        W74035  13.094  23.046  11.069
 8776W        W74036   5.008  15.917  12.895
 8777W        W74037  22.536  19.348   1.574
 8778W        W74038   2.794  10.123   1.961
 8779W        W74039   5.718   1.220  10.980
 8780W        W74040  25.777  16.693   1.705
 8781W        W74041  22.176  11.872   1.742
 8782W        W74042  34.842  29.934  12.532
 8783W        W74043   8.613  35.527  12.577
 8784W        W74044  24.174  11.903   1.960
 8785W        W74045   9.717  28.968   0.958
 8786W        W74046  40.688  38.335   3.733
 8787W        W74047   0.772   5.989  13.633
 8788W        W74048  36.826  16.127   2.758
 8789W        W74049  22.003  12.973  11.911
 8790W        W74050  44.456   8.037   4.185
 8791W        W74051   7.181  30.583   2.873
 8792W        W74052   8.873  20.064   1.288
 8793W        W74053  30.940  18.006   3.659
 8794W        W74054  41.570  17.747   1.750
 8795W        W74055  16.306  32.420  10.691
 8796W        W74056  23.542  13.294   1.378
 8797W        W74057  34.343  32.630  14.386
 8798W        W74058  41.272  29.931  10.677
 8799W        W74059   4.970   2.398   3.190
 8800W        W74060  34.781   6.789  14.852
 8801W        W74061  31.333  37.189   5.087
 8802W        W74062  22.308  16.137  10.652
 8803W        W74063  25.363  35.079  14.573
 8804W        W74064  25.177   4.014   3.638
 8805W        W74065   2.865  42.578  13.819
 8806W        W74066   6.287   0.426   0.517
 8807W        W74067  41.265   2.621   2.146
 8808W        W74068  20.740   1.079   2.760
 8809W        W74069  31.454  28.029  14.564
 8810W        W74070  11.740  18.661   4.573
 8811W        W74071   2.935   3.941  10.648
 8812W        W74072  13.084   0.460   0.287
 8813W        W74073  25.443  26.683  12.400
 8814W        W74074  38.354  31.641  12.484
 8815W        W74075  34.373  37.932  13.559
 8816W        W74076  13.702  13.261  11.584
 8817W        W74077  10.586  28.460  11.988
 8818W        W74078  40.686  25.463   4.834
 8819W        W74079   2.217  16.494   2.905
 8820W        W74080  44.291  25.282  13.794
 8821W        W74081  20.704  15.147  14.912
 8822W        W74082  14.669  29.953   1.771
 8823W        W74083   2.424  37.994  11.855
 8824W        W74084  40.860   1.819  13.484
 8825W        W74085  24.600  12.477   3.635
 8826W        W74086  36.938  35.985   2.500
 8827W        W74087  17.183  14.167   5.025
 8828W        W74088   9.899   2.230  11.967
 8829W        W74089  41.757  44.956  11.409
 8830W        W74090  35.284  19.001   0.998
 8831W        W74091  16.253   7.817   4.801
 8832W        W74092  39.231   7.274  14.639
 8833W        W74093  31.779   8.386  11.602
 8834W        W74094  21.020  11.552  11.646
 8835W        W74095   6.117  37.114   0.943
 8836W        W74096  19.986   3.749   0.941
 8837W        W74097  33.364  42.539  13.934
 8838W        W74098   5.801   7.926   4.142
 8839W        W74099  20.090  42.996   2.382
 8840W        W74100  32.945  42.804   2.843
 8841W        W74101  16.260   1.988   1.619
 8842W        W74102   7.669  29.636   4.304
 8843W        W74103  17.725   3.254  12.589
 8844W        W74104  29.679  11.411   0.326
 8845W        W74105  43.442  34.441  11.233
 8846W        W74106   0.734   9.407   4.077
 8847W        W74107   4.758   5.151   3.830
 8848W        W74108  24.339  43.779   4.213
 8849W        W74109   1.493  33.594  14.836
 8850W        W74110   1.228  42.415   0.401
 8851W        W74111  44.018  34.611  12.468
 8852W        W74112  42.474   7.109  12.924
 8853W        W74113  18.002  13.893  12.508
 8854W        W74114  34.358  37.642   2.611
 8855W        W74115  12.785  33.411  14.454
 8856W        W74116  15.280  29.158  13.740
 8857W        W74117  33.712  25.203   1.840
 8858W        W74118  27.024   8.760  13.366
 8859W        W74119   3.206  22.993   3.747
 8860W        W74120   9.097  24.742   2.223
 8861W        W74121  32.225  17.621  11.914
 8862W        W74122   9.090   7.733  14.889
 8863W        W74123  34.131   9.342   0.424
 8864W        W74124  21.751  23.510   4.576
 8865W        W74125   0.063  30.225  11.097
 8866W        W74126  21.548  33.077  11.978
 8867W        W74127  24.112  20.147  11.199
 8868W        W74128  44.326  27.753   3.265
 8869W        W74129  18.023  27.382   4.294
 8870W        W74130  40.864  17.114  14.825
 8871W        W74131  12.477  43.122  10.256
 8872W        W74132  36.567   1.053   2.825
 8873W        W74133   2.697   9.708  10.631
 8874W        W74134  16.277  30.128   3.591
 8875W        W74135  18.966   6.617  13.872
 8876W        W74136  38.715  14.468  12.407
 8877W        W74137  30.570  13.647   3.748
 8878W        W74138  39.560   1.929   2.138
 8879W        W74139   3.787   8.801  11.407
 8880W        W74140  18.363  29.666   4.092
 8881W        W74141  40.959  22.227   1.282
 8882W        W74142  26.543  40.910  14.287
 8883W        W74143  13.788  25.570  12.778
 8884W        W74144  10.247  38.023   4.547
 8885W        W74145  39.084  37.565  13.547
 8886W        W74146  29.912  15.914   4.159
 8887W        W74147  40.645   5.201  14.331
 8888W        W74148  30.907  15.296  11.098
 8889W        W74149  23.685  41.500   5.057
 8890W        W74150  14.165  11.725  11.961
 8891W        W74151  29.433   1.107  14.352
 8892W        W74152  41.885  44.555  13.367
 8893W        W74153  31.870  15.330  13.417
 8894W        W74154  35.855  26.788   3.602
 8895W        W74155  43.877  23.740   0.894
 8896W        W74156   2.924  30.630  13.588
 8897W        W74157  29.102  20.619   2.679
 8898W        W74158   1.446  38.336   1.704
 8899W        W74159   4.357  12.060  13.995
 8900W        W74160  26.534   7.577   1.817
 8901W        W74161  42.938  28.189  10.487
 8902W        W74162  29.436  36.798   0.783
 8903W        W74163  19.589   4.447   0.297
 8904W        W74164  25.114  42.348   4.642
 8905W        W74165   6.748  33.119  11.546
 8906W        W74166  43.342  37.060   4.586
 8907W        W74167  21.682  27.375  13.678
 8908W        W74168  23.909  15.057  14.878
 8909W        W74169  30.185  39.764  11.627
 8910W        W74170  31.600  17.128  11.215
 8911W        W74171  26.901  18.718  13.441
 8912W        W74172  13.870  39.041  13.844
 8913W        W74173  37.469  42.815   0.970
 8914W        W74174  30.419  31.876  11.840
 8915W        W74175   6.094  29.695  14.401
 8916W        W74176  25.785  42.480  11.673
 8917W        W74177   8.404   4.915  11.134
 8918W        W74178  31.876  36.902   1.884
 8919W        W74179  13.337  27.999   4.279
 8920W        W74180  16.235   1.705  11.365
 8921W        W74181   5.156  43.813   2.828
 8922W        W74182  44.833  32.855   2.006
 8923W        W74183  13.156   3.151   2.770
 8924W        W74184  19.779   6.300   3.341
 8925W        W74185  36.064  42.751  13.938
 8926W        W74186  12.929  23.167  13.324
 8927W        W74187  12.577   9.782   1.289
 8928W        W74188  15.124  21.125  13.867
 8929W        W74189   9.195  38.365   2.603
 8930W        W74190  28.495  14.320  13.936
 8931W        W74191  14.082  23.305  11.103
 8932W        W74192  37.906   3.375   5.521
 8933W        W74193   6.794  19.675  10.696
 8934W        W74194  20.747   7.703  11.679
 8935W        W74195   8.299  28.146   2.162
 8936W        W74196  13.675   4.519  14.274
 8937W        W74197  13.582  29.370  11.985
 8938W        W74198  25.950  10.640   2.596
 8939W        W74199  33.672   0.877  13.724
 8940W        W74200  30.507  42.529  10.716
 8941W        W74201  24.623  16.882   5.419
 8942W        W74202  36.397  39.789  11.193
 8943W        W74203  34.790  29.571  12.878
 8944W        W74204  29.613  38.297   4.118
 8945W        W74205  15.615   3.628  13.434
 8946W        W74206   7.098   1.444   0.303
 8947W        W74207  30.416  43.541   4.403
 8948W        W74208  29.392  11.340  14.037
 8949W        W74209  26.059  35.824   2.658
 8950W        W74210  36.447   7.670   4.121
 8951W        W74211  33.004  24.629   2.721
 8952W        W74212  36.510  18.837  10.990
 8953W        W74213  10.615  28.075   3.254
 8954W        W74214  22.468  27.506   2.271
 8955W        W74215  31.614   5.799  14.355
 8956W        W74216   2.795  33.038  15.000
 8957W        W74217  13.250  33.082   3.142
 8958W        W74218  37.768  22.103  10.224
 8959W        W74219   6.958  42.779   3.306
 8960W        W74220  24.804  27.501   0.951
 8961W        W74221  21.580   0.011  14.777
 8962W        W74222  40.376  17.186   1.084
 8963W        W74223   2.910   0.979   3.801
 8964W        W74224  17.710  15.562   2.541
 8965W        W74225  34.315  43.915   0.319
 8966W        W74226  19.640   3.609   2.464
 8967W        W74227  31.330   2.216   3.908
 8968W        W74228  17.112  28.595   1.800
 8969W        W74229   2.346  34.431  11.025
 8970W        W74230  15.664  18.767   3.183
 8971W        W74231  40.056   2.252  11.683
 8972W        W74232  22.562   9.668   0.422
 8973W        W74233  35.923  37.283   0.932
 8974W        W74234  24.044  19.815   4.334
 8975W        W74235  34.437  22.208  12.419
 8976W        W74236  27.945  26.535  10.583
 8977W        W74237  36.426  17.824  14.038
 8978W        W74238  15.491  33.199   3.692
 8979W        W74239  27.522  22.250   2.683
 8980W        W74240  15.584   8.875   2.204
 8981W        W74241  28.988  14.631  13.075
 8982W        W74242  26.500  35.729  11.681
 8983W        W74243  23.052  14.073  11.396
 8984W        W74244  36.935  34.151  12.471
 8985W        W74245  16.063  27.724  14.107
 8986W        W74246  36.045  28.245  13.402
 8987W        W74247  34.642  37.058   4.569
 8988W        W74248  27.771   3.376   2.675
 8989W        W74249  35.656  35.689  10.406
 8990W        W74250  30.812  33.834   2.654
 8991W        W74251   6.777   4.173   4.771
 8992W        W74252  12.175  18.741  12.499
 8993W        W74253  34.066  35.505   0.727
 8994W        W74254  30.104  18.336  13.238
 8995W        W74255   1.064  19.499  11.544
 8996W        W74256  35.583   5.949   4.539
 8997W        W74257  22.080  32.183   0.278
 8998W        W74258  44.695  29.177  14.431
 8999W        W74259  14.764  29.082  11.455
 9000W        W74260  18.063  34.954  11.708
 9001W        W74261  14.439  18.191   1.880
 9002W        W74262   5.854  23.721   1.768
 9003W        W74263  30.466  13.542   2.003
 9004W        W74264  40.612   7.261   1.296
 9005W        W74265  13.197   9.664   1.362
 9006W        W74266   5.346  17.277  14.610
 9007W        W74267  32.427  25.863   3.602
 9008W        W74268   5.395  39.993   3.166
 9009W        W74269   8.185  20.217  10.523
 9010W        W74270  16.009  34.339  14.842
 9011W        W74271  31.177  27.404  11.943
 9012W        W74272  31.642  10.818   3.662
 9013W        W74273  14.547   9.216  13.243
 9014W        W74274  14.216  10.794   0.179
 9015W        W74275  38.901  18.508   0.833
 9016W        W74276  28.033   0.338   3.117
 9017W        W74277   5.905  11.674   3.454
 9018W        W74278   1.725   2.430   4.554
 9019W        W74279  21.188   8.589  12.952
 9020W        W74280   1.429   6.337  10.865
 9021W        W74281  26.225  20.617   1.197
 9022W        W74282  36.254   2.454   3.200
 9023W        W74283  31.979  14.606  13.039
 9024W        W74284  39.245  42.785   3.299
 9025W        W74285  36.907  27.176   3.927
 9026W        W74286  40.714  18.771   0.816
 9027W        W74287   1.466   1.651   2.242
 9028W        W74288   5.139  12.708   1.728
 9029W        W74289  14.645  29.503   2.019
 9030W        W74290  35.449  26.025  10.266
 9031W        W74291  23.268   4.348  12.587
 9032W        W74292  40.779  14.157   3.525
 9033W        W74293  44.601  30.487   4.964
 9034W        W74294  27.855  38.409   0.894
 9035W        W74295  22.581  34.377   9.705
 9036W        W74296  23.323  42.512   3.009
 9037W        W74297  19.192  15.499   0.033
 9038W        W74298  25.607  34.760  11.650
 9039W        W74299  18.805  21.089  13.528
 9040W        W74300  24.792  22.576  12.030
 9041W        W74301  19.570   0.441  14.954
 9042W        W74302  36.224  19.570   2.658
 9043W        W74303  41.915  40.837   1.717
 9044W        W74304  16.904  43.521  11.114
 9045W        W74305  37.286  29.888   4.754
 9046W        W74306  14.310   7.778   5.140
 9047W        W74307  21.848  16.003   0.860
 9048W        W74308   5.972  17.769  14.369
 9049W        W74309  20.283   3.389   1.762
 9050W        W74310  31.375  33.306   2.849
 9051W        W74311  35.974   8.733   4.363
 9052W        W74312  21.647   5.323  11.760
 9053W        W74313  35.659  39.943  12.113
 9054W        W74314  22.213  37.392   2.218
 9055W        W74315  22.408  33.883   5.353
 9056W        W74316  19.908   3.673  11.504
 9057W        W74317  36.038  25.891   1.445
 9058W        W74318  39.190   4.216   0.910
 9059W        W74319  20.492  35.811   1.302
 9060W        W74320  41.337  30.267  12.488
 9061W        W74321  18.272  27.050   1.716
 9062W        W74322  20.736  12.687   4.080
 9063W        W74323   9.745  44.845   0.751
 9064W        W74324  32.539  27.639   2.594
 9065W        W74325  13.183   2.244  13.409
 9066W        W74326   7.634  25.271  12.485
 9067W        W74327  11.133  18.068  13.029
 9068W        W74328  32.931   0.197   4.702
 9069W        W74329   8.823   5.906  13.888
 9070W        W74330   3.429  11.196  13.144
 9071W        W74331  32.354  32.519  14.368
 9072W        W74332  12.500  31.849   0.948
 9073W        W74333  20.644  29.564   4.343
 9074W        W74334  33.359  39.031   3.716
 9075W        W74335   0.628  34.983  12.411
 9076W        W74336   8.643  24.982   5.023
 9077W        W74337  29.180  24.018  13.419
 9078W        W74338   7.863  22.311   2.769
 9079W        W74339  38.453   5.211   4.217
 9080W        W74340   0.305  44.341  12.476
 9081W        W74341  11.235  14.886   4.607
 9082W        W74342  39.756  31.331  10.717
 9083W        W74343  39.050  13.255   4.617
 9084W        W74344  38.889  26.098   0.744
 9085W        W74345   6.462  14.150  13.692
 9086W        W74346   9.921   2.791   3.633
 9087W        W74347   6.213  44.327  10.505
 9088W        W74348  31.459  37.048  12.991
 9089W        W74349  27.717  29.437   2.811
 9090W        W74350  24.095  14.759   3.564
 9091W        W74351   9.235  34.345   0.757
 9092W        W74352  22.115  41.569   2.461
 9093W        W74353  28.898  11.753  14.252
 9094W        W74354  33.861  16.806   2.204
 9095W        W74355   3.436  20.985  13.900
 9096W        W74356  34.779  10.679   0.984
 9097W        W74357  31.999  28.547   4.555
 9098W        W74358  21.837  40.591  13.870
 9099W        W74359  10.133  12.970   0.908
 9100W        W74360  19.991  16.566  14.016
 9101W        W74361  32.647  10.643   1.490
 9102W        W74362  12.281  17.359   2.373
 9103W        W74363  13.504  18.972  10.817
 9104W        W74364  30.053  24.392   0.687
 9105W        W74365  15.026  28.602   1.346
 9106W        W74366  11.867  43.835   0.887
 9107W        W74367  28.440  16.150  12.551
 9108W        W74368   5.972  38.206  13.436
 9109W        W74369  36.591  37.612   0.415
 9110W        W74370   6.779  37.082  13.439
 9111W        W74371  38.110  10.329  12.916
 9112W        W74372   9.320  14.797  14.406
 9113W        W74373  27.646  22.617   0.417
 9114W        W74374  42.705  34.552  10.847
 9115W        W74375  31.017  39.496   0.734
 9116W        W74376  24.697  44.830  14.170
 9117W        W74377  37.164  25.502   4.972
 9118W        W74378   9.595  27.971   3.550
 9119W        W74379  35.034  18.752  13.439
 9120W        W74380  24.677  42.467  12.484
 9121W        W74381   4.449   8.176   2.376
 9122W        W74382  23.134  30.614  11.506
 9123W        W74383  20.822  10.180  13.333
 9124W        W74384  43.029   9.090   0.561
 9125W        W74385  23.120   2.427   0.328
 9126W        W74386  22.102   7.939   1.808
 9127W        W74387  11.413  30.451  11.170
 9128W        W74388   3.876   5.025   2.665
 9129W        W74389  40.810  33.854   4.214
 9130W        W74390  23.424  35.818  12.980
 9131W        W74391  30.386  16.031   1.882
 9132W        W74392  39.991  26.640   5.105
 9133W        W74393  34.570  34.916  14.205
 9134W        W74394  36.663  42.372  14.443
 9135W        W74395  17.080  27.750   1.171
 9136W        W74396  18.990   8.013   3.568
 9137W        W74397  39.760  21.752   3.114
 9138W        W74398  38.819  37.282   0.253
 9139W        W74399  16.281  10.745   1.001
 9140W        W74400  13.905  37.986   4.080
 9141W        W74401  44.349   0.223   4.166
 9142W        W74402   7.460  37.955   4.066
 9143W        W74403   3.301  33.145  12.860
 9144W        W74404  15.706  17.035  14.619
 9145W        W74405  12.297  23.713  12.577
 9146W        W74406  13.105  30.036   2.292
 9147W        W74407  30.746  29.671  10.170
 9148W        W74408  18.317  43.362   0.477
 9149W        W74409  35.477  20.677   1.792
 9150W        W74410  43.524  17.197   2.832
 9151W        W74411   0.251  30.256   1.286
 9152W        W74412  30.161  26.230   0.848
 9153W        W74413  36.056  11.588  11.793
 9154W        W74414  15.086  22.745  14.064
 9155W        W74415  40.045  31.266   4.135
 9156W        W74416   2.642  30.168   2.563
 9157W        W74417  29.620  36.933  12.830
 9158W        W74418  22.749  36.665  14.962
 9159W        W74419  25.639   2.351   4.151
 9160W        W74420  28.928  36.347  12.100
 9161W        W74421  17.368  22.600   4.059
 9162W        W74422  37.869  40.991   4.104
 9163W        W74423  41.806  11.130   0.063
 9164W        W74424  19.806  25.141   0.471
 9165W        W74425  35.357  41.430   1.168
 9166W        W74426  24.391   8.420   1.955
 9167W        W74427  11.449   2.378   1.366
 9168W        W74428  44.443  33.632   3.724
 9169W        W74429  43.945  43.874   3.507
 9170W        W74430   8.332   7.674   2.236
 9171W        W74431  12.195   4.268   0.570
 9172W        W74432  41.941  25.019   1.882
 9173W        W74433   9.243  34.062  13.965
 9174W        W74434  21.009  38.267   1.860
 9175W        W74435  38.857   7.728   4.857
 9176W        W74436  19.814   5.513  14.865
 9177W        W74437  42.732  44.012   0.959
 9178W        W74438  25.523   0.336  14.892
 9179W        W74439  18.018   1.474   2.775
 9180W        W74440  42.250   7.424   0.066
 9181W        W74441  14.360  42.189  13.062
 9182W        W74442  36.911  23.922   2.275
 9183W        W74443  14.906  11.201  12.819
 9184W        W74444  41.681  21.282  10.350
 9185W        W74445  12.927  18.785   0.417
 9186W        W74446  16.687  16.695  13.254
 9187W        W74447  23.524  35.017  10.241
 9188W        W74448  28.560  17.793   1.863
 9189W        W74449  17.152  41.805  14.488
 9190W        W74450  20.689  16.672   0.762
 9191W        W74451  25.333  22.479  12.001
 9192W        W74452  36.427   8.812   3.059
 9193W        W74453  17.877  31.142   2.886
 9194W        W74454  11.351  18.557  14.303
 9195W        W74455  39.939  39.507   4.286
 9196W        W74456  16.856   1.053  12.924
 9197W        W74457   9.090   9.173   1.927
 9198W        W74458  23.602  31.468  13.512
 9199W        W74459   2.480  29.491  11.890
 9200W        W74460  18.130  18.667  11.395
 9201W        W74461  24.295  30.138  13.454
 9202W        W74462   0.019  21.149  11.970
 9203W        W74463  27.015   6.342   3.577
 9204W        W74464   2.270   3.947  13.354
 9205W        W74465  29.920  11.332   4.221
 9206W        W74466  10.992  36.198   3.770
 9207W        W74467   9.244  25.018   2.727
 9208W        W74468  22.128  27.641   4.806
 9209W        W74469  10.392  43.959  12.574
 9210W        W74470  13.350  40.444  14.291
 9211W        W74471  42.063  10.659   4.098
 9212W        W74472  16.171  28.725   0.757
 9213W        W74473  31.602  40.385  14.844
 9214W        W74474   5.302  17.729  11.435
 9215W        W74475   8.833  36.676   3.666
 9216W        W74476  28.210  41.940  12.015
 9217W        W74477  35.444  12.831  13.923
 9218W        W74478  17.059   6.181   3.765
 9219W        W74479  13.819  43.249  12.034
 9220W        W74480  25.885  25.979  14.932
 9221W        W74481  10.788  13.028   4.969
 9222W        W74482  41.738  43.540  12.461
 9223W        W74483  24.041  24.064   0.769
 9224W        W74484   5.852   8.380   0.913
 9225W        W74485   4.092   7.707   4.488
 9226W        W74486  10.142  21.420  11.410
 9227W        W74487  37.312  11.174  13.550
 9228W        W74488   5.657  36.986  14.855
 9229W        W74489   9.750  31.185   0.304
 9230W        W74490  36.088  18.958  14.816
 9231W        W74491  31.214   3.357  11.245
 9232W        W74492  39.813   8.258   0.237
 9233W        W74493  26.544  21.092  12.362
 9234W        W74494  18.040   3.724   1.631
 9235W        W74495  10.573  22.442  11.160
 9236W        W74496  25.883   5.464  11.728
 9237W        W74497  22.028  18.770   0.670
 9238W        W74498  39.878  20.274  14.176
 9239W        W74499   8.658   0.240  12.075
 9240W        W74500  20.802  15.324  12.805
 9241W        W74501  12.541   6.314  10.012
 9242W        W74502  10.372   4.803   1.359
 9243W        W74503  15.553  11.486   9.790
 9244W        W74504  12.441  19.993  13.376
 9245W        W74505  26.923  22.030   0.268
 9246W        W74506  39.036  23.020  11.069
 9247W        W74507  17.161  35.508   4.810
 9248W        W74508  27.419   7.834   3.574
 9249W        W74509  14.170   6.391   3.387
 9250W        W74510  28.624  16.833   4.512
 9251W        W74511  21.034  27.606   1.509
 9252W        W74512  43.006  23.499   1.041
 9253W        W74513  14.181  11.540  12.422
 9254W        W74514   4.718  16.757   0.235
 9255W        W74515  25.736  30.461   3.497
 9256W        W74516   6.642  30.528  11.892
 9257W        W74517  29.312   3.252  13.363
 9258W        W74518   2.922  27.554   4.754
 9259W        W74519  16.071  19.252  12.980
 9260W        W74520   7.548  41.778  10.991
 9261W        W74521  19.996  16.797   3.681
 9262W        W74522  29.698  35.838  13.988
 9263W        W74523  27.385  44.320   2.407
 9264W        W74524   2.817  12.293  11.250
 9265W        W74525  27.112   5.823   3.560
 9266W        W74526  20.813   4.328  11.986
 9267W        W74527  25.544  41.077   0.026
 9268W        W74528  37.587  42.428  13.438
 9269W        W74529  17.310  12.411  12.935
 9270W        W74530  15.147  25.664   4.117
 9271W        W74531  14.187  20.794   0.639
 9272W        W74532  32.050  40.555   1.897
 9273W        W74533  16.235  36.871  10.491
 9274W        W74534  28.727  36.631   3.817
 9275W        W74535  26.140  24.722  12.098
 9276W        W74536  40.044  31.379  11.157
 9277W        W74537  28.181  10.997   1.930
 9278W        W74538  28.876  38.093   1.833
 9279W        W74539   9.653  33.132  10.688
 9280W        W74540   0.968  13.316   2.347
 9281W        W74541  25.617   5.218   9.933
 9282W        W74542   0.760  33.278  12.599
 9283W        W74543   1.432  42.266  13.523
 9284W        W74544   9.877  42.120   1.271
 9285W        W74545  33.599  24.927   0.295
 9286W        W74546  11.876   9.633   0.988
 9287W        W74547  18.716  27.410   0.475
 9288W        W74548  36.037  22.814  10.941
 9289W        W74549  34.282  14.133  14.362
 9290W        W74550  41.587  25.082   2.701
 9291W        W74551  16.194  17.059   4.293
 9292W        W74552  15.384  11.701   0.708
 9293W        W74553  18.059  35.999  12.616
 9294W        W74554  22.106   5.792  12.291
 9295W        W74555  12.196  31.920   3.094
 9296W        W74556  33.005  20.152   4.677
 9297W        W74557   8.965  25.127  11.510
 9298W        W74558  26.906   7.902   3.595
 9299W        W74559   6.861   0.200   3.192
 9300W        W74560  44.792  44.476   0.387
 9301W        W74561  30.647   6.897   0.717
 9302W        W74562  43.506  14.072   1.028
 9303W        W74563   6.601  27.966   0.101
 9304W        W74564  23.160  40.245  11.103
 9305W        W74565  16.626   3.221  13.922
 9306W        W74566  16.730  42.945   3.107
 9307W        W74567   5.280  19.733  11.810
 9308W        W74568   4.418  32.554   2.288
 9309W        W74569  40.840  12.712   4.842
 9310W        W74570  19.553  20.465   0.035
 9311W        W74571  25.426  20.991  14.399
 9312W        W74572  36.486  42.211   3.643
 9313W        W74573  33.140  38.269  12.503
 9314W        W74574  12.925  23.391   2.845
 9315W        W74575  12.834  35.950  14.475
 9316W        W74576  12.677   2.815   1.631
 9317W        W74577  33.130   0.346   1.785
 9318W        W74578  13.028   0.430   1.236
 9319W        W74579  25.327  28.012  13.569
 9320W        W74580  42.826  35.124  13.519
 9321W        W74581  27.665  22.468   3.152
 9322W        W74582  10.612  32.634   1.928
 9323W        W74583  21.027  10.229   1.376
 9324W        W74584   8.175   0.473  11.173
 9325W        W74585   4.854  28.881   2.810
 9326W        W74586  31.835  32.902   0.552
 9327W        W74587   1.335  35.089   0.050
 9328W        W74588  34.590  18.216  12.506
 9329W        W74589   0.868  29.731   3.813
 9330W        W74590  19.347  41.931   0.375
 9331W        W74591   0.742   6.972   2.220
 9332W        W74592  15.721  30.129  12.494
 9333W        W74593  38.441  33.125   2.732
 9334W        W74594  23.914  11.820  12.514
 9335W        W74595  38.978   5.916   4.748
 9336W        W74596   9.400  43.754  10.623
 9337W        W74597  23.545  37.319   2.355
 9338W        W74598  10.283  14.796  10.659
 9339W        W74599  43.433   8.722   4.708
 9340W        W74600  20.652   4.137   2.659
 9341W        W74601   3.425  14.135  14.732
 9342W        W74602  15.506  23.617   4.612
 9343W        W74603  37.857  29.574   3.305
 9344W        W74604  32.800  16.063   2.380
 9345W        W74605   3.962  38.510  13.901
 9346W        W74606  35.645  32.144  11.124
 9347W        W74607  39.474  18.093  10.749
 9348W        W74608  34.033  24.185   3.879
 9349W        W74609  42.529   6.260   1.604
 9350W        W74610  30.223  13.380  14.390
 9351W        W74611  42.386   0.225  13.983
 9352W        W74612   0.427  43.070   1.158
 9353W        W74613  35.400  40.864  11.020
 9354W        W74614   6.153  19.190  13.513
 9355W        W74615   3.688  34.416  11.521
 9356W        W74616  36.875  23.242   0.733
 9357W        W74617  42.662   0.991  12.023
 9358W        W74618  41.816  29.142   4.692
 9359W        W74619  31.139  37.825   2.198
 9360W        W74620  10.294  33.786   1.460
 9361W        W74621  31.421  31.522  14.447
 9362W        W74622   8.533   6.763  10.190
 9363W        W74623  17.481  15.722   0.725
 9364W        W74624  38.762  17.331   1.460
 9365W        W74625  37.145  12.914   1.109
 9366W        W74626  38.641  43.266   2.751
 9367W        W74627  32.051  19.779  11.613
 9368W        W74628  18.482  26.121   2.708
 9369W        W74629  18.969  31.079  13.115
 9370W        W74630  25.176  27.146  13.872
 9371W        W74631  32.566  42.912  12.430
 9372W        W74632   0.274  14.326  10.576
 9373W        W74633  35.913  37.929   1.426
 9374W        W74634  37.360  32.293  10.994
 9375W        W74635  24.833   3.527   4.466
 9376W        W74636   9.132  41.470  10.962
 9377W        W74637  33.100  10.059   2.236
 9378W        W74638  33.634  15.291   0.955
 9379W        W74639  44.687   7.322  13.515
 9380W        W74640   7.356  40.935  12.500
 9381W        W74641  44.907  22.576  11.886
 9382W        W74642  28.979   0.967   3.897
 9383W        W74643  34.407  39.562   1.016
 9384W        W74644  24.909   9.649  10.627
 9385W        W74645  42.362   8.387   3.017
 9386W        W74646  35.595  35.505   1.410
 9387W        W74647  17.265  38.024  12.777
 9388W        W74648   8.491  26.562   2.715
 9389W        W74649  21.576  24.254   3.515
 9390W        W74650  14.868  18.188   4.351
 9391W        W74651  18.679  23.375   4.607
 9392W        W74652  24.155  12.413   1.911
 9393W        W74653  36.082  14.978   2.674
 9394W        W74654  44.056  15.205  12.384
 9395W        W74655   5.975   1.399  10.534
 9396W        W74656  35.366   8.089   1.165
 9397W        W74657  38.409   8.829   1.886
 9398W        W74658   3.640  12.401   0.839
 9399W        W74659  36.890  36.027  12.335
 9400W        W74660  23.674  13.369  11.869
 9401W        W74661  27.028  26.597  11.226
 9402W        W74662  44.267  41.092  14.536
 9403W        W74663  18.795  23.695  10.517
 9404W        W74664  28.501   0.076   3.188
 9405W        W74665  39.708  24.272   1.286
 9406W        W74666   2.917  13.254   4.572
 9407W        W74667  34.407  21.797   0.022
 9408W        W74668  20.050  35.452   1.348
 9409W        W74669  24.509  13.106   2.284
 9410W        W74670  43.987  43.958   2.965
 9411W        W74671  26.162  41.839  14.994
 9412W        W74672  44.532  27.215  14.455
 9413W        W74673  11.901  13.261   2.977
 9414W        W74674  40.278  31.705  11.684
 9415W        W74675  15.205  39.533   1.314
 9416W        W74676   1.703  31.113   1.009
 9417W        W74677  17.805  38.872   0.747
 9418W        W74678  42.379  21.675   4.148
 9419W        W74679   8.458   0.390   1.810
 9420W        W74680  28.213  40.988   4.573
 9421W        W74681   4.225  41.497  13.125
 9422W        W74682  39.881   6.189   2.920
 9423W        W74683  38.508  38.550   1.932
 9424W        W74684  13.051  15.848   1.759
 9425W        W74685  41.427   2.812   3.380
 9426W        W74686  22.297   3.726   2.732
 9427W        W74687  13.932  39.289   4.812
 9428W        W74688  36.943  35.052   1.031
 9429W        W74689  11.206   8.597   0.013
 9430W        W74690   9.325  43.058   3.750
 9431W        W74691  44.798  29.760  13.391
 9432W        W74692  29.003   7.821  10.675
 9433W        W74693  38.980   5.768   3.652
 9434W        W74694  16.437  37.516   3.993
 9435W        W74695  22.159  23.943   4.218
 9436W        W74696  31.382  40.032  10.887
 9437W        W74697   3.654  37.860   0.265
 9438W        W74698  43.882  21.611  10.317
 9439W        W74699   3.829   3.904   0.969
 9440W        W74700  15.849  25.638   2.136
 9441W        W74701  37.173   5.419  11.752
 9442W        W74702  18.817   4.796  10.297
 9443W        W74703  17.788  38.243  10.556
 9444W        W74704  37.402   9.902  11.447
 9445W        W74705  11.021  35.804  12.089
 9446W        W74706  17.962  43.750   0.286
 9447W        W74707  14.081  23.702   2.174
 9448W        W74708  28.056  29.211  11.641
 9449W        W74709  33.338  39.332  12.008
 9450W        W74710  25.718   5.820   0.870
 9451W        W74711  23.168  40.311  14.577
 9452W        W74712  37.019  29.588   2.230
 9453W        W74713   0.218  30.950  12.405
 9454W        W74714   6.215  43.283   4.598
 9455W        W74715  30.761   0.956   4.599
 9456W        W74716   4.957   8.099  12.082
 9457W        W74717  30.451  42.304  11.980
 9458W        W74718  24.563   9.741  14.669
 9459W        W74719  26.393   3.450  12.861
 9460W        W74720  10.285  28.124   1.008
 9461W        W74721   5.752  34.562  13.739
 9462W        W74722  25.110  15.901  14.620
 9463W        W74723  34.879  17.283   4.626
 9464W        W74724  31.127  35.309  11.848
 9465W        W74725  16.301  11.337   1.723
 9466W        W74726  33.950  37.037  13.418
 9467W        W74727   4.280  18.228  14.484
 9468W        W74728  41.343   5.241   0.853
 9469W        W74729  32.472  28.218   3.149
 9470W        W74730  18.803   6.491   1.374
 9471W        W74731   7.201  10.455  12.408
 9472W        W74732  39.408  38.372  13.404
 9473W        W74733  23.566   6.882   4.629
 9474W        W74734  40.844  11.114  12.099
 9475W        W74735  39.340  13.855   3.600
 9476W        W74736  44.877  15.666  14.996
 9477W        W74737  36.670  12.734   1.184
 9478W        W74738  32.525  34.866   0.933
 9479W        W74739  38.965  21.317  10.574
 9480W        W74740   9.464  26.722  14.385
 9481W        W74741  15.068   6.448   0.508
 9482W        W74742  32.143  25.204  13.031
 9483W        W74743  31.605   0.726  12.515
 9484W        W74744  24.979   2.713  14.041
 9485W        W74745   8.684  22.690   2.716
 9486W        W74746  22.536  15.843  14.869
 9487W        W74747  10.263  28.227  13.990
 9488W        W74748   6.835  16.203   2.070
 9489W        W74749  35.104  38.336   0.760
 9490W        W74750   6.357  30.961   1.626
 9491W        W74751  22.809  16.685  13.043
 9492W        W74752  43.605  39.807  12.521
 9493W        W74753  35.389  42.492   4.115
 9494W        W74754  36.019  15.015  14.931
 9495W        W74755  32.870  30.422  12.590
 9496W        W74756  32.482  24.639  10.345
 9497W        W74757  13.910  28.632  11.544
 9498W        W74758  33.907  25.999  12.796
 9499W        W74759  26.921   0.070   2.673
 9500W        W74760  13.609  13.594  11.999
 9501W        W74761  42.207  41.043  13.049
 9502W        W74762  35.499  39.904  14.871
 9503W        W74763  43.347  41.017   0.306
 9504W        W74764  35.440  13.950   2.366
 9505W        W74765  21.208  13.970   2.103
 9506W        W74766  11.561  34.558  14.917
 9507W        W74767   0.271  14.368  12.965
 9508W        W74768  33.651  20.228   2.405
 9509W        W74769  19.060  12.338  11.139
 9510W        W74770  18.528  27.284   4.426
 9511W        W74771  34.398  33.844   4.603
 9512W        W74772  14.640  32.943   3.813
 9513W        W74773  13.000  21.044   4.533
 9514W        W74774  36.804  16.821   0.834
 9515W        W74775   3.124  27.409  11.549
 9516W        W74776   9.934   3.306   0.411
 9517W        W74777  21.617  20.317   4.988
 9518W        W74778  12.547  35.134  12.084
 9519W        W74779  35.975  13.235  10.656
 9520W        W74780   8.942  16.886  13.766
 9521W        W74781  25.731  13.547   0.189
 9522W        W74782  25.126   3.651  13.865
 9523W        W74783  19.148  32.958  14.437
 9524W        W74784  16.766  10.994   3.087
 9525W        W74785  19.514  28.753  14.951
 9526W        W74786  17.645   9.235  13.988
 9527W        W74787   9.719  16.310   0.312
 9528W        W74788   8.147  21.586  10.665
 9529W        W74789  16.792   5.915  13.965
 9530W        W74790  13.030   4.393  12.944
 9531W        W74791   4.373  37.749   3.754
 9532W        W74792  24.916  20.762   1.747
 9533W        W74793  36.315  36.575  13.832
 9534W        W74794   4.250  28.071  13.538
 9535W        W74795  39.083  17.602   3.615
 9536W        W74796  37.041  34.876  11.372
 9537W        W74797  23.964  29.915  14.943
 9538W        W74798  12.764  16.040   4.619
 9539W        W74799  40.762  39.662  10.695
 9540W        W74800  10.387  26.670  13.168
 9541W        W74801  30.924   3.275  11.671
 9542W        W74802  21.258   5.171  14.830
 9543W        W74803  14.216   0.560   3.123
 9544W        W74804  11.955  32.015  14.238
 9545W        W74805   1.315  13.858   0.939
 9546W        W74806  25.642  11.616   1.833
 9547W        W74807   4.460  42.061  12.592
 9548W        W74808  29.628   6.792  12.988
 9549W        W74809  10.842  23.405  14.031
 9550W        W74810  33.473  32.522  11.668
 9551W        W74811  29.190  22.974  10.579
 9552W        W74812  12.826  34.541   1.065
 9553W        W74813   2.707   7.183   2.775
 9554W        W74814  18.091  18.363  13.337
 9555W        W74815  37.225  22.155  12.064
 9556W        W74816  20.202  14.370   1.095
 9557W        W74817   6.419   7.814  12.117
 9558W        W74818   1.350  27.134  14.978
 9559W        W74819  32.146  16.101   4.689
 9560W        W74820  19.054   7.428  12.448
 9561W        W74821  10.351   8.681   1.925
 9562W        W74822  17.527  38.008  14.495
 9563W        W74823  43.389  35.106  12.154
 9564W        W74824   6.679  31.564  11.670
 9565W        W74825  44.910  40.109  10.776
 9566W        W74826   3.983  18.540  11.055
 9567W        W74827  15.345  20.122  10.195
 9568W        W74828  17.536  22.471   2.760
 9569W        W74829  11.882  12.227  12.518
 9570W        W74830  36.770   9.775   0.086
 9571W        W74831   7.233  41.972   0.714
 9572W        W74832  21.995  42.873  12.392
 9573W        W74833  27.111   6.351  12.491
 9574W        W74834  18.518   4.336   4.483
 9575W        W74835  37.018  33.068   2.296
 9576W        W74836   4.596  15.751  14.288
 9577W        W74837  24.487  40.151  14.084
 9578W        W74838  13.814   3.649   1.822
 9579W        W74839  30.563  10.047  10.669
 9580W        W74840  34.592  19.376  12.092
 9581W        W74841  41.071  12.314   1.698
 9582W        W74842  34.929   7.340  10.395
 9583W        W74843  44.023   9.620  10.347
 9584W        W74844   3.838  44.424  11.625
 9585W        W74845   2.290  27.547  13.358
 9586W        W74846   3.969  19.932  11.046
 9587W        W74847  22.015   3.060   1.241
 9588W        W74848  16.167  35.619  11.172
 9589W        W74849  11.715  13.840   1.759
 9590W        W74850   4.161  34.206  11.523
 9591W        W74851  40.097  33.089   0.813
 9592W        W74852   9.318   7.278   2.772
 9593W        W74853  20.577  25.701   4.268
 9594W        W74854  28.621  25.626  14.358
 9595W        W74855  23.254   6.068   5.344
 9596W        W74856   6.411  31.640  14.505
 9597W        W74857  39.360  38.837  13.604
 9598W        W74858  35.650  13.076  13.493
 9599W        W74859  15.337  20.972   5.364
 9600W        W74860  20.089  28.479  11.595
 9601W        W74861  28.180  14.129  11.576
 9602W        W74862  24.757  16.574   1.764
 9603W        W74863  24.025  42.897   3.911
 9604W        W74864  37.870  28.007   1.948
 9605W        W74865   9.376  10.886  13.336
 9606W        W74866  10.441   1.381   4.062
 9607W        W74867  41.543  35.593   0.378
 9608W        W74868  40.835  33.119   2.355
 9609W        W74869   9.159  29.600   3.848
 9610W        W74870  24.148  27.976   1.556
 9611W        W74871  27.727   9.739  12.900
 9612W        W74872  42.593  25.962  12.050
 9613W        W74873  26.667  12.183   0.795
 9614W        W74874  34.588  38.020  13.079
 9615W        W74875  26.786  39.579  12.592
 9616W        W74876  24.903  19.111  12.563
 9617W        W74877  36.891  23.326  11.593
 9618W        W74878  17.713   3.890   1.259
 9619W        W74879   9.866   8.317   2.718
 9620W        W74880  38.929  44.015  11.082
 9621W        W74881  32.532  23.727   4.552
 9622W        W74882  12.117   2.097   1.793
 9623W        W74883  15.683  42.470   0.007
 9624W        W74884  34.952   5.686  10.188
 9625W        W74885   9.671  28.249   0.303
 9626W        W74886   2.278  28.130  11.490
 9627W        W74887  13.009  21.770   3.560
 9628W        W74888  44.842  13.267  14.578
 9629W        W74889  41.040  43.165  14.929
 9630W        W74890  39.363   5.353   3.088
 9631W        W74891   7.437   7.855   3.906
 9632W        W74892  34.357  15.229  11.573
 9633W        W74893  30.021  16.544  11.453
 9634W        W74894  20.542  26.438   2.183
 9635W        W74895  16.458  24.583   2.472
 9636W        W74896  36.918   2.892   2.677
 9637W        W74897  36.112  23.174  12.545
 9638W        W74898   7.226  27.304  14.422
 9639W        W74899  12.583  21.203  14.478
 9640W        W74900  38.315  16.585   0.765
 9641W        W74901   7.310   4.166   3.107
 9642W        W74902  18.873  17.679   1.865
 9643W        W74903  33.564  12.609   1.453
 9644W        W74904  27.327   3.167   3.482
 9645W        W74905  15.192   9.741   0.715
 9646W        W74906  41.303  31.628  12.370
 9647W        W74907  38.324  23.734  14.962
 9648W        W74908  30.171  36.162   0.484
 9649W        W74909  26.118  19.130   9.901
 9650W        W74910  21.975  31.652   0.277
 9651W        W74911  25.133  40.019   2.516
 9652W        W74912  11.179  22.586  14.048
 9653W        W74913  43.791  33.422   2.329
 9654W        W74914  24.482  41.095  10.669
 9655W        W74915  38.793  11.259   3.337
 9656W        W74916  14.284  43.204  14.786
 9657W        W74917  42.376  22.389  14.350
 9658W        W74918  41.374  35.736   2.881
 9659W        W74919  34.044  37.499   2.206
 9660W        W74920  23.488   9.401   1.502
 9661W        W74921  26.295  15.862  13.491
 9662W        W74922  39.041   5.122   0.886
 9663W        W74923  31.374  31.218  14.039
 9664W        W74924  15.463  29.991  14.904
 9665W        W74925  37.571   0.143   4.069
 9666W        W74926  28.310  11.355   0.734
 9667W        W74927  15.253  35.972  14.978
 9668W        W74928  43.056  38.577  14.625
 9669W        W74929   7.690  12.273   4.650
 9670W        W74930  35.894  38.429   2.355
 9671W        W74931  44.700   5.398   0.983
 9672W        W74932  21.125  29.394  14.390
 9673W        W74933  23.277  17.762  14.923
 9674W        W74934  33.542  33.573   2.118
 9675W        W74935  10.475  41.023  13.990
 9676W        W74936  14.712  37.003   0.799
 9677W        W74937  30.868  39.098   1.684
 9678W        W74938   3.313  14.200  14.239
 9679W        W74939   9.703   6.756  12.091
 9680W        W74940  11.168   8.725  14.480
 9681W        W74941  41.190  38.332  14.337
 9682W        W74942  32.634   1.834  11.162
 9683W        W74943  33.923   7.258  13.542
 9684W        W74944   3.980  14.723   1.791
 9685W        W74945  41.086  43.070  11.204
 9686W        W74946  23.464   6.822   1.788
 9687W        W74947  31.985  11.912   1.691
 9688W        W74948  24.946  16.228  13.475
 9689W        W74949  24.314  21.683  12.055
 9690W        W74950  32.919  11.852   1.311
 9691W        W74951  28.399  11.737   4.446
 9692W        W74952  30.961  19.583  13.867
 9693W        W74953  35.854  18.491  14.304
 9694W        W74954   8.758  17.698  12.769
 9695W        W74955  42.378  12.840   1.163
 9696W        W74956  21.518  40.067  14.632
 9697W        W74957  26.372  14.088   1.908
 9698W        W74958  21.504  44.398   3.131
 9699W        W74959  37.491  25.184  13.841
 9700W        W74960  19.501  28.205   0.819
 9701W        W74961  38.737  23.479   3.420
 9702W        W74962   5.678  44.584   4.177
 9703W        W74963   4.379   4.910  12.657
 9704W        W74964  19.606  35.388  11.622
 9705W        W74965   3.511  37.854   1.152
 9706W        W74966  12.031  22.429  11.999
 9707W        W74967  28.588  30.221   4.077
 9708W        W74968  28.050  39.284  10.656
 9709W        W74969  37.909  34.582  13.838
 9710W        W74970  29.423  11.846  12.882
 9711W        W74971  24.448  34.002  13.828
 9712W        W74972  21.217  21.694  10.631
 9713W        W74973  16.180  27.208  11.160
 9714W        W74974  27.498  30.576  13.032
 9715W        W74975  40.268  34.312  12.897
 9716W        W74976  13.183  20.273   1.402
 9717W        W74977  10.447  28.087  14.846
 9718W        W74978  35.912   3.440  13.352
 9719W        W74979  44.486  10.884  13.825
 9720W        W74980  20.082   4.496  14.999
 9721W        W74981  34.090  22.510  11.558
 9722W        W74982  21.791  12.849  10.676
 9723W        W74983  15.161   2.750  10.531
 9724W        W74984  30.874  19.758   3.182
 9725W        W74985  21.056  21.692  13.427
 9726W        W74986   8.983  15.321  12.793
 9727W        W74987  41.351   1.910  10.697
 9728W        W74988  15.114  26.638   1.515
 9729W        W74989   4.995  17.065   4.989
 9730W        W74990  30.899  29.172  11.179
 9731W        W74991   7.792   1.285  13.552
 9732W        W74992  39.005  17.638  13.871
 9733W        W74993  24.587   2.749  14.946
 9734W        W74994   4.204  12.777   1.652
 9735W        W74995  29.627  42.979   3.154
 9736W        W74996  39.413  13.608   4.084
 9737W        W74997   0.943  29.707   0.928
 9738W        W74998  41.804  39.434   0.443
 9739W        W74999  29.023  30.919  12.423
 9740W        W75000  30.158  22.208  12.946
 9741W        W75001  12.158  12.620   3.257
 9742W        W75002  25.012  24.101   3.406
 9743W        W75003   9.293  13.286   3.244
 9744W        W75004  16.565  40.270   1.292
 9745W        W75005  43.065   8.916  12.795
 9746W        W75006  23.078  41.589   2.820
 9747W        W75007  32.332   6.620  11.180
 9748W        W75008  21.320  37.522   1.215
 9749W        W75009   2.256  35.993  13.481
 9750W        W75010  28.115  44.723  12.005
 9751W        W75011  15.343  38.461   2.147
 9752W        W75012   3.945  41.363  10.560
 9753W        W75013  15.138  22.735   4.693
 9754W        W75014  38.376  12.522  10.586
 9755W        W75015  34.586   7.963   2.771
 9756W        W75016  24.633  16.305  10.453
 9757W        W75017   3.820  34.868   2.363
 9758W        W75018  35.410  21.296  14.099
 9759W        W75019  16.482  10.377  14.412
 9760W        W75020  17.819   1.521   0.910
 9761W        W75021  38.645  13.247   3.165
 9762W        W75022   0.785  27.662  11.127
 9763W        W75023  14.206  10.063  11.430
 9764W        W75024  12.693  24.350   2.282
 9765W        W75025  37.467   7.606  13.927
 9766W        W75026  35.984  23.110  13.034
 9767W        W75027  23.485   5.691  12.429
 9768W        W75028  40.017  43.401  14.458
 9769W        W75029  22.897  24.483  10.757
 9770W        W75030  25.622  10.711  11.463
 9771W        W75031  42.849   3.201  12.264
 9772W        W75032  37.115   1.328   1.210
 9773W        W75033  42.976  18.293  12.600
 9774W        W75034  34.387  18.028   4.630
 9775W        W75035  17.701   5.668  13.426
 9776W        W75036  36.034  28.639   2.413
 9777W        W75037  43.483   5.863   2.814
 9778W        W75038  21.061   6.926   4.001
 9779W        W75039  35.967  27.413  12.429
 9780W        W75040  29.710  35.487   0.277
 9781W        W75041  37.591  35.056  14.382
 9782W        W75042  33.451  41.509  10.119
 9783W        W75043  20.481   2.370   0.312
 9784W        W75044  17.584   7.332  11.522
 9785W        W75045  30.399  15.712  14.242
 9786W        W75046  34.572  33.115  13.391
 9787W        W75047  33.812  44.113  13.091
 9788W        W75048  31.164  38.860  12.952
 9789W        W75049  23.894  10.785   1.044
 9790W        W75050  25.721  20.139   2.647
 9791W        W75051   5.860  43.475  11.053
 9792W        W75052  30.035   9.590  13.370
 9793W        W75053  38.072   6.243  13.297
 9794W        W75054  27.114   4.643   5.291
 9795W        W75055  25.526  20.020  12.849
 9796W        W75056  41.988  23.898  12.750
 9797W        W75057  36.943  17.686   0.923
 9798W        W75058  25.245   5.219   2.517
 9799W        W75059  28.449  14.609   0.706
 9800W        W75060   0.927  21.143  10.317
 9801W        W75061   4.958  22.603  14.113
 9802W        W75062  22.568   1.001   3.735
 9803W        W75063  32.131   6.476  11.669
 9804W        W75064  27.340  15.761  10.172
 9805W        W75065   4.562  17.726  13.636
 9806W        W75066  14.542  31.218  12.102
 9807W        W75067   0.423   8.168   1.207
 9808W        W75068  34.941  38.121  11.568
 9809W        W75069  13.341   0.242   2.974
 9810W        W75070   5.954   6.747  13.041
 9811W        W75071  33.983   5.459  11.935
 9812W        W75072   6.767  25.834   4.106
 9813W        W75073   9.762  23.879  11.618
 9814W        W75074   2.775  27.106   3.520
 9815W        W75075  25.688   3.632  14.433
 9816W        W75076  16.819  31.823  12.973
 9817W        W75077  29.597  19.686  10.229
 9818W        W75078  25.620  28.131  12.744
 9819W        W75079  35.757  26.239   4.007
 9820W        W75080  37.632  41.933   1.976
 9821W        W75081  35.651  36.797   3.648
 9822W        W75082  42.169  24.241  11.064
 9823W        W75083  41.402  11.163   2.301
 9824W        W75084  13.871  30.909  12.998
 9825W        W75085   4.197  16.703   1.378
 9826W        W75086  29.605   7.287   3.855
 9827W        W75087   2.609   5.937  14.401
 9828W        W75088  42.328  23.982   0.980
 9829W        W75089  14.262  12.075   2.910
 9830W        W75090  38.954   8.989  11.493
 9831W        W75091  17.117  23.274  13.934
 9832W        W75092   9.492   2.917   1.394
 9833W        W75093   8.080   7.186  12.110
 9834W        W75094   3.399  14.885   1.375
 9835W        W75095  24.986  39.508   3.336
 9836W        W75096  23.701  41.769   3.156
 9837W        W75097   5.985  10.826   3.313
 9838W        W75098  44.556  22.123  13.496
 9839W        W75099   7.255   9.646   4.178
 9840W        W75100  12.797  26.409  12.458
 9841W        W75101  11.639  29.906   4.690
 9842W        W75102  33.335  18.527  14.334
 9843W        W75103  20.730  38.603  10.600
 9844W        W75104  35.100  34.243  14.756
 9845W        W75105  44.438   4.680  11.574
 9846W        W75106  14.821  36.431  14.280
 9847W        W75107  28.945  26.064   1.429
 9848W        W75108  22.708  13.820   1.391
 9849W        W75109   9.284  12.413   1.450
 9850W        W75110  13.119  40.458   2.200
 9851W        W75111  29.122  24.064   0.210
 9852W        W75112  36.925  26.422   1.368
 9853W        W75113  23.961  37.046   3.264
 9854W        W75114  36.972   3.744   2.293
 9855W        W75115  38.823  42.387   2.889
 9856W        W75116  34.476  16.617  13.464
 9857W        W75117   7.876  12.843  14.870
 9858W        W75118  30.010  35.722   2.170
 9859W        W75119  29.244  35.449  14.401
 9860W        W75120  10.427  15.025   4.236
 9861W        W75121  11.120  31.591   4.125
 9862W        W75122  23.025  13.824  10.472
 9863W        W75123   7.376  38.217  11.196
 9864W        W75124  29.575  28.702   1.545
 9865W        W75125  16.199  28.171   0.750
 9866W        W75126  24.085   7.301  11.988
 9867W        W75127  22.421   6.401   2.296
 9868W        W75128  19.439  17.786   0.071
 9869W        W75129  17.795   2.476  14.309
 9870W        W75130  27.923   4.719  14.028
 9871W        W75131  39.321  31.846   0.408
 9872W        W75132   7.715  10.582   2.723
 9873W        W75133  21.251  23.739   4.525
 9874W        W75134  23.145  27.888   0.468
 9875W        W75135  11.681  26.006  14.064
 9876W        W75136   3.755  19.803   0.229
 9877W        W75137  15.346  38.439  10.640
 9878W        W75138   2.958  38.637  11.995
 9879W        W75139  11.710   1.512  14.065
 9880W        W75140  11.841  30.334   1.305
 9881W        W75141  43.378  13.781  12.061
 9882W        W75142  10.523  19.233  14.238
 9883W        W75143   8.897  11.250   0.164
 9884W        W75144  42.821  25.996  14.963
 9885W        W75145   8.421   0.375  11.636
 9886W        W75146  41.001  25.189  11.995
 9887W        W75147  25.653  37.800   1.842
 9888W        W75148   3.516   1.962  13.331
 9889W        W75149  27.690  22.359  14.035
 9890W        W75150  12.537  43.378   2.326
 9891W        W75151  19.076   4.764  14.062
 9892W        W75152  38.159  21.644  13.722
 9893W        W75153   0.847  33.364   2.204
 9894W        W75154  14.867  36.576  10.526
 9895W        W75155  33.562   3.252   3.093
 9896W        W75156  13.116   0.251  11.600
 9897W        W75157  15.987  35.200  12.564
 9898W        W75158   4.800  24.595  12.618
 9899W        W75159  13.635  11.089   3.633
 9900W        W75160  30.895   7.946   1.416
 9901W        W75161  10.927   3.276   3.280
 9902W        W75162  39.264  12.200   1.508
 9903W        W75163  10.227  23.307  10.963
 9904W        W75164  38.891  21.547  11.040
 9905W        W75165  41.107  14.459   9.887
 9906W        W75166  43.929  10.651   4.479
 9907W        W75167  23.823  14.016   4.743
 9908W        W75168  41.260  33.054  12.443
 9909W        W75169  24.752  15.337   1.806
 9910W        W75170  20.276  11.412  11.015
 9911W        W75171  20.602  26.839   3.197
 9912W        W75172  20.442  39.283   3.173
 9913W        W75173  27.570   0.603   2.362
 9914W        W75174  20.617  11.329   2.582
 9915W        W75175  13.838  44.432  11.153
 9916W        W75176   3.327  12.899   5.119
 9917W        W75177   2.541  14.638   0.357
 9918W        W75178  40.023  41.127  11.648
 9919W        W75179  20.802  27.014  12.617
 9920W        W75180  39.294  37.097   4.156
 9921W        W75181  37.979  27.952   0.245
 9922W        W75182  40.615   5.766  13.501
 9923W        W75183  34.611  40.847   2.746
 9924W        W75184  20.513  40.108  10.716
 9925W        W75185  24.721  24.733   0.445
 9926W        W75186   3.511   2.934  13.949
 9927W        W75187  22.530  25.455  11.040
 9928W        W75188  39.333  44.456  12.687
 9929W        W75189  21.819   2.273  14.893
 9930W        W75190  31.479  24.648   5.135
 9931W        W75191  14.569  30.447   1.826
 9932W        W75192   1.441  23.678  12.870
 9933W        W75193   2.199   2.486  11.987
 9934W        W75194  17.859   2.449  12.885
 9935W        W75195  28.596  43.799  14.227
 9936W        W75196  30.700  37.973   1.211
 9937W        W75197  23.213  28.738  14.979
 9938W        W75198  18.509  13.234  11.109
 9939W        W75199  28.890  14.483  14.923
 9940W        W75200  43.468  27.003   3.255
 9941W        W75201  15.023  12.638  11.476
 9942W        W75202  14.308  17.650   0.368
 9943W        W75203  17.665   6.378   0.607
 9944W        W75204   3.265  36.963   1.609
 9945W        W75205  12.333  11.038   4.181
 9946W        W75206   4.721  21.631   2.209
 9947W        W75207  16.909  35.022  12.519
 9948W        W75208   1.552   1.419   4.288
 9949W        W75209   6.306  25.112  12.340
 9950W        W75210  22.192  38.757  11.053
 9951W        W75211  41.543   5.362   2.757
 9952W        W75212  39.592  21.078   3.708
 9953W        W75213  16.218  30.163  12.605
 9954W        W75214   7.370   8.685   1.222
 9955W        W75215  33.316  18.161   0.269
 9956W        W75216  23.169  20.823  11.670
 9957W        W75217   9.587   5.754   1.768
 9958W        W75218  10.035  37.537   2.666
 9959W        W75219  20.768   6.249  11.968
 9960W        W75220  14.797   7.364  12.701
 9961W        W75221  44.516   0.513  12.485
 9962W        W75222  32.637  20.340   0.689
 9963W        W75223  26.913  22.063   3.693
 9964W        W75224  15.699  26.469  10.632
 9965W        W75225  12.226   5.472   2.198
 9966W        W75226  35.609   8.368  14.979
 9967W        W75227  18.541   1.339  14.558
 9968W        W75228  28.987   4.604  11.726
 9969W        W75229  12.796  34.850  13.400
 9970W        W75230  19.651  16.715  11.506
 9971W        W75231  43.893   9.214   3.359
 9972W        W75232  26.244  22.400   9.297
 9973W        W75233   3.712  11.453  13.503
 9974W        W75234  27.132   3.271  12.053
 9975W        W75235  39.397  23.256  12.610
 9976W        W75236  40.053  35.342  13.864
 9977W        W75237   7.289  21.916   4.570
 9978W        W75238  31.526  21.488   2.348
 9979W        W75239   3.309   3.446  11.135
 9980W        W75240  35.470  14.889  14.881
 9981W        W75241  19.613  10.445   1.008
 9982W        W75242  21.867  39.042   0.677
 9983W        W75243  10.518  22.074   0.436
 9984W        W75244   0.238  25.506   3.258
 9985W        W75245  12.807  21.020   3.543
 9986W        W75246  19.024   7.174   5.047
 9987W        W75247  41.092  29.736   3.762
 9988W        W75248   9.643  37.573  11.173
 9989W        W75249   1.959  36.072   4.970
 9990W        W75250  28.581  28.359   4.454
 9991W        W75251  14.609  43.051  13.312
 9992W        W75252  21.178  38.542   0.234
 9993W        W75253   9.931  44.462   0.463
 9994W        W75254  33.950  30.702   4.642
 9995W        W75255  15.206  18.861   4.165
 9996W        W75256  23.216  33.937  11.468
 9997W        W75257  25.653  41.517   0.282
 9998W        W75258  15.248  14.830  14.425
 9999W        W75259  38.788  18.223   4.290
10000W        W75260  22.432   0.762  14.045
10001W        W75261  37.432  32.040   0.459
10002W        W75262  12.409  44.899  13.553
10003W        W75263  43.969  34.593   2.874
10004W        W75264   7.133  17.374  14.869
10005W        W75265  28.659  35.863  12.839
10006W        W75266  15.807  40.024   1.737
10007W        W75267  39.326  37.809   3.071
10008W        W75268  27.974   9.326   0.755
10009W        W75269  26.509  37.083  11.190
10010W        W75270  35.841  24.748   3.724
10011W        W75271  40.433   3.963   2.305
10012W        W75272  31.820  43.842  13.885
10013W        W75273   1.884  43.013   0.704
10014W        W75274   6.266  41.238  10.285
10015W        W75275  39.766  21.234   3.213
10016W        W75276  29.798  16.431   4.195
10017W        W75277  40.421  30.938  14.760
10018W        W75278  22.533  42.508   1.411
10019W        W75279  33.668   2.766   1.490
10020W        W75280   3.717  31.039   4.899
10021W        W75281  30.250   6.369  12.887
10022W        W75282  34.161  19.516   0.569
10023W        W75283  42.015  19.175   1.692
10024W        W75284  41.479  38.764  12.184
10025W        W75285   4.280  22.783  12.423
10026W        W75286  24.146  36.058   1.776
10027W        W75287  34.013  34.580  14.783
10028W        W75288  12.428  11.759  12.812
10029W        W75289  16.805  38.447  13.470
10030W        W75290  42.568  32.860   3.439
10031W        W75291  42.915  19.039   2.658
10032W        W75292  10.134  15.856   3.160
10033W        W75293  44.752   9.395  14.138
10034W        W75294  44.044   2.188  10.778
10035W        W75295  39.497   7.872   3.788
10036W        W75296  19.223   5.127   3.733
10037W        W75297  17.019  12.773  11.674
10038W        W75298  38.576  43.498   2.277
10039W        W75299  11.771  22.501   3.338
10040W        W75300   6.062  21.582   0.806
10041W        W75301  11.405  31.140  13.003
10042W        W75302  34.675  23.058   4.601
10043W        W75303   0.787   6.419  11.144
10044W        W75304   5.394  15.124  11.651
10045W        W75305  36.629  36.300   2.217
10046W        W75306  26.663   6.291  11.185
10047W        W75307  13.577  26.161   3.359
10048W        W75308   8.221   8.851   0.766
10049W        W75309  36.771  38.425  12.951
10050W        W75310   8.457  41.885   1.903
10051W        W75311  16.750  15.946   4.637
10052W        W75312  38.484  28.505   1.926
10053W        W75313  16.168  28.936  13.180
10054W        W75314   7.867  20.162  11.881
10055W        W75315  39.857  26.618  12.026
10056W        W75316  31.870  14.304   0.285
10057W        W75317  43.228  43.749  14.794
10058W        W75318  22.564  44.983  13.378
10059W        W75319  23.150  28.456   3.419
10060W        W75320  25.687  33.544   0.542
10061W        W75321  20.338   5.323   1.846
10062W        W75322  10.719  20.484  12.169
10063W        W75323  15.815  39.896  12.615
10064W        W75324  15.527  31.414  13.589
10065W        W75325  37.657   5.401   2.139
10066W        W75326  13.882  27.949   0.423
10067W        W75327  21.282  15.895  14.430
10068W        W75328  17.683  13.081  11.565
10069W        W75329  25.241   0.510  13.970
10070W        W75330  38.473  23.032   3.374
10071W        W75331  36.462   5.104   2.696
10072W        W75332  40.396  27.372  11.024
10073W        W75333  44.159  33.123  13.305
10074W        W75334  31.591  20.597   1.851
10075W        W75335  40.906   8.804  13.431
10076W        W75336  39.818  43.271   3.739
10077W        W75337  26.154  12.653  10.718
10078W        W75338  18.335  25.640   4.126
10079W        W75339  35.154  13.036  14.406
10080W        W75340   5.356  23.469   1.757
10081W        W75341  44.370  19.077   3.256
10082W        W75342  33.504  42.434  12.536
10083W        W75343  17.387  16.281  12.976
10084W        W75344  27.485  39.068   1.348
10085W        W75345  17.186  20.107   2.418
10086W        W75346  10.290  20.749  12.063
10087W        W75347  42.505  18.068  12.499
10088W        W75348  18.676  31.453   2.666
10089W        W75349  43.816  40.831   0.451
10090W        W75350   4.348  22.646   2.906
10091W        W75351   2.458  13.028  14.087
10092W        W75352  34.570  33.990   3.278
10093W        W75353   8.848  13.085   4.055
10094W        W75354  31.887  20.664   0.566
10095W        W75355  35.013  31.553  14.888
10096W        W75356  20.513  19.640  12.475
10097W        W75357   5.250  35.811  13.726
10098W        W75358  34.068  33.425  10.669
10099W        W75359  42.888   7.930   4.595
10100W        W75360  38.945  38.991  13.323
10101W        W75361   4.993  12.629  12.713
10102W        W75362  24.985  27.225   3.628
10103W        W75363  38.948  11.893   0.567
10104W        W75364  40.412  19.275   3.674
10105W        W75365  25.133  21.162  14.816
10106W        W75366  37.887  35.155   0.436
10107W        W75367  36.573  12.553  12.677
10108W        W75368  44.445  44.209   1.305
10109W        W75369  38.750   2.356  11.088
10110W        W75370  37.757   1.465  12.416
10111W        W75371  31.051  43.846  11.690
10112W        W75372  20.529  26.091   3.911
10113W        W75373  32.098   3.396  14.391
10114W        W75374  35.413  38.819  11.716
10115W        W75375  22.169  11.266  13.751
10116W        W75376  30.469  38.321   1.501
10117W        W75377  30.680  19.710   4.789
10118W        W75378  41.837  30.840  13.349
10119W        W75379   9.750  44.737   3.249
10120W        W75380  39.993  18.236   1.723
10121W        W75381  12.662  19.483  14.239
10122W        W75382  14.363  13.670   0.084
10123W        W75383  33.908   1.218  12.860
10124W        W75384   5.432  24.000  10.198
10125W        W75385  18.576  25.051  14.363
10126W        W75386  10.970  28.841  11.159
10127W        W75387  23.645  35.410   3.414
10128W        W75388  10.112  36.971  12.833
10129W        W75389  12.297   1.010   1.425
10130W        W75390  28.622   8.316   4.061
10131W        W75391  15.756  26.370   1.721
10132W        W75392  40.884   2.356   2.387
10133W        W75393  31.754  19.764   0.425
10134W        W75394  36.399  24.437  12.868
10135W        W75395  19.550   8.178   4.212
10136W        W75396   2.239  44.698   1.208
10137W        W75397   1.137  12.057   1.382
10138W        W75398  27.537  21.116   1.470
10139W        W75399  17.327  42.844  12.513
10140W        W75400  35.420  36.481  10.881
10141W        W75401  15.615  22.479  14.927
10142W        W75402  40.803   7.742   1.286
10143W        W75403  29.426   6.402  12.359
10144W        W75404   5.608   9.111  11.092
10145W        W75405  40.837   2.784  13.459
10146W        W75406  10.630   3.478   0.781
10147W        W75407   4.309  38.895  14.586
10148W        W75408  30.956  15.634   5.012
10149W        W75409  24.027  13.915   4.164
10150W        W75410   0.542  33.928   3.172
10151W        W75411  17.139  10.954  12.951
10152W        W75412  39.326   5.618  12.319
10153W        W75413  38.576  29.662  14.957
10154W        W75414  15.744  14.692   0.862
10155W        W75415  21.224  43.498   0.734
10156W        W75416  34.888  43.324  10.545
10157W        W75417   9.362  24.619   0.778
10158W        W75418  20.088  37.278  11.555
10159W        W75419  34.271   0.639   3.601
10160W        W75420   9.288  16.787   3.692
10161W        W75421  38.949  18.076   4.794
10162W        W75422  37.951  16.938  10.251
10163W        W75423  24.852  30.589   4.271
10164W        W75424  25.626  18.878   1.387
10165W        W75425  26.062  40.787  10.763
10166W        W75426  26.737   5.886  13.464
10167W        W75427  19.626  18.606  13.842
10168W        W75428  40.834  15.293   1.871
10169W        W75429  22.602  16.782  12.539
10170W        W75430   4.629  34.035  14.839
10171W        W75431  37.419  24.426  11.455
10172W        W75432  38.226   4.561   3.506
10173W        W75433  15.569  39.014   3.349
10174W        W75434  32.128  38.482   1.244
10175W        W75435  35.194   0.237  13.044
10176W        W75436  21.054  22.593   2.238
10177W        W75437  11.844  36.560   2.765
10178W        W75438  21.056  22.196   9.832
10179W        W75439  35.088  12.181  13.547
10180W        W75440   2.351   3.552  11.431
10181W        W75441  43.438   1.259   4.393
10182W        W75442   8.838   2.744   3.634
10183W        W75443  29.747  42.136  14.341
10184W        W75444  23.993  41.478   4.632
10185W        W75445   0.344   7.552  10.950
10186W        W75446   3.656  37.471  12.987
10187W        W75447   7.812  36.310  14.502
10188W        W75448  35.023   7.854  10.482
10189W        W75449   0.799   5.161  14.210
10190W        W75450   3.153   3.653   1.839
10191W        W75451  44.458  41.577   4.166
10192W        W75452  43.947   1.557   0.464
10193W        W75453   7.891  36.868   2.541
10194W        W75454  14.231  44.394  12.074
10195W        W75455  25.051  42.016  11.454
10196W        W75456   5.914   0.701   3.068
10197W        W75457  13.674   2.906   0.288
10198W        W75458  16.615  31.077   4.655
10199W        W75459  30.036  12.086   3.670
10200W        W75460   4.409   7.883   1.188
10201W        W75461  11.779  13.538  10.701
10202W        W75462  38.348  22.105  13.577
10203W        W75463  15.613  16.032  12.923
10204W        W75464   0.651   2.337   2.906
10205W        W75465   0.797   9.128   2.738
10206W        W75466  25.390  34.701   0.831
10207W        W75467   3.955  35.587   1.800
10208W        W75468  35.366  16.428   0.755
10209W        W75469  11.284  15.234   1.984
10210W        W75470  12.440  25.608  14.939
10211W        W75471  15.572  42.575  11.444
10212W        W75472   2.748  10.782   4.294
10213W        W75473   2.780  34.557   3.287
10214W        W75474   7.335  13.103   1.340
10215W        W75475  44.130   7.777  11.895
10216W        W75476   4.239  25.200   1.181
10217W        W75477  10.699   8.725  14.207
10218W        W75478   8.613  20.213  13.462
10219W        W75479  38.072  42.505  14.780
10220W        W75480  25.397   6.198  12.331
10221W        W75481  17.202   6.634  13.986
10222W        W75482  44.822  13.850   3.654
10223W        W75483  11.676  31.476   0.051
10224W        W75484  32.404   2.452   2.779
10225W        W75485   7.392  26.513  14.251
10226W        W75486  11.264   6.697   1.166
10227W        W75487  10.657  38.076   4.846
10228W        W75488   5.893   9.847   3.559
10229W        W75489   4.919  33.567   2.542
10230W        W75490  36.386  33.281   2.753
10231W        W75491  24.725  22.766  12.982
10232W        W75492  41.849  16.132  14.999
10233W        W75493  42.419  13.094  14.298
10234W        W75494  24.087  36.840  13.728
10235W        W75495  36.387  29.992  13.417
10236W        W75496  36.097  39.921  13.388
10237W        W75497  16.288  43.477  11.977
10238W        W75498  38.670   1.938   0.573
10239W        W75499   9.757  12.973   2.205
10240W        W75500   4.314   3.427  11.104
10241W        W75501  14.192  37.054   3.081
10242W        W75502   4.795  38.519   3.590
10243W        W75503  20.118  14.629  13.948
10244W        W75504  15.043  14.096   4.038
10245W        W75505  37.470   8.467   4.397
10246W        W75506   1.444   2.364  13.808
10247W        W75507  23.386   1.816   2.470
10248W        W75508  11.214  35.763  13.458
10249W        W75509  29.899  39.835  14.551
10250W        W75510  41.848  33.164  14.409
10251W        W75511  21.231  13.795  11.165
10252W        W75512  37.577  38.956   3.676
10253W        W75513   1.702  20.832   0.912
10254W        W75514  34.570  39.390  11.383
10255W        W75515  33.619   4.884  13.403
10256W        W75516  16.397  36.412  13.514
10257W        W75517  13.587  43.644  11.772
10258W        W75518   1.293  31.348  14.533
10259W        W75519  11.662  35.988   3.121
10260W        W75520  20.909   6.271  12.751
10261W        W75521  25.206   3.963  13.408
10262W        W75522   3.481  20.273  14.948
10263W        W75523  28.951  16.762   3.205
10264W        W75524  31.585  29.887   0.479
10265W        W75525  28.023  11.497  13.385
10266W        W75526  26.570  19.230  14.981
10267W        W75527  24.952  15.567   1.031
10268W        W75528  32.383   4.255  13.165
10269W        W75529  43.519  19.163  11.954
10270W        W75530  12.617  37.135   0.738
10271W        W75531  17.620   4.723  11.160
10272W        W75532  22.606  29.968   3.711
10273W        W75533  39.947  39.836  11.162
10274W        W75534  16.318  29.425   2.253
10275W        W75535  19.041  27.600  14.111
10276W        W75536  10.304  42.868   1.447
10277W        W75537   1.825  30.017   3.260
10278W        W75538   9.729  30.540   4.720
10279W        W75539  22.171  18.616  13.786
10280W        W75540  41.374   5.452  11.084
10281W        W75541  42.764  27.143  11.394
10282W        W75542  26.960  10.202  13.082
10283W        W75543  32.887  12.271   0.400
10284W        W75544  28.587  20.080  13.495
10285W        W75545  13.278  11.344  14.100
10286W        W75546  28.460  17.987   3.278
10287W        W75547  17.494  38.179  14.996
10288W        W75548  19.750   7.083  12.522
10289W        W75549  39.584  21.949   0.129
10290W        W75550  20.163  24.371   1.764
10291W        W75551  37.352  21.504  11.523
10292W        W75552  31.579  35.417   4.936
10293W        W75553  10.729   5.613   0.063
10294W        W75554  20.124  17.329   0.193
10295W        W75555  21.272  43.377   2.345
10296W        W75556  28.071  30.952   2.269
10297W        W75557  44.662  21.326  11.523
10298W        W75558  10.057  34.800   1.542
10299W        W75559  28.392  23.669   0.860
10300W        W75560  36.177  35.762   5.301
10301W        W75561  25.610   4.614   4.113
10302W        W75562   8.351  17.989   1.823
10303W        W75563  12.212   6.932  12.783
10304W        W75564   7.719  38.027   1.719
10305W        W75565  31.899  15.325  14.425
10306W        W75566   8.939  18.219   3.968
10307W        W75567  25.245  35.402   5.158
10308W        W75568  32.241  34.422   0.893
10309W        W75569  12.787   4.177   2.315
10310W        W75570   7.681  15.633  13.387
10311W        W75571   0.921  33.267  11.057
10312W        W75572  40.835  14.324   4.415
10313W        W75573  17.034   5.418  12.575
10314W        W75574  40.551  28.358   4.587
10315W        W75575   6.743  17.315   0.898
10316W        W75576   8.244  38.941  13.432
10317W        W75577   4.174   5.762   3.797
10318W        W75578   9.314  23.975   0.158
10319W        W75579   7.593  26.892  14.531
10320W        W75580  19.082  13.900  12.065
10321W        W75581  33.391  10.395   0.005
10322W        W75582  38.834  44.502  12.852
10323W        W75583  19.227   2.966   0.732
10324W        W75584  14.363  31.391   0.963
10325W        W75585  30.188  30.057   0.670
10326W        W75586  39.681   4.852   0.370
10327W        W75587  17.097   0.007   0.777
10328W        W75588  30.752  10.812   2.591
10329W        W75589  33.647  12.437   0.117
10330W        W75590   7.509  29.991  10.087
10331W        W75591  44.945  33.463   3.768
10332W        W75592  23.653  33.314   4.677
10333W        W75593  11.832  21.741  13.915
10334W        W75594  34.165   8.964  12.939
10335W        W75595   7.184   0.010  13.471
10336W        W75596  12.691  24.042  11.337
10337W        W75597  37.972  32.928   4.782
10338W        W75598  44.283  27.563   2.364
10339W        W75599  42.462  36.625  11.523
10340W        W75600  36.267   7.647  11.145
10341W        W75601  41.253   9.833  14.841
10342W        W75602  31.432  20.959  14.952
10343W        W75603  25.771  28.882  13.974
10344W        W75604  35.550  21.794  12.425
10345W        W75605  27.902  23.027   2.732
10346W        W75606  12.819  30.000  10.605
10347W        W75607  44.006  27.401   0.367
10348W        W75608  41.558  26.973   4.013
10349W        W75609  29.693  40.554   2.560
10350W        W75610  24.200  37.314   2.850
10351W        W75611  12.037  34.050  10.593
10352W        W75612  35.740  27.185  12.019
10353W        W75613  15.306  40.504  10.818
10354W        W75614  22.091  44.898  12.596
10355W        W75615  11.885  15.354  11.094
10356W        W75616  20.230  44.689   2.854
10357W        W75617  36.571  36.079  12.965
10358W        W75618   1.295  15.627   2.353
10359W        W75619  17.185  37.791   1.107
10360W        W75620  23.772   2.940  12.512
10361W        W75621  19.983   4.453  11.000
10362W        W75622  42.381  28.216  14.808
10363W        W75623  21.607  16.311  14.320
10364W        W75624  19.546  36.562  14.428
10365W        W75625  26.654  44.074  14.415
10366W        W75626   1.462  32.026   2.303
10367W        W75627  12.348  21.562   4.612
10368W        W75628   5.360  31.587   3.330
10369W        W75629  29.367  38.207   2.749
10370W        W75630  10.715  34.307  13.837
10371W        W75631  26.206  35.613  13.058
10372W        W75632  18.760  29.121  13.091
10373W        W75633  42.363  41.104   1.816
10374W        W75634   8.158   6.353   4.291
10375W        W75635  36.984  34.488  11.710
10376W        W75636  41.885   4.148  11.197
10377W        W75637   3.472   4.428  10.698
10378W        W75638  31.346  38.522   0.958
10379W        W75639   6.168  18.947  13.974
10380W        W75640  26.449   7.918   4.949
10381W        W75641   4.721  42.887  14.570
10382W        W75642  39.483  33.738   3.681
10383W        W75643   3.260  44.057  14.583
10384W        W75644  22.423  32.947  11.282
10385W        W75645  24.380  25.609  13.017
10386W        W75646  14.271  44.810   4.073
10387W        W75647  10.119   3.312   2.873
10388W        W75648  33.319   2.269   2.707
10389W        W75649  17.619   7.384  12.492
10390W        W75650  16.751  28.967  11.459
10391W        W75651  34.967  18.697   4.767
10392W        W75652  33.577  15.237   1.855
10393W        W75653  25.572   6.678  11.742
10394W        W75654   2.273  37.849   4.576
10395W        W75655  30.448  20.025  14.923
10396W        W75656  22.518  32.447  13.671
10397W        W75657   7.276  14.828  11.449
10398W        W75658  18.478  22.489  13.402
10399W        W75659  38.958  27.700  14.676
10400W        W75660  13.377  24.672   0.733
10401W        W75661  42.386   7.277   3.405
10402W        W75662   1.320  20.590  10.573
10403W        W75663  25.968   1.915  14.630
10404W        W75664   6.963  20.601  14.449
10405W        W75665  43.935   3.982   1.851
10406W        W75666  43.345  36.387  13.495
10407W        W75667  20.854  30.466   0.827
10408W        W75668  32.691  10.816   0.348
10409W        W75669  10.847  32.086  11.906
10410W        W75670  25.001  13.297   3.201
10411W        W75671   4.971  35.299   1.016
10412W        W75672   6.639  40.280   0.178
10413W        W75673   4.477   8.678   2.254
10414W        W75674  22.532  10.425  10.449
10415W        W75675  44.399   9.373  11.576
10416W        W75676  39.869   5.688  12.938
10417W        W75677  22.520  42.461  12.537
10418W        W75678  19.161  21.212   3.069
10419W        W75679  31.957  36.686  10.752
10420W        W75680  10.997   5.111   5.015
10421W        W75681  17.259  43.140  14.179
10422W        W75682   2.959   7.224  11.701
10423W        W75683  14.147  43.998   2.315
10424W        W75684  31.127   5.369  10.707
10425W        W75685  29.719  15.234   2.185
10426W        W75686   3.031  28.763   2.042
10427W        W75687   3.523  27.577   2.147
10428W        W75688  10.001  35.592   4.578
10429W        W75689  27.021  19.157  10.270
10430W        W75690  34.831   0.816   5.363
10431W        W75691  14.525  18.754   3.033
10432W        W75692  43.108  38.989  12.811
10433W        W75693   9.757  40.471   4.478
10434W        W75694  29.104  31.598   5.086
10435W        W75695   8.131  27.920   0.272
10436W        W75696  18.576  35.548   2.718
10437W        W75697  31.779   9.686  14.323
10438W        W75698  28.719  28.460   2.388
10439W        W75699  13.480  44.500  12.079
10440W        W75700   5.285  38.768  12.592
10441W        W75701  29.049  39.524   2.338
10442W        W75702  24.654  22.760   1.884
10443W        W75703  38.939  15.314   1.546
10444W        W75704  19.414  28.029  11.970
10445W        W75705  25.255  42.345   2.737
10446W        W75706  15.269  35.315   2.358
10447W        W75707  20.594  14.636  14.836
10448W        W75708   0.242  30.098   1.776
10449W        W75709  10.340   6.223   3.509
10450W        W75710  16.011  20.804   2.614
10451W        W75711  28.332  21.763  11.438
10452W        W75712  17.735  29.902  14.437
10453W        W75713  33.826   4.314   3.136
10454W        W75714  22.438  39.928  13.315
10455W        W75715  44.380  38.288   0.519
10456W        W75716   8.622  40.898   0.899
10457W        W75717  29.979  39.543   0.527
10458W        W75718   3.212  27.756   4.205
10459W        W75719  20.789  29.416   2.505
10460W        W75720  15.625   4.347   0.662
10461W        W75721  13.048  44.036   0.240
10462W        W75722   5.962  40.730   3.952
10463W        W75723  21.590  36.066  14.904
10464W        W75724  37.466   2.270  11.468
10465W        W75725  32.424  30.456  13.377
10466W        W75726   0.312   3.959  14.747
10467W        W75727  24.634  38.806  14.412
10468W        W75728  23.575  19.365  12.947
10469W        W75729  11.851  27.383  12.516
10470W        W75730  11.252  27.423  14.214
10471W        W75731  23.190  11.671   1.834
10472W        W75732  30.541  18.057   2.862
10473W        W75733  29.381  39.619  14.590
10474W        W75734  30.608  20.077  12.418
10475W        W75735  40.526  28.895  11.176
10476W        W75736  22.687  26.986   4.371
10477W        W75737  23.023   5.502   0.671
10478W        W75738  18.268  23.723   4.659
10479W        W75739  22.285  33.331   3.313
10480W        W75740  34.051   1.343   1.359
10481W        W75741  26.431  23.980  12.514
10482W        W75742  27.757  37.526  13.867
10483W        W75743  17.196  41.955  12.249
10484W        W75744  21.381  25.888  12.125
10485W        W75745  34.415  11.603   3.214
10486W        W75746  32.602  20.808   0.959
10487W        W75747  17.829  35.436  11.128
10488W        W75748   7.172  21.196  12.926
10489W        W75749  43.391   1.746  11.143
10490W        W75750  29.909  16.704   1.043
10491W        W75751   1.761  34.522  14.826
10492W        W75752   0.822  17.534  10.886
10493W        W75753  27.431   2.303   3.911
10494W        W75754  34.438  36.466  11.728
10495W        W75755   1.678  32.881  11.516
10496W        W75756  20.017  23.218  13.138
10497W        W75757   1.206  19.569   0.617
10498W        W75758  26.942  12.705   0.686
10499W        W75759  25.140  37.012   0.256
10500W        W75760  35.631  22.061   0.283
10501W        W75761   6.994   7.469   0.496
10502W        W75762  16.645  35.995  13.354
10503W        W75763  22.144  44.248  11.007
10504W        W75764  23.144  43.120   4.526
10505W        W75765  31.993  27.615  10.216
10506W        W75766   8.197   4.984  14.484
10507W        W75767   4.761  10.880   1.316
10508W        W75768  14.418   5.140   4.626
10509W        W75769  21.263  32.901   2.249
10510W        W75770  24.537  35.920   2.898
10511W        W75771  23.040   4.665  14.695
10512W        W75772   6.240  29.498  10.637
10513W        W75773  20.974   5.868  11.144
10514W        W75774  44.677  22.728   1.146
10515W        W75775  23.331  16.817  13.061
10516W        W75776  39.110  16.331   0.082
10517W        W75777  31.209  22.689   3.668
10518W        W75778  37.068  42.375  13.487
10519W        W75779  40.369  17.992   2.876
10520W        W75780  22.565   1.221  14.882
10521W        W75781   1.185  41.782  13.539
10522W        W75782  34.123  41.247  13.520
10523W        W75783  42.362  13.254   3.328
10524W        W75784   4.350  41.845   3.716
10525W        W75785  35.921  33.118  12.938
10526W        W75786   2.333  39.929  10.136
10527W        W75787   1.817   6.321  12.420
10528W        W75788  18.506  30.381  12.051
10529W        W75789   4.877  29.027   2.299
10530W        W75790   0.464  32.529   4.609
10531W        W75791  29.290   5.578   0.736
10532W        W75792  34.920   3.932   3.408
10533W        W75793  33.047  41.169  14.056
10534W        W75794  40.853  32.609  14.024
10535W        W75795  28.735  35.385   4.621
10536W        W75796  41.920  11.858  13.750
10537W        W75797  11.794  38.270  13.840
10538W        W75798  27.274  35.397   4.188
10539W        W75799  13.209  44.334   4.223
10540W        W75800   6.047   5.362   3.311
10541W        W75801  32.765   9.105  13.478
10542W        W75802  34.021  24.586   2.598
10543W        W75803  43.933   7.896   0.478
10544W        W75804  24.137  14.330   3.883
10545W        W75805  11.299  20.078   1.228
10546W        W75806  31.564   9.165   5.143
10547W        W75807  39.921  37.555   2.022
10548W        W75808  19.041   6.949   4.291
10549W        W75809  34.064  18.967  11.563
10550W        W75810  17.370  27.214  10.696
10551W        W75811  36.051  23.617  12.112
10552W        W75812  39.597  21.787  13.562
10553W        W75813  22.150  25.412   0.911
10554W        W75814  41.514  33.559  13.145
10555W        W75815  26.702  35.007   1.663
10556W        W75816  43.944  17.656   1.762
10557W        W75817  24.992   7.730   3.582
10558W        W75818  29.307   2.467   2.179
10559W        W75819   6.771   4.401   0.228
10560W        W75820  20.193  25.656   2.428
10561W        W75821  44.948  34.425   1.847
10562W        W75822  27.229   0.462  12.960
10563W        W75823  21.000   9.264   1.550
10564W        W75824  10.833  37.925   1.226
10565W        W75825   2.395  38.800   0.689
10566W        W75826   1.797   7.077   2.839
10567W        W75827  29.912   8.685   1.896
10568W        W75828  11.850  33.077  14.876
10569W        W75829  14.065  37.981   3.244
10570W        W75830  14.192  30.241   4.922
10571W        W75831  37.441  32.149  13.315
10572W        W75832   1.553  13.210   1.909
10573W        W75833  43.348  35.848  13.480
10574W        W75834  18.167  29.615   0.115
10575W        W75835  25.094  30.588  13.423
10576W        W75836  27.128  40.809   4.417
10577W        W75837   6.255  36.131  14.715
10578W        W75838  24.977  37.429  13.344
10579W        W75839  21.238   2.760   1.705
10580W        W75840  16.758   0.976  14.681
10581W        W75841  15.726  23.490  11.599
10582W        W75842  22.148  15.024   1.747
10583W        W75843  11.540   5.198   5.061
10584W        W75844  44.917  19.009   3.912
10585W        W75845  31.582   6.342  10.802
10586W        W75846  33.353   0.838  12.009
10587W        W75847  29.446   0.606  14.456
10588W        W75848  30.854   6.812   3.164
10589W        W75849   0.926   1.692   4.999
10590W        W75850  35.223  27.687   4.901
10591W        W75851  15.900  21.376  11.507
10592W        W75852  14.604  37.032  10.414
10593W        W75853  23.215  29.810   2.600
10594W        W75854   8.563  33.586   2.347
10595W        W75855  40.903  20.945  13.944
10596W        W75856  34.422  34.401  13.014
10597W        W75857   5.502  31.294   2.946
10598W        W75858   2.071  24.142  14.850
10599W        W75859  11.213  12.885   0.197
10600W        W75860  29.691  42.423   1.666
10601W        W75861   4.878  27.206   3.850
10602W        W75862  24.521  24.860  12.669
10603W        W75863  27.480   9.333  14.846
10604W        W75864   0.809   8.630  14.266
10605W        W75865  25.173   9.760  14.310
10606W        W75866   6.759  19.165   3.232
10607W        W75867  26.286  28.535   3.786
10608W        W75868  39.414  44.775   1.846
10609W        W75869  21.219  43.300   4.088
10610W        W75870  15.529   5.084  11.090
10611W        W75871   9.449  33.179  14.105
10612W        W75872  42.422  33.041   4.359
10613W        W75873   3.688  43.856  12.415
10614W        W75874   1.750  40.243   3.466
10615W        W75875  32.918  10.098  14.170
10616W        W75876  38.137  39.720   0.956
10617W        W75877  43.036  43.090   5.073
10618W        W75878  36.066  33.092  12.036
10619W        W75879   1.279  23.579  11.073
10620W        W75880   9.664  39.157  12.130
10621W        W75881  15.602  35.438  14.390
10622W        W75882  44.698   4.494   0.920
10623W        W75883   8.234   3.808   4.081
10624W        W75884  17.869  37.334  12.402
10625W        W75885  25.504  23.112   3.284
10626W        W75886  28.700  32.279   2.231
10627W        W75887  42.463  23.522  11.986
10628W        W75888  24.894  11.806   4.108
10629W        W75889  22.771  41.710   2.055
10630W        W75890  19.099  23.959  11.463
10631W        W75891   6.620  38.164   2.919
10632W        W75892   3.394  25.898   0.906
10633W        W75893   7.240  38.045   4.533
10634W        W75894  18.123   9.364  13.912
10635W        W75895  10.517  18.927  14.983
10636W        W75896  39.048  24.452  13.581
10637W        W75897  11.857  22.313   0.818
10638W        W75898  39.867  15.270   3.385
10639W        W75899  31.943  39.504  14.017
10640W        W75900  22.395  38.735  13.992
10641W        W75901  35.604  11.027   0.726
10642W        W75902   8.849  11.290  10.747
10643W        W75903  23.266  13.241  11.550
10644W        W75904  40.598  17.798   1.472
10645W        W75905  24.149  14.293   3.347
10646W        W75906  21.628  24.183  10.783
10647W        W75907  19.647   0.434   0.469
10648W        W75908  14.970  34.308  14.958
10649W        W75909  37.818  36.528  11.146
10650W        W75910  38.321  34.004  11.581
10651W        W75911   3.990  10.416   1.352
10652W        W75912  16.017  40.105   5.188
10653W        W75913  42.576  29.892   4.132
10654W        W75914   1.795   5.249   3.216
10655W        W75915  10.342  28.364  11.550
10656W        W75916   8.830  26.281  12.511
10657W        W75917  43.710  44.361   0.363
10658W        W75918  21.220   4.020   4.281
10659W        W75919  39.503  40.139  13.087
10660W        W75920  35.787  31.991  13.803
10661W        W75921  42.004   8.756   4.573
10662W        W75922   1.218  22.036  14.244
10663W        W75923  26.522  37.628  13.598
10664W        W75924  37.115  18.274  13.396
10665W        W75925  43.683  14.532   1.320
10666W        W75926  36.409  17.477   0.002
10667W        W75927  11.610   6.722  14.043
10668W        W75928  27.098  18.260   0.830
10669W        W75929  13.841  18.895   0.357
10670W        W75930  30.891  40.935   3.273
10671W        W75931  35.775  41.283   0.186
10672W        W75932  27.056  14.626   1.007
10673W        W75933  20.061  37.779  11.528
10674W        W75934  43.571  14.807  11.080
10675W        W75935  39.439   8.408  12.355
10676W        W75936  23.968  25.576  13.358
10677W        W75937  20.071   7.404   3.256
10678W        W75938  27.768  29.388   4.525
10679W        W75939  15.334   4.707   3.702
10680W        W75940   1.688   4.688   0.299
10681W        W75941  12.170  13.865   0.501
10682W        W75942  39.378  23.151  13.543
10683W        W75943  32.865  17.547  11.023
10684W        W75944  28.689  24.311   3.802
10685W        W75945   0.356   6.813   3.744
10686W        W75946  17.163  21.188   0.009
10687W        W75947   8.832   8.713   2.203
10688W        W75948  38.379   8.239   2.866
10689W        W75949  31.640  39.320   3.171
10690W        W75950   3.978  12.127   1.939
10691W        W75951   9.268  34.073   4.116
10692W        W75952  36.398  36.356   3.219
10693W        W75953  12.230   5.466  11.054
10694W        W75954   4.417   3.414   0.524
10695W        W75955  11.191  27.449   9.711
10696W        W75956  32.133  11.912  14.299
10697W        W75957   9.943  11.248  10.229
10698W        W75958  35.586  13.859  14.504
10699W        W75959  16.241  38.046  12.934
10700W        W75960   8.880  28.122  14.801
10701W        W75961  11.162  13.570  14.509
10702W        W75962   4.096  42.817   5.178
10703W        W75963  42.843  16.636  14.934
10704W        W75964  22.770  10.808   4.474
10705W        W75965   2.460  40.747  14.791
10706W        W75966  36.760  19.739   0.446
10707W        W75967   3.006  22.560   2.806
10708W        W75968   2.692  39.871  12.431
10709W        W75969  15.866  18.880   4.974
10710W        W75970  20.795   5.068   1.944
10711W        W75971  44.492  30.208  13.423
10712W        W75972   7.784  29.889  11.448
10713W        W75973  32.933  35.296   0.872
10714W        W75974   8.884  40.568  10.547
10715W        W75975  15.762  18.836   1.308
10716W        W75976  31.840   3.634   1.921
10717W        W75977   8.878  21.607  11.135
10718W        W75978  18.957  35.889   3.708
10719W        W75979  22.637  37.325   9.980
10720W        W75980  36.693  35.921   3.200
10721W        W75981  22.129  35.871  12.691
10722W        W75982   7.861  13.280  12.932
10723W        W75983  40.340  11.276  12.022
10724W        W75984  22.263  43.448   2.346
10725W        W75985  10.850  37.147  12.656
10726W        W75986  40.078   5.302  13.646
10727W        W75987  36.360  36.896  12.476
10728W        W75988   1.453  12.051   3.687
10729W        W75989  24.567  39.825   3.233
10730W        W75990  44.714   6.151  10.565
10731W        W75991  30.608   3.786   1.386
10732W        W75992  22.692  12.340   4.376
10733W        W75993  35.016  20.597   3.124
10734W        W75994   8.431  26.018  12.311
10735W        W75995  38.839  27.141   1.646
10736W        W75996  23.244   5.935   3.103
10737W        W75997   6.917  31.409   3.620
10738W        W75998  22.142  32.411  11.987
10739W        W75999  10.606   7.774  14.605
10740W        W76000   8.677  30.786   4.609
10741W        W76001  38.402  22.806  13.995
10742W        W76002  28.906  22.520  13.061
10743W        W76003   8.269   0.449  14.707
10744W        W76004  22.254  28.565   0.315
10745W        W76005  16.217  41.072  14.518
10746W        W76006   8.460  12.277   1.698
10747W        W76007  22.483  38.333  11.163
10748W        W76008  41.384  20.878   2.610
10749W        W76009  25.357   4.173   1.754
10750W        W76010  38.466  37.136   2.889
10751W        W76011  20.980  13.702   1.144
10752W        W76012  29.163  27.922   1.849
10753W        W76013   7.177  32.299  10.740
10754W        W76014  10.276  31.560   4.481
10755W        W76015  40.023  19.039  12.943
10756W        W76016  22.921  26.049  11.965
10757W        W76017  33.606  21.256   1.738
10758W        W76018   2.252  24.048  12.562
10759W        W76019  33.825  36.590   1.764
10760W        W76020  34.544   5.176  13.767
10761W        W76021  13.666  35.745   2.350
10762W        W76022  26.555   3.978  10.935
10763W        W76023  13.233  18.593   4.910
10764W        W76024  14.557  19.951  10.668
10765W        W76025   6.260  19.253  12.553
10766W        W76026  30.139  21.813  11.164
10767W        W76027  38.955  44.729   0.275
10768W        W76028  13.658  12.162   3.706
10769W        W76029  20.790   6.805  12.393
10770W        W76030  23.897  43.706   0.252
10771W        W76031  12.051  27.938   3.491
10772W        W76032  32.593   3.869  11.240
10773W        W76033  39.776  42.378  12.091
10774W        W76034  33.127  15.797   1.242
10775W        W76035  14.480  15.373   0.268
10776W        W76036  25.730  38.623   1.343
10777W        W76037  29.565  11.678   2.349
10778W        W76038  42.399  40.296   3.704
10779W        W76039  25.344   4.706  13.073
10780W        W76040  22.237  27.046   2.383
10781W        W76041  16.776  34.128  13.540
10782W        W76042   7.375  21.285  10.647
10783W        W76043  32.133  43.199  11.531
10784W        W76044  32.381  43.332   2.274
10785W        W76045   9.904  44.022   4.658
10786W        W76046   1.366   7.625   3.558
10787W        W76047   7.904  41.565  10.077
10788W        W76048  32.405  24.191  12.529
10789W        W76049   4.321  41.900   4.582
10790W        W76050  12.898  27.806   9.963
10791W        W76051   9.158  41.137   1.643
10792W        W76052   3.720  24.994  13.736
10793W        W76053  26.087  18.616  12.158
10794W        W76054  34.013  39.036  11.640
10795W        W76055  26.755  30.638   1.465
10796W        W76056  16.175  31.879   1.780
10797W        W76057  25.935  25.439  13.481
10798W        W76058   6.220  30.110  11.032
10799W        W76059  27.178   2.155  13.408
10800W        W76060  29.054  39.505   2.866
10801W        W76061   4.495   6.796  14.507
10802W        W76062  37.080  12.655   0.266
10803W        W76063  14.647  23.018  13.856
10804W        W76064  32.009   3.734   0.885
10805W        W76065   5.429  14.348  14.901
10806W        W76066  44.938   5.432  14.922
10807W        W76067  14.047  26.082   2.382
10808W        W76068  34.929  15.527  14.073
10809W        W76069  28.268  19.378  13.837
10810W        W76070  23.622   1.696   1.259
10811W        W76071  31.717  12.393   0.246
10812W        W76072  23.613   9.201  13.574
10813W        W76073  43.910  42.340   4.015
10814W        W76074  36.990  18.415   1.470
10815W        W76075  25.748  42.192  10.881
10816W        W76076  31.906  25.011  10.753
10817W        W76077   3.361  39.554   3.730
10818W        W76078  26.677  15.731   2.676
10819W        W76079  41.842  31.927   1.219
10820W        W76080  26.621   7.332   4.245
10821W        W76081  28.617  18.831   2.700
10822W        W76082  30.555  16.669  12.032
10823W        W76083   1.210  24.306  11.636
10824W        W76084  20.227  11.866   0.509
10825W        W76085  35.932  40.793   4.181
10826W        W76086   5.472  11.199   3.680
10827W        W76087  28.507  32.092  10.617
10828W        W76088  40.685  36.523   0.804
10829W        W76089  23.724  22.770   0.970
10830W        W76090  17.240   9.666   4.122
10831W        W76091  43.539   9.249   0.274
10832W        W76092  44.264   9.812   1.561
10833W        W76093  10.962  23.775  13.158
10834W        W76094  41.104  38.353  10.552
10835W        W76095  26.781  24.656   2.210
10836W        W76096  27.657  24.177   2.609
10837W        W76097  30.201  41.051   4.131
10838W        W76098  29.120  25.995  10.777
10839W        W76099   0.604  13.037   5.315
10840W        W76100   0.837  12.120   1.859
10841W        W76101  37.868  35.936  12.415
10842W        W76102  41.010  17.297  12.510
10843W        W76103  23.597   8.423  14.020
10844W        W76104   5.722  44.915   3.698
10845W        W76105  33.410   3.202  14.443
10846W        W76106  32.473  40.964  11.115
10847W        W76107   1.357   8.951  14.366
10848W        W76108  21.527   8.944   4.946
10849W        W76109  23.740  29.445   1.893
10850W        W76110  19.833  32.404  13.412
10851W        W76111   1.220  44.384   3.261
10852W        W76112  39.523  19.329   5.053
10853W        W76113  12.179  18.192   3.263
10854W        W76114   1.021  15.375   1.239
10855W        W76115  24.533  32.556  11.954
10856W        W76116  20.799  36.161   1.063
10857W        W76117  17.613  14.352   3.714
10858W        W76118  31.916  38.632  14.337
10859W        W76119  37.542  42.063  11.683
10860W        W76120  42.236   5.445   1.006
10861W        W76121  38.998  44.067   1.646
10862W        W76122  31.339  25.330   1.349
10863W        W76123   4.991  10.878  12.431
10864W        W76124  13.324  25.814  14.922
10865W        W76125  28.604   1.486   3.627
10866W        W76126  30.594  21.471   3.619
10867W        W76127  19.311  28.830  10.971
10868W        W76128  13.531  21.973   4.198
10869W        W76129  29.962  24.671  11.658
10870W        W76130   7.305  23.771  13.610
10871W        W76131  37.549  40.027   3.284
10872W        W76132  36.876  38.835  12.627
10873W        W76133  39.417  41.027  13.579
10874W        W76134  16.348  12.168  14.739
10875W        W76135  30.508  40.448  10.672
10876W        W76136  22.116  41.292  12.833
10877W        W76137  35.872  36.186  12.049
10878W        W76138  44.526  27.019   1.613
10879W        W76139  37.389  21.904   1.397
10880W        W76140  35.362  23.071  13.941
10881W        W76141  37.028  39.750  13.836
10882W        W76142  14.293  36.679  11.166
10883W        W76143  20.572  42.555  12.219
10884W        W76144  42.311   3.468   0.846
10885W        W76145   7.055  42.440  12.477
10886W        W76146  30.990  28.641   1.896
10887W        W76147  24.490  27.406   0.393
10888W        W76148  28.679  33.025  14.779
10889W        W76149  25.116  39.963  13.931
10890W        W76150   9.334   6.729   9.737
10891W        W76151  15.560  24.201   2.337
10892W        W76152   3.355  34.697  13.130
10893W        W76153  10.352   8.764   2.462
10894W        W76154  23.448  19.859  12.991
10895W        W76155   7.123  39.353  12.408
10896W        W76156  38.359  33.584  12.599
10897W        W76157   8.827  40.683   4.631
10898W        W76158  32.327  19.241  12.095
10899W        W76159  42.348  40.093  12.540
10900W        W76160  31.550  42.078   3.929
10901W        W76161   0.795  33.345   3.573
10902W        W76162  22.611   2.976   2.570
10903W        W76163   9.434  12.222  14.291
10904W        W76164  31.789  40.859  11.845
10905W        W76165   2.262  44.946  12.114
10906W        W76166  15.674  39.115  11.192
10907W        W76167   5.256   7.258  13.821
10908W        W76168  39.740   3.202   1.491
10909W        W76169  34.331  34.067  14.273
10910W        W76170  23.938  30.796   4.161
10911W        W76171  42.422  42.999  11.458
10912W        W76172  28.419  16.552   2.182
10913W        W76173  37.377  22.782  14.875
10914W        W76174   0.525  33.959   1.330
10915W        W76175  34.290  11.702  10.429
10916W        W76176  17.707   9.777   2.371
10917W        W76177  44.232  42.887  14.551
10918W        W76178   8.323  40.979  14.141
10919W        W76179  32.966   0.879   1.515
10920W        W76180   0.874  26.424   1.240
10921W        W76181  30.169  35.345  14.553
10922W        W76182   8.665  22.624   0.888
10923W        W76183  28.945  41.443   2.120
10924W        W76184  43.813   2.344   0.659
10925W        W76185   7.597   7.843   3.430
10926W        W76186   0.696  32.923   2.446
10927W        W76187  40.134  44.508  11.001
10928W        W76188  29.011   3.982  13.827
10929W        W76189  11.309  19.224   2.903
10930W        W76190  33.314  30.117   9.881
10931W        W76191  29.338  35.302   2.851
10932W        W76192  15.890  19.325   5.274
10933W        W76193  42.559  19.227  13.135
10934W        W76194   8.251  11.330  14.923
10935W        W76195  14.357  42.710  13.002
10936W        W76196  17.250  23.909  12.370
10937W        W76197  26.319  37.051  14.449
10938W        W76198  27.916  29.458   5.026
10939W        W76199  38.952  15.846  12.481
10940W        W76200  14.152  38.269  11.987
10941W        W76201  37.058  39.040   4.637
10942W        W76202  24.035  16.266  13.323
10943W        W76203  17.853  27.777   0.945
10944W        W76204  17.369  30.074   2.777
10945W        W76205  28.614   8.151  14.060
10946W        W76206  43.478  36.383  12.484
10947W        W76207   7.163  39.544   4.718
10948W        W76208  16.279  40.319  11.225
10949W        W76209  33.934  41.027   2.663
10950W        W76210   6.663  38.003  10.723
10951W        W76211  19.237   9.273   2.875
10952W        W76212  39.334   8.889  12.161
10953W        W76213  28.106  17.868   3.657
10954W        W76214  40.766  17.261   0.316
10955W        W76215  19.693  10.940  11.573
10956W        W76216  19.447  44.429  13.824
10957W        W76217  18.700   8.656  12.932
10958W        W76218  10.273  38.131  12.998
10959W        W76219  28.759   7.233   1.738
10960W        W76220  34.259  43.585  12.480
10961W        W76221  35.315  23.312   0.685
10962W        W76222   6.360  23.049   1.868
10963W        W76223  36.002   5.807  13.276
10964W        W76224  41.097  33.649  13.914
10965W        W76225  27.036   5.142  12.363
10966W        W76226  42.388  26.951   0.837
10967W        W76227  39.778  38.242  14.034
10968W        W76228  42.187  44.945   0.242
10969W        W76229  23.556  10.199  11.477
10970W        W76230  20.897  17.109   2.443
10971W        W76231  23.100  30.701   3.636
10972W        W76232  44.862  42.015   3.158
10973W        W76233  42.856  14.864   1.831
10974W        W76234  16.704   9.773  14.889
10975W        W76235   9.833  19.384  10.453
10976W        W76236  30.627   7.262  12.190
10977W        W76237   4.446  41.299   2.674
10978W        W76238   4.994  18.301   4.451
10979W        W76239  26.607  37.098   9.747
10980W        W76240  22.736  30.996   4.900
10981W        W76241  40.873  16.692  11.002
10982W        W76242   8.657  40.380   0.223
10983W        W76243  39.296   8.618  11.418
10984W        W76244  10.791  33.667   3.731
10985W        W76245   8.965  21.088  12.543
10986W        W76246  33.422  13.631   4.331
10987W        W76247   1.834  14.579   4.524
10988W        W76248  11.380  16.745   2.643
10989W        W76249   8.250   4.765   3.071
10990W        W76250   5.733  40.790   0.316
10991W        W76251   0.688  42.204   3.705
10992W        W76252  44.706   2.417  13.541
10993W        W76253  34.590  29.052   0.822
10994W        W76254   0.362  23.357  13.809
10995W        W76255  13.599  33.629  12.989
10996W        W76256  30.366  32.446  14.352
10997W        W76257  33.332  35.214   2.231
10998W        W76258  15.916  15.014   3.133
10999W        W76259  25.949  42.273   1.266
11000W        W76260  32.527   7.842   2.917
11001W        W76261   0.905   0.729   4.551
11002W        W76262  26.913   8.878  13.878
11003W        W76263  29.238  37.922   1.523
11004W        W76264  42.525  36.039   4.052
11005W        W76265  44.405  10.872   1.336
11006W        W76266  25.256  23.575   3.236
11007W        W76267   6.802   0.437  13.943
11008W        W76268   7.836  39.171  12.900
11009W        W76269   2.496  29.211  12.547
11010W        W76270  36.976  28.950  10.531
11011W        W76271  20.021  23.121   1.174
11012W        W76272  26.165   9.341  13.559
11013W        W76273  30.150  20.269  14.425
11014W        W76274  21.411  44.785   1.262
11015W        W76275  26.940   6.426  11.593
11016W        W76276  33.387  22.958   4.517
11017W        W76277  34.725  12.699  12.835
11018W        W76278  27.533  17.100   2.248
11019W        W76279  30.152  40.718  14.969
11020W        W76280  26.945  36.676   5.568
11021W        W76281  16.604  30.909   3.165
11022W        W76282  28.558   4.017  12.171
11023W        W76283  18.686  10.142  14.451
11024W        W76284  27.066  20.198   2.346
11025W        W76285   3.892  30.566   3.192
11026W        W76286   7.592  43.762  12.857
11027W        W76287  26.060   4.172  11.179
11028W        W76288  16.818  26.613  10.965
11029W        W76289  42.208  36.354   3.752
11030W        W76290  32.490  44.191  13.348
11031W        W76291  37.348  43.288  13.022
11032W        W76292  32.534  44.500  12.372
11033W        W76293  36.116  31.803  12.091
11034W        W76294  38.013  20.974   4.565
11035W        W76295   5.504  20.951  11.070
11036W        W76296  38.051  43.315  11.978
11037W        W76297  43.732  27.660  14.989
11038W        W76298   9.827  17.654  11.884
11039W        W76299  13.281  37.990  11.561
11040W        W76300  36.516  35.625  10.567
11041W        W76301  16.987  32.491   3.869
11042W        W76302  27.083  12.305  14.627
11043W        W76303   8.573   0.843   1.547
11044W        W76304  16.562  13.955   3.209
11045W        W76305  41.655   3.198   1.529
11046W        W76306  27.665  20.608  12.141
11047W        W76307  28.615  30.698   3.128
11048W        W76308   4.331  28.069   4.547
11049W        W76309   8.393  19.997   3.186
11050W        W76310  34.146  26.462  11.160
11051W        W76311  35.631   8.768  13.314
11052W        W76312  16.933  11.727  12.696
11053W        W76313  11.462   2.875  12.529
11054W        W76314  43.241  35.863  11.634
11055W        W76315  19.064  17.525   0.351
11056W        W76316  27.129  32.242  12.506
11057W        W76317   0.413  15.776   4.964
11058W        W76318  13.036  37.551   3.583
11059W        W76319  38.262  14.271   1.660
11060W        W76320  21.462  30.875  14.340
11061W        W76321  24.280  19.844  12.486
11062W        W76322  16.871   5.367  13.427
11063W        W76323   0.869   4.766   1.273
11064W        W76324  25.421  39.300  11.043
11065W        W76325  15.703  41.433   2.799
11066W        W76326  40.570   6.722  11.802
11067W        W76327  40.322   0.982  10.744
11068W        W76328  18.860  23.742   3.799
11069W        W76329  37.432  28.471   0.444
11070W        W76330  22.311  35.330  11.997
11071W        W76331  14.678   7.490   4.642
11072W        W76332  26.656  19.290  11.197
11073W        W76333  35.998  26.880   2.188
11074W        W76334  40.783   3.538   4.082
11075W        W76335   2.160  43.136  12.994
11076W        W76336  34.655  15.584   1.299
11077W        W76337  10.139  32.643   3.199
11078W        W76338  33.893  44.319   4.611
11079W        W76339  38.441  20.058  12.599
11080W        W76340  12.713   8.092  11.562
11081W        W76341  40.922  15.258  14.421
11082W        W76342  34.484  28.954  14.746
11083W        W76343  20.819  36.486  14.816
11084W        W76344  23.433   2.053  10.222
11085W        W76345  43.196   7.928   3.247
11086W        W76346  15.991  30.185   1.640
11087W        W76347  29.138  36.489  14.941
11088W        W76348  21.775  24.098  11.253
11089W        W76349  26.011  20.742   1.663
11090W        W76350  38.848  39.396   4.338
11091W        W76351  24.213  39.644  11.492
11092W        W76352  12.401  42.946   0.850
11093W        W76353   6.926  22.211  10.510
11094W        W76354  15.575  37.777   1.237
11095W        W76355   1.864  26.669   4.481
11096W        W76356   6.054  13.603   1.222
11097W        W76357   8.916  40.381  11.387
11098W        W76358  13.318   4.899  11.598
11099W        W76359  41.767  26.546   4.189
11100W        W76360  37.972  32.966   4.260
11101W        W76361  31.180  17.655  14.855
11102W        W76362   1.858  11.452   0.392
11103W        W76363  38.957   4.419   3.859
11104W        W76364  23.728  26.494   0.208
11105W        W76365  35.302  25.872   0.169
11106W        W76366  41.603  11.602   1.209
11107W        W76367  43.821  40.623   3.812
11108W        W76368  35.908   5.282  10.865
11109W        W76369  40.047  19.527  14.868
11110W        W76370  17.124  14.312   4.113
11111W        W76371   7.687   8.379  13.283
11112W        W76372  38.086  16.126  12.574
11113W        W76373  13.263  26.351  11.908
11114W        W76374  22.225  12.256   1.363
11115W        W76375   7.740  41.278   3.749
11116W        W76376  25.549  27.999   4.194
11117W        W76377   8.290  14.344  12.613
11118W        W76378   7.301  44.452  13.004
11119W        W76379  41.252   2.411   9.796
11120W        W76380  15.635  26.508  12.118
11121W        W76381  23.139  14.074   1.760
11122W        W76382  39.778   9.210   3.757
11123W        W76383   7.207  43.407   2.112
11124W        W76384  39.945  35.319  14.724
11125W        W76385  23.112   0.597   3.150
11126W        W76386  41.998   1.329  12.793
11127W        W76387   1.954   4.378  10.693
11128W        W76388  43.265  27.153  13.927
11129W        W76389  42.291  23.204  13.075
11130W        W76390  20.948  23.159   1.001
11131W        W76391  24.430  33.466  11.158
11132W        W76392   0.956  22.567   2.833
11133W        W76393  34.118   5.688  12.584
11134W        W76394  24.632  14.177   1.755
11135W        W76395   8.256  11.892   3.473
11136W        W76396  13.779   0.389   3.733
11137W        W76397  16.893  21.814   3.184
11138W        W76398   4.144  17.652   1.900
11139W        W76399  34.586   6.987  11.180
11140W        W76400  29.508  22.077   0.329
11141W        W76401  16.161   1.959  13.252
11142W        W76402  23.668   0.965   0.409
11143W        W76403  37.164   5.903  11.926
11144W        W76404  17.551  28.356   1.608
11145W        W76405  12.191   8.047  11.785
11146W        W76406  15.472  13.569  13.440
11147W        W76407  12.308  24.777  12.362
11148W        W76408  15.938  24.526   2.522
11149W        W76409  32.667  34.579  10.973
11150W        W76410  12.667  37.949   0.296
11151W        W76411  12.863   9.660   2.106
11152W        W76412  19.152  37.805   0.447
11153W        W76413   6.473   2.460   0.846
11154W        W76414  43.513  42.328   3.658
11155W        W76415  16.778  40.462   4.299
11156W        W76416  12.362  27.122  10.236
11157W        W76417  27.005  43.341   2.257
11158W        W76418   5.817  23.032  10.731
11159W        W76419  38.278  26.093  14.808
11160W        W76420   6.185   3.476   1.106
11161W        W76421   0.590  32.957   3.245
11162W        W76422  16.312  26.377  13.598
11163W        W76423  12.643  36.662   1.716
11164W        W76424   4.028   9.697   4.526
11165W        W76425  30.066  18.113  13.707
11166W        W76426   0.954  32.747   4.192
11167W        W76427   3.652  40.444   4.155
11168W        W76428  12.724  35.740   3.633
11169W        W76429   9.461  33.920   0.977
11170W        W76430  40.986   5.338   0.250
11171W        W76431  29.761   8.758  12.911
11172W        W76432   8.689  30.806   3.233
11173W        W76433  29.085   4.726   1.767
11174W        W76434   7.895  12.179  10.552
11175W        W76435  32.037   7.394   1.730
11176W        W76436  29.485  34.895   3.718
11177W        W76437  18.878  12.139   2.172
11178W        W76438  19.653  30.707   4.010
11179W        W76439  11.863   9.356   4.998
11180W        W76440   5.833  15.192   0.353
11181W        W76441  43.969   8.669   2.059
11182W        W76442   4.554  25.994   5.098
11183W        W76443  35.115  40.996  14.967
11184W        W76444   8.707  33.173   0.776
11185W        W76445  30.009  26.116  13.434
11186W        W76446  17.119   6.674  11.159
11187W        W76447  36.723   5.923   2.796
11188W        W76448  35.410   7.654   3.205
11189W        W76449  32.568  39.892  11.261
11190W        W76450  43.490  38.463   4.402
11191W        W76451  32.907  42.452   3.211
11192W        W76452  32.832  34.977  14.691
11193W        W76453   3.433  11.058  14.097
11194W        W76454  35.112  38.912  12.864
11195W        W76455  41.149  22.661  13.502
11196W        W76456   7.136   0.324  11.161
11197W        W76457  43.443  20.294   3.785
11198W        W76458  44.476  15.988  11.377
11199W        W76459  44.699   2.565   0.906
11200W        W76460  36.987  28.707  14.379
11201W        W76461  44.261  36.112   2.396
11202W        W76462  24.363   6.931   3.363
11203W        W76463   0.210  32.409  14.604
11204W        W76464  20.614   1.954   1.440
11205W        W76465  36.122  21.573  11.226
11206W        W76466  14.018  39.015   2.453
11207W        W76467  21.642   4.832  13.188
11208W        W76468  15.481   1.331  11.577
11209W        W76469  40.234  19.036  14.230
11210W        W76470   8.008  20.696  10.638
11211W        W76471   9.387  33.529   1.867
11212W        W76472  23.646  15.891   3.596
11213W        W76473  28.252  38.902   4.769
11214W        W76474  19.344  40.342  14.297
11215W        W76475  11.433  13.112  11.059
11216W        W76476   1.963   7.563  12.571
11217W        W76477  27.749  34.644   1.231
11218W        W76478  30.450  31.675   1.724
11219W        W76479  44.431  30.724  13.533
11220W        W76480  25.077  31.097  10.630
11221W        W76481  20.289  42.471  13.061
11222W        W76482  12.264  40.446  10.702
11223W        W76483   9.813   8.769   2.432
11224W        W76484  18.636   7.167  13.992
11225W        W76485  14.848  23.971  14.781
11226W        W76486  33.544  34.356  13.131
11227W        W76487   9.692  31.618  11.981
11228W        W76488  35.616  13.371  14.363
11229W        W76489  27.509  30.547   0.087
11230W        W76490  26.890  41.774   4.498
11231W        W76491  28.070  13.376  10.971
11232W        W76492  28.700   8.065   2.332
11233W        W76493  42.754  38.422   3.133
11234W        W76494   6.583   3.915   0.321
11235W        W76495   6.157  16.741  13.013
11236W        W76496  28.755  41.336   1.091
11237W        W76497  36.034  22.341  14.823
11238W        W76498   3.792  19.294   0.455
11239W        W76499  42.833   6.298  13.018
11240W        W76500  39.307  28.981   0.347
11241W        W76501  23.851  14.197  11.441
11242W        W76502   4.554  10.014   3.490
11243W        W76503   4.213  42.564   4.288
11244W        W76504   9.331   7.092   3.267
11245W        W76505  23.164  35.505   3.250
11246W        W76506  22.019  11.603   2.150
11247W        W76507  35.101  28.194   3.140
11248W        W76508   9.113   3.541   0.673
11249W        W76509  18.642   8.609  13.806
11250W        W76510   8.256  37.696   3.596
11251W        W76511  10.870  43.470  13.357
11252W        W76512  10.696   6.227   2.301
11253W        W76513  17.026  24.814  11.352
11254W        W76514  36.613  42.864   1.703
11255W        W76515  14.689  27.899  10.595
11256W        W76516  37.068  23.974  13.085
11257W        W76517  11.901  29.670  13.013
11258W        W76518  21.022  32.772  12.778
11259W        W76519   3.207   8.186  10.300
11260W        W76520  42.772   8.071   2.372
11261W        W76521  14.655  15.276   1.170
11262W        W76522  10.221   5.657  14.557
11263W        W76523  11.683  12.820   3.146
11264W        W76524  32.855   0.822   0.169
11265W        W76525  16.057  41.970   1.779
11266W        W76526  41.964   3.208  10.261
11267W        W76527  17.858  36.893  12.696
11268W        W76528  42.494   3.765   4.212
11269W        W76529   8.625  28.488  12.030
11270W        W76530   4.240   4.923  11.595
11271W        W76531   2.065  12.798  14.355
11272W        W76532   6.758  38.568   0.811
11273W        W76533  29.891  21.636  14.509
11274W        W76534  20.080  28.703   4.680
11275W        W76535  21.774   6.018   0.271
11276W        W76536   7.432  26.065  11.453
11277W        W76537  24.179  20.497   3.724
11278W        W76538  19.186  24.785  12.512
11279W        W76539  14.648   2.012   0.709
11280W        W76540  40.019   2.399  13.516
11281W        W76541   3.366   7.842   1.231
11282W        W76542  44.778  30.530  10.695
11283W        W76543   6.579  27.767  11.249
11284W        W76544  16.550  25.025  10.565
11285W        W76545   9.281  22.534  13.486
11286W        W76546  27.104  34.744   2.332
11287W        W76547  44.277  25.705   4.784
11288W        W76548   9.874  17.431  10.446
11289W        W76549  14.889  25.972  14.004
11290W        W76550   4.139  29.919   0.868
11291W        W76551  13.830  38.108  11.620
11292W        W76552   1.895  38.642   4.483
11293W        W76553   7.002  19.228   2.770
11294W        W76554  14.218   2.467  11.530
11295W        W76555  13.763   0.749   2.390
11296W        W76556  39.063  15.343  12.473
11297W        W76557  15.280   6.920   1.346
11298W        W76558  14.795  27.068   1.369
11299W        W76559  33.871  21.165  14.526
11300W        W76560  20.048  38.398   3.801
11301W        W76561  30.131  30.435   0.281
11302W        W76562  18.682  20.528  13.924
11303W        W76563   5.193  28.935  13.909
11304W        W76564  17.244  16.066  10.487
11305W        W76565   8.714  41.353  14.348
11306W        W76566  43.484  24.793  12.484
11307W        W76567  37.484  36.127  11.138
11308W        W76568   6.921  41.382   3.743
11309W        W76569  37.282  32.893   2.709
11310W        W76570  28.026  23.783   3.261
11311W        W76571  38.445   7.165   4.581
11312W        W76572  44.829  11.002   2.442
11313W        W76573  12.970  16.364   1.669
11314W        W76574   1.475  41.931   0.295
11315W        W76575  22.927  10.664   2.574
11316W        W76576   1.458  12.388   0.302
11317W        W76577  27.176  24.788  11.394
11318W        W76578  29.892   3.707   0.328
11319W        W76579  42.104  28.123   0.315
11320W        W76580  12.697   6.144   0.459
11321W        W76581   9.604  25.580  13.555
11322W        W76582  20.003   5.726   0.808
11323W        W76583  21.991  34.898  13.326
11324W        W76584  10.376  40.431   0.911
11325W        W76585   8.204  22.439  11.002
11326W        W76586  37.591  19.984   3.312
11327W        W76587   3.327  34.925   4.027
11328W        W76588  18.504  13.188  13.887
11329W        W76589  43.051  26.703  11.495
11330W        W76590  34.886  32.996   1.999
11331W        W76591  33.544   1.891   4.605
11332W        W76592  28.471   2.405  11.861
11333W        W76593  14.755  18.733   0.777
11334W        W76594  17.769  20.748  10.977
11335W        W76595   8.683  41.877   0.891
11336W        W76596   3.451  38.478  14.001
11337W        W76597  31.466  30.247   0.822
11338W        W76598  38.698  11.701   0.971
11339W        W76599  41.039  35.505   0.384
11340W        W76600  36.879   4.905   4.484
11341W        W76601   0.491  31.176   0.298
11342W        W76602  37.821  18.396   1.381
11343W        W76603  15.983  16.796  12.086
11344W        W76604  34.083  35.338  12.507
11345W        W76605  26.479  27.980   1.179
11346W        W76606   1.012   8.202  13.992
11347W        W76607  18.243  22.292  12.537
11348W        W76608  13.071   4.662   1.884
11349W        W76609  21.521  21.433  14.972
11350W        W76610  17.245  42.811  10.414
11351W        W76611  28.160   1.750   3.613
11352W        W76612  35.567  30.417  10.496
11353W        W76613  44.410  10.342   2.833
11354W        W76614  32.865   6.150   0.464
11355W        W76615   0.412  30.468   4.778
11356W        W76616  15.202   1.265   0.769
11357W        W76617  14.209   1.473   2.915
11358W        W76618  28.554  21.169   1.802
11359W        W76619  23.650  24.111  10.578
11360W        W76620  14.205  31.893   1.113
11361W        W76621  15.226  34.578  12.949
11362W        W76622  39.055  33.380   0.315
11363W        W76623  28.369  41.467  13.183
11364W        W76624  39.091  26.950   2.153
11365W        W76625  37.917  40.595  14.371
11366W        W76626  14.774  41.896  10.622
11367W        W76627  20.065  36.393  13.046
11368W        W76628  27.585   2.974   4.526
11369W        W76629  31.981   8.820  12.488
11370W        W76630  32.069  40.043  11.224
11371W        W76631  14.091  17.516  10.553
11372W        W76632  23.217  10.112  14.168
11373W        W76633  36.600  26.347   3.432
11374W        W76634  41.860  27.968  14.873
11375W        W76635  21.602   1.229  10.706
11376W        W76636   0.398   4.444  14.493
11377W        W76637  38.318  35.447  12.823
11378W        W76638  21.637  20.199  12.177
11379W        W76639  35.009  42.748   0.935
11380W        W76640   4.845  32.240   2.917
11381W        W76641  20.110   4.876   1.956
11382W        W76642   6.386  32.930   1.705
11383W        W76643  20.011   3.310  14.425
11384W        W76644  42.414  14.201   5.504
11385W        W76645  15.082  42.044   3.388
11386W        W76646  43.766  28.181   3.692
11387W        W76647  20.580   9.231  11.451
11388W        W76648  12.400  41.236   2.699
11389W        W76649  13.263  16.560   4.274
11390W        W76650  13.530  36.341   1.662
11391W        W76651  42.828  42.306  12.169
11392W        W76652  11.331  34.355   1.791
11393W        W76653   0.749  38.469  10.728
11394W        W76654  32.517  40.063  14.509
11395W        W76655  26.607  37.033  11.672
11396W        W76656  26.179  39.533  11.442
11397W        W76657  31.471  26.428   1.807
11398W        W76658  33.510  19.853  14.411
11399W        W76659  32.997  19.732  10.653
11400W        W76660  15.445   8.271   5.667
11401W        W76661   4.343  44.343   1.517
11402W        W76662  15.149  12.645  14.967
11403W        W76663   8.572  24.153   3.695
11404W        W76664  16.100  43.564  12.850
11405W        W76665  22.587  18.097   2.771
11406W        W76666   7.151  28.375  12.087
11407W        W76667  38.562   7.322  11.226
11408W        W76668  43.480  21.451   2.793
11409W        W76669   9.952   6.335   3.117
11410W        W76670  14.601  29.046   0.416
11411W        W76671  37.145  40.168   2.318
11412W        W76672  35.408  27.103  11.605
11413W        W76673  31.473  17.649  12.475
11414W        W76674   2.204  41.296  13.796
11415W        W76675  18.321   0.221  13.585
11416W        W76676   0.340  18.727  12.127
11417W        W76677  32.498   6.901  14.275
11418W        W76678  16.089  16.752  13.169
11419W        W76679  41.598  11.594  14.938
11420W        W76680  34.532  17.609  14.409
11421W        W76681  10.172  21.440   3.189
11422W        W76682  42.017   8.729   2.831
11423W        W76683  35.074  29.876   3.634
11424W        W76684  34.593  34.928   0.151
11425W        W76685   2.311  10.096  12.377
11426W        W76686  13.840  18.868  13.169
11427W        W76687  19.150  24.672  14.875
11428W        W76688  35.021  28.768   0.225
11429W        W76689  31.375  16.081   3.297
11430W        W76690   5.811  39.635   3.208
11431W        W76691  22.692  37.437  11.282
11432W        W76692   6.921   2.064  13.430
11433W        W76693   3.172  29.912  12.088
11434W        W76694   8.916   2.624  14.587
11435W        W76695  28.512  26.557  11.741
11436W        W76696  41.484  37.794  11.950
11437W        W76697  22.488   0.759  11.983
11438W        W76698  34.856   3.320  10.684
11439W        W76699   8.965   8.729  14.492
11440W        W76700   0.138   9.570   1.420
11441W        W76701  26.287   8.586  12.003
11442W        W76702  32.301  39.550  12.898
11443W        W76703   7.854  38.707   4.066
11444W        W76704  21.173  15.225   1.807
11445W        W76705  11.685   5.721   0.466
11446W        W76706  36.757  21.610  11.501
11447W        W76707  34.522  18.284  13.557
11448W        W76708  37.446  40.290   0.451
11449W        W76709   1.472  16.520  12.966
11450W        W76710   6.478  43.425   2.822
11451W        W76711  42.610  29.655  13.669
11452W        W76712  31.699  29.305  11.130
11453W        W76713  18.167  17.167   4.551
11454W        W76714  22.115  17.239   3.709
11455W        W76715  24.684  14.824  12.603
11456W        W76716  44.921  21.857   3.840
11457W        W76717  31.764  32.046   2.065
11458W        W76718  38.734  40.611   2.747
11459W        W76719  38.791  12.628   0.970
11460W        W76720   2.343  42.543   1.417
11461W        W76721  32.648   4.495  14.155
11462W        W76722  18.493  26.446   0.292
11463W        W76723  23.502  39.031  13.285
11464W        W76724  32.232  34.540  11.299
11465W        W76725  19.832  39.012  11.509
11466W        W76726  35.541  35.115  14.551
11467W        W76727  33.433  39.661  14.290
11468W        W76728  34.938  33.550  12.807
11469W        W76729  33.976  22.501   0.809
11470W        W76730   3.796  41.385   3.172
11471W        W76731   5.654   6.311   1.513
11472W        W76732  33.193  40.091   3.154
11473W        W76733  42.415  37.910  13.213
11474W        W76734  37.135  22.652  11.229
11475W        W76735  29.269  43.041  14.339
11476W        W76736  26.765  11.852  12.123
11477W        W76737   4.982  43.538   4.529
11478W        W76738  18.758  16.671   3.256
11479W        W76739  27.195  16.542  14.241
11480W        W76740  11.832  34.032  11.814
11481W        W76741  11.780   6.413   3.359
11482W        W76742  41.837  38.944   1.615
11483W        W76743  27.575  24.530  11.240
11484W        W76744   6.376  42.265  14.737
11485W        W76745  25.184  37.111   3.145
11486W        W76746  30.528  22.220   0.396
11487W        W76747  15.865  13.233  13.466
11488W        W76748   5.439  34.942  13.918
11489W        W76749   1.224   0.229   0.904
11490W        W76750  30.523  40.244  11.143
11491W        W76751  20.049   5.448   0.335
11492W        W76752  37.358  38.167   3.754
11493W        W76753   8.728   9.410  11.376
11494W        W76754  26.610  15.101   4.307
11495W        W76755   2.495  34.371  13.060
11496W        W76756  43.981  22.058   1.014
11497W        W76757  42.914   8.874  11.788
11498W        W76758  36.011  23.040   1.874
11499W        W76759  12.279   6.447   0.460
11500W        W76760  19.708   3.314   3.690
11501W        W76761  14.793  13.752  12.149
11502W        W76762  22.575  29.913   0.280
11503W        W76763   8.358  36.716   3.868
11504W        W76764  28.553   9.382  11.254
11505W        W76765  20.756  44.369   3.578
11506W        W76766  44.124  26.308  13.945
11507W        W76767  40.954  18.821  11.655
11508W        W76768  31.444  38.933   2.858
11509W        W76769  27.492  29.009  12.330
11510W        W76770  41.382  26.424   2.403
11511W        W76771  27.811  28.854  10.976
11512W        W76772  25.770  38.487  11.585
11513W        W76773   4.455  29.734  10.734
11514W        W76774  25.905  15.260  13.847
11515W        W76775  27.737   9.640   3.917
11516W        W76776  16.560  43.032   2.618
11517W        W76777   4.251   2.465   1.490
11518W        W76778  20.739   7.709  13.024
11519W        W76779  35.839  41.906   3.628
11520W        W76780  12.077  42.783  13.349
11521W        W76781  44.303  16.706   0.568
11522W        W76782  20.263  23.024   2.333
11523W        W76783  42.392  19.577   4.180
11524W        W76784  44.923  27.159  13.396
11525W        W76785  39.340  14.013  11.310
11526W        W76786  38.271  16.495  13.713
11527W        W76787  13.734   1.775   4.433
11528W        W76788   8.372  15.313   1.470
11529W        W76789  40.333  25.460   3.829
11530W        W76790  40.119  14.377  12.941
11531W        W76791  28.584   0.520   4.576
11532W        W76792  10.849  38.916   1.270
11533W        W76793  37.789   3.452  10.229
11534W        W76794  10.254  44.989   2.925
11535W        W76795  38.726  32.097   5.407
11536W        W76796  43.520  32.594   4.102
11537W        W76797   2.482  16.547   4.820
11538W        W76798  42.328  27.708  14.888
11539W        W76799   3.884  24.896   3.613
11540W        W76800  42.402  30.657   3.385
11541W        W76801  37.155   9.044   5.159
11542W        W76802  40.465  34.621  11.670
11543W        W76803   6.216  19.029  10.599
11544W        W76804  13.279  31.471   0.484
11545W        W76805  41.577  33.402  12.660
11546W        W76806  14.803  38.067   3.754
11547W        W76807  39.512  30.579  12.346
11548W        W76808  28.163  34.649   3.218
11549W        W76809  11.253  38.634   4.901
11550W        W76810  17.381   3.277  12.181
11551W        W76811  29.026  19.590   5.301
11552W        W76812  34.967   6.150   3.443
11553W        W76813  24.432  22.965   1.454
11554W        W76814   6.800   1.875  13.930
11555W        W76815  10.758  14.654   3.345
11556W        W76816  22.912  39.946   3.741
11557W        W76817  31.653   9.752  14.846
11558W        W76818  39.522  23.334   4.597
11559W        W76819  15.504  42.613   0.471
11560W        W76820  43.343  17.432  12.534
11561W        W76821  13.080  28.729  10.224
11562W        W76822  27.252  21.154   2.786
11563W        W76823   9.616   5.261   0.463
11564W        W76824  24.146  29.104  13.948
11565W        W76825  39.120   7.325  13.918
11566W        W76826   8.401  35.822   0.787
11567W        W76827  16.770  38.028  12.999
11568W        W76828   1.974  12.910  11.048
11569W        W76829  17.247  30.432  14.826
11570W        W76830  29.055  31.133  14.277
11571W        W76831  15.678   4.951   4.025
11572W        W76832  39.440   5.368  11.711
11573W        W76833  21.573  12.778  12.871
11574W        W76834  20.842  12.826   2.207
11575W        W76835  23.261   1.442  11.144
11576W        W76836  42.882  12.204   0.379
11577W        W76837  12.739  40.620  11.859
11578W        W76838  13.285   5.945   2.235
11579W        W76839  34.410  15.811  14.926
11580W        W76840   6.218  12.403   3.330
11581W        W76841  39.833  11.211   5.085
11582W        W76842  27.173  24.947  14.251
11583W        W76843   1.779  13.604   0.782
11584W        W76844  42.502  27.158  13.066
11585W        W76845  25.983  28.627   3.081
11586W        W76846  33.890  36.411  14.857
11587W        W76847  14.327   8.923   3.141
11588W        W76848  33.198   3.444  13.871
11589W        W76849  14.362  32.186  12.150
11590W        W76850  20.559  18.594  12.100
11591W        W76851  33.961   0.749  10.529
11592W        W76852  35.093   1.303  14.110
11593W        W76853  11.900   7.802  13.175
11594W        W76854  15.472  11.612   2.724
11595W        W76855   2.014  23.098  14.001
11596W        W76856   2.693   1.264  10.907
11597W        W76857   9.093  14.816   4.067
11598W        W76858  37.555  10.075   2.732
11599W        W76859  35.378  37.580  13.143
11600W        W76860  27.628  44.181   4.165
11601W        W76861  21.626  32.787   3.144
11602W        W76862  15.040   1.435  13.013
11603W        W76863   9.351  39.277   3.706
11604W        W76864  36.631   1.729   1.782
11605W        W76865  34.529  26.415  14.335
11606W        W76866   8.326  14.613  13.046
11607W        W76867   9.425   0.380  14.485
11608W        W76868  12.342  14.138   4.825
11609W        W76869  22.162  38.781  12.933
11610W        W76870  17.577  18.759   1.203
11611W        W76871  29.524  33.007   0.080
11612W        W76872   6.682  26.591   5.244
11613W        W76873  42.477  24.225  13.986
11614W        W76874  22.381  23.228  11.069
11615W        W76875  11.731  21.805   2.603
11616W        W76876  41.180   9.154   3.709
11617W        W76877  26.605   4.807  11.581
11618W        W76878  16.736  16.195  12.191
11619W        W76879  31.072  35.351  12.351
11620W        W76880  32.153  14.165   2.507
11621W        W76881  15.753   8.117  11.049
11622W        W76882  18.754  33.580  11.956
11623W        W76883  11.482   9.893  12.470
11624W        W76884  11.787  21.707   1.713
11625W        W76885  27.174  15.057  14.438
11626W        W76886  40.244  38.083  11.451
11627W        W76887  11.100  41.455  14.783
11628W        W76888  42.244  22.165  13.910
11629W        W76889  10.309  26.024   2.781
11630W        W76890  27.508  11.185   1.227
11631W        W76891   6.941  10.610  12.986
11632W        W76892  32.898  37.533   1.813
11633W        W76893   1.715  40.413  13.431
11634W        W76894   7.524  14.200   1.463
11635W        W76895  24.787   2.247  12.080
11636W        W76896   0.099  20.117  12.403
11637W        W76897  44.258   9.597  14.023
11638W        W76898   8.402   9.076  13.894
11639W        W76899  18.325  29.508  11.131
11640W        W76900   4.448  24.713  14.913
11641W        W76901  39.004  34.077   2.410
11642W        W76902  29.869  24.201  12.978
11643W        W76903  16.191  23.655  13.080
11644W        W76904  30.499  23.862   3.665
11645W        W76905   1.476  24.032   1.169
11646W        W76906  37.578   1.620  10.736
11647W        W76907  13.892  25.291   3.931
11648W        W76908   9.993   2.013  10.209
11649W        W76909  29.686  17.023   3.297
11650W        W76910  34.963  18.563  12.321
11651W        W76911   1.735  29.501   3.387
11652W        W76912  35.060   6.779   1.577
11653W        W76913  26.119   5.334   1.957
11654W        W76914  38.282  32.149   0.778
11655W        W76915  32.159  29.888  14.833
11656W        W76916  21.303  14.278   1.678
11657W        W76917  11.203  41.832   1.509
11658W        W76918  15.170  13.594  12.513
11659W        W76919  40.343  11.080   2.816
11660W        W76920  21.284   8.363   2.448
11661W        W76921  38.461  25.636  13.036
11662W        W76922  27.163  44.300  13.777
11663W        W76923  10.811  14.723  12.374
11664W        W76924   9.403  25.582  11.634
11665W        W76925  21.048  37.333   0.763
11666W        W76926  23.153  42.667   4.279
11667W        W76927   9.710  28.685   3.143
11668W        W76928  15.611  19.684   4.224
11669W        W76929  15.404   9.983   2.384
11670W        W76930  23.985   3.476  13.349
11671W        W76931   5.263  43.239  12.477
11672W        W76932  44.789  44.808  11.384
11673W        W76933  15.298  11.054   4.160
11674W        W76934   2.314  13.638   2.927
11675W        W76935   1.565  22.771   0.106
11676W        W76936   7.811  32.009   0.413
11677W        W76937  42.469  34.149   2.304
11678W        W76938  32.947  36.841  14.802
11679W        W76939  40.978  26.927  10.610
11680W        W76940  42.083  17.783  12.799
11681W        W76941  44.219  12.013  14.998
11682W        W76942   2.790  13.831   1.806
11683W        W76943  10.097   0.688  12.018
11684W        W76944  11.621  13.630   3.244
11685W        W76945  13.550  30.309  11.873
11686W        W76946  19.219  33.413   1.331
11687W        W76947   6.232  41.566  13.987
11688W        W76948   0.792   1.722  11.103
11689W        W76949   1.862  44.048  13.060
11690W        W76950   2.360   6.696  13.916
11691W        W76951  26.694  14.769  14.921
11692W        W76952  38.715   8.660  12.467
11693W        W76953  20.738  14.598  10.406
11694W        W76954  24.411  23.496  13.070
11695W        W76955  29.622  38.440  12.093
11696W        W76956  36.817  41.398   2.628
11697W        W76957  29.194  37.118   0.470
11698W        W76958  41.495   5.762   0.802
11699W        W76959  21.962  38.094  11.649
11700W        W76960  25.013  22.978   2.505
11701W        W76961  42.814   7.347  12.109
11702W        W76962  32.590  24.283   1.808
11703W        W76963  17.237  10.536   9.882
11704W        W76964  17.404  37.589  12.488
11705W        W76965  20.178  36.112  13.478
11706W        W76966  42.397  10.600  11.855
11707W        W76967  12.688   2.525   4.579
11708W        W76968  26.615   8.178  13.921
11709W        W76969   1.902  36.770  10.744
11710W        W76970  39.409  24.041  10.898
11711W        W76971  43.754   8.550  14.861
11712W        W76972  33.405  34.818   1.460
11713W        W76973  22.542  34.028   0.738
11714W        W76974  38.654  33.433  14.095
11715W        W76975   7.397  32.556   2.326
11716W        W76976   2.958  37.873   2.655
11717W        W76977  16.409   9.896   1.868
11718W        W76978  31.491  43.345   3.276
11719W        W76979  27.067  40.454   2.223
11720W        W76980  23.959  34.821  12.500
11721W        W76981  42.223  40.549  13.912
11722W        W76982   9.551   4.711  13.548
11723W        W76983  19.698  27.402  11.406
11724W        W76984  16.573  32.214   1.743
11725W        W76985  12.038   7.125   3.738
11726W        W76986  23.601  10.788  13.161
11727W        W76987  26.206  32.946   1.909
11728W        W76988  35.701  19.750   4.606
11729W        W76989  32.560  32.624   4.530
11730W        W76990  23.850  36.421  11.615
11731W        W76991  10.691  39.492   0.028
11732W        W76992  21.717  11.206   3.656
11733W        W76993  42.463  30.036  14.930
11734W        W76994   0.201  40.511  13.468
11735W        W76995  40.255  32.628   2.284
11736W        W76996  27.043   9.615   4.081
11737W        W76997  42.626  33.997   4.421
11738W        W76998  10.421  35.505   0.235
11739W        W76999  17.636  41.889  12.548
11740W        W77000   7.238   7.316   4.931
11741W        W77001  41.992   5.632   3.602
11742W        W77002  10.330  25.486  11.850
11743W        W77003  23.210  11.337   3.944
11744W        W77004  37.937  37.131   2.126
11745W        W77005  31.504  11.538   4.934
11746W        W77006  25.646   1.994   1.362
11747W        W77007  41.478  37.498   3.969
11748W        W77008   2.411  17.886  12.182
11749W        W77009   3.662  11.156   3.271
11750W        W77010   5.844  15.180   4.543
11751W        W77011  34.836  31.914  11.510
11752W        W77012  40.600  19.347  13.871
11753W        W77013  26.160  37.884   1.736
11754W        W77014   5.735   2.550   3.674
11755W        W77015  13.975  37.429   3.949
11756W        W77016  38.357  34.096  12.468
11757W        W77017   6.644  15.962  14.050
11758W        W77018  10.315   6.892  14.957
11759W        W77019  30.386  24.250  14.708
11760W        W77020  16.632   7.788   0.344
11761W        W77021  22.286  39.872  14.873
11762W        W77022  43.604  30.311  12.734
11763W        W77023   6.323  20.024   1.340
11764W        W77024  19.433  33.658  12.534
11765W        W77025  25.783  26.230   2.451
11766W        W77026  33.618  10.291  11.163
11767W        W77027   2.352   3.704  10.596
11768W        W77028   0.437  18.755  13.460
11769W        W77029  13.827   4.481   4.745
11770W        W77030   4.839   5.413   2.336
11771W        W77031  20.789  20.794  10.582
11772W        W77032   3.621  43.423  11.224
11773W        W77033  19.767  15.413  11.942
11774W        W77034  21.350  15.821  10.686
11775W        W77035  30.142  26.489   3.184
11776W        W77036  32.573   0.549  11.488
11777W        W77037   6.439  24.964   4.219
11778W        W77038  42.042   3.454  10.739
11779W        W77039  26.141   8.138  10.158
11780W        W77040  38.545   8.591   2.317
11781W        W77041   3.877  17.583   0.454
11782W        W77042  17.373  36.112   1.639
11783W        W77043   8.808  10.750   3.643
11784W        W77044  12.433  20.115   0.296
11785W        W77045  24.710  32.769   1.781
11786W        W77046   6.359  29.862  13.938
11787W        W77047   4.297  28.400  13.051
11788W        W77048  36.831   8.789  13.977
11789W        W77049  25.484  14.500   3.337
11790W        W77050  17.506  40.066  12.964
11791W        W77051  26.463  32.789  13.344
11792W        W77052  11.166  26.609   0.297
11793W        W77053  20.787  28.436   2.213
11794W        W77054  12.736  38.221  14.846
11795W        W77055  41.275  18.851  11.115
11796W        W77056  43.033  25.563   1.755
11797W        W77057  18.646  12.660   0.505
11798W        W77058   7.784  27.917   1.439
11799W        W77059  35.688  42.985  12.636
11800W        W77060  33.391   2.730  10.661
11801W        W77061  42.845  18.672   3.074
11802W        W77062  18.513   1.997   2.245
11803W        W77063  42.895  30.980   1.163
11804W        W77064   6.547  11.420   3.502
11805W        W77065  29.663  34.915   2.729
11806W        W77066  16.883  30.123   1.890
11807W        W77067  26.105  30.407   4.643
11808W        W77068   4.908  23.537   1.464
11809W        W77069  10.835  41.880  11.046
11810W        W77070  26.661  30.026   0.970
11811W        W77071  17.094  25.744  12.543
11812W        W77072  40.427  33.988   1.816
11813W        W77073   7.380  25.659   1.906
11814W        W77074  26.039  21.826  12.552
11815W        W77075  39.145  14.257   2.278
11816W        W77076  40.341  34.225   0.887
11817W        W77077  22.679  18.322   3.239
11818W        W77078   5.154  21.948  11.151
11819W        W77079  11.690   9.799   2.793
11820W        W77080  38.054  16.724   3.581
11821W        W77081  42.377  39.635  14.035
11822W        W77082   2.045  37.054   2.838
11823W        W77083  28.393  25.059  14.091
11824W        W77084   6.598  35.933  13.574
11825W        W77085  35.029  18.516  13.894
11826W        W77086  27.532   4.528   4.929
11827W        W77087  13.254  14.805   0.816
11828W        W77088  39.077   9.632  12.591
11829W        W77089  10.725  34.383   2.145
11830W        W77090  34.645  22.537  13.065
11831W        W77091   5.842  25.662   1.792
11832W        W77092  24.911  24.978   2.244
11833W        W77093  43.748  38.898  11.068
11834W        W77094  31.407  43.344  10.397
11835W        W77095   8.449   5.534   4.161
11836W        W77096   2.462  30.940   1.315
11837W        W77097  41.244   5.240   1.364
11838W        W77098   2.771  11.446   3.086
11839W        W77099  40.337  11.661   0.514
11840W        W77100  34.372  38.055  11.122
11841W        W77101  27.194  39.500  10.586
11842W        W77102  44.252   4.980  14.285
11843W        W77103   4.674   1.808   1.846
11844W        W77104   7.309  17.620   1.028
11845W        W77105  34.494  31.395   0.749
11846W        W77106  38.250  25.974   1.804
11847W        W77107   4.675  27.595   0.833
11848W        W77108  33.985  10.736  14.056
11849W        W77109   7.794  16.651   4.614
11850W        W77110  42.040  23.402  12.663
11851W        W77111  43.049  11.663   2.928
11852W        W77112  24.888  34.495   3.640
11853W        W77113  24.424  34.003   0.275
11854W        W77114  19.005  41.381  14.009
11855W        W77115  24.775  44.693   2.027
11856W        W77116   4.306  29.412   3.253
11857W        W77117   3.596   3.865   0.495
11858W        W77118   1.309  20.257  12.786
11859W        W77119   2.590  44.427  10.247
11860W        W77120   4.658  36.872   1.948
11861W        W77121  39.003  30.899   0.818
11862W        W77122  10.651  14.033   1.964
11863W        W77123  13.109  40.292   2.699
11864W        W77124  44.438  36.446   0.387
11865W        W77125  27.947  16.393   1.232
11866W        W77126  30.878  21.588  10.616
11867W        W77127   0.989  37.347   2.791
11868W        W77128  21.287  36.243  12.380
11869W        W77129  19.524   1.596  14.830
11870W        W77130   3.189   9.361  13.357
11871W        W77131  34.859  16.342   4.635
11872W        W77132  39.933  18.487  11.205
11873W        W77133  40.518  43.896   2.161
11874W        W77134  32.955  42.603  11.603
11875W        W77135  13.707  36.752  13.531
11876W        W77136   2.026  43.692  11.374
11877W        W77137  23.559  17.173   4.039
11878W        W77138  32.637   0.951  10.632
11879W        W77139  41.007  20.660  12.936
11880W        W77140  33.844  27.031   4.164
11881W        W77141   2.958  36.276   2.166
11882W        W77142   7.673  20.618  11.971
11883W        W77143  32.864   7.912   1.939
11884W        W77144  12.969   9.145   2.048
11885W        W77145   1.470  16.286  13.506
11886W        W77146   7.005  39.612  14.014
11887W        W77147  11.595  18.184  12.022
11888W        W77148  38.056  30.244   2.510
11889W        W77149  35.283  44.229   2.739
11890W        W77150  28.252   2.884   3.721
11891W        W77151   6.598  22.534   0.673
11892W        W77152   5.533  40.596   4.249
11893W        W77153  24.868   8.468   2.867
11894W        W77154  24.748   1.234   0.895
11895W        W77155  34.371  17.556   4.330
11896W        W77156   3.879  31.535  10.726
11897W        W77157   1.655  38.428   1.229
11898W        W77158  29.183  29.129  14.934
11899W        W77159  18.548  10.754   4.545
11900W        W77160  11.669  27.906  10.593
11901W        W77161  41.291  44.378   4.078
11902W        W77162  22.790  12.634  14.756
11903W        W77163  36.008  42.466  14.459
11904W        W77164  33.015  28.152   4.890
11905W        W77165  38.416  34.969  10.953
11906W        W77166  11.926  27.513   2.240
11907W        W77167  22.231  23.204  13.484
11908W        W77168   6.118  42.363  12.935
11909W        W77169  29.642  38.919   2.324
11910W        W77170  33.790  22.347   4.148
11911W        W77171  27.442  20.090  12.620
11912W        W77172  11.321  36.498   2.840
11913W        W77173  22.390   6.474   0.792
11914W        W77174   5.271  30.700   1.263
11915W        W77175  41.929   7.727  13.410
11916W        W77176  18.273   4.714  11.494
11917W        W77177  35.271  32.887  14.673
11918W        W77178  41.522  10.656   2.270
11919W        W77179  20.018  19.724   2.812
11920W        W77180  23.989  32.169  11.603
11921W        W77181   7.425  42.705  14.802
11922W        W77182  22.168   3.747  10.910
11923W        W77183  41.848  16.009   3.672
11924W        W77184  42.533  34.632   2.141
11925W        W77185  12.098  38.075  12.564
11926W        W77186  12.792  41.568  12.038
11927W        W77187  27.385   8.727   3.673
11928W        W77188  31.589  28.523  11.567
11929W        W77189  14.094  40.574   2.821
11930W        W77190  17.116  24.771  12.612
11931W        W77191  35.068  21.965   4.734
11932W        W77192  36.885  18.002  14.237
11933W        W77193  22.710  41.303   4.088
11934W        W77194  23.219  38.935  11.014
11935W        W77195  36.865  22.025   0.803
11936W        W77196  12.302  39.146   3.396
11937W        W77197   6.434  31.393  13.790
11938W        W77198  38.014   6.205   2.322
11939W        W77199  17.763  38.345  12.404
11940W        W77200  21.965  39.444  14.102
11941W        W77201   5.279   1.973   3.157
11942W        W77202  41.864  31.727  11.518
11943W        W77203  25.080  18.725   1.353
11944W        W77204  36.883   9.315  14.659
11945W        W77205  31.159   9.232   1.786
11946W        W77206  34.033  16.047   2.790
11947W        W77207  24.006  38.563  11.938
11948W        W77208   6.702  44.889  13.362
11949W        W77209   0.802  25.708  14.305
11950W        W77210  18.120  27.704   1.425
11951W        W77211  16.041  31.967  10.671
11952W        W77212  32.141   2.839   4.723
11953W        W77213  18.053  26.578   1.762
11954W        W77214  36.980  38.880  13.633
11955W        W77215   8.192   3.985  10.790
11956W        W77216  13.074   1.019  12.935
11957W        W77217  37.971   4.254  14.243
11958W        W77218   9.819  16.098  10.884
11959W        W77219   6.909   1.991   3.555
11960W        W77220   3.687  21.797  11.590
11961W        W77221   0.870   7.908  14.976
11962W        W77222  23.300  24.531  12.055
11963W        W77223  16.679  36.357   4.715
11964W        W77224   8.445  37.610  13.827
11965W        W77225  29.662  24.656   0.460
11966W        W77226   8.457  38.048  13.556
11967W        W77227  32.690   5.012   2.868
11968W        W77228  40.328   4.264  12.912
11969W        W77229  28.004   7.997  11.416
11970W        W77230  43.963  24.963   1.454
11971W        W77231  19.001  10.149   4.540
11972W        W77232  20.450  35.080  14.615
11973W        W77233   5.097   0.922   4.007
11974W        W77234  22.727   8.371  13.006
11975W        W77235  27.079  33.830  13.875
11976W        W77236  30.679  18.550   0.841
11977W        W77237   4.055  35.931  14.742
11978W        W77238  31.571  19.297  14.334
11979W        W77239  42.041  44.867  11.811
11980W        W77240   7.657  29.943   2.503
11981W        W77241  16.877  30.684   0.408
11982W        W77242  31.467  25.229  12.443
11983W        W77243  33.395  44.497   4.514
11984W        W77244   2.863  43.488   2.950
11985W        W77245   0.757  24.064  11.692
11986W        W77246  44.755  22.753  10.343
11987W        W77247  28.660   2.211  12.665
11988W        W77248  29.924   3.401   1.328
11989W        W77249  44.986  24.995  10.854
11990W        W77250  41.759  35.556  13.210
11991W        W77251   4.059   8.933  11.954
11992W        W77252  36.948  36.085  13.372
11993W        W77253  25.096  26.750   4.933
11994W        W77254  28.308  12.442  14.163
11995W        W77255   5.171  31.993   0.971
11996W        W77256  36.904  35.024  14.996
11997W        W77257  17.647  14.137  10.731
11998W        W77258   1.794   2.954  10.771
11999W        W77259  13.311  12.114  12.047
12000W        W77260  17.307   0.054  11.916
12001W        W77261   6.205  39.771  12.523
12002W        W77262  38.497   3.628   3.597
12003W        W77263  40.810  44.436  11.825
12004W        W77264  37.634   3.188  12.010
12005W        W77265   9.404  29.125   3.082
12006W        W77266  30.950  15.682  12.883
12007W        W77267  38.593   2.453  12.983
12008W        W77268  37.146   7.354   3.133
12009W        W77269  26.476  18.971  10.250
12010W        W77270  37.581  13.812  14.477
12011W        W77271  15.118  10.717  11.931
12012W        W77272  13.769   3.814  14.535
12013W        W77273   7.947  18.550  10.768
12014W        W77274   8.152   7.222  14.593
12015W        W77275  18.107  10.792   3.624
12016W        W77276  16.120  12.417  14.273
12017W        W77277  37.448  14.715   2.607
12018W        W77278  13.636   2.792   4.103
12019W        W77279   5.954  33.149  13.027
12020W        W77280  32.001  14.580  11.648
12021W        W77281  42.578  13.744   2.141
12022W        W77282  18.611  20.678  11.443
12023W        W77283  39.361  16.613  13.298
12024W        W77284  17.762  43.006   2.609
12025W        W77285  36.512  29.525   2.206
12026W        W77286   1.936  35.616  14.492
12027W        W77287  38.355  40.482   3.119
12028W        W77288  13.114  21.058   5.021
12029W        W77289  41.685   0.271   3.591
12030W        W77290  42.411  11.078   2.883
12031W        W77291   3.676  30.037   4.777
12032W        W77292   3.885  11.337  11.100
12033W        W77293  26.259  32.079  11.837
12034W        W77294   2.435  31.678  11.046
12035W        W77295  22.412  15.160   3.295
12036W        W77296  24.555  32.195  14.887
12037W        W77297  15.911  19.436  10.293
12038W        W77298  14.277  32.088   2.840
12039W        W77299   7.810   1.506   2.885
12040W        W77300  34.245  12.642  13.503
12041W        W77301   2.667  19.079  12.950
12042W        W77302  36.123   5.991  12.353
12043W        W77303  13.722  34.953   0.953
12044W        W77304  42.108   8.872  11.448
12045W        W77305  16.630  43.550  11.555
12046W        W77306   0.764   5.886  14.125
12047W        W77307  40.513   2.842  10.888
12048W        W77308  15.652  34.667   1.789
12049W        W77309  14.524  12.116  11.024
12050W        W77310  32.505  37.145  13.933
12051W        W77311  31.596  40.297  12.595
12052W        W77312  24.958  25.997  12.004
12053W        W77313  12.612  13.117   0.625
12054W        W77314  10.675   1.391   0.935
12055W        W77315  39.313  31.934  12.906
12056W        W77316  20.343  15.723  10.508
12057W        W77317  41.802   1.735  14.273
12058W        W77318  24.550  10.410   2.695
12059W        W77319   0.606  22.972  10.741
12060W        W77320  30.906  36.042  12.493
12061W        W77321   4.843   1.809   0.298
12062W        W77322  39.238  25.645   1.814
12063W        W77323   9.826   9.707  14.979
12064W        W77324  39.070  14.931   1.225
12065W        W77325   5.611  20.275  14.438
12066W        W77326  19.907  42.247   3.599
12067W        W77327  15.202  16.327   1.227
12068W        W77328  32.995  30.677  14.064
12069W        W77329   2.950  18.273   0.233
12070W        W77330  15.727  26.054  11.437
12071W        W77331   6.812  19.825   0.086
12072W        W77332  38.481   3.120  11.308
12073W        W77333  23.062  28.931  14.493
12074W        W77334  16.069  18.600   3.712
12075W        W77335  11.208   6.001  13.336
12076W        W77336  34.500   1.061   9.860
12077W        W77337   4.782  28.450   1.470
12078W        W77338  16.704  36.744   2.484
12079W        W77339   0.165   7.683  14.802
12080W        W77340   6.063   4.884   0.683
12081W        W77341  25.017  11.116  13.008
12082W        W77342   2.520  24.135   3.305
12083W        W77343  41.647  39.556   2.824
12084W        W77344   0.733  23.584   3.178
12085W        W77345  15.601  19.663   5.590
12086W        W77346  21.239  43.091   4.559
12087W        W77347  37.961   6.651   4.699
12088W        W77348  39.890  13.357   4.112
12089W        W77349   2.787  38.852  14.817
12090W        W77350  37.422  42.863   2.319
12091W        W77351  33.629   3.592  10.163
12092W        W77352  31.887  22.782   3.246
12093W        W77353  36.437  22.691  10.646
12094W        W77354  30.100  39.946  13.523
12095W        W77355  36.557  15.538   4.173
12096W        W77356  18.941  42.377   2.218
12097W        W77357  34.047  26.973   2.979
12098W        W77358  20.714  31.391   2.393
12099W        W77359  22.955  18.006   0.237
12100W        W77360  11.127  43.337  13.774
12101W        W77361   5.867  29.849  14.842
12102W        W77362  41.416  21.215   0.257
12103W        W77363  10.643  33.399   4.168
12104W        W77364  11.093  36.034   0.278
12105W        W77365   4.449  11.411   1.914
12106W        W77366  24.040  44.089   1.849
12107W        W77367  22.176   8.821  12.629
12108W        W77368  22.102  43.810   0.420
12109W        W77369   9.922  27.870  12.909
12110W        W77370  37.016  29.457   3.639
12111W        W77371  10.399  33.574   0.998
12112W        W77372  41.899  12.566   0.386
12113W        W77373  11.835  37.487  13.383
12114W        W77374  11.863  35.440  10.654
12115W        W77375  10.839  39.570  12.616
12116W        W77376  37.093  16.837  13.425
12117W        W77377  19.454   3.401  12.965
12118W        W77378  18.729  24.199  13.809
12119W        W77379  25.981  12.230   3.419
12120W        W77380   8.487   3.382   4.288
12121W        W77381  15.978  19.710  11.698
12122W        W77382  44.473  21.764   1.831
12123W        W77383  44.787  37.493  12.949
12124W        W77384   7.637  33.559  13.966
12125W        W77385  20.792  37.995  14.346
12126W        W77386  12.576  44.819   3.395
12127W        W77387   3.180  14.794  10.686
12128W        W77388  38.244   2.445  14.221
12129W        W77389   8.356  14.543   1.662
12130W        W77390  41.542   2.700   1.705
12131W        W77391  37.452  43.020  11.426
12132W        W77392   2.805  31.385  14.939
12133W        W77393   1.069  44.529   0.884
12134W        W77394  13.983   9.412  11.173
12135W        W77395  24.782  11.762   0.817
12136W        W77396  44.942   0.603   1.593
12137W        W77397  24.197  21.306   3.325
12138W        W77398   8.372  15.285  11.966
12139W        W77399  36.455  41.808   4.610
12140W        W77400  10.848  20.538   2.419
12141W        W77401  22.203   3.852  12.575
12142W        W77402  32.863  42.421  13.926
12143W        W77403  14.380   9.785  14.198
12144W        W77404  23.742  11.942  11.185
12145W        W77405  20.776  35.055  11.594
12146W        W77406  10.226   5.697  13.975
12147W        W77407  40.305  30.200   1.799
12148W        W77408  20.376   9.909  11.903
12149W        W77409  38.290  26.654  12.095
12150W        W77410  43.326  37.293   1.965
12151W        W77411  28.387  28.915   5.084
12152W        W77412  17.671  14.454   2.397
12153W        W77413  28.114  24.474   1.877
12154W        W77414   3.195  32.183  13.390
12155W        W77415  38.144   5.663  14.440
12156W        W77416  39.624  35.197   4.161
12157W        W77417  18.625   5.361   5.001
12158W        W77418  30.383  34.342  13.366
12159W        W77419  38.818  12.219   4.144
12160W        W77420  30.953  22.541  14.984
12161W        W77421   2.238   0.908   3.161
12162W        W77422   4.937  30.664  11.033
12163W        W77423   8.270   8.136   4.155
12164W        W77424  15.156  26.733  13.309
12165W        W77425  35.869  44.739  12.465
12166W        W77426  15.577  36.130   3.537
12167W        W77427  14.849  20.560  14.291
12168W        W77428  17.059  21.734  11.971
12169W        W77429  41.484  35.499   1.724
12170W        W77430  12.202  28.867  11.543
12171W        W77431   2.097  16.125  11.902
12172W        W77432  24.318  34.922   4.005
12173W        W77433  32.638  18.282   1.590
12174W        W77434  37.975  14.661  14.076
12175W        W77435  12.789   0.800   2.920
12176W        W77436   4.215   3.146   4.177
12177W        W77437  37.086  11.396   2.791
12178W        W77438   5.848  21.245   3.163
12179W        W77439  11.876   4.424  11.814
12180W        W77440  24.143  11.374  11.975
12181W        W77441  24.732  14.910   1.510
12182W        W77442  38.854  10.188   3.864
12183W        W77443  29.440   4.239   3.807
12184W        W77444   6.190  44.305   5.096
12185W        W77445  28.693  31.466  13.066
12186W        W77446  39.055  22.596  13.169
12187W        W77447   9.485   9.874  14.238
12188W        W77448   6.001  32.601   1.396
12189W        W77449   0.366  31.894  13.022
12190W        W77450  42.084  23.901   3.687
12191W        W77451  25.616  32.442   4.552
12192W        W77452  26.141   2.009   1.942
12193W        W77453  44.819  29.410   2.251
12194W        W77454  13.667  36.569   2.621
12195W        W77455  38.084  24.867  11.831
12196W        W77456  29.153  31.628   0.430
12197W        W77457  36.712  12.354  13.560
12198W        W77458  40.116   2.489   4.134
12199W        W77459  34.102  43.842   0.799
12200W        W77460   9.604  16.602   0.726
12201W        W77461  17.561  24.939   1.525
12202W        W77462  29.674  20.972  10.975
12203W        W77463   5.366  19.720  12.800
12204W        W77464  21.282  41.335  10.890
12205W        W77465  31.892  12.613   3.593
12206W        W77466  20.991  43.299  10.973
12207W        W77467  15.340  27.963  10.559
12208W        W77468  19.054  28.031  14.413
12209W        W77469  16.748  43.280   3.903
12210W        W77470  34.561  14.828  11.021
12211W        W77471  30.582  10.607  11.573
12212W        W77472  14.907  19.372   5.070
12213W        W77473   0.249  40.901  12.504
12214W        W77474   2.033  17.510  12.515
12215W        W77475  41.475  19.008  11.587
12216W        W77476  26.103  28.406   4.787
12217W        W77477  25.401  13.193   3.658
12218W        W77478  32.138   5.342   2.171
12219W        W77479   6.728  13.189  12.436
12220W        W77480  15.071  28.203   4.600
12221W        W77481  30.191   3.160  14.330
12222W        W77482  11.847   4.185   2.293
12223W        W77483   6.236  33.624   2.180
12224W        W77484  40.064  37.492  10.610
12225W        W77485  26.152  38.835  14.049
12226W        W77486  12.415  12.191   1.412
12227W        W77487  27.590   0.833  13.898
12228W        W77488  21.572   6.624  11.977
12229W        W77489  39.353  25.217  14.439
12230W        W77490  38.075   2.340  12.878
12231W        W77491  44.031   1.293  14.118
12232W        W77492  14.431  13.145   3.560
12233W        W77493  12.366  19.279  11.522
12234W        W77494  43.615  21.981   2.798
12235W        W77495  43.440  16.579   4.697
12236W        W77496  42.737  25.729   4.589
12237W        W77497  19.252   7.841  14.191
12238W        W77498  42.498  33.265  10.667
12239W        W77499  35.009  44.099   2.296
12240W        W77500  38.504  24.532   0.329
12241W        W77501   1.793   9.206   1.877
12242W        W77502   8.585   1.294  14.431
12243W        W77503  22.978  43.053  13.857
12244W        W77504  10.697  42.093  12.121
12245W        W77505  32.941  39.927  11.670
12246W        W77506  20.403   8.130  12.988
12247W        W77507  23.613  21.319   2.824
12248W        W77508  20.318  33.289   2.160
12249W        W77509  28.183  17.183  10.738
12250W        W77510  43.439  12.862   2.937
12251W        W77511  10.555  41.731  11.458
12252W        W77512  32.385  12.700  13.952
12253W        W77513  15.280  17.185  11.471
12254W        W77514  40.986  36.133  13.616
12255W        W77515  15.742   9.871  13.451
12256W        W77516  12.043  42.070   1.847
12257W        W77517  32.101   6.708   4.647
12258W        W77518  29.603   7.735  11.908
12259W        W77519  16.201  35.607  11.682
12260W        W77520  23.601  14.311   0.444
12261W        W77521   2.201  28.112   3.673
12262W        W77522   0.487  29.460  14.865
12263W        W77523  32.041  11.353   3.088
12264W        W77524   7.500  11.257   0.756
12265W        W77525  22.689  31.652  14.283
12266W        W77526  37.124  13.283  12.777
12267W        W77527  15.686   5.496   4.012
12268W        W77528  10.653  29.098   3.793
12269W        W77529  24.968  32.999  12.443
12270W        W77530   1.433  18.812  12.884
12271W        W77531  19.344  27.836   3.281
12272W        W77532  20.740  37.208  13.854
12273W        W77533  11.888  33.374   0.422
12274W        W77534  20.703   4.648   2.759
12275W        W77535  18.795  22.551  12.409
12276W        W77536  17.363  12.121  11.889
12277W        W77537  15.877  44.519   3.535
12278W        W77538   9.375  36.342   3.068
12279W        W77539  24.950  19.908   9.942
12280W        W77540  34.479   4.996  11.053
12281W        W77541  37.451  22.393   1.576
12282W        W77542  42.967  21.959   4.106
12283W        W77543  28.497  39.766  11.474
12284W        W77544  36.098  25.548   0.046
12285W        W77545   4.878  22.316  11.396
12286W        W77546  39.796  20.603  13.217
12287W        W77547  35.030  30.777   2.338
12288W        W77548  41.375  24.716   0.748
12289W        W77549  13.095  37.040   4.292
12290W        W77550   9.670  41.170   1.736
12291W        W77551  35.953  27.898   1.256
12292W        W77552  10.965  15.101  14.811
12293W        W77553  22.074   1.253   0.687
12294W        W77554  32.166  27.960   2.330
12295W        W77555  21.720  20.635  11.892
12296W        W77556  24.398  36.894  10.776
12297W        W77557  16.652  16.578  11.210
12298W        W77558   6.146   8.852  11.639
12299W        W77559  16.010   5.251  10.999
12300W        W77560  19.647  13.667  13.435
12301W        W77561  10.714  43.773   4.181
12302W        W77562  33.048   1.461  11.164
12303W        W77563  18.423  33.129   2.354
12304W        W77564  38.320   2.576   0.313
12305W        W77565   1.754  34.029   1.774
12306W        W77566   0.362   6.127  11.065
12307W        W77567  22.858  36.529   1.339
12308W        W77568  21.261  42.462   0.943
12309W        W77569  21.681  31.180   2.226
12310W        W77570  36.005  31.579   3.926
12311W        W77571  39.977  39.003   4.117
12312W        W77572  25.236  40.832  11.105
12313W        W77573  17.565  36.670   2.814
12314W        W77574  44.310  22.149  10.487
12315W        W77575   8.126  23.741  14.449
12316W        W77576  29.037  20.010   1.506
12317W        W77577  24.714  41.981  12.747
12318W        W77578  23.099  21.632  11.015
12319W        W77579  39.191  28.031   1.762
12320W        W77580   1.692  24.464   4.073
12321W        W77581  18.778  12.272  14.430
12322W        W77582  16.731  10.582   1.182
12323W        W77583   5.232   4.656  12.664
12324W        W77584  25.070  31.049  12.573
12325W        W77585  28.988  36.452   1.981
12326W        W77586  36.524  29.544  13.050
12327W        W77587   4.206  36.872   2.665
12328W        W77588  15.013  42.046   1.082
12329W        W77589  24.265  28.284   4.420
12330W        W77590  12.781   7.250  14.750
12331W        W77591   3.627  13.644  13.423
12332W        W77592  19.991  34.876   0.414
12333W        W77593  11.418  36.991   3.604
12334W        W77594   1.364  15.003  10.449
12335W        W77595  14.892   7.391   3.727
12336W        W77596  15.376  33.378  11.636
12337W        W77597  13.223  23.644   3.216
12338W        W77598  23.525  23.472   3.757
12339W        W77599  32.121  13.365   1.767
12340W        W77600  28.457  25.613   2.094
12341W        W77601  42.580  30.885  13.955
12342W        W77602  12.102  16.462   3.221
12343W        W77603  25.016  39.705  13.422
12344W        W77604  29.990  24.199   4.328
12345W        W77605  17.345  21.185   2.989
12346W        W77606  14.159  41.357   4.374
12347W        W77607   8.766  12.148  11.490
12348W        W77608  22.252   7.233  11.969
12349W        W77609  14.041  10.690   4.544
12350W        W77610   3.774  44.802   3.859
12351W        W77611  39.820  42.015  10.638
12352W        W77612  38.601  25.593   3.387
12353W        W77613  37.945  24.487  13.279
12354W        W77614  41.987  19.039   1.176
12355W        W77615  13.015  24.432   1.665
12356W        W77616  37.710  29.193  11.094
12357W        W77617  16.751   5.148   3.276
12358W        W77618  26.229  26.017   1.194
12359W        W77619  13.355  44.611  12.557
12360W        W77620  37.466  13.884  11.111
12361W        W77621  12.327  11.793   4.565
12362W        W77622  37.040  36.618  14.418
12363W        W77623  39.881  37.789  11.086
12364W        W77624  41.415  31.975   0.908
12365W        W77625  16.402  35.022  14.522
12366W        W77626  20.126   6.707   2.229
12367W        W77627  10.429  19.577  11.046
12368W        W77628  27.423  31.034  11.928
12369W        W77629  18.587  20.964   2.825
12370W        W77630  42.594  29.202  11.117
12371W        W77631  38.998  43.525  14.314
12372W        W77632  32.157  43.832  14.292
12373W        W77633  19.711  19.753   3.237
12374W        W77634  24.073  34.128   4.595
12375W        W77635  31.051   8.899  12.646
12376W        W77636   9.598  28.352   2.724
12377W        W77637   7.382   3.740  12.239
12378W        W77638  32.488  18.158  14.383
12379W        W77639  23.804  31.521  14.363
12380W        W77640  34.988  21.929   2.274
12381W        W77641   0.075  42.540  13.071
12382W        W77642  34.412  21.954  11.086
12383W        W77643  25.294  26.176   1.826
12384W        W77644   6.317  12.826   1.423
12385W        W77645  34.624  40.314  13.869
12386W        W77646  16.745  34.416   5.054
12387W        W77647  41.003  28.526   0.090
12388W        W77648  26.867  16.738   3.661
12389W        W77649  32.238   1.952   2.902
12390W        W77650  44.835  40.284   2.318
12391W        W77651  32.764   7.611   1.523
12392W        W77652  23.528   1.741   1.966
12393W        W77653  35.746  19.032   1.431
12394W        W77654  12.816  11.131  14.294
12395W        W77655  14.655  17.361   4.237
12396W        W77656  44.719  34.502   0.294
12397W        W77657  17.901  31.598  14.557
12398W        W77658  13.257  12.918   4.639
12399W        W77659  21.466   7.166  12.986
12400W        W77660   6.254  42.637   1.859
12401W        W77661  27.659  25.108   2.014
12402W        W77662  25.208  14.783   1.348
12403W        W77663   0.860   0.213  12.636
12404W        W77664  27.959  35.298  14.967
12405W        W77665  39.526  27.876  10.861
12406W        W77666  19.820  29.709   0.697
12407W        W77667  21.146   4.357  14.341
12408W        W77668   9.369  24.125  13.403
12409W        W77669  26.030   7.101   0.435
12410W        W77670   2.157   1.201   1.738
12411W        W77671  42.581  14.850   3.394
12412W        W77672   4.900  14.720  11.183
12413W        W77673  30.049  22.704   2.177
12414W        W77674  44.503  44.225   4.892
12415W        W77675  24.553   0.954  13.116
12416W        W77676  23.739   9.243  11.503
12417W        W77677  34.455  35.056   0.982
12418W        W77678  20.715   6.245   2.633
12419W        W77679  27.992  14.175   0.715
12420W        W77680  33.949  17.709   0.606
12421W        W77681  30.559  22.139   1.314
12422W        W77682  35.630  24.036   0.349
12423W        W77683  16.206  13.885  14.300
12424W        W77684  32.188  13.050   3.692
12425W        W77685  36.398  28.261  12.288
12426W        W77686  28.881   2.372   3.059
12427W        W77687  23.507  27.570   2.288
12428W        W77688  24.769  33.904   1.772
12429W        W77689  35.545   6.863   1.789
12430W        W77690  28.176   7.825   3.917
12431W        W77691  27.673  11.339   0.030
12432W        W77692   2.372   1.437  14.296
12433W        W77693  42.056  41.500   2.252
12434W        W77694  22.485  25.513   1.452
12435W        W77695  33.603  30.868   2.666
12436W        W77696   5.252  37.584   0.846
12437W        W77697  28.530  30.083   1.328
12438W        W77698  29.534  20.174  11.510
12439W        W77699  40.851  41.900   4.055
12440W        W77700  41.405   4.211  10.983
12441W        W77701  38.459  30.345   3.185
12442W        W77702  39.930  25.006   2.829
12443W        W77703   9.404  16.595   3.209
12444W        W77704   4.267   7.344  13.811
12445W        W77705  18.647  18.752  11.269
12446W        W77706  29.865  23.483  14.433
12447W        W77707  24.726  32.347   0.489
12448W        W77708   2.188   0.907  14.930
12449W        W77709   0.704   1.837   0.397
12450W        W77710  36.082  26.954  12.644
12451W        W77711  14.148  20.286   0.489
12452W        W77712  35.605  24.009   1.302
12453W        W77713  19.969  34.560   2.884
12454W        W77714   8.212   3.630  12.469
12455W        W77715  28.579   8.573   2.259
12456W        W77716  37.566  33.059   2.250
12457W        W77717   8.867  10.263   4.293
12458W        W77718  30.527  11.785   1.268
12459W        W77719  27.597  18.049   0.863
12460W        W77720  41.454  20.102  14.436
12461W        W77721   5.461   5.593  11.447
12462W        W77722  24.693  33.355   0.746
12463W        W77723   9.336  11.474   1.946
12464W        W77724   6.778  18.806   4.808
12465W        W77725  31.991   9.436  10.938
12466W        W77726  41.877  32.623   4.640
12467W        W77727  22.726  17.643  14.071
12468W        W77728   4.402  29.030   2.079
12469W        W77729  18.152  11.972  13.898
12470W        W77730  10.733  18.178   2.691
12471W        W77731   1.759   7.796  14.082
12472W        W77732   7.721  28.198   4.352
12473W        W77733  42.053  40.838   4.492
12474W        W77734  16.655   7.115  12.754
12475W        W77735  39.135  36.344  13.079
12476W        W77736   8.075  18.111   0.042
12477W        W77737  24.981  34.466  10.984
12478W        W77738  13.170  33.719   0.888
12479W        W77739  22.174  41.386   0.723
12480W        W77740  30.432  42.198   0.347
12481W        W77741  28.110   8.280   4.160
12482W        W77742  27.983   2.297   1.906
12483W        W77743  10.249  29.399  13.434
12484W        W77744   6.027  23.607  12.385
12485W        W77745  42.101  43.690  11.561
12486W        W77746  43.397  13.343   2.760
12487W        W77747  23.045  20.198   3.090
12488W        W77748   1.732  30.067  11.972
12489W        W77749  32.741  30.944   2.611
12490W        W77750  13.907   5.278  12.718
12491W        W77751  39.508   6.418   2.400
12492W        W77752   1.424  39.552   3.750
12493W        W77753  22.652  23.383  12.292
12494W        W77754   0.278  40.993   4.327
12495W        W77755  13.705  42.224   3.220
12496W        W77756  11.574  36.854  14.819
12497W        W77757  37.554  10.984   1.913
12498W        W77758  36.385  17.152  10.147
12499W        W77759  10.244  32.580   0.248
12500W        W77760  25.492  29.879  13.770
12501W        W77761  20.607  37.600   3.762
12502W        W77762  27.766  10.092  13.515
12503W        W77763   0.969  43.777  12.623
12504W        W77764  34.605  12.269   1.831
12505W        W77765  39.070  32.601   1.569
12506W        W77766  33.906  12.929  11.362
12507W        W77767  35.355  35.571  14.386
12508W        W77768  34.352  31.123  10.563
12509W        W77769   7.843   6.295  10.277
12510W        W77770  32.650  34.634   4.213
12511W        W77771  12.488  14.062  13.887
12512W        W77772  41.950   6.886   0.043
12513W        W77773  13.299  13.108   0.531
12514W        W77774   0.561  28.629  12.645
12515W        W77775   3.502  29.632   4.107
12516W        W77776  27.196  33.223  11.607
12517W        W77777  42.764  37.322   4.107
12518W        W77778  34.066   8.761  12.471
12519W        W77779  20.185  12.838   4.807
12520W        W77780  42.471  34.660  11.600
12521W        W77781  31.306  21.991  11.258
12522W        W77782  17.737   1.898  14.968
12523W        W77783  34.277  10.055  14.290
12524W        W77784  31.798  41.820   4.300
12525W        W77785   7.422  13.361  10.449
12526W        W77786  22.480   2.400  11.693
12527W        W77787  13.120  29.924   1.244
12528W        W77788   0.893   5.793   1.164
12529W        W77789   6.431  21.653   2.271
12530W        W77790  32.723  11.677   0.696
12531W        W77791   1.866  33.919   4.867
12532W        W77792  12.196  37.871   3.840
12533W        W77793   4.396   0.838  12.347
12534W        W77794  32.486  12.394  12.056
12535W        W77795  38.433  18.068   0.146
12536W        W77796  12.800  24.490   3.406
12537W        W77797  34.675  19.946  12.116
12538W        W77798  20.012  25.308  12.115
12539W        W77799  35.246  24.450  10.921
12540W        W77800   0.559  31.421  13.973
12541W        W77801  44.719  35.140   1.166
12542W        W77802  25.724  30.699   0.367
12543W        W77803  34.035   2.318  13.814
12544W        W77804  29.555  32.389  12.703
12545W        W77805  12.750  27.562   0.384
12546W        W77806  26.263   5.047  10.189
12547W        W77807  36.560  27.450  10.548
12548W        W77808   7.068   6.189   0.332
12549W        W77809  29.427   3.348   4.586
12550W        W77810  43.748  10.495   1.971
12551W        W77811  27.081  43.936   2.740
12552W        W77812  30.466  42.363   4.572
12553W        W77813  30.123  14.622   3.685
12554W        W77814  32.228  41.917   2.259
12555W        W77815  32.918   6.664  13.397
12556W        W77816  30.946  41.630   2.726
12557W        W77817  39.808  25.022  13.183
12558W        W77818  31.557  20.497   0.949
12559W        W77819  26.747  10.621   0.709
12560W        W77820  10.127  20.264   2.912
12561W        W77821  35.933   5.327  13.873
12562W        W77822  19.710  29.759  14.952
12563W        W77823  41.934  19.229  12.532
12564W        W77824  26.155  44.380   2.764
12565W        W77825  13.664  37.626  11.662
12566W        W77826  42.043  10.665   2.335
12567W        W77827  29.629   7.386   1.959
12568W        W77828  27.652   0.533   4.878
12569W        W77829  14.778  21.714   3.239
12570W        W77830   9.825  33.999   2.211
12571W        W77831  12.717  43.774  12.902
12572W        W77832   0.718  16.888   0.395
12573W        W77833  34.836  41.804   4.115
12574W        W77834  18.520  29.493   4.970
12575W        W77835  16.046  34.034   2.580
12576W        W77836  28.655  39.814  14.014
12577W        W77837  32.096   7.444   0.844
12578W        W77838   4.896   9.275   0.360
12579W        W77839  20.401  14.134   2.067
12580W        W77840   6.273   7.715  14.981
12581W        W77841  44.731  42.921  14.550
12582W        W77842  38.523  26.192  13.868
12583W        W77843  16.407  17.107  14.650
12584W        W77844  10.847  16.537  12.935
12585W        W77845  30.997  23.607   1.310
12586W        W77846   6.614  17.291  14.986
12587W        W77847   3.348  44.292   2.615
12588W        W77848   6.237  32.471  13.132
12589W        W77849  33.543   1.388   2.889
12590W        W77850  16.002  34.955  12.122
12591W        W77851  33.377   0.978   3.190
12592W        W77852   9.302  36.766   2.790
12593W        W77853  11.615  19.041  10.795
12594W        W77854  10.193  31.710  12.039
12595W        W77855  25.932   3.382  11.547
12596W        W77856  43.015  23.341   0.540
12597W        W77857  16.134  21.810   0.117
12598W        W77858  35.653  25.643  12.003
12599W        W77859  21.726  18.350  13.023
12600W        W77860  32.527  17.033   0.873
12601W        W77861  29.856  38.193  12.728
12602W        W77862  32.880  42.809  14.286
12603W        W77863  12.173  40.778   2.695
12604W        W77864  20.703   1.782   4.732
12605W        W77865  14.656  21.988   1.976
12606W        W77866  40.601  26.521  14.222
12607W        W77867  12.364  24.225  14.967
12608W        W77868  38.868  13.326  13.307
12609W        W77869   4.126   7.808  12.498
12610W        W77870  10.940  24.959  12.464
12611W        W77871   3.965   0.335  13.880
12612W        W77872  13.840  28.022  13.926
12613W        W77873  26.627  37.096   0.949
12614W        W77874  31.538   6.447  12.066
12615W        W77875  35.370  16.194  11.882
12616W        W77876  40.857  30.839  12.000
12617W        W77877  42.296  31.887  11.251
12618W        W77878  37.545  38.816  11.030
12619W        W77879  12.197  37.724  11.069
12620W        W77880  25.002  22.078  13.986
12621W        W77881  38.774   1.666   2.300
12622W        W77882   3.275  35.842   3.616
12623W        W77883  19.275  18.423   0.349
12624W        W77884   5.926  14.673  11.001
12625W        W77885   4.355  40.286  11.042
12626W        W77886   3.345  35.615  14.379
12627W        W77887  43.447  32.089   4.231
12628W        W77888  20.502  12.490   4.527
12629W        W77889  29.872  44.567  13.748
12630W        W77890  36.609  31.475   2.250
12631W        W77891  26.270  34.176  13.024
12632W        W77892  15.055   4.289  12.964
12633W        W77893  38.075  28.956   1.484
12634W        W77894  38.846  29.363   2.037
12635W        W77895  21.487  40.797   3.357
12636W        W77896  18.993   3.056   3.205
12637W        W77897  18.541   0.933  12.859
12638W        W77898  33.962  34.433   4.091
12639W        W77899   8.009  23.717  14.969
12640W        W77900  17.743  42.445  13.987
12641W        W77901  44.511  32.178   2.683
12642W        W77902  19.395  12.766   3.182
12643W        W77903  40.345  38.176  12.765
12644W        W77904  24.504  16.200   5.025
12645W        W77905  20.162  41.349  10.393
12646W        W77906  15.308  30.127  13.782
12647W        W77907  40.688  37.079   0.008
12648W        W77908  42.722  35.845   3.257
12649W        W77909  23.707  13.506   3.338
12650W        W77910  34.369  30.746  11.709
12651W        W77911  42.068  40.034   1.267
12652W        W77912  16.136  31.551  12.846
12653W        W77913  35.515   2.224  10.146
12654W        W77914  43.276   3.134  13.395
12655W        W77915  31.430  39.810   3.283
12656W        W77916  36.863  36.838  13.925
12657W        W77917  13.698  42.603   3.570
12658W        W77918  17.303  25.105   5.099
12659W        W77919  27.438  34.941  11.650
12660W        W77920  18.557  28.517   3.513
12661W        W77921  23.220  39.302  14.798
12662W        W77922  17.746   9.249  11.585
12663W        W77923   4.939  21.269   1.889
12664W        W77924  11.510  34.193   4.857
12665W        W77925   5.799  23.634  14.348
12666W        W77926  10.221  36.072  13.126
12667W        W77927   0.353  17.098  14.764
12668W        W77928  10.352  40.733  14.794
12669W        W77929  32.520  16.358  11.589
12670W        W77930  12.512  14.879  12.454
12671W        W77931  25.537  34.454  11.201
12672W        W77932  20.011  25.224   5.029
12673W        W77933  30.589   4.779  10.691
12674W        W77934   2.593   3.517   2.675
12675W        W77935   6.722   9.648   0.093
12676W        W77936  25.125  40.835   3.817
12677W        W77937  22.935   4.187   2.733
12678W        W77938  13.139  14.211  14.968
12679W        W77939  35.846   8.094   0.335
12680W        W77940  30.008  19.426   3.611
12681W        W77941   0.681  28.453   1.351
12682W        W77942  20.872   1.904   2.915
12683W        W77943  44.884  18.151   4.287
12684W        W77944  19.725   1.439  13.896
12685W        W77945  41.976   8.234   2.687
12686W        W77946  42.415  13.109  11.393
12687W        W77947  22.331  26.644  11.614
12688W        W77948  43.837   3.391   2.851
12689W        W77949  11.132  28.699   1.381
12690W        W77950  32.771  19.487  12.070
12691W        W77951  21.600   8.809   0.363
12692W        W77952  33.890  24.164  11.262
12693W        W77953   2.881  29.728   5.513
12694W        W77954  33.170   4.823  12.178
12695W        W77955  25.657  16.689   5.236
12696W        W77956  14.876  31.026  11.550
12697W        W77957  41.289   2.051  13.112
12698W        W77958  43.318   7.213  12.817
12699W        W77959  27.729  21.296   1.957
12700W        W77960   8.982  11.206  11.248
12701W        W77961   3.937  40.707   3.200
12702W        W77962   5.662  36.687   1.764
12703W        W77963  17.763  10.261  14.927
12704W        W77964  34.390  25.025   4.654
12705W        W77965  28.477  44.452   1.290
12706W        W77966   3.241  27.040   0.420
12707W        W77967  13.863  26.647   3.684
12708W        W77968  32.576  20.788   4.704
12709W        W77969  42.799  17.273   4.687
12710W        W77970  28.206  35.596   3.208
12711W        W77971   2.916  16.859  10.790
12712W        W77972  15.675  44.677   2.211
12713W        W77973  24.989  33.442  14.821
12714W        W77974  24.212  20.138  13.521
12715W        W77975  42.200   5.803   5.084
12716W        W77976   3.421  28.497   2.282
12717W        W77977   3.466   0.279   3.697
12718W        W77978  24.128  24.030   4.118
12719W        W77979  35.689  38.623  12.085
12720W        W77980  25.379  13.164   2.864
12721W        W77981  38.107  10.678  13.436
12722W        W77982  27.581  32.482  13.881
12723W        W77983  41.583  36.620  14.584
12724W        W77984  34.165   5.019   2.757
12725W        W77985  36.815   5.419  10.600
12726W        W77986  20.232  33.841  13.143
12727W        W77987  16.651   9.165   2.207
12728W        W77988   5.854  44.841   0.642
12729W        W77989   2.732   7.999   2.207
12730W        W77990  44.976  28.979  12.000
12731W        W77991   8.908   5.868  11.750
12732W        W77992  18.488  24.317   1.271
12733W        W77993  11.960  26.676  12.922
12734W        W77994  28.595   1.934  13.986
12735W        W77995   9.127   3.302   4.560
12736W        W77996  38.533  23.991  12.930
12737W        W77997  20.667  31.526  13.358
12738W        W77998  41.293  41.349  13.447
12739W        W77999  16.781  15.113   1.677
12740W        W78000  36.265  44.921  10.346
12741W        W78001  28.096  22.725   3.324
12742W        W78002  17.354  22.556  10.327
12743W        W78003  17.092  36.534   1.742
12744W        W78004  31.880  30.026   4.389
12745W        W78005  33.370  29.039   1.942
12746W        W78006   4.871  30.714   4.596
12747W        W78007  38.899   8.372  10.699
12748W        W78008  22.497  44.210   1.270
12749W        W78009  34.125  28.474   3.863
12750W        W78010  19.134  13.826   0.943
12751W        W78011  23.100  22.531  13.695
12752W        W78012  33.682  30.856   3.641
12753W        W78013  44.728   6.163  12.313
12754W        W78014  38.262  28.439  14.372
12755W        W78015  29.359  14.273   3.153
12756W        W78016  40.845   6.280  12.005
12757W        W78017  18.201  22.409  14.351
12758W        W78018   3.331  17.277   4.679
12759W        W78019   0.510   8.232  14.051
12760W        W78020  12.650  38.029   4.613
12761W        W78021   7.995  23.930  13.349
12762W        W78022  26.796  10.758  14.304
12763W        W78023   9.353  36.297   1.655
12764W        W78024   3.417  20.818   2.549
12765W        W78025  39.904  41.822   2.267
12766W        W78026  33.516  36.087   4.959
12767W        W78027   4.341  28.070  12.599
12768W        W78028  26.187  14.308   0.458
12769W        W78029  17.178  24.021   1.441
12770W        W78030  14.323  31.688  12.296
12771W        W78031  12.510  28.706  12.113
12772W        W78032  26.630  43.811  11.354
12773W        W78033  30.820  27.422  13.723
12774W        W78034  39.559  16.179   2.956
12775W        W78035  35.781  33.635   0.084
12776W        W78036  41.730  34.848  14.235
12777W        W78037  21.849  26.051  14.070
12778W        W78038   5.251  42.494  13.949
12779W        W78039   4.281  24.488  14.473
12780W        W78040   1.007  31.677   0.948
12781W        W78041  14.841   4.589   2.446
12782W        W78042  24.168  25.675  12.437
12783W        W78043   9.339  25.635  12.618
12784W        W78044  38.856  32.585   3.210
12785W        W78045   0.943   8.656   0.855
12786W        W78046  10.325  29.438  11.668
12787W        W78047  15.315  28.057   0.980
12788W        W78048   0.971  37.425  11.493
12789W        W78049  11.561   3.368   0.663
12790W        W78050  44.075  16.775  14.097
12791W        W78051  17.992  20.343  10.733
12792W        W78052  14.932  15.288   2.142
12793W        W78053   2.242  12.829   9.759
12794W        W78054  31.174  25.899   3.054
12795W        W78055   6.319  11.898   0.993
12796W        W78056  28.172  32.104   3.063
12797W        W78057   6.676  11.584   2.152
12798W        W78058  37.295  31.492   4.795
12799W        W78059   2.134   9.269  12.651
12800W        W78060  42.041   3.922   4.450
12801W        W78061  37.394   8.577  14.827
12802W        W78062   2.426  32.901   4.589
12803W        W78063   6.154  41.278   0.995
12804W        W78064   2.565  37.909   1.314
12805W        W78065  38.109   4.006   0.010
12806W        W78066  32.969   5.738   4.160
12807W        W78067   5.405  27.298  11.200
12808W        W78068  38.989  42.355   0.261
12809W        W78069  34.088   0.040   1.755
12810W        W78070  11.282  29.782  13.874
12811W        W78071   2.322  19.767  10.492
12812W        W78072  27.065  42.163   4.798
12813W        W78073  22.773  36.191   2.338
12814W        W78074  15.507  12.370  11.474
12815W        W78075  44.177  20.986  13.928
12816W        W78076  17.181  40.833  11.176
12817W        W78077  32.562  42.155  12.025
12818W        W78078  34.890   5.378  13.109
12819W        W78079  23.652  40.835  10.597
12820W        W78080  10.122  11.225   4.478
12821W        W78081   2.971   8.263  12.114
12822W        W78082  10.957  31.421  13.945
12823W        W78083   3.121  19.702   4.383
12824W        W78084  42.444   7.835  11.575
12825W        W78085  20.872  25.077  10.827
12826W        W78086  18.233  16.784  10.702
12827W        W78087  10.910   3.838  14.417
12828W        W78088   2.924   5.827  11.139
12829W        W78089   7.354  31.491  12.274
12830W        W78090  30.048  38.291   0.797
12831W        W78091   0.156  10.098  11.347
12832W        W78092   7.476  12.776  11.559
12833W        W78093  13.156  23.581  14.702
12834W        W78094  18.372  23.420  11.116
12835W        W78095  38.452  11.316   0.672
12836W        W78096  15.779  17.977   1.854
12837W        W78097  43.005  11.141   5.389
12838W        W78098   7.696  33.428   4.520
12839W        W78099  33.455   5.792   2.590
12840W        W78100   9.909  30.901   0.866
12841W        W78101   2.941  36.401   2.698
12842W        W78102  22.039  31.097  12.548
12843W        W78103  13.563  37.090  14.444
12844W        W78104  14.337  26.293   0.972
12845W        W78105  18.987   7.341  12.983
12846W        W78106  24.219  36.136   2.272
12847W        W78107  38.894  37.906   1.823
12848W        W78108  13.771   5.836   0.803
12849W        W78109   3.314   3.767   3.037
12850W        W78110  41.508  32.808  14.294
12851W        W78111  22.976   3.588   9.839
12852W        W78112  43.405  25.296  13.852
12853W        W78113  25.274   8.670  12.078
12854W        W78114  18.752  12.401  11.603
12855W        W78115   3.314  19.845   2.893
12856W        W78116  29.944  37.509   1.224
12857W        W78117  23.584  23.959   4.616
12858W        W78118  20.149  43.133  11.749
12859W        W78119  27.401  38.235  14.500
12860W        W78120  23.278  16.249  11.614
12861W        W78121  16.145  10.043   2.307
12862W        W78122  29.618  15.669   3.344
12863W        W78123  28.070  26.874  13.433
12864W        W78124  18.123  11.676  14.913
12865W        W78125  38.597   5.196  12.598
12866W        W78126   5.773  18.991  11.820
12867W        W78127  10.387  38.033  14.030
12868W        W78128  16.430   9.701  12.313
12869W        W78129   4.540  16.441  14.845
12870W        W78130   4.390  27.931  12.074
12871W        W78131  21.178  41.247  10.402
12872W        W78132   2.749  38.027   0.795
12873W        W78133  24.059  37.367  12.383
12874W        W78134  16.696  10.120   4.747
12875W        W78135   2.810  15.635   3.556
12876W        W78136  17.679  40.590   4.093
12877W        W78137  28.313   9.358   0.139
12878W        W78138   3.603  38.325   2.214
12879W        W78139  16.830  31.547  10.646
12880W        W78140  44.283  37.822   1.082
12881W        W78141  13.058  33.527   1.340
12882W        W78142  35.942  18.023  13.869
12883W        W78143  26.022  44.728  14.601
12884W        W78144  28.481  30.216   3.224
12885W        W78145  29.445   6.844   0.723
12886W        W78146  37.396  21.143  12.130
12887W        W78147   8.424  42.854  12.568
12888W        W78148   8.851   7.832   0.685
12889W        W78149  19.885   7.237  13.452
12890W        W78150  43.278   3.827  14.295
12891W        W78151  37.968  32.882  10.687
12892W        W78152  36.993   9.426  11.258
12893W        W78153   5.037  15.319   1.951
12894W        W78154  42.480  23.284   0.476
12895W        W78155  39.813  37.294  11.011
12896W        W78156  41.507  21.324  13.403
12897W        W78157  31.369  12.758  13.853
12898W        W78158  25.772  14.529   0.230
12899W        W78159  25.219   5.718   1.038
12900W        W78160  10.074  15.293   2.374
12901W        W78161  28.529   5.921   2.940
12902W        W78162   4.245   4.868  14.343
12903W        W78163  17.225   3.824  14.413
12904W        W78164   7.413  14.383   2.335
12905W        W78165   4.508  10.427   1.366
12906W        W78166  23.205  11.747   4.258
12907W        W78167  27.053   0.635  13.733
12908W        W78168  36.295  12.740  13.103
12909W        W78169  20.468  31.604  13.882
12910W        W78170   5.604   2.829  14.894
12911W        W78171  19.105   5.042  11.722
12912W        W78172   8.699  36.330   2.171
12913W        W78173  30.398  27.498  11.732
12914W        W78174  17.497  24.434   1.488
12915W        W78175  36.053  44.927   1.458
12916W        W78176   0.020  17.457  12.312
12917W        W78177  17.827  25.051   2.813
12918W        W78178   5.350  42.862  11.028
12919W        W78179  39.461  29.671  11.590
12920W        W78180  17.734  25.025   1.042
12921W        W78181  43.838   8.837  12.113
12922W        W78182   4.485  11.196  10.647
12923W        W78183  13.572  38.134  12.504
12924W        W78184   9.375  32.556  12.923
12925W        W78185  38.987  22.522  11.083
12926W        W78186  30.399  32.597  10.743
12927W        W78187  35.512   1.968  14.493
12928W        W78188  37.907  14.666   2.878
12929W        W78189   8.427   9.121  14.897
12930W        W78190  41.864  27.155   4.849
12931W        W78191   4.778  10.622  13.351
12932W        W78192  21.455  38.340   4.367
12933W        W78193   8.990  33.018   1.192
12934W        W78194  21.032  18.095  12.307
12935W        W78195   3.739  42.311   1.498
12936W        W78196  37.571  39.901   4.343
12937W        W78197  16.213   8.225   4.066
12938W        W78198  18.770   3.147  11.103
12939W        W78199  17.736  38.796  11.445
12940W        W78200  37.949  44.903   0.147
12941W        W78201   8.156  32.551  14.273
12942W        W78202  30.904   0.276   0.368
12943W        W78203   5.389  26.447   1.934
12944W        W78204  20.487  15.544   4.156
12945W        W78205  42.479  42.555   0.804
12946W        W78206  30.868  34.653   3.726
12947W        W78207  39.232  13.228  11.747
12948W        W78208  12.309  33.959  11.574
12949W        W78209  31.396  39.610  11.949
12950W        W78210   8.798  44.522  11.697
12951W        W78211   4.010  12.287   3.946
12952W        W78212  23.129  24.092  12.345
12953W        W78213  32.432  11.390  12.204
12954W        W78214   6.844  17.113  11.338
12955W        W78215  25.677  31.068  11.401
12956W        W78216  36.317  21.096   9.802
12957W        W78217  29.571  33.959  14.420
12958W        W78218  17.766  39.997  13.988
12959W        W78219  37.365  37.614  11.675
12960W        W78220  17.379  15.010   2.397
12961W        W78221  37.355  14.645  10.431
12962W        W78222   6.510   0.001   4.261
12963W        W78223  13.481  44.756   4.451
12964W        W78224  27.357  23.260  14.050
12965W        W78225  27.710  27.637  11.686
12966W        W78226  21.889  39.162  10.918
12967W        W78227  37.403  24.676  13.977
12968W        W78228  30.303  19.200   0.358
12969W        W78229   2.120  39.404  11.899
12970W        W78230  34.065  16.878   3.130
12971W        W78231  28.755  39.963   4.870
12972W        W78232  20.602  17.350  12.654
12973W        W78233  24.106  26.527   0.574
12974W        W78234  43.440  39.756  11.955
12975W        W78235  26.228  37.936  12.289
12976W        W78236  33.091  34.153  13.451
12977W        W78237  38.357  37.561  11.726
12978W        W78238  39.856  33.848   0.088
12979W        W78239  30.192  44.521   1.751
12980W        W78240  31.393  23.777   4.118
12981W        W78241   3.139  13.830  13.450
12982W        W78242  20.462  30.130  12.859
12983W        W78243  38.855  38.057  12.406
12984W        W78244  21.817   3.295  14.853
12985W        W78245  40.995  37.311   4.578
12986W        W78246  39.573  31.481  13.010
12987W        W78247  10.205   2.321  11.573
12988W        W78248   7.929   2.759   3.300
12989W        W78249  12.235  29.060  12.533
12990W        W78250  12.700   6.545   2.873
12991W        W78251  32.610   3.111   1.898
12992W        W78252  24.957  24.665  12.877
12993W        W78253  21.022   0.286  11.455
12994W        W78254  33.104  43.342  11.140
12995W        W78255  18.280  34.904  12.167
12996W        W78256  28.991   5.784   0.375
12997W        W78257  27.631  40.264   0.394
12998W        W78258   3.354  31.512  12.830
12999W        W78259  37.090  24.834  14.641
13000W        W78260  24.037  20.851   0.993
13001W        W78261  29.653   8.253   0.012
13002W        W78262  11.762  17.223  10.834
13003W        W78263  17.493   3.841  13.940
13004W        W78264  27.707   9.232  13.472
13005W        W78265  15.329  29.485   4.658
13006W        W78266   4.761  44.562  11.534
13007W        W78267  18.639   6.388  11.002
13008W        W78268  35.950   1.546  12.869
13009W        W78269  23.666   2.187   1.094
13010W        W78270  27.731   9.139   3.754
13011W        W78271  37.284  23.946  11.669
13012W        W78272  36.514  13.695   1.266
13013W        W78273  11.817  27.959  12.807
13014W        W78274  33.551  39.947   0.908
13015W        W78275  44.944   6.871   1.333
13016W        W78276  25.741  36.908   4.242
13017W        W78277   9.738  43.309   4.018
13018W        W78278   5.720  23.205  14.031
13019W        W78279  32.196  28.897  14.940
13020W        W78280  13.607  20.597   3.553
13021W        W78281   9.592  25.099  12.818
13022W        W78282  42.644  24.399  11.132
13023W        W78283   9.769  11.270   2.171
13024W        W78284  18.272  44.478  14.937
13025W        W78285  30.917   3.650   1.789
13026W        W78286  38.868   2.990  13.758
13027W        W78287  41.768  22.116  12.964
13028W        W78288   3.296  44.204  13.418
13029W        W78289   2.373   3.922   3.278
13030W        W78290  38.456  25.635   0.515
13031W        W78291  13.455  10.449  14.774
13032W        W78292  28.130  10.970   3.722
13033W        W78293  21.664  42.773   1.019
13034W        W78294  41.039  17.743  13.422
13035W        W78295   3.691  34.986  12.586
13036W        W78296  21.845  19.160  11.968
13037W        W78297  30.422   8.361   4.562
13038W        W78298  43.216  27.170  12.252
13039W        W78299  31.905  16.024   3.367
13040W        W78300  15.188  33.071   1.209
13041W        W78301  15.806  15.412  12.378
13042W        W78302   2.825  37.293   0.594
13043W        W78303   9.839  43.466   4.983
13044W        W78304  38.567  12.737   0.499
13045W        W78305  33.135   3.455   4.398
13046W        W78306  28.603  41.789   4.281
13047W        W78307  28.381  21.329   0.724
13048W        W78308  19.182   0.744  11.478
13049W        W78309  42.366   8.152  11.976
13050W        W78310  25.227  42.586  12.938
13051W        W78311  36.567   2.972  12.917
13052W        W78312   3.358  39.580  10.983
13053W        W78313  40.375  35.715   4.896
13054W        W78314   8.961  33.603  11.082
13055W        W78315   6.913  29.043   4.292
13056W        W78316  31.292  26.335   2.757
13057W        W78317  15.107  32.193   3.101
13058W        W78318  20.459   3.740  10.698
13059W        W78319   1.786  26.979   3.156
13060W        W78320  37.685  13.574   2.847
13061W        W78321  19.616  22.949  11.157
13062W        W78322  30.229  44.886  13.576
13063W        W78323   7.706  12.070  12.367
13064W        W78324  37.147  25.463  10.938
13065W        W78325  12.043   1.698  11.112
13066W        W78326   7.898  25.707   4.505
13067W        W78327  43.308   3.732  12.442
13068W        W78328  38.370   4.751   4.982
13069W        W78329  26.069   4.837   0.926
13070W        W78330  36.460  25.351   0.384
13071W        W78331  21.977  32.496  14.831
13072W        W78332  13.389  32.410   0.843
13073W        W78333  13.704  33.098  12.926
13074W        W78334  20.012   9.749   4.074
13075W        W78335  21.181  10.614  10.470
13076W        W78336  11.934   4.572  14.842
13077W        W78337  40.825  28.745   1.849
13078W        W78338  13.397  36.836  11.479
13079W        W78339  20.095  25.790   4.433
13080W        W78340  22.270  35.430  13.897
13081W        W78341  27.912  35.118   5.037
13082W        W78342   7.930  36.450  13.432
13083W        W78343  41.301  16.269   0.306
13084W        W78344  43.859  26.147  11.578
13085W        W78345  31.999  12.455   1.721
13086W        W78346  36.573  13.435  11.250
13087W        W78347  18.481   6.188   0.443
13088W        W78348  15.319  24.988  12.492
13089W        W78349  20.785   1.375   0.310
13090W        W78350  33.054  24.204   0.582
13091W        W78351  18.422  36.455  10.827
13092W        W78352  43.650  24.628  11.040
13093W        W78353  11.936   6.352   0.855
13094W        W78354  35.625  14.940  13.614
13095W        W78355  29.356  24.575   1.792
13096W        W78356  27.920   7.478  11.416
13097W        W78357   1.456  10.687   3.224
13098W        W78358  22.872   4.036   4.251
13099W        W78359   6.470  21.212   0.239
13100W        W78360  10.828  33.304   0.967
13101W        W78361  17.633  31.059  12.346
13102W        W78362  14.566   6.185   1.386
13103W        W78363  29.986  28.875  12.634
13104W        W78364  26.451   4.107   4.136
13105W        W78365  18.765  22.322   3.102
13106W        W78366   1.015  27.601   3.591
13107W        W78367  24.868  43.454  11.990
13108W        W78368  23.474   7.178   2.442
13109W        W78369  22.936  26.987  13.555
13110W        W78370   6.341   0.750   2.719
13111W        W78371  22.205  21.546   3.900
13112W        W78372  42.157  41.532  10.428
13113W        W78373   7.450  32.604   1.412
13114W        W78374  34.568   6.289  14.953
13115W        W78375  16.354  11.667  14.948
13116W        W78376  17.691   6.149  14.435
13117W        W78377  24.730  11.576   3.280
13118W        W78378   2.860  27.753   1.425
13119W        W78379  28.230  11.842   3.882
13120W        W78380  28.298  13.726   1.841
13121W        W78381  15.273   5.720  10.483
13122W        W78382   9.410  29.931   1.456
13123W        W78383  36.810   9.131   3.203
13124W        W78384  21.494  14.131  12.453
13125W        W78385   2.782   9.383   2.299
13126W        W78386  27.713  15.991  10.860
13127W        W78387  44.619   1.482  13.516
13128W        W78388  34.017  10.489  10.277
13129W        W78389  21.040  36.813   0.760
13130W        W78390  11.756   3.518   4.545
13131W        W78391  37.045  18.444   4.300
13132W        W78392  11.665  11.986  10.447
13133W        W78393  17.725   2.215  13.772
13134W        W78394   6.908  13.673  12.952
13135W        W78395  22.557  43.292   2.809
13136W        W78396   0.109  17.525   0.539
13137W        W78397  38.734  37.627  14.832
13138W        W78398  34.814  23.591   4.635
13139W        W78399  42.174  10.233   1.219
13140W        W78400  42.999  29.632   3.703
13141W        W78401   1.472  27.763   2.263
13142W        W78402   1.728   3.353   4.664
13143W        W78403  42.322  11.284   2.403
13144W        W78404  25.079   3.708   4.054
13145W        W78405  19.255  32.386   0.442
13146W        W78406   0.932   0.450  14.672
13147W        W78407  20.338  25.688  12.566
13148W        W78408  21.155   4.700   3.376
13149W        W78409   4.456  28.144  14.932
13150W        W78410  36.968  27.927  11.140
13151W        W78411  12.007  35.097  13.306
13152W        W78412  32.623  36.948   0.783
13153W        W78413  15.954   7.999  13.168
13154W        W78414   3.300  39.317   0.821
13155W        W78415  36.895  17.622   4.591
13156W        W78416  29.935  24.118  13.871
13157W        W78417  38.457  44.878  11.162
13158W        W78418  11.275  39.024  13.102
13159W        W78419  37.991  10.426  11.873
13160W        W78420  22.550  24.929  14.346
13161W        W78421   5.163   2.551  14.595
13162W        W78422  15.246  34.342   3.747
13163W        W78423   2.282  17.392  12.074
13164W        W78424   9.810  17.658  14.293
13165W        W78425  28.454  13.139   0.311
13166W        W78426  42.714   2.925   3.063
13167W        W78427   2.169   8.882   1.726
13168W        W78428   1.943   7.082  12.381
13169W        W78429  37.233   2.690  10.606
13170W        W78430  36.625  22.635  13.799
13171W        W78431  10.363  37.534  10.647
13172W        W78432   2.955  29.587   2.958
13173W        W78433  39.307   1.482   2.198
13174W        W78434  42.937  31.064   2.797
13175W        W78435  26.616  17.476   4.569
13176W        W78436   9.747  43.596   0.268
13177W        W78437  29.463  40.654  14.479
13178W        W78438  12.207  34.358   1.772
13179W        W78439  25.424   6.508   0.133
13180W        W78440  34.523  37.192  11.066
13181W        W78441  28.986   5.605   1.178
13182W        W78442  43.003  34.476   2.871
13183W        W78443   0.328  13.020  14.405
13184W        W78444  14.073  17.625  11.622
13185W        W78445  44.837   3.463  10.305
13186W        W78446  30.928  38.546  14.489
13187W        W78447  29.557  19.652  11.152
13188W        W78448  18.351  19.811   3.432
13189W        W78449  22.313   8.357  11.167
13190W        W78450  18.708  31.144   0.283
13191W        W78451  33.928  28.447   0.427
13192W        W78452  40.645  43.436  11.235
13193W        W78453  36.932  29.753  12.116
13194W        W78454  17.073  16.919  10.702
13195W        W78455  22.275  12.090   4.166
13196W        W78456  30.599  31.908  14.530
13197W        W78457  12.290  16.507  11.381
13198W        W78458  38.334   6.774   0.654
13199W        W78459  29.345  11.098  14.797
13200W        W78460   2.301  32.933  12.059
13201W        W78461  20.026  11.855  14.465
13202W        W78462  36.534  31.405   1.444
13203W        W78463  13.253   3.765   4.228
13204W        W78464  30.907  24.171   0.618
13205W        W78465   4.950  10.238  13.070
13206W        W78466  34.669  32.585  13.402
13207W        W78467  32.027  32.945   0.086
13208W        W78468  37.500  37.243   0.942
13209W        W78469  20.593  40.817   3.385
13210W        W78470  35.634  25.262  13.512
13211W        W78471   2.081  12.326  10.902
13212W        W78472  17.749  33.537  12.892
13213W        W78473  25.742   3.821  11.409
13214W        W78474   2.836   3.824   0.029
13215W        W78475  31.493  27.945  13.528
13216W        W78476   1.769  42.912   1.207
13217W        W78477  38.922   7.808   3.226
13218W        W78478  41.939  19.095   2.852
13219W        W78479  28.543  20.121   1.359
13220W        W78480  15.230  26.265  13.051
13221W        W78481  38.622  11.282   1.685
13222W        W78482   4.831   5.865  11.692
13223W        W78483  39.380  18.029  14.966
13224W        W78484  14.303  32.502   2.503
13225W        W78485  27.503  21.829  13.950
13226W        W78486  38.154   7.640  11.826
13227W        W78487  20.073   9.364  10.753
13228W        W78488  44.537  40.020   9.819
13229W        W78489  20.995  21.514  11.546
13230W        W78490  22.455  14.882  14.502
13231W        W78491  13.588  26.189   3.876
13232W        W78492  23.868  40.823   3.548
13233W        W78493  42.871  30.708  11.996
13234W        W78494  43.270   8.137  11.899
13235W        W78495  17.783  17.508  11.069
13236W        W78496   6.242  21.824   1.223
13237W        W78497   5.243  41.319  10.686
13238W        W78498  31.130  13.218   4.610
13239W        W78499   9.770   9.753   3.852
13240W        W78500  34.420  13.754   2.449
13241W        W78501  11.912  28.445   3.761
13242W        W78502  13.320   6.645  14.988
13243W        W78503  13.377  25.496   3.279
13244W        W78504  12.122  14.353   1.265
13245W        W78505  15.907  17.646   1.474
13246W        W78506   8.059  13.648   3.278
13247W        W78507  19.074   5.537  10.415
13248W        W78508  35.578  16.075  12.806
13249W        W78509   7.867  41.411  13.303
13250W        W78510  43.952   5.648   1.398
13251W        W78511  34.222   9.842   0.301
13252W        W78512  33.057  24.259   3.244
13253W        W78513  31.882  42.339  14.893
13254W        W78514  27.112  44.326  13.274
13255W        W78515  27.542  26.948  10.606
13256W        W78516  16.783  31.854   1.440
13257W        W78517  35.979  36.193   2.482
13258W        W78518  19.643  44.883   1.204
13259W        W78519  41.290  25.129   1.326
13260W        W78520  41.315  44.251   0.301
13261W        W78521  42.422  41.925  11.390
13262W        W78522   7.710   5.929   3.474
13263W        W78523  29.024  39.049   2.624
13264W        W78524  30.596  12.888   4.119
13265W        W78525  39.696  29.145  13.304
13266W        W78526   8.624  27.211  12.511
13267W        W78527   6.443  15.833   2.179
13268W        W78528  35.891  33.937   2.336
13269W        W78529  24.256  25.696   0.400
13270W        W78530  18.727  17.286  11.533
13271W        W78531  32.362  11.898  10.983
13272W        W78532  20.729   4.673   0.423
13273W        W78533   5.183  30.739   0.297
13274W        W78534   9.590  35.553   4.123
13275W        W78535  13.326  39.553  14.266
13276W        W78536  15.127  33.646  13.961
13277W        W78537  33.127  36.290  12.906
13278W        W78538  14.459  36.000   0.033
13279W        W78539  22.341  41.492   2.950
13280W        W78540  22.782   9.084   3.252
13281W        W78541  20.801   4.383  13.926
13282W        W78542   8.436  19.784  10.723
13283W        W78543  20.612  39.274   2.291
13284W        W78544  18.809  40.703  10.968
13285W        W78545   5.783  15.592   3.316
13286W        W78546  19.593   5.262  11.678
13287W        W78547  32.087  22.753   2.368
13288W        W78548  18.561  24.639   4.711
13289W        W78549   1.776  24.999   0.420
13290W        W78550  33.364   3.207  13.443
13291W        W78551  29.831   9.769   1.737
13292W        W78552  15.623  27.104  12.825
13293W        W78553  37.586  10.320   4.807
13294W        W78554  13.350   6.650   0.916
13295W        W78555  16.226  40.809  14.968
13296W        W78556  36.028  24.491   4.142
13297W        W78557  21.642  37.497   4.287
13298W        W78558   9.574  44.101   0.357
13299W        W78559  42.321   0.951  12.471
13300W        W78560  25.798  44.342  14.911
13301W        W78561  24.447  22.763  14.416
13302W        W78562   3.745   2.048  13.826
13303W        W78563  10.837  38.012  13.264
13304W        W78564  21.956  35.134  14.434
13305W        W78565  43.979  13.753  13.515
13306W        W78566   1.833   4.175   0.308
13307W        W78567  39.039  17.097  13.823
13308W        W78568   1.761  23.208   0.830
13309W        W78569  34.093  22.347   2.732
13310W        W78570  20.962   5.446  12.585
13311W        W78571  30.743   7.406  10.927
13312W        W78572  30.337  33.317   1.287
13313W        W78573  39.525   4.456   1.236
13314W        W78574  11.263  43.743   2.705
13315W        W78575  27.533   5.814   0.384
13316W        W78576  20.064  27.921  12.406
13317W        W78577  20.296  33.834  14.002
13318W        W78578  19.100  44.812   3.226
13319W        W78579  43.986   2.284   4.070
13320W        W78580  34.108  28.969   4.196
13321W        W78581  36.930  21.287  12.373
13322W        W78582  19.858  17.001  14.331
13323W        W78583  33.137  41.318   1.301
13324W        W78584   2.321  35.105  13.780
13325W        W78585  27.750  10.315   1.323
13326W        W78586  14.995  29.644  13.620
13327W        W78587  11.227  15.114  14.368
13328W        W78588   5.656  26.979  11.502
13329W        W78589  19.720  40.034  11.669
13330W        W78590  32.685  24.940  12.764
13331W        W78591  11.758  33.596  10.524
13332W        W78592  35.459  18.671   0.603
13333W        W78593   4.346  36.556   1.383
13334W        W78594  15.778  27.720   0.023
13335W        W78595  12.590  21.136   4.837
13336W        W78596  25.041  37.495  10.944
13337W        W78597  25.389  10.259  12.980
13338W        W78598  25.883  29.453   1.860
13339W        W78599  40.288  28.305  14.158
13340W        W78600  26.209  29.161  13.948
13341W        W78601   4.787  13.094  12.750
13342W        W78602  27.927  41.010   2.757
13343W        W78603  27.060  34.597   1.819
13344W        W78604  34.577   7.491  13.232
13345W        W78605   0.394  33.512   2.508
13346W        W78606   2.526  22.582  14.814
13347W        W78607  24.158  38.398   0.237
13348W        W78608  18.611  28.243   2.367
13349W        W78609  41.797  12.045   0.265
13350W        W78610  33.422  22.633   3.185
13351W        W78611  31.831  14.546   3.848
13352W        W78612  36.979   3.497  11.223
13353W        W78613  43.343  28.194   4.910
13354W        W78614   3.674  27.394  11.589
13355W        W78615  36.722  33.522   2.334
13356W        W78616  36.930  25.597   1.362
13357W        W78617   5.039  21.122  11.161
13358W        W78618   9.320  14.339   1.320
13359W        W78619  35.310   3.736   4.218
13360W        W78620  10.539  24.951   4.557
13361W        W78621  42.989  32.198  13.802
13362W        W78622  13.182  17.973  11.587
13363W        W78623  17.190   0.878  12.574
13364W        W78624  40.739  26.732   4.283
13365W        W78625  24.530  34.901  14.009
13366W        W78626  22.143  42.897   2.353
13367W        W78627  26.663  26.618  11.641
13368W        W78628  22.827  19.273  13.497
13369W        W78629   4.914  21.151   2.840
13370W        W78630  15.074  16.333  11.954
13371W        W78631  42.400  30.691  14.407
13372W        W78632   1.951  24.559  12.211
13373W        W78633  12.829  31.706   0.313
13374W        W78634  39.009   7.187  12.108
13375W        W78635  17.580  14.228   4.675
13376W        W78636  37.443   0.649  14.814
13377W        W78637  10.330  26.971   0.819
13378W        W78638  12.835   5.902  14.141
13379W        W78639   3.228  25.801   2.431
13380W        W78640  32.115  40.448   5.327
13381W        W78641   3.476   6.968  11.100
13382W        W78642   2.740  23.753   0.244
13383W        W78643  38.139  37.431   4.324
13384W        W78644  29.646  40.669   1.329
13385W        W78645  20.642   0.998  12.556
13386W        W78646  26.619  36.127  13.906
13387W        W78647  31.484  44.791  13.770
13388W        W78648   7.380  34.195  14.339
13389W        W78649   9.889  35.083   2.862
13390W        W78650  32.588  26.725   0.507
13391W        W78651   0.063  15.790   1.315
13392W        W78652  10.302  22.557  13.961
13393W        W78653  40.785  15.939   1.291
13394W        W78654  36.936  37.457  12.007
13395W        W78655  44.700  27.080   3.518
13396W        W78656  16.145  37.159  10.891
13397W        W78657  40.823   9.117  14.817
13398W        W78658  44.373  12.609   1.877
13399W        W78659  24.037  44.380  14.529
13400W        W78660  24.529  27.426   2.393
13401W        W78661  40.404  23.849  11.869
13402W        W78662  31.359  34.533   4.636
13403W        W78663  34.900   2.039   2.135
13404W        W78664   1.841  38.753  12.480
13405W        W78665  28.530   2.866  11.629
13406W        W78666  39.116  35.566  14.919
13407W        W78667  22.510  23.419   3.662
13408W        W78668  39.431  13.238   1.270
13409W        W78669  36.892  19.258   3.194
13410W        W78670  12.852  35.441  10.949
13411W        W78671  42.697   0.396  13.524
13412W        W78672  44.770   0.790  10.814
13413W        W78673  14.067   9.492   0.476
13414W        W78674  37.625  30.590   0.225
13415W        W78675   1.694  44.480   0.347
13416W        W78676  29.961   2.679   2.403
13417W        W78677  14.294  38.873   4.759
13418W        W78678  29.670  25.619   3.322
13419W        W78679  26.406  21.320   3.655
13420W        W78680  22.261  10.913   0.691
13421W        W78681  40.864  40.587  13.675
13422W        W78682  29.688  27.071  11.422
13423W        W78683  15.632  25.454  14.339
13424W        W78684  39.924  16.358  12.304
13425W        W78685  20.844   8.330  14.834
13426W        W78686   6.797  35.367   2.783
13427W        W78687  31.311  15.211   1.424
13428W        W78688  25.522  10.721   4.489
13429W        W78689   2.824   7.288   0.512
13430W        W78690  35.287  20.230  11.991
13431W        W78691  11.845  34.103   0.851
13432W        W78692  40.335  16.720  14.748
13433W        W78693  23.680   4.634   2.274
13434W        W78694  39.454  39.262   3.614
13435W        W78695   8.779   8.912   4.042
13436W        W78696   2.004   0.828  11.174
13437W        W78697  10.103  43.054  12.483
13438W        W78698  43.705   0.325  13.450
13439W        W78699  11.403  13.222  11.965
13440W        W78700  31.984   7.742  13.142
13441W        W78701  11.003  20.718   1.702
13442W        W78702   8.660  21.223   2.805
13443W        W78703  35.956  14.436   4.898
13444W        W78704  25.790  16.318  10.378
13445W        W78705  42.548  14.567  11.592
13446W        W78706  27.979  19.486  11.523
13447W        W78707  27.143  35.955  12.985
13448W        W78708   6.822  11.080  14.986
13449W        W78709  38.969  16.854   1.395
13450W        W78710  41.951  34.602  13.201
13451W        W78711  10.722  44.306   3.413
13452W        W78712  39.878   0.994  13.121
13453W        W78713  39.238  36.946   0.176
13454W        W78714  28.763  41.044   4.701
13455W        W78715  27.045  23.810   1.172
13456W        W78716  30.307  43.005  14.438
13457W        W78717  40.041  11.098  11.159
13458W        W78718  23.674   3.857  11.048
13459W        W78719  25.328  37.872   0.803
13460W        W78720  11.242   0.129  12.440
13461W        W78721  12.669  25.134   0.849
13462W        W78722   5.242  17.140   0.837
13463W        W78723  25.645  42.659   2.586
13464W        W78724   5.907  29.705  11.901
13465W        W78725  44.762  31.005  11.521
13466W        W78726  37.901  32.380  10.883
13467W        W78727  18.193  41.357   2.374
13468W        W78728   8.795  10.706   0.971
13469W        W78729   5.695  42.973  12.383
13470W        W78730  40.379  16.279   1.312
13471W        W78731   0.382  28.659   0.436
13472W        W78732  30.154  33.990   0.991
13473W        W78733  21.477  27.097  13.242
13474W        W78734   3.989   7.796   0.724
13475W        W78735  19.735  29.419  13.569
13476W        W78736  13.124  30.320  14.898
13477W        W78737  39.020   7.658  13.102
13478W        W78738  36.940   6.054   0.934
13479W        W78739  12.340  44.290   1.259
13480W        W78740  27.979  10.033   4.239
13481W        W78741  36.691  19.527   5.107
13482W        W78742  21.198  34.728  11.541
13483W        W78743   1.483  18.694   1.122
13484W        W78744   5.203   0.252   3.316
13485W        W78745  27.651   4.308   2.477
13486W        W78746  35.969  19.465   3.930
13487W        W78747  13.994   9.698  13.854
13488W        W78748  44.832   1.771  12.042
13489W        W78749  15.333  38.841   3.794
13490W        W78750  31.015   9.710   3.311
13491W        W78751  24.705  27.451   4.632
13492W        W78752  44.918  15.504   0.485
13493W        W78753  25.162   1.440   4.431
13494W        W78754  20.247  29.928  11.107
13495W        W78755  28.041  34.116  14.571
13496W        W78756   3.894  19.042   4.696
13497W        W78757  24.078  36.040   3.126
13498W        W78758   7.514  15.375  10.698
13499W        W78759  33.574  24.526   1.317
13500W        W78760  25.537  20.795   4.153
13501W        W78761  21.447  22.708  14.798
13502W        W78762  17.551  43.780  11.497
13503W        W78763   4.391   7.918   4.103
13504W        W78764  27.507   3.283   3.972
13505W        W78765  22.318   2.006   1.405
13506W        W78766  15.849  42.040  14.731
13507W        W78767   7.334  22.632   3.060
13508W        W78768   8.635   7.254   0.693
13509W        W78769  37.841  25.890  14.332
13510W        W78770  26.676  36.493   2.896
13511W        W78771  28.181  36.264   0.041
13512W        W78772  21.222  26.271  10.444
13513W        W78773  17.606  29.248  12.378
13514W        W78774  18.463  25.242  11.108
13515W        W78775  33.612  24.510   3.675
13516W        W78776  35.922   2.112   5.323
13517W        W78777   6.062  29.289  10.221
13518W        W78778  22.038  29.713   1.769
13519W        W78779  18.105  19.655   2.208
13520W        W78780   9.196  19.723  12.958
13521W        W78781  30.494  36.440   1.559
13522W        W78782  14.574   1.372  13.940
13523W        W78783  15.627  29.820   4.401
13524W        W78784  30.927  12.375  12.446
13525W        W78785  42.830   8.406  11.979
13526W        W78786  14.186  15.131  14.894
13527W        W78787  33.396  17.748  12.770
13528W        W78788  38.884  33.061  14.901
13529W        W78789  12.868  11.378  12.380
13530W        W78790  35.654  26.852   5.246
13531W        W78791  35.079  39.317   4.831
13532W        W78792  12.701   0.796   2.389
13533W        W78793   4.791  12.757  14.010
13534W        W78794  18.607  24.807   1.083
13535W        W78795  19.228   0.720  12.453
13536W        W78796  25.691  28.969   4.919
13537W        W78797  34.302   2.483   5.471
13538W        W78798  40.780   3.798  13.443
13539W        W78799  41.953   8.817  11.941
13540W        W78800  26.887  26.018  11.078
13541W        W78801  28.099   4.662   0.730
13542W        W78802  15.731   2.231  11.953
13543W        W78803  25.574   3.395  14.004
13544W        W78804  33.009  12.842   2.323
13545W        W78805  38.426  10.317   3.079
13546W        W78806  39.417  42.745  14.463
13547W        W78807   9.354  21.445  12.617
13548W        W78808  23.053  20.626  11.170
13549W        W78809  21.122  29.634  13.936
13550W        W78810  39.521  35.027  12.320
13551W        W78811  16.816  42.861  12.592
13552W        W78812   2.866   0.435  11.106
13553W        W78813  30.984   1.956   1.386
13554W        W78814  15.871  18.352  11.182
13555W        W78815  20.686  11.096  14.854
13556W        W78816  22.284  12.859   3.674
13557W        W78817  24.066  33.012  14.385
13558W        W78818   9.154  12.659  14.228
13559W        W78819  35.395  22.856  12.042
13560W        W78820   1.970  42.488   4.299
13561W        W78821  13.458  14.328  13.794
13562W        W78822  30.444  35.815   4.231
13563W        W78823  39.307  14.672  14.960
13564W        W78824   7.687  29.051  13.318
13565W        W78825  39.623   0.405  11.143
13566W        W78826  43.049   5.726   1.912
13567W        W78827  24.571   9.634  12.080
13568W        W78828   9.634  12.836   0.348
13569W        W78829  25.997  30.056   3.750
13570W        W78830  30.749  39.395   0.250
13571W        W78831  23.694  40.521  12.416
13572W        W78832  44.260  29.642  12.449
13573W        W78833  16.092   2.865  13.619
13574W        W78834  41.495  37.314   0.903
13575W        W78835   4.656  43.347  10.411
13576W        W78836  27.617  26.478   2.247
13577W        W78837  29.001   9.573  11.560
13578W        W78838  10.842  37.556   3.309
13579W        W78839  13.559   8.745   4.658
13580W        W78840  11.866  39.332  12.399
13581W        W78841  34.776  30.113  13.867
13582W        W78842  16.021  16.253  14.915
13583W        W78843  22.655  38.027  13.514
13584W        W78844  10.926  12.149  13.447
13585W        W78845  36.090  34.093   1.885
13586W        W78846  36.019  16.727   1.917
13587W        W78847  29.907   8.661  13.466
13588W        W78848   8.203  38.260   0.031
13589W        W78849  12.327  39.463  11.667
13590W        W78850  21.853  42.129   3.062
13591W        W78851   1.320  26.656  14.534
13592W        W78852  34.580   9.466   1.844
13593W        W78853  35.106  21.207  10.137
13594W        W78854  25.671  23.584  12.847
13595W        W78855  19.266  32.103   4.345
13596W        W78856  36.841  26.964   1.985
13597W        W78857  20.961  40.298   2.179
13598W        W78858  27.474  18.111  14.213
13599W        W78859   2.398  14.017  12.837
13600W        W78860  41.900   4.658  11.107
13601W        W78861  12.392  13.677   2.348
13602W        W78862   0.049  32.419   0.126
13603W        W78863  37.647  14.687  14.479
13604W        W78864   5.937  30.048   3.785
13605W        W78865   0.742  20.119  14.439
13606W        W78866   3.698  14.048  11.083
13607W        W78867  24.887  34.715   0.933
13608W        W78868   7.113   1.016   1.387
13609W        W78869  28.226  13.846   2.777
13610W        W78870   3.760  42.060  11.186
13611W        W78871  13.473  18.056   5.271
13612W        W78872   9.958   0.686   2.547
13613W        W78873   4.352  14.178  14.245
13614W        W78874  21.092  29.639  12.958
13615W        W78875  23.454  43.432  12.638
13616W        W78876  41.260  43.980  10.822
13617W        W78877  38.875   4.756  12.616
13618W        W78878  28.353  27.046  11.762
13619W        W78879   5.989   0.890  10.694
13620W        W78880   5.332  28.489  14.438
13621W        W78881  41.901  44.921  12.294
13622W        W78882  16.891  14.869   0.725
13623W        W78883  34.742  20.643  13.569
13624W        W78884  15.719  28.613   2.672
13625W        W78885   1.662  24.213  12.491
13626W        W78886  35.039  40.303  13.539
13627W        W78887  37.536   4.347  12.437
13628W        W78888  22.438  35.054  13.583
13629W        W78889   2.420  31.953   4.638
13630W        W78890   3.339  33.495   4.758
13631W        W78891  35.284  26.908  12.933
13632W        W78892  11.086  10.839  14.460
13633W        W78893   0.369  23.456   4.208
13634W        W78894  41.960   7.673  10.891
13635W        W78895  10.525  43.976   1.253
13636W        W78896  18.349  35.844  11.789
13637W        W78897  27.724   3.915   4.232
13638W        W78898  44.331  41.870  13.536
13639W        W78899  42.861  12.335  12.724
13640W        W78900   6.003  22.611   4.958
13641W        W78901  14.286  17.102  10.784
13642W        W78902   6.257  11.205   2.226
13643W        W78903  14.106  21.475  13.892
13644W        W78904   0.994  30.802  13.500
13645W        W78905   4.218  17.426  14.740
13646W        W78906  14.608  16.638   2.268
13647W        W78907  28.241   9.739  12.869
13648W        W78908  18.485  12.300  13.430
13649W        W78909  28.172   6.386   2.135
13650W        W78910   5.938  11.254  13.897
13651W        W78911   5.852   0.960  14.434
13652W        W78912  17.831  22.570   1.480
13653W        W78913   8.994   0.449   0.429
13654W        W78914  30.320   4.360  10.834
13655W        W78915  44.041   2.984   4.635
13656W        W78916   0.187  32.406  13.857
13657W        W78917   5.659  24.117   2.004
13658W        W78918  21.605  29.187  14.493
13659W        W78919  26.502  27.157  14.726
13660W        W78920  16.090  29.644  14.301
13661W        W78921  18.303  43.496  13.600
13662W        W78922  26.946   3.314  10.433
13663W        W78923  30.111   8.790   4.516
13664W        W78924  18.204  39.282   4.913
13665W        W78925  29.024  34.563  11.963
13666W        W78926  38.859  43.040   0.764
13667W        W78927  17.813  25.843  13.001
13668W        W78928   0.736  22.955  13.030
13669W        W78929   9.848  27.220   0.247
13670W        W78930   7.781  39.887  11.191
13671W        W78931  37.917  40.234   1.803
13672W        W78932  22.128   5.767  12.792
13673W        W78933  31.079  42.022   4.209
13674W        W78934   6.860  14.881   3.856
13675W        W78935   9.978   2.365  10.663
13676W        W78936  25.956  32.986  12.143
13677W        W78937  41.417  40.906  11.518
13678W        W78938  12.088  34.955  10.675
13679W        W78939  11.331  22.039  12.865
13680W        W78940   8.483  35.660  11.050
13681W        W78941   9.720  38.600   3.097
13682W        W78942  17.429  43.236   1.690
13683W        W78943   1.934  29.038  14.387
13684W        W78944  19.193   3.700  14.575
13685W        W78945  16.212  15.285  14.159
13686W        W78946  41.752  38.248   2.834
13687W        W78947  40.107  13.303   3.262
13688W        W78948  34.920   8.774  14.490
13689W        W78949  19.588  24.814  14.607
13690W        W78950  31.438  15.227   0.908
13691W        W78951  44.227  44.379   0.442
13692W        W78952   6.392  21.435  12.681
13693W        W78953   1.341  34.085  12.031
13694W        W78954  31.208   8.390  14.942
13695W        W78955  42.473   9.889  13.915
13696W        W78956  23.658  27.658   4.501
13697W        W78957  21.065  31.566   0.694
13698W        W78958  40.570  26.390   1.918
13699W        W78959   9.715  37.840   1.949
13700W        W78960   1.873  21.258  14.504
13701W        W78961  40.449  25.169   0.438
13702W        W78962  10.180   5.861   0.916
13703W        W78963  20.205  27.455   2.866
13704W        W78964   0.501  11.274  10.320
13705W        W78965  13.392   1.618   2.805
13706W        W78966  19.998  34.324  12.200
13707W        W78967  43.692   8.690   1.608
13708W        W78968  16.226   0.499  14.009
13709W        W78969  24.888  23.178   3.641
13710W        W78970  11.641  32.517  10.551
13711W        W78971   6.638  19.204  10.831
13712W        W78972  10.352  33.968   3.830
13713W        W78973  22.061   5.529   2.294
13714W        W78974  24.649  12.665   2.011
13715W        W78975   0.593  39.628  13.510
13716W        W78976  14.381  26.970   0.157
13717W        W78977  24.940  28.810   3.350
13718W        W78978  24.665   8.637   4.240
13719W        W78979  36.821  35.551   2.241
13720W        W78980  23.628  10.204   2.696
13721W        W78981  19.063   1.400   4.739
13722W        W78982  33.184  27.791  10.685
13723W        W78983  36.314   5.718   3.042
13724W        W78984  21.669  43.231   0.668
13725W        W78985  20.512  42.238  13.474
13726W        W78986  18.832   1.255  12.567
13727W        W78987  17.726  43.059  14.734
13728W        W78988  36.023  42.610   0.068
13729W        W78989  18.537  36.259  12.670
13730W        W78990   2.809   6.845   1.954
13731W        W78991   1.458   3.072  11.260
13732W        W78992   1.011  43.320   0.293
13733W        W78993  43.320  18.316  12.970
13734W        W78994  14.312  19.590  12.907
13735W        W78995  17.311  36.076   3.134
13736W        W78996  31.885  32.902   1.433
13737W        W78997  16.801  19.273   1.299
13738W        W78998  38.161  31.225   3.203
13739W        W78999   9.373  13.640   4.681
13740W        W79000  20.741  16.839   4.273
13741W        W79001  37.531  30.667   3.820
13742W        W79002  31.527  29.262  12.887
13743W        W79003  26.526  43.852  11.869
13744W        W79004  12.300   9.097  12.883
13745W        W79005  22.676  23.244   4.123
13746W        W79006   6.842  38.379   3.323
13747W        W79007  32.891  21.946  13.122
13748W        W79008  14.562  19.658  10.250
13749W        W79009  17.336  41.026   0.409
13750W        W79010   4.974  23.103   1.775
13751W        W79011  33.818   2.353   1.214
13752W        W79012   5.938  41.012  12.798
13753W        W79013  13.301  43.460  13.492
13754W        W79014  10.139  28.557   3.976
13755W        W79015  14.810  41.738  11.974
13756W        W79016  40.670  36.751   1.865
13757W        W79017  19.237  10.730  13.858
13758W        W79018   9.213  13.739  13.484
13759W        W79019  44.336   6.778   2.262
13760W        W79020  37.903  30.150   1.337
13761W        W79021  17.767  16.575  13.380
13762W        W79022  15.762  21.135   0.301
13763W        W79023  14.390  34.851  14.467
13764W        W79024   6.455   0.041  13.814
13765W        W79025  32.060  18.567  13.319
13766W        W79026  44.216  35.808   4.181
13767W        W79027  14.740  42.202  11.072
13768W        W79028  30.191  14.829  14.461
13769W        W79029   7.573  21.468   1.332
13770W        W79030  23.482  21.891  10.765
13771W        W79031  36.114  43.538   2.653
13772W        W79032  37.582  10.306   2.253
13773W        W79033  34.971  25.601   2.726
13774W        W79034  39.721  32.652  11.460
13775W        W79035  11.141  17.578  12.400
13776W        W79036  38.281  29.456   4.251
13777W        W79037  31.534  44.011  13.378
13778W        W79038   7.822  33.839   2.376
13779W        W79039   1.781  16.085   1.691
13780W        W79040  10.918  21.628  14.482
13781W        W79041  29.707  11.151  11.557
13782W        W79042   5.864  25.659   3.638
13783W        W79043  10.432   4.752  13.798
13784W        W79044  30.477  15.027   2.779
13785W        W79045  12.450  37.313   2.911
13786W        W79046   5.495  34.184   2.315
13787W        W79047  26.153  43.934   0.941
13788W        W79048   5.184  40.333   2.807
13789W        W79049   1.429  35.597   2.037
13790W        W79050  26.545  10.325   4.169
13791W        W79051  25.515  14.312  14.789
13792W        W79052  42.937   2.812   1.010
13793W        W79053   2.566  39.471  12.104
13794W        W79054  39.079  28.969   1.780
13795W        W79055   4.684   1.297  10.996
13796W        W79056  44.844  44.022  12.419
13797W        W79057  19.458  10.096   4.246
13798W        W79058  18.482  39.266  11.953
13799W        W79059  17.987  34.531  14.404
13800W        W79060  38.277  32.036   1.682
13801W        W79061  29.130   9.824  12.441
13802W        W79062  16.330  24.504  13.123
13803W        W79063  16.142  10.562   2.414
13804W        W79064   9.330  22.243  12.095
13805W        W79065   3.364  25.133   3.054
13806W        W79066  23.173  12.160   4.577
13807W        W79067   4.384  42.473  12.918
13808W        W79068   2.658  39.622  13.419
13809W        W79069   4.976  12.765   0.473
13810W        W79070  29.939  15.396   4.291
13811W        W79071  44.681  39.766  12.760
13812W        W79072   6.735   4.113  10.705
13813W        W79073   5.840  41.917   1.192
13814W        W79074  11.369  42.890   4.529
13815W        W79075  32.730  28.645   3.339
13816W        W79076   1.320  37.854   4.680
13817W        W79077  14.842  44.346   4.664
13818W        W79078   6.758   8.349   2.824
13819W        W79079  31.592  42.163  12.137
13820W        W79080   1.064  12.172   0.530
13821W        W79081  26.153  31.603   0.278
13822W        W79082  10.368  26.447  14.831
13823W        W79083  11.404  20.965   4.081
13824W        W79084  32.832  44.021  13.980
13825W        W79085  39.126  15.589  12.942
13826W        W79086   9.872  37.804  13.367
13827W        W79087  37.594  30.083  13.872
13828W        W79088  30.704  36.037   2.674
13829W        W79089  29.387  10.623   1.250
13830W        W79090  22.471  26.907  12.047
13831W        W79091  12.813  26.105  10.327
13832W        W79092  34.623  32.721   0.427
13833W        W79093  25.700   7.728  13.624
13834W        W79094  41.153  16.699   0.945
13835W        W79095  18.233   0.232   2.251
13836W        W79096  35.569  15.646   4.709
13837W        W79097  15.790  19.640  14.299
13838W        W79098  43.837  20.301  11.245
13839W        W79099  16.086   8.657   0.373
13840W        W79100  37.687   0.934  12.509
13841W        W79101   2.369  17.017   2.703
13842W        W79102  24.662  21.113  13.905
13843W        W79103  33.278  37.930  14.116
13844W        W79104   4.598  12.477   4.588
13845W        W79105  33.936  33.134  14.533
13846W        W79106  36.031   5.382  11.391
13847W        W79107  36.009  36.548   4.487
13848W        W79108   8.205  28.016  11.196
13849W        W79109  42.861   4.795   4.582
13850W        W79110  40.461  43.069  12.485
13851W        W79111   5.701   6.744   2.242
13852W        W79112  39.531  10.863   0.827
13853W        W79113  16.531   5.371  14.649
13854W        W79114  19.670  39.042   2.719
13855W        W79115  41.385   1.655  12.136
13856W        W79116   0.688   4.296  14.910
13857W        W79117  22.500  29.939   4.580
13858W        W79118  10.688  30.322   4.313
13859W        W79119  30.930  22.448  11.248
13860W        W79120  33.922  29.939   2.225
13861W        W79121  21.312   9.659  10.363
13862W        W79122  18.190   5.943  11.873
13863W        W79123  34.164   5.772   4.681
13864W        W79124  41.647  29.936  13.409
13865W        W79125   7.179   5.317   3.848
13866W        W79126  35.512  10.250  14.852
13867W        W79127  20.075  22.195   4.152
13868W        W79128  17.603  40.307  11.361
13869W        W79129  36.620  35.284   0.443
13870W        W79130  23.772  29.163   1.456
13871W        W79131  19.023  18.173   2.279
13872W        W79132  17.277  42.389   0.735
13873W        W79133   2.349  27.678   2.703
13874W        W79134  20.724   1.388   1.947
13875W        W79135  43.853   9.995   9.952
13876W        W79136  41.510  13.446   0.450
13877W        W79137  33.431   6.315  12.886
13878W        W79138  36.822   0.383   0.992
13879W        W79139  35.967  43.429  11.526
13880W        W79140  16.727   1.307   2.291
13881W        W79141  19.747   5.471   2.680
13882W        W79142  28.096   1.274  13.882
13883W        W79143  33.190   1.516  14.649
13884W        W79144  11.108  24.706  13.063
13885W        W79145   6.703  31.531  13.048
13886W        W79146  38.262  44.409  14.458
13887W        W79147  32.155  39.748  14.960
13888W        W79148  17.553  22.104  14.963
13889W        W79149  30.125  15.567  11.500
13890W        W79150  13.425  13.755   3.737
13891W        W79151   2.738  26.515   0.800
13892W        W79152  22.061  12.083  13.003
13893W        W79153  23.151  44.219  11.331
13894W        W79154   8.410  40.788   0.018
13895W        W79155  38.508  20.812   4.559
13896W        W79156   0.082  10.221   4.348
13897W        W79157  15.979   1.355  14.826
13898W        W79158  34.855  30.934   2.800
13899W        W79159  30.411  28.064  10.925
13900W        W79160  15.823  10.934   0.820
13901W        W79161   4.822  36.190   2.715
13902W        W79162   0.426  36.654   0.227
13903W        W79163  40.893  35.261  11.016
13904W        W79164  19.056   0.496  12.918
13905W        W79165  26.045  44.998   0.454
13906W        W79166   9.020  21.746  11.623
13907W        W79167  40.485  27.902   1.796
13908W        W79168  20.185   9.852  11.413
13909W        W79169  17.191  39.251  13.949
13910W        W79170  41.775  12.818   3.790
13911W        W79171  42.945   6.972  14.690
13912W        W79172   6.448  12.890  14.838
13913W        W79173  15.509  40.344   1.240
13914W        W79174  13.350  21.744   0.397
13915W        W79175  10.170  23.474   4.147
13916W        W79176   5.675  11.348  11.522
13917W        W79177  10.894  18.419  12.590
13918W        W79178   4.987  20.746   0.173
13919W        W79179  21.701  21.721   4.408
13920W        W79180  36.047   2.099  12.902
13921W        W79181  14.055  30.623  14.527
13922W        W79182  25.658  30.160  12.116
13923W        W79183  20.163  16.103   1.010
13924W        W79184  18.334   9.561   0.333
13925W        W79185  15.044  15.482   0.828
13926W        W79186   3.425  40.352   0.785
13927W        W79187  27.049  34.143   2.340
13928W        W79188  13.098   4.144   1.888
13929W        W79189   0.780  36.837   2.273
13930W        W79190  30.463  19.793   2.307
13931W        W79191  20.403   5.886  12.049
13932W        W79192  24.677  36.388  14.831
13933W        W79193   4.317   5.633   3.178
13934W        W79194  35.855   5.866  14.743
13935W        W79195   4.404  38.604   0.878
13936W        W79196  33.836  20.257  14.341
13937W        W79197  44.958  37.524  11.538
13938W        W79198  41.350  22.731  13.963
13939W        W79199  19.119  23.701   0.976
13940W        W79200  27.823  32.286  13.082
13941W        W79201  39.790  10.741   1.298
13942W        W79202  36.780  17.175  12.687
13943W        W79203  31.856  36.194   4.116
13944W        W79204  16.140   5.406   4.729
13945W        W79205  17.622  29.993  11.349
13946W        W79206  28.440  41.279   1.533
13947W        W79207  11.300  31.184  10.650
13948W        W79208  36.534  38.837   0.954
13949W        W79209  29.659  41.570  13.036
13950W        W79210  40.199  15.797   4.198
13951W        W79211  20.777  29.690   1.529
13952W        W79212  33.533  20.475  12.620
13953W        W79213  41.565  31.016   2.353
13954W        W79214  28.448  21.960  12.423
13955W        W79215   8.451   0.259   3.654
13956W        W79216  21.254  15.713   3.773
13957W        W79217  11.665  40.989  11.128
13958W        W79218   4.570   1.488   4.604
13959W        W79219  26.405  36.118   4.491
13960W        W79220  32.945   0.762   2.989
13961W        W79221   7.822  28.551  10.737
13962W        W79222   6.250  20.288   4.660
13963W        W79223  11.406  15.682   4.991
13964W        W79224  28.438  27.608   1.385
13965W        W79225  28.222   8.216   0.983
13966W        W79226   2.280  15.655   4.114
13967W        W79227  13.557   4.047   2.775
13968W        W79228  21.135   9.262  10.662
13969W        W79229  37.785   4.532  13.246
13970W        W79230  20.137  18.752   4.167
13971W        W79231  40.442  36.390  12.627
13972W        W79232  43.526   2.342   1.802
13973W        W79233  38.929  41.348   3.850
13974W        W79234  35.860   8.968  12.485
13975W        W79235  21.699  44.764   3.440
13976W        W79236   5.727  23.580   3.339
13977W        W79237   6.775  14.698  13.665
13978W        W79238  25.199  41.083   3.229
13979W        W79239  39.167   2.041   5.388
13980W        W79240  21.680   5.373   1.164
13981W        W79241  23.953  41.108   2.196
13982W        W79242  43.893  39.256   2.082
13983W        W79243  17.342  28.350  13.891
13984W        W79244  37.962   4.957  10.339
13985W        W79245  11.626  16.733   4.377
13986W        W79246  40.486   4.857  13.979
13987W        W79247  22.939   3.384  12.495
13988W        W79248  31.777   5.006  13.608
13989W        W79249  28.660  10.115   1.227
13990W        W79250   2.190  17.334  14.871
13991W        W79251   3.409  26.195   1.858
13992W        W79252  22.525  16.828  13.492
13993W        W79253   0.163   7.139  11.198
13994W        W79254  28.565  19.162   4.194
13995W        W79255  14.668  37.832   0.172
13996W        W79256  36.944   6.172  12.972
13997W        W79257  18.318  35.182   4.121
13998W        W79258  18.177  32.673   0.753
13999W        W79259  30.162  33.735   2.371
14000W        W79260   9.608  32.621  14.386
14001W        W79261   1.976  39.945  14.636
14002W        W79262  14.012  11.573   0.809
14003W        W79263  11.364  21.831  12.372
14004W        W79264  10.674  12.225  12.934
14005W        W79265  43.288  42.392  11.620
14006W        W79266  11.254  31.606  14.333
14007W        W79267   7.881  32.417   2.234
14008W        W79268   6.288   4.686   2.510
14009W        W79269  16.344  17.195   2.369
14010W        W79270   4.368  23.532  12.037
14011W        W79271  12.862  12.387  12.357
14012W        W79272  18.315  17.602   4.796
14013W        W79273  44.494  41.583  11.525
14014W        W79274  43.314  17.263   0.284
14015W        W79275  12.843  16.695   1.266
14016W        W79276   8.079   6.280  14.779
14017W        W79277  32.429  21.005   3.736
14018W        W79278  16.315  26.519   2.385
14019W        W79279  17.674  30.890  10.367
14020W        W79280  36.024   5.828   4.262
14021W        W79281  14.229  11.178   3.196
14022W        W79282   2.710  24.358   4.126
14023W        W79283   7.018   2.401   3.251
14024W        W79284  20.223  15.825   2.876
14025W        W79285  35.919  37.928   0.270
14026W        W79286   6.913  35.857  13.966
14027W        W79287   3.779  41.711   1.743
14028W        W79288  33.308  44.968   2.092
14029W        W79289   8.642  17.008   2.119
14030W        W79290  44.797  10.110   3.377
14031W        W79291   7.363  36.337  13.132
14032W        W79292  28.036  15.036  14.947
14033W        W79293  30.856  29.146  12.615
14034W        W79294   6.696  44.298   2.460
14035W        W79295  34.150  25.180  10.353
14036W        W79296  17.767  15.723  14.282
14037W        W79297  23.127  14.733  10.492
14038W        W79298  32.135  44.815   2.700
14039W        W79299  24.750  20.649  11.633
14040W        W79300  26.447  12.721  12.062
14041W        W79301  18.747  17.223  13.947
14042W        W79302   6.897  44.080  11.114
14043W        W79303  16.353  12.940  12.917
14044W        W79304   4.964   4.862   1.341
14045W        W79305  11.132  21.696  13.731
14046W        W79306   3.438  26.945  13.289
14047W        W79307  30.755  26.155   2.840
14048W        W79308   8.930  35.868   0.397
14049W        W79309  26.538  28.056   2.094
14050W        W79310  44.550  17.242   3.611
14051W        W79311  33.519  11.622   0.454
14052W        W79312  27.209  31.264  13.558
14053W        W79313  26.026  43.305  12.443
14054W        W79314   3.453   2.200   2.154
14055W        W79315  16.796  39.383   3.657
14056W        W79316   3.128  42.956   4.770
14057W        W79317  43.328  34.086   1.856
14058W        W79318  21.212  36.454   3.424
14059W        W79319  32.175  39.072  13.047
14060W        W79320  10.590  32.907  11.050
14061W        W79321  44.154  39.660  14.353
14062W        W79322  26.020  24.864   0.491
14063W        W79323  43.441  10.017   3.028
14064W        W79324  39.827  31.957   2.767
14065W        W79325   8.700  29.053  13.281
14066W        W79326  21.513  39.955   0.353
14067W        W79327  25.225  10.470  14.922
14068W        W79328  12.529  10.711  14.453
14069W        W79329  15.070  20.644   0.035
14070W        W79330   8.359   4.376  11.128
14071W        W79331  21.205  41.860   3.627
14072W        W79332   2.506  38.998  11.853
14073W        W79333   7.349  20.568   4.056
14074W        W79334  29.499  26.149  10.469
14075W        W79335  24.105   5.729   3.443
14076W        W79336   1.366  39.943  13.551
14077W        W79337  43.836  38.466   3.366
14078W        W79338  11.770  27.193   3.107
14079W        W79339  32.053  25.160   3.112
14080W        W79340  25.720  29.562  11.489
14081W        W79341  24.388  11.676   1.180
14082W        W79342   0.789  20.981   0.438
14083W        W79343  33.533  30.021  14.945
14084W        W79344  23.584  41.886   4.599
14085W        W79345  11.839  42.809  14.742
14086W        W79346  30.671  43.308  13.296
14087W        W79347   0.230   9.723   3.149
14088W        W79348  36.507  17.584   1.821
14089W        W79349  10.612  19.714   3.669
14090W        W79350  14.787  35.930   4.740
14091W        W79351   3.746  32.144   4.967
14092W        W79352  26.120  34.856  14.857
14093W        W79353  27.143  33.537   4.153
14094W        W79354  10.871   6.835   0.837
14095W        W79355   7.971  21.740  11.157
14096W        W79356  10.831  43.635   1.521
14097W        W79357  20.604   8.017  10.274
14098W        W79358  35.809  35.360   2.755
14099W        W79359  30.468  16.367   2.301
14100W        W79360  10.225  44.848   2.421
14101W        W79361  39.370  32.492   3.234
14102W        W79362  34.789  12.538   4.187
14103W        W79363   1.324  42.309   0.892
14104W        W79364  42.165  30.123   2.701
14105W        W79365  10.421   0.556   4.647
14106W        W79366  12.166  26.583   1.839
14107W        W79367  16.068  13.798   3.147
14108W        W79368   2.518   9.653   3.658
14109W        W79369  12.061  17.703   2.751
14110W        W79370  32.552  15.345  10.545
14111W        W79371  23.131  43.950  14.799
14112W        W79372   3.718  36.940   1.919
14113W        W79373  42.823  17.763  14.885
14114W        W79374   8.876  11.780  10.950
14115W        W79375  40.300  19.644   0.331
14116W        W79376  14.008   1.854  14.482
14117W        W79377  44.236  23.466   4.254
14118W        W79378  27.448  38.807  11.623
14119W        W79379   0.057  32.054  12.494
14120W        W79380  34.147  31.438  13.775
14121W        W79381  23.714   0.044  12.737
14122W        W79382  27.067   9.816  14.767
14123W        W79383  19.080  15.577  14.092
14124W        W79384  11.638   8.008   5.007
14125W        W79385   4.412  14.220   4.198
14126W        W79386  40.104  43.967  11.716
14127W        W79387  21.098  11.294   3.820
14128W        W79388  28.279  30.521   1.380
14129W        W79389   4.428  25.262   0.351
14130W        W79390   4.991  29.538   0.533
14131W        W79391  24.285  15.352  14.164
14132W        W79392  36.924  44.791   5.202
14133W        W79393  26.537  26.730   4.196
14134W        W79394  33.950  44.238  10.292
14135W        W79395   0.904  28.693   1.758
14136W        W79396  17.306  33.266  12.864
14137W        W79397   3.691  36.073   2.887
14138W        W79398  16.608   4.421   1.029
14139W        W79399  15.725  26.137  12.959
14140W        W79400  33.430  31.940   0.012
14141W        W79401  29.592  11.797   4.569
14142W        W79402  43.674  31.937   1.371
14143W        W79403  16.111  11.525  11.602
14144W        W79404   3.296  17.854  12.355
14145W        W79405  37.183  27.986   3.701
14146W        W79406  30.100   5.218  11.534
14147W        W79407  13.386  24.530  14.762
14148W        W79408  34.678  19.383  12.994
14149W        W79409  29.889  10.422  13.113
14150W        W79410  39.817  23.538  12.015
14151W        W79411   4.020  17.039   2.198
14152W        W79412  21.743  21.681   3.684
14153W        W79413   0.905  16.439   1.263
14154W        W79414   2.860   5.161  11.198
14155W        W79415  44.735  18.103  13.406
14156W        W79416  29.087   1.661  13.911
14157W        W79417   2.258  14.573   2.212
14158W        W79418  40.378  21.789  10.675
14159W        W79419  15.518  36.984  11.477
14160W        W79420  40.891  31.496   4.048
14161W        W79421  22.760  29.666   0.699
14162W        W79422  12.317   5.330  14.274
14163W        W79423  32.558  19.563  14.382
14164W        W79424  23.755   1.228  10.280
14165W        W79425  25.102   8.753   1.935
14166W        W79426  21.038  28.391  12.532
14167W        W79427   9.459  17.966   0.031
14168W        W79428  13.583  24.037   4.161
14169W        W79429  22.242  28.047  12.107
14170W        W79430   9.319  35.522  10.853
14171W        W79431  29.104  15.750   1.735
14172W        W79432  27.513  13.079   1.765
14173W        W79433  30.892  19.781  11.596
14174W        W79434  37.069  17.614  11.387
14175W        W79435  38.450  19.075  11.869
14176W        W79436  11.412  42.403   0.908
14177W        W79437  29.657  41.081   1.681
14178W        W79438   3.511  19.587   2.500
14179W        W79439  43.920  19.130   2.737
14180W        W79440  37.231  10.736  12.388
14181W        W79441   2.471   4.922   2.601
14182W        W79442   6.159  23.606   2.178
14183W        W79443   2.443  32.183  12.690
14184W        W79444  31.528  20.995  13.025
14185W        W79445  43.889   1.273  12.612
14186W        W79446  15.546   4.207   3.700
14187W        W79447   8.373  31.555  10.530
14188W        W79448  33.599  38.605   0.467
14189W        W79449  39.016   5.656  11.934
14190W        W79450   2.768  16.794  11.761
14191W        W79451  17.527  17.745   0.218
14192W        W79452  27.697  13.234   3.145
14193W        W79453  21.107  21.344  10.241
14194W        W79454  28.641   7.342  12.099
14195W        W79455  19.106  20.845  12.661
14196W        W79456   6.459  31.430   3.865
14197W        W79457  19.260   3.309  14.907
14198W        W79458  38.923  34.070   0.882
14199W        W79459  36.331  11.662  13.795
14200W        W79460  34.505  13.562   4.181
14201W        W79461  12.376   0.819   4.294
14202W        W79462  36.565  30.160  12.028
14203W        W79463   6.634  12.580  12.132
14204W        W79464  44.458  23.013   4.174
14205W        W79465   3.266  11.125   1.289
14206W        W79466   9.331  12.534  12.897
14207W        W79467  28.483  38.331   3.258
14208W        W79468  40.831  33.765  13.082
14209W        W79469  42.926  25.080   1.961
14210W        W79470  19.191  40.438   3.123
14211W        W79471  24.103  18.502   3.325
14212W        W79472  29.282  24.923  14.480
14213W        W79473  20.938  42.298  13.770
14214W        W79474  42.816   0.853   0.742
14215W        W79475   5.458  41.749  12.897
14216W        W79476   1.746  22.250   0.860
14217W        W79477  11.848   6.783  10.589
14218W        W79478  43.069  38.353   4.038
14219W        W79479  12.622  27.624   3.275
14220W        W79480  34.899   8.192   0.305
14221W        W79481   2.535  31.358  11.688
14222W        W79482   5.295   8.962   1.031
14223W        W79483  22.523   4.530  12.183
14224W        W79484  44.751  20.579   1.750
14225W        W79485  16.946   8.730   4.188
14226W        W79486  36.988  26.213  12.837
14227W        W79487  15.713  43.272   4.090
14228W        W79488   9.918  24.174  13.491
14229W        W79489  39.321  18.559   0.002
14230W        W79490  16.542  19.284   0.434
14231W        W79491  29.369  19.775  13.074
14232W        W79492  36.931  43.290   1.710
14233W        W79493  22.569   5.662  13.940
14234W        W79494  17.650  11.535  12.417
14235W        W79495  28.510   5.863   1.943
14236W        W79496  37.683  20.743  10.702
14237W        W79497  38.605  29.108   4.061
14238W        W79498  35.280  13.281   0.291
14239W        W79499   5.088  28.374  12.999
14240W        W79500  28.834  10.621  14.123
14241W        W79501  27.457  30.412   0.984
14242W        W79502  37.133   8.860  14.393
14243W        W79503   3.867   8.920  13.279
14244W        W79504  43.868  13.590   2.755
14245W        W79505  13.368  29.997   0.780
14246W        W79506  35.883  30.136  13.559
14247W        W79507  14.847  35.075   2.121
14248W        W79508  10.880   0.462  10.790
14249W        W79509  32.614  22.208  10.735
14250W        W79510   4.261  16.256  11.094
14251W        W79511  26.155   3.818  14.317
14252W        W79512  37.038  40.000   3.667
14253W        W79513   8.816   7.313   3.196
14254W        W79514   8.005  24.167  14.719
14255W        W79515  34.206  15.718  13.529
14256W        W79516  32.529  28.151  12.577
14257W        W79517  28.154  17.080   3.389
14258W        W79518  40.542  16.306  11.072
14259W        W79519  18.942  39.559  11.849
14260W        W79520   5.052  30.145  10.223
14261W        W79521  44.628  25.587  13.513
14262W        W79522  24.654  26.709   3.742
14263W        W79523  32.011  42.404   2.215
14264W        W79524  23.528  42.022  13.204
14265W        W79525   0.889  28.131   3.582
14266W        W79526  35.886  33.758   0.889
14267W        W79527  37.842  44.637  14.721
14268W        W79528  15.796  30.929   0.881
14269W        W79529  29.785  10.846   4.041
14270W        W79530   8.853  13.615   4.734
14271W        W79531  10.148   9.825   1.632
14272W        W79532  13.919  30.174   3.640
14273W        W79533  12.667  38.679   4.692
14274W        W79534  38.955   2.396  11.575
14275W        W79535   1.472  17.340  11.254
14276W        W79536  32.599  11.648   4.155
14277W        W79537  18.186   3.249  14.003
14278W        W79538  16.078  36.286   4.220
14279W        W79539  22.037  22.530   3.287
14280W        W79540  34.120  21.027  12.061
14281W        W79541  23.466   8.217   2.875
14282W        W79542  28.691  29.431  13.941
14283W        W79543   0.151  14.716   1.393
14284W        W79544  41.970   8.588  13.846
14285W        W79545  35.486  11.877   0.894
14286W        W79546  32.522  31.326   3.825
14287W        W79547  39.823  16.682  11.719
14288W        W79548  24.386  15.687   1.740
14289W        W79549  24.411  16.222  14.179
14290W        W79550   2.508  30.447   3.256
14291W        W79551  18.603  26.976  11.146
14292W        W79552  18.701  32.210   0.010
14293W        W79553  28.669  41.831  12.915
14294W        W79554  29.213  14.655  13.535
14295W        W79555  40.467  38.073   2.514
14296W        W79556   5.396  38.487   3.116
14297W        W79557  11.647   8.633   1.776
14298W        W79558  38.082  19.546  14.853
14299W        W79559  17.108  24.907   4.096
14300W        W79560  19.210  26.589   2.262
14301W        W79561  32.169  20.487   0.968
14302W        W79562  22.890  42.796  10.551
14303W        W79563   7.757  15.739   0.235
14304W        W79564   6.850  32.555   3.193
14305W        W79565  16.506   4.252   3.917
14306W        W79566  30.054  32.371   0.152
14307W        W79567   7.228  28.168   4.195
14308W        W79568  11.800  10.213   0.273
14309W        W79569   1.538  27.109  11.266
14310W        W79570  26.729  25.091  14.524
14311W        W79571  25.554  10.045   1.543
14312W        W79572  11.777  33.009  10.750
14313W        W79573   3.142  12.080   1.464
14314W        W79574  44.823  23.140  13.011
14315W        W79575  39.913   5.729   3.690
14316W        W79576  30.026  38.488  11.292
14317W        W79577   9.280  34.649  10.744
14318W        W79578  21.570  41.409   0.476
14319W        W79579  35.094  16.304  11.460
14320W        W79580  26.179  40.792   3.067
14321W        W79581   7.873  33.669  11.898
14322W        W79582  43.884   6.884   0.356
14323W        W79583   5.906   6.892  14.035
14324W        W79584  22.651  26.654  12.915
14325W        W79585  43.973  20.143   4.609
14326W        W79586   6.752  44.419  14.309
14327W        W79587  22.197  25.249  14.560
14328W        W79588   2.973  14.190   3.306
14329W        W79589  12.710  15.136   3.791
14330W        W79590  31.352  37.049   3.250
14331W        W79591  18.028  22.017  10.758
14332W        W79592  32.221  28.534  13.660
14333W        W79593  25.594  13.363  11.915
14334W        W79594  16.193   4.461   1.812
14335W        W79595  28.708   3.285   0.938
14336W        W79596   1.765  41.877   1.746
14337W        W79597  44.963  43.250  14.913
14338W        W79598  10.944  39.048  14.899
14339W        W79599   4.896  31.920  13.252
14340W        W79600   3.401   5.253  10.674
14341W        W79601   4.911  41.927   3.267
14342W        W79602  17.816   5.850  12.960
14343W        W79603  12.093  24.981  10.721
14344W        W79604  43.476  41.612  14.360
14345W        W79605  39.469  15.287  14.299
14346W        W79606  40.981  16.625  14.057
14347W        W79607  11.843  12.204   2.282
14348W        W79608   1.942  42.135   0.253
14349W        W79609  16.109  10.167  12.772
14350W        W79610  39.022  29.403   4.777
14351W        W79611  35.131  20.244   2.733
14352W        W79612  27.119  19.980   3.230
14353W        W79613   5.738  35.334   3.119
14354W        W79614   4.962  32.899   1.003
14355W        W79615   9.699  24.194   1.836
14356W        W79616  39.774  38.913  13.304
14357W        W79617  36.608  16.768   3.724
14358W        W79618  20.157   6.172   4.510
14359W        W79619  41.604  38.821   2.090
14360W        W79620  12.323   1.052  14.669
14361W        W79621  34.339   2.202   1.194
14362W        W79622  37.914  43.196   4.517
14363W        W79623   5.257  13.755   4.521
14364W        W79624  32.069  27.532   1.654
14365W        W79625  44.293   9.066   4.322
14366W        W79626  43.325   9.065   0.973
14367W        W79627  44.382  31.938  10.696
14368W        W79628  19.156  27.512  13.150
14369W        W79629  22.087  11.550   0.376
14370W        W79630  16.659  31.625  14.949
14371W        W79631   1.452  11.682  10.333
14372W        W79632   0.406   2.953   2.792
14373W        W79633  27.988   0.903   0.242
14374W        W79634   8.963   1.381   4.206
14375W        W79635  18.122  29.745  10.708
14376W        W79636  17.991   0.873   2.268
14377W        W79637  33.702   8.214  11.235
14378W        W79638  28.447  34.386   0.812
14379W        W79639  12.453   8.857   2.754
14380W        W79640  31.197  35.974  13.839
14381W        W79641  13.187  24.962   5.057
14382W        W79642  25.347   1.305  12.475
14383W        W79643  30.952   2.014  13.586
14384W        W79644  38.508   9.200   4.075
14385W        W79645  25.184   1.837   3.663
14386W        W79646  25.568  34.999   3.642
14387W        W79647  43.597  22.435  11.945
14388W        W79648  12.162   8.629   1.812
14389W        W79649  28.121  26.508  12.044
14390W        W79650   1.269  34.196   1.839
14391W        W79651  19.205  28.357  14.044
14392W        W79652  30.787  18.256  10.259
14393W        W79653   0.497   3.167   0.539
14394W        W79654   6.852  15.342   3.631
14395W        W79655  35.476  26.229  10.772
14396W        W79656  41.978  40.796   3.123
14397W        W79657  21.215   1.242   4.213
14398W        W79658  24.506  25.421  11.173
14399W        W79659  26.960  17.699  11.617
14400W        W79660   7.341  35.009   2.775
14401W        W79661   8.872  23.311  11.817
14402W        W79662  26.183  36.150  14.727
14403W        W79663  18.600  28.753   0.734
14404W        W79664  28.884  30.689  14.063
14405W        W79665  19.011  22.212  12.024
14406W        W79666  36.554  35.875   1.846
14407W        W79667  44.791  23.729   0.132
14408W        W79668  11.109  17.067   4.108
14409W        W79669  29.981  17.733  14.641
14410W        W79670  25.754  19.765   3.444
14411W        W79671  32.249  11.862   0.628
14412W        W79672  33.469  35.118   3.145
14413W        W79673   9.760  23.775   4.161
14414W        W79674  17.440  11.832  12.801
14415W        W79675   0.219   1.302  14.866
14416W        W79676  26.612   7.305   2.301
14417W        W79677  33.153  19.284  11.520
14418W        W79678   4.120  16.122   0.056
14419W        W79679  21.611  17.062   4.764
14420W        W79680  12.847  29.381   1.869
14421W        W79681  42.816   5.178  14.837
14422W        W79682  20.511  40.325  11.183
14423W        W79683  20.580  32.014  13.567
14424W        W79684  11.659  14.583   1.148
14425W        W79685   7.159  19.212  10.760
14426W        W79686  27.925   2.977   4.126
14427W        W79687  22.025  12.603  11.092
14428W        W79688  14.313  17.120   4.546
14429W        W79689  36.994   8.301   2.054
14430W        W79690  12.830  15.075  11.208
14431W        W79691  37.765  32.521  11.724
14432W        W79692  38.874  40.957  14.418
14433W        W79693  32.461   0.268  12.811
14434W        W79694  21.863  13.779  12.520
14435W        W79695  29.291  22.609   2.822
14436W        W79696  17.656  32.544   4.592
14437W        W79697  25.749   9.124   4.763
14438W        W79698  11.723   5.910   0.956
14439W        W79699  24.105  33.538  14.431
14440W        W79700  27.468  43.103  11.488
14441W        W79701   9.885   4.436   0.852
14442W        W79702   8.882  14.274   3.184
14443W        W79703  31.126   4.950  13.000
14444W        W79704  17.413  21.238   3.480
14445W        W79705   2.197  25.601   4.567
14446W        W79706  43.801  23.274  12.132
14447W        W79707  43.556  30.602   2.899
14448W        W79708  31.334  18.315  10.771
14449W        W79709  11.420   5.808   4.084
14450W        W79710  30.746   6.720   2.625
14451W        W79711  35.675  20.609  11.944
14452W        W79712  44.845  13.775  11.964
14453W        W79713   5.885   1.027  11.634
14454W        W79714   0.941   4.990   3.977
14455W        W79715   9.942  36.837   2.323
14456W        W79716  41.783   0.391  14.941
14457W        W79717  24.282  37.900   0.039
14458W        W79718  36.514  33.812  12.389
14459W        W79719  23.913  36.425  13.466
14460W        W79720  24.437   3.947   2.205
14461W        W79721  11.758  36.257   2.148
14462W        W79722  28.222  32.013   1.214
14463W        W79723  43.772  11.453   2.232
14464W        W79724   2.471   4.208  10.660
14465W        W79725  19.137  42.251   1.721
14466W        W79726   8.311  40.133  11.062
14467W        W79727  25.032  10.669   4.252
14468W        W79728  38.975   4.790  14.024
14469W        W79729   2.974  20.086  12.566
14470W        W79730  11.806  17.126   1.995
14471W        W79731  11.675   7.631  13.602
14472W        W79732  29.678  20.101   4.279
14473W        W79733  29.483  19.292  10.546
14474W        W79734  16.287   8.420  14.887
14475W        W79735   0.588  10.221   2.274
14476W        W79736  33.615  19.764   3.727
14477W        W79737  23.872  29.425  12.056
14478W        W79738   6.395   1.907  13.490
14479W        W79739  28.651  42.926  14.769
14480W        W79740   9.391  37.983   4.211
14481W        W79741   3.533  41.907   4.154
14482W        W79742  18.776  23.737  13.577
14483W        W79743  32.054  13.733   1.366
14484W        W79744  35.347  13.096   2.669
14485W        W79745  39.448   1.039  12.400
14486W        W79746  35.879   8.710  13.770
14487W        W79747  15.045  32.043   0.358
14488W        W79748  25.942  30.656  12.171
14489W        W79749  12.397  40.034   3.174
14490W        W79750  23.507  24.624   1.960
14491W        W79751   5.199  24.942   3.544
14492W        W79752   2.220  23.602  13.953
14493W        W79753  41.399   1.271  10.562
14494W        W79754  33.273  24.523   0.238
14495W        W79755   0.431  31.891  12.151
14496W        W79756  23.618   5.558   1.380
14497W        W79757  43.620  10.878  14.026
14498W        W79758   6.192  38.799  12.525
14499W        W79759  15.323   0.995  14.254
14500W        W79760  42.859  25.125  11.843
14501W        W79761  29.874  44.807  13.203
14502W        W79762  44.756  12.388   1.213
14503W        W79763  22.346  30.669   1.745
14504W        W79764  20.036  36.087   2.710
14505W        W79765  26.391   5.840   2.428
14506W        W79766  13.241  30.103  14.333
14507W        W79767  27.564  15.214   3.834
14508W        W79768   0.712  13.303  11.491
14509W        W79769   7.240  44.733   2.717
14510W        W79770  42.012   0.441   0.398
14511W        W79771  21.558  12.415  10.805
14512W        W79772  16.153  18.186  10.773
14513W        W79773  25.728  13.572  14.266
14514W        W79774  37.861  42.350   1.651
14515W        W79775   9.938  34.544  13.513
14516W        W79776  31.686   1.529  11.653
14517W        W79777  43.878  44.146   2.490
14518W        W79778  11.051  44.276  13.443
14519W        W79779  34.353  15.306   2.310
14520W        W79780  27.084  30.366   3.145
14521W        W79781  35.388  15.170   3.721
14522W        W79782   3.657  26.937  10.382
14523W        W79783  28.745  44.863   3.602
14524W        W79784  15.902  32.929  14.519
14525W        W79785  37.186   0.326  12.215
14526W        W79786  25.499  19.591   0.667
14527W        W79787   9.000   7.475   5.062
14528W        W79788  12.692  26.273   3.986
14529W        W79789   6.427  30.233   1.401
14530W        W79790  33.105  26.930   2.865
14531W        W79791   7.835   1.385  12.612
14532W        W79792   3.679  19.261  10.650
14533W        W79793  20.447  16.685  13.786
14534W        W79794  21.823  27.901  11.869
14535W        W79795  31.065  30.892  13.549
14536W        W79796  11.240  41.565   3.340
14537W        W79797  15.027   3.910   1.288
14538W        W79798  15.750  32.448  10.704
14539W        W79799  23.429  40.192   1.281
14540W        W79800  32.045  23.683  14.440
14541W        W79801   3.512  16.580  13.917
14542W        W79802  20.162  36.337  10.430
14543W        W79803  16.651  39.016   1.885
14544W        W79804  39.274  15.758  13.435
14545W        W79805   0.338  25.134   1.774
14546W        W79806  20.113  10.341   1.209
14547W        W79807  23.025   1.366   0.871
14548W        W79808  36.519  13.431  14.429
14549W        W79809  10.116  16.303  14.924
14550W        W79810  20.544   9.201  13.863
14551W        W79811  40.069  34.622   3.468
14552W        W79812   7.170  35.074  10.763
14553W        W79813  11.799  40.706  10.720
14554W        W79814   7.157   8.793  14.918
14555W        W79815  40.282  14.829   2.343
14556W        W79816  19.040  11.638   3.824
14557W        W79817  13.973  22.233   4.119
14558W        W79818  28.187  38.790   1.210
14559W        W79819  32.035  27.015  11.888
14560W        W79820  24.255   5.251  14.863
14561W        W79821  23.965  42.301  11.979
14562W        W79822  17.109  22.810   0.829
14563W        W79823  11.898  38.836  12.557
14564W        W79824  13.284  40.235   1.770
14565W        W79825  41.749  32.920  12.546
14566W        W79826   9.083  17.773  10.548
14567W        W79827   8.178  18.152   3.559
14568W        W79828  11.917   2.422   0.421
14569W        W79829   6.173   6.905   2.388
14570W        W79830  25.741  12.422   1.394
14571W        W79831  32.969  13.043  12.961
14572W        W79832  42.020  25.429  10.669
14573W        W79833  30.488  21.294   4.587
14574W        W79834   5.404  43.254   4.406
14575W        W79835  29.493  24.209  11.676
14576W        W79836  36.521  18.061   2.734
14577W        W79837  13.658   7.833   1.355
14578W        W79838  41.838  36.308  10.719
14579W        W79839  28.164   7.787   0.662
14580W        W79840   7.083  30.682  11.488
14581W        W79841  11.146  22.056  13.355
14582W        W79842   9.999   7.491   2.698
14583W        W79843   7.705  23.191  11.239
14584W        W79844  24.292  44.283   3.617
14585W        W79845  12.852  33.012  13.148
14586W        W79846  32.567   0.011   1.232
14587W        W79847  19.059  28.452  14.959
14588W        W79848  32.234  34.027  13.467
14589W        W79849  18.836  20.677   1.796
14590W        W79850  41.355  15.724  13.373
14591W        W79851  13.646  40.703   0.382
14592W        W79852  43.061   1.557  11.495
14593W        W79853  18.581  17.206   4.974
14594W        W79854  31.742  37.984  11.754
14595W        W79855  23.155  37.467   5.004
14596W        W79856  39.923  29.957  10.760
14597W        W79857  12.726  28.394   1.804
14598W        W79858  11.694  19.669   2.171
14599W        W79859  33.198  22.063   4.878
14600W        W79860  14.580   9.866  11.858
14601W        W79861  26.890   0.730  13.255
14602W        W79862  17.573   3.434   4.409
14603W        W79863  27.237  19.200   5.343
14604W        W79864   0.026  31.363  14.863
14605W        W79865   2.387  11.297  11.449
14606W        W79866  35.359  17.676   4.290
14607W        W79867  10.787  37.554  13.519
14608W        W79868  31.009  10.097   0.851
14609W        W79869   1.837   9.695   4.082
14610W        W79870  43.713  31.080   0.783
14611W        W79871  26.108  13.976  14.538
14612W        W79872  18.806  33.645  12.887
14613W        W79873   5.478  20.051   3.354
14614W        W79874  15.616  10.663  11.930
14615W        W79875  38.920   5.949   2.727
14616W        W79876   5.124   1.695  10.285
14617W        W79877  29.649  30.035  11.401
14618W        W79878   9.770  21.801  13.316
14619W        W79879  15.644  24.494  12.442
14620W        W79880  30.977  33.956  10.664
14621W        W79881  24.033   0.532   2.914
14622W        W79882  38.355   8.307  10.740
14623W        W79883  16.365   9.728   1.367
14624W        W79884  25.218  28.411   4.119
14625W        W79885  43.582   9.835  14.624
14626W        W79886   5.679  38.470  11.627
14627W        W79887  43.860  14.632  14.490
14628W        W79888   5.414   8.873  12.114
14629W        W79889  39.392  14.482   5.039
14630W        W79890  19.326  28.764   2.965
14631W        W79891  25.611  43.644   0.711
14632W        W79892  20.866  28.596   2.808
14633W        W79893  16.623  36.250  14.954
14634W        W79894   8.264  19.991  13.132
14635W        W79895  11.640  21.498  12.093
14636W        W79896  23.140  13.512  14.804
14637W        W79897  38.284  21.486   2.364
14638W        W79898  16.110  21.205  13.323
14639W        W79899  44.312   4.653  13.875
14640W        W79900   3.904   2.300  13.076
14641W        W79901  23.057   4.896   0.159
14642W        W79902  38.997  25.511   4.141
14643W        W79903   7.733  20.762  11.070
14644W        W79904  13.851  19.298   4.251
14645W        W79905   8.232  29.023  11.227
14646W        W79906  36.986   3.679  12.521
14647W        W79907  32.288  37.976  10.606
14648W        W79908  11.591  14.426  10.674
14649W        W79909  36.095  14.822  14.457
14650W        W79910   3.007  24.668  13.146
14651W        W79911  29.293  13.738  12.030
14652W        W79912  39.958   5.296   0.065
14653W        W79913  24.582   3.020   0.385
14654W        W79914  14.939   5.132  14.175
14655W        W79915  42.280  12.305   3.262
14656W        W79916   4.393  23.926  14.461
14657W        W79917  17.615   5.981   1.839
14658W        W79918   6.462  36.866   4.904
14659W        W79919  42.455   0.191   1.125
14660W        W79920  25.181   8.680  13.468
14661W        W79921  39.181  12.683  12.487
14662W        W79922  43.661  21.105  11.737
14663W        W79923  18.172  43.322   1.336
14664W        W79924  10.064   7.736  13.977
14665W        W79925  23.621   6.247  13.671
14666W        W79926  24.236  30.535  14.396
14667W        W79927  26.593   1.424  13.691
14668W        W79928  26.101  43.908  11.590
14669W        W79929  29.888   0.131   1.059
14670W        W79930  10.804   6.009  12.574
14671W        W79931  13.147  18.496  11.634
14672W        W79932  28.043   8.765  14.566
14673W        W79933  24.680   9.648  14.180
14674W        W79934  20.226  44.695  12.492
14675W        W79935  37.932   1.676   2.218
14676W        W79936  35.798  10.671  14.922
14677W        W79937  43.467   5.322  14.556
14678W        W79938  22.555  21.513  13.816
14679W        W79939  18.043  20.159  14.928
14680W        W79940  23.582   5.865   1.844
14681W        W79941  39.601  23.613  13.500
14682W        W79942  33.742  25.505   1.203
14683W        W79943  27.934   6.685  13.354
14684W        W79944  22.610  23.011  14.429
14685W        W79945  39.596   0.733  10.279
14686W        W79946  42.535  18.560  11.193
14687W        W79947   7.720  28.641   4.616
14688W        W79948  21.351  18.339   4.582
14689W        W79949  39.351   2.915  12.598
14690W        W79950  17.139  28.711   3.781
14691W        W79951  16.805  44.450  10.688
14692W        W79952  17.214   2.602   0.277
14693W        W79953   5.007   3.354  13.990
14694W        W79954  20.988  23.682  14.369
14695W        W79955  43.370  44.662  10.750
14696W        W79956   3.515  44.174   0.727
14697W        W79957  41.326  44.058   1.710
14698W        W79958   2.377  14.833  13.952
14699W        W79959  38.061  21.787   4.284
14700W        W79960  25.248  43.157   0.466
14701W        W79961  20.298  29.726  12.052
14702W        W79962  41.000  42.711   3.308
14703W        W79963   9.109  32.236  13.944
14704W        W79964  25.662  25.812  12.286
14705W        W79965  18.550  25.005   3.324
14706W        W79966   0.253  22.221   2.856
14707W        W79967  36.942   2.401   2.799
14708W        W79968  42.517  16.106  14.473
14709W        W79969  16.314  18.109   0.417
14710W        W79970   1.025  17.981   4.623
14711W        W79971  31.048  33.720  11.119
14712W        W79972  23.126   6.423   1.375
14713W        W79973  29.373  19.131   0.549
14714W        W79974  26.160  17.026  12.856
14715W        W79975   4.919  42.633  11.235
14716W        W79976  41.963  13.302  12.830
14717W        W79977  17.131  32.840  10.718
14718W        W79978  19.698  21.035  12.340
14719W        W79979  18.524  42.507  10.696
14720W        W79980  42.780   1.904  12.957
14721W        W79981  15.820  22.254   2.179
14722W        W79982  22.191  20.618   3.289
14723W        W79983  27.712   4.634  11.258
14724W        W79984   2.385  31.108  13.496
14725W        W79985  39.603  22.700  13.445
14726W        W79986  11.746  35.028   3.175
14727W        W79987   3.087  37.850   1.454
14728W        W79988  21.133  16.639   0.504
14729W        W79989  32.926  43.334   3.205
14730W        W79990   7.395  28.250  10.787
14731W        W79991   8.669  40.337  14.730
14732W        W79992  24.036  18.319  12.568
14733W        W79993  37.384  26.143  14.420
14734W        W79994  23.750   4.115   1.375
14735W        W79995  38.976  44.475   2.849
14736W        W79996   8.228  27.953   2.633
14737W        W79997  40.316   9.201  13.021
14738W        W79998  34.031  21.336   0.520
14739W        W79999  12.754  39.580   1.656
14740W        W80000  27.635  10.336   3.295
14741W        W80001   9.798  40.467  12.456
14742W        W80002  44.500  40.048   1.289
14743W        W80003  39.372   1.340  14.005
14744W        W80004   3.380  15.297  14.531
14745W        W80005  29.403  30.717  14.014
14746W        W80006   3.738  29.989   1.531
14747W        W80007  22.980  38.476   2.390
14748W        W80008   7.793  44.865  11.644
14749W        W80009  28.367  44.975   1.019
14750W        W80010  35.933  28.729  13.532
14751W        W80011  10.608  21.919   2.382
14752W        W80012   2.963  16.776   0.831
14753W        W80013  31.640   7.778   4.579
14754W        W80014  14.989  15.292   0.328
14755W        W80015   9.754   3.088   3.211
14756W        W80016  40.082  11.628   4.139
14757W        W80017  18.295  41.267  13.530
14758W        W80018  35.051  22.095   2.826
14759W        W80019  29.950  20.230   4.697
14760W        W80020  17.054  21.298  12.842
14761W        W80021  44.594  15.364  10.681
14762W        W80022  44.532   3.358   5.034
14763W        W80023  17.057  36.603  14.198
14764W        W80024  18.311   1.039   1.817
14765W        W80025  28.048  36.518  11.695
14766W        W80026   0.810  25.813   0.460
14767W        W80027  38.921  44.819   2.420
14768W        W80028   8.714  36.625   2.613
14769W        W80029  24.429  26.102  12.006
14770W        W80030   0.728  17.844   3.352
14771W        W80031   7.915  13.599   4.339
14772W        W80032  16.762  25.508   3.160
14773W        W80033  22.890  38.820   3.073
14774W        W80034  33.644  38.154  14.499
14775W        W80035  11.792  26.103  13.563
14776W        W80036  14.708  28.164   0.059
14777W        W80037  39.886  36.329  14.969
14778W        W80038  33.310  43.921  13.846
14779W        W80039  43.046  26.605  12.981
14780W        W80040  14.355  14.502   0.357
14781W        W80041  22.982  36.557  11.977
14782W        W80042  31.287  18.679  11.470
14783W        W80043   8.331  13.673   4.673
14784W        W80044  24.066  36.976   1.117
14785W        W80045  10.843  33.629   4.583
14786W        W80046  30.082  35.004  11.232
14787W        W80047   7.427   0.899  13.657
14788W        W80048   8.399  26.590  12.514
14789W        W80049  17.735  39.435   2.056
14790W        W80050  10.837  33.162  10.647
14791W        W80051  11.722  29.623  14.211
14792W        W80052  21.267  19.235  14.933
14793W        W80053  17.758  20.910   3.191
14794W        W80054  31.184  44.849   3.832
14795W        W80055  35.269  23.778  11.025
14796W        W80056   6.477   4.502   1.917
14797W        W80057  37.433  42.342   4.167
14798W        W80058  18.864  20.044  13.766
14799W        W80059   5.233  20.605  11.892
14800W        W80060  29.223  13.197  11.983
14801W        W80061  37.585  19.132   1.881
14802W        W80062  14.805   7.792  12.368
14803W        W80063   4.937  43.542   3.640
14804W        W80064  19.739  40.924   0.831
14805W        W80065  17.374  15.204  12.604
14806W        W80066  38.938  13.604   3.824
14807W        W80067  29.921  27.505  14.313
14808W        W80068   7.422   5.093  13.645
14809W        W80069   0.685   9.739  12.826
14810W        W80070  14.726   8.733  11.333
14811W        W80071   1.823  17.031   0.628
14812W        W80072  32.334  35.116  14.128
14813W        W80073   7.197  37.583  14.374
14814W        W80074   0.017  18.183  13.865
14815W        W80075  33.091  33.607  14.729
14816W        W80076   2.727  22.602   1.438
14817W        W80077  42.218  13.624   4.085
14818W        W80078  19.912  28.180  11.983
14819W        W80079  40.427  41.332  14.804
14820W        W80080  14.972  36.711   1.192
14821W        W80081   7.406  17.219  10.682
14822W        W80082  14.285  30.859   1.728
14823W        W80083  15.216  36.552   2.261
14824W        W80084  32.811  38.964  10.085
14825W        W80085  36.280  20.844  13.809
14826W        W80086  18.111  26.186   3.926
14827W        W80087  36.157  35.460  12.559
14828W        W80088  42.454  32.087  13.588
14829W        W80089  22.602  18.793  13.552
14830W        W80090  22.721  41.249  10.360
14831W        W80091   8.303  37.850   0.892
14832W        W80092  10.411  44.942   0.008
14833W        W80093   8.067  35.568   2.983
14834W        W80094  34.388  30.096   1.001
14835W        W80095   6.472   6.039   2.768
14836W        W80096  15.361  24.996   4.224
14837W        W80097  24.181  42.005   3.877
14838W        W80098   9.629   6.418   4.050
14839W        W80099   0.870  29.385  13.420
14840W        W80100   5.162  30.453  11.462
14841W        W80101  21.020  38.811   3.962
14842W        W80102  20.246   8.898  12.544
14843W        W80103  25.640  35.936   0.379
14844W        W80104  28.941  17.079  14.401
14845W        W80105  32.884   8.279  10.706
14846W        W80106  21.707  31.978  11.044
14847W        W80107  36.033  19.945   0.910
14848W        W80108  31.852  29.662  12.851
14849W        W80109   2.743  28.002   5.544
14850W        W80110  39.521  17.791   1.485
14851W        W80111  10.835  24.966   1.155
14852W        W80112  30.920  24.305  14.736
14853W        W80113  15.164   6.971   3.989
14854W        W80114  33.369  15.244  14.580
14855W        W80115   3.143  20.986  12.118
14856W        W80116   2.195  25.740  14.138
14857W        W80117  42.867  14.204  13.943
14858W        W80118   3.916  42.306  13.404
14859W        W80119  16.583  38.896   3.252
14860W        W80120  24.761  35.584  12.395
14861W        W80121   9.187   2.979   3.952
14862W        W80122  44.328  13.523  14.400
14863W        W80123   8.129  34.393   0.211
14864W        W80124  34.228  39.933  13.921
14865W        W80125  32.575  42.825   2.140
14866W        W80126   4.197   0.457  12.040
14867W        W80127   2.420  12.681  12.268
14868W        W80128  31.225  42.983  12.662
14869W        W80129  38.233   9.818  13.043
14870W        W80130  32.474  15.338  11.873
14871W        W80131  25.422  30.621  12.129
14872W        W80132  13.308  19.489  12.015
14873W        W80133  21.282  11.807   4.205
14874W        W80134   2.285  18.851   0.804
14875W        W80135  18.802  18.035  11.976
14876W        W80136  28.263   3.074   1.225
14877W        W80137   8.819   4.012  14.734
14878W        W80138  16.696  39.752   1.309
14879W        W80139  32.589  15.255   0.857
14880W        W80140  22.491   2.328   4.951
14881W        W80141  37.097   5.775   0.511
14882W        W80142   0.290  31.123   4.287
14883W        W80143  16.631  43.936   2.344
14884W        W80144   1.869  39.505  11.460
14885W        W80145   8.159  32.572   4.771
14886W        W80146   9.314  38.808   2.829
14887W        W80147   5.859  20.299   1.362
14888W        W80148   9.426   2.911   2.404
14889W        W80149  26.976  14.168   4.112
14890W        W80150  37.367  38.637  14.576
14891W        W80151  11.406  43.563  12.491
14892W        W80152   5.474  29.077  11.567
14893W        W80153   4.693  33.656   1.545
14894W        W80154  42.399   0.262   2.137
14895W        W80155  21.497  15.786  13.000
14896W        W80156  24.044   4.259   2.305
14897W        W80157   7.649  12.566  12.538
14898W        W80158   8.378   8.978   1.266
14899W        W80159  26.583  38.792  12.819
14900W        W80160   8.152  23.619  12.511
14901W        W80161  24.081   8.052  13.276
14902W        W80162  12.035  17.580   1.784
14903W        W80163  25.528  41.288   2.727
14904W        W80164  14.631  42.199   0.466
14905W        W80165  33.464  33.552   1.612
14906W        W80166  36.756  29.588  14.736
14907W        W80167  40.468  34.498   4.204
14908W        W80168  41.876  44.483   4.536
14909W        W80169  41.516  20.775  13.121
14910W        W80170  16.570  11.700   3.638
14911W        W80171  24.593   9.432  13.483
14912W        W80172  12.339  18.133   2.731
14913W        W80173  10.701   1.835   0.028
14914W        W80174  27.120  44.397   4.150
14915W        W80175  32.908   8.625  14.748
14916W        W80176  23.545  34.929   3.589
14917W        W80177   9.357   0.676  11.563
14918W        W80178  29.068  28.102   3.400
14919W        W80179  30.516  31.097  10.857
14920W        W80180  13.349  31.545  12.535
14921W        W80181  38.340  30.671  11.441
14922W        W80182  11.324   8.976   0.415
14923W        W80183   1.786  15.091  14.987
14924W        W80184  34.826  34.042  13.008
14925W        W80185   6.253  13.188   4.116
14926W        W80186  28.594  11.383   3.129
14927W        W80187  31.737  20.145  12.830
14928W        W80188  38.575  30.102   0.790
14929W        W80189  11.938  37.471   2.916
14930W        W80190  38.311  23.641   4.614
14931W        W80191   9.365   7.878   2.185
14932W        W80192  23.209  44.476   1.774
14933W        W80193  30.450  14.617  11.580
14934W        W80194  38.418  31.521  10.714
14935W        W80195  25.451  13.243  11.422
14936W        W80196   3.446  16.270  11.503
14937W        W80197  21.843  13.718  13.067
14938W        W80198  40.017  37.999  13.122
14939W        W80199  19.491   0.953  13.889
14940W        W80200  12.932  30.839   1.892
14941W        W80201  20.480  32.674  14.740
14942W        W80202  16.093  44.022   3.182
14943W        W80203  25.179  16.205   0.498
14944W        W80204  26.619  33.223   1.778
14945W        W80205  19.202  22.497  11.578
14946W        W80206  27.941  28.124   3.080
14947W        W80207   4.859  24.495   4.935
14948W        W80208  17.654  27.004  11.084
14949W        W80209  10.763   1.948   3.610
14950W        W80210   4.510  37.926  14.506
14951W        W80211  22.606  36.062  13.563
14952W        W80212  14.680  26.946   3.843
14953W        W80213  26.143   9.120   2.793
14954W        W80214  39.843  34.906   2.159
14955W        W80215  30.844  21.604   1.771
14956W        W80216  12.760  36.885   1.210
14957W        W80217  33.047  27.457   2.756
14958W        W80218  19.639  23.548  11.999
14959W        W80219   2.526  20.551  12.940
14960W        W80220  13.210  12.865  10.664
14961W        W80221   4.004  44.445   0.804
14962W        W80222  20.742   5.977   3.088
14963W        W80223  37.894  28.618   0.654
14964W        W80224  35.736   2.449   3.315
14965W        W80225   3.036  30.624   3.354
14966W        W80226  34.141  31.261  12.560
14967W        W80227  11.107  32.883   1.921
14968W        W80228  28.413   4.810  13.916
14969W        W80229   9.438  27.845  11.657
14970W        W80230  23.434   9.672  11.487
14971W        W80231  34.383   8.648  14.697
14972W        W80232  40.901  39.729   5.127
14973W        W80233  12.503  41.248   3.840
14974W        W80234   0.287   0.176   1.017
14975W        W80235  23.143  38.085   2.103
14976W        W80236  26.055  41.321   3.771
14977W        W80237  44.741   9.376   4.407
14978W        W80238  19.645  10.864   4.522
14979W        W80239  27.945  18.020   4.240
14980W        W80240   7.416  28.503   2.813
14981W        W80241  18.110  22.250  11.760
14982W        W80242  30.581  35.985  11.175
14983W        W80243  38.506  26.538  14.993
14984W        W80244  15.308   7.388  10.501
14985W        W80245  32.077  15.588  12.092
14986W        W80246  37.955  13.238  11.025
14987W        W80247  36.598  34.935  11.056
14988W        W80248  14.777  38.811   4.519
14989W        W80249   8.851  17.670   4.296
14990W        W80250   4.456   7.820   2.733
14991W        W80251  35.867  42.372   4.903
14992W        W80252   1.795  20.744   3.691
14993W        W80253  10.844  18.519   4.815
14994W        W80254  43.783  36.805   4.062
14995W        W80255  30.130  10.708  14.931
14996W        W80256  18.249  19.333  11.053
14997W        W80257  18.859  30.070   4.982
14998W        W80258  35.839  11.952  11.504
14999W        W80259  14.419   6.175  12.612
15000W        W80260   2.547  19.790   1.637
15001W        W80261   6.232   3.898  10.705
15002W        W80262  35.877  11.372   4.214
15003W        W80263   0.715  29.461   0.446
15004W        W80264  14.057  38.830  11.171
15005W        W80265  21.426  35.572   4.183
15006W        W80266  26.927   8.182  14.347
15007W        W80267   6.840  35.546  11.786
15008W        W80268  27.969   2.827  13.388
15009W        W80269  37.032  16.589   0.362
15010W        W80270  27.953  36.761  14.948
15011W        W80271  16.062  29.694  12.816
15012W        W80272  21.010   8.864  12.060
15013W        W80273  31.355   1.345   2.820
15014W        W80274  35.165  20.097  11.001
15015W        W80275  11.211  43.026   0.375
15016W        W80276  20.658  28.575  13.828
15017W        W80277  44.750  17.662  14.301
15018W        W80278  22.813   1.436   0.321
15019W        W80279  12.768  28.489  14.280
15020W        W80280   2.295  33.504  12.067
15021W        W80281  24.489   2.490  14.530
15022W        W80282   7.862  30.401   2.386
15023W        W80283  19.569  34.778  10.264
15024W        W80284   4.919  21.693  11.981
15025W        W80285  21.470  23.544   2.319
15026W        W80286  25.101   1.390   3.921
15027W        W80287  17.740  24.049  14.020
15028W        W80288  14.169  15.311  12.655
15029W        W80289  20.658   2.748  11.966
15030W        W80290  30.422  39.619  13.056
15031W        W80291  34.243  26.906   1.539
15032W        W80292   9.126   6.328   4.105
15033W        W80293  28.543  34.049  14.464
15034W        W80294   4.897   6.398  12.484
15035W        W80295   9.437   6.505   3.192
15036W        W80296  18.694  32.591   0.775
15037W        W80297   8.304   8.287  10.475
15038W        W80298  20.280  43.388  12.885
15039W        W80299  33.560   2.489  13.967
15040W        W80300  15.698  13.418  10.703
15041W        W80301  41.552  38.607  10.629
15042W        W80302   0.719  13.084   2.736
15043W        W80303   8.251   2.270   3.218
15044W        W80304   5.764  11.902   1.782
15045W        W80305  41.593   5.334  11.528
15046W        W80306   4.039  43.920   1.444
15047W        W80307   0.326  32.131   0.460
15048W        W80308  28.449  27.657  14.563
15049W        W80309  10.874  15.641  10.725
15050W        W80310  34.826   7.265  14.606
15051W        W80311  23.403   2.233   2.890
15052W        W80312  37.051  24.234  12.214
15053W        W80313  15.292  38.446   0.334
15054W        W80314  41.840   4.351  14.860
15055W        W80315   2.339  27.786   1.307
15056W        W80316   2.539  28.609  14.970
15057W        W80317   2.780   0.039  12.811
15058W        W80318  32.173   6.429  13.462
15059W        W80319  27.986   9.859   1.225
15060W        W80320  10.444  15.053   1.438
15061W        W80321  12.688  40.089   0.913
15062W        W80322  15.205  14.068  12.345
15063W        W80323  11.927  22.277  12.938
15064W        W80324  36.050  40.469   1.397
15065W        W80325  27.514  17.736  13.861
15066W        W80326   1.335  14.580   3.336
15067W        W80327  36.885   0.626  14.403
15068W        W80328  31.476  18.293   0.031
15069W        W80329  29.180  20.514   4.332
15070W        W80330  24.178  43.370   3.670
15071W        W80331   0.712  13.435   1.470
15072W        W80332  14.721  35.577   1.519
15073W        W80333  37.826  12.794   0.698
15074W        W80334  15.324  29.966   2.485
15075W        W80335   4.968  27.492  12.516
15076W        W80336  38.186  15.570   2.203
15077W        W80337  15.174  19.452   9.752
15078W        W80338   0.583  24.074  14.617
15079W        W80339   9.901  19.449   4.119
15080W        W80340  43.214  13.355  11.279
15081W        W80341  38.775  20.718  12.219
15082W        W80342  40.531  40.902   3.127
15083W        W80343  15.525  31.974   0.485
15084W        W80344  38.193  34.532  13.393
15085W        W80345   2.046  39.078   4.221
15086W        W80346  20.636  41.409  14.752
15087W        W80347  29.624  40.233   2.156
15088W        W80348  34.424  39.906   4.517
15089W        W80349  39.930  30.211  14.906
15090W        W80350   1.996   6.116  11.050
15091W        W80351   8.371  13.833  11.212
15092W        W80352   1.695  12.681   1.799
15093W        W80353  43.485  15.115  11.510
15094W        W80354  32.334  37.091   4.118
15095W        W80355  21.216  15.248   4.529
15096W        W80356  35.857  27.997  10.673
15097W        W80357   1.685  41.374  13.828
15098W        W80358  15.730  30.008   3.523
15099W        W80359  36.561  25.652   2.345
15100W        W80360  23.227  39.523  13.514
15101W        W80361   8.777   1.252  11.634
15102W        W80362  39.993  22.492  11.160
15103W        W80363  30.671  18.103  12.529
15104W        W80364   3.404  22.987   2.065
15105W        W80365  15.765  41.269   0.372
15106W        W80366  13.635  41.543   4.522
15107W        W80367  41.242  37.345  11.844
15108W        W80368  20.065   4.181  11.439
15109W        W80369   3.802   3.303  12.845
15110W        W80370  38.278  26.682  14.552
15111W        W80371  25.635  35.078  10.696
15112W        W80372  43.101  13.716  12.496
15113W        W80373  11.972  26.188   0.293
15114W        W80374  22.088   1.396  10.785
15115W        W80375  40.404  27.619   3.785
15116W        W80376   0.508  38.586  12.975
15117W        W80377  39.151  34.007  11.148
15118W        W80378   4.719  28.733  12.886
15119W        W80379   8.707  22.258  14.815
15120W        W80380  40.033  13.609   2.334
15121W        W80381  38.481  40.367  14.383
15122W        W80382  17.602   8.304   4.296
15123W        W80383  35.470  35.805   3.684
15124W        W80384  28.334  14.934  11.680
15125W        W80385  38.149  33.181  11.061
15126W        W80386  15.372   5.404  14.029
15127W        W80387  43.351   3.394   1.692
15128W        W80388   0.224  40.302   2.735
15129W        W80389  37.767  44.728  13.856
15130W        W80390   7.962  40.364  11.340
15131W        W80391  28.406   6.559  10.630
15132W        W80392   8.350  15.109   3.623
15133W        W80393  36.105  31.028  11.593
15134W        W80394  42.589   1.827   4.198
15135W        W80395   5.822  13.466   0.758
15136W        W80396  15.172   8.533  12.999
15137W        W80397  18.306  23.351  12.467
15138W        W80398  29.613   7.575   1.475
15139W        W80399  40.654  38.203  14.270
15140W        W80400  24.994  31.709  13.714
15141W        W80401  27.875  41.563  13.029
15142W        W80402  10.371  39.497  13.004
15143W        W80403  11.541  30.764   4.113
15144W        W80404  32.183  34.464  10.800
15145W        W80405  34.989  37.772   3.063
15146W        W80406  41.882  24.396  10.667
15147W        W80407  44.652  14.831   1.376
15148W        W80408  37.193  40.571  10.602
15149W        W80409   4.831   0.132  11.590
15150W        W80410  34.695  24.122   2.679
15151W        W80411  40.826   1.788  14.411
15152W        W80412  12.423   7.434   2.813
15153W        W80413  35.054   1.819  14.291
15154W        W80414  39.990  22.522   4.850
15155W        W80415  35.499  28.190  12.546
15156W        W80416  36.477  22.150   1.289
15157W        W80417  28.925   4.636   0.287
15158W        W80418  42.697  30.473  12.414
15159W        W80419  28.371  26.306   2.665
15160W        W80420  41.943   0.998  13.650
15161W        W80421  37.030   2.742  12.732
15162W        W80422   2.408   3.354  10.971
15163W        W80423  15.793  41.208  10.975
15164W        W80424   3.920  31.391  12.047
15165W        W80425  32.230  44.405  10.619
15166W        W80426  30.559  35.000   2.318
15167W        W80427  10.071  31.527  10.734
15168W        W80428   7.361  27.386  12.962
15169W        W80429   9.930  41.552  14.510
15170W        W80430  22.912  37.317  13.003
15171W        W80431   4.340  30.228   2.677
15172W        W80432  25.080  26.684   3.448
15173W        W80433  41.477  23.740   1.661
15174W        W80434  28.504   1.099   3.285
15175W        W80435  37.802  29.102   0.474
15176W        W80436  10.839  38.003  13.778
15177W        W80437  28.326  33.009   0.763
15178W        W80438  31.639  30.427   0.340
15179W        W80439  42.887  35.007   4.577
15180W        W80440  36.945  38.636   2.300
15181W        W80441  20.189  22.028  10.716
15182W        W80442  27.718  35.824   1.946
15183W        W80443  26.766  20.425  11.626
15184W        W80444  38.315  24.156  13.437
15185W        W80445   9.255  19.998  12.005
15186W        W80446  41.896  13.188  10.469
15187W        W80447  24.422  26.104   0.691
15188W        W80448  35.138  22.435   1.888
15189W        W80449  26.338   9.855   2.249
15190W        W80450  36.529  28.527  14.140
15191W        W80451  28.375   3.190  14.375
15192W        W80452   5.163  25.726   2.350
15193W        W80453  40.949  16.190   4.148
15194W        W80454  15.692  30.973   3.144
15195W        W80455  28.951  16.766  12.412
15196W        W80456   6.454  38.962   3.926
15197W        W80457  32.067  42.227  13.407
15198W        W80458  15.418  32.321   0.853
15199W        W80459  27.791  26.095   0.005
15200W        W80460  30.924  33.913   4.906
15201W        W80461  25.506  43.380   1.186
15202W        W80462  12.477  20.529  14.934
15203W        W80463  38.315   1.535   0.254
15204W        W80464   0.497  33.942   2.235
15205W        W80465  16.772  29.732  10.992
15206W        W80466  27.489  23.547   1.321
15207W        W80467  35.855  13.157   2.916
15208W        W80468   6.691  25.150  10.722
15209W        W80469  12.591  31.476   3.690
15210W        W80470   8.002   2.833  11.416
15211W        W80471  10.295  32.887   3.626
15212W        W80472  30.288  14.595  14.920
15213W        W80473  32.462   8.684  13.453
15214W        W80474   0.695   6.311  14.425
15215W        W80475  30.198  41.856   3.688
15216W        W80476  11.595  44.865   1.714
15217W        W80477   9.405  20.109  11.510
15218W        W80478  11.869  42.261  11.992
15219W        W80479  18.567   1.887  10.130
15220W        W80480  23.770  43.268   2.822
15221W        W80481  23.015  31.867  11.028
15222W        W80482  30.826  13.380  10.685
15223W        W80483  40.536   2.797  13.064
15224W        W80484  41.694  36.460  11.993
15225W        W80485  16.179  18.565  13.743
15226W        W80486  23.539  43.317  12.077
15227W        W80487  40.564  29.080  13.545
15228W        W80488  14.232  36.483  12.031
15229W        W80489  14.807  14.797   1.938
15230W        W80490   4.642  32.444   1.829
15231W        W80491   4.453  23.687   3.627
15232W        W80492   7.941   4.938   4.497
15233W        W80493  35.558  37.762   4.780
15234W        W80494  32.449   3.510  12.915
15235W        W80495  15.033  21.528   3.624
15236W        W80496  32.773  33.041   1.834
15237W        W80497   2.210  31.221   0.908
15238W        W80498  24.546  19.642  12.054
15239W        W80499  15.358  41.483  10.095
15240W        W80500  21.426  30.939   1.826
15241W        W80501  17.715  16.240   4.346
15242W        W80502  14.125  25.715   1.937
15243W        W80503  11.369   2.187  13.588
15244W        W80504   2.234   8.117   2.099
15245W        W80505  38.586  35.904   2.313
15246W        W80506  17.989  36.925  13.214
15247W        W80507  27.610  25.388   4.605
15248W        W80508  20.316  17.541   1.631
15249W        W80509  28.023  25.328  12.440
15250W        W80510  43.402  43.018  14.064
15251W        W80511  25.575   2.177   3.666
15252W        W80512  13.345  21.164   4.166
15253W        W80513  19.738  16.384   1.009
15254W        W80514   0.427  26.909   1.897
15255W        W80515  30.667  44.933  14.939
15256W        W80516  15.685   3.390   3.377
15257W        W80517  40.512  21.571   4.833
15258W        W80518  14.387   4.859   0.357
15259W        W80519   0.788  23.517  11.676
15260W        W80520  11.478  38.554   0.901
15261W        W80521  34.608   8.856  12.712
15262W        W80522  20.756  34.587   0.892
15263W        W80523  21.561  37.513  13.706
15264W        W80524  40.472  41.266   3.497
15265W        W80525  32.410  38.179  14.014
15266W        W80526  20.307  36.558  14.890
15267W        W80527  36.773  39.431  11.605
15268W        W80528  30.481  28.915   2.889
15269W        W80529  20.382  36.347   1.335
15270W        W80530  18.762  13.714  11.209
15271W        W80531  16.061   0.079   3.873
15272W        W80532   7.497  13.852  11.144
15273W        W80533  10.817  40.257   3.095
15274W        W80534  30.983  19.004  11.996
15275W        W80535  37.950  37.114   1.183
15276W        W80536  39.712   5.226  10.694
15277W        W80537  38.579  39.465  13.873
15278W        W80538  32.851  31.730  11.932
15279W        W80539  10.754  30.062  10.148
15280W        W80540  17.778  16.131  10.952
15281W        W80541  28.842  36.992   4.162
15282W        W80542  26.642  43.592  10.536
15283W        W80543   5.358  28.568   2.712
15284W        W80544  25.356   2.429   0.220
15285W        W80545   2.449  15.167  11.370
15286W        W80546  21.490  28.232   3.577
15287W        W80547  42.799  17.941   2.179
15288W        W80548   1.770   6.816   4.400
15289W        W80549  31.646  38.276   1.278
15290W        W80550  32.554  10.234   2.813
15291W        W80551   7.740   2.323  14.382
15292W        W80552   8.794  17.511  11.847
15293W        W80553  34.195  39.999  13.035
15294W        W80554  23.922  41.857   0.404
15295W        W80555   9.723  30.084  12.675
15296W        W80556  11.588  36.815   4.064
15297W        W80557  17.634  44.409  12.661
15298W        W80558  43.035   1.458   4.148
15299W        W80559  23.612   5.850  14.050
15300W        W80560   2.273  23.261   3.696
15301W        W80561  10.091  33.850  10.619
15302W        W80562  12.128   8.246  14.248
15303W        W80563  14.701   4.082   2.690
15304W        W80564   0.270  11.673  14.121
15305W        W80565   2.954  27.279   1.238
15306W        W80566  33.394  33.541  12.918
15307W        W80567   3.285  34.244   9.914
15308W        W80568  32.943  31.553   0.924
15309W        W80569   0.211  14.268  11.475
15310W        W80570   2.125  42.043  11.027
15311W        W80571  41.156   9.798   0.926
15312W        W80572  36.136  11.098   1.714
15313W        W80573  36.822  30.440   1.663
15314W        W80574   6.757  10.059  14.777
15315W        W80575  42.860  26.949   3.444
15316W        W80576  21.159  34.237  12.740
15317W        W80577  36.978  22.140  13.224
15318W        W80578  17.834  37.572  11.934
15319W        W80579  11.243  14.263  11.044
15320W        W80580  31.906  34.534   2.873
15321W        W80581   7.206  35.641   2.619
15322W        W80582   7.877  36.090  10.731
15323W        W80583  15.651  44.773  14.850
15324W        W80584  27.750  38.323  11.628
15325W        W80585  11.802   4.454   4.324
15326W        W80586  19.738  29.458  14.441
15327W        W80587  42.068  40.546  13.054
15328W        W80588   2.304  35.460   2.757
15329W        W80589  32.442  35.006  10.719
15330W        W80590   5.847  24.972  13.660
15331W        W80591  10.765  23.053  14.453
15332W        W80592   8.036  16.254  14.409
15333W        W80593  27.864  21.300  10.834
15334W        W80594  17.240  18.732  12.903
15335W        W80595  26.016   5.939  11.890
15336W        W80596  22.158  21.271  11.136
15337W        W80597   9.225  20.721   2.422
15338W        W80598  20.632  39.096  10.528
15339W        W80599  22.565  24.942  12.421
15340W        W80600  29.665  20.702   3.531
15341W        W80601   2.219  23.967  11.651
15342W        W80602   1.620   0.726   2.653
15343W        W80603  14.400  33.354   2.361
15344W        W80604  11.282  24.672  12.142
15345W        W80605   0.368  16.305   3.309
15346W        W80606  44.436  33.582  10.088
15347W        W80607   9.004  17.768  11.448
15348W        W80608   3.961   9.684   2.690
15349W        W80609  35.169  11.350  12.033
15350W        W80610  41.451   9.355  11.274
15351W        W80611  28.075   8.221  10.963
15352W        W80612  20.128  40.763   3.671
15353W        W80613  30.424  41.158  14.925
15354W        W80614  28.585  21.503  12.264
15355W        W80615  14.144  35.861   0.984
15356W        W80616  41.253   3.460   4.895
15357W        W80617  31.075   2.342   0.507
15358W        W80618  32.427   1.197   2.232
15359W        W80619   0.765  38.891   2.305
15360W        W80620  11.600  17.585  14.483
15361W        W80621  20.541  37.799  12.192
15362W        W80622  11.242  25.477  13.384
15363W        W80623   2.915  12.672   5.343
15364W        W80624  25.353  43.288  14.397
15365W        W80625  21.060  16.807  13.359
15366W        W80626  25.656   6.390   1.905
15367W        W80627  12.044  44.361  14.386
15368W        W80628  32.540   5.829   0.241
15369W        W80629  16.132  28.549  10.843
15370W        W80630   3.391  29.325  13.496
15371W        W80631  10.594  21.827   0.899
15372W        W80632   9.857  13.471  11.896
15373W        W80633  12.106  27.100  12.053
15374W        W80634  28.682   7.855  12.092
15375W        W80635  34.492  19.278  13.954
15376W        W80636  38.043  32.999   0.802
15377W        W80637  10.799   9.372  11.504
15378W        W80638  39.206  12.165  12.553
15379W        W80639  39.271  28.778  13.349
15380W        W80640  24.222  10.820   2.500
15381W        W80641  15.597  15.672  13.896
15382W        W80642   0.750  15.760  11.464
15383W        W80643  30.483   7.303   3.803
15384W        W80644  43.234  44.925  13.077
15385W        W80645   7.646  26.403   3.178
15386W        W80646   4.325  12.567  13.982
15387W        W80647  25.068   7.284  11.112
15388W        W80648  29.962  17.614  11.554
15389W        W80649  21.034  27.500   4.273
15390W        W80650  36.944  30.006   4.363
15391W        W80651  11.212  42.090   4.173
15392W        W80652  38.783  43.145   5.050
15393W        W80653  40.950  44.524  12.866
15394W        W80654  35.373  11.024  13.210
15395W        W80655  10.097  19.799   3.714
15396W        W80656  21.715  14.632   2.490
15397W        W80657  15.620  14.355   2.677
15398W        W80658  24.711  23.681  11.621
15399W        W80659  22.538  35.542  13.434
15400W        W80660  37.974  29.795  13.144
15401W        W80661  23.186  34.894   4.536
15402W        W80662   1.501   8.183  11.993
15403W        W80663  16.548  43.154  11.096
15404W        W80664  20.593  38.750  11.877
15405W        W80665   5.147   5.161  14.528
15406W        W80666  30.727  12.866  10.846
15407W        W80667  25.443  22.011   2.404
15408W        W80668   2.760  18.842   1.059
15409W        W80669  10.705  34.560  12.132
15410W        W80670  37.347  37.056  10.845
15411W        W80671  29.860  27.228   3.610
15412W        W80672  32.026  26.020  12.361
15413W        W80673  18.897  37.522   3.584
15414W        W80674  11.094  22.573   1.436
15415W        W80675  12.195   9.416   1.372
15416W        W80676  19.660   8.364  11.166
15417W        W80677   4.585  36.015  11.665
15418W        W80678   7.809  19.968   2.387
15419W        W80679  37.451  40.009  11.570
15420W        W80680  25.313  20.089   0.717
15421W        W80681  21.019  11.143  14.354
15422W        W80682  17.673  13.989   5.144
15423W        W80683   5.165  33.931  12.495
15424W        W80684  44.473  18.057  10.705
15425W        W80685  15.335   5.393   4.750
15426W        W80686  43.664  26.050  14.066
15427W        W80687  14.860  36.518   0.654
15428W        W80688  11.739  24.650  14.362
15429W        W80689  10.244  40.616   4.583
15430W        W80690  28.217  33.045  13.521
15431W        W80691  17.794  40.280   3.128
15432W        W80692   3.094  28.612  14.849
15433W        W80693  27.136  10.188   4.633
15434W        W80694   4.415   3.032   1.744
15435W        W80695  25.145  23.098  10.946
15436W        W80696  39.312  40.711  14.540
15437W        W80697  21.271  14.684   2.771
15438W        W80698  12.425   1.927   3.109
15439W        W80699   9.954  28.911  12.112
15440W        W80700   0.699   8.730  12.392
15441W        W80701  15.598  22.742  10.317
15442W        W80702  39.547  44.516  11.099
15443W        W80703  26.488  18.676   3.537
15444W        W80704  44.253  38.959   0.288
15445W        W80705  42.513   8.774   4.594
15446W        W80706  43.574  39.376   1.679
15447W        W80707  23.702   0.801  11.564
15448W        W80708  31.955  20.156  14.223
15449W        W80709  28.202  29.478  13.089
15450W        W80710  19.645  41.444  11.927
15451W        W80711   5.803  38.492   3.445
15452W        W80712  24.269  22.604   4.152
15453W        W80713   9.444  22.044  11.633
15454W        W80714  17.234  32.556  14.270
15455W        W80715  10.599  25.512  10.815
15456W        W80716  14.983  43.571   2.685
15457W        W80717  32.069  24.763  14.261
15458W        W80718   0.159  27.044  11.094
15459W        W80719   7.577  11.786   2.148
15460W        W80720   3.140   5.737   2.735
15461W        W80721  21.162  16.775  10.619
15462W        W80722  14.784  27.402   4.103
15463W        W80723   5.967  39.096   1.827
15464W        W80724  24.278  32.437   4.054
15465W        W80725  40.671  41.406   1.454
15466W        W80726  26.693  20.664   1.390
15467W        W80727  33.849  20.864   3.999
15468W        W80728   9.324  22.762   0.448
15469W        W80729  36.893  31.466   0.954
15470W        W80730  32.115   2.707  12.843
15471W        W80731  18.099  43.915   1.289
15472W        W80732  26.232  37.539   4.475
15473W        W80733   4.892  40.466   2.229
15474W        W80734   2.245  40.648   1.416
15475W        W80735  16.467  44.801   4.089
15476W        W80736  14.919  25.308   1.182
15477W        W80737  23.305  31.587  14.528
15478W        W80738   4.690  27.114  13.332
15479W        W80739   1.765  37.082  13.983
15480W        W80740  27.124   3.543  13.428
15481W        W80741  14.166  43.001  10.288
15482W        W80742  41.337   3.325   3.270
15483W        W80743   1.797   9.867  14.383
15484W        W80744   1.407  28.031  14.839
15485W        W80745  27.568  15.114  10.756
15486W        W80746  14.224  17.025   1.564
15487W        W80747  26.577  40.455  14.540
15488W        W80748   1.218  19.225  11.964
15489W        W80749  37.387   2.241   4.992
15490W        W80750   4.858   2.792   1.734
15491W        W80751  28.984  26.649  14.828
15492W        W80752  42.034  32.359   4.200
15493W        W80753  37.835  43.852  11.534
15494W        W80754  41.307  16.428   2.383
15495W        W80755  31.405  31.715  13.956
15496W        W80756  11.094   0.263   0.410
15497W        W80757  32.160  28.088   4.325
15498W        W80758  11.826   5.947   1.903
15499W        W80759  23.476  18.201   0.195
15500W        W80760  26.690  25.619   3.711
15501W        W80761  19.599  39.457   0.836
15502W        W80762  23.267  30.330  14.327
15503W        W80763  27.699  25.724  12.982
15504W        W80764  29.456  10.951  11.159
15505W        W80765  20.028  21.794  12.180
15506W        W80766   8.414   4.322  12.945
15507W        W80767   9.399  15.128  11.925
15508W        W80768  33.167  13.102  13.871
15509W        W80769  32.039  35.953   3.217
15510W        W80770  31.667  38.504   4.109
15511W        W80771  29.541  12.350  12.947
15512W        W80772   4.210  34.478  11.057
15513W        W80773   1.716   2.021   1.915
15514W        W80774  40.025  27.918  14.422
15515W        W80775   0.299  15.844   2.155
15516W        W80776  18.003  38.799   3.181
15517W        W80777   2.749  22.148   3.327
15518W        W80778  37.881  28.901  12.491
15519W        W80779   6.751  27.070  10.604
15520W        W80780   3.247  32.836   0.888
15521W        W80781  24.301  19.682  13.783
15522W        W80782  38.279   5.937  10.805
15523W        W80783   8.495   1.547  13.976
15524W        W80784  21.653   5.756  12.043
15525W        W80785   2.768  24.257  12.344
15526W        W80786  28.864   8.227  11.648
15527W        W80787  39.062  26.408   5.051
15528W        W80788  14.008  29.064  11.221
15529W        W80789  23.004  43.264  11.193
15530W        W80790  27.924   5.424  10.730
15531W        W80791  39.096  28.922  14.339
15532W        W80792  15.555   0.633  11.043
15533W        W80793  30.563  43.065   2.808
15534W        W80794  39.368   8.252   0.498
15535W        W80795  16.712  34.014  12.643
15536W        W80796  25.020  22.172  10.587
15537W        W80797  44.768  28.941   1.353
15538W        W80798  19.868  28.901   5.166
15539W        W80799  40.076   1.847  12.481
15540W        W80800  18.827  29.924   4.099
15541W        W80801  28.611   2.975  13.961
15542W        W80802  18.975   6.888  11.849
15543W        W80803  44.109  42.535   3.028
15544W        W80804   4.446  23.167   4.204
15545W        W80805  32.951  19.750  11.596
15546W        W80806   6.390  24.069  11.495
15547W        W80807  11.114  12.758  11.235
15548W        W80808   4.986   8.471   1.418
15549W        W80809  42.954  38.410   1.231
15550W        W80810  43.610   9.652   1.613
15551W        W80811  33.545  30.990   4.550
15552W        W80812  31.377  39.443  13.174
15553W        W80813  24.229   9.752   3.169
15554W        W80814  34.095  41.998   1.473
15555W        W80815  15.633   8.435  13.390
15556W        W80816  30.018  13.598   4.647
15557W        W80817  17.260  15.861   3.238
15558W        W80818   4.282  22.246  14.841
15559W        W80819  25.014  26.507  12.672
15560W        W80820  10.855  20.242   1.449
15561W        W80821  37.790  26.837  14.408
15562W        W80822  21.187  35.543  14.962
15563W        W80823  41.433  42.105   1.157
15564W        W80824  18.708  36.319  13.646
15565W        W80825  13.602   5.451  14.262
15566W        W80826  24.171   7.957   4.096
15567W        W80827  15.989  19.368  12.113
15568W        W80828  28.903  25.529   0.756
15569W        W80829  34.820   4.462  12.593
15570W        W80830  40.529  43.020   2.562
15571W        W80831   0.495  23.107  14.232
15572W        W80832  20.708   9.730   0.784
15573W        W80833  35.914  14.537  13.467
15574W        W80834  16.220  34.075   3.086
15575W        W80835  29.538  43.250   4.720
15576W        W80836   2.310  16.897  11.976
15577W        W80837  30.084  28.422  10.286
15578W        W80838   3.031  21.775  14.347
15579W        W80839  21.046   5.333   1.574
15580W        W80840  23.016  22.549  12.515
15581W        W80841  25.029  34.941   3.862
15582W        W80842  26.630  34.618   9.838
15583W        W80843   5.259  44.568   0.436
15584W        W80844  28.590  16.231   3.695
15585W        W80845  19.722  44.573   3.665
15586W        W80846  24.749  19.751   4.558
15587W        W80847  38.429  36.317   3.262
15588W        W80848  13.431  38.829   1.628
15589W        W80849  23.498  35.076   0.824
15590W        W80850   7.746  41.397   4.258
15591W        W80851   0.499   7.293   1.836
15592W        W80852   4.720  34.624   1.811
15593W        W80853  17.305   5.368   2.807
15594W        W80854  29.576  22.231  14.779
15595W        W80855  42.479  14.170   1.748
15596W        W80856  18.608  30.054   1.792
15597W        W80857   1.072  42.326  14.457
15598W        W80858  27.136  13.259  13.644
15599W        W80859   2.300  33.341   1.500
15600W        W80860  37.837  27.598   3.260
15601W        W80861   2.365  43.423   1.329
15602W        W80862  22.099  10.309  10.713
15603W        W80863  15.675  16.589   1.872
15604W        W80864  23.259   1.384   4.089
15605W        W80865  14.838  34.004   3.613
15606W        W80866  10.648  31.479  13.158
15607W        W80867  40.546  30.083  13.449
15608W        W80868  12.208  16.699   2.757
15609W        W80869   8.313  22.455  13.279
15610W        W80870  40.766  20.465   3.668
15611W        W80871  18.179  15.618   3.741
15612W        W80872  41.587  39.919  13.508
15613W        W80873  33.462   4.468   2.703
15614W        W80874  28.200  32.421   5.156
15615W        W80875   4.100   6.368  11.544
15616W        W80876   8.344  33.984  14.999
15617W        W80877  25.114  14.035  13.082
15618W        W80878  14.748  11.451  10.455
15619W        W80879   4.342  40.498  12.863
15620W        W80880  17.558  27.946   0.474
15621W        W80881   0.629  44.869  10.832
15622W        W80882   8.679  37.818  11.573
15623W        W80883  35.528  16.811   3.651
15624W        W80884  42.214  11.236   0.374
15625W        W80885  18.226  16.270  10.744
15626W        W80886  11.000   9.725  12.401
15627W        W80887  36.689   3.748   4.853
15628W        W80888  24.092  30.628  11.426
15629W        W80889  42.311  18.057  11.120
15630W        W80890  36.986  15.736  13.963
15631W        W80891  41.382  42.253   4.668
15632W        W80892  33.930  20.710   4.496
15633W        W80893  42.824  24.452   3.700
15634W        W80894  32.957  22.659  11.464
15635W        W80895  32.907  23.846  11.946
15636W        W80896  44.442   8.772   3.368
15637W        W80897  43.799  36.475   0.801
15638W        W80898  12.814  10.891  14.857
15639W        W80899  34.542  22.124   2.910
15640W        W80900  14.612   2.988   4.826
15641W        W80901  23.719  32.003   2.334
15642W        W80902  23.101  10.192  13.119
15643W        W80903  38.102  33.926  12.045
15644W        W80904  14.790  25.402   2.609
15645W        W80905   7.413  42.521   0.294
15646W        W80906  15.096  17.344  11.919
15647W        W80907  35.734  40.953   3.715
15648W        W80908   8.022  31.105  12.689
15649W        W80909  30.382  34.132   2.775
15650W        W80910  16.139  39.071   4.216
15651W        W80911  41.081   4.394   4.943
15652W        W80912  20.980   8.226  10.638
15653W        W80913  39.403  22.248  13.357
15654W        W80914  42.380  29.210  13.437
15655W        W80915  29.709  25.234   2.195
15656W        W80916  14.602   7.182   2.291
15657W        W80917  25.168  21.672   3.203
15658W        W80918  18.433  19.224   2.132
15659W        W80919  32.624  15.695  13.506
15660W        W80920  44.018  33.140  13.870
15661W        W80921  34.630  41.243  13.455
15662W        W80922  20.268  29.798   1.895
15663W        W80923  23.967   7.133   2.611
15664W        W80924  26.936  26.053  14.112
15665W        W80925  43.582  13.792   2.349
15666W        W80926  36.029  25.521   4.114
15667W        W80927  23.895  40.239   4.986
15668W        W80928  29.728  29.954  13.065
15669W        W80929  22.266  14.314   3.714
15670W        W80930  44.038   2.044   2.165
15671W        W80931  44.853  23.578   0.655
15672W        W80932  43.776  14.381  10.210
15673W        W80933   1.035  30.773  12.477
15674W        W80934  35.573  35.777   4.889
15675W        W80935  23.803  28.150   4.562
15676W        W80936  33.855  38.999  14.470
15677W        W80937   7.278  43.412   4.319
15678W        W80938  27.639  16.001  13.031
15679W        W80939  12.931  30.136  13.845
15680W        W80940  40.318  37.824   0.645
15681W        W80941  12.754  35.329   1.280
15682W        W80942  29.935  21.113  11.825
15683W        W80943   9.277  34.065  12.910
15684W        W80944  28.194  42.050  14.344
15685W        W80945  16.559  22.936   2.782
15686W        W80946   2.815  29.377  13.050
15687W        W80947  37.032  12.568   2.156
15688W        W80948  38.867  32.220   0.502
15689W        W80949  35.024   3.840  10.545
15690W        W80950  37.877  38.616  14.485
15691W        W80951  28.461  36.171  11.854
15692W        W80952  30.197  24.110   3.308
15693W        W80953  23.272   4.899   2.057
15694W        W80954  12.466  10.200   3.945
15695W        W80955  42.302  13.130   4.190
15696W        W80956  38.270  15.848  13.524
15697W        W80957  37.983   0.266   0.948
15698W        W80958   6.910  15.497   1.179
15699W        W80959  35.601  13.112  11.278
15700W        W80960  17.273   1.901   3.617
15701W        W80961  18.177  31.138  11.707
15702W        W80962  12.776  26.411   1.273
15703W        W80963  24.411   2.164   4.577
15704W        W80964  31.898  33.079  12.541
15705W        W80965  39.802   6.445  11.105
15706W        W80966  17.613  11.348   0.878
15707W        W80967  10.806   4.971   2.522
15708W        W80968  25.281  10.853  11.837
15709W        W80969  30.418  38.924   0.851
15710W        W80970  15.624  17.505  14.414
15711W        W80971  32.032  11.524   5.037
15712W        W80972  26.342  20.364  12.019
15713W        W80973  37.370   1.876   4.106
15714W        W80974  23.604  12.678  13.405
15715W        W80975  32.581  29.935  10.473
15716W        W80976  43.563   1.658  13.376
15717W        W80977  26.868  14.940  11.520
15718W        W80978  30.079  43.484   1.756
15719W        W80979  22.110  28.451  14.312
15720W        W80980  43.533   1.696   4.084
15721W        W80981  15.894   6.197  14.991
15722W        W80982  34.184  24.588   4.901
15723W        W80983  36.416  43.322   1.785
15724W        W80984  34.659  38.608   0.816
15725W        W80985  42.499   9.504   0.674
15726W        W80986  23.173  31.746  13.399
15727W        W80987  26.547  28.081  10.724
15728W        W80988   4.899  19.662   0.951
15729W        W80989  20.164   8.830   0.604
15730W        W80990  14.357  38.341   3.037
15731W        W80991  17.019  15.061  10.734
15732W        W80992  12.246  44.557   1.894
15733W        W80993   1.428  20.998  10.209
15734W        W80994  30.935   0.680  11.116
15735W        W80995  42.551  44.811   1.925
15736W        W80996  44.400  41.551  14.341
15737W        W80997  29.030  31.051  10.615
15738W        W80998  40.305  25.667   3.353
15739W        W80999   0.356  18.045   4.091
15740W        W81000  27.427   4.253  12.315
15741W        W81001  34.419  20.230  13.534
15742W        W81002  21.435  10.838   3.882
15743W        W81003  32.078   2.357   0.646
15744W        W81004  27.237  25.667   1.275
15745W        W81005  43.753  38.462   2.838
15746W        W81006  35.134  15.741   1.392
15747W        W81007  30.043  10.327   2.408
15748W        W81008  11.436  20.202  14.446
15749W        W81009  31.686   4.777  12.940
15750W        W81010  33.439  29.500   1.663
15751W        W81011  29.610  17.921   3.769
15752W        W81012  36.089   0.751   0.022
15753W        W81013  13.142  40.854  14.503
15754W        W81014  32.049   9.717   2.232
15755W        W81015   3.434  19.111  14.501
15756W        W81016  37.544  15.043  13.465
15757W        W81017   8.359  21.207  13.349
15758W        W81018   8.776   6.403   2.267
15759W        W81019   9.916   4.195   3.917
15760W        W81020  40.978  14.318  13.413
15761W        W81021  18.699  31.748   1.377
15762W        W81022  43.754  18.445   1.383
15763W        W81023   0.429  28.424   0.897
15764W        W81024  13.587  29.871  11.520
15765W        W81025  17.753  36.411   3.864
15766W        W81026  42.024  28.801  13.518
15767W        W81027  35.525  14.174  13.357
15768W        W81028  36.493  29.481  13.557
15769W        W81029  32.397  36.955  12.531
15770W        W81030  23.123  36.652  11.203
15771W        W81031  29.436  33.534   3.037
15772W        W81032   6.344  23.163  11.426
15773W        W81033  27.533   1.522  11.617
15774W        W81034  34.852   4.736  14.335
15775W        W81035  43.874  43.260  14.061
15776W        W81036   0.325  24.015  12.266
15777W        W81037  20.707  30.239   2.827
15778W        W81038  38.357   1.168   1.064
15779W        W81039  27.434  31.495  13.007
15780W        W81040  15.465   1.502  14.941
15781W        W81041  22.282  28.522  13.469
15782W        W81042  38.448  19.653   1.757
15783W        W81043   1.255  17.764  11.440
15784W        W81044  39.476  30.512  14.840
15785W        W81045  30.633  30.133  10.408
15786W        W81046  12.294  22.912  14.361
15787W        W81047  15.855  31.154   2.706
15788W        W81048   6.187  22.151   3.343
15789W        W81049  30.906  11.670   2.766
15790W        W81050   1.432  41.487   0.529
15791W        W81051  41.044  11.560   2.312
15792W        W81052  42.015  42.723  14.958
15793W        W81053  16.514  25.059   2.262
15794W        W81054  44.640  36.215  12.009
15795W        W81055  11.098  27.697   1.833
15796W        W81056   1.407  40.580   3.686
15797W        W81057  16.664  41.499   2.859
15798W        W81058   7.862  11.669   1.301
15799W        W81059   9.868  12.393  10.961
15800W        W81060  43.512  38.867   1.845
15801W        W81061  38.066  26.554   4.706
15802W        W81062  33.868  43.971   0.068
15803W        W81063   6.778   9.931   4.087
15804W        W81064  31.465  20.889  12.013
15805W        W81065   4.665  32.409  12.613
15806W        W81066  25.395  26.450  11.052
15807W        W81067   3.674  34.499  10.164
15808W        W81068  29.044  14.335   3.587
15809W        W81069  32.658  28.467  13.408
15810W        W81070  22.199  15.636  13.282
15811W        W81071  17.022   2.920   4.907
15812W        W81072  34.695   2.887  10.965
15813W        W81073   6.688  27.062   4.505
15814W        W81074  39.496  12.347  12.183
15815W        W81075  34.309  18.612   2.774
15816W        W81076  39.549  41.372  12.761
15817W        W81077   9.636  43.288   4.530
15818W        W81078   9.641  21.578   3.149
15819W        W81079  43.924  34.340  11.034
15820W        W81080  15.057  35.148   0.129
15821W        W81081  17.415  35.482  12.340
15822W        W81082  28.954  41.310  12.115
15823W        W81083  28.935  41.901  11.040
15824W        W81084  44.032  14.715   2.205
15825W        W81085  12.421  28.571   4.684
15826W        W81086  13.713  41.334  13.822
15827W        W81087   6.660  21.974   3.663
15828W        W81088  20.343  17.015  14.156
15829W        W81089  38.130   6.767  11.970
15830W        W81090  24.585  41.815  11.278
15831W        W81091   1.158  41.161   2.265
15832W        W81092  22.547  27.150   3.324
15833W        W81093  35.924  41.439  12.332
15834W        W81094  25.226  29.388   0.054
15835W        W81095  32.651  18.209  13.431
15836W        W81096  15.197  26.337  10.646
15837W        W81097  32.621  19.488   2.966
15838W        W81098   9.423  41.188  11.456
15839W        W81099  33.680  14.829   0.452
15840W        W81100   8.218   9.118  11.934
15841W        W81101  14.603  43.305   2.904
15842W        W81102   4.891  43.727  13.963
15843W        W81103  40.421  39.422  13.436
15844W        W81104   2.086  36.609  14.602
15845W        W81105   0.862  25.594  11.811
15846W        W81106  36.919  16.177   4.489
15847W        W81107  18.300  20.731   1.714
15848W        W81108  35.040  26.219   4.608
15849W        W81109   6.015  19.042   2.715
15850W        W81110  44.080  31.106  14.473
15851W        W81111  13.656  44.878   4.924
15852W        W81112   2.701  15.611   1.584
15853W        W81113  24.696  42.987   2.141
15854W        W81114  15.837  29.609  14.779
15855W        W81115  39.386  39.918  14.488
15856W        W81116  18.755   5.794   4.141
15857W        W81117  24.745  28.697  13.381
15858W        W81118  14.634  44.923  10.910
15859W        W81119   8.380  15.689  14.999
15860W        W81120  11.223  23.473   1.280
15861W        W81121  22.224  27.463   1.055
15862W        W81122  30.610  23.154  13.363
15863W        W81123  17.807  17.467  14.387
15864W        W81124   7.374  25.423  12.920
15865W        W81125  29.139  22.503  12.533
15866W        W81126  39.587  31.040   2.371
15867W        W81127  25.458  33.551  11.096
15868W        W81128  42.315  31.711  14.436
15869W        W81129  28.408  43.920  13.347
15870W        W81130  39.173  23.397   0.438
15871W        W81131  23.270   2.208   3.747
15872W        W81132  30.632  31.955  13.534
15873W        W81133   5.469  21.761  11.834
15874W        W81134  21.296  39.315  13.498
15875W        W81135  23.328  38.789  14.766
15876W        W81136  23.020   4.839   1.176
15877W        W81137   2.237  10.878   4.205
15878W        W81138   8.729  28.609   0.321
15879W        W81139  21.292  32.693  12.321
15880W        W81140  27.841  21.069   3.717
15881W        W81141  29.816  28.612  10.710
15882W        W81142   1.678  38.825  13.821
15883W        W81143  12.283  25.193   4.675
15884W        W81144  12.243  14.285   2.786
15885W        W81145  27.500  40.343   3.867
15886W        W81146  23.661   7.739   2.859
15887W        W81147   6.322  43.371  13.129
15888W        W81148  31.628  11.842  14.363
15889W        W81149  21.240  10.926  13.887
15890W        W81150   5.887  10.786  11.543
15891W        W81151  11.073  40.108  13.962
15892W        W81152   4.942  35.908  14.955
15893W        W81153   5.676  39.947   0.739
15894W        W81154  21.653   4.868   0.998
15895W        W81155   6.735  13.690   1.924
15896W        W81156   4.463   2.858   4.547
15897W        W81157  14.545  34.647  14.945
15898W        W81158  23.641  30.401  12.472
15899W        W81159  34.513  35.273   0.516
15900W        W81160   8.630  21.351  14.956
15901W        W81161  21.362  11.944  14.011
15902W        W81162  43.111   6.414  11.603
15903W        W81163   1.600  23.080  10.760
15904W        W81164   1.511   8.247  13.959
15905W        W81165   8.701  14.729   3.357
15906W        W81166  26.625  36.526   2.367
15907W        W81167  16.519  14.313  10.765
15908W        W81168  43.899   3.824  14.415
15909W        W81169  27.125  43.529   0.779
15910W        W81170  23.003  30.774   3.133
15911W        W81171  12.709  22.913   3.416
15912W        W81172  33.308   3.444   2.687
15913W        W81173   4.971  36.582  11.198
15914W        W81174  27.899   1.497  11.252
15915W        W81175  20.689   2.430  10.936
15916W        W81176  37.493   9.360  12.461
15917W        W81177  22.512  23.034   0.747
15918W        W81178  26.084  20.716   4.939
15919W        W81179   3.133  35.947  13.200
15920W        W81180  29.548  21.208  10.095
15921W        W81181   1.366  12.251  12.295
15922W        W81182  14.033  18.748  12.466
15923W        W81183  29.345  42.503   1.290
15924W        W81184  22.485  31.646   4.270
15925W        W81185  35.934  11.836   4.554
15926W        W81186  30.379   7.755   4.015
15927W        W81187  35.624  18.763  11.209
15928W        W81188   4.634  28.775  13.998
15929W        W81189  29.466  40.613   0.844
15930W        W81190  17.795  35.950  13.043
15931W        W81191  37.920  43.407  13.804
15932W        W81192  43.396  38.270   2.009
15933W        W81193  44.749  31.667  13.528
15934W        W81194  44.463  21.715   3.654
15935W        W81195  38.461  30.608   0.094
15936W        W81196  43.224  42.996   1.227
15937W        W81197  24.725  16.086   4.199
15938W        W81198  12.916  39.391  11.503
15939W        W81199   1.572  38.464   3.578
15940W        W81200  36.052  17.808  12.485
15941W        W81201  32.954  44.283  13.540
15942W        W81202  11.078   9.803  11.578
15943W        W81203  39.423  26.631   1.391
15944W        W81204   9.344  27.640  14.097
15945W        W81205  35.802  13.706   1.674
15946W        W81206  38.796  26.138  14.834
15947W        W81207  24.299  44.434   5.191
15948W        W81208  42.366   0.903  14.532
15949W        W81209   2.439  20.667   1.621
15950W        W81210  38.546  30.938   2.197
15951W        W81211   3.476  17.217  11.588
15952W        W81212  37.859  24.042   0.887
15953W        W81213  40.586  14.601   0.567
15954W        W81214   5.505   0.194  11.718
15955W        W81215   3.720  28.551   3.384
15956W        W81216  26.186  24.988  12.556
15957W        W81217  40.023  41.649  13.876
15958W        W81218  43.202   6.864   2.038
15959W        W81219  30.669  38.097   3.758
15960W        W81220  26.215  25.442  10.776
15961W        W81221  28.756  33.934  14.934
15962W        W81222   0.028  10.556  12.923
15963W        W81223  42.145  15.913  12.937
15964W        W81224  12.283   6.723   0.904
15965W        W81225   5.353  30.193   1.225
15966W        W81226  27.888  22.438  14.937
15967W        W81227  11.134   9.382  11.094
15968W        W81228  32.092  12.391  14.826
15969W        W81229  21.232  41.546  11.868
15970W        W81230  25.722  37.918   0.289
15971W        W81231  20.262  21.569  11.779
15972W        W81232  43.529  30.000   2.279
15973W        W81233  31.081  36.604  10.782
15974W        W81234  28.800  20.990   2.867
15975W        W81235   3.916  19.228   2.507
15976W        W81236  37.089  15.327  12.597
15977W        W81237  30.070  14.526   0.914
15978W        W81238  27.274  25.911  14.970
15979W        W81239  12.765  33.554  12.536
15980W        W81240   8.580  16.361  11.738
15981W        W81241  21.571  10.724   1.389
15982W        W81242  37.856   6.911  12.507
15983W        W81243  20.825  36.367  12.610
15984W        W81244  27.972  41.264   0.451
15985W        W81245   4.751  37.599   4.191
15986W        W81246  32.240  20.809   3.297
15987W        W81247  43.800  43.317   4.099
15988W        W81248   8.058  37.845  10.884
15989W        W81249  11.439  14.102   3.127
15990W        W81250  40.679  12.033  13.352
15991W        W81251   9.847  15.013  13.859
15992W        W81252  39.255  14.314   4.586
15993W        W81253  14.307  23.468  12.993
15994W        W81254  23.704  24.821  11.158
15995W        W81255   0.824  26.616  10.350
15996W        W81256  26.722   7.787  13.598
15997W        W81257  10.240  41.292   2.456
15998W        W81258  30.310  36.441  12.101
15999W        W81259   9.030  36.459  13.887
16000W        W81260  16.290   4.806   0.915
16001W        W81261  26.100   2.736   1.437
16002W        W81262  26.018  36.466   4.530
16003W        W81263   4.975  11.752   3.194
16004W        W81264   4.885  31.323  13.512
16005W        W81265  10.759  17.388  11.301
16006W        W81266  30.875  21.048   9.909
16007W        W81267  41.465  27.113  12.532
16008W        W81268   6.966  12.247   3.771
16009W        W81269  42.291  41.520  14.722
16010W        W81270  37.773  34.343  11.981
16011W        W81271  33.828  32.574  13.028
16012W        W81272  18.220  23.123  12.019
16013W        W81273  22.093   0.409  13.625
16014W        W81274  19.333  21.473  14.288
16015W        W81275  15.239   1.954  14.214
16016W        W81276   9.953   9.585   2.978
16017W        W81277  10.736  38.953   4.382
16018W        W81278  28.105  31.993  13.470
16019W        W81279  19.891   5.770  12.025
16020W        W81280  16.089  32.484   2.871
16021W        W81281   0.983   5.729   1.670
16022W        W81282  13.633  22.284  13.958
16023W        W81283   5.888  19.156   5.089
16024W        W81284  30.711  31.123  12.481
16025W        W81285  25.730  34.466   1.286
16026W        W81286  17.308  31.057   3.640
16027W        W81287  42.025  37.627  11.189
16028W        W81288   5.748  19.934  11.949
16029W        W81289   0.742  35.842   1.364
16030W        W81290  44.876  40.069  12.394
16031W        W81291  32.840  33.881  11.375
16032W        W81292   7.678  22.650  14.031
16033W        W81293  28.916  16.645   3.706
16034W        W81294  33.348   2.798  12.330
16035W        W81295  31.191  39.313  12.703
16036W        W81296  44.013   9.869   4.748
16037W        W81297  38.997  18.797   0.400
16038W        W81298  33.314  41.884  11.897
16039W        W81299  33.121  42.385   1.337
16040W        W81300  25.983  23.834   0.398
16041W        W81301  29.911  44.415  14.233
16042W        W81302  14.769  25.902   2.721
16043W        W81303  30.289  23.903  12.951
16044W        W81304  26.105  26.470   0.981
16045W        W81305  42.816  14.195  12.513
16046W        W81306   0.035  31.583  13.974
16047W        W81307   2.428   3.250   1.251
16048W        W81308  38.534  27.427  14.453
16049W        W81309  10.931  30.695  13.549
16050W        W81310  22.689  41.375  14.007
16051W        W81311   5.049  37.296  14.326
16052W        W81312  30.441  29.258   3.324
16053W        W81313   4.851  26.633  10.949
16054W        W81314   5.802   5.320   0.532
16055W        W81315  44.046  37.535   1.484
16056W        W81316  20.119   1.482  11.954
16057W        W81317  17.890  30.856   0.662
16058W        W81318  17.139  30.578   1.742
16059W        W81319  11.896  42.997  12.899
16060W        W81320  15.680  16.680  13.492
16061W        W81321  16.159   9.672   4.364
16062W        W81322  15.930   9.677   3.860
16063W        W81323  17.999  36.584   1.683
16064W        W81324   5.423   1.885   4.604
16065W        W81325   5.764  13.301   2.659
16066W        W81326  39.320   3.974  12.899
16067W        W81327   7.916  35.937   1.663
16068W        W81328  42.859  44.469  11.958
16069W        W81329   7.909  36.138  13.865
16070W        W81330  44.760  27.695  10.679
16071W        W81331  11.184  19.708   2.047
16072W        W81332  30.077  14.648  11.217
16073W        W81333  16.332  21.116   0.043
16074W        W81334  43.088  34.371   1.090
16075W        W81335  42.839  44.217   4.068
16076W        W81336  27.164  11.140  11.587
16077W        W81337   3.014  42.089   1.259
16078W        W81338   8.719  20.595   0.423
16079W        W81339   0.758   2.183  10.373
16080W        W81340  30.459  28.434   3.756
16081W        W81341  35.778  24.241   3.713
16082W        W81342  15.610  39.261   2.218
16083W        W81343  20.165  40.936  14.279
16084W        W81344  12.127  23.380   2.687
16085W        W81345  19.953   3.613  10.618
16086W        W81346   3.713  18.105  13.043
16087W        W81347  35.330  26.529   4.961
16088W        W81348  30.725  30.654  11.099
16089W        W81349  21.462  16.182   3.154
16090W        W81350  39.409  27.545  14.497
16091W        W81351  24.100  17.664  13.898
16092W        W81352   6.810   6.312   4.003
16093W        W81353  24.563   6.648  12.317
16094W        W81354  13.984  10.265   2.344
16095W        W81355  29.588  22.044   0.839
16096W        W81356  15.728   1.242  12.012
16097W        W81357  44.054  12.001   0.653
16098W        W81358  25.652   0.967   1.260
16099W        W81359  23.592   7.268   4.298
16100W        W81360  24.258  34.883  12.059
16101W        W81361  22.120  42.512   2.747
16102W        W81362  16.737  20.537   0.854
16103W        W81363  23.768  22.109  12.562
16104W        W81364  36.646  16.287  12.919
16105W        W81365  28.202  32.641   0.388
16106W        W81366  15.337  12.946  13.030
16107W        W81367  25.088   2.655  12.840
16108W        W81368   9.576   5.280  11.983
16109W        W81369  27.147  23.931  10.310
16110W        W81370  15.870  20.283   0.026
16111W        W81371  31.867  21.629  12.295
16112W        W81372  17.918  28.891  12.125
16113W        W81373  43.253  40.883  14.513
16114W        W81374  17.255  11.671   4.172
16115W        W81375   6.177  20.678  12.130
16116W        W81376  26.636  39.865   4.507
16117W        W81377  32.315  22.066  14.028
16118W        W81378  41.361  29.892   4.745
16119W        W81379  16.979  27.910  14.596
16120W        W81380  25.472  36.008   2.380
16121W        W81381  12.458  22.621   3.817
16122W        W81382   0.926  39.140   0.837
16123W        W81383  30.149  26.135   2.173
16124W        W81384  13.569  33.999  12.623
16125W        W81385  14.613  23.440   2.878
16126W        W81386  36.388  26.882  13.586
16127W        W81387  16.378  38.100  11.673
16128W        W81388  13.894  37.409   4.490
16129W        W81389  20.938   1.232  11.436
16130W        W81390  24.074   6.332  14.585
16131W        W81391  44.710  24.469  12.859
16132W        W81392  10.144  11.530  13.107
16133W        W81393  33.802  27.183  12.081
16134W        W81394  39.952  33.202  12.152
16135W        W81395   1.504   9.230  12.022
16136W        W81396   0.340   5.623   2.882
16137W        W81397  37.362  14.705  12.308
16138W        W81398  12.753  42.011   0.270
16139W        W81399  35.529   9.439   2.662
16140W        W81400  18.845  44.122  12.941
16141W        W81401  42.705  29.402   0.803
16142W        W81402  15.301  26.429   4.702
16143W        W81403  22.446   9.335   1.837
16144W        W81404  43.963  20.771  13.501
16145W        W81405  41.710  38.285   0.999
16146W        W81406  18.336   8.834  11.139
16147W        W81407   5.731  31.161  13.092
16148W        W81408  23.084  14.528   0.782
16149W        W81409  41.401  12.753  14.291
16150W        W81410   0.797  25.184  12.614
16151W        W81411  31.185  37.559  14.891
16152W        W81412   3.668  34.346   0.967
16153W        W81413  24.089  38.762   1.871
16154W        W81414  40.303  37.687   3.544
16155W        W81415  42.642  30.975  14.798
16156W        W81416  28.060   0.336  11.366
16157W        W81417  41.922   8.492  12.990
16158W        W81418  28.559  44.600  14.021
16159W        W81419   3.754   8.838  13.807
16160W        W81420  27.137   4.923  14.016
16161W        W81421  39.297  32.645   2.407
16162W        W81422  12.418   7.472   3.600
16163W        W81423  38.031  34.158   1.409
16164W        W81424  16.060  39.873   4.182
16165W        W81425  43.526  36.937   2.722
16166W        W81426   3.840  22.502  12.369
16167W        W81427  27.086  14.246  13.830
16168W        W81428  10.457   1.423   3.181
16169W        W81429  21.060  15.203  11.464
16170W        W81430  11.800   7.202  14.877
16171W        W81431  43.523  23.214  10.969
16172W        W81432   3.765   9.839   3.156
16173W        W81433  30.480   9.201  11.103
16174W        W81434  28.114  36.263   1.321
16175W        W81435  19.683  31.504  12.219
16176W        W81436  41.541  44.895  13.275
16177W        W81437  39.767  42.894   4.091
16178W        W81438  41.676   9.820  12.614
16179W        W81439  12.597  11.279   0.626
16180W        W81440  14.402  41.368   1.389
16181W        W81441  33.617  11.097   0.364
16182W        W81442  20.512  24.571  14.016
16183W        W81443  24.382  20.006   2.323
16184W        W81444  27.734  19.268   4.571
16185W        W81445  25.055  17.191   5.380
16186W        W81446   7.347   0.965   3.137
16187W        W81447  20.112  12.281  14.174
16188W        W81448  21.691  34.591  12.981
16189W        W81449  40.154  38.518  10.702
16190W        W81450  22.985  33.328   1.774
16191W        W81451  27.663  17.112  11.537
16192W        W81452  40.440  28.428   1.754
16193W        W81453  38.899  14.560   3.338
16194W        W81454   2.296  14.320  12.430
16195W        W81455  33.154  37.995  14.593
16196W        W81456  24.619  20.251  12.404
16197W        W81457  43.651  43.374  12.879
16198W        W81458  39.531  28.835   1.529
16199W        W81459  41.265  31.173   3.746
16200W        W81460  10.220  17.154  14.117
16201W        W81461  43.260  13.186   3.296
16202W        W81462  42.915  42.745  12.478
16203W        W81463  28.535  33.106   2.598
16204W        W81464   4.914  43.890   3.273
16205W        W81465  30.545  14.946  11.186
16206W        W81466  43.775  33.570  14.678
16207W        W81467  35.695  26.751   4.101
16208W        W81468  16.061  21.204   3.053
16209W        W81469   7.560   1.410  14.475
16210W        W81470  19.068  21.949  11.590
16211W        W81471  40.010  16.049  14.743
16212W        W81472  26.105  17.295   3.292
16213W        W81473   8.219   3.855  12.950
16214W        W81474  42.284   9.594  14.532
16215W        W81475  13.266   9.135  12.132
16216W        W81476   9.818  43.338   3.526
16217W        W81477  44.877  19.587   2.767
16218W        W81478  40.559  28.349   0.595
16219W        W81479  41.713  15.470   0.731
16220W        W81480  26.421   7.810   4.335
16221W        W81481  43.771  13.182   4.725
16222W        W81482  29.925   3.129   1.825
16223W        W81483   8.368  10.552   3.434
16224W        W81484  39.760  35.693   0.499
16225W        W81485   9.165  40.185  14.501
16226W        W81486  28.359  19.305   1.651
16227W        W81487  32.629  21.293   0.715
16228W        W81488   1.041  10.707   3.552
16229W        W81489  22.217  18.733  12.778
16230W        W81490   2.782  39.351  12.543
16231W        W81491  36.707  38.621  13.981
16232W        W81492  12.967  36.214   3.609
16233W        W81493  10.542  22.782  12.068
16234W        W81494   1.847  16.209  10.405
16235W        W81495  15.997  44.869   4.338
16236W        W81496   8.083   2.602  12.123
16237W        W81497  39.255  23.593   4.256
16238W        W81498  25.993  44.340  13.331
16239W        W81499  16.136  19.762   0.807
16240W        W81500  21.694  44.116   0.318
16241W        W81501  25.638  17.186   5.061
16242W        W81502  37.587   0.644  12.067
16243W        W81503  36.048  23.126   0.423
16244W        W81504  40.374   7.742  13.811
16245W        W81505  19.110  36.884  10.750
16246W        W81506   3.376  40.587   2.340
16247W        W81507  27.473  38.493  10.629
16248W        W81508  38.088  40.638   2.124
16249W        W81509  20.230  18.199  11.712
16250W        W81510   1.871  26.234  13.556
16251W        W81511   4.710  37.724  10.925
16252W        W81512   8.259  44.834   2.799
16253W        W81513  39.030  19.126   1.277
16254W        W81514  25.243  24.892  11.170
16255W        W81515   3.439   0.836   0.272
16256W        W81516   7.890  44.264   1.639
16257W        W81517  44.433  24.132  11.644
16258W        W81518   5.302  14.208  14.367
16259W        W81519  19.648  21.697   1.386
16260W        W81520   5.690  16.624   0.427
16261W        W81521  38.918  24.185   2.828
16262W        W81522  43.566   9.553   2.875
16263W        W81523  14.169  33.403   0.710
16264W        W81524  36.007  22.545   1.728
16265W        W81525  14.309  29.889   3.472
16266W        W81526  41.591  22.902  13.523
16267W        W81527   2.559   9.780   4.603
16268W        W81528  17.052  24.008   2.355
16269W        W81529  25.171  40.930  14.701
16270W        W81530  14.066  22.559   2.796
16271W        W81531   2.056  29.237   4.215
16272W        W81532  36.656   0.219   4.041
16273W        W81533  20.557  31.275  11.376
16274W        W81534  44.018  42.278   2.163
16275W        W81535  44.311  31.129  11.785
16276W        W81536  26.052  38.106  11.823
16277W        W81537  26.517   7.197   0.833
16278W        W81538  14.244  11.320  13.287
16279W        W81539  41.963   3.847  14.793
16280W        W81540   5.826  17.634  11.560
16281W        W81541   6.386  42.496   4.149
16282W        W81542  28.002  17.308  13.515
16283W        W81543  39.334  24.018   3.108
16284W        W81544   4.734  43.584  11.541
16285W        W81545  32.185   9.474   0.991
16286W        W81546  43.228  36.513   3.663
16287W        W81547  27.029  19.609  10.021
16288W        W81548  11.698  39.474   4.117
16289W        W81549   8.760  35.955   3.209
16290W        W81550  37.742  22.012  12.132
16291W        W81551  20.727  44.854   4.254
16292W        W81552  39.796  39.062  12.428
16293W        W81553  40.897  41.562   3.679
16294W        W81554   2.312  12.763  10.262
16295W        W81555  38.018   0.440   2.743
16296W        W81556  38.341  34.640   3.755
16297W        W81557   7.400  10.399   0.982
16298W        W81558  17.845   5.898  14.871
16299W        W81559  11.297   2.780   0.033
16300W        W81560  12.780  15.167  13.892
16301W        W81561   4.866  42.980   3.230
16302W        W81562  14.670   8.761   2.221
16303W        W81563  41.919   2.959   3.508
16304W        W81564  37.950   1.963  14.890
16305W        W81565  29.754  35.527  13.564
16306W        W81566  14.759   2.802  11.306
16307W        W81567   2.897   3.138  11.051
16308W        W81568  27.659  13.803  14.921
16309W        W81569  11.998  27.018  14.870
16310W        W81570  42.257  17.343   4.585
16311W        W81571  36.508  11.809   3.102
16312W        W81572  13.524   5.800   3.991
16313W        W81573   0.803  28.953  11.223
16314W        W81574  35.065   9.776  14.161
16315W        W81575  23.040   4.891  13.825
16316W        W81576  24.515  19.629  14.819
16317W        W81577  21.627   8.006   1.603
16318W        W81578  16.807  40.973  12.472
16319W        W81579  43.433  38.883  14.928
16320W        W81580  35.316   9.098  14.418
16321W        W81581  16.344  24.071   0.214
16322W        W81582  33.946  39.947  11.581
16323W        W81583  44.366  11.861   3.891
16324W        W81584  36.592   6.752  10.581
16325W        W81585  18.169   6.185  13.763
16326W        W81586  33.364  25.855  11.586
16327W        W81587   3.201   1.756  14.399
16328W        W81588  25.934   4.231   3.050
16329W        W81589  36.566  30.184   4.088
16330W        W81590  12.109  37.553  12.503
16331W        W81591  19.820   1.283   2.329
16332W        W81592  15.217   6.958   3.128
16333W        W81593  26.423   1.366  14.598
16334W        W81594  30.532  35.410   3.220
16335W        W81595  22.762   9.700  14.474
16336W        W81596  44.241  31.616  14.467
16337W        W81597  14.699   4.832  10.010
16338W        W81598  14.065  22.502  13.039
16339W        W81599   2.373  13.307   0.041
16340W        W81600  20.548  39.621   2.657
16341W        W81601   7.476   7.432   0.256
16342W        W81602   1.898  14.569  12.139
16343W        W81603   6.364  17.545  12.920
16344W        W81604  19.111  30.594   2.308
16345W        W81605   2.330  26.449   4.521
16346W        W81606  30.572  36.400  13.403
16347W        W81607  22.484   2.801  12.915
16348W        W81608   9.870  21.157  12.531
16349W        W81609   2.704  18.705  12.529
16350W        W81610  32.967  44.448  12.097
16351W        W81611  41.073  25.011   1.816
16352W        W81612  11.850  10.372   1.232
16353W        W81613   2.977  11.388  12.484
16354W        W81614  11.597  13.623  13.091
16355W        W81615   5.659  41.371   4.586
16356W        W81616   7.721  12.501   4.177
16357W        W81617   1.342  26.030  12.293
16358W        W81618   8.809   3.404  11.721
16359W        W81619  12.545  26.749  13.304
16360W        W81620   1.204  35.111   1.708
16361W        W81621  11.141  35.528  11.642
16362W        W81622  14.277  19.718  11.529
16363W        W81623  18.143  24.788  10.961
16364W        W81624  35.030  35.115  14.429
16365W        W81625  41.939  21.034  13.415
16366W        W81626   6.650  25.269  12.662
16367W        W81627  32.867   3.115  11.502
16368W        W81628   0.926  34.639   0.899
16369W        W81629  39.476   8.178   1.971
16370W        W81630   5.639   7.931   1.800
16371W        W81631  21.783  14.605  11.616
16372W        W81632  16.761   2.123   1.875
16373W        W81633  17.179   6.983  11.579
16374W        W81634  22.786  21.103  12.452
16375W        W81635  31.144  22.535   2.850
16376W        W81636  35.342  29.707  11.579
16377W        W81637   7.582  36.483  14.085
16378W        W81638   3.225  41.833  14.091
16379W        W81639  11.015  17.573  12.905
16380W        W81640  34.522  30.901   0.717
16381W        W81641  42.256  33.994   2.769
16382W        W81642  23.091  15.687   4.343
16383W        W81643  11.952  33.016   2.467
16384W        W81644   8.654  25.182  12.419
16385W        W81645  16.815  15.148  12.613
16386W        W81646  38.186  18.856   3.893
16387W        W81647  35.157   6.137  11.520
16388W        W81648  24.530   5.428  14.368
16389W        W81649  29.627  12.192   2.395
16390W        W81650  28.433   5.231   3.754
16391W        W81651  40.356   6.032   3.789
16392W        W81652  15.820  11.368  12.325
16393W        W81653   7.971  27.731   3.587
16394W        W81654  15.961  34.558   1.241
16395W        W81655   4.023  25.042   1.646
16396W        W81656   1.291   5.283   3.092
16397W        W81657  38.510  30.384   2.131
16398W        W81658  35.118  23.673  13.043
16399W        W81659  31.189  30.238  14.825
16400W        W81660  41.443  33.833   3.213
16401W        W81661  37.618   7.884  14.455
16402W        W81662  42.648  41.477  10.566
16403W        W81663   7.113  12.151   1.480
16404W        W81664  30.911   1.141  13.853
16405W        W81665  40.473   9.695  14.351
16406W        W81666  40.996   7.586   0.842
16407W        W81667   3.892  12.320  11.904
16408W        W81668  26.057  39.420   1.036
16409W        W81669  15.855  21.301   2.548
16410W        W81670  25.988   1.455   3.255
16411W        W81671  33.644   3.622  13.581
16412W        W81672  43.379  25.074  13.391
16413W        W81673   6.156  35.954   4.857
16414W        W81674  16.239  39.570  14.417
16415W        W81675   7.681  35.185  12.786
16416W        W81676  31.777   2.745   3.342
16417W        W81677  27.516  28.976   2.724
16418W        W81678  10.661  41.512   2.240
16419W        W81679  21.076  24.479   0.912
16420W        W81680  30.513  22.113  12.575
16421W        W81681  32.253   8.828   4.638
16422W        W81682  28.385  36.069   4.081
16423W        W81683  38.308   7.255  13.433
16424W        W81684  38.091  20.129   3.204
16425W        W81685  20.697  19.815   5.097
16426W        W81686  28.540  43.958  11.015
16427W        W81687  14.263  30.414   2.261
16428W        W81688  31.553  25.310   0.326
16429W        W81689  41.659   1.565  14.933
16430W        W81690  43.015  18.597  14.259
16431W        W81691  43.457  18.422  12.477
16432W        W81692  44.433   1.655   0.909
16433W        W81693  31.461  38.138  12.211
16434W        W81694  14.360  20.195   1.849
16435W        W81695  29.196  25.227  12.632
16436W        W81696  36.694  32.960   0.937
16437W        W81697  38.453  10.793  11.952
16438W        W81698  22.199  18.064  11.833
16439W        W81699  23.001  32.972  12.694
16440W        W81700  38.783   2.431   0.480
16441W        W81701  36.421  39.047  11.546
16442W        W81702  38.259   0.962  14.395
16443W        W81703  42.902  17.099  12.813
16444W        W81704  24.206   0.715   1.134
16445W        W81705   1.348  18.114  13.407
16446W        W81706  33.990  17.574  12.109
16447W        W81707   5.133  17.447  11.048
16448W        W81708  34.949   0.424  11.583
16449W        W81709  24.556  38.762   2.456
16450W        W81710  15.043  38.972   3.368
16451W        W81711  43.225  40.111  12.298
16452W        W81712  25.698  13.070   3.255
16453W        W81713   1.749   8.425  11.579
16454W        W81714  27.107  13.671  11.135
16455W        W81715  28.959  13.070   1.793
16456W        W81716  22.202  18.635  10.625
16457W        W81717   3.384  43.377   3.700
16458W        W81718  21.110  10.318  14.994
16459W        W81719  40.560  43.503   1.200
16460W        W81720  21.623  21.998   3.254
16461W        W81721   4.206  22.520  11.994
16462W        W81722  16.794  20.518   2.794
16463W        W81723   8.900  28.650  14.823
16464W        W81724  15.298  14.081   0.394
16465W        W81725  33.462  10.057   1.395
16466W        W81726  18.022  10.681  12.027
16467W        W81727  30.478  35.434  14.942
16468W        W81728  24.287  34.143  11.444
16469W        W81729  17.221  18.525   4.185
16470W        W81730   8.828  24.953   4.138
16471W        W81731   0.456  38.940   3.119
16472W        W81732   6.363  11.908   3.431
16473W        W81733  12.843  15.371   4.266
16474W        W81734  36.745  42.653  11.647
16475W        W81735   9.283   3.476   5.031
16476W        W81736  24.232  41.079  14.799
16477W        W81737  12.247  21.120  11.472
16478W        W81738  25.685  28.615   4.038
16479W        W81739  27.218  39.999   0.719
16480W        W81740  14.692  36.310   4.039
16481W        W81741  20.075  16.114   3.330
16482W        W81742  33.208  25.003  13.974
16483W        W81743  40.282  22.902  12.044
16484W        W81744  26.021  26.389   1.478
16485W        W81745  33.155  21.609  10.471
16486W        W81746   2.366  22.906  12.441
16487W        W81747  36.683  38.044   2.847
16488W        W81748  40.248  36.070   4.527
16489W        W81749  37.301  21.758  12.906
16490W        W81750  11.698   6.839  12.554
16491W        W81751   5.693  43.290   2.224
16492W        W81752   0.748  38.405  12.522
16493W        W81753  10.285  21.518  12.583
16494W        W81754  19.877  27.856  13.883
16495W        W81755  25.335   4.962   2.092
16496W        W81756  30.583  24.610  14.991
16497W        W81757  43.454   5.129  11.649
16498W        W81758   0.395  28.863   1.761
16499W        W81759   9.429  24.967   1.279
16500W        W81760  18.600   6.400  14.991
16501W        W81761  15.203  11.233  14.879
16502W        W81762   4.615  30.589  12.854
16503W        W81763  35.437  44.361   1.804
16504W        W81764   9.232  21.296  13.958
16505W        W81765  15.135  26.878  13.989
16506W        W81766  19.113  33.878  12.179
16507W        W81767  24.063  34.089   4.089
16508W        W81768   9.850  31.972  11.618
16509W        W81769  31.039   3.624  12.028
16510W        W81770  35.546  15.046  11.186
16511W        W81771  10.537  34.524  11.121
16512W        W81772  23.145  15.090  11.769
16513W        W81773  25.710  29.097   4.325
16514W        W81774   7.162   8.485   1.660
16515W        W81775  28.332  37.390   1.428
16516W        W81776  43.973  39.007   4.790
16517W        W81777  41.007  32.877  13.525
16518W        W81778   3.150  24.133  13.993
16519W        W81779  30.688   5.165   0.243
16520W        W81780  31.848   3.386  14.861
16521W        W81781  41.973  36.935  14.491
16522W        W81782   0.900  29.424  11.079
16523W        W81783   6.980   2.727  14.300
16524W        W81784  37.627  34.790   0.780
16525W        W81785   8.979  21.038   0.222
16526W        W81786   5.859  29.479   2.210
16527W        W81787  22.679  31.150   0.906
16528W        W81788  24.256  16.404   3.159
16529W        W81789  22.533  33.909   1.307
16530W        W81790  15.358   5.941   4.726
16531W        W81791  22.976  37.892  13.894
16532W        W81792  40.570  16.675   3.748
16533W        W81793   2.734  21.976   3.804
16534W        W81794  12.688  18.328   0.261
16535W        W81795   2.225   6.397   1.122
16536W        W81796  43.365  24.804  11.465
16537W        W81797  40.231  32.362   0.436
16538W        W81798   1.917  25.237   3.663
16539W        W81799  33.622  38.285  13.976
16540W        W81800  32.740   0.976  10.012
16541W        W81801  20.491  44.813   3.791
16542W        W81802   8.776  31.312  13.874
16543W        W81803  25.949  11.671   3.698
16544W        W81804  23.714   5.726  11.963
16545W        W81805   5.216  16.755  11.377
16546W        W81806  28.118  40.329   2.258
16547W        W81807  11.868   2.044   4.189
16548W        W81808  11.946  23.684   0.818
16549W        W81809  40.788   7.161  14.321
16550W        W81810  19.686  22.699   0.358
16551W        W81811  34.996  35.125   2.184
16552W        W81812   6.789   9.148   2.314
16553W        W81813  38.645  40.913  10.721
16554W        W81814  34.302  37.399   1.729
16555W        W81815  36.831  32.673  13.078
16556W        W81816  14.928  31.958   4.524
16557W        W81817  34.923  21.039  11.122
16558W        W81818  44.549  38.139   2.503
16559W        W81819  28.111  30.911   0.488
16560W        W81820  20.324  43.729   0.823
16561W        W81821   8.397  29.910   4.183
16562W        W81822  28.663  37.908   3.983
16563W        W81823   0.888  30.001  14.093
16564W        W81824  27.911  36.868   3.732
16565W        W81825  44.224  10.268   3.792
16566W        W81826  18.621   9.797   4.478
16567W        W81827  32.289  40.060   4.493
16568W        W81828  36.870  27.568  12.405
16569W        W81829   6.395  37.382   1.808
16570W        W81830  27.022   9.819   1.489
16571W        W81831   7.925  31.792  11.703
16572W        W81832  43.602  31.639  12.299
16573W        W81833   4.071  13.478   3.731
16574W        W81834  36.884   1.540  11.405
16575W        W81835   5.080  26.412  11.992
16576W        W81836  16.142  27.327  10.669
16577W        W81837  32.067  23.735  11.182
16578W        W81838  40.486  17.364  12.501
16579W        W81839  16.003  33.863  10.750
16580W        W81840  21.052  27.166   4.700
16581W        W81841  23.082  21.644  13.901
16582W        W81842  35.963  33.357   3.309
16583W        W81843  32.407  34.063  11.108
16584W        W81844  39.302   3.346   3.275
16585W        W81845  10.159  16.404   4.489
16586W        W81846  17.535  20.278   0.031
16587W        W81847   6.818  31.384  12.156
16588W        W81848  34.247  21.213   4.629
16589W        W81849  18.560  37.551  12.964
16590W        W81850   6.301   3.987   4.649
16591W        W81851  25.255  20.126   2.912
16592W        W81852  42.368  24.303   2.877
16593W        W81853  40.768  19.635  14.463
16594W        W81854  13.375   9.473   0.868
16595W        W81855  37.591   6.796  13.373
16596W        W81856   5.263  17.205  10.153
16597W        W81857  25.198  22.077  12.515
16598W        W81858  28.828  25.168  14.437
16599W        W81859  44.689  18.604   4.126
16600W        W81860  32.155   9.966   0.802
16601W        W81861  26.857   8.863   3.911
16602W        W81862  38.791  12.134  13.877
16603W        W81863  36.850  43.912  10.468
16604W        W81864  18.678  31.599  12.365
16605W        W81865   7.999  20.378   0.702
16606W        W81866  30.953   4.361  11.529
16607W        W81867  42.870   1.778   0.878
16608W        W81868  22.449  20.971   3.637
16609W        W81869   0.849   0.991   1.613
16610W        W81870  37.739  39.489  14.622
16611W        W81871   6.702   2.780  12.986
16612W        W81872  13.065  22.477  11.022
16613W        W81873  23.695  33.305  14.622
16614W        W81874   6.776  29.553  13.361
16615W        W81875   7.286  23.062  12.513
16616W        W81876  14.776  41.272   1.769
16617W        W81877   2.919  14.362   3.817
16618W        W81878  16.232   4.787   0.008
16619W        W81879  30.733  24.454   2.372
16620W        W81880  20.144   0.141  10.288
16621W        W81881  22.722  37.997  12.097
16622W        W81882   4.328  33.150   3.624
16623W        W81883  38.925  27.738   0.175
16624W        W81884  31.188  11.763   0.645
16625W        W81885  30.263   2.771   1.945
16626W        W81886  15.501  20.899   2.587
16627W        W81887  23.099  19.716   2.078
16628W        W81888   7.306  33.052   4.629
16629W        W81889   7.802  42.952  11.797
16630W        W81890  27.019  41.048  14.407
16631W        W81891   3.107  23.989  14.889
16632W        W81892  24.792  16.810  11.866
16633W        W81893   1.037  42.287   4.080
16634W        W81894  39.317  23.501  13.937
16635W        W81895  37.187  26.352   0.447
16636W        W81896   4.918  10.925   0.383
16637W        W81897  27.455  16.650  10.411
16638W        W81898  15.653  34.061  10.417
16639W        W81899   6.295   1.956  11.173
16640W        W81900  22.333   3.453   1.380
16641W        W81901  28.534  37.540   0.954
16642W        W81902  36.739  44.853   0.847
16643W        W81903  10.808   2.466   3.635
16644W        W81904   8.732   3.984   4.169
16645W        W81905  30.028  44.808  10.611
16646W        W81906  27.206  38.793  14.000
16647W        W81907  29.669  30.207  14.870
16648W        W81908  25.968   5.642   5.542
16649W        W81909  18.217  20.622   3.012
16650W        W81910  41.990   9.251   4.647
16651W        W81911  44.595  20.819   2.754
16652W        W81912  29.490  26.604  11.549
16653W        W81913  14.145  18.054  12.879
16654W        W81914  15.656  21.196   3.452
16655W        W81915  33.942  10.657   2.417
16656W        W81916  21.046   9.294  11.683
16657W        W81917  12.161   8.426   2.837
16658W        W81918  24.108  34.499  10.642
16659W        W81919   4.719  20.088   1.197
16660W        W81920   2.253  38.850  10.973
16661W        W81921  43.325  35.836  14.352
16662W        W81922   2.283  35.351   1.343
16663W        W81923  28.581  41.734   2.957
16664W        W81924  39.651  29.562  13.612
16665W        W81925  29.353   8.740  12.514
16666W        W81926  20.285  39.966   4.936
16667W        W81927   1.395   2.215   0.843
16668W        W81928  14.385   6.924  10.360
16669W        W81929  23.270  31.183   0.270
16670W        W81930   0.019  37.539  10.643
16671W        W81931  26.131  33.512  13.824
16672W        W81932   5.342  34.121  12.032
16673W        W81933  37.057  40.207  12.975
16674W        W81934  31.927  43.910  12.891
16675W        W81935  42.967  37.272  13.435
16676W        W81936  18.097  41.752  12.371
16677W        W81937   3.067  35.696  10.138
16678W        W81938   0.898  40.109  12.447
16679W        W81939  23.693  43.785   3.266
16680W        W81940  44.196  14.799   5.081
16681W        W81941   9.383   2.744   0.748
16682W        W81942   0.494  41.380  11.784
16683W        W81943  41.791  36.897   0.675
16684W        W81944  15.864  12.691   9.978
16685W        W81945  27.055  27.660   2.757
16686W        W81946  13.750  32.879  11.936
16687W        W81947  39.011  27.733  12.301
16688W        W81948   8.366   8.159   4.778
16689W        W81949  15.792  19.275   3.269
16690W        W81950  26.086  37.971  14.860
16691W        W81951   2.982  31.558   1.841
16692W        W81952  34.206   3.275   0.305
16693W        W81953  38.361  26.543   3.380
16694W        W81954  34.088  13.426  11.484
16695W        W81955   6.527  28.155   0.919
16696W        W81956   0.520  24.967  11.901
16697W        W81957  17.746  14.826  12.812
16698W        W81958  13.058  43.404  14.471
16699W        W81959  15.766  21.007  11.174
16700W        W81960  14.658   2.993   0.749
16701W        W81961   5.100  11.882  13.025
16702W        W81962   8.743  31.182   2.220
16703W        W81963  33.981  12.706  14.833
16704W        W81964  11.221  23.780  10.462
16705W        W81965  33.471   5.726   1.018
16706W        W81966  16.603  35.463   2.890
16707W        W81967  10.825  40.692   0.245
16708W        W81968   5.887  12.183  10.509
16709W        W81969  18.030  27.997  13.536
16710W        W81970   6.693   7.671   3.207
16711W        W81971  40.301  40.772  11.001
16712W        W81972   8.277   2.327  11.332
16713W        W81973   5.995  12.739   4.344
16714W        W81974   5.629  29.625   3.708
16715W        W81975  26.498   1.911  13.880
16716W        W81976  18.596  33.476   0.502
16717W        W81977  35.173  24.170   3.398
16718W        W81978   7.465  11.681  13.875
16719W        W81979  22.486  25.763   2.824
16720W        W81980  24.297  39.483  10.710
16721W        W81981   6.917  11.580  14.854
16722W        W81982  16.250  32.038   1.293
16723W        W81983  10.829  19.410   4.607
16724W        W81984   7.349  44.969   4.243
16725W        W81985  36.110  28.205  11.085
16726W        W81986   6.741  24.751  12.759
16727W        W81987  25.262  39.455   1.705
16728W        W81988  16.157  32.934  14.982
16729W        W81989  17.164  41.254  14.951
16730W        W81990  26.518   0.071  12.511
16731W        W81991   2.596   1.727  12.437
16732W        W81992  36.332  36.927  13.480
16733W        W81993  36.963  15.508  13.067
16734W        W81994  15.351  42.904   3.438
16735W        W81995  17.836  43.973   0.739
16736W        W81996   3.572  22.292   1.255
16737W        W81997  30.782  14.286  13.940
16738W        W81998  44.832  38.860   4.746
16739W        W81999  41.349   5.364   4.151
16740W        W82000   9.850   1.934  12.935
16741W        W82001  42.363  31.409   2.644
16742W        W82002   5.237  28.500  11.610
16743W        W82003  15.583  43.788   3.170
16744W        W82004  35.875  16.111   4.659
16745W        W82005  23.660  31.090   2.525
16746W        W82006  44.445   2.430  11.016
16747W        W82007  18.671  27.623   2.711
16748W        W82008  33.517  29.565  10.784
16749W        W82009  20.547  37.494   0.829
16750W        W82010   6.281  37.404  10.832
16751W        W82011  23.321  24.252   1.159
16752W        W82012  35.209  29.256   4.974
16753W        W82013  21.059  32.126   4.197
16754W        W82014  22.810  29.956   4.166
16755W        W82015  29.567  30.272   5.033
16756W        W82016  36.089  30.603   2.277
16757W        W82017   2.668   0.571   2.836
16758W        W82018   0.997  33.387  13.358
16759W        W82019  11.082  44.244  11.342
16760W        W82020   8.145  44.381  10.895
16761W        W82021  15.262  41.146  12.405
16762W        W82022  42.962  25.686  13.083
16763W        W82023  30.886  19.006   3.718
16764W        W82024   1.306  12.318  11.796
16765W        W82025  44.888  15.328  14.601
16766W        W82026  43.389   9.374  14.783
16767W        W82027  40.219  33.878   0.459
16768W        W82028  24.877   5.407   2.135
16769W        W82029  39.123   8.876   1.283
16770W        W82030  44.969   5.319   3.300
16771W        W82031   3.240  32.865  12.055
16772W        W82032  40.355  19.574  10.382
16773W        W82033  21.086  24.161   4.992
16774W        W82034  19.241  28.150   4.780
16775W        W82035  19.100   7.363   4.587
16776W        W82036  17.478  38.955   4.564
16777W        W82037  40.999  40.205   0.973
16778W        W82038   3.678  30.234  13.102
16779W        W82039  10.375  18.261  13.393
16780W        W82040  40.367  14.865  11.045
16781W        W82041  40.060  30.617   1.603
16782W        W82042  41.445  43.904   2.737
16783W        W82043   8.638   1.896  12.202
16784W        W82044  41.690  12.648  11.678
16785W        W82045   4.282  29.966   1.729
16786W        W82046  39.381   3.464   2.240
16787W        W82047   8.716  27.542  14.720
16788W        W82048   9.377  43.350   2.694
16789W        W82049  36.997  12.384  12.915
16790W        W82050   8.602  26.225   1.749
16791W        W82051  34.607  18.684  10.523
16792W        W82052  41.534  22.658  10.552
16793W        W82053  11.716  37.022   4.530
16794W        W82054  42.537  17.335   1.339
16795W        W82055  42.513   6.270  12.482
16796W        W82056  23.686  35.828   0.442
16797W        W82057  35.500  14.318   3.209
16798W        W82058   9.290  28.759   1.672
16799W        W82059  20.326  10.848   4.077
16800W        W82060  11.859  42.947   3.656
16801W        W82061  21.251  24.683   3.678
16802W        W82062   9.405  34.446  14.777
16803W        W82063  23.034  25.621  11.102
16804W        W82064  22.587  37.458  14.620
16805W        W82065  44.802   4.921  11.300
16806W        W82066   8.508  20.594  14.389
16807W        W82067   5.741  44.345   0.471
16808W        W82068  27.937  42.220  12.416
16809W        W82069  25.778   0.979   5.312
16810W        W82070  20.193  31.982   3.879
16811W        W82071  26.348  16.543  11.064
16812W        W82072   2.403   9.944  11.879
16813W        W82073  28.947   8.723  13.549
16814W        W82074  40.968  26.412   4.621
16815W        W82075  29.933  23.403  13.511
16816W        W82076  32.022  25.436   2.664
16817W        W82077  21.669  33.721   2.310
16818W        W82078  10.661  23.604  14.495
16819W        W82079  24.566  28.119  10.943
16820W        W82080  29.815   6.847  13.546
16821W        W82081   5.163  40.778  14.261
16822W        W82082  11.171  28.906  14.500
16823W        W82083   2.421  33.857   4.720
16824W        W82084   7.250   5.948  14.903
16825W        W82085  41.443  29.208  11.324
16826W        W82086  21.096   0.521  11.913
16827W        W82087  10.270  43.831   0.825
16828W        W82088   1.411  13.763  10.680
16829W        W82089  15.547   1.958   5.096
16830W        W82090  16.224  26.146  14.522
16831W        W82091  14.520  25.120  13.106
16832W        W82092   7.900  20.783  12.887
16833W        W82093  33.579  25.874   0.399
16834W        W82094  42.461  21.470  10.697
16835W        W82095  24.097  28.244  11.220
16836W        W82096  44.109  41.431   3.230
16837W        W82097  38.001  19.616   2.494
16838W        W82098  44.022  11.254  10.750
16839W        W82099  12.332   0.245   4.457
16840W        W82100  23.762   6.796  14.402
16841W        W82101  31.771   4.096   3.149
16842W        W82102  15.787  38.751  11.525
16843W        W82103  15.074  42.420   0.249
16844W        W82104  11.802  31.619   1.777
16845W        W82105  26.097  12.724   0.473
16846W        W82106  17.182  10.827   1.343
16847W        W82107  11.892  31.122  13.133
16848W        W82108  43.341  27.435  14.371
16849W        W82109  27.884   6.913   1.839
16850W        W82110  36.816  21.630   4.570
16851W        W82111  43.852  27.090   9.630
16852W        W82112  12.246  26.781   1.355
16853W        W82113   0.768  34.077   1.796
16854W        W82114  36.489   1.851  12.128
16855W        W82115  20.551  43.713   2.423
16856W        W82116  13.424  13.783  14.931
16857W        W82117  18.601  44.394   0.422
16858W        W82118  34.255   9.126   3.264
16859W        W82119  23.471   7.153  14.748
16860W        W82120  16.569  24.731  11.020
16861W        W82121  36.395  14.843  12.643
16862W        W82122   5.204  10.758   2.848
16863W        W82123  36.700  31.073  10.969
16864W        W82124  20.080  37.741  10.642
16865W        W82125  37.414  14.181   2.789
16866W        W82126  15.214   6.630  11.778
16867W        W82127  15.524  28.906   1.349
16868W        W82128  11.086  13.372  12.927
16869W        W82129  31.043  26.917  12.844
16870W        W82130   1.324  21.623  12.968
16871W        W82131  11.415  38.570  14.066
16872W        W82132   3.306  19.098   0.372
16873W        W82133  36.537  26.758   4.995
16874W        W82134  26.605  12.524   0.345
16875W        W82135  16.942  44.702  12.044
16876W        W82136  21.012  43.575   1.859
16877W        W82137  32.053  34.751  13.896
16878W        W82138  43.806   6.820  12.128
16879W        W82139  11.209  43.505   0.113
16880W        W82140  18.742  23.188  11.881
16881W        W82141  23.308   0.169  14.429
16882W        W82142  41.499  36.138   4.071
16883W        W82143  43.592  16.876  11.067
16884W        W82144   9.193  14.116  10.675
16885W        W82145   3.254  40.099   2.477
16886W        W82146  21.907  17.227   1.308
16887W        W82147  22.075  31.456   1.982
16888W        W82148   8.363   3.951   2.175
16889W        W82149  36.604  19.095  10.524
16890W        W82150  29.465   4.732   1.140
16891W        W82151  34.367  32.212  12.433
16892W        W82152  41.352   1.842   3.589
16893W        W82153  23.090  30.372  11.063
16894W        W82154  33.076  11.247  12.403
16895W        W82155  13.072  35.868  11.121
16896W        W82156   7.198   2.751  10.760
16897W        W82157  21.370  18.846  10.130
16898W        W82158  15.210  17.268  10.560
16899W        W82159   2.525   1.826   2.858
16900W        W82160   5.307  19.563  10.855
16901W        W82161  29.044  34.698   1.169
16902W        W82162   9.553  42.788  13.529
16903W        W82163  43.866  39.225  14.420
16904W        W82164  14.406  25.703  10.985
16905W        W82165  14.723  36.887  10.914
16906W        W82166  34.414  13.596   1.949
16907W        W82167  40.553  30.112  11.235
16908W        W82168  19.563  42.848  13.794
16909W        W82169  37.873  11.969   2.951
16910W        W82170  12.687  21.966   4.515
16911W        W82171  13.152  23.640   0.232
16912W        W82172  26.477  43.333   2.274
16913W        W82173  33.536  24.066   0.405
16914W        W82174  14.240  13.854   4.791
16915W        W82175  17.624  26.258  14.225
16916W        W82176  42.032   8.746   3.735
16917W        W82177   8.158  22.142  11.431
16918W        W82178  27.534  37.551   4.122
16919W        W82179  28.166  27.608  10.571
16920W        W82180   6.415  18.692  14.413
16921W        W82181   3.310  12.889   4.601
16922W        W82182   5.356  29.631  10.888
16923W        W82183  29.670  11.339  14.471
16924W        W82184  22.488   6.681   2.713
16925W        W82185  20.521   6.726  13.839
16926W        W82186  14.294  35.663  12.116
16927W        W82187  25.610   6.624   0.965
16928W        W82188  24.696  42.531   1.858
16929W        W82189  29.198  40.050   4.600
16930W        W82190  23.735  37.509  12.790
16931W        W82191  19.266  20.728  12.186
16932W        W82192  26.082  29.462   4.206
16933W        W82193  31.566   3.072   3.668
16934W        W82194  21.406  12.721  10.361
16935W        W82195   2.694   1.743  14.038
16936W        W82196  15.179  37.475   1.987
16937W        W82197   9.121   9.258   4.280
16938W        W82198   3.651   4.711  13.524
16939W        W82199   5.674  33.964  12.520
16940W        W82200  20.216  40.010  14.393
16941W        W82201   7.630  17.426   3.028
16942W        W82202  35.429  39.419   4.126
16943W        W82203  32.199  17.983   5.099
16944W        W82204   9.299  22.728  14.002
16945W        W82205  33.008  26.861   5.453
16946W        W82206  23.993  28.998  14.937
16947W        W82207  32.928  41.228   0.461
16948W        W82208   2.060   7.307   3.713
16949W        W82209  12.831  37.847  13.082
16950W        W82210  25.391  11.879  11.639
16951W        W82211  14.688  41.864   3.668
16952W        W82212  15.459  27.567   9.928
16953W        W82213  39.266  40.985  12.575
16954W        W82214  17.688  34.103  14.528
16955W        W82215  42.376  25.122  12.563
16956W        W82216   8.108  43.485  14.734
16957W        W82217  37.612  18.285   2.845
16958W        W82218   8.434  19.399   2.629
16959W        W82219   3.975  22.535   3.754
16960W        W82220  34.513  31.100   3.151
16961W        W82221  35.118  42.944   3.193
16962W        W82222  14.513  10.538  13.389
16963W        W82223  32.117  40.283  14.764
16964W        W82224  38.392   7.841   3.415
16965W        W82225  22.484  37.448  13.280
16966W        W82226  31.542  38.433   3.091
16967W        W82227   8.078  40.276   0.895
16968W        W82228  12.598  37.413   1.198
16969W        W82229  22.893  31.611   4.616
16970W        W82230  21.685  39.004  11.880
16971W        W82231  24.195  37.836   3.597
16972W        W82232   5.605  14.193   2.752
16973W        W82233   4.980  20.552   1.216
16974W        W82234  20.610   9.443  11.933
16975W        W82235   3.910  28.522  12.045
16976W        W82236   7.484  16.872   1.913
16977W        W82237  21.101   7.319   3.600
16978W        W82238  36.459  22.322   1.779
16979W        W82239  40.369   0.023  13.481
16980W        W82240   9.781   2.569   3.180
16981W        W82241  31.886  41.749  13.505
16982W        W82242  14.484  21.735  11.161
16983W        W82243  20.200  24.512  12.440
16984W        W82244  17.538   7.297   1.566
16985W        W82245  42.014  15.750   3.220
16986W        W82246  44.989   7.839  10.565
16987W        W82247  10.156  38.585  11.723
16988W        W82248  16.668   0.363   0.736
16989W        W82249  35.873  28.037   0.731
16990W        W82250  38.157   8.376   3.307
16991W        W82251  39.566  12.797   3.181
16992W        W82252  23.684  18.322   0.658
16993W        W82253  12.883  24.919  12.430
16994W        W82254   4.781  20.310  10.724
16995W        W82255  38.923   8.896   1.820
16996W        W82256  10.586   7.339  12.119
16997W        W82257  20.516  15.867  13.314
16998W        W82258  13.237  10.669   3.365
16999W        W82259   1.989  33.049   0.441
17000W        W82260  25.468  12.058  13.213
17001W        W82261  20.641   4.153   0.329
17002W        W82262  24.450  11.563  14.500
17003W        W82263  30.990  42.376  12.132
17004W        W82264  19.364  34.336  11.536
17005W        W82265  21.991  23.476   2.111
17006W        W82266   6.797  29.792   4.807
17007W        W82267   3.387  21.117   4.608
17008W        W82268  44.473   3.685   0.012
17009W        W82269  39.708  21.878  13.043
17010W        W82270   5.436   7.007  14.230
17011W        W82271   5.932  43.156  12.803
17012W        W82272  29.814   9.382   0.397
17013W        W82273  18.889  40.086  14.193
17014W        W82274  12.866  33.626  13.982
17015W        W82275   8.396  31.547  14.971
17016W        W82276  31.127  17.296  10.338
17017W        W82277  43.057   2.792   4.622
17018W        W82278  26.465  13.860   2.371
17019W        W82279  30.511  43.804   1.728
17020W        W82280  36.602  31.825  11.050
17021W        W82281  39.538  17.518   1.919
17022W        W82282   3.280  11.803   4.656
17023W        W82283  29.126  16.725  13.381
17024W        W82284  19.803  18.136  14.854
17025W        W82285  33.025  18.985  11.138
17026W        W82286  34.837  32.971   3.722
17027W        W82287  12.331  18.099  13.321
17028W        W82288  13.081  36.465   1.871
17029W        W82289  17.814   5.423   2.759
17030W        W82290  35.131  38.964   4.135
17031W        W82291  27.274  13.157  12.606
17032W        W82292  10.888   5.912   4.078
17033W        W82293  40.567  44.152  10.276
17034W        W82294  24.748   3.992  13.187
17035W        W82295  29.163  21.022   0.391
17036W        W82296  22.122  33.075  14.340
17037W        W82297  25.489  31.248   3.817
17038W        W82298  42.611  29.934  11.873
17039W        W82299  41.933  20.027  12.000
17040W        W82300  43.981  38.920  14.835
17041W        W82301  44.782  12.244   1.730
17042W        W82302   9.462  15.634  11.144
17043W        W82303  17.731  26.261   0.202
17044W        W82304  25.592  31.927   4.398
17045W        W82305  17.400  36.394  13.283
17046W        W82306  38.363  43.099   0.484
17047W        W82307  30.448  40.482  11.605
17048W        W82308  44.863  37.292  13.860
17049W        W82309   0.177   3.424   2.757
17050W        W82310  26.481  21.225   2.279
17051W        W82311  13.470   3.462   1.448
17052W        W82312  23.991   4.456  14.429
17053W        W82313  15.159  43.335   0.221
17054W        W82314  19.287  35.785  13.469
17055W        W82315  41.407  24.880   3.628
17056W        W82316  44.777  15.244   3.061
17057W        W82317  32.676  18.074   2.057
17058W        W82318   3.331  29.801   5.071
17059W        W82319  26.961  43.846   1.737
17060W        W82320  12.770   0.142   4.197
17061W        W82321  44.090  19.491   3.124
17062W        W82322  16.106  18.222  12.962
17063W        W82323  18.874  31.605  14.995
17064W        W82324  16.340  10.293   0.558
17065W        W82325  22.924  14.518  12.012
17066W        W82326   7.859   1.149   1.940
17067W        W82327   7.659  28.676   1.792
17068W        W82328   2.952   7.811  14.337
17069W        W82329  12.339  19.790  12.404
17070W        W82330  12.524  44.276  12.072
17071W        W82331   4.960   5.871  12.190
17072W        W82332   0.364  26.854  14.974
17073W        W82333  43.443  10.044   0.924
17074W        W82334  26.236  11.360   3.407
17075W        W82335   0.872   7.858   2.240
17076W        W82336  40.709   2.533   0.316
17077W        W82337  12.296  12.195  14.600
17078W        W82338  22.014  15.227  14.376
17079W        W82339  18.145  43.597   1.776
17080W        W82340  28.367  13.335   5.141
17081W        W82341  12.455  18.999  11.102
17082W        W82342  31.980  20.653   3.783
17083W        W82343  29.344  27.120   3.781
17084W        W82344  30.120  14.776   1.759
17085W        W82345   7.715  24.749   2.243
17086W        W82346  24.163  17.191  14.250
17087W        W82347   3.980  42.693   0.216
17088W        W82348  30.707  22.950   4.955
17089W        W82349  24.646   6.166  12.053
17090W        W82350  27.068  25.375   4.578
17091W        W82351   0.446  11.231  14.791
17092W        W82352  37.944  11.204   0.786
17093W        W82353  20.152   0.959  12.017
17094W        W82354  40.480  12.902  13.489
17095W        W82355  40.735  29.127  12.957
17096W        W82356  20.473  44.482  13.827
17097W        W82357   9.171  37.087  14.695
17098W        W82358   3.052   6.322   0.034
17099W        W82359  27.559  44.484  14.121
17100W        W82360  41.370  12.698   4.765
17101W        W82361  38.070  38.067   3.726
17102W        W82362   6.567  43.029   4.870
17103W        W82363  27.027  22.571  12.465
17104W        W82364  23.157  31.029   0.751
17105W        W82365  32.824  42.731  13.386
17106W        W82366   2.457  15.593  13.141
17107W        W82367  31.791  28.316   5.677
17108W        W82368   7.261  29.719   2.232
17109W        W82369  43.818  16.649   3.935
17110W        W82370  29.969   8.114   3.542
17111W        W82371  37.744  39.065  12.011
17112W        W82372   7.043   3.574  10.948
17113W        W82373  16.165  29.064  13.708
17114W        W82374   2.218  10.616  12.994
17115W        W82375   1.508  16.608   0.759
17116W        W82376  15.694  44.161   1.391
17117W        W82377   1.324  29.013   0.250
17118W        W82378  29.913   0.860  11.743
17119W        W82379  25.829  20.843   5.380
17120W        W82380  40.749  24.123   2.155
17121W        W82381  29.588  21.976   3.296
17122W        W82382  15.218  10.148  11.673
17123W        W82383  25.219  13.637  14.986
17124W        W82384   0.011  25.197  11.987
17125W        W82385   8.742   4.342  14.339
17126W        W82386  40.972   7.644  14.429
17127W        W82387  44.368  27.457   1.869
17128W        W82388  10.134  12.364  12.594
17129W        W82389  21.704  13.306  12.649
17130W        W82390  19.938  42.880   9.855
17131W        W82391  43.676  10.238   4.636
17132W        W82392   9.867   6.448   1.769
17133W        W82393   0.366  14.192   4.746
17134W        W82394   9.555  16.559  12.570
17135W        W82395   1.394   9.326   2.687
17136W        W82396  18.750  44.670   1.280
17137W        W82397  30.334   2.720  14.010
17138W        W82398  16.344  13.686   3.593
17139W        W82399  21.302   2.293  14.925
17140W        W82400  42.826  24.645  14.741
17141W        W82401  12.637  44.770  14.842
17142W        W82402   8.028  28.568   0.864
17143W        W82403   2.840  27.245  11.973
17144W        W82404  24.393  43.349   0.938
17145W        W82405  36.442  38.983  12.844
17146W        W82406  23.504  42.903  13.774
17147W        W82407  17.780  36.308  14.006
17148W        W82408  20.596  33.174   3.702
17149W        W82409  43.965  44.238  13.873
17150W        W82410  32.858  18.660   1.318
17151W        W82411  21.689  28.964  11.146
17152W        W82412   1.770  30.176   0.331
17153W        W82413  21.972  42.376   2.279
17154W        W82414  36.043  15.139   0.442
17155W        W82415  38.464  40.015  10.645
17156W        W82416  18.610  43.530  10.756
17157W        W82417  11.721  16.899  11.981
17158W        W82418  34.774  14.135  14.188
17159W        W82419  12.813   8.798   2.384
17160W        W82420  21.502  26.906  11.983
17161W        W82421   4.564  26.568   4.565
17162W        W82422  24.089   2.341   0.796
17163W        W82423  28.584  11.061   2.684
17164W        W82424  34.331  10.756   4.506
17165W        W82425  37.951  17.376   3.140
17166W        W82426  32.393  12.604   3.116
17167W        W82427  44.187  28.451   2.254
17168W        W82428  38.405  17.118   2.425
17169W        W82429  20.391  28.331  12.035
17170W        W82430  25.589  44.168   1.635
17171W        W82431  42.244  20.529  14.401
17172W        W82432  25.153   3.188   4.043
17173W        W82433  10.194   9.179  12.560
17174W        W82434  35.856  31.996  10.684
17175W        W82435   9.619   8.478   4.234
17176W        W82436  30.923   1.881   4.151
17177W        W82437   7.904  33.373   3.650
17178W        W82438  12.433   3.297  13.876
17179W        W82439  34.026  33.211   0.039
17180W        W82440  15.261  42.092  12.246
17181W        W82441  15.388  26.468  11.447
17182W        W82442  32.060  12.110  12.017
17183W        W82443  29.899   0.142  10.993
17184W        W82444  32.265  37.884  13.534
17185W        W82445  26.016  21.909  12.056
17186W        W82446  10.368  36.257  12.638
17187W        W82447  20.291  36.100  12.112
17188W        W82448   0.298  25.722  14.164
17189W        W82449  16.747  25.920  12.954
17190W        W82450  23.389  40.119  12.595
17191W        W82451   1.256  29.461   4.593
17192W        W82452  35.083  40.497   4.385
17193W        W82453  39.437  10.382   1.532
17194W        W82454  32.074  24.140  12.103
17195W        W82455  34.441  41.804   3.699
17196W        W82456   5.461   4.171  11.192
17197W        W82457  33.771  37.401   5.087
17198W        W82458  21.340  44.880  10.185
17199W        W82459   0.836  33.865   3.631
17200W        W82460  27.416  15.603   3.110
17201W        W82461  26.129  41.222  12.550
17202W        W82462  13.125  33.834  12.835
17203W        W82463  12.529   7.938  12.541
17204W        W82464  34.821  44.449  12.408
17205W        W82465  37.286  39.356   1.013
17206W        W82466  25.243  34.906  11.009
17207W        W82467  39.934  29.673   3.129
17208W        W82468  16.121  42.704  11.753
17209W        W82469  30.050  14.100   2.562
17210W        W82470  11.953  33.724  13.118
17211W        W82471   6.931  35.973   4.179
17212W        W82472   5.943  21.274   3.694
17213W        W82473  23.674   1.228   4.958
17214W        W82474  28.146   3.842  13.575
17215W        W82475   3.725   7.680   3.520
17216W        W82476  34.301  32.417   2.361
17217W        W82477  42.314  42.391   2.260
17218W        W82478  42.131  35.662  12.451
17219W        W82479   6.525  34.504  12.467
17220W        W82480   6.384  20.700  11.648
17221W        W82481  27.653  16.569  12.974
17222W        W82482  16.818   0.202   1.886
17223W        W82483   3.863  20.515   2.775
17224W        W82484  37.997  25.147   3.280
17225W        W82485   0.412  39.842  11.586
17226W        W82486  21.698  42.264   4.746
17227W        W82487  35.261  41.510   0.210
17228W        W82488  21.262  30.127   0.780
17229W        W82489  23.689   2.248   2.460
17230W        W82490  19.800  17.287   2.658
17231W        W82491  29.938  10.162   3.393
17232W        W82492  12.600  42.242  10.694
17233W        W82493  14.173  20.967  13.938
17234W        W82494  42.870  35.651  13.551
17235W        W82495  14.661  34.222  11.968
17236W        W82496   3.429  18.788   4.661
17237W        W82497   1.862  24.180   9.489
17238W        W82498  44.502  12.917  11.215
17239W        W82499  40.893  31.914   4.382
17240W        W82500  36.403   1.527  14.032
17241W        W82501  40.523  20.671   0.934
17242W        W82502  34.031  20.515   2.719
17243W        W82503  14.049   8.897  13.226
17244W        W82504  18.416  33.132   0.869
17245W        W82505  14.601   1.365   1.691
17246W        W82506   1.048  36.393   2.394
17247W        W82507   6.377  19.792   4.600
17248W        W82508  26.052  34.865   3.850
17249W        W82509  30.416   2.267   3.130
17250W        W82510   5.379  16.635   0.853
17251W        W82511   0.432  37.761   1.188
17252W        W82512  44.020  29.572   0.220
17253W        W82513  38.907  38.994   1.668
17254W        W82514  13.534  12.810   0.910
17255W        W82515  35.408  38.442  13.861
17256W        W82516  43.874  33.010   0.810
17257W        W82517  33.980  14.529  14.159
17258W        W82518  10.300  33.677   3.207
17259W        W82519  10.555  40.101  13.069
17260W        W82520  40.581  27.552   3.233
17261W        W82521  32.117  39.412   0.403
17262W        W82522  13.710   7.751  13.324
17263W        W82523  43.541  37.668   1.352
17264W        W82524  11.288   1.723   1.708
17265W        W82525  41.246  32.448  11.993
17266W        W82526  13.840  20.255   0.924
17267W        W82527  30.645  15.792   3.231
17268W        W82528   2.214  32.903  14.985
17269W        W82529  32.457  17.120   3.083
17270W        W82530  44.480  22.771  11.674
17271W        W82531  42.515  33.642   2.424
17272W        W82532  21.458  40.528  11.089
17273W        W82533  41.944  26.658  14.261
17274W        W82534  27.034  16.064  14.333
17275W        W82535  36.318  42.710   1.317
17276W        W82536   9.390  33.143   3.623
17277W        W82537   3.860  33.458   4.121
17278W        W82538  11.166  25.150  14.758
17279W        W82539   6.305  16.668   4.593
17280W        W82540  27.026  33.326  13.778
17281W        W82541  32.820  39.442   4.199
17282W        W82542  33.799   7.958  14.949
17283W        W82543  42.952  24.912   2.923
17284W        W82544  36.401   0.727   0.861
17285W        W82545  13.095   2.785  13.357
17286W        W82546  11.533  16.797  11.026
17287W        W82547  31.451  19.227  13.335
17288W        W82548  29.676  34.478   3.293
17289W        W82549  25.156  11.297  12.550
17290W        W82550  16.128  37.976   1.234
17291W        W82551  12.884   2.669   3.068
17292W        W82552   7.280   4.853  12.612
17293W        W82553  20.977  16.270   2.374
17294W        W82554  36.906  35.145  12.549
17295W        W82555   3.120  16.225   3.382
17296W        W82556  22.002  22.944   0.931
17297W        W82557   8.732   7.778   4.740
17298W        W82558  37.190  43.775  13.061
17299W        W82559  43.830  20.475   3.013
17300W        W82560  41.745  36.399   0.779
17301W        W82561  37.043   6.807  11.906
17302W        W82562  34.428   7.456   0.392
17303W        W82563  12.384  30.134   5.264
17304W        W82564  33.903  31.894  13.750
17305W        W82565  19.257  33.449   3.355
17306W        W82566  32.542  30.395   2.350
17307W        W82567  29.525  16.859   0.032
17308W        W82568  33.658  29.212   4.226
17309W        W82569  16.182  19.217  11.597
17310W        W82570  26.483  21.570  12.641
17311W        W82571  36.271  13.635  12.963
17312W        W82572  23.049  16.154   1.682
17313W        W82573  18.786   3.232   2.741
17314W        W82574   4.879  19.080  12.169
17315W        W82575  34.981  35.414  12.140
17316W        W82576  10.449  19.942  12.629
17317W        W82577  16.107  21.975  13.788
17318W        W82578   1.699  41.088  12.949
17319W        W82579  11.825  20.112   1.951
17320W        W82580  19.313   1.393   0.786
17321W        W82581  33.521  36.370  13.252
17322W        W82582  19.304  35.058  12.925
17323W        W82583  39.866  28.082   4.199
17324W        W82584  15.253   4.593   0.392
17325W        W82585  16.662  40.522  14.892
17326W        W82586   2.472   8.416   0.212
17327W        W82587  31.782   8.700  12.005
17328W        W82588   4.502  36.188  14.947
17329W        W82589   3.248  27.013  12.818
17330W        W82590   2.869  29.497   9.935
17331W        W82591  14.099  27.093  13.943
17332W        W82592  29.604   0.953   0.966
17333W        W82593  17.199  34.097  12.469
17334W        W82594  29.700  39.882  12.555
17335W        W82595   6.793   1.842   4.101
17336W        W82596  33.513  10.384   2.401
17337W        W82597  19.708  10.869   2.949
17338W        W82598  21.463  42.345   0.442
17339W        W82599   4.262  39.530  11.700
17340W        W82600  21.248  23.238   4.523
17341W        W82601   3.288   2.916  12.907
17342W        W82602  28.162  42.869  11.947
17343W        W82603  21.975  16.692  14.189
17344W        W82604  26.596  42.509   4.152
17345W        W82605  23.043  24.689  12.488
17346W        W82606  17.475   5.737   4.616
17347W        W82607  15.178   2.921  11.009
17348W        W82608  18.252  10.570   1.747
17349W        W82609   1.142  31.193  12.804
17350W        W82610   6.878  30.722  12.790
17351W        W82611  40.228  15.066   4.559
17352W        W82612  10.009  27.094   2.131
17353W        W82613  10.170  17.328   2.933
17354W        W82614  39.314  31.979  11.995
17355W        W82615  22.844  44.663   2.681
17356W        W82616  33.092  10.766  14.002
17357W        W82617  41.282  29.135  12.899
17358W        W82618  23.335  19.834  11.477
17359W        W82619  23.629  32.661  12.994
17360W        W82620  25.915   4.774   3.657
17361W        W82621  28.401  20.250  14.636
17362W        W82622  12.398  35.355  11.214
17363W        W82623   3.447  39.917  14.975
17364W        W82624  42.536  31.822  12.615
17365W        W82625   7.726  11.410   0.307
17366W        W82626  29.412  41.970   1.517
17367W        W82627  31.384  27.758  11.121
17368W        W82628  33.758  13.178   2.679
17369W        W82629  34.095  19.692  14.065
17370W        W82630   1.961   7.728   0.459
17371W        W82631   8.893  31.613   1.935
17372W        W82632   9.320  15.829  14.267
17373W        W82633   9.888  38.878   2.223
17374W        W82634  39.895  20.037  11.962
17375W        W82635   2.440  38.872   2.713
17376W        W82636  33.722  19.093  12.268
17377W        W82637   2.239  19.555   3.147
17378W        W82638  11.897   5.261  13.322
17379W        W82639  43.339  36.819   1.210
17380W        W82640  30.432  30.114   4.352
17381W        W82641  38.558   7.409  12.050
17382W        W82642  11.054   4.831   9.801
17383W        W82643  23.121  23.987  14.792
17384W        W82644  40.635  21.201  11.770
17385W        W82645  22.578  42.443  10.755
17386W        W82646  31.424  42.740  13.064
17387W        W82647  31.992   1.130   1.917
17388W        W82648  11.186  20.318   4.776
17389W        W82649  23.062  15.553  11.077
17390W        W82650  30.496  25.539  11.499
17391W        W82651  21.598   4.912   3.115
17392W        W82652   6.678  24.525  14.342
17393W        W82653  32.189  11.347  10.183
17394W        W82654  38.570  10.075   0.497
17395W        W82655  43.449  30.166  10.575
17396W        W82656  27.395   9.268  13.943
17397W        W82657  13.708  21.379   9.995
17398W        W82658  20.137   4.680  11.462
17399W        W82659  12.899  19.032   2.767
17400W        W82660  10.503  24.504   1.940
17401W        W82661  38.718  18.383   3.786
17402W        W82662  39.581  11.335   1.919
17403W        W82663  13.668  25.331   2.294
17404W        W82664   2.777   3.986  13.521
17405W        W82665  41.851  29.063  13.947
17406W        W82666   9.403  23.721   1.835
17407W        W82667  20.139   7.411  12.482
17408W        W82668  41.415   1.214  13.434
17409W        W82669   0.767  43.743   3.139
17410W        W82670   2.590  33.265   3.624
17411W        W82671   0.289  17.868   1.605
17412W        W82672   7.253  13.918  11.575
17413W        W82673  23.549   2.138   1.595
17414W        W82674   4.730  37.062   1.486
17415W        W82675  24.242  31.921   2.399
17416W        W82676  30.726  44.463  11.658
17417W        W82677  29.502   1.784   0.010
17418W        W82678  44.979  42.359  12.569
17419W        W82679  42.241  34.110   3.710
17420W        W82680   3.551  20.429  12.879
17421W        W82681  33.010  19.248  12.454
17422W        W82682  10.366  14.147  13.004
17423W        W82683  34.511  44.811   0.376
17424W        W82684   9.915  34.139   2.718
17425W        W82685  36.412  44.800  14.926
17426W        W82686  39.837  38.585   4.747
17427W        W82687  42.530   9.942   1.496
17428W        W82688  37.786   5.721  10.694
17429W        W82689  34.509   8.707  14.185
17430W        W82690  32.544   6.498   2.870
17431W        W82691  16.149  19.574   2.217
17432W        W82692  41.315  42.752  14.329
17433W        W82693   3.374  12.667   1.615
17434W        W82694  35.205  37.619   4.370
17435W        W82695  21.678  35.137   3.313
17436W        W82696  32.033   9.339  12.470
17437W        W82697  30.283  33.797   1.441
17438W        W82698   4.308  14.289   1.994
17439W        W82699   9.701   2.788  14.407
17440W        W82700   6.731  41.131   2.886
17441W        W82701  43.008   6.173  11.173
17442W        W82702   2.769  35.530   4.742
17443W        W82703   3.443  34.796   0.782
17444W        W82704   5.796  37.999  12.613
17445W        W82705   4.110  15.666   4.371
17446W        W82706   5.972  26.618  10.609
17447W        W82707  17.022  32.171   0.296
17448W        W82708   0.653  10.762  11.098
17449W        W82709  17.524  15.118  14.852
17450W        W82710  35.718  39.055  14.871
17451W        W82711  37.917  37.920   0.764
17452W        W82712  24.010  19.731  14.725
17453W        W82713  20.538  11.965  14.306
17454W        W82714  19.536  38.062   0.192
17455W        W82715  15.864  14.494   3.164
17456W        W82716  22.593  16.527   3.572
17457W        W82717  24.601  25.200  11.673
17458W        W82718  11.184  37.934  12.884
17459W        W82719  11.786  15.518   0.743
17460W        W82720  29.024  24.943  11.699
17461W        W82721   3.865  21.070   2.476
17462W        W82722  31.686  17.586   3.736
17463W        W82723  44.501  21.047   4.017
17464W        W82724  32.515  40.356   0.480
17465W        W82725  20.706  18.235   0.849
17466W        W82726  28.968  16.675   2.184
17467W        W82727  34.592  21.587   2.305
17468W        W82728  24.824   6.619   0.796
17469W        W82729  21.661   9.634  12.166
17470W        W82730  38.334  34.093   3.694
17471W        W82731  37.516  18.218   4.353
17472W        W82732   6.727  12.464   2.647
17473W        W82733  28.028  20.138  14.308
17474W        W82734   6.008  17.184  12.806
17475W        W82735   5.974  43.524  11.829
17476W        W82736  44.966  38.291  11.103
17477W        W82737  13.249  25.028   1.076
17478W        W82738  31.329  12.335   4.194
17479W        W82739   5.326  13.617   0.765
17480W        W82740  26.308  29.049  11.048
17481W        W82741  28.484  29.124  13.517
17482W        W82742  20.510  14.616  13.079
17483W        W82743   6.885  38.791  12.953
17484W        W82744  37.258   1.373  11.711
17485W        W82745  13.189  15.006   0.304
17486W        W82746  29.037   6.338   0.388
17487W        W82747  36.817  22.934  14.891
17488W        W82748   5.835  24.193   0.048
17489W        W82749  35.097   7.605   4.868
17490W        W82750  37.087  29.852   2.676
17491W        W82751  40.180   9.122   2.864
17492W        W82752   1.651  36.621  12.932
17493W        W82753  25.910  29.070   2.801
17494W        W82754  11.057  29.015   0.383
17495W        W82755   7.268  32.895   3.165
17496W        W82756  15.366  29.715  11.189
17497W        W82757  32.203  31.888   3.246
17498W        W82758  20.793  23.462  13.941
17499W        W82759  17.798  16.076  13.401
17500W        W82760   0.454  21.939   4.106
17501W        W82761   6.336  33.928   1.751
17502W        W82762  34.503   9.215  13.939
17503W        W82763  24.226  17.104   0.314
17504W        W82764  21.113  39.960   4.846
17505W        W82765  25.709  41.925   1.535
17506W        W82766  12.313  36.433  12.022
17507W        W82767  34.458   3.347  11.105
17508W        W82768   3.445   4.643   5.023
17509W        W82769   9.164  35.969   1.296
17510W        W82770   3.219  34.609  11.691
17511W        W82771  13.370  25.190   3.781
17512W        W82772  29.174  29.468   0.682
17513W        W82773  25.397  32.253  13.050
17514W        W82774   2.431  12.893   5.122
17515W        W82775  20.862   8.955   2.306
17516W        W82776  22.972  11.333  14.850
17517W        W82777  20.305  13.638  13.821
17518W        W82778   0.372   5.927   1.180
17519W        W82779  25.007  40.782  14.190
17520W        W82780   1.283  44.953  13.075
17521W        W82781  16.517  38.493  13.000
17522W        W82782   8.198   9.365  14.492
17523W        W82783  11.900  20.027   2.481
17524W        W82784  35.797  10.841   4.581
17525W        W82785  29.929  17.131   3.760
17526W        W82786  14.231  37.890  14.895
17527W        W82787  13.684  43.965   4.904
17528W        W82788  11.315  18.196   1.597
17529W        W82789   6.339  39.910   1.632
17530W        W82790   6.099  33.108   0.290
17531W        W82791  24.305  31.680   2.886
17532W        W82792  17.753  43.317   3.978
17533W        W82793  14.046  20.158  11.507
17534W        W82794  19.363  20.667   1.914
17535W        W82795  14.734  10.712   0.371
17536W        W82796  20.965  24.427   4.076
17537W        W82797   2.919  42.053   0.226
17538W        W82798  35.271   6.820   0.905
17539W        W82799  32.021  14.102  12.886
17540W        W82800   8.310  28.665  14.023
17541W        W82801  34.650  18.749  14.834
17542W        W82802  21.537   7.831   4.092
17543W        W82803  40.438   7.582  14.287
17544W        W82804  34.870  17.090   2.226
17545W        W82805  39.544  37.457  14.462
17546W        W82806  10.213  16.127  12.680
17547W        W82807  41.996  40.267   3.080
17548W        W82808  23.557  43.387  13.144
17549W        W82809  32.862  36.668  11.615
17550W        W82810  33.410  39.355   4.265
17551W        W82811  23.293  35.063   1.671
17552W        W82812  32.667  37.357  13.479
17553W        W82813  36.074  27.747   2.678
17554W        W82814  24.450  16.209  13.613
17555W        W82815  32.969   0.514  10.146
17556W        W82816  41.996   0.305   1.374
17557W        W82817  27.580  13.704  13.173
17558W        W82818  37.040  25.527   2.524
17559W        W82819  23.435   6.771  12.535
17560W        W82820  34.000  42.469   1.144
17561W        W82821  23.132  10.680  12.893
17562W        W82822  21.436   1.645   1.468
17563W        W82823  35.074   6.963  11.689
17564W        W82824  28.428   3.217  12.563
17565W        W82825  28.977  35.344   0.889
17566W        W82826  35.896  30.680   0.743
17567W        W82827  42.953  40.892  14.974
17568W        W82828  27.722   9.780   0.777
17569W        W82829   4.283  33.048   2.181
17570W        W82830  12.177   4.132   1.882
17571W        W82831  30.722  43.770   0.321
17572W        W82832   2.048   1.061  14.141
17573W        W82833  25.535  39.758  12.077
17574W        W82834  18.448  33.962  14.040
17575W        W82835   8.200  18.550   4.924
17576W        W82836   3.888  28.588   1.458
17577W        W82837   3.183  16.079   0.812
17578W        W82838  28.212  10.195  12.537
17579W        W82839   6.728  39.620   2.913
17580W        W82840  20.264  36.304   4.226
17581W        W82841  41.804  30.983  12.860
17582W        W82842  15.240  35.087  12.909
17583W        W82843   4.982  14.573   2.725
17584W        W82844  29.177   3.662  11.352
17585W        W82845  16.234   9.369   4.823
17586W        W82846   8.296   0.895  13.430
17587W        W82847   3.526  43.950   1.338
17588W        W82848  43.532  20.013  11.548
17589W        W82849   8.672  10.099  12.844
17590W        W82850  15.084  12.201  11.124
17591W        W82851  18.258  42.087   0.726
17592W        W82852  26.622  17.246  10.259
17593W        W82853  19.575  28.589   4.851
17594W        W82854  25.054   9.751  11.901
17595W        W82855  16.740  29.105   4.404
17596W        W82856  44.915  16.288   3.547
17597W        W82857  44.369  41.217   2.787
17598W        W82858  10.723  32.872   2.373
17599W        W82859  30.395   5.662   1.175
17600W        W82860  21.019   0.764   4.128
17601W        W82861  37.840  38.392  11.070
17602W        W82862  21.975  33.662   0.228
17603W        W82863  14.080  35.940  11.716
17604W        W82864  28.970   2.804  11.890
17605W        W82865  25.792  41.081   4.553
17606W        W82866  26.527   2.651  14.977
17607W        W82867  25.883   8.928  12.861
17608W        W82868   7.339  10.343   2.452
17609W        W82869  29.183  37.581  11.245
17610W        W82870  22.199  24.232  14.877
17611W        W82871   2.877  18.351   3.638
17612W        W82872  10.896  32.451  10.948
17613W        W82873   4.862  23.569   1.951
17614W        W82874  28.566  12.049  11.078
17615W        W82875   4.443  37.303   3.420
17616W        W82876  22.944  21.220  10.133
17617W        W82877  10.786   9.910  11.982
17618W        W82878  20.238   3.317  11.644
17619W        W82879   9.199  23.467  10.424
17620W        W82880  29.537  34.381   3.773
17621W        W82881  24.124  29.478   2.226
17622W        W82882  32.435  35.921  12.602
17623W        W82883  40.780  43.929  12.567
17624W        W82884  39.871  12.274  13.601
17625W        W82885   9.197  15.985  14.738
17626W        W82886  36.845  39.323  12.951
17627W        W82887  26.184  12.042   0.056
17628W        W82888  21.786  43.746  11.912
17629W        W82889  16.695  14.646   3.967
17630W        W82890   3.612  20.113  14.426
17631W        W82891  28.255  30.815   3.553
17632W        W82892   2.933  18.635  13.846
17633W        W82893  10.410   5.298   3.573
17634W        W82894  23.920  34.992  10.606
17635W        W82895  20.632  32.828   0.809
17636W        W82896  21.754   9.204  13.827
17637W        W82897  11.348  34.040  12.003
17638W        W82898  16.084   5.747   2.126
17639W        W82899   9.888  29.029  10.729
17640W        W82900  29.820  37.923  11.537
17641W        W82901  21.085  28.685  12.973
17642W        W82902   8.302  14.303   0.246
17643W        W82903  42.095  23.160   2.679
17644W        W82904  39.268  13.787   4.558
17645W        W82905  27.857  21.572   0.280
17646W        W82906  13.322  26.027  10.446
17647W        W82907  28.882  12.127   0.518
17648W        W82908  18.984   5.590   3.704
17649W        W82909  34.800  32.500  11.152
17650W        W82910   0.253  40.004   1.676
17651W        W82911  27.427  34.476  14.909
17652W        W82912  18.178   4.098   1.143
17653W        W82913   4.679  40.329   2.878
17654W        W82914   4.126  43.950   3.721
17655W        W82915  35.249  10.713  14.952
17656W        W82916  36.547  26.692  14.916
17657W        W82917  33.493  21.708  12.459
17658W        W82918  38.137  42.508  10.992
17659W        W82919  26.087   9.998  11.455
17660W        W82920  37.873  44.353   4.112
17661W        W82921  26.382  26.872  14.317
17662W        W82922   7.516  44.764  14.736
17663W        W82923   0.535  18.187  13.898
17664W        W82924  14.021  15.833   0.813
17665W        W82925  29.722  24.029   3.156
17666W        W82926  24.140  29.073  11.733
17667W        W82927  33.179  21.552  11.918
17668W        W82928  38.378  10.180   2.587
17669W        W82929  18.738   5.971  13.179
17670W        W82930  27.721  13.728  12.667
17671W        W82931  24.309  37.755  13.060
17672W        W82932  35.959  37.481   4.929
17673W        W82933  10.657  35.898   0.482
17674W        W82934  19.108  39.851   0.060
17675W        W82935  39.575   3.670   9.857
17676W        W82936  37.949  26.710  14.936
17677W        W82937  34.857  24.204  14.866
17678W        W82938  36.101  19.917   3.712
17679W        W82939  42.329  11.490  12.121
17680W        W82940  22.568  42.860   0.622
17681W        W82941  24.061  33.847   2.225
17682W        W82942  15.729  12.520   2.957
17683W        W82943  27.128   2.298   0.382
17684W        W82944  26.092  22.457   2.400
17685W        W82945  32.172  13.967   9.739
17686W        W82946  33.353  39.894   3.602
17687W        W82947  26.193  43.815  14.429
17688W        W82948  26.234  16.905   1.836
17689W        W82949  29.011  44.459   1.294
17690W        W82950  30.381   3.767   0.053
17691W        W82951  43.847  41.965   4.661
17692W        W82952  44.904   3.455  10.815
17693W        W82953  25.441  35.859  13.966
17694W        W82954  21.234  42.524   4.655
17695W        W82955  25.132  24.040   0.021
17696W        W82956  42.904   5.929  10.733
17697W        W82957  29.399  21.830  14.481
17698W        W82958   4.310  19.693  13.438
17699W        W82959   7.170   7.277  12.267
17700W        W82960  34.012  34.296  10.948
17701W        W82961  20.031  34.271   4.235
17702W        W82962  40.292  37.012   4.196
17703W        W82963   2.318  40.447   0.750
17704W        W82964   6.901  10.988   4.228
17705W        W82965  15.324  28.304   2.779
17706W        W82966  29.721   9.386   2.966
17707W        W82967   5.777  23.752   1.279
17708W        W82968   7.987   4.812   3.896
17709W        W82969  31.758   8.338  12.427
17710W        W82970   1.836   9.269  11.626
17711W        W82971  37.475  23.247  13.097
17712W        W82972   0.962   6.736   0.701
17713W        W82973  43.491  20.093   1.388
17714W        W82974   3.650  30.619  13.891
17715W        W82975  37.120   6.817   0.212
17716W        W82976   5.267  44.045  12.128
17717W        W82977  26.914  44.509  11.194
17718W        W82978  38.647  10.890   0.874
17719W        W82979  43.182  32.531  12.053
17720W        W82980  11.939  43.932   4.482
17721W        W82981  18.218  15.988  11.169
17722W        W82982  32.422  17.326  10.327
17723W        W82983  30.485  44.379   3.128
17724W        W82984  10.681  11.702  14.241
17725W        W82985  40.361  27.704  14.853
17726W        W82986  13.775  11.844   2.485
17727W        W82987  42.781  20.108  11.849
17728W        W82988  15.725  25.434   1.324
17729W        W82989  19.196   2.772  13.495
17730W        W82990  41.387   1.674   1.823
17731W        W82991  32.124   8.214  14.411
17732W        W82992  40.672  33.671  10.169
17733W        W82993  14.386   8.754  12.397
17734W        W82994  44.403   4.581  12.119
17735W        W82995  34.657  26.285  10.881
17736W        W82996  43.873  34.796  12.962
17737W        W82997  27.424  43.545  12.258
17738W        W82998   4.235  42.475  13.796
17739W        W82999   9.334   0.897  12.450
17740W        W83000   3.608  44.844   4.672
17741W        W83001  12.955  29.283   2.443
17742W        W83002  13.161  41.638  11.136
17743W        W83003  35.597  15.320  10.777
17744W        W83004  34.264  41.106   1.395
17745W        W83005  41.795  23.813  13.626
17746W        W83006  26.371  23.336   3.707
17747W        W83007  15.315  44.481  12.360
17748W        W83008  18.128  24.536  11.869
17749W        W83009  25.636  27.679  14.889
17750W        W83010  10.305  40.204  10.483
17751W        W83011  26.251   0.894  11.565
17752W        W83012  43.326  26.899  13.471
17753W        W83013  39.684  37.078   0.422
17754W        W83014  28.998  26.672  13.988
17755W        W83015  29.559  27.301   0.355
17756W        W83016   7.359   8.749  13.018
17757W        W83017  25.595  14.299   2.631
17758W        W83018  43.811   3.180   4.200
17759W        W83019  22.071  25.032   0.557
17760W        W83020   0.665   7.166  14.548
17761W        W83021  17.427  27.656  12.420
17762W        W83022  35.958  30.661  10.759
17763W        W83023  40.120  22.692  13.474
17764W        W83024  35.422  11.157  13.724
17765W        W83025  39.134   0.297   4.098
17766W        W83026  11.880  39.186   0.220
17767W        W83027  41.279  18.266  14.480
17768W        W83028  34.290  12.628   4.225
17769W        W83029  29.137  18.769  13.961
17770W        W83030  16.068  37.075  11.401
17771W        W83031  19.168  37.547   4.902
17772W        W83032  29.979  41.385  12.141
17773W        W83033  28.723  35.601   2.321
17774W        W83034  19.241  12.241  13.004
17775W        W83035  43.765  38.052   3.691
17776W        W83036   9.633  16.762  11.172
17777W        W83037  19.877  18.164  13.922
17778W        W83038  32.299  21.175  14.421
17779W        W83039  14.322  28.844   3.309
17780W        W83040  42.986  22.170  13.542
17781W        W83041  10.883   8.231  13.886
17782W        W83042   3.287   0.556  11.921
17783W        W83043  40.422   5.494   4.115
17784W        W83044   7.932  18.750  14.329
17785W        W83045   1.876  38.046   2.750
17786W        W83046  38.078  34.819   4.167
17787W        W83047   5.131  19.889   0.271
17788W        W83048  27.680  29.500  12.383
17789W        W83049   4.263  17.713   3.887
17790W        W83050  24.623  27.930  12.434
17791W        W83051  12.324  13.272   2.659
17792W        W83052  15.318   3.844  13.029
17793W        W83053  41.322  25.399   2.373
17794W        W83054  16.283  15.137   1.875
17795W        W83055  29.908  41.288  14.220
17796W        W83056  11.431   3.488   4.154
17797W        W83057   5.660  42.444   4.575
17798W        W83058  16.486  42.517  12.257
17799W        W83059  27.490   5.845  14.881
17800W        W83060  36.801  42.132  11.920
17801W        W83061  20.838  23.230  14.575
17802W        W83062  10.610  42.916  12.483
17803W        W83063  40.068  42.950   0.223
17804W        W83064  31.963  32.741  13.537
17805W        W83065  34.841   4.275   1.961
17806W        W83066  41.983  34.966  14.924
17807W        W83067  17.815   0.982   2.760
17808W        W83068  35.832   6.606  12.647
17809W        W83069  24.186  17.246  14.806
17810W        W83070  33.281  25.149  14.891
17811W        W83071   3.994  30.573  14.857
17812W        W83072  39.520  11.084  13.608
17813W        W83073   1.253  42.372   2.637
17814W        W83074  12.913  28.570   4.533
17815W        W83075  19.923  39.405   3.142
17816W        W83076  32.715   9.355  13.951
17817W        W83077  36.851  28.138  13.609
17818W        W83078  39.378  44.879  11.854
17819W        W83079  15.274   6.204  12.505
17820W        W83080  17.600  31.336   0.902
17821W        W83081  10.785  11.269   3.195
17822W        W83082   0.325   4.834  13.200
17823W        W83083  30.414  28.594  12.535
17824W        W83084  39.879   1.197  13.755
17825W        W83085  20.762  41.852   1.451
17826W        W83086  42.838  22.250  14.899
17827W        W83087  42.297  31.182  14.464
17828W        W83088  28.532  34.974  10.772
17829W        W83089  16.796  29.136   3.868
17830W        W83090  10.383  20.618   2.624
17831W        W83091   6.434  10.108   0.689
17832W        W83092  32.721  21.640   2.402
17833W        W83093  20.784  32.940   2.678
17834W        W83094  28.378  17.662  10.688
17835W        W83095  33.866  39.425   3.359
17836W        W83096  18.671   4.624  12.578
17837W        W83097  18.330  19.994  13.823
17838W        W83098  22.465  18.010  14.337
17839W        W83099   8.386  15.808  12.389
17840W        W83100  22.104  18.033   4.183
17841W        W83101  28.878  25.374  13.301
17842W        W83102  37.498  36.635   1.595
17843W        W83103  10.309  36.579  10.609
17844W        W83104  26.474  34.992   3.056
17845W        W83105  13.945   9.685  12.398
17846W        W83106   2.472  42.335  13.519
17847W        W83107  10.513  28.363   2.124
17848W        W83108  39.140  32.605   3.679
17849W        W83109  13.388  19.972  12.131
17850W        W83110  42.853  22.017   1.217
17851W        W83111  16.796  17.612   1.770
17852W        W83112  23.295  43.768  10.984
17853W        W83113  41.815   9.672   3.772
17854W        W83114  17.632  36.424  14.916
17855W        W83115   7.124  36.045   2.261
17856W        W83116   9.907  35.483  14.417
17857W        W83117  33.074  27.054  12.579
17858W        W83118  41.826  31.814   3.638
17859W        W83119  12.828  41.354  14.106
17860W        W83120   6.876  29.267   1.487
17861W        W83121  22.131  41.475  11.470
17862W        W83122  35.318  18.759   2.738
17863W        W83123  44.855  24.534   0.537
17864W        W83124  17.902  29.397  11.963
17865W        W83125  19.298   6.144   2.194
17866W        W83126  11.848   8.343   1.348
17867W        W83127   7.309  37.004   1.473
17868W        W83128  33.077   3.367   1.860
17869W        W83129  24.842   1.229  12.533
17870W        W83130  40.322  41.129   2.734
17871W        W83131  10.647   0.065   1.155
17872W        W83132  24.105   3.367  11.599
17873W        W83133   2.840  38.322  12.546
17874W        W83134  37.544  17.998  13.505
17875W        W83135  23.195  43.694  12.251
17876W        W83136  18.803  38.414   1.212
17877W        W83137  20.743  25.888  14.910
17878W        W83138  18.990   5.184  13.423
17879W        W83139  33.572  29.046   5.026
17880W        W83140  43.022  12.779  13.484
17881W        W83141  39.546  24.280   3.528
17882W        W83142  29.560  14.264  14.591
17883W        W83143  20.227  42.941   0.231
17884W        W83144  44.918  41.778   3.656
17885W        W83145  33.722  19.210   0.909
17886W        W83146  12.024  44.052   2.982
17887W        W83147   8.358  25.571  10.467
17888W        W83148  31.432  41.462  12.029
17889W        W83149  39.962  17.311  12.525
17890W        W83150  27.446  39.642  12.048
17891W        W83151  38.286  21.464  12.031
17892W        W83152  39.607  36.565  10.614
17893W        W83153  41.287  15.206   4.103
17894W        W83154  17.662  42.503   2.900
17895W        W83155  39.412  14.057  14.683
17896W        W83156  17.079   7.729  14.431
17897W        W83157  26.931   6.453   2.741
17898W        W83158  13.011  25.425  12.356
17899W        W83159  29.969   1.532   1.835
17900W        W83160  42.633   7.383  13.977
17901W        W83161  16.099   9.737  11.408
17902W        W83162  29.621  18.501   0.729
17903W        W83163  22.245  31.613   2.898
17904W        W83164  29.688  37.413   3.131
17905W        W83165  13.316  44.101  13.947
17906W        W83166   4.387  31.910  12.860
17907W        W83167  15.778  19.329   1.443
17908W        W83168   8.648  15.174  12.421
17909W        W83169  24.065   8.143  11.404
17910W        W83170  15.076  10.393  11.081
17911W        W83171  23.247  37.158  10.132
17912W        W83172  34.328   6.294  11.961
17913W        W83173  20.522   2.373   1.734
17914W        W83174   1.490  31.017  11.481
17915W        W83175   2.849  17.570  12.377
17916W        W83176  39.969  44.240   1.360
17917W        W83177  36.083  21.697   0.304
17918W        W83178  20.702  36.687   2.894
17919W        W83179  32.117  32.006   0.380
17920W        W83180  10.678  44.746   3.152
17921W        W83181  31.897  12.836   1.347
17922W        W83182   0.982  10.268   0.421
17923W        W83183  14.592  41.061  10.348
17924W        W83184  17.685  31.020   0.227
17925W        W83185  36.483  40.011   0.908
17926W        W83186  44.012  18.353   3.815
17927W        W83187  14.882  26.531  12.472
17928W        W83188  15.835  42.434   2.725
17929W        W83189  38.621  17.237   4.294
17930W        W83190  40.287  27.149   0.472
17931W        W83191   3.827  33.751  11.821
17932W        W83192  12.313  20.331  12.438
17933W        W83193  12.499  11.273   0.080
17934W        W83194  37.431  25.148   2.536
17935W        W83195  31.108   8.376   2.776
17936W        W83196  18.768  32.149   0.528
17937W        W83197  27.746  36.440   4.620
17938W        W83198  27.232  10.252   0.004
17939W        W83199  41.450  37.838   0.951
17940W        W83200   8.184   9.568   5.100
17941W        W83201  10.880  29.968   1.426
17942W        W83202  24.760  42.154  14.120
17943W        W83203  22.273   0.854  10.593
17944W        W83204  20.509  34.473   3.078
17945W        W83205   2.051  30.900   2.294
17946W        W83206  39.221  25.399   4.812
17947W        W83207  13.189  44.489   1.804
17948W        W83208   8.698  43.902   0.208
17949W        W83209  20.526  15.165  14.417
17950W        W83210  31.200   4.064  11.135
17951W        W83211   7.026  33.830   4.085
17952W        W83212  13.818  43.543   3.896
17953W        W83213  23.484  17.499   2.614
17954W        W83214  26.787   2.232  12.025
17955W        W83215   8.711  13.266  12.900
17956W        W83216  11.133  29.508   3.430
17957W        W83217  31.356  23.486   4.582
17958W        W83218  43.908   0.510   1.242
17959W        W83219   5.493  12.577  13.470
17960W        W83220  27.723  17.664   3.936
17961W        W83221  41.784  22.466  13.771
17962W        W83222  40.892  12.281   3.163
17963W        W83223  17.123  10.288   2.590
17964W        W83224   8.940   6.347  12.629
17965W        W83225  30.660  19.585   1.804
17966W        W83226  16.788   4.803  11.884
17967W        W83227  16.175  12.653  10.992
17968W        W83228  39.579   2.621  10.519
17969W        W83229  41.902  30.947   2.755
17970W        W83230  35.389  41.170  11.561
17971W        W83231   0.412  17.516   4.161
17972W        W83232  38.089   5.335   5.043
17973W        W83233   2.266  27.971  12.993
17974W        W83234  17.833  23.316   2.214
17975W        W83235   9.442  25.064  13.587
17976W        W83236  28.569  13.720  12.996
17977W        W83237  35.368  13.318  11.694
17978W        W83238   2.527  21.577  12.399
17979W        W83239  27.120   3.564  11.203
17980W        W83240  12.008  28.018  14.022
17981W        W83241  10.752   9.688   2.293
17982W        W83242  34.070   9.839  13.862
17983W        W83243  16.257  19.836   2.657
17984W        W83244   1.340  39.011   3.810
17985W        W83245  41.031  23.984  11.088
17986W        W83246  26.880  36.415  13.073
17987W        W83247   1.840  30.970  11.059
17988W        W83248   0.729  16.637  10.410
17989W        W83249  21.943   3.015   4.092
17990W        W83250  34.073  20.641   3.590
17991W        W83251  20.205  18.739  12.461
17992W        W83252  18.808  41.010   2.442
17993W        W83253  32.229  16.793  11.519
17994W        W83254  20.696  41.896   2.327
17995W        W83255  38.536  12.252   4.596
17996W        W83256  28.985  33.313  11.536
17997W        W83257  31.519   3.467  10.829
17998W        W83258  33.007  33.115   4.610
17999W        W83259   5.343  36.132  14.157
18000W        W83260  27.633  36.996  13.819
18001W        W83261  42.617   1.895  14.398
18002W        W83262  40.806  16.211  13.277
18003W        W83263  33.656  41.758   2.320
18004W        W83264  33.714  39.988  12.055
18005W        W83265  37.621   5.389  13.444
18006W        W83266  19.792  10.746  12.388
18007W        W83267  40.078   0.782  14.039
18008W        W83268  37.839   2.360  12.425
18009W        W83269   2.255   7.932   4.124
18010W        W83270  19.854   2.570  10.835
18011W        W83271  44.415  20.933  11.309
18012W        W83272   0.652   0.544   2.855
18013W        W83273   2.217  26.636  13.333
18014W        W83274  42.264  31.045  13.583
18015W        W83275  22.656  34.056  12.910
18016W        W83276  10.204  13.364  10.746
18017W        W83277  17.695  21.793  10.284
18018W        W83278  26.254  22.034  11.146
18019W        W83279  28.593  13.211  13.088
18020W        W83280  17.367  24.651   2.158
18021W        W83281  33.074  25.440  13.359
18022W        W83282  38.943   6.129   0.774
18023W        W83283  14.347   6.982  12.290
18024W        W83284   9.066  24.092   3.752
18025W        W83285  43.474  18.010  14.414
18026W        W83286  34.561  19.665   1.730
18027W        W83287  20.677  10.292  13.840
18028W        W83288  29.202  11.419  11.536
18029W        W83289  11.826  40.204  13.429
18030W        W83290  21.565   2.453   1.932
18031W        W83291  19.214  10.243  11.132
18032W        W83292  32.779  15.193   3.925
18033W        W83293  10.813  31.645   4.596
18034W        W83294  37.007  10.630   4.194
18035W        W83295  28.541  27.667  13.638
18036W        W83296   6.462  44.417  13.385
18037W        W83297   3.927  30.468  13.474
18038W        W83298  28.562  34.330   4.588
18039W        W83299   3.672  22.604   1.774
18040W        W83300  27.812  43.816   1.410
18041W        W83301  23.359   1.184  11.567
18042W        W83302   1.942  18.085  11.662
18043W        W83303  43.228   7.290  14.994
18044W        W83304   1.774  16.670   3.103
18045W        W83305   5.718  13.150  13.951
18046W        W83306  26.441  44.555  14.355
18047W        W83307  37.856   5.839  13.560
18048W        W83308  43.486  39.136   3.814
18049W        W83309  29.555  29.816   4.818
18050W        W83310  27.391  15.280   1.692
18051W        W83311   4.880  15.372  12.947
18052W        W83312  36.403  35.416  11.030
18053W        W83313   5.450   0.629  13.942
18054W        W83314  19.824   4.449  11.788
18055W        W83315  24.175  18.042  12.142
18056W        W83316  41.218  23.134  10.825
18057W        W83317  18.260  38.541  14.084
18058W        W83318  42.485   5.857   0.830
18059W        W83319   5.891  32.106   3.753
18060W        W83320   5.429  27.740   2.356
18061W        W83321   1.843  43.424   4.650
18062W        W83322   0.977  30.178   9.940
18063W        W83323  33.827  39.004  11.167
18064W        W83324  43.505   7.181   3.686
18065W        W83325  13.817  31.899   3.703
18066W        W83326  44.201   1.483  14.586
18067W        W83327  43.567  14.649  10.589
18068W        W83328  21.783   3.780   0.052
18069W        W83329  21.004   4.903   2.395
18070W        W83330  29.392  39.991   4.134
18071W        W83331   8.471  18.915  12.041
18072W        W83332   0.337   8.730   3.420
18073W        W83333  17.516  37.965   2.597
18074W        W83334  13.496  14.949   2.069
18075W        W83335  23.935  23.534  12.808
18076W        W83336  34.885  31.055  14.018
18077W        W83337  41.043  42.321  13.323
18078W        W83338  31.497  22.976  10.145
18079W        W83339   7.618  18.366  13.008
18080W        W83340  14.164   3.884  13.872
18081W        W83341   6.935   7.851  13.468
18082W        W83342  29.699  40.961  12.189
18083W        W83343  39.515  38.091   3.458
18084W        W83344  21.063  12.744   3.585
18085W        W83345  14.757  14.997  10.596
18086W        W83346  28.500  38.389  10.547
18087W        W83347  18.272  38.524   2.331
18088W        W83348   5.455  13.158  11.707
18089W        W83349  24.428   1.863  12.069
18090W        W83350  44.256  43.254   4.315
18091W        W83351  19.999   7.931  14.751
18092W        W83352   7.658  18.227   1.306
18093W        W83353   4.829  44.483  13.239
18094W        W83354  13.177  17.012  11.465
18095W        W83355   0.195  44.265   2.021
18096W        W83356  40.500  41.673  11.217
18097W        W83357  28.910  18.793   1.305
18098W        W83358  44.259  33.100  12.361
18099W        W83359  20.504  28.470  10.716
18100W        W83360  18.052  29.885  13.227
18101W        W83361  41.576   0.351   2.174
18102W        W83362   5.745   4.951   2.416
18103W        W83363  20.278  12.707  10.203
18104W        W83364   6.294  44.168  12.895
18105W        W83365  19.715  34.607  11.207
18106W        W83366  20.613   1.333  10.713
18107W        W83367  41.423  17.502  13.964
18108W        W83368  19.493   2.819   3.793
18109W        W83369  30.493  32.136  14.986
18110W        W83370   3.316  41.050  11.888
18111W        W83371  36.347  30.681   1.694
18112W        W83372   2.802  17.833  14.958
18113W        W83373  20.994  39.109  13.899
18114W        W83374   7.890  28.924  11.608
18115W        W83375   8.954  12.121  11.971
18116W        W83376  14.342   0.675   5.300
18117W        W83377   1.423  39.279   4.681
18118W        W83378  23.668   7.279   1.962
18119W        W83379  11.436  24.957  13.379
18120W        W83380  14.617   7.325  14.039
18121W        W83381   1.966   3.666   4.187
18122W        W83382  17.144  39.736   0.268
18123W        W83383   1.926   0.333  11.030
18124W        W83384  33.439  30.501   4.701
18125W        W83385  25.261  31.341  11.571
18126W        W83386  15.351  39.671  12.446
18127W        W83387   4.915  23.006  11.900
18128W        W83388  44.074  16.382  10.322
18129W        W83389   9.853   5.342  12.430
18130W        W83390  38.113  19.250  13.888
18131W        W83391   8.269  24.244  13.670
18132W        W83392  12.517  28.606   1.397
18133W        W83393  14.282  19.569   0.701
18134W        W83394   6.693  14.582  12.665
18135W        W83395  40.851  22.323  10.487
18136W        W83396   5.585   3.426   9.995
18137W        W83397  43.408  44.372  12.006
18138W        W83398  43.738  16.807  11.951
18139W        W83399  36.122  16.237   1.730
18140W        W83400   2.520  35.029   1.028
18141W        W83401  25.501  10.558   1.726
18142W        W83402  37.410   1.434   0.804
18143W        W83403   6.693  32.199  12.466
18144W        W83404  26.161  37.005   4.500
18145W        W83405  31.448  25.528  14.852
18146W        W83406  41.893  30.007   4.697
18147W        W83407  33.448  32.545   1.294
18148W        W83408  26.215   0.148   2.345
18149W        W83409  19.078  41.400   4.651
18150W        W83410   8.297   5.899   4.482
18151W        W83411  38.775  28.501  14.380
18152W        W83412  13.723   6.219   2.338
18153W        W83413  39.890   8.256   4.171
18154W        W83414   2.179  17.715   2.177
18155W        W83415  36.323   4.830  10.287
18156W        W83416  23.721  30.963  13.956
18157W        W83417  17.324  16.803   2.973
18158W        W83418  25.636   8.564  13.675
18159W        W83419  30.902  13.853   1.967
18160W        W83420  31.587  19.310   1.177
18161W        W83421   5.869  33.499  10.443
18162W        W83422   9.785  36.591   0.696
18163W        W83423  21.585  40.844  12.953
18164W        W83424  17.309  36.056   2.133
18165W        W83425  35.374  30.953  13.963
18166W        W83426  26.233   4.671   9.833
18167W        W83427  20.031  18.003  14.409
18168W        W83428  39.102   1.906  11.492
18169W        W83429  37.645  22.192  10.730
18170W        W83430   3.376  16.308   2.263
18171W        W83431  42.223  38.322   3.879
18172W        W83432  37.934   4.874  13.625
18173W        W83433  44.020  29.169   1.894
18174W        W83434  39.433  18.352  11.186
18175W        W83435  27.522  14.993  12.268
18176W        W83436  26.399  17.195   2.869
18177W        W83437  16.094  34.996   1.856
18178W        W83438  18.622  29.861  14.858
18179W        W83439  44.279  25.693  12.958
18180W        W83440  29.125   2.303  11.186
18181W        W83441  43.039  21.557   0.709
18182W        W83442   4.231  32.552  12.896
18183W        W83443  43.343  41.518  12.152
18184W        W83444  39.975   6.191   4.649
18185W        W83445  39.557  37.298   1.736
18186W        W83446  31.078  21.348   3.257
18187W        W83447  16.767   6.303  14.336
18188W        W83448  18.285  33.138   1.366
18189W        W83449   4.842   5.178  13.913
18190W        W83450   1.826  24.047   9.995
18191W        W83451   0.264  14.923  13.074
18192W        W83452  26.474  15.179   3.804
18193W        W83453  28.326   2.353   4.860
18194W        W83454  32.902  38.595  13.484
18195W        W83455  31.994   3.650  10.625
18196W        W83456  24.653  12.126   1.258
18197W        W83457   6.395  33.406  13.264
18198W        W83458  19.224  40.589   1.282
18199W        W83459  13.830   1.828  13.575
18200W        W83460  30.582  19.248  10.767
18201W        W83461  33.002   7.081  12.556
18202W        W83462  14.877  20.257  11.087
18203W        W83463  15.742   0.835  11.701
18204W        W83464   2.896  39.602   0.722
18205W        W83465  44.741  41.977  14.496
18206W        W83466  24.444  11.962  14.820
18207W        W83467   8.652  16.215   4.635
18208W        W83468  24.601   1.895  13.859
18209W        W83469  15.847  25.625  13.903
18210W        W83470  23.230  31.583   4.216
18211W        W83471  41.039   7.186  12.068
18212W        W83472  14.741  28.390  14.482
18213W        W83473  19.774  33.389   3.243
18214W        W83474   5.193   5.516   0.364
18215W        W83475  30.652  38.348   0.402
18216W        W83476  33.628  36.032   2.928
18217W        W83477   5.337  15.374   4.452
18218W        W83478  18.184   9.929   4.231
18219W        W83479  37.364  22.955   4.353
18220W        W83480  25.924  39.418   2.462
18221W        W83481  18.704  17.387  11.024
18222W        W83482   7.186  19.076  14.512
18223W        W83483  21.938  10.721   3.807
18224W        W83484  38.875  30.058   3.641
18225W        W83485  28.221  33.170   2.127
18226W        W83486   6.202  31.915   1.938
18227W        W83487  29.236   2.473   4.542
18228W        W83488   7.961   9.994  11.120
18229W        W83489  40.532  28.166   1.327
18230W        W83490  10.722  38.586  12.428
18231W        W83491   3.028  10.122  10.682
18232W        W83492  30.128  31.646   3.543
18233W        W83493  42.509  36.018  13.556
18234W        W83494  32.520  32.569   1.955
18235W        W83495  24.759  34.324   1.460
18236W        W83496  31.758  11.052   5.066
18237W        W83497   9.702  27.893   0.686
18238W        W83498  19.321  33.726  13.044
18239W        W83499  40.576  12.246   0.646
18240W        W83500  37.043  32.561   1.051
18241W        W83501   3.519  42.893   0.369
18242W        W83502   6.004  13.865  13.461
18243W        W83503  23.216  15.269   0.855
18244W        W83504  19.469   4.200   4.604
18245W        W83505  44.042  17.801   4.660
18246W        W83506  22.358  31.816   5.053
18247W        W83507  34.950  29.394  11.139
18248W        W83508  39.829  20.310  11.528
18249W        W83509  18.781   1.018   4.028
18250W        W83510  12.398   2.555  14.453
18251W        W83511  41.055  27.930  14.223
18252W        W83512   2.845  42.209  11.553
18253W        W83513   0.309   9.405   0.946
18254W        W83514  38.884  17.299   2.466
18255W        W83515  40.101  12.365   0.471
18256W        W83516  33.922  34.950   4.855
18257W        W83517   5.199   7.794  13.799
18258W        W83518  31.691  29.007  14.860
18259W        W83519  30.048  22.336  11.216
18260W        W83520  37.373   6.857   2.343
18261W        W83521  25.909  40.461   1.277
18262W        W83522  23.528  32.430   4.867
18263W        W83523  41.935  36.086   3.396
18264W        W83524  30.460  43.619  14.063
18265W        W83525  31.566  29.682   4.627
18266W        W83526  33.177  37.397   5.046
18267W        W83527  31.716  24.000   3.729
18268W        W83528  27.455   5.311   3.169
18269W        W83529   0.742  36.611   1.760
18270W        W83530  37.178  19.182   3.855
18271W        W83531  16.332  33.305  10.666
18272W        W83532  18.906   7.176   0.437
18273W        W83533  20.636  32.032  11.730
18274W        W83534  30.891  15.323   2.770
18275W        W83535   1.196   8.508   3.308
18276W        W83536  35.828  26.058   1.872
18277W        W83537  40.908  32.846   2.774
18278W        W83538  30.057  31.143   2.803
18279W        W83539  41.351  42.505   2.221
18280W        W83540  19.117  38.312   0.377
18281W        W83541  13.657   6.005  14.343
18282W        W83542  43.883  19.681  14.340
18283W        W83543   0.271  18.519  10.593
18284W        W83544  43.314  15.623  10.653
18285W        W83545  11.162  30.697  12.731
18286W        W83546  36.747   6.935   0.846
18287W        W83547  25.816   7.056   1.268
18288W        W83548  44.825   3.470   4.594
18289W        W83549   1.672  36.906  12.465
18290W        W83550   1.445  33.601   3.856
18291W        W83551  13.742  42.570  12.462
18292W        W83552   2.140  40.426  14.439
18293W        W83553  38.070   8.272  13.878
18294W        W83554  13.560  25.528   4.251
18295W        W83555  15.230  15.057   1.762
18296W        W83556   6.783  11.112   2.334
18297W        W83557  29.186  12.829  12.413
18298W        W83558  25.079  24.215  13.168
18299W        W83559   1.017  27.983  14.514
18300W        W83560   2.972  17.804   0.465
18301W        W83561  28.446  34.033  12.851
18302W        W83562  25.413  11.902   2.398
18303W        W83563  17.219  22.957   4.888
18304W        W83564  37.346   0.932  14.391
18305W        W83565  40.790  23.018   0.015
18306W        W83566  44.362   5.481   3.174
18307W        W83567   5.824  30.939   2.728
18308W        W83568  18.197  20.786   2.533
18309W        W83569   7.609   9.875   3.902
18310W        W83570  27.649   3.383   4.945
18311W        W83571  11.049  17.334   1.893
18312W        W83572   2.425  32.540   4.212
18313W        W83573   5.340  27.552   0.940
18314W        W83574  17.078  29.591  10.571
18315W        W83575  32.402  24.292   0.940
18316W        W83576  42.860  29.005  14.837
18317W        W83577   6.546  24.384   4.288
18318W        W83578  40.895  19.664   0.982
18319W        W83579  14.640  40.258  13.273
18320W        W83580  40.882  26.489   1.521
18321W        W83581  13.365  27.971   0.509
18322W        W83582  28.009  27.023   1.959
18323W        W83583  43.953  31.546   1.213
18324W        W83584  15.314   0.854  11.427
18325W        W83585  24.130  35.420  11.996
18326W        W83586  30.005   6.923  11.688
18327W        W83587   0.880  33.569   1.739
18328W        W83588  39.406  16.139  13.097
18329W        W83589  19.697  10.270  12.169
18330W        W83590  26.691  25.658  13.841
18331W        W83591  11.288  16.048  13.582
18332W        W83592  37.178   0.376   2.306
18333W        W83593  27.446   9.734  12.460
18334W        W83594  27.567  39.220  10.823
18335W        W83595  11.137  13.638  13.352
18336W        W83596  11.104  11.185   2.745
18337W        W83597  44.811  23.580  11.007
18338W        W83598   8.595  29.521  13.451
18339W        W83599   4.158  27.014  13.255
18340W        W83600  42.286  29.887  14.042
18341W        W83601  13.166  23.936  11.142
18342W        W83602  24.463  25.252   4.177
18343W        W83603  20.678   5.783  14.468
18344W        W83604  30.103  35.583   5.082
18345W        W83605  43.481  31.357  14.901
18346W        W83606  44.959  33.578  12.370
18347W        W83607  32.094  16.738   0.614
18348W        W83608   5.672   7.888  12.497
18349W        W83609  15.880  39.876   3.399
18350W        W83610  11.772   2.463   4.472
18351W        W83611  18.767  16.289  12.449
18352W        W83612  41.353   1.340  13.953
18353W        W83613  41.850   5.788  12.888
18354W        W83614  31.681  30.568  14.352
18355W        W83615  34.654  30.593  13.089
18356W        W83616  35.345  29.600  13.777
18357W        W83617  22.747  26.629  11.150
18358W        W83618   5.704  13.823  11.424
18359W        W83619  10.538  40.997  10.721
18360W        W83620   7.349  11.273  14.767
18361W        W83621  32.901  36.572  13.939
18362W        W83622  37.040  20.347   4.625
18363W        W83623  28.209  36.507   2.190
18364W        W83624  23.698  28.580  14.824
18365W        W83625   8.703  40.576  11.850
18366W        W83626   9.296  21.772   0.781
18367W        W83627  30.038   7.400  14.379
18368W        W83628  35.987  41.491  10.677
18369W        W83629   2.403  37.425  11.072
18370W        W83630   1.331  18.641   1.620
18371W        W83631  22.052   2.342   0.756
18372W        W83632  41.266  19.676  10.696
18373W        W83633  27.860   0.220   1.352
18374W        W83634   7.961  20.982  11.499
18375W        W83635  34.598  29.399  13.350
18376W        W83636  41.741  13.670   1.765
18377W        W83637  16.097  41.466  13.037
18378W        W83638  22.546   6.090   4.732
18379W        W83639  29.840  37.075  13.559
18380W        W83640  44.924   8.605   9.560
18381W        W83641  15.155   0.023  14.940
18382W        W83642   7.234  35.739   4.630
18383W        W83643   6.525  40.306   0.700
18384W        W83644  10.078  26.736   0.388
18385W        W83645  16.776  26.546   2.166
18386W        W83646   8.904  31.502  14.901
18387W        W83647  24.512  30.528   0.477
18388W        W83648   6.230  35.537   4.514
18389W        W83649  24.531   8.731   1.261
18390W        W83650  24.236  21.000   3.763
18391W        W83651  27.790  34.066  11.629
18392W        W83652  30.131   7.019  12.177
18393W        W83653  13.233  34.365   4.574
18394W        W83654  35.047   6.699   4.759
18395W        W83655   7.312  11.949  13.463
18396W        W83656  29.816  19.748   4.842
18397W        W83657  41.427   8.697  13.372
18398W        W83658  24.604   2.511   1.282
18399W        W83659  34.278  36.275   4.702
18400W        W83660  20.462  36.568  13.477
18401W        W83661  25.606   0.202   0.780
18402W        W83662  31.093  11.642   1.143
18403W        W83663  22.034  29.850  11.561
18404W        W83664  40.932  11.800   2.851
18405W        W83665  26.245  34.939   0.718
18406W        W83666  14.813  14.802   1.400
18407W        W83667  11.791  12.628   3.622
18408W        W83668  29.917   7.985   3.045
18409W        W83669  44.094  30.088   3.210
18410W        W83670  36.089   3.937  13.251
18411W        W83671  30.453  44.077  14.989
18412W        W83672  39.601  32.694   0.954
18413W        W83673  32.550  21.188  12.461
18414W        W83674  18.741   5.171  14.120
18415W        W83675  42.094  17.692   1.742
18416W        W83676   6.843   3.387   0.467
18417W        W83677   6.807   9.392  12.434
18418W        W83678  29.519  27.768  11.411
18419W        W83679   3.967  16.981  14.714
18420W        W83680  30.875  35.529   4.382
18421W        W83681  41.965  29.296   1.307
18422W        W83682  44.038  27.929   0.302
18423W        W83683  42.491  40.116  13.895
18424W        W83684   5.193  29.988   2.607
18425W        W83685  35.315  43.044  12.133
18426W        W83686  33.698  35.898  13.081
18427W        W83687   1.963  30.868  11.567
18428W        W83688   8.681  20.336  14.830
18429W        W83689  31.049  37.993  11.231
18430W        W83690  18.518  10.212   4.773
18431W        W83691  34.312  18.199  10.697
18432W        W83692  39.068  40.303  14.271
18433W        W83693  39.312  22.298   1.745
18434W        W83694   7.788   1.924  12.467
18435W        W83695   0.602  24.278  13.016
18436W        W83696  40.947  34.415   3.901
18437W        W83697   8.289  10.607   4.779
18438W        W83698  32.946  10.709  14.903
18439W        W83699  28.644  18.243   3.720
18440W        W83700  38.559  24.508  14.426
18441W        W83701  23.667   7.209  10.756
18442W        W83702  12.642  37.567  10.472
18443W        W83703  16.779  41.936   0.417
18444W        W83704  29.008  15.785   4.247
18445W        W83705  37.928  39.940  12.870
18446W        W83706   2.214  31.487   4.685
18447W        W83707  37.875  41.653   0.887
18448W        W83708   3.479  22.604  12.805
18449W        W83709  31.062   3.144   1.801
18450W        W83710  36.056  40.769   3.362
18451W        W83711  36.750  44.053   3.646
18452W        W83712  11.947  41.221   5.116
18453W        W83713   3.012  43.259  12.080
18454W        W83714  28.475  44.568   3.266
18455W        W83715  17.214   4.132  12.478
18456W        W83716   8.770  18.204  14.344
18457W        W83717  31.538  22.778   4.073
18458W        W83718   4.673  27.442   1.744
18459W        W83719   6.203   1.987   3.275
18460W        W83720  12.926  42.454   1.904
18461W        W83721  10.599  10.696   1.465
18462W        W83722  22.918  15.056   4.844
18463W        W83723  37.421  26.202   2.397
18464W        W83724  42.785  11.763  14.753
18465W        W83725  15.819  20.755   3.106
18466W        W83726  44.769  22.359   3.652
18467W        W83727  32.874  13.419   2.529
18468W        W83728  43.560  12.348  13.531
18469W        W83729  22.127  25.185  12.613
18470W        W83730  20.186  39.679  14.809
18471W        W83731  21.771  32.700   2.208
18472W        W83732  23.988  18.221  14.408
18473W        W83733  43.965  15.708   3.952
18474W        W83734   6.330  36.208   0.230
18475W        W83735  11.048  39.822   1.202
18476W        W83736  35.086   6.727   4.248
18477W        W83737  24.748  32.458  12.463
18478W        W83738  30.590   6.772  12.075
18479W        W83739  19.510   6.642  12.513
18480W        W83740  11.165  22.544  12.995
18481W        W83741   6.463   2.201   4.187
18482W        W83742  25.736   6.610  13.944
18483W        W83743  20.192  32.935   3.522
18484W        W83744  36.391   0.743   1.857
18485W        W83745   7.857  27.646  11.163
18486W        W83746  28.058  14.167   4.112
18487W        W83747   3.862  32.812   2.373
18488W        W83748  22.610  41.595  10.732
18489W        W83749   4.251  15.201  12.861
18490W        W83750  11.762  16.040   0.812
18491W        W83751   0.758  43.589  13.978
18492W        W83752  22.597   9.930  12.960
18493W        W83753  24.234   8.120  14.210
18494W        W83754  39.205  16.098   1.970
18495W        W83755  19.746   9.802  13.767
18496W        W83756  29.104   7.176   4.500
18497W        W83757   9.160  18.564  13.816
18498W        W83758  33.632   4.726  12.418
18499W        W83759  16.701  18.220  14.269
18500W        W83760  34.981  19.679  14.890
18501W        W83761  20.214  37.530   5.071
18502W        W83762  43.876  22.050  12.131
18503W        W83763  22.658  15.313  11.645
18504W        W83764  25.544  38.028  13.913
18505W        W83765  37.439  31.112  12.507
18506W        W83766  38.515  31.130  11.663
18507W        W83767  22.156   1.811  13.000
18508W        W83768  35.102  35.449   3.770
18509W        W83769  40.227  36.145  12.244
18510W        W83770  14.682  10.068   3.829
18511W        W83771  21.227  21.913   1.761
18512W        W83772  38.478  23.316   3.841
18513W        W83773  44.528  13.610   2.181
18514W        W83774   2.548  16.726  12.395
18515W        W83775  39.812  23.253  12.920
18516W        W83776  22.693  18.638  10.435
18517W        W83777   9.029  22.830  11.963
18518W        W83778   9.147  28.178  11.172
18519W        W83779   3.336   1.216  14.398
18520W        W83780   9.742  33.144  12.601
18521W        W83781  26.580  32.233   4.080
18522W        W83782  23.950  15.111  11.434
18523W        W83783  12.620  15.982   2.711
18524W        W83784  10.102  16.573   2.731
18525W        W83785  25.905  16.024   9.714
18526W        W83786  27.632  20.048   1.479
18527W        W83787  39.802  16.219   0.499
18528W        W83788  15.100  19.090   4.650
18529W        W83789  27.124   6.304   1.895
18530W        W83790  13.402  34.459  11.606
18531W        W83791  12.351  29.101  10.555
18532W        W83792  22.127  33.960   2.449
18533W        W83793   6.363  29.579   0.395
18534W        W83794  37.840  38.338  10.297
18535W        W83795  38.227  21.542   2.919
18536W        W83796  37.847  36.111   3.647
18537W        W83797   6.453  17.753   0.205
18538W        W83798   3.241   0.840  14.024
18539W        W83799  14.170  36.337  13.536
18540W        W83800  25.169   7.903   1.758
18541W        W83801  13.413   7.558  14.263
18542W        W83802  29.172  28.693   0.256
18543W        W83803  13.539  32.031   2.190
18544W        W83804  39.318   8.767  13.672
18545W        W83805  14.745  44.602  10.080
18546W        W83806  40.970  27.559   3.859
18547W        W83807  25.636   6.650   4.532
18548W        W83808  39.356  12.802   4.521
18549W        W83809  37.393  32.224   1.789
18550W        W83810   7.273  34.367  12.039
18551W        W83811  10.712   3.434   1.300
18552W        W83812  24.045  23.109  12.502
18553W        W83813  28.897  14.375   4.584
18554W        W83814  24.568  37.409  12.525
18555W        W83815  42.982  34.232  11.145
18556W        W83816  18.600  42.040   2.741
18557W        W83817  16.243   7.763   1.240
18558W        W83818  34.781   4.495   2.785
18559W        W83819  40.026  42.375  13.009
18560W        W83820  38.924  31.110   1.305
18561W        W83821   7.160  22.670  12.048
18562W        W83822  34.100  15.122   2.741
18563W        W83823  26.611  37.303   4.237
18564W        W83824  36.647  26.446   1.816
18565W        W83825  23.440  41.517  14.902
18566W        W83826  20.191  22.933  11.434
18567W        W83827   8.809   1.850   3.296
18568W        W83828  15.241  40.575   0.802
18569W        W83829  41.952  24.171   4.993
18570W        W83830   9.885  11.679  11.469
18571W        W83831   4.893  19.730  14.843
18572W        W83832  15.762   8.665  12.898
18573W        W83833   2.301   9.368   4.048
18574W        W83834   4.222  32.800   0.040
18575W        W83835  41.216  29.079   0.334
18576W        W83836  23.294  15.097   3.075
18577W        W83837  31.394  42.242  14.770
18578W        W83838  20.844   1.464   2.446
18579W        W83839  14.805  43.926  12.391
18580W        W83840  42.382   2.433  12.361
18581W        W83841  11.650  28.209   2.307
18582W        W83842  18.646  34.854   2.052
18583W        W83843  21.070  12.789   0.399
18584W        W83844  17.029  41.977  13.993
18585W        W83845  34.795  10.177  10.707
18586W        W83846  31.947   9.166  14.063
18587W        W83847  15.249   4.777  12.906
18588W        W83848  14.222  29.338   0.045
18589W        W83849  10.695  23.237   4.236
18590W        W83850  16.153  39.395  11.160
18591W        W83851  31.404  41.554   0.722
18592W        W83852  30.483  41.263  11.071
18593W        W83853  13.730  42.720  11.969
18594W        W83854  24.454  36.396   0.284
18595W        W83855  31.329  23.539   1.737
18596W        W83856  15.158  12.062   0.345
18597W        W83857  39.415  24.245   2.634
18598W        W83858  24.825  21.810   4.998
18599W        W83859   6.457  41.032   1.352
18600W        W83860  25.563  42.673  13.364
18601W        W83861  19.773  26.480  12.380
18602W        W83862  19.961  30.177  12.962
18603W        W83863  10.528   9.734  13.306
18604W        W83864  33.128  44.320   3.219
18605W        W83865  23.489   9.157   5.126
18606W        W83866  14.779  41.952  11.503
18607W        W83867  37.515  32.979   4.520
18608W        W83868  38.637   7.175   5.057
18609W        W83869  32.949   9.264   1.154
18610W        W83870  11.841   0.043   3.707
18611W        W83871  38.802   1.815  13.599
18612W        W83872   7.147  12.789   1.748
18613W        W83873  38.958  14.176  10.959
18614W        W83874  10.222   6.798   1.317
18615W        W83875   9.297  30.934   0.214
18616W        W83876  35.500  27.757   3.042
18617W        W83877  21.342  19.935  13.429
18618W        W83878   3.452   3.662  14.506
18619W        W83879  38.509  41.726  13.969
18620W        W83880  10.009  11.323  14.729
18621W        W83881  31.454  43.891  10.710
18622W        W83882  36.414  39.406  14.512
18623W        W83883  41.016  16.814   0.469
18624W        W83884  41.537  22.967  14.397
18625W        W83885  42.914  42.254  14.059
18626W        W83886  30.056   2.707   3.699
18627W        W83887   5.930  36.575   1.327
18628W        W83888  40.350   8.405   2.437
18629W        W83889   8.882  40.821  14.114
18630W        W83890   1.425  26.554   0.050
18631W        W83891  27.559  41.466  10.683
18632W        W83892  25.667  12.867  11.667
18633W        W83893  25.519  34.322  12.563
18634W        W83894  27.000  16.567  12.355
18635W        W83895  29.504  29.170   3.742
18636W        W83896  34.007  25.140  12.465
18637W        W83897  31.589  33.695   4.192
18638W        W83898  30.802  20.710   1.408
18639W        W83899  36.554   0.018   1.322
18640W        W83900  19.213  39.917  13.513
18641W        W83901   1.963  14.589   2.660
18642W        W83902  11.294   7.874   2.405
18643W        W83903  29.834  22.931  13.735
18644W        W83904  26.645  40.215  12.066
18645W        W83905  17.297  39.068   5.096
18646W        W83906  19.937  25.605  14.771
18647W        W83907  39.350  16.045   3.428
18648W        W83908  39.106  38.036  14.816
18649W        W83909  13.555  29.802   3.533
18650W        W83910  20.824  35.623   0.914
18651W        W83911   4.048  29.349  14.320
18652W        W83912  30.033  21.261   9.927
18653W        W83913   2.745   4.156  11.114
18654W        W83914  31.645  38.859   1.668
18655W        W83915  10.836  13.598  11.540
18656W        W83916  22.964  32.536  11.816
18657W        W83917   2.339  18.006  11.171
18658W        W83918   6.352  39.350  14.305
18659W        W83919   1.770   7.172   1.344
18660W        W83920   6.006  12.389  12.786
18661W        W83921  12.115   2.929   2.234
18662W        W83922  15.381   6.792   4.878
18663W        W83923  39.167  21.821  13.313
18664W        W83924  43.883  12.154  13.909
18665W        W83925   6.738  44.237  13.796
18666W        W83926  27.913  20.215  11.901
18667W        W83927  41.433   5.214   4.676
18668W        W83928   6.313  38.006  11.957
18669W        W83929  11.845  21.685   4.393
18670W        W83930  35.389  15.362   2.318
18671W        W83931  13.046   9.894   4.048
18672W        W83932  23.112   3.408  11.573
18673W        W83933  15.587   2.926  12.183
18674W        W83934   8.276   0.220   0.848
18675W        W83935  33.010  12.134  11.987
18676W        W83936  29.905   7.248  13.892
18677W        W83937  28.386  20.189  12.116
18678W        W83938  13.753  27.054   4.949
18679W        W83939  33.968  23.687  11.447
18680W        W83940  12.234  13.090  13.708
18681W        W83941  16.332  36.921   1.935
18682W        W83942  42.951  31.976  12.359
18683W        W83943  40.833  34.436  11.143
18684W        W83944   9.285  24.713  12.675
18685W        W83945  19.188  28.482  12.188
18686W        W83946  43.329  12.312  14.024
18687W        W83947  28.120  34.464   4.261
18688W        W83948  16.118  26.610   0.443
18689W        W83949  44.247  13.431  10.905
18690W        W83950   1.217  41.929  10.520
18691W        W83951   5.045   2.024  13.419
18692W        W83952  10.842  24.774  11.437
18693W        W83953  32.991  10.338  10.666
18694W        W83954  17.961  16.818   3.619
18695W        W83955  38.356  40.952  11.663
18696W        W83956  30.821  38.933  13.363
18697W        W83957  34.042   3.027   0.721
18698W        W83958   1.470  30.612  13.512
18699W        W83959  15.909  24.008   0.497
18700W        W83960  40.532  29.166   4.061
18701W        W83961  38.032  20.661   3.194
18702W        W83962  27.040  20.652   2.076
18703W        W83963  30.636  40.748  11.080
18704W        W83964  29.997  10.159   0.004
18705W        W83965  11.244  10.841   1.744
18706W        W83966  40.345  25.672  11.571
18707W        W83967  10.875  15.099  12.843
18708W        W83968  37.127  44.423   3.706
18709W        W83969   8.221   2.000   4.150
18710W        W83970  11.914  15.271   2.887
18711W        W83971  24.497   1.227   2.685
18712W        W83972   0.440  30.021  10.715
18713W        W83973  37.460  36.451   3.629
18714W        W83974  15.872  30.399   5.209
18715W        W83975  32.865  24.577  10.719
18716W        W83976  44.488  12.555  13.484
18717W        W83977  34.582   6.345   1.055
18718W        W83978  33.833  23.715  11.942
18719W        W83979  38.534   0.312   1.491
18720W        W83980  11.418   6.292  13.786
18721W        W83981  31.605  23.958  11.975
18722W        W83982   4.826  28.132   4.837
18723W        W83983   2.463  14.068  11.096
18724W        W83984  27.557   7.641   1.157
18725W        W83985  20.327   8.961  11.023
18726W        W83986  34.071  39.489  11.384
18727W        W83987  14.764  29.677   3.370
18728W        W83988  42.542  11.332  14.948
18729W        W83989   4.088   3.857  12.038
18730W        W83990  12.039  18.529  13.376
18731W        W83991  36.258  29.668   1.766
18732W        W83992  43.344   3.471  14.924
18733W        W83993  41.906  31.811   0.705
18734W        W83994  39.684   1.266   0.154
18735W        W83995  36.558  16.817   3.219
18736W        W83996   4.821  38.035   3.774
18737W        W83997  36.423  33.255  13.096
18738W        W83998   0.726  23.131   1.924
18739W        W83999   9.195  21.898   3.221
18740W        W84000  42.306  27.070  11.648
18741W        W84001  17.266  24.980   0.249
18742W        W84002  44.371  40.830  10.831
18743W        W84003   2.279  29.449   4.654
18744W        W84004  39.558  23.126   2.911
18745W        W84005   2.754   8.346   3.324
18746W        W84006   3.726  27.430   1.670
18747W        W84007   7.697   9.713   4.427
18748W        W84008  17.053   2.925   0.651
18749W        W84009   5.190  33.891  10.723
18750W        W84010   6.650  27.727  13.257
18751W        W84011  24.214   8.929   4.308
18752W        W84012  10.475  37.504   2.928
18753W        W84013  20.526  23.491   2.249
18754W        W84014  15.526  22.490  14.286
18755W        W84015  15.407  27.838  11.573
18756W        W84016  29.641  11.875   1.553
18757W        W84017   9.119  16.546  13.387
18758W        W84018  11.427   6.925  13.417
18759W        W84019   5.996  40.546  10.734
18760W        W84020  26.434  29.065  13.506
18761W        W84021   1.281  33.175   1.960
18762W        W84022  30.434   5.649   0.203
18763W        W84023  30.099   4.697   4.545
18764W        W84024  10.919   7.420   2.642
18765W        W84025  31.973  40.071   2.104
18766W        W84026  21.748  39.425   0.324
18767W        W84027   9.794  16.376  13.562
18768W        W84028  19.716  25.982  11.458
18769W        W84029  10.525  14.681   3.838
18770W        W84030  37.006  20.105  13.431
18771W        W84031  14.942  41.862   4.721
18772W        W84032  13.141  39.196   1.415
18773W        W84033   7.632  37.793   2.709
18774W        W84034  35.714  35.327  14.090
18775W        W84035  38.059  44.868  13.373
18776W        W84036  39.526  13.079   1.767
18777W        W84037  38.716   4.971  14.421
18778W        W84038  26.399  27.600  11.040
18779W        W84039   1.830  22.536  14.150
18780W        W84040   1.255  11.758  13.076
18781W        W84041  33.957   6.834   1.546
18782W        W84042  36.058   0.815  14.032
18783W        W84043  20.704  39.203  12.931
18784W        W84044   3.083   1.030  14.908
18785W        W84045   4.145  42.446   0.694
18786W        W84046  20.918   4.461   4.218
18787W        W84047   3.863   0.235  12.989
18788W        W84048  24.635   1.018   0.443
18789W        W84049  19.193  32.594   4.423
18790W        W84050  37.406   0.869  11.625
18791W        W84051  34.206  28.523  12.357
18792W        W84052  12.802  14.485   0.730
18793W        W84053  39.429  20.025  10.674
18794W        W84054  42.510   4.659   1.351
18795W        W84055   4.314  23.544   2.765
18796W        W84056   8.804  31.876   3.249
18797W        W84057  43.976  14.231   3.565
18798W        W84058  14.738  29.217  13.808
18799W        W84059  33.081   9.396   1.621
18800W        W84060  43.260   0.583   1.903
18801W        W84061  28.499   6.869  14.456
18802W        W84062  31.556   4.298  13.145
18803W        W84063   0.177  40.047  11.992
18804W        W84064  36.104  26.703   2.674
18805W        W84065  42.046  18.808  13.800
18806W        W84066   4.831  28.059  10.015
18807W        W84067  30.119  31.200   3.796
18808W        W84068  31.415  29.140   2.520
18809W        W84069   7.707  22.037   4.272
18810W        W84070   0.900  28.439   2.213
18811W        W84071  12.485  26.110   0.315
18812W        W84072   8.068  17.658  12.450
18813W        W84073   2.192  36.043  12.483
18814W        W84074  42.911  41.769   4.082
18815W        W84075  12.732   5.382   4.441
18816W        W84076  38.732   2.154   1.842
18817W        W84077  30.477  28.295   1.740
18818W        W84078   1.943  31.042   4.639
18819W        W84079  34.558  42.418  11.944
18820W        W84080  10.763  30.391   0.679
18821W        W84081  20.835  18.656   2.236
18822W        W84082  44.326   6.650   0.247
18823W        W84083  32.407  39.803   4.065
18824W        W84084  33.829   3.376  14.690
18825W        W84085  23.257   0.693  14.365
18826W        W84086  18.541   8.900   3.936
18827W        W84087  25.581  40.044   1.335
18828W        W84088   5.786  41.956   2.299
18829W        W84089  38.909   5.994   1.265
18830W        W84090  30.324  17.160   2.833
18831W        W84091  20.001   4.587   2.404
18832W        W84092  11.823   6.139  11.989
18833W        W84093  33.617  13.921   0.420
18834W        W84094  23.209  33.258   2.319
18835W        W84095  40.024  32.771  11.849
18836W        W84096  35.674   9.827  13.425
18837W        W84097  13.931  21.260  14.898
18838W        W84098  19.295  43.515  12.954
18839W        W84099  26.220  14.643  12.559
18840W        W84100   3.010  10.359   4.111
18841W        W84101  43.165   6.530  13.332
18842W        W84102  18.015  34.940  11.207
18843W        W84103   8.230   7.425   0.421
18844W        W84104  27.134  16.758   0.654
18845W        W84105  25.228  26.409  13.333
18846W        W84106  26.500   7.281  12.385
18847W        W84107  21.521  10.228   3.394
18848W        W84108  22.066  21.042  12.006
18849W        W84109  23.729  25.070  13.637
18850W        W84110  16.350   8.262  13.993
18851W        W84111  15.373  10.675   1.495
18852W        W84112   2.799  41.063   0.016
18853W        W84113  22.308  43.548  13.491
18854W        W84114   0.998  35.494  14.887
18855W        W84115   7.610  24.126  12.004
18856W        W84116   6.820   7.336  10.676
18857W        W84117   1.323  27.867  11.848
18858W        W84118  23.972   2.163   0.318
18859W        W84119   2.428  30.097  12.656
18860W        W84120  37.188  19.194   2.782
18861W        W84121  36.819  33.590  11.273
18862W        W84122   2.411  31.083   0.404
18863W        W84123   2.341  33.050   4.085
18864W        W84124  17.115  15.092   4.598
18865W        W84125  18.322  15.100   3.586
18866W        W84126  30.256  42.296   4.083
18867W        W84127   5.761  22.605  11.035
18868W        W84128  43.511  12.698   3.420
18869W        W84129  27.655  29.697   4.087
18870W        W84130   8.412  23.557   0.911
18871W        W84131  20.660  15.648  12.347
18872W        W84132   8.985   5.600  14.335
18873W        W84133  28.610   6.721   0.418
18874W        W84134  20.026  28.574   0.969
18875W        W84135  42.384  17.454  13.549
18876W        W84136  41.757  24.549  14.798
18877W        W84137  16.742   6.377   2.132
18878W        W84138  19.923  29.099   0.786
18879W        W84139   5.621  27.086  10.752
18880W        W84140  16.542  27.886   0.494
18881W        W84141  29.093   8.350   1.407
18882W        W84142  16.193  34.462   1.745
18883W        W84143  19.725  27.943  10.729
18884W        W84144  23.610  27.525  13.454
18885W        W84145  23.239  23.562   4.749
18886W        W84146  28.477  24.538   9.770
18887W        W84147  31.550  26.208  13.669
18888W        W84148   6.187  12.332   1.250
18889W        W84149   9.720   0.927  13.785
18890W        W84150  14.730   9.282   2.152
18891W        W84151  20.104  38.560  11.958
18892W        W84152  10.538  35.938   3.777
18893W        W84153  37.836  21.666   3.820
18894W        W84154  14.867   8.404   0.824
18895W        W84155  41.778  15.220  14.882
18896W        W84156  27.671  27.878   1.709
18897W        W84157  25.743  20.781  13.530
18898W        W84158   5.816   9.443   1.837
18899W        W84159  37.562  16.540   4.171
18900W        W84160  14.584  14.644   2.842
18901W        W84161  16.294  30.395   3.165
18902W        W84162  11.867  34.250  10.138
18903W        W84163  43.801  31.440  13.585
18904W        W84164  30.521  10.766  12.162
18905W        W84165  37.359  26.639  14.145
18906W        W84166  33.383  15.198  10.732
18907W        W84167  27.814  20.557  13.411
18908W        W84168  35.024   9.645   2.163
18909W        W84169  19.321  31.215   0.002
18910W        W84170  30.839   2.785   2.107
18911W        W84171   2.700  43.686   4.133
18912W        W84172  12.125  40.533   2.238
18913W        W84173   0.903  37.326   0.320
18914W        W84174  29.396  21.158   0.829
18915W        W84175  37.569  44.120  12.894
18916W        W84176  18.763   9.645  14.363
18917W        W84177  35.565  21.687   1.736
18918W        W84178  13.783  21.283   0.751
18919W        W84179  36.364  32.849   3.650
18920W        W84180  37.872  42.407  11.482
18921W        W84181  39.138  22.293   4.016
18922W        W84182   5.154   8.104   3.760
18923W        W84183  29.566  24.889  11.114
18924W        W84184  40.860  26.704   0.067
18925W        W84185  25.049  38.504  14.284
18926W        W84186   7.847  39.589  13.221
18927W        W84187  39.786  36.997   4.144
18928W        W84188  44.564  41.612   0.319
18929W        W84189  37.314  14.050   0.051
18930W        W84190  21.259  21.519  14.356
18931W        W84191  26.600   3.778   1.874
18932W        W84192  32.194   4.440  14.419
18933W        W84193  26.303  10.647  14.137
18934W        W84194  17.503  22.643   4.562
18935W        W84195  29.641   5.224   1.232
18936W        W84196   8.650   6.410  13.989
18937W        W84197  35.564  34.223   4.065
18938W        W84198  44.971  43.756   4.147
18939W        W84199  44.747  36.943   0.007
18940W        W84200  43.478  38.048   4.125
18941W        W84201  27.958  24.517   5.043
18942W        W84202   6.811  23.351   1.780
18943W        W84203  39.650   2.783  14.803
18944W        W84204  25.054  27.405   2.310
18945W        W84205  42.236   3.197  12.976
18946W        W84206  33.698  33.070   0.461
18947W        W84207   5.927  37.264  13.482
18948W        W84208  36.462  39.466  12.595
18949W        W84209   1.759  37.313   4.163
18950W        W84210  42.927  42.399   1.036
18951W        W84211   5.265  42.431  14.924
18952W        W84212  27.077  33.062  12.176
18953W        W84213  43.259  26.073   3.304
18954W        W84214  10.337  14.207   2.430
18955W        W84215   0.920  37.050  11.863
18956W        W84216  39.604  28.973  14.339
18957W        W84217  32.075  33.570  12.478
18958W        W84218   8.862   9.874  11.141
18959W        W84219   7.183  43.906  14.954
18960W        W84220  17.092   8.266   4.477
18961W        W84221  25.025  33.447  14.298
18962W        W84222   9.360  30.461  12.840
18963W        W84223  15.101  24.944   2.352
18964W        W84224  24.046  17.669  14.468
18965W        W84225  21.462  43.454   2.839
18966W        W84226  28.690  22.486   1.242
18967W        W84227  15.045  23.738   1.181
18968W        W84228  34.406  39.054  12.677
18969W        W84229  36.493  28.690   1.162
18970W        W84230  14.014  10.249  14.837
18971W        W84231  18.898   0.547  11.082
18972W        W84232  19.794  17.017  12.952
18973W        W84233  37.529  26.703   4.612
18974W        W84234  32.472  39.574   4.562
18975W        W84235  35.099  32.507  13.707
18976W        W84236   7.726  27.229  13.589
18977W        W84237   7.397  20.305  11.620
18978W        W84238  11.192  38.144   4.652
18979W        W84239  20.064  23.213  11.975
18980W        W84240  13.264  38.566   2.358
18981W        W84241  12.598  32.750  11.634
18982W        W84242  21.645  19.358  12.875
18983W        W84243   0.979  33.536  14.663
18984W        W84244  15.081  31.431  14.873
18985W        W84245  43.338   2.294  11.954
18986W        W84246  12.754  36.037   4.596
18987W        W84247   9.126  32.785   3.327
18988W        W84248  18.148  39.562  10.742
18989W        W84249  32.543  30.471  11.887
18990W        W84250  43.557  38.075   3.184
18991W        W84251  16.280  28.065  12.157
18992W        W84252   2.002  30.054   3.756
18993W        W84253  16.693  13.077   0.209
18994W        W84254  20.717  17.036  10.512
18995W        W84255  40.019  15.278  12.063
18996W        W84256  14.227  13.583   3.323
18997W        W84257   7.700  37.229   2.202
18998W        W84258  13.696  44.815   2.266
18999W        W84259  40.693   9.191   2.784
19000W        W84260  39.382  41.054  14.117
19001W        W84261   7.333  41.360   1.500
19002W        W84262  34.597  42.338  14.531
19003W        W84263  34.053  26.481  12.641
19004W        W84264   6.085   8.133   0.250
19005W        W84265  27.172  34.489  10.685
19006W        W84266  10.768  18.657  10.697
19007W        W84267  43.805  13.091   3.223
19008W        W84268  36.367   2.843   3.805
19009W        W84269  41.618  39.835  11.663
19010W        W84270   7.438  25.749  13.626
19011W        W84271  33.919  37.812  10.876
19012W        W84272   9.358  40.669   0.365
19013W        W84273  44.109  44.498   2.857
19014W        W84274  35.172  30.907   0.326
19015W        W84275  41.000  19.568  13.571
19016W        W84276  16.584  25.690  12.495
19017W        W84277   1.217  41.941   2.919
19018W        W84278  41.460  34.442   4.433
19019W        W84279  16.222  10.614   4.220
19020W        W84280  38.365  13.100   2.274
19021W        W84281  24.644  42.838  11.151
19022W        W84282   9.114   7.366   0.806
19023W        W84283  40.442   6.722  10.477
19024W        W84284  20.578   5.225  14.422
19025W        W84285  27.709  14.849   2.439
19026W        W84286  39.950  43.778  14.067
19027W        W84287   6.642   1.673  12.061
19028W        W84288   9.240   0.045   2.407
19029W        W84289   6.198  33.468   4.523
19030W        W84290  12.623   0.716  14.910
19031W        W84291  33.813   6.240  10.126
19032W        W84292   9.269  13.740  11.063
19033W        W84293  17.261   6.222  12.148
19034W        W84294  27.580  21.704  10.640
19035W        W84295  33.071   2.011  11.917
19036W        W84296  21.531  36.780   3.177
19037W        W84297  32.574  25.010  13.260
19038W        W84298  44.295  17.220   4.983
19039W        W84299  22.558  43.560   0.373
19040W        W84300   5.658   3.989   0.440
19041W        W84301  17.791  32.568   3.200
19042W        W84302   0.133  39.364  14.492
19043W        W84303   6.365  15.753  14.712
19044W        W84304  27.054  39.604   0.415
19045W        W84305   0.553  23.589   1.372
19046W        W84306  39.966   4.152  13.405
19047W        W84307   6.671  15.310   2.177
19048W        W84308  11.295  10.370  13.849
19049W        W84309  37.500  37.888   3.229
19050W        W84310  39.559  20.305  11.089
19051W        W84311  37.033  24.701  12.489
19052W        W84312   0.783  41.783   4.661
19053W        W84313   5.457  32.914   0.881
19054W        W84314  28.772   5.886  12.144
19055W        W84315   3.176  14.712   3.308
19056W        W84316  13.607  12.194  10.864
19057W        W84317   0.481  16.052  11.922
19058W        W84318  22.194  18.580   3.122
19059W        W84319  31.418  40.853  14.916
19060W        W84320  18.605  44.465   1.765
19061W        W84321   0.705  18.939  10.987
19062W        W84322  13.261  38.970  11.590
19063W        W84323  43.000  40.317   4.974
19064W        W84324   5.670  24.591  13.322
19065W        W84325  30.136   6.839  13.065
19066W        W84326  35.864  14.716   0.680
19067W        W84327  12.542  38.319  12.049
19068W        W84328  10.861  34.110   1.721
19069W        W84329  43.283   6.253   3.674
19070W        W84330  31.342  41.375  12.587
19071W        W84331  23.053   9.791   3.198
19072W        W84332  28.503   4.868   0.983
19073W        W84333  24.968  27.152  10.721
19074W        W84334   7.717  23.792   3.545
19075W        W84335  17.648  16.952   1.329
19076W        W84336  15.734  44.735  13.878
19077W        W84337  26.773  35.387  11.973
19078W        W84338  41.033  41.668   2.237
19079W        W84339   3.483  10.289  12.949
19080W        W84340  28.644  32.177  12.580
19081W        W84341  28.222   8.984   3.699
19082W        W84342  43.672  24.527   3.232
19083W        W84343  19.301  32.963   4.077
19084W        W84344   7.421  30.226  11.561
19085W        W84345   6.515  44.456   2.920
19086W        W84346   8.471  18.094  14.737
19087W        W84347   1.085  23.782   4.559
19088W        W84348  30.000   3.541  11.276
19089W        W84349  17.078   8.662  10.181
19090W        W84350  20.989  18.825   3.699
19091W        W84351  22.622  32.498  11.415
19092W        W84352  28.177  18.758  10.554
19093W        W84353  25.726  40.598   2.271
19094W        W84354  32.727  39.136  13.781
19095W        W84355   1.717  17.664  12.895
19096W        W84356  19.740  32.717   3.505
19097W        W84357  35.419  25.201  10.677
19098W        W84358  23.328  20.316  10.725
19099W        W84359  21.070  31.940   0.339
19100W        W84360  22.126  32.639  11.538
19101W        W84361  36.951  20.588   1.934
19102W        W84362  34.826  30.546  14.823
19103W        W84363  18.955  40.785  13.597
19104W        W84364  41.020  20.575  14.963
19105W        W84365  40.319   0.956   1.852
19106W        W84366  17.702  15.799   4.607
19107W        W84367  39.789  37.348  14.909
19108W        W84368  40.065   2.879   1.734
19109W        W84369  26.164  41.954  13.691
19110W        W84370  38.481   3.355   0.748
19111W        W84371  22.464  15.150   0.373
19112W        W84372   9.574   6.874   1.818
19113W        W84373  15.652   4.217  14.265
19114W        W84374  20.775   9.286   3.214
19115W        W84375   6.903   2.153   0.769
19116W        W84376  36.095  12.765   2.649
19117W        W84377  11.216   5.204   0.330
19118W        W84378  21.496  39.335   3.441
19119W        W84379   5.864  28.521   0.186
19120W        W84380  23.150  24.031   1.599
19121W        W84381  13.552  35.863  13.910
19122W        W84382  11.718   7.155  14.327
19123W        W84383   8.181   3.260  13.777
19124W        W84384  44.050  40.777   2.751
19125W        W84385  16.406  14.247   1.672
19126W        W84386  41.758  42.822   2.051
19127W        W84387   5.407   5.901  13.349
19128W        W84388  33.904  21.806  13.847
19129W        W84389  26.664  32.679   1.821
19130W        W84390   6.616   1.915   0.380
19131W        W84391  19.684  16.644   1.814
19132W        W84392  27.985  25.735   0.787
19133W        W84393  34.995   8.551  12.520
19134W        W84394  15.343  22.087   1.248
19135W        W84395   6.636   1.011   3.646
19136W        W84396  42.211  15.545   0.755
19137W        W84397  29.621   1.201  13.298
19138W        W84398  24.283  13.239   4.875
19139W        W84399  12.811  11.284   3.393
19140W        W84400   3.503  17.514   2.719
19141W        W84401  18.625  29.967   3.254
19142W        W84402  40.880  43.522   4.328
19143W        W84403  22.308  39.904   4.343
19144W        W84404  40.111  37.927   1.116
19145W        W84405   0.296   2.253  10.672
19146W        W84406  20.578  12.219  13.444
19147W        W84407  26.047   3.508  13.324
19148W        W84408  42.938  11.237  14.478
19149W        W84409  13.347  31.676  14.147
19150W        W84410  42.405  14.608   0.427
19151W        W84411   9.747  19.053   4.388
19152W        W84412  28.976   0.882  14.451
19153W        W84413  15.712  24.615  10.957
19154W        W84414   9.114  42.474   4.847
19155W        W84415   6.257  24.925  12.826
19156W        W84416  35.525   0.486   4.880
19157W        W84417  37.409  16.249   0.514
19158W        W84418  39.287  31.080   1.708
19159W        W84419   6.899   1.144  11.220
19160W        W84420  31.525  41.053  14.344
19161W        W84421  37.423   9.297   1.021
19162W        W84422  27.128  10.079   3.264
19163W        W84423   8.512  33.440   3.243
19164W        W84424  23.591  39.612   1.841
19165W        W84425  25.647   2.506   1.398
19166W        W84426  28.238  28.637   1.244
19167W        W84427   3.113  43.726   3.394
19168W        W84428  25.339  24.748  12.552
19169W        W84429  23.725  24.218  12.071
19170W        W84430   9.633  15.852   3.839
19171W        W84431  28.024   3.476   4.214
19172W        W84432   9.713   9.850  11.339
19173W        W84433   7.800  14.241  10.409
19174W        W84434   4.188   8.847  14.277
19175W        W84435  12.628   3.557   4.456
19176W        W84436  13.407  22.555  13.550
19177W        W84437  32.816  24.274   0.044
19178W        W84438  20.026   4.451  13.217
19179W        W84439  16.837  35.583  13.587
19180W        W84440  17.523   0.459  14.861
19181W        W84441  10.335  15.640   5.097
19182W        W84442   4.932  27.488   1.289
19183W        W84443  34.460  19.780  14.850
19184W        W84444  39.979  11.894  10.659
19185W        W84445   0.068   7.331   3.707
19186W        W84446  16.411  43.667  11.095
19187W        W84447  44.559  25.624  12.510
19188W        W84448  29.412  17.784  11.633
19189W        W84449   3.814  29.599   5.059
19190W        W84450  44.732  42.307   4.641
19191W        W84451  20.602  25.231   4.061
19192W        W84452  39.624  16.135   3.990
19193W        W84453  27.186  40.012  10.431
19194W        W84454  31.297  35.833   5.096
19195W        W84455  37.816  15.114  13.882
19196W        W84456  25.026   2.725   1.059
19197W        W84457  43.958  35.920   1.055
19198W        W84458   2.490  33.981  11.235
19199W        W84459  13.034  14.017   1.259
19200W        W84460  37.625  16.122  14.560
19201W        W84461  44.298  19.798   3.507
19202W        W84462  27.436   2.787   4.060
19203W        W84463  38.393  32.189  11.023
19204W        W84464  38.148  25.627  11.982
19205W        W84465  42.977  34.584  11.512
19206W        W84466  19.940  23.533  14.416
19207W        W84467   1.882  11.768   5.263
19208W        W84468   0.918   3.175  11.724
19209W        W84469  38.588  27.040  14.797
19210W        W84470  28.338   8.836   2.684
19211W        W84471  22.515  27.947   1.895
19212W        W84472  30.348   6.734  13.521
19213W        W84473  14.167  23.481   3.099
19214W        W84474  16.315  25.588   2.359
19215W        W84475  18.101  13.383  12.513
19216W        W84476  15.251  13.058  11.670
19217W        W84477   8.433  36.415   3.434
19218W        W84478  22.248  15.235  12.868
19219W        W84479  17.276  28.702  11.503
19220W        W84480  26.420  37.613   2.165
19221W        W84481  39.906  38.041  10.634
19222W        W84482  22.950  13.095  11.174
19223W        W84483  19.370  19.036   4.975
19224W        W84484  19.220  29.920  12.639
19225W        W84485  16.480  17.264  13.951
19226W        W84486  15.293  28.279  11.352
19227W        W84487  20.109  20.802  12.928
19228W        W84488  30.365  38.868  12.534
19229W        W84489  24.013  38.048  14.031
19230W        W84490  25.232  17.353  12.836
19231W        W84491   0.565  38.580   3.654
19232W        W84492  41.257  17.160   0.155
19233W        W84493  13.275  12.473   2.274
19234W        W84494  22.906  33.611  11.175
19235W        W84495  30.450  30.454   1.303
19236W        W84496  25.566  42.007   3.369
19237W        W84497  11.244  17.542  11.513
19238W        W84498   2.268  30.928   1.830
19239W        W84499  28.918  44.474   2.730
19240W        W84500  14.505  20.169  14.522
19241W        W84501  10.379  35.641  12.879
19242W        W84502   3.819  20.752  10.719
19243W        W84503  34.160  28.887  11.439
19244W        W84504  41.491  27.198   0.502
19245W        W84505   6.397   5.341  12.399
19246W        W84506  34.624   6.024  13.349
19247W        W84507   3.851  36.640  12.951
19248W        W84508  15.685   3.417  11.551
19249W        W84509  27.415  28.367   1.784
19250W        W84510   0.857  17.960  11.190
19251W        W84511  23.430  11.260  13.078
19252W        W84512  42.023  10.120  13.976
19253W        W84513   7.869  42.510   3.095
19254W        W84514   6.259   7.314   4.565
19255W        W84515   6.898  37.933   1.674
19256W        W84516  33.221  41.797  11.400
19257W        W84517  37.076  17.800   0.446
19258W        W84518  18.265   9.269  10.845
19259W        W84519   5.868  20.007  11.449
19260W        W84520  17.642  33.055  11.627
19261W        W84521  33.351  15.725  14.867
19262W        W84522  10.158  16.331  10.560
19263W        W84523  32.871  18.890   4.269
19264W        W84524  42.997   2.179   3.629
19265W        W84525   4.223   8.643  13.790
19266W        W84526  30.065  31.128  13.381
19267W        W84527  11.776   2.203  12.147
19268W        W84528  20.450  43.770   0.155
19269W        W84529  27.510  25.056   3.895
19270W        W84530  28.307  25.078   3.507
19271W        W84531  12.185  29.490  10.936
19272W        W84532   5.290  25.517   9.958
19273W        W84533  42.386  40.519   0.673
19274W        W84534  34.587  41.470  10.734
19275W        W84535   2.650  40.514  14.346
19276W        W84536  25.098  22.660   1.195
19277W        W84537   2.919  15.128   3.510
19278W        W84538  13.079  12.306  11.523
19279W        W84539  37.007  10.190   2.262
19280W        W84540  34.427   2.450  11.008
19281W        W84541  14.453  24.007   0.139
19282W        W84542  41.256  12.812   3.882
19283W        W84543  10.330  14.391  11.589
19284W        W84544  25.787  38.863   4.324
19285W        W84545  16.895  15.825  10.177
19286W        W84546   7.931  12.078  13.386
19287W        W84547  38.705  41.935  13.035
19288W        W84548  15.880  36.509  13.506
19289W        W84549  25.668  21.353   0.288
19290W        W84550  23.519  44.035   1.911
19291W        W84551  37.856  30.474  10.961
19292W        W84552  40.763  42.071  12.040
19293W        W84553  24.065   0.187   4.307
19294W        W84554  25.038   2.706   4.206
19295W        W84555   5.402  26.574   4.171
19296W        W84556  22.118  18.612   1.592
19297W        W84557  12.268   3.673  13.441
19298W        W84558   4.950   9.246   4.596
19299W        W84559  30.588  14.546   1.829
19300W        W84560   8.199  44.503  11.872
19301W        W84561  19.722  28.864  10.678
19302W        W84562  43.974  27.980   2.177
19303W        W84563  17.981   9.145   0.283
19304W        W84564  17.794  36.115   1.915
19305W        W84565  43.239  24.579   0.889
19306W        W84566  26.506  36.382  12.323
19307W        W84567  25.408  18.132  14.949
19308W        W84568  16.852  27.560   0.740
19309W        W84569  42.521   8.846   2.838
19310W        W84570  37.978  26.353  11.429
19311W        W84571  32.608  30.321  11.390
19312W        W84572   9.639  37.024   3.201
19313W        W84573  44.948  39.461   1.747
19314W        W84574  19.586  31.776   2.148
19315W        W84575  24.596   3.318   4.023
19316W        W84576  26.720   6.890  10.555
19317W        W84577  29.571   4.592   2.639
19318W        W84578  42.003   4.863   3.548
19319W        W84579  41.364   2.872  10.803
19320W        W84580  11.304  26.872   0.808
19321W        W84581  11.727  41.283  11.949
19322W        W84582  14.721  21.935  14.733
19323W        W84583   2.357  10.462  14.732
19324W        W84584  15.009  24.206   1.435
19325W        W84585  18.179  14.245   0.447
19326W        W84586  38.074   9.971  14.559
19327W        W84587  34.965   0.999   0.942
19328W        W84588  20.165  11.815   2.307
19329W        W84589  21.360  40.392  12.765
19330W        W84590  43.926  24.039   1.351
19331W        W84591   3.959  35.816   4.635
19332W        W84592   2.892  35.789  11.876
19333W        W84593   1.793  19.092  10.768
19334W        W84594  40.790  22.004   2.168
19335W        W84595  33.937  28.445  11.444
19336W        W84596  17.609  25.433   1.379
19337W        W84597  26.484  23.591   1.001
19338W        W84598  15.777  24.135   2.804
19339W        W84599  18.872  26.589   4.084
19340W        W84600  13.059  27.914   2.410
19341W        W84601  26.001  13.638   2.345
19342W        W84602  24.965  42.882  11.576
19343W        W84603   8.248  21.673   1.878
19344W        W84604   5.508  27.040   0.910
19345W        W84605  38.054  13.784   1.570
19346W        W84606  18.131  18.641  13.809
19347W        W84607  14.178   5.429  13.943
19348W        W84608  41.443  20.596   4.470
19349W        W84609  16.061  13.211  11.963
19350W        W84610  32.194  36.612   4.274
19351W        W84611   0.138  25.663  13.639
19352W        W84612  21.599  13.617   2.265
19353W        W84613  37.180  21.782  13.982
19354W        W84614  23.514  31.885  11.075
19355W        W84615  12.635  34.308   1.482
19356W        W84616  33.296  13.098   0.588
19357W        W84617   9.262   3.692  10.582
19358W        W84618  18.715   2.246  14.712
19359W        W84619  23.759  15.835  13.548
19360W        W84620  15.536  23.230  11.994
19361W        W84621   7.229  25.086  13.841
19362W        W84622  26.881  19.222  12.124
19363W        W84623  41.985  37.298  13.238
19364W        W84624  18.306  20.625  14.997
19365W        W84625  12.638  17.865   2.386
19366W        W84626  15.253  20.623  11.007
19367W        W84627  28.946  27.566  14.300
19368W        W84628   9.222  41.285   2.180
19369W        W84629  36.065  20.428   3.668
19370W        W84630  27.178  26.582  11.713
19371W        W84631   3.492  44.688   0.802
19372W        W84632  24.568  39.443  12.657
19373W        W84633  16.751  42.065  13.026
19374W        W84634  32.410   7.188   4.191
19375W        W84635  23.605  40.169   4.563
19376W        W84636  15.724  36.476  13.993
19377W        W84637  44.271  42.092  12.641
19378W        W84638  35.539  27.046  10.234
19379W        W84639  11.622  20.550  13.041
19380W        W84640  32.234  36.000  13.503
19381W        W84641  18.434  38.072  13.567
19382W        W84642  35.602  10.285   1.271
19383W        W84643  30.066  33.109  11.618
19384W        W84644  20.705   2.843   2.967
19385W        W84645   4.612  28.969   1.623
19386W        W84646   0.075   0.331  12.029
19387W        W84647  29.963   3.334   4.126
19388W        W84648  43.456   2.320   2.327
19389W        W84649  21.552  26.688   5.061
19390W        W84650  35.134  19.489   0.950
19391W        W84651  16.234  39.873   1.066
19392W        W84652  16.119  38.221  14.958
19393W        W84653  37.440  30.577  10.623
19394W        W84654  37.567  11.829   0.456
19395W        W84655  34.861  34.061   0.678
19396W        W84656  32.984  38.623  12.959
19397W        W84657  31.029  37.487   1.820
19398W        W84658  22.475  37.566  10.416
19399W        W84659  19.120   2.922  12.968
19400W        W84660   8.861   8.065  12.025
19401W        W84661  14.597  31.855  11.209
19402W        W84662  20.986   3.764  10.690
19403W        W84663   1.374  11.134  14.706
19404W        W84664  39.927  43.729   2.368
19405W        W84665  36.889  33.900   1.711
19406W        W84666  30.684  39.899   2.181
19407W        W84667  25.961  22.872  14.423
19408W        W84668  37.855  24.763   1.894
19409W        W84669  25.660  38.648   3.517
19410W        W84670  20.059  40.775   4.547
19411W        W84671  12.188   2.265   4.768
19412W        W84672   2.964   4.858  13.889
19413W        W84673   7.212  30.763   1.754
19414W        W84674  12.674  16.995   2.746
19415W        W84675  36.380   4.746   3.640
19416W        W84676  42.466  38.042  11.445
19417W        W84677   3.913   9.919   1.419
19418W        W84678  42.311  13.708   3.558
19419W        W84679  43.967   4.150   3.944
19420W        W84680   9.203  38.910  10.807
19421W        W84681  17.741  39.388   4.691
19422W        W84682   4.694   3.284  10.617
19423W        W84683  35.385   5.712  12.801
19424W        W84684  12.116  41.505  14.833
19425W        W84685  28.937   3.222   4.047
19426W        W84686   6.402  12.136  12.560
19427W        W84687   9.804   0.266   4.109
19428W        W84688  41.403  24.170   0.454
19429W        W84689  38.969  36.972  12.361
19430W        W84690  38.379  15.468   1.363
19431W        W84691  14.118  40.073  12.480
19432W        W84692  26.456  24.528   1.236
19433W        W84693  41.097  24.645   1.401
19434W        W84694   0.935  19.805  13.941
19435W        W84695   7.660  34.898  11.163
19436W        W84696  29.868  41.882  10.839
19437W        W84697  44.924  22.110  11.669
19438W        W84698   0.288  44.795   0.668
19439W        W84699  19.296  19.750   0.038
19440W        W84700   2.363  20.358  14.217
19441W        W84701  41.131  41.469   1.695
19442W        W84702  30.586   7.290  13.526
19443W        W84703  43.056   2.910  12.973
19444W        W84704   2.456   6.473   4.122
19445W        W84705  28.339  20.130   1.872
19446W        W84706  41.768  28.505  14.418
19447W        W84707  15.600  14.227  11.176
19448W        W84708  18.569   1.925  12.807
19449W        W84709  10.209   0.004   3.424
19450W        W84710  35.581  17.332  13.991
19451W        W84711  16.664  18.572  14.669
19452W        W84712  15.610  27.354   0.357
19453W        W84713  22.475   9.378  11.601
19454W        W84714  13.841  32.518   4.216
19455W        W84715  40.734  15.071  14.865
19456W        W84716  38.873  23.349   0.905
19457W        W84717  25.210  31.098   2.189
19458W        W84718  43.406  28.523  14.998
19459W        W84719  43.464  24.965   0.627
19460W        W84720  43.782  16.152   2.645
19461W        W84721  31.642   6.716   2.815
19462W        W84722  20.460  22.639  13.476
19463W        W84723  20.017  41.122  11.202
19464W        W84724   5.847  25.375  13.223
19465W        W84725  19.840  15.712  10.573
19466W        W84726  36.318  21.082   1.352
19467W        W84727  10.815   5.198   2.983
19468W        W84728  36.367  23.616  12.506
19469W        W84729  16.202  24.413   0.608
19470W        W84730  16.027  25.262   3.190
19471W        W84731   0.333   0.952   1.663
19472W        W84732  26.757  37.783  12.104
19473W        W84733   3.770  20.502   0.784
19474W        W84734  43.790  44.884  14.646
19475W        W84735   2.216  14.594  13.463
19476W        W84736   4.085  34.852   1.649
19477W        W84737  37.129  39.714  12.778
19478W        W84738  35.962  37.367  14.024
19479W        W84739  40.757   6.253  14.791
19480W        W84740  29.702   8.769  12.133
19481W        W84741  23.272  42.261  12.611
19482W        W84742  27.292  15.624   1.167
19483W        W84743  42.919  24.131   3.168
19484W        W84744  43.777  10.746   4.974
19485W        W84745  44.368   9.541   4.109
19486W        W84746  36.935  21.122   4.678
19487W        W84747   7.922   3.765  11.164
19488W        W84748  19.570  39.940   4.511
19489W        W84749  39.104  10.760  13.512
19490W        W84750  23.016  44.280   9.910
19491W        W84751  21.298  15.915  11.545
19492W        W84752  23.070   6.440  11.169
19493W        W84753  24.391  34.449   2.448
19494W        W84754  18.957  25.124   0.819
19495W        W84755  16.758  19.583  14.526
19496W        W84756  24.162  27.255  14.882
19497W        W84757  29.717  18.442   3.737
19498W        W84758  19.314  23.786  11.056
19499W        W84759  23.206  19.719  14.393
19500W        W84760  31.627  23.069   1.774
19501W        W84761  36.927  26.684  14.487
19502W        W84762  42.498   8.694  14.104
19503W        W84763  42.510   2.366  11.878
19504W        W84764  11.207  24.534   1.376
19505W        W84765   1.877  34.330  13.994
19506W        W84766   9.589   3.624  14.033
19507W        W84767  31.540  32.141  14.235
19508W        W84768  15.534  16.191   2.736
19509W        W84769  13.647  44.778   2.814
19510W        W84770  35.471  32.183   4.528
19511W        W84771  14.121  42.932  12.601
19512W        W84772  33.135  34.978  13.792
19513W        W84773  37.786  38.929   0.868
19514W        W84774   7.435  32.947  12.443
19515W        W84775  19.188  23.593   2.479
19516W        W84776  44.348  11.701  13.125
19517W        W84777  42.206   1.711   3.302
19518W        W84778   7.804  26.020  12.179
19519W        W84779  17.023  35.420   1.986
19520W        W84780  17.601   7.289  13.606
19521W        W84781   3.676  25.951  14.560
19522W        W84782   6.863  15.237   0.304
19523W        W84783  15.641   9.903  11.554
19524W        W84784  27.088  36.958  11.494
19525W        W84785  13.626  22.995   3.170
19526W        W84786   2.753  15.167   2.533
19527W        W84787   3.885  36.083  13.335
19528W        W84788   3.428  32.481   2.320
19529W        W84789  21.808  17.809  12.096
19530W        W84790  19.097  27.081   2.293
19531W        W84791  19.650  36.362  13.940
19532W        W84792  42.852   6.950   0.196
19533W        W84793  33.528   3.246   4.118
19534W        W84794  16.681  25.704   4.324
19535W        W84795  36.119  22.623  13.816
19536W        W84796  44.451  42.732  13.536
19537W        W84797  18.645  11.156  12.869
19538W        W84798  39.072   6.854  10.514
19539W        W84799   8.399  30.583   0.730
19540W        W84800  44.550  39.885  10.470
19541W        W84801  10.454  21.079  11.687
19542W        W84802   4.860   9.758   4.757
19543W        W84803  15.203   2.738   0.982
19544W        W84804  36.884  41.393   0.266
19545W        W84805   7.386  44.738  10.582
19546W        W84806  11.698  13.133   0.393
19547W        W84807   0.788   3.390   4.913
19548W        W84808  14.237  35.257   3.377
19549W        W84809  44.848  38.374   4.579
19550W        W84810  43.985  16.520  12.919
19551W        W84811   9.359   2.216   0.746
19552W        W84812  39.412  27.441  11.117
19553W        W84813  35.008  34.284   4.045
19554W        W84814  43.579  35.354  12.561
19555W        W84815  36.711  43.985  14.021
19556W        W84816  29.075  10.278   2.948
19557W        W84817  11.136  43.209  14.662
19558W        W84818  37.596  11.216  13.050
19559W        W84819   2.153  21.681  11.557
19560W        W84820  44.833  19.992  12.827
19561W        W84821  18.290  22.474   2.281
19562W        W84822  31.688   4.866   3.699
19563W        W84823  26.185  12.157  14.566
19564W        W84824   2.755   9.875  12.557
19565W        W84825   2.996  30.221   5.397
19566W        W84826   7.744  13.773  10.695
19567W        W84827  34.521   0.707  12.482
19568W        W84828  28.153  29.417   0.661
19569W        W84829  31.456   7.907  12.317
19570W        W84830   8.835  16.589  12.166
19571W        W84831  35.924  28.946   0.346
19572W        W84832  19.217  12.641  13.882
19573W        W84833  18.296  35.352  11.927
19574W        W84834   6.960  24.045   0.524
19575W        W84835  24.160   9.387   4.522
19576W        W84836  28.954  25.182  11.224
19577W        W84837  23.753  26.068  14.796
19578W        W84838  24.117  30.344   3.823
19579W        W84839  15.049  20.776   4.519
19580W        W84840  12.472   3.631   5.373
19581W        W84841  23.104  42.564  13.828
19582W        W84842  10.403   5.945  12.893
19583W        W84843   5.930  19.384  10.325
19584W        W84844  27.684  22.952  12.643
19585W        W84845  15.004  41.984  14.006
19586W        W84846   3.622  27.729   0.793
19587W        W84847  27.036  32.936   4.875
19588W        W84848   8.678  35.884  14.447
19589W        W84849  10.919  32.147   4.578
19590W        W84850  22.018  14.867  11.232
19591W        W84851  36.918   7.234   4.796
19592W        W84852  31.721  43.933   0.270
19593W        W84853  30.910  33.655  12.952
19594W        W84854  44.342  37.834  10.570
19595W        W84855  15.671   7.561   1.855
19596W        W84856  27.683   3.410   0.682
19597W        W84857  26.788  24.367  12.543
19598W        W84858  39.032  33.556   2.486
19599W        W84859  36.574  30.062  10.872
19600W        W84860  42.288  24.201   0.510
19601W        W84861  37.841  33.408   4.498
19602W        W84862  24.735  23.544   4.093
19603W        W84863  15.558  37.474  13.330
19604W        W84864  12.846  41.352  10.741
19605W        W84865  38.288  35.880  14.950
19606W        W84866  25.087   0.317  14.466
19607W        W84867  44.818  36.779  13.836
19608W        W84868   1.670  33.684  12.153
19609W        W84869  23.294  40.458   3.821
19610W        W84870  33.163   2.421   2.127
19611W        W84871  26.149  25.443   4.552
19612W        W84872  16.054   5.011  10.187
19613W        W84873  22.525  26.426   2.098
19614W        W84874  44.941   5.178  10.709
19615W        W84875  35.456  27.255   3.147
19616W        W84876  21.745  19.779   4.177
19617W        W84877  41.405  24.253  13.920
19618W        W84878   2.624   6.624   2.400
19619W        W84879  24.096  44.120  13.247
19620W        W84880  34.932  12.241   2.240
19621W        W84881  29.346   9.164  11.566
19622W        W84882  13.487  18.944   2.151
19623W        W84883   8.473  25.456  13.595
19624W        W84884  27.716  37.094  11.207
19625W        W84885  27.928  24.160   3.617
19626W        W84886   1.737  41.357  12.476
19627W        W84887  25.880  26.660  12.101
19628W        W84888  32.212   2.681   1.855
19629W        W84889  14.305  39.893   3.249
19630W        W84890  11.227   4.850  13.075
19631W        W84891   3.802   8.483  11.808
19632W        W84892  12.130   3.890   4.551
19633W        W84893  13.772  31.873  11.540
19634W        W84894   3.899  31.800   2.246
19635W        W84895  17.657  14.347   1.017
19636W        W84896  29.538  36.831  10.856
19637W        W84897  26.666  27.272   4.153
19638W        W84898  34.802  41.242   0.320
19639W        W84899  17.649  35.591   4.601
19640W        W84900  13.526  38.068  13.828
19641W        W84901  15.200  16.346   2.366
19642W        W84902  32.784  13.673   0.163
19643W        W84903   1.152  15.840  12.666
19644W        W84904  18.677  17.416   4.472
19645W        W84905  17.831  36.641  11.448
19646W        W84906  43.961  16.126   4.641
19647W        W84907  24.733  33.020  11.982
19648W        W84908  11.128   1.834  11.528
19649W        W84909  24.784  44.186  14.918
19650W        W84910  20.690  31.774  11.276
19651W        W84911  33.935  23.601  13.326
19652W        W84912  13.285  10.596   4.306
19653W        W84913  19.013  16.739   3.734
19654W        W84914   9.411  40.872  13.960
19655W        W84915   1.993  26.687   3.549
19656W        W84916  23.525  14.523   4.102
19657W        W84917  15.461  36.086   2.997
19658W        W84918   8.185  27.040  12.738
19659W        W84919  44.427  39.865  13.526
19660W        W84920  35.442  32.523   0.977
19661W        W84921  44.296  25.185   0.346
19662W        W84922  14.208   4.017  11.231
19663W        W84923   7.657  28.125  11.217
19664W        W84924  40.150   3.777  11.551
19665W        W84925  25.036  37.295  14.793
19666W        W84926  39.630  29.110  11.115
19667W        W84927   9.498  35.562   4.663
19668W        W84928  28.469  42.390   1.381
19669W        W84929   4.841  30.873   4.110
19670W        W84930   0.385  10.916  10.686
19671W        W84931  18.112  22.721   0.634
19672W        W84932  13.784  17.186   0.812
19673W        W84933  44.480   8.695  11.506
19674W        W84934  43.560  25.608   4.294
19675W        W84935   1.579  21.618   4.282
19676W        W84936   1.789  19.072  14.995
19677W        W84937  28.944   4.183   3.119
19678W        W84938  23.467  22.010  14.706
19679W        W84939  41.874   0.396   4.922
19680W        W84940  13.664  11.694   3.475
19681W        W84941  22.981   0.142   2.877
19682W        W84942   4.764  25.254  12.992
19683W        W84943  18.150   4.428   3.557
19684W        W84944  35.864   0.815  14.531
19685W        W84945  22.079  11.584  12.950
19686W        W84946  32.979  17.191   3.204
19687W        W84947  40.897  19.929   1.430
19688W        W84948  29.093   5.479  12.023
19689W        W84949  23.724  31.866  12.373
19690W        W84950   6.327   1.252   2.822
19691W        W84951   9.922  32.091  14.397
19692W        W84952   5.288  10.819  10.466
19693W        W84953   5.097   8.207  11.202
19694W        W84954  10.693  41.148   2.616
19695W        W84955   4.682  35.404   2.268
19696W        W84956  10.090  17.251   3.437
19697W        W84957   6.730  13.528   3.876
19698W        W84958  39.859  11.701  14.358
19699W        W84959   3.475  33.523  13.540
19700W        W84960   0.984   6.794  10.816
19701W        W84961  24.787   1.364   1.673
19702W        W84962  27.936  29.940  12.287
19703W        W84963  41.843  28.577   1.898
19704W        W84964  31.336  22.718  11.448
19705W        W84965   4.865  24.106  14.379
19706W        W84966   2.935  29.217   3.313
19707W        W84967  42.854   9.295  13.415
19708W        W84968  24.454  13.265   3.897
19709W        W84969   1.248  40.562  14.770
19710W        W84970  23.254  23.534  11.661
19711W        W84971  11.580  15.170  11.488
19712W        W84972  36.493  19.997  13.362
19713W        W84973  41.279  42.882  12.040
19714W        W84974   2.781  41.358   0.984
19715W        W84975  16.163  37.875   1.751
19716W        W84976  41.028  12.109  14.314
19717W        W84977   4.499  30.705  14.850
19718W        W84978  13.677  19.751  11.339
19719W        W84979   7.102  37.809  10.933
19720W        W84980  42.484  26.651  13.040
19721W        W84981   1.831  35.566   2.929
19722W        W84982   3.523  15.381   0.435
19723W        W84983  16.126  29.730   1.798
19724W        W84984  42.247   3.458   4.592
19725W        W84985  32.555  37.847   3.119
19726W        W84986  32.535  10.198  14.555
19727W        W84987  22.437  40.340   4.101
19728W        W84988   8.565  38.873   4.551
19729W        W84989  25.567   3.018  11.558
19730W        W84990  29.620   5.415   1.810
19731W        W84991  23.531  19.327   4.075
19732W        W84992  35.198  44.400  13.912
19733W        W84993   9.316  13.104   3.811
19734W        W84994   8.168  41.817   1.067
19735W        W84995  40.398  22.646  14.852
19736W        W84996  13.180   2.317  12.484
19737W        W84997  24.194  10.220  10.655
19738W        W84998  35.341  17.755  12.090
19739W        W84999  30.622  38.796   1.345
19740W        W85000  23.809   0.344  14.408
19741W        W85001   2.111  28.731  13.463
19742W        W85002  11.822   3.978  13.444
19743W        W85003  29.552   7.962   4.166
19744W        W85004   0.455  28.638   4.201
19745W        W85005  18.178  38.541  11.583
19746W        W85006  10.484  17.574  13.003
19747W        W85007  33.031  22.475  12.456
19748W        W85008  16.215   2.548   3.744
19749W        W85009  22.735  10.213  13.995
19750W        W85010  12.753   1.432   1.422
19751W        W85011  37.849  39.252  10.630
19752W        W85012  32.680  29.596  12.404
19753W        W85013  44.011   7.335   4.732
19754W        W85014  10.741  19.650   0.536
19755W        W85015  19.310  24.392   4.229
19756W        W85016  34.855  38.397   2.275
19757W        W85017  17.814  15.793  12.064
19758W        W85018   5.655  25.022   2.432
19759W        W85019  36.675  27.813  10.165
19760W        W85020   3.687  18.804   1.613
19761W        W85021  12.289  19.123   1.727
19762W        W85022  35.815  38.570  13.388
19763W        W85023  29.543  28.996   4.221
19764W        W85024  33.312  21.018   4.680
19765W        W85025  30.744  29.008   0.812
19766W        W85026  27.110   1.315  11.872
19767W        W85027  25.069  21.572   2.696
19768W        W85028   3.708  38.412  11.579
19769W        W85029  21.196  34.751   0.098
19770W        W85030  25.972  13.172   3.682
19771W        W85031  30.369  26.613   5.066
19772W        W85032   9.819  37.161   0.351
19773W        W85033   1.903  32.476   1.640
19774W        W85034  31.288  28.093   1.419
19775W        W85035  21.359   7.182  11.245
19776W        W85036  24.053  29.413  10.712
19777W        W85037  10.933  39.907  14.783
19778W        W85038   4.825   8.722   0.243
19779W        W85039  31.311  13.339   0.405
19780W        W85040  17.091  36.473   2.839
19781W        W85041   3.939  12.191   0.474
19782W        W85042  21.105  20.720  13.120
19783W        W85043  29.443  18.180  14.378
19784W        W85044  32.703  20.320   1.279
19785W        W85045  10.467   4.963  12.043
19786W        W85046   0.338   3.406   4.630
19787W        W85047  42.106  38.330  13.360
19788W        W85048  32.388   6.655   3.350
19789W        W85049  29.456  25.212   4.614
19790W        W85050   6.099  34.750   1.473
19791W        W85051  10.058  31.014   1.367
19792W        W85052  30.972   6.242   2.414
19793W        W85053  34.230  35.260   3.708
19794W        W85054  13.448  17.830   3.825
19795W        W85055  33.318   7.486   0.375
19796W        W85056  37.047  41.074   0.779
19797W        W85057  30.415  16.091  14.586
19798W        W85058  40.521   1.810   1.927
19799W        W85059  22.040  27.593   3.825
19800W        W85060  35.849  29.478   1.469
19801W        W85061  24.636   0.571  14.545
19802W        W85062  15.183   1.983  12.243
19803W        W85063  25.612  30.467  10.722
19804W        W85064  35.021   4.891  10.647
19805W        W85065  27.729  36.406  12.578
19806W        W85066  34.282  10.165   4.097
19807W        W85067  11.168  25.468   2.823
19808W        W85068  12.531   7.299  14.160
19809W        W85069  29.663  33.607  10.582
19810W        W85070  12.969  37.485  12.752
19811W        W85071  12.190  12.672   1.319
19812W        W85072  10.621  32.325   1.111
19813W        W85073  29.558  19.605   4.427
19814W        W85074   1.654  35.351  13.282
19815W        W85075  19.588  10.609   2.344
19816W        W85076  28.248  31.498  13.363
19817W        W85077  13.941  24.491  10.733
19818W        W85078  31.985  19.749   1.319
19819W        W85079   4.719   0.030   3.674
19820W        W85080  44.904  28.248  13.369
19821W        W85081  26.914   5.741  11.627
19822W        W85082   8.462  11.801   4.460
19823W        W85083   0.049   9.386  11.880
19824W        W85084  44.857  26.159  11.775
19825W        W85085   8.786  34.082  11.156
19826W        W85086  18.056  27.893   0.425
19827W        W85087  34.058  24.977  14.363
19828W        W85088  36.457  26.025  12.949
19829W        W85089  18.586  16.896   4.557
19830W        W85090  43.465   2.484  11.049
19831W        W85091  44.266  13.026   4.639
19832W        W85092   2.742  34.527  14.842
19833W        W85093  18.304  40.382   1.440
19834W        W85094  26.458  42.440   2.247
19835W        W85095   1.065  36.313   4.528
19836W        W85096  15.143  34.151  13.896
19837W        W85097  10.312  30.176  13.972
19838W        W85098  35.288  25.676   9.786
19839W        W85099  18.127  42.747   2.862
19840W        W85100  20.361  14.305  10.164
19841W        W85101  21.963  34.219   1.499
19842W        W85102  42.138  38.726   0.672
19843W        W85103  12.903  40.400   4.299
19844W        W85104   3.978  27.257   3.511
19845W        W85105  33.441  31.477  14.750
19846W        W85106   3.513  19.647   0.682
19847W        W85107  20.875  20.041   2.674
19848W        W85108  13.134  42.465  11.475
19849W        W85109   3.215  35.948  12.220
19850W        W85110  13.136  30.856   1.338
19851W        W85111  11.630  44.000  11.063
19852W        W85112  14.057  33.902  12.502
19853W        W85113  40.036  40.606  14.010
19854W        W85114  30.101  44.468  11.591
19855W        W85115   4.698   4.307   4.813
19856W        W85116  39.961  20.113   3.598
19857W        W85117  32.148  29.014  13.500
19858W        W85118  16.026   0.339   3.078
19859W        W85119  22.675  44.375   1.782
19860W        W85120   9.420   1.047   3.196
19861W        W85121   9.361  43.380   3.273
19862W        W85122  19.798  23.458   3.717
19863W        W85123  16.586  17.444  11.943
19864W        W85124  16.009  30.425  13.334
19865W        W85125  35.587  17.984   3.328
19866W        W85126  22.141   9.625   4.184
19867W        W85127   3.509  20.836   5.027
19868W        W85128  37.082  43.530  12.607
19869W        W85129  39.446  25.332   4.324
19870W        W85130  41.423  33.093  13.295
19871W        W85131  11.736  36.246  12.366
19872W        W85132  24.591  17.500  13.827
19873W        W85133  10.092   8.394   4.472
19874W        W85134  34.226  17.684  10.775
19875W        W85135  24.425  21.015  11.497
19876W        W85136  36.579  13.169   3.339
19877W        W85137  24.634   6.234   0.511
19878W        W85138  13.649   9.372   1.321
19879W        W85139   7.951  17.722  11.624
19880W        W85140  39.167  43.390   2.788
19881W        W85141  26.223   0.393  11.935
19882W        W85142  22.903  35.317   4.074
19883W        W85143  18.551  39.878  10.686
19884W        W85144   6.896   2.740   2.234
19885W        W85145  35.968   9.348  14.893
19886W        W85146  37.300  15.320  13.869
19887W        W85147   2.955  40.437  13.056
19888W        W85148  27.855  17.491   3.383
19889W        W85149   1.084  12.966  11.212
19890W        W85150  28.655  34.632   2.283
19891W        W85151  22.633   0.082   0.509
19892W        W85152  35.075  44.787   1.745
19893W        W85153  38.487   0.356  12.055
19894W        W85154  16.111  37.972  13.845
19895W        W85155  14.251  33.512  10.726
19896W        W85156  38.721  16.199   1.771
19897W        W85157  26.054   0.465   0.774
19898W        W85158  35.920  42.282  12.097
19899W        W85159  25.668  18.555  13.473
19900W        W85160   0.267  40.754   0.406
19901W        W85161  24.468  25.514  13.517
19902W        W85162  14.618  11.141   1.320
19903W        W85163  38.299   2.225  13.328
19904W        W85164  41.438   3.724  14.767
19905W        W85165  41.092  22.898  12.588
19906W        W85166  25.755  35.456  13.968
19907W        W85167  34.239  42.531   3.191
19908W        W85168  40.784  26.184  11.990
19909W        W85169   7.685  20.014  13.372
19910W        W85170  29.833  14.084   4.576
19911W        W85171  39.574  33.396   0.202
19912W        W85172  23.971  25.266   0.396
19913W        W85173  12.216   7.691  12.165
19914W        W85174  27.091  27.378   3.196
19915W        W85175  41.372  37.647  14.951
19916W        W85176  26.646  13.286   1.490
19917W        W85177  37.704  32.638  12.730
19918W        W85178  34.003  44.452  13.414
19919W        W85179   1.675  19.808   2.418
19920W        W85180  43.069  28.945   4.169
19921W        W85181  37.030  34.298   3.876
19922W        W85182  33.867  17.846  11.096
19923W        W85183  19.706  42.863  12.442
19924W        W85184  16.059  22.264   0.763
19925W        W85185   9.813  15.860  13.537
19926W        W85186  30.879  16.566   4.544
19927W        W85187  34.366  21.072   3.687
19928W        W85188  28.886  21.739  14.454
19929W        W85189  15.043  37.665  11.093
19930W        W85190  25.066   8.869  11.636
19931W        W85191  27.806  26.235  11.485
19932W        W85192  30.448  32.738  12.958
19933W        W85193  27.556  23.136  13.112
19934W        W85194  39.961   1.269  11.600
19935W        W85195  19.870  12.674   0.999
19936W        W85196  25.599   6.386   2.449
19937W        W85197  39.712  38.124   2.911
19938W        W85198  39.559   5.819  11.908
19939W        W85199  23.483  17.377   3.547
19940W        W85200   4.711   7.898  12.541
19941W        W85201  21.693  20.826   9.675
19942W        W85202  16.516  39.178   2.352
19943W        W85203   4.809  20.023  13.457
19944W        W85204  36.628  32.130   3.179
19945W        W85205   5.132   5.502  13.617
19946W        W85206  31.514   7.236   1.634
19947W        W85207  29.118  25.201  14.879
19948W        W85208   9.492  38.303  14.236
19949W        W85209   3.912  23.231  14.190
19950W        W85210  33.378  39.455   1.153
19951W        W85211   7.857  14.165  14.314
19952W        W85212  31.877  20.606  13.062
19953W        W85213  38.639  23.032  14.433
19954W        W85214  17.519  40.951  14.026
19955W        W85215  43.555  40.070   1.199
19956W        W85216  14.514   7.639  14.585
19957W        W85217  11.833  26.769   3.395
19958W        W85218  13.703  20.960   1.696
19959W        W85219  28.956  25.897   1.927
19960W        W85220  29.612  14.728   3.704
19961W        W85221  19.936  43.000  14.736
19962W        W85222  34.325  21.154   2.378
19963W        W85223  20.072   1.267  13.538
19964W        W85224  12.384  34.669  14.623
19965W        W85225  43.409  30.460  13.760
19966W        W85226  36.888  18.768   0.249
19967W        W85227   6.188  31.068   3.597
19968W        W85228   6.994  13.538   0.177
19969W        W85229  11.800   5.983  13.085
19970W        W85230  31.799  35.543  11.148
19971W        W85231  14.151  18.489  10.765
19972W        W85232  41.451  42.991   3.199
19973W        W85233  29.990  29.479   3.162
19974W        W85234  37.627   6.808  12.060
19975W        W85235  41.298  13.106  13.913
19976W        W85236  18.559  22.545  14.760
19977W        W85237  41.316  13.389  13.427
19978W        W85238   6.358  37.999  13.025
19979W        W85239  32.026  25.904  11.855
19980W        W85240  18.651  33.160  12.861
19981W        W85241  42.692  21.516  13.303
19982W        W85242   3.837  39.069   0.165
19983W        W85243  16.099  29.613  10.310
19984W        W85244  37.048  27.054  14.038
19985W        W85245   7.218  20.660   1.742
19986W        W85246  25.795   1.813   5.057
19987W        W85247  19.042  23.013  10.009
19988W        W85248  38.397  22.678  10.445
19989W        W85249  39.140  10.052  12.925
19990W        W85250  16.819   6.380   2.635
19991W        W85251  14.300  23.477   4.109
19992W        W85252  15.543  24.098   3.244
19993W        W85253  32.974   0.237  11.605
19994W        W85254  24.288  19.120   2.332
19995W        W85255  21.635  17.839   4.168
19996W        W85256   0.944  26.951   1.165
19997W        W85257  29.350  24.200  14.750
19998W        W85258   4.431  18.226  11.135
19999W        W85259  28.841   8.818   4.313
20000W        W85260  14.739  30.924   4.967
20001W        W85261  26.497   2.147   3.569
20002W        W85262  14.503  36.048  12.431
20003W        W85263  40.907  20.196   2.838
20004W        W85264  12.761  20.009  11.162
20005W        W85265  15.828   0.759   4.605
20006W        W85266  35.871  20.492   4.973
20007W        W85267  11.351  25.834   0.762
20008W        W85268  24.709  20.721  10.529
20009W        W85269   8.290  32.092   3.328
20010W        W85270  15.882  29.313   1.946
20011W        W85271  15.919  42.385  14.076
20012W        W85272  12.460  32.252  11.623
20013W        W85273  16.588  27.101  10.865
20014W        W85274   9.630   5.708   3.640
20015W        W85275  19.067   5.280   2.131
20016W        W85276  41.566  18.630  12.499
20017W        W85277  26.897  21.519   3.732
20018W        W85278  13.235  32.410  13.529
20019W        W85279   5.182   4.189  12.819
20020W        W85280   9.692  33.370  14.884
20021W        W85281  18.811   6.795   0.949
20022W        W85282  41.034  29.067   2.204
20023W        W85283  43.304  21.352   2.307
20024W        W85284  42.611  20.254   1.259
20025W        W85285  42.020   5.906  10.657
20026W        W85286  44.388  10.090   5.109
20027W        W85287  44.758  16.721   4.352
20028W        W85288  24.396  33.260  11.629
20029W        W85289  16.588  28.171  13.276
20030W        W85290  40.601  40.483  12.148
20031W        W85291  27.152   9.453   1.118
20032W        W85292  24.841  19.817  10.719
20033W        W85293  12.162  22.605  13.920
20034W        W85294  44.281   7.290   3.223
20035W        W85295  22.285  21.092  12.458
20036W        W85296  36.140  44.278  11.140
20037W        W85297  40.282  10.620   0.470
20038W        W85298   0.021  21.028   4.063
20039W        W85299  22.204   8.260   3.876
20040W        W85300  20.498   8.870  13.452
20041W        W85301  21.281  33.687  14.499
20042W        W85302  42.536   7.839  14.263
20043W        W85303  39.307  30.885  13.926
20044W        W85304   5.756  21.282  10.737
20045W        W85305   0.049  21.442   0.939
20046W        W85306   3.736   4.992   2.170
20047W        W85307  20.288  23.828   0.853
20048W        W85308  31.259  37.594  13.496
20049W        W85309  42.020   0.508   1.889
20050W        W85310  41.092  42.320   4.238
20051W        W85311  23.973  38.038   3.177
20052W        W85312  21.560   7.641  14.851
20053W        W85313  16.454  31.080  12.476
20054W        W85314   0.337  18.838   3.656
20055W        W85315  19.212  19.612  14.566
20056W        W85316  40.632  15.768   2.266
20057W        W85317  13.075  44.043   1.541
20058W        W85318  25.237  21.172   1.806
20059W        W85319   4.974  26.197   3.533
20060W        W85320  35.531  14.178  12.848
20061W        W85321  36.017  32.456   2.388
20062W        W85322  35.915   9.674  14.071
20063W        W85323  23.643  28.037  13.535
20064W        W85324  33.027  10.315   3.652
20065W        W85325  38.834  32.704  13.640
20066W        W85326  38.364  15.728   0.403
20067W        W85327  18.942  14.138   4.803
20068W        W85328  17.321  13.827  13.582
20069W        W85329   6.894  42.199  10.684
20070W        W85330  32.431  24.689  12.409
20071W        W85331  15.332  30.054  10.750
20072W        W85332  29.480   5.178  14.229
20073W        W85333  35.921  33.325  14.048
20074W        W85334   5.467  35.365   0.968
20075W        W85335   0.287  41.348  10.775
20076W        W85336  41.870  41.921  14.452
20077W        W85337  21.089  24.888   2.454
20078W        W85338  24.163  14.759  12.437
20079W        W85339  36.480  23.651   2.170
20080W        W85340  14.248  27.246   0.872
20081W        W85341  13.685   4.460  12.408
20082W        W85342  27.323  38.322   0.826
20083W        W85343  43.968  12.563   2.580
20084W        W85344  30.158  26.717  10.241
20085W        W85345  17.115  25.481   4.611
20086W        W85346  44.051  10.321   1.568
20087W        W85347  22.769  14.256   2.190
20088W        W85348  40.350  25.020  12.473
20089W        W85349  11.897  29.356   1.674
20090W        W85350  25.523   8.680   1.303
20091W        W85351  13.275  24.329   5.044
20092W        W85352  25.507   3.914   0.855
20093W        W85353  39.236  16.142   4.982
20094W        W85354  21.870   6.374  11.053
20095W        W85355  28.421  26.930   3.603
20096W        W85356   2.663   8.194   0.649
20097W        W85357  22.637  15.545   4.143
20098W        W85358  25.697  17.496   3.714
20099W        W85359  37.289   9.342   4.514
20100W        W85360  14.662  14.260  11.514
20101W        W85361  15.299  36.347   1.385
20102W        W85362  24.695   5.028  12.720
20103W        W85363  13.100  25.960  14.420
20104W        W85364  32.021   4.443  12.372
20105W        W85365  40.611  32.002   1.689
20106W        W85366  42.813  14.304   0.310
20107W        W85367  33.579   5.521   0.276
20108W        W85368  29.479  15.826  14.090
20109W        W85369  10.532  44.421  13.590
20110W        W85370  18.670  33.644   3.790
20111W        W85371  15.224  11.345   3.742
20112W        W85372  35.597  36.676   2.807
20113W        W85373  18.556  34.540   2.650
20114W        W85374  13.950  43.917  12.499
20115W        W85375  21.836  23.416   1.154
20116W        W85376  33.056  39.360   0.018
20117W        W85377   5.209  44.915   3.728
20118W        W85378  23.847  12.628  11.141
20119W        W85379  18.826   3.543   3.310
20120W        W85380  29.698   6.753   1.164
20121W        W85381  42.262  41.375   2.726
20122W        W85382  30.396  41.891   1.495
20123W        W85383  20.861  24.078   3.166
20124W        W85384  29.743  43.971  13.889
20125W        W85385  18.212  20.228   1.480
20126W        W85386  15.857  16.547  14.514
20127W        W85387  43.194  27.593   4.595
20128W        W85388  44.552  17.591  12.448
20129W        W85389  11.679  19.502   0.176
20130W        W85390  12.180  20.548   4.594
20131W        W85391  29.397  42.257  12.166
20132W        W85392  38.356  35.916   1.827
20133W        W85393  41.798  17.574  14.894
20134W        W85394   0.895  10.605  12.889
20135W        W85395  35.803  38.841  13.851
20136W        W85396  34.834   1.018   2.379
20137W        W85397   4.692  14.627   0.755
20138W        W85398   9.402  41.087  13.463
20139W        W85399  17.872  11.210  14.907
20140W        W85400   0.733  13.065   0.098
20141W        W85401  21.445  30.141   4.605
20142W        W85402  36.502  32.538   2.234
20143W        W85403  30.187  16.084  11.140
20144W        W85404   1.226  10.130  11.184
20145W        W85405  29.619   5.445   4.375
20146W        W85406  27.617  41.945  13.449
20147W        W85407  41.402  20.455   1.791
20148W        W85408  16.070  37.355  13.343
20149W        W85409  42.936  44.436  14.316
20150W        W85410  20.120  29.458  12.575
20151W        W85411  37.381  30.070   0.321
20152W        W85412  10.873   0.018  14.711
20153W        W85413   1.233  33.976   2.687
20154W        W85414  41.060  34.565  12.659
20155W        W85415  29.920  11.781  13.027
20156W        W85416   3.657   6.251  14.233
20157W        W85417  15.514  26.047   0.672
20158W        W85418  26.383  25.373   3.272
20159W        W85419  23.600  24.262   1.621
20160W        W85420   3.329  36.606   2.276
20161W        W85421   4.121   6.873  13.595
20162W        W85422  37.020  35.458   0.719
20163W        W85423   7.915   0.369  11.615
20164W        W85424  37.606  31.151  14.366
20165W        W85425  41.443  22.339  11.557
20166W        W85426   0.763   2.186  10.883
20167W        W85427  29.322  31.767   4.278
20168W        W85428  38.003   3.715   1.337
20169W        W85429  29.367  30.375   1.869
20170W        W85430  32.819   0.042  10.631
20171W        W85431  17.633  31.935   4.405
20172W        W85432  14.528  27.286   1.799
20173W        W85433  19.687  11.608  13.467
20174W        W85434  32.735   8.192  12.568
20175W        W85435  29.911  37.376   3.603
20176W        W85436   7.881  39.566   4.291
20177W        W85437  34.017  22.584   3.717
20178W        W85438  38.393  32.459   1.943
20179W        W85439  25.819  24.608  12.561
20180W        W85440  25.545  37.636  10.567
20181W        W85441  17.703  24.035  14.964
20182W        W85442  23.167  33.337   4.866
20183W        W85443  32.834  41.929   0.735
20184W        W85444   4.019  13.221  11.209
20185W        W85445  19.011  18.517  11.899
20186W        W85446   7.004  44.091  11.968
20187W        W85447   8.826  31.515   3.840
20188W        W85448  27.109  38.821  14.862
20189W        W85449  38.481  40.976   1.376
20190W        W85450  11.336  32.681   1.484
20191W        W85451  41.704  28.583   4.150
20192W        W85452   6.996  38.596  11.217
20193W        W85453   7.947  24.933   4.098
20194W        W85454  28.210  13.375   3.017
20195W        W85455   8.874  18.203  13.514
20196W        W85456  19.694  21.110   3.058
20197W        W85457  18.398  30.224   0.171
20198W        W85458  24.928   5.369   0.777
20199W        W85459  16.067  17.823   0.782
20200W        W85460  17.939  30.563  13.857
20201W        W85461  16.791  41.450  10.532
20202W        W85462   2.945  34.517  12.839
20203W        W85463   0.402   1.041  14.459
20204W        W85464  21.259   6.692   4.471
20205W        W85465  20.079  40.051   1.372
20206W        W85466  33.480  13.909  11.224
20207W        W85467  14.854   1.839   2.351
20208W        W85468  24.354  26.733  13.515
20209W        W85469  21.748   0.640   3.271
20210W        W85470   7.593  40.469  12.558
20211W        W85471  18.580  28.522  11.915
20212W        W85472  43.381   3.568   4.090
20213W        W85473  23.143  44.522  10.401
20214W        W85474  37.971  41.943   2.368
20215W        W85475  19.744   1.467  12.905
20216W        W85476   1.836  20.528   3.183
20217W        W85477  42.964  44.498   3.641
20218W        W85478  37.754  21.929  14.706
20219W        W85479   5.725   7.118  10.675
20220W        W85480  14.134  33.055  10.977
20221W        W85481  44.284   8.774  14.687
20222W        W85482  24.969  20.661   3.201
20223W        W85483  33.860  38.369  12.775
20224W        W85484   5.716  10.358  13.784
20225W        W85485   5.090  17.997   1.728
20226W        W85486  31.630  16.808   0.860
20227W        W85487   6.292  30.000   2.725
20228W        W85488  35.511   1.283   1.170
20229W        W85489  40.922  38.053   1.481
20230W        W85490  16.240  27.454   4.075
20231W        W85491   1.852  11.613  13.427
20232W        W85492  22.758  21.602   1.847
20233W        W85493  37.448  39.095  13.691
20234W        W85494  11.637  19.791   0.658
20235W        W85495  21.253  11.106   3.358
20236W        W85496  17.702  13.079  10.747
20237W        W85497  35.635  25.910  14.368
20238W        W85498  18.202   6.862   1.823
20239W        W85499  40.348  29.663  12.300
20240W        W85500   6.373  42.082  14.254
20241W        W85501  24.975   6.845   1.546
20242W        W85502  27.963  15.304   2.352
20243W        W85503  36.003  29.637  13.389
20244W        W85504  19.082  19.928   1.337
20245W        W85505   0.932  21.671   4.631
20246W        W85506  18.661   0.469   0.001
20247W        W85507  25.979  39.336  13.977
20248W        W85508  34.358  36.642  12.763
20249W        W85509  36.770  28.949   3.709
20250W        W85510  40.269  18.311  14.940
20251W        W85511  27.536  15.015  11.747
20252W        W85512  39.412  32.422   1.948
20253W        W85513  20.271  19.126  10.011
20254W        W85514  39.057  35.240   2.829
20255W        W85515   2.414   5.655   4.560
20256W        W85516   3.503  31.004   1.269
20257W        W85517  23.759  25.128   4.688
20258W        W85518  37.020   4.750   2.224
20259W        W85519   8.690   9.965  14.805
20260W        W85520  32.108  44.430  13.064
20261W        W85521  43.080  41.330  11.402
20262W        W85522  43.250  35.634   3.730
20263W        W85523  22.301  11.350   1.472
20264W        W85524  27.811  35.002   3.707
20265W        W85525  29.435  22.052  10.740
20266W        W85526  17.177  36.987   2.096
20267W        W85527  38.292  16.829  14.137
20268W        W85528  39.601  15.760  11.082
20269W        W85529  39.935   8.408  13.699
20270W        W85530  28.530  40.621  14.326
20271W        W85531   3.240  17.182  14.918
20272W        W85532  12.627   8.518   3.667
20273W        W85533  24.999  40.728  12.516
20274W        W85534  22.615   4.643  13.698
20275W        W85535  34.360   3.764   0.428
20276W        W85536   7.345   2.191  11.061
20277W        W85537  12.160   5.700  13.446
20278W        W85538   4.387  36.630   0.874
20279W        W85539   6.457  41.496  10.709
20280W        W85540  40.210  23.388   5.119
20281W        W85541  34.433  40.984  10.895
20282W        W85542  32.426  37.657  13.967
20283W        W85543   2.195   8.729  13.966
20284W        W85544   3.143  20.573   1.608
20285W        W85545  42.650  11.260  13.930
20286W        W85546   4.333  10.136  14.053
20287W        W85547  26.135  24.162  14.980
20288W        W85548  33.607  34.222   1.471
20289W        W85549   0.624   6.481   0.370
20290W        W85550   5.863  42.517   2.801
20291W        W85551  40.450  42.517   1.971
20292W        W85552  39.605  27.040  10.831
20293W        W85553   5.135   5.444   3.581
20294W        W85554  20.031  35.415  14.524
20295W        W85555   8.439  17.341  12.616
20296W        W85556  25.687  27.147  13.856
20297W        W85557  18.007   9.122  12.613
20298W        W85558  42.517  31.987   1.825
20299W        W85559  10.416  35.554   2.612
20300W        W85560   1.100  31.248  14.053
20301W        W85561   7.157  31.596   2.102
20302W        W85562  40.010   9.712   4.164
20303W        W85563   1.568  19.903  14.691
20304W        W85564  37.057  38.407   2.769
20305W        W85565   3.266   1.317   3.556
20306W        W85566  22.896  22.605  11.651
20307W        W85567  19.515  41.184  11.069
20308W        W85568  33.202  19.575   0.214
20309W        W85569  39.407  21.534   3.886
20310W        W85570  34.728  22.722   1.945
20311W        W85571   0.391  20.821  14.745
20312W        W85572   3.494  43.458  12.073
20313W        W85573  42.829   4.460   2.183
20314W        W85574   5.187   6.918   0.243
20315W        W85575   3.358   8.857  13.456
20316W        W85576  39.792  20.768  14.413
20317W        W85577  34.733   3.510   4.688
20318W        W85578  32.395  13.375   2.753
20319W        W85579  16.555  30.721  11.063
20320W        W85580  44.148  38.475   0.101
20321W        W85581   4.790  23.113  14.221
20322W        W85582  24.495  29.370   4.250
20323W        W85583  26.104  27.549   3.173
20324W        W85584  25.155   4.175  13.911
20325W        W85585   9.864  18.054   2.194
20326W        W85586   8.686  37.524  12.526
20327W        W85587   3.394  18.623   1.226
20328W        W85588  23.238  41.042   4.883
20329W        W85589  33.473  36.879  13.575
20330W        W85590  21.074  41.499   4.550
20331W        W85591  23.964  10.389  10.164
20332W        W85592  11.788  26.266   3.500
20333W        W85593  37.278  29.900  11.635
20334W        W85594  40.730   7.936   4.394
20335W        W85595  38.014   2.001   1.825
20336W        W85596  37.457  26.674   0.776
20337W        W85597  39.005   3.229  12.411
20338W        W85598  18.526  25.789   1.378
20339W        W85599  17.816  33.603   3.681
20340W        W85600  26.895  44.444   0.453
20341W        W85601  38.394  23.483   1.140
20342W        W85602  35.051  31.659   3.210
20343W        W85603  13.288  37.751  12.018
20344W        W85604  16.706  40.500   2.675
20345W        W85605   6.694   3.452  11.577
20346W        W85606  18.971  30.912   1.247
20347W        W85607  38.603  21.535   1.463
20348W        W85608  29.434  13.807  11.527
20349W        W85609  28.405   8.431  12.889
20350W        W85610   6.592  17.894   1.681
20351W        W85611  30.616  32.328  11.701
20352W        W85612  34.428   8.220  14.389
20353W        W85613  27.141  27.993  12.152
20354W        W85614  33.018  21.629  13.867
20355W        W85615   1.164   1.258   1.949
20356W        W85616  26.273  21.100  12.784
20357W        W85617  21.226  17.283   3.673
20358W        W85618  37.401  22.683  12.502
20359W        W85619  20.785   1.062   1.151
20360W        W85620  24.576  28.113  11.958
20361W        W85621  10.948  35.613   3.729
20362W        W85622  39.436  17.271  12.015
20363W        W85623  39.081   8.815   4.707
20364W        W85624  31.852  14.609   2.449
20365W        W85625   9.458   1.149   4.062
20366W        W85626  37.343  16.124  10.872
20367W        W85627   8.743  16.084  12.150
20368W        W85628  20.282  29.054  11.202
20369W        W85629  33.448  11.092  11.570
20370W        W85630  30.434  38.118  12.035
20371W        W85631  22.774  20.135  12.447
20372W        W85632   7.399  32.276  11.189
20373W        W85633  32.065  14.048   0.684
20374W        W85634  44.636  38.414  13.694
20375W        W85635  12.558  38.016  10.762
20376W        W85636  29.588   7.087   3.370
20377W        W85637  16.755   4.358   0.539
20378W        W85638  28.045  16.038   1.599
20379W        W85639  34.401  38.520  10.900
20380W        W85640  26.679  34.032  14.815
20381W        W85641  38.646  37.979   2.290
20382W        W85642  31.920   9.253  14.583
20383W        W85643  34.448  13.829   0.434
20384W        W85644  19.667  15.395   1.217
20385W        W85645   7.163  27.846   1.394
20386W        W85646  38.356  16.103   3.081
20387W        W85647  41.959  31.441   1.041
20388W        W85648  12.270  39.414  14.469
20389W        W85649  33.651  14.378   2.280
20390W        W85650  36.885   9.340   1.794
20391W        W85651   1.435  21.553   4.785
20392W        W85652   9.067  35.739   2.733
20393W        W85653  12.681  38.933   3.146
20394W        W85654  11.118  22.673   0.929
20395W        W85655  40.273  32.112   2.126
20396W        W85656   7.124  43.578   4.770
20397W        W85657  26.653  43.317  11.902
20398W        W85658   2.717  12.819   2.787
20399W        W85659   6.968   5.896   0.726
20400W        W85660   0.211  34.370   2.325
20401W        W85661   9.418  12.953  13.829
20402W        W85662  40.105  42.407  10.803
20403W        W85663  24.494  15.814   0.943
20404W        W85664   9.471   4.307   3.681
20405W        W85665  44.238  30.957   0.748
20406W        W85666  37.595  22.660   3.584
20407W        W85667  12.242  19.977   4.466
20408W        W85668   7.438  18.094   0.869
20409W        W85669   9.224   0.306   1.428
20410W        W85670   2.923  41.692   4.741
20411W        W85671   2.090  10.263  11.073
20412W        W85672  35.992  44.939  14.219
20413W        W85673   3.363  14.538   5.106
20414W        W85674  22.400  35.441  14.395
20415W        W85675  23.579   3.363  10.822
20416W        W85676  19.431  16.649  11.034
20417W        W85677  19.019  30.154  10.583
20418W        W85678  20.171  10.888   3.209
20419W        W85679  17.582  28.485   3.116
20420W        W85680  39.044  10.572  11.138
20421W        W85681  20.563  40.872  11.181
20422W        W85682   8.381  14.923  14.342
20423W        W85683  20.149   8.655   5.403
20424W        W85684  30.433   8.378   3.627
20425W        W85685  25.024  38.992   2.434
20426W        W85686  28.258   3.941   4.282
20427W        W85687  11.238  22.331   1.992
20428W        W85688  12.215  23.655  14.069
20429W        W85689   8.876  21.980  10.765
20430W        W85690  37.509  27.988   4.170
20431W        W85691  33.965  21.127  13.064
20432W        W85692  38.022  11.429  14.361
20433W        W85693  17.217  33.361  11.040
20434W        W85694  24.728  16.335   0.897
20435W        W85695  29.595  32.584   0.383
20436W        W85696  21.496  17.616   1.897
20437W        W85697  10.868  17.798  13.898
20438W        W85698  39.085  36.579  13.892
20439W        W85699  42.803  38.982  13.247
20440W        W85700  17.434  33.052   3.223
20441W        W85701  41.800  35.046  12.960
20442W        W85702  14.382  23.178  14.488
20443W        W85703  39.607  37.347   4.536
20444W        W85704   0.812  30.235  11.599
20445W        W85705  26.996   0.217  14.320
20446W        W85706  13.702  27.105   0.938
20447W        W85707  25.525   7.194   0.303
20448W        W85708  20.707  31.358   3.425
20449W        W85709  43.595  20.472  14.765
20450W        W85710  34.562  30.578   2.487
20451W        W85711  16.169   4.458   4.885
20452W        W85712  44.835  18.650  11.921
20453W        W85713  44.533   4.847   4.248
20454W        W85714  14.161  13.387   0.485
20455W        W85715  39.372  30.610  14.342
20456W        W85716  17.816  21.544  14.381
20457W        W85717  23.039  39.046  11.473
20458W        W85718   6.207   5.881  11.134
20459W        W85719  36.161  39.967   1.321
20460W        W85720  33.984  18.441   2.096
20461W        W85721  13.635   3.408   0.952
20462W        W85722  14.719   6.906   3.707
20463W        W85723  34.506   4.176   3.177
20464W        W85724  30.854   2.770   0.329
20465W        W85725  32.471   8.840   4.122
20466W        W85726  40.494   9.126  13.519
20467W        W85727  18.637  10.776   3.518
20468W        W85728  13.375  37.408   4.539
20469W        W85729  13.925  44.985  13.792
20470W        W85730  39.968   0.290  13.323
20471W        W85731  40.460  19.947  13.033
20472W        W85732   4.043  20.461   4.099
20473W        W85733  23.998  31.128   1.681
20474W        W85734  24.967  41.246  12.503
20475W        W85735  33.226   5.844  13.894
20476W        W85736  41.715  10.918  10.589
20477W        W85737  17.291  40.314   4.309
20478W        W85738   4.685  38.430  14.422
20479W        W85739  32.618  38.443  10.636
20480W        W85740  18.653  25.479   0.453
20481W        W85741   1.831  21.525  10.612
20482W        W85742  20.949  32.006   1.360
20483W        W85743  10.070  12.343   1.763
20484W        W85744  14.475   7.826  12.779
20485W        W85745  38.511  27.409  13.377
20486W        W85746  17.642  33.334  12.077
20487W        W85747  16.727   4.893  14.830
20488W        W85748  20.691  21.810  10.700
20489W        W85749   9.875  44.029  12.357
20490W        W85750   7.645  31.051   1.761
20491W        W85751  24.761  12.624   1.509
20492W        W85752  43.051  40.503  11.042
20493W        W85753   9.382  24.051   1.431
20494W        W85754   1.189  41.854   4.344
20495W        W85755  29.137  30.495   3.173
20496W        W85756  10.748  38.079   4.329
20497W        W85757  13.814  26.163   0.934
20498W        W85758  35.651  40.568   1.089
20499W        W85759  32.158  18.397   1.799
20500W        W85760  28.689  10.168  10.494
20501W        W85761   5.241  37.913  13.789
20502W        W85762  24.296  18.062   1.681
20503W        W85763  26.975  23.468   2.422
20504W        W85764  24.243  38.415  11.508
20505W        W85765   2.893  36.337   4.133
20506W        W85766   8.573  37.392   1.320
20507W        W85767  20.003  37.516   4.595
20508W        W85768  39.832  24.278  10.711
20509W        W85769  21.480  30.062  12.867
20510W        W85770   7.043   1.480  13.089
20511W        W85771  42.528  37.607   2.710
20512W        W85772   6.544  14.157  14.479
20513W        W85773  20.542  19.672   2.892
20514W        W85774  39.234   2.159   0.427
20515W        W85775   1.290  21.186  11.202
20516W        W85776  23.193   9.784   1.699
20517W        W85777  43.858  24.642  11.520
20518W        W85778  40.324  20.023  10.681
20519W        W85779  42.345  16.207   1.486
20520W        W85780  42.244  22.702  13.839
20521W        W85781   2.804  39.094   0.772
20522W        W85782  27.821  21.649  12.840
20523W        W85783   4.324  43.258  14.785
20524W        W85784  43.280  38.508  12.557
20525W        W85785   0.381  35.028  10.795
20526W        W85786  10.107  28.235   2.454
20527W        W85787  42.500  32.355  10.540
20528W        W85788  32.573  18.849   5.290
20529W        W85789   9.867  18.876  10.634
20530W        W85790   2.400  25.958   3.121
20531W        W85791  19.979  33.002  13.824
20532W        W85792  34.544   9.362   2.377
20533W        W85793   1.356  33.377  11.890
20534W        W85794  15.463  30.380  14.226
20535W        W85795  35.444  20.731   2.719
20536W        W85796   8.551  27.557   1.541
20537W        W85797  41.511  33.238  10.486
20538W        W85798  18.793  20.693  10.962
20539W        W85799  20.062  23.614   5.043
20540W        W85800  19.391  40.970   3.742
20541W        W85801  22.921  39.861  13.112
20542W        W85802  17.340   4.327  14.391
20543W        W85803  14.073  24.108  12.064
20544W        W85804  23.076  24.517  14.804
20545W        W85805   8.760   2.259   1.195
20546W        W85806   1.457   5.796   1.887
20547W        W85807  16.305   3.899  14.963
20548W        W85808   4.320  13.252   0.903
20549W        W85809  34.061  19.079   2.782
20550W        W85810  23.049   7.920   3.791
20551W        W85811  34.086  43.649  13.977
20552W        W85812  40.834  31.759   0.188
20553W        W85813  38.827  39.803  11.490
20554W        W85814  17.823   2.554   0.889
20555W        W85815  15.615  17.614   0.605
20556W        W85816  20.399  42.983  13.207
20557W        W85817  43.931  42.240   1.256
20558W        W85818  26.812  31.946   1.438
20559W        W85819   1.044  10.433  14.909
20560W        W85820  36.446  12.354   0.839
20561W        W85821   2.926  17.488   1.897
20562W        W85822  25.309  26.380   2.290
20563W        W85823  28.941  31.809   2.892
20564W        W85824  16.711  40.493   3.217
20565W        W85825  16.290  10.793   2.885
20566W        W85826  11.402  39.864   3.988
20567W        W85827   1.326  21.482  10.401
20568W        W85828   5.874  40.452   4.647
20569W        W85829   9.865  11.774   2.314
20570W        W85830  21.696  25.688   3.643
20571W        W85831  30.910  38.328  12.031
20572W        W85832  24.132   7.633   2.632
20573W        W85833   8.823  22.494  12.731
20574W        W85834  32.077  10.106   1.322
20575W        W85835  36.816  13.666  12.047
20576W        W85836   5.960  38.379  12.954
20577W        W85837  31.355  16.258   4.195
20578W        W85838  34.874  42.222   2.764
20579W        W85839  44.349  19.879  11.440
20580W        W85840  22.352   9.775   4.630
20581W        W85841  23.687  15.171   4.249
20582W        W85842   9.262  11.908   1.673
20583W        W85843  26.647  21.949  11.451
20584W        W85844  38.455  28.578  11.761
20585W        W85845   1.461   6.315   4.073
20586W        W85846  31.143   8.417   1.411
20587W        W85847  38.109  35.774  11.578
20588W        W85848   0.614  36.804   3.763
20589W        W85849  12.337  22.290   1.818
20590W        W85850  23.007  19.676  12.785
20591W        W85851  26.579  40.970  12.443
20592W        W85852  40.582  14.929  11.597
20593W        W85853  23.180  35.765   2.806
20594W        W85854  39.535   1.142   3.119
20595W        W85855   5.176  16.317  11.135
20596W        W85856  23.183  23.733   0.254
20597W        W85857  18.518  39.542  11.481
20598W        W85858  25.077   6.994   2.801
20599W        W85859  41.496  23.408  13.408
20600W        W85860  30.480  28.600  13.421
20601W        W85861  17.952  20.611   2.111
20602W        W85862  29.785  23.540  10.765
20603W        W85863  21.998  24.482   5.076
20604W        W85864   9.393  17.222  12.080
20605W        W85865  32.439  12.138   1.890
20606W        W85866  24.174  20.589  14.088
20607W        W85867  26.446  39.821  13.925
20608W        W85868  42.326   1.688  10.600
20609W        W85869   8.909   4.477  14.949
20610W        W85870   2.825  27.870   2.878
20611W        W85871  16.599  16.937   3.698
20612W        W85872  22.658  12.271   2.459
20613W        W85873  17.254  21.131   2.492
20614W        W85874   8.052   0.857   1.575
20615W        W85875  30.523   9.281  12.090
20616W        W85876   3.705  43.096   2.461
20617W        W85877  41.318  20.937  12.628
20618W        W85878   1.427   0.254  13.564
20619W        W85879  33.083  28.073  14.087
20620W        W85880   4.500  44.893  11.255
20621W        W85881  37.342  23.693   2.110
20622W        W85882   1.917  19.585  14.476
20623W        W85883  30.176  24.097   1.892
20624W        W85884  30.511   9.654  12.486
20625W        W85885  15.237  18.468   3.188
20626W        W85886  11.622  14.634   4.871
20627W        W85887  30.871  37.957  14.819
20628W        W85888  26.663  17.629   2.777
20629W        W85889   4.054  28.524   4.659
20630W        W85890   9.636   6.768  10.955
20631W        W85891  11.629   8.765   0.803
20632W        W85892  17.413  10.208   2.173
20633W        W85893  20.734   3.216   3.602
20634W        W85894  43.534   9.329   2.401
20635W        W85895  42.736  23.143  10.541
20636W        W85896  22.114   5.886   0.797
20637W        W85897  35.907  39.106  11.582
20638W        W85898  11.418   7.256   1.760
20639W        W85899  40.382   2.871   1.165
20640W        W85900  28.411  10.236  10.951
20641W        W85901  40.452   1.963  10.945
20642W        W85902  40.825   4.167   1.260
20643W        W85903  44.730  31.553  10.489
20644W        W85904  24.224  13.743   5.044
20645W        W85905   3.948  17.100  10.686
20646W        W85906  25.204   8.887   2.867
20647W        W85907  30.080  33.418   1.726
20648W        W85908  27.478  17.615  11.649
20649W        W85909  11.779  26.868  12.471
20650W        W85910  43.263  11.302  13.358
20651W        W85911  17.078  30.437   0.820
20652W        W85912   1.699  41.777  11.133
20653W        W85913   8.412  40.482  12.620
20654W        W85914   3.512  10.253  10.680
20655W        W85915  36.375  36.558  12.925
20656W        W85916  39.399  41.740  14.567
20657W        W85917  33.853  43.806   4.096
20658W        W85918  18.163   5.449  13.291
20659W        W85919  42.209  32.938   0.461
20660W        W85920  17.337  21.758   4.143
20661W        W85921  10.899   4.794  14.033
20662W        W85922   4.726  21.687   3.151
20663W        W85923  23.128  28.179  12.086
20664W        W85924   7.742  44.967   2.669
20665W        W85925  43.647  30.465   0.075
20666W        W85926  26.141  22.955   1.926
20667W        W85927  33.049  37.253   3.708
20668W        W85928  12.800  25.445   1.244
20669W        W85929  12.031  21.200   2.284
20670W        W85930  21.385  42.843  10.199
20671W        W85931  33.176  37.654  11.470
20672W        W85932   9.729  10.896   3.766
20673W        W85933  10.639   1.291   2.666
20674W        W85934  29.669   5.916  12.400
20675W        W85935   6.730  38.767   4.901
20676W        W85936  24.625  10.947   4.664
20677W        W85937  43.508   6.849   0.703
20678W        W85938  15.396  24.552   2.676
20679W        W85939  36.584   0.403   0.469
20680W        W85940  26.765  17.233   1.890
20681W        W85941   1.531  16.802  13.436
20682W        W85942  14.519  21.054   1.615
20683W        W85943  15.538  32.941  10.754
20684W        W85944  27.826  23.540  14.110
20685W        W85945  35.951  22.060   1.882
20686W        W85946  19.609  12.206   3.338
20687W        W85947  37.457  42.031  13.741
20688W        W85948  15.628  20.084   5.307
20689W        W85949  20.011   2.161   3.239
20690W        W85950   5.908  23.442   2.867
20691W        W85951  21.938  30.827  12.067
20692W        W85952  44.387  34.534   4.688
20693W        W85953   4.639  30.524  11.432
20694W        W85954  44.042  43.539   1.714
20695W        W85955  12.336  27.152  13.538
20696W        W85956  29.575  26.921  11.958
20697W        W85957   2.766  32.592   1.669
20698W        W85958  30.521  15.111   5.121
20699W        W85959  38.028  15.685  14.930
20700W        W85960  20.599  11.596  11.355
20701W        W85961  34.990  36.304   4.146
20702W        W85962  26.001  31.920  11.084
20703W        W85963  35.960   3.372  13.883
20704W        W85964  44.375  28.277  12.125
20705W        W85965  30.032   0.769   3.677
20706W        W85966  13.290  11.662  12.450
20707W        W85967  42.274  44.004  10.622
20708W        W85968  34.780  31.559   2.781
20709W        W85969  16.154  43.615  13.792
20710W        W85970  20.130   9.195   4.712
20711W        W85971  18.572  11.891  11.576
20712W        W85972  39.292  26.202   4.158
20713W        W85973  40.502  17.554   1.989
20714W        W85974   0.779  26.651  14.421
20715W        W85975  36.669  44.252   2.644
20716W        W85976  27.084  24.371  11.104
20717W        W85977   1.139  34.120   4.109
20718W        W85978  23.708   3.256  12.136
20719W        W85979  17.552  40.824   0.862
20720W        W85980  37.302  27.561   4.526
20721W        W85981  11.350  42.816   3.653
20722W        W85982  27.940  37.238  12.412
20723W        W85983  13.749   4.767   2.165
20724W        W85984  21.495  36.017   3.631
20725W        W85985   7.730  36.790   1.242
20726W        W85986  12.976   2.380   3.729
20727W        W85987  16.154  35.470  14.400
20728W        W85988  35.034  29.085   3.145
20729W        W85989   9.836  43.357  12.163
20730W        W85990  17.313   2.972  11.663
20731W        W85991   0.348  34.902   3.561
20732W        W85992  20.914  36.892   4.653
20733W        W85993  24.911  33.317  11.606
20734W        W85994   4.954  13.123  11.508
20735W        W85995  36.493   5.311  11.990
20736W        W85996  18.394  27.002   2.957
20737W        W85997  17.047  19.294   0.786
20738W        W85998  22.659  16.202  12.125
20739W        W85999  29.510   9.611  14.525
20740W        W86000  24.115  31.268   3.400
20741W        W86001  19.928  37.953  10.199
20742W        W86002  14.791  12.387   1.272
20743W        W86003  28.594  29.008  10.428
20744W        W86004  10.499  11.368  14.901
20745W        W86005  31.234   1.848   2.701
20746W        W86006  17.748  21.386   4.878
20747W        W86007   2.270   1.719   1.307
20748W        W86008  35.080  38.777   3.201
20749W        W86009  34.732  27.519   0.793
20750W        W86010   0.664  38.996   1.301
20751W        W86011  38.828  29.587   4.318
20752W        W86012  13.874   8.177   1.693
20753W        W86013  23.552  37.389  14.406
20754W        W86014  30.152  31.436   0.360
20755W        W86015  31.072  25.188  14.083
20756W        W86016   3.829   1.548  14.926
20757W        W86017  13.172  29.754  11.179
20758W        W86018   6.395  27.226   3.268
20759W        W86019   8.880  10.193  12.018
20760W        W86020   9.096  10.015   9.803
20761W        W86021  30.078  10.222   2.920
20762W        W86022  32.555  27.356   1.639
20763W        W86023  15.075   2.149  11.146
20764W        W86024  44.769  41.456  14.744
20765W        W86025  26.074   4.334  14.451
20766W        W86026  25.274   4.379   0.739
20767W        W86027   3.413  36.040   2.033
20768W        W86028  44.504  28.955  13.636
20769W        W86029  11.165  13.658   4.030
20770W        W86030  38.600  38.112   1.440
20771W        W86031  17.574  35.037  10.364
20772W        W86032  39.765  32.105   3.275
20773W        W86033  21.439  27.439   2.272
20774W        W86034  42.039  17.465   1.268
20775W        W86035   2.403   7.228  12.594
20776W        W86036  33.427   4.251  12.657
20777W        W86037   4.196  18.747  14.320
20778W        W86038  32.174  41.616   3.345
20779W        W86039  34.621   6.211  11.550
20780W        W86040   3.259   7.653  11.567
20781W        W86041  37.963  24.506   4.766
20782W        W86042  42.266  11.891   1.927
20783W        W86043  21.308  13.795  13.890
20784W        W86044  36.983   4.676  10.551
20785W        W86045  27.748  34.525   3.526
20786W        W86046  12.070   9.801   5.140
20787W        W86047  33.288   2.522   1.238
20788W        W86048  23.133  34.375  12.474
20789W        W86049  37.322   1.447  14.380
20790W        W86050  25.741  29.604   3.673
20791W        W86051  18.575  11.812   4.042
20792W        W86052   6.981   6.695  12.260
20793W        W86053  43.501   6.126  11.018
20794W        W86054  44.085  41.982   5.135
20795W        W86055  23.450  29.207  13.308
20796W        W86056  20.646  31.713  14.471
20797W        W86057  37.485  32.846  14.024
20798W        W86058   4.213  32.087   4.122
20799W        W86059  34.044  36.314  14.030
20800W        W86060  36.917  44.537   3.267
20801W        W86061  38.562   7.692  13.371
20802W        W86062  29.505  20.191   3.582
20803W        W86063  34.433   3.230   4.357
20804W        W86064  12.573  33.703   1.431
20805W        W86065   3.489  37.941   2.606
20806W        W86066  13.336  29.085   3.310
20807W        W86067  19.164  11.634   2.683
20808W        W86068  18.515  42.903  14.219
20809W        W86069  27.443  35.263   0.714
20810W        W86070  11.584  19.760  12.957
20811W        W86071  37.895  43.220  12.922
20812W        W86072   0.823  34.924  10.506
20813W        W86073  28.253  12.043   2.632
20814W        W86074  40.720  20.504   0.490
20815W        W86075   6.314   7.942  14.504
20816W        W86076  13.628  21.307  10.995
20817W        W86077  41.463  38.002   1.436
20818W        W86078  26.822  37.197   5.558
20819W        W86079  31.509   9.131   3.724
20820W        W86080  38.875  15.702   1.923
20821W        W86081   7.734  44.811   4.585
20822W        W86082  14.542  25.225  11.064
20823W        W86083  25.091   7.367   1.026
20824W        W86084  39.982   8.409  11.442
20825W        W86085  37.963  15.642  12.722
20826W        W86086   4.860  30.160   4.648
20827W        W86087  32.619   5.485   2.264
20828W        W86088   0.514  13.891  12.005
20829W        W86089  18.630  39.083   0.351
20830W        W86090  41.894  36.164  11.198
20831W        W86091  10.580  10.764  14.494
20832W        W86092  44.566   6.502   1.373
20833W        W86093  14.738  23.176   2.113
20834W        W86094   1.764  15.003  12.586
20835W        W86095  40.052  16.253  13.748
20836W        W86096  15.040  23.709  14.287
20837W        W86097  26.956  24.098   0.340
20838W        W86098  43.794  38.911  13.819
20839W        W86099  21.175  11.400   0.776
20840W        W86100  44.325  35.025   4.899
20841W        W86101  19.268  25.203   0.401
20842W        W86102  11.800   6.834  13.069
20843W        W86103  35.579  31.379   4.161
20844W        W86104  15.335  15.689   2.600
20845W        W86105   2.735  23.731  11.019
20846W        W86106  27.148  13.186   1.378
20847W        W86107  35.869  35.931  12.499
20848W        W86108  41.881   8.325  12.054
20849W        W86109   7.957   9.280   4.703
20850W        W86110  37.047  24.759   3.397
20851W        W86111  30.384   5.482   1.856
20852W        W86112  42.883  29.354  13.347
20853W        W86113  24.137  40.646   4.073
20854W        W86114  15.696  13.364  11.555
20855W        W86115  31.919  35.573  13.482
20856W        W86116   3.118  14.409   1.402
20857W        W86117  36.633  25.123   1.198
20858W        W86118  15.409  21.564   5.555
20859W        W86119  19.792  37.379  11.145
20860W        W86120  26.099   0.949   1.930
20861W        W86121  28.102  21.285   4.136
20862W        W86122  40.110  26.540  14.380
20863W        W86123  22.837  14.323   4.547
20864W        W86124  18.167  19.970  11.083
20865W        W86125   2.713  12.812   3.799
20866W        W86126  16.052   2.191  14.999
20867W        W86127  11.085  10.167   0.704
20868W        W86128  11.743  21.455  14.349
20869W        W86129  33.050   4.844  14.139
20870W        W86130   4.428  29.003  14.414
20871W        W86131  16.569  40.357   3.798
20872W        W86132  26.170  44.404  11.844
20873W        W86133   5.759  19.997   2.909
20874W        W86134   2.747  41.881  14.258
20875W        W86135  13.173  18.749   3.454
20876W        W86136  28.716  14.213   2.382
20877W        W86137  43.757  42.470   4.518
20878W        W86138   6.398   7.222   3.310
20879W        W86139   4.806   1.999  12.937
20880W        W86140  33.014  10.609   4.946
20881W        W86141   2.654  32.445   2.689
20882W        W86142   5.390  10.335  14.682
20883W        W86143   7.390  19.610   1.660
20884W        W86144  39.609   7.177   1.140
20885W        W86145  27.569  32.135   0.270
20886W        W86146  15.714  14.600  14.456
20887W        W86147  16.666  33.875   3.814
20888W        W86148  26.235   4.407   2.116
20889W        W86149  24.528  31.438   2.452
20890W        W86150  18.165  38.867   2.699
20891W        W86151   9.669   1.946  10.610
20892W        W86152  15.889  41.782   4.582
20893W        W86153  42.207  21.603   0.362
20894W        W86154  34.080   5.510   0.425
20895W        W86155   1.264  13.897  11.530
20896W        W86156  27.231  20.592  14.751
20897W        W86157  17.537  23.641  12.886
20898W        W86158  35.530  10.872   4.116
20899W        W86159  35.541  22.274   1.613
20900W        W86160  44.581  21.135  12.547
20901W        W86161   1.945  35.681  11.548
20902W        W86162  11.371  17.305  12.032
20903W        W86163  32.932  10.932   2.490
20904W        W86164  19.253  24.595  13.421
20905W        W86165  15.727   1.442   0.936
20906W        W86166  27.940  27.708  13.038
20907W        W86167  38.930   6.421  14.856
20908W        W86168  44.255  38.775   4.289
20909W        W86169   0.022  24.045   0.502
20910W        W86170  12.962  25.894   0.354
20911W        W86171  18.144  16.192  12.129
20912W        W86172   6.230   6.431   0.178
20913W        W86173  42.858  33.660  13.559
20914W        W86174  22.544  38.554   0.042
20915W        W86175  37.037   4.940  11.777
20916W        W86176  23.712   2.261  10.653
20917W        W86177  42.345  26.156   3.316
20918W        W86178  20.982  28.914  12.524
20919W        W86179  32.634  25.445   3.806
20920W        W86180  19.974  30.713  13.870
20921W        W86181  17.275  42.443  11.959
20922W        W86182   5.257   9.379  13.306
20923W        W86183   2.804   6.934   3.689
20924W        W86184  14.304  39.699   4.153
20925W        W86185   4.159  24.657   1.320
20926W        W86186  24.706   4.229  14.907
20927W        W86187   7.288  41.043   3.653
20928W        W86188  17.705  10.683  10.802
20929W        W86189  16.581  39.481  14.948
20930W        W86190  22.231  35.433  13.003
20931W        W86191  11.291  27.107  10.115
20932W        W86192  14.830   6.846   0.815
20933W        W86193   2.682  41.965  14.768
20934W        W86194   6.980   5.774   1.706
20935W        W86195   9.830  15.801  14.416
20936W        W86196  32.442   4.390   3.637
20937W        W86197  32.960  12.543  11.100
20938W        W86198  35.508  14.278  10.633
20939W        W86199  26.486  32.687   2.306
20940W        W86200  14.919   0.297  10.718
20941W        W86201   1.929  19.083  14.488
20942W        W86202  33.276  32.295   0.363
20943W        W86203   9.872  23.134   2.741
20944W        W86204  29.381  24.005  12.910
20945W        W86205   7.938  20.136   4.081
20946W        W86206  24.435   6.205  13.487
20947W        W86207  25.981  26.585   4.896
20948W        W86208  23.155  13.617  14.293
20949W        W86209  18.375  31.524   3.576
20950W        W86210  17.724  41.933   3.916
20951W        W86211   7.960  25.187  11.856
20952W        W86212  42.590  13.355   3.804
20953W        W86213   7.772  16.823   0.249
20954W        W86214   6.895   1.226   2.473
20955W        W86215  19.886  14.065   1.893
20956W        W86216  23.632  13.306  10.815
20957W        W86217  22.525  21.972  14.155
20958W        W86218  43.924  30.648   0.467
20959W        W86219   6.176  42.773  13.476
20960W        W86220  40.626   3.542  11.562
20961W        W86221   3.161  31.411  13.942
20962W        W86222  22.892  29.220  12.023
20963W        W86223  18.676  21.511  14.900
20964W        W86224  32.049  32.097  14.396
20965W        W86225  34.645  15.899   0.440
20966W        W86226  38.387   7.357   3.691
20967W        W86227  15.242  34.818  10.686
20968W        W86228  23.549  36.049   2.629
20969W        W86229  24.817  27.908   3.259
20970W        W86230   2.883  19.290   1.296
20971W        W86231  29.252  34.876  13.888
20972W        W86232  39.527  39.940  11.458
20973W        W86233  12.963  16.274  10.982
20974W        W86234  22.069  12.954  12.795
20975W        W86235   0.067   8.251  13.804
20976W        W86236   3.635  11.801  14.361
20977W        W86237  17.526  32.870   2.282
20978W        W86238  28.412  15.123  10.677
20979W        W86239  10.904  15.576   2.175
20980W        W86240  25.955  19.750   1.476
20981W        W86241   6.565   9.471   1.418
20982W        W86242  40.258   8.853   3.321
20983W        W86243   7.768  19.957  11.423
20984W        W86244   2.764  23.267  12.456
20985W        W86245   0.280  35.783  14.841
20986W        W86246   5.936   7.896   2.780
20987W        W86247  34.792  36.836  10.776
20988W        W86248   1.396  34.877   4.276
20989W        W86249  27.868  35.927  12.393
20990W        W86250   1.384  32.670  14.942
20991W        W86251  27.432  13.280  11.584
20992W        W86252  38.915   6.704  12.957
20993W        W86253  21.129   2.199  12.845
20994W        W86254  23.276  16.504  14.019
20995W        W86255  20.766  15.556   0.533
20996W        W86256   5.244  24.252   4.127
20997W        W86257  27.861  38.934  14.267
20998W        W86258  16.656  25.775  11.085
20999W        W86259  25.098  26.535  11.551
21000W        W86260  38.789   7.279  14.954
21001W        W86261  44.329  16.923   4.553
21002W        W86262   4.575  43.543  13.038
21003W        W86263   9.762  17.597   1.337
21004W        W86264  20.973   4.884  13.865
21005W        W86265  22.827   5.209   2.753
21006W        W86266  43.028  38.585   1.716
21007W        W86267  25.974  30.966  14.815
21008W        W86268  29.219  29.983  14.946
21009W        W86269   6.416  44.787  12.036
21010W        W86270  17.174  25.852   4.259
21011W        W86271  24.223  42.512   3.136
21012W        W86272  10.804   6.002  11.133
21013W        W86273  31.102  40.824  12.552
21014W        W86274  30.462  16.346  11.639
21015W        W86275  34.958  23.991  13.431
21016W        W86276  11.252  18.097   4.104
21017W        W86277   4.878   1.401  14.370
21018W        W86278  34.415  33.162  14.328
21019W        W86279  34.340  18.477  14.462
21020W        W86280  17.035  38.918  13.589
21021W        W86281   4.615  30.328   1.542
21022W        W86282  40.493  28.147  10.709
21023W        W86283   4.494  36.454  11.161
21024W        W86284  31.133  39.083   0.433
21025W        W86285  36.880  19.215  10.998
21026W        W86286   1.836  31.004   3.667
21027W        W86287  10.398  17.135  11.594
21028W        W86288  14.122  42.501   2.470
21029W        W86289  17.548   1.638   4.309
21030W        W86290   2.939  12.285   2.750
21031W        W86291  29.384  25.606   1.893
21032W        W86292  12.050  16.175   3.640
21033W        W86293  20.424  44.267  11.971
21034W        W86294  25.491   0.621  13.533
21035W        W86295  28.568  16.836  13.493
21036W        W86296   7.918   8.352   2.831
21037W        W86297  36.474  22.835   1.773
21038W        W86298  37.303  41.931  13.258
21039W        W86299  32.031  29.116   3.933
21040W        W86300  24.731  32.661   2.740
21041W        W86301   4.971  37.409  12.913
21042W        W86302  16.619  11.876  10.704
21043W        W86303  36.932  26.243   4.335
21044W        W86304  26.481  15.498  14.405
21045W        W86305  35.033  14.754   4.643
21046W        W86306  17.690  41.534   2.516
21047W        W86307  13.208  40.995  12.596
21048W        W86308   5.890  29.345  13.372
21049W        W86309  43.121  41.023   3.580
21050W        W86310  18.001   4.189  11.437
21051W        W86311  21.438  22.565   4.120
21052W        W86312  25.936   3.208   3.347
21053W        W86313  22.430  10.761  13.253
21054W        W86314  16.921  33.129   0.452
21055W        W86315  41.453  14.320   0.890
21056W        W86316  41.816  44.124   1.925
21057W        W86317  12.358  24.609   4.617
21058W        W86318  19.240  34.739  13.948
21059W        W86319  29.418  41.925  11.234
21060W        W86320  20.098  44.910   1.452
21061W        W86321  24.958   4.665  14.820
21062W        W86322  20.984  30.853  13.473
21063W        W86323  12.127  14.819   0.952
21064W        W86324  12.421  10.214  11.597
21065W        W86325  19.978   9.187   3.733
21066W        W86326  34.513  20.651  12.506
21067W        W86327  42.073  38.066   2.218
21068W        W86328  10.820  40.637   1.099
21069W        W86329  35.618  43.321   2.457
21070W        W86330  34.167  36.590  14.469
21071W        W86331  24.399  14.587   4.268
21072W        W86332  29.025   6.025   0.840
21073W        W86333   8.694  41.863  11.517
21074W        W86334  18.033  21.170   4.073
21075W        W86335  14.460  24.459  10.701
21076W        W86336  42.316  32.426   0.284
21077W        W86337   5.864  33.957   0.371
21078W        W86338  39.544  35.502   3.713
21079W        W86339  24.205  42.426   1.952
21080W        W86340  20.781  42.677  13.023
21081W        W86341   7.495  36.133   4.422
21082W        W86342   5.104   7.389   0.036
21083W        W86343  30.018  27.173   1.186
21084W        W86344  35.341  22.762   2.285
21085W        W86345  36.302  27.021  11.613
21086W        W86346   9.225  11.316   1.448
21087W        W86347  22.160  35.198  11.488
21088W        W86348   6.605   2.365  11.253
21089W        W86349   7.066  28.794   1.204
21090W        W86350  34.989  30.281   5.015
21091W        W86351  22.214  25.595   3.737
21092W        W86352  12.661  22.090   0.341
21093W        W86353   8.783  23.956   4.159
21094W        W86354  31.389  13.884   2.152
21095W        W86355  12.273  31.796  10.805
21096W        W86356  18.709  38.782   0.777
21097W        W86357   7.778   6.140  12.996
21098W        W86358  18.167  34.447  11.982
21099W        W86359  37.338  38.407   4.755
21100W        W86360  17.290  38.023  11.536
21101W        W86361  16.344  38.474  10.845
21102W        W86362  38.773  31.986  12.869
21103W        W86363  23.618  25.192  13.148
21104W        W86364  12.865  35.257   0.765
21105W        W86365  40.313  44.962  10.895
21106W        W86366   4.801  14.082   3.804
21107W        W86367  40.989  33.352   2.817
21108W        W86368  23.293   5.914  14.477
21109W        W86369  32.423  16.768   1.767
21110W        W86370  36.792   1.164  12.586
21111W        W86371  22.650  15.588   3.519
21112W        W86372  31.229  33.369  14.491
21113W        W86373  12.390   8.842  12.145
21114W        W86374  17.761  41.295  11.768
21115W        W86375  23.266   3.241   5.746
21116W        W86376  13.271  21.961  12.342
21117W        W86377  16.542  31.904  11.556
21118W        W86378  39.982  37.952   3.285
21119W        W86379  31.601  41.306   3.388
21120W        W86380  40.021   6.560  13.629
21121W        W86381  14.817   1.473   4.996
21122W        W86382  43.358  16.912  12.688
21123W        W86383  28.891  42.645   1.492
21124W        W86384   2.917  30.195   4.033
21125W        W86385  24.085  32.540   1.726
21126W        W86386  43.234  38.915  11.093
21127W        W86387  15.089   9.281   2.889
21128W        W86388  40.131  36.027  11.067
21129W        W86389  43.211  33.919   0.835
21130W        W86390  27.139  33.817   2.762
21131W        W86391  17.746  16.314  10.475
21132W        W86392  34.266  44.500   9.983
21133W        W86393  14.259   0.741   0.805
21134W        W86394   2.321   8.842   4.356
21135W        W86395  29.473  41.343  11.948
21136W        W86396   1.722  28.203   2.067
21137W        W86397  44.256   4.786  10.564
21138W        W86398  27.949  44.024  12.990
21139W        W86399  31.328  44.934   3.297
21140W        W86400   9.123  11.160  11.746
21141W        W86401  25.469  27.469   4.261
21142W        W86402   6.488  19.065   1.801
21143W        W86403  17.117  29.461  12.996
21144W        W86404   4.399  28.037   0.800
21145W        W86405  36.493  42.720   3.665
21146W        W86406  17.401  37.020  12.522
21147W        W86407  44.453  28.528  13.351
21148W        W86408   1.843  41.990  14.289
21149W        W86409  29.693   2.917   3.973
21150W        W86410  25.769  40.331  14.432
21151W        W86411  38.527  21.308   1.914
21152W        W86412  14.304   4.983  12.843
21153W        W86413  44.019  44.790   1.924
21154W        W86414  41.246  12.998  13.040
21155W        W86415  18.329  38.917   4.157
21156W        W86416  41.021  39.520  12.360
21157W        W86417  15.814  32.142  11.105
21158W        W86418   2.720  32.106   5.084
21159W        W86419  23.621  26.444  13.888
21160W        W86420  17.781  25.201   3.759
21161W        W86421  39.305  13.154  14.557
21162W        W86422  35.563  30.371  11.016
21163W        W86423  36.958  26.449   2.233
21164W        W86424   2.888  42.201  10.652
21165W        W86425   9.333  30.197   4.562
21166W        W86426   3.272  30.212   1.756
21167W        W86427  17.068   1.542  11.093
21168W        W86428  22.075  39.008   4.419
21169W        W86429  36.353  11.518   4.418
21170W        W86430  36.212  26.026   4.121
21171W        W86431  22.498   2.792  12.027
21172W        W86432  17.373  16.636  11.621
21173W        W86433  39.370  20.307  14.422
21174W        W86434  39.295  42.455   1.470
21175W        W86435  40.427  22.319   1.231
21176W        W86436  25.515  37.797   1.293
21177W        W86437  32.445  32.809   3.827
21178W        W86438   1.367  41.380   4.197
21179W        W86439  26.437   9.452  12.180
21180W        W86440  22.272  33.100   0.777
21181W        W86441  22.572  28.063   2.833
21182W        W86442   7.287  26.257   0.243
21183W        W86443   2.800  35.632  10.616
21184W        W86444  24.575  27.061   1.677
21185W        W86445  35.111  20.000   0.886
21186W        W86446  26.928   4.289   4.139
21187W        W86447   3.379  27.220   3.326
21188W        W86448  33.565   7.704  10.370
21189W        W86449   9.531  42.262  13.497
21190W        W86450  42.477  17.377  12.017
21191W        W86451  20.029   5.495  11.170
21192W        W86452  10.009  22.175   0.385
21193W        W86453  14.138  14.163  12.594
21194W        W86454  15.780  22.017  14.765
21195W        W86455  10.600  20.781  12.994
21196W        W86456  22.470   1.736  10.788
21197W        W86457  24.601  35.130   3.598
21198W        W86458  31.589  35.863  14.533
21199W        W86459  40.439  32.095   4.574
21200W        W86460  19.394   5.627  11.969
21201W        W86461  16.494  14.851  10.816
21202W        W86462  23.675   3.776  12.921
21203W        W86463   2.380  16.192  12.433
21204W        W86464  19.247  26.056   1.378
21205W        W86465  36.347   7.370  12.163
21206W        W86466  32.476  14.350   1.761
21207W        W86467  32.301  17.915   1.723
21208W        W86468  16.727  33.440   4.658
21209W        W86469  13.181  24.258  12.589
21210W        W86470   3.981  33.577  10.595
21211W        W86471  32.028  10.109   3.127
21212W        W86472  10.407  40.217  13.541
21213W        W86473  18.332  39.605  13.147
21214W        W86474  26.890  14.437  11.504
21215W        W86475  16.682  15.581   3.733
21216W        W86476  33.192  14.914  11.128
21217W        W86477   2.912  11.605   4.344
21218W        W86478  44.745  37.699  10.231
21219W        W86479  27.108  44.301  14.288
21220W        W86480  41.807  31.856  14.472
21221W        W86481   5.397  33.657  14.434
21222W        W86482  13.054  44.269  11.912
21223W        W86483   4.020  27.217   4.019
21224W        W86484  35.027  40.603  14.043
21225W        W86485  20.477   3.781   0.729
21226W        W86486   5.958  29.032   4.737
21227W        W86487  20.710   1.932  10.728
21228W        W86488  38.890  38.189   4.631
21229W        W86489  44.956  15.835  11.150
21230W        W86490   9.100  15.054   1.846
21231W        W86491  26.713  22.135  12.457
21232W        W86492   4.898  38.455   0.787
21233W        W86493  33.346  10.321  14.002
21234W        W86494  25.103   1.767  14.546
21235W        W86495  29.469  28.106  11.018
21236W        W86496  25.593  32.510  10.665
21237W        W86497  43.446  32.087  11.177
21238W        W86498  32.529   3.855   4.352
21239W        W86499  42.366  26.138  11.598
21240W        W86500   8.670  30.396  13.586
21241W        W86501  10.294  25.254   3.266
21242W        W86502  15.111  15.972   0.007
21243W        W86503  12.121  39.253   4.355
21244W        W86504   8.693   5.586   0.338
21245W        W86505  37.055  13.219   5.015
21246W        W86506   3.689  33.928   0.640
21247W        W86507  29.999  32.534  12.495
21248W        W86508  18.499  44.967  12.436
21249W        W86509  29.696  31.115  11.521
21250W        W86510  28.207  35.602   2.336
21251W        W86511  28.603  13.649   0.269
21252W        W86512  28.637  31.611  12.099
21253W        W86513  35.566   7.652   0.312
21254W        W86514  27.913   0.952   1.211
21255W        W86515   1.434  36.847   0.243
21256W        W86516  41.435  25.124   4.652
21257W        W86517  16.104  21.445  13.778
21258W        W86518   6.202   9.703   0.953
21259W        W86519  36.534  38.548  10.730
21260W        W86520  14.742  10.480   4.859
21261W        W86521  18.196   0.723  13.526
21262W        W86522   0.600  17.386   0.469
21263W        W86523   6.691  16.663  13.148
21264W        W86524  28.760   8.148  14.947
21265W        W86525  28.958  19.821   2.127
21266W        W86526  30.666   6.351   3.400
21267W        W86527   0.767  42.508   2.765
21268W        W86528  26.195  43.018  12.060
21269W        W86529   2.613  35.194  11.070
21270W        W86530  29.553  12.713   4.092
21271W        W86531  24.925  18.665   3.246
21272W        W86532  17.634  32.903  14.966
21273W        W86533  20.904   5.754  11.982
21274W        W86534  25.067   9.567   0.256
21275W        W86535  35.330   2.355   2.996
21276W        W86536   2.191  17.725  10.750
21277W        W86537  39.586   0.170  12.906
21278W        W86538   9.710  34.941  13.773
21279W        W86539  41.580  42.502   4.250
21280W        W86540   8.831  13.110  10.980
21281W        W86541   8.888   1.816  11.720
21282W        W86542  30.580  27.939   3.656
21283W        W86543   8.218  33.011  14.035
21284W        W86544  10.860  32.233   0.658
21285W        W86545  21.277  22.569   0.309
21286W        W86546  34.613  17.273  14.014
21287W        W86547   5.959  11.577   0.884
21288W        W86548  43.352  31.545   3.880
21289W        W86549  34.596  14.517  12.555
21290W        W86550  29.424  16.080   4.281
21291W        W86551  28.420  35.149  14.078
21292W        W86552  28.495  18.660  12.805
21293W        W86553   3.051  40.975  13.519
21294W        W86554  29.401   2.063  11.798
21295W        W86555  22.423  11.707  11.695
21296W        W86556   2.852  15.161  13.978
21297W        W86557  18.271  15.148  12.012
21298W        W86558  44.167   0.490   2.908
21299W        W86559  33.038   2.933   2.173
21300W        W86560  26.032  25.517  14.796
21301W        W86561  30.646  27.910  14.990
21302W        W86562  39.512   4.384  12.595
21303W        W86563  27.574  43.957  11.450
21304W        W86564  11.235  35.304  11.188
21305W        W86565  11.197  22.004  11.039
21306W        W86566  36.912  18.777  11.633
21307W        W86567  34.892  38.731  11.952
21308W        W86568  10.839  24.916   2.165
21309W        W86569  33.542  19.966   0.298
21310W        W86570  30.179  14.232   1.822
21311W        W86571   3.711  32.031  14.635
21312W        W86572  26.349  19.893   4.667
21313W        W86573  39.846  19.031  12.062
21314W        W86574  25.914   4.670   4.568
21315W        W86575  30.547   0.361  11.164
21316W        W86576   1.795  30.098  13.059
21317W        W86577  20.093  21.226  12.653
21318W        W86578   1.241  38.238   0.337
21319W        W86579  17.341  39.820   4.232
21320W        W86580  25.953  10.616   0.385
21321W        W86581  31.048  17.064   4.495
21322W        W86582  33.563  28.193  12.066
21323W        W86583  20.169   6.996   0.809
21324W        W86584  29.539  36.076   1.291
21325W        W86585  43.051  27.523  12.593
21326W        W86586  22.682  11.565  13.665
21327W        W86587  21.062  37.095   0.253
21328W        W86588  13.527   8.015  10.629
21329W        W86589  10.297  11.232   2.174
21330W        W86590  42.407  43.480  14.591
21331W        W86591  26.578   9.936   2.755
21332W        W86592  41.220  41.752   0.218
21333W        W86593  12.113  33.178   3.307
21334W        W86594  30.957   3.847   3.607
21335W        W86595  20.625  26.206   0.762
21336W        W86596  26.979  11.286  12.981
21337W        W86597  11.607  29.400  14.669
21338W        W86598   7.714   2.193  14.890
21339W        W86599  33.602   2.411   5.200
21340W        W86600  28.835  17.206   2.918
21341W        W86601  25.763  10.428  13.885
21342W        W86602  29.627   7.228  12.070
21343W        W86603   5.970  40.924   4.438
21344W        W86604  14.005   5.037   1.773
21345W        W86605  20.593  30.896   2.232
21346W        W86606  30.787   9.650  14.408
21347W        W86607  30.545  15.867  11.479
21348W        W86608   5.698  37.435   1.044
21349W        W86609  11.704  10.664  11.616
21350W        W86610  39.372  44.749   2.668
21351W        W86611  28.446  36.854  14.819
21352W        W86612  17.124   8.947  14.875
21353W        W86613  29.156   1.128   0.739
21354W        W86614  20.522  41.767  13.230
21355W        W86615  12.722  29.566  14.986
21356W        W86616  16.625  10.241   2.383
21357W        W86617  44.822  30.336   3.612
21358W        W86618  41.651  19.862  11.621
21359W        W86619   7.483   5.381  12.378
21360W        W86620  44.230  34.415   0.489
21361W        W86621  43.450   5.788   3.586
21362W        W86622   3.905  13.829   3.289
21363W        W86623  19.644  11.693   1.420
21364W        W86624  28.889  27.982   4.295
21365W        W86625   8.310   9.044   5.142
21366W        W86626  36.067  21.002  11.983
21367W        W86627  11.273  11.823   3.786
21368W        W86628   8.324   4.341   4.002
21369W        W86629  12.316  28.108   4.469
21370W        W86630  37.846  12.368  14.007
21371W        W86631  19.712  33.750  13.385
21372W        W86632  14.690  12.502   4.620
21373W        W86633  20.156  41.769   3.604
21374W        W86634   2.500   1.228  12.444
21375W        W86635   7.741  21.585   1.811
21376W        W86636  12.216   0.785  11.987
21377W        W86637  35.967  40.471  11.749
21378W        W86638  22.042  33.161  10.666
21379W        W86639  42.072  30.769   1.237
21380W        W86640   0.483  36.571   0.754
21381W        W86641  19.480  29.721  13.204
21382W        W86642  11.654  18.303   0.762
21383W        W86643  38.510   5.859   3.424
21384W        W86644  40.215  31.085   0.194
21385W        W86645  24.139  21.143  13.783
21386W        W86646   4.181  31.000  12.213
21387W        W86647  33.388  38.307  12.015
21388W        W86648  26.041  30.744  13.473
21389W        W86649  27.909  30.779  11.939
21390W        W86650  27.678  39.299   4.076
21391W        W86651   1.483  41.583   3.184
21392W        W86652  19.666  44.975   0.191
21393W        W86653  41.059  32.382  13.060
21394W        W86654  25.740   0.354  13.903
21395W        W86655  33.077  41.168   4.662
21396W        W86656  34.006   8.143  10.799
21397W        W86657   3.378  41.890   3.258
21398W        W86658  31.147  22.280   2.403
21399W        W86659  10.646  14.089  10.376
21400W        W86660  38.384   5.024  13.423
21401W        W86661   1.967  23.105   2.362
21402W        W86662  24.060  17.566   0.951
21403W        W86663  28.750  32.333   4.823
21404W        W86664  44.888  28.613   3.074
21405W        W86665  36.502  16.215  11.914
21406W        W86666  28.258   1.412   4.037
21407W        W86667  10.770  27.659   0.057
21408W        W86668   7.851  44.196  12.158
21409W        W86669  26.091  31.145   0.662
21410W        W86670  16.670   9.197   3.692
21411W        W86671  11.567   4.533  12.769
21412W        W86672   0.926   3.992   0.406
21413W        W86673  19.035   8.145   0.563
21414W        W86674  21.020   3.425   0.315
21415W        W86675  41.914  36.257   2.212
21416W        W86676  27.427   9.564   0.314
21417W        W86677  38.412  27.583   0.888
21418W        W86678  30.909   9.271   1.333
21419W        W86679  10.797  25.593  12.973
21420W        W86680   2.894  30.520   2.886
21421W        W86681  19.145  35.878   2.368
21422W        W86682  41.308  43.860   4.246
21423W        W86683  39.820   5.635  13.925
21424W        W86684  29.746  26.468  14.513
21425W        W86685  41.305  38.439  11.052
21426W        W86686  32.833  10.687  11.061
21427W        W86687   3.802  29.212  12.923
21428W        W86688  29.189  29.888   0.988
21429W        W86689  30.061  38.934  10.588
21430W        W86690  22.555  23.716  11.199
21431W        W86691  19.734   3.292   0.865
21432W        W86692  42.063  25.153   2.856
21433W        W86693  39.607  10.931  14.098
21434W        W86694  14.621  30.556  11.612
21435W        W86695  44.857   3.732   2.222
21436W        W86696  11.162   1.827   2.745
21437W        W86697   1.311   6.906  11.669
21438W        W86698  42.533  18.565  12.582
21439W        W86699  22.241   1.926   5.417
21440W        W86700  17.462  17.522   4.204
21441W        W86701  26.629  18.203   0.601
21442W        W86702  20.087  13.384  12.534
21443W        W86703   1.234   5.422   4.034
21444W        W86704   3.300   8.964  11.616
21445W        W86705  20.308  17.168   3.554
21446W        W86706   8.502   2.030   2.802
21447W        W86707  16.658  35.559  13.072
21448W        W86708   9.637  44.703  10.578
21449W        W86709  15.174   3.980  12.527
21450W        W86710  33.460  24.007   2.299
21451W        W86711  19.193  21.419  12.879
21452W        W86712  40.879  39.249  11.006
21453W        W86713  26.070   5.286  10.719
21454W        W86714  36.859  24.270  12.715
21455W        W86715  42.031   2.543  14.078
21456W        W86716   1.587  42.410  14.464
21457W        W86717   4.745   2.291   1.690
21458W        W86718  17.090   3.379   3.191
21459W        W86719  40.735  19.712  10.725
21460W        W86720  41.020  34.002  11.370
21461W        W86721  28.491  16.964  13.990
21462W        W86722  31.602  12.178  13.948
21463W        W86723   8.699  16.806  11.502
21464W        W86724  36.422  18.656   3.446
21465W        W86725  24.990  29.925  14.732
21466W        W86726  19.060   1.447   1.936
21467W        W86727  28.170  43.226   2.682
21468W        W86728  12.127  41.034   3.140
21469W        W86729  31.739  16.309  14.389
21470W        W86730  22.307  37.315   1.175
21471W        W86731  11.772  26.575   2.464
21472W        W86732  42.432  21.798   3.637
21473W        W86733  21.810   8.579  10.308
21474W        W86734  11.284  40.496  11.536
21475W        W86735  24.441   9.302  10.767
21476W        W86736  22.087   3.286  11.724
21477W        W86737   9.270   3.999  13.890
21478W        W86738   1.401   6.752   1.004
21479W        W86739  38.744   9.711  13.001
21480W        W86740  33.691  10.608   0.554
21481W        W86741  36.304  43.812  12.452
21482W        W86742  33.313  33.155   2.870
21483W        W86743  42.414  19.240   0.879
21484W        W86744  28.565   1.235   2.196
21485W        W86745  20.097  23.856   1.818
21486W        W86746   4.235   3.688   4.199
21487W        W86747   6.256  34.102   0.747
21488W        W86748   5.495  18.206  11.461
21489W        W86749  41.491  26.442   4.616
21490W        W86750  43.438  22.560   1.881
21491W        W86751  25.604  11.404   1.361
21492W        W86752  24.595  39.999   1.792
21493W        W86753   2.487  41.466  14.173
21494W        W86754   1.436  40.864   1.204
21495W        W86755  39.734  26.401   2.802
21496W        W86756   5.916  17.237   2.301
21497W        W86757  37.844  32.204  12.137
21498W        W86758  14.763  14.886   2.438
21499W        W86759  42.049  16.477   0.924
21500W        W86760  10.831  36.321  11.885
21501W        W86761  24.234  11.738   2.433
21502W        W86762   9.095  36.512   1.267
21503W        W86763  16.306  35.100   3.180
21504W        W86764  35.914  31.925  11.606
21505W        W86765  39.071  31.059   2.262
21506W        W86766  20.639   2.865  12.816
21507W        W86767  39.520  22.158  10.819
21508W        W86768  29.077  19.144   3.983
21509W        W86769  39.873   9.693  10.727
21510W        W86770  27.258  16.207  11.045
21511W        W86771  21.115  22.163   3.198
21512W        W86772  27.601   6.381  12.484
21513W        W86773   6.033  29.048   2.739
21514W        W86774  37.383  12.180   2.877
21515W        W86775  35.990  44.801  11.960
21516W        W86776  10.176  12.078  11.284
21517W        W86777  41.855  12.874  10.031
21518W        W86778  10.625   4.690  11.625
21519W        W86779  34.339   9.228  12.445
21520W        W86780  40.873   1.185  11.645
21521W        W86781  22.270  13.962  12.808
21522W        W86782  43.903   4.731  12.800
21523W        W86783   2.635  11.005   9.645
21524W        W86784  21.698   1.846   0.599
21525W        W86785   2.678   9.464  11.353
21526W        W86786  43.470   0.208   1.239
21527W        W86787  25.399  42.968  13.771
21528W        W86788  43.285  13.446   4.681
21529W        W86789  12.327  33.363   1.770
21530W        W86790  44.593   6.256   0.464
21531W        W86791  36.892  40.464   3.422
21532W        W86792  41.284  44.482   2.070
21533W        W86793  33.608  32.507  12.567
21534W        W86794   5.745  11.171  14.973
21535W        W86795  38.098  12.403   2.695
21536W        W86796   1.569  34.030  10.769
21537W        W86797  11.134  15.406   4.619
21538W        W86798  16.644  11.737  13.653
21539W        W86799  21.925   0.471  14.457
21540W        W86800  22.022  12.227  14.456
21541W        W86801  31.305   0.290  12.577
21542W        W86802  33.648   0.231   0.704
21543W        W86803  28.198  33.513  10.901
21544W        W86804  32.122  12.154  10.596
21545W        W86805  20.204  29.188   4.902
21546W        W86806  43.452  37.433  12.577
21547W        W86807  25.256  37.590   2.910
21548W        W86808  11.307   2.464  12.197
21549W        W86809   7.249  44.503   4.464
21550W        W86810  44.612  21.439  10.557
21551W        W86811  27.244  24.684   3.665
21552W        W86812  13.383   0.401   2.202
21553W        W86813  12.932  17.949   3.785
21554W        W86814  25.715   8.221  12.438
21555W        W86815  21.629  27.071  10.991
21556W        W86816  16.479  13.699  13.464
21557W        W86817  17.865  42.239  14.440
21558W        W86818   7.717  18.508   0.737
21559W        W86819  27.902  24.808   0.415
21560W        W86820  24.477  20.489   3.204
21561W        W86821   5.492  38.016   4.226
21562W        W86822  44.319  39.444  12.140
21563W        W86823  12.376  30.006  12.562
21564W        W86824   8.979  18.708  14.295
21565W        W86825  11.843  34.063   3.365
21566W        W86826  42.477   8.342   0.360
21567W        W86827   6.452  34.692  14.383
21568W        W86828   2.936   3.016   0.748
21569W        W86829  38.843   4.903  10.625
21570W        W86830  15.131  14.132  14.914
21571W        W86831  25.538  19.428   1.445
21572W        W86832  14.151  31.235  12.477
21573W        W86833  21.936  30.615   4.922
21574W        W86834  31.633  31.272  14.854
21575W        W86835  25.499  41.939   1.996
21576W        W86836  19.551  35.646   5.059
21577W        W86837   9.634   0.943  10.880
21578W        W86838  44.810  19.420   4.182
21579W        W86839   0.365  17.659  12.618
21580W        W86840  15.659  35.424  13.873
21581W        W86841   5.723  23.974   3.650
21582W        W86842   0.350   2.070  14.384
21583W        W86843  39.062  30.979   3.174
21584W        W86844  13.206  21.973  13.958
21585W        W86845  26.124  15.373   1.710
21586W        W86846  18.777  30.985   4.189
21587W        W86847  33.244  36.173   0.941
21588W        W86848  24.240  42.961  14.955
21589W        W86849   8.213  33.477   0.261
21590W        W86850  35.637  24.996  11.105
21591W        W86851  11.102  38.987  13.951
21592W        W86852   8.289  17.157   3.760
21593W        W86853  41.438  40.839  13.566
21594W        W86854  33.144  11.544   3.976
21595W        W86855   6.410  17.163  11.056
21596W        W86856  13.397  14.108  12.039
21597W        W86857   7.924  12.629  14.025
21598W        W86858   6.519  10.908  12.881
21599W        W86859  12.831  21.049   4.059
21600W        W86860  12.918  13.705  14.853
21601W        W86861  29.409  11.372   4.895
21602W        W86862  32.169   0.339  11.180
21603W        W86863   4.929  28.366   2.916
21604W        W86864  17.622  14.187  13.933
21605W        W86865  19.307  40.424  12.914
21606W        W86866  37.762  37.194  13.788
21607W        W86867  20.648   3.807  12.018
21608W        W86868  30.194  29.131  14.919
21609W        W86869  32.101  42.995   4.076
21610W        W86870  24.967  15.177   3.746
21611W        W86871   5.820   1.994   2.862
21612W        W86872  12.201  16.322   0.837
21613W        W86873  35.356  29.006   3.752
21614W        W86874   1.373  23.030   3.732
21615W        W86875  14.662  23.969  10.654
21616W        W86876  21.881  10.070   3.025
21617W        W86877  35.411  40.252  13.867
21618W        W86878   4.514  15.770  12.913
21619W        W86879  35.682  12.780   4.219
21620W        W86880  15.166   8.741  12.094
21621W        W86881  33.779  39.452  10.969
21622W        W86882  11.199  34.500  13.914
21623W        W86883  11.770  15.666  14.724
21624W        W86884  32.261  39.238  14.902
21625W        W86885  10.654   0.133  11.140
21626W        W86886   9.737  16.494  13.056
21627W        W86887  29.461   6.063   0.295
21628W        W86888  40.544  24.604   1.383
21629W        W86889   8.489  17.080  13.056
21630W        W86890  33.478  17.650   0.334
21631W        W86891  41.421  17.331   3.794
21632W        W86892  20.062  42.290   2.735
21633W        W86893  10.619  26.559   0.297
21634W        W86894  16.773  35.647   4.221
21635W        W86895  13.050  38.269  12.912
21636W        W86896  22.907  34.174  10.268
21637W        W86897  27.961   3.901  14.055
21638W        W86898  13.858  27.570   3.674
21639W        W86899  43.296  40.529   1.184
21640W        W86900   3.214  27.263   4.321
21641W        W86901  16.272  22.548   2.197
21642W        W86902   8.689  31.538  12.048
21643W        W86903  35.367   4.350  13.268
21644W        W86904  37.617   9.586   1.854
21645W        W86905  41.322  18.166   1.912
21646W        W86906  12.801  16.335   0.286
21647W        W86907  21.119  29.881   0.339
21648W        W86908  39.970  28.832   2.815
21649W        W86909  17.068  40.592   0.520
21650W        W86910   4.975   4.934  13.044
21651W        W86911  13.374  35.312   2.400
21652W        W86912  28.123  39.047   4.280
21653W        W86913  31.993  34.042   4.073
21654W        W86914  22.988  40.841  14.504
21655W        W86915  35.133  33.798  13.978
21656W        W86916  34.051  41.096   0.859
21657W        W86917  25.762  23.560   4.145
21658W        W86918  41.052  19.672   2.847
21659W        W86919   8.840  44.231  12.917
21660W        W86920  20.564  23.891  13.765
21661W        W86921  38.032  34.437  14.318
21662W        W86922  38.000  43.741   9.777
21663W        W86923  29.711  21.711   2.253
21664W        W86924  31.489  21.922   5.029
21665W        W86925  28.326   7.687   2.388
21666W        W86926  21.363  41.926  12.161
21667W        W86927  44.268  22.604   1.438
21668W        W86928  11.144  42.213  12.305
21669W        W86929   8.333  17.803  12.011
21670W        W86930  16.761  21.354   4.820
21671W        W86931  34.590   2.177   1.701
21672W        W86932  11.743  23.745   1.318
21673W        W86933  31.770  15.378   5.189
21674W        W86934  16.521  26.924  11.864
21675W        W86935   7.825  14.427   5.071
21676W        W86936   9.114  17.033   3.223
21677W        W86937  15.894  22.095  14.271
21678W        W86938  26.604  39.377   0.353
21679W        W86939   2.926  15.842  13.065
21680W        W86940   0.693   4.961  11.529
21681W        W86941  30.544  43.268   1.771
21682W        W86942   5.740  34.843  14.802
21683W        W86943  40.328  20.531  10.637
21684W        W86944  32.036  26.276  12.881
21685W        W86945  19.563   1.946  13.060
21686W        W86946  11.403  24.092  13.995
21687W        W86947  34.025   4.292  10.545
21688W        W86948   4.549  29.460   2.321
21689W        W86949  17.242  37.323   2.954
21690W        W86950   0.866  35.475  12.384
21691W        W86951  20.823  35.183   5.042
21692W        W86952  15.508   4.385   3.210
21693W        W86953  22.479  37.483  12.757
21694W        W86954  18.795  44.964  11.538
21695W        W86955  12.106  21.531  11.796
21696W        W86956   2.232  30.150  14.472
21697W        W86957  10.304  25.947   1.853
21698W        W86958  17.778   3.886  14.360
21699W        W86959  29.229  26.421  14.436
21700W        W86960  18.147   6.763   3.255
21701W        W86961  26.946  26.028  12.035
21702W        W86962  42.849  14.113   2.711
21703W        W86963  34.557   3.790  13.060
21704W        W86964   2.950  24.500   2.185
21705W        W86965  26.652  16.341   0.821
21706W        W86966  29.351  30.541   2.682
21707W        W86967  32.174  41.678   4.620
21708W        W86968   8.769  29.974   3.187
21709W        W86969  19.096  26.031   4.546
21710W        W86970  24.472  12.352   0.190
21711W        W86971  22.591  42.456   0.013
21712W        W86972  33.678  20.296   3.703
21713W        W86973   0.880   4.480  11.679
21714W        W86974  18.755  20.437  14.867
21715W        W86975  18.316  15.397   0.406
21716W        W86976  19.947   7.740   2.447
21717W        W86977  15.310  11.407  13.942
21718W        W86978   5.926   7.222   1.279
21719W        W86979  19.799  34.348  13.066
21720W        W86980  25.061  40.002  11.982
21721W        W86981  20.806  36.757   5.560
21722W        W86982  37.758  23.168  11.567
21723W        W86983  39.923  17.205  13.865
21724W        W86984  28.654  29.885  14.918
21725W        W86985   0.264  11.779   0.492
21726W        W86986  14.076  29.204   3.994
21727W        W86987  21.215  24.449   3.218
21728W        W86988  21.045  22.535  14.501
21729W        W86989  15.823  28.830  11.525
21730W        W86990  39.791  24.186   4.914
21731W        W86991  26.568  18.819  13.047
21732W        W86992  37.005  10.926  11.967
21733W        W86993  20.235  19.849   3.295
21734W        W86994  15.721  19.015  11.723
21735W        W86995  24.742  21.444  12.946
21736W        W86996  32.494  12.824  13.007
21737W        W86997  38.443  13.631  12.636
21738W        W86998  33.956  41.778  10.764
21739W        W86999  27.130  33.892   0.802
21740W        W87000  32.335  21.594   2.733
21741W        W87001  20.728  27.111  14.424
21742W        W87002  11.163   7.706   1.412
21743W        W87003  25.500   4.779   2.579
21744W        W87004   2.680  40.392  12.628
21745W        W87005  18.706   9.409  11.115
21746W        W87006  43.902   5.117   4.148
21747W        W87007  26.666  12.183   4.159
21748W        W87008  10.122  31.077  13.715
21749W        W87009  22.051  35.112   3.720
21750W        W87010  13.563  16.083   0.896
21751W        W87011   9.811  22.761   5.106
21752W        W87012  34.688  10.058   0.425
21753W        W87013  28.578  12.555  11.139
21754W        W87014   0.708  13.184  12.744
21755W        W87015  10.573  41.735   3.801
21756W        W87016  36.042  41.324   4.554
21757W        W87017  33.815  25.432  14.339
21758W        W87018   8.603   3.872  11.668
21759W        W87019  22.962  18.580   1.669
21760W        W87020  42.255  12.114   1.351
21761W        W87021   9.515  34.547   4.204
21762W        W87022  31.989  31.543   0.684
21763W        W87023  15.312  43.111  12.796
21764W        W87024  38.551  19.794  14.829
21765W        W87025  32.343  32.855  11.562
21766W        W87026  17.792  23.497   2.704
21767W        W87027  34.527  43.554  13.326
21768W        W87028  11.729   1.926   1.437
21769W        W87029  35.028  12.141  14.056
21770W        W87030  28.376  22.241   0.846
21771W        W87031  29.627   9.715   0.022
21772W        W87032  27.717   8.862  11.939
21773W        W87033  39.553  35.450  11.458
21774W        W87034  43.989   0.406  11.169
21775W        W87035   2.211  39.887  11.642
21776W        W87036  34.561  35.216  12.363
21777W        W87037   5.926  36.258  13.260
21778W        W87038   0.087  24.712   4.922
21779W        W87039  14.138  43.496   2.129
21780W        W87040   7.562  10.165   1.458
21781W        W87041  26.437  25.627  12.557
21782W        W87042  42.788  21.996   2.622
21783W        W87043  17.969   5.607  10.946
21784W        W87044   2.714  22.811   5.092
21785W        W87045  41.947  38.306  12.304
21786W        W87046  34.525  33.988  14.747
21787W        W87047  24.277  11.649   4.106
21788W        W87048   6.402  38.505  12.056
21789W        W87049  33.145   6.800   2.802
21790W        W87050  38.843  31.051  12.066
21791W        W87051   7.288  34.206  13.015
21792W        W87052  16.634  39.185  12.388
21793W        W87053   2.353  18.542   0.381
21794W        W87054  21.553  19.011   4.783
21795W        W87055   9.840  24.095  11.147
21796W        W87056  18.336  37.208   0.263
21797W        W87057   1.800  39.009  14.941
21798W        W87058   8.901  28.225  10.697
21799W        W87059  13.230   1.503  12.017
21800W        W87060  10.396   5.364   0.906
21801W        W87061  21.659  44.254  12.925
21802W        W87062  14.605  17.097  13.740
21803W        W87063  29.951  33.342   2.653
21804W        W87064  24.553  23.930   4.391
21805W        W87065  20.246  15.692  11.395
21806W        W87066  35.576  23.535  11.845
21807W        W87067   7.758  13.835  13.873
21808W        W87068   0.451  12.450  11.288
21809W        W87069   4.397  39.480   1.052
21810W        W87070  36.058   9.085  13.411
21811W        W87071  40.753  17.787   0.444
21812W        W87072  17.812  24.001   2.765
21813W        W87073   2.018  31.100  14.350
21814W        W87074   5.771   0.930   2.139
21815W        W87075  28.807  11.160  14.852
21816W        W87076   3.421   4.112   1.949
21817W        W87077  38.791  26.967  13.428
21818W        W87078  40.264  13.753  13.732
21819W        W87079  11.474   7.261   3.589
21820W        W87080   5.647  27.593  13.255
21821W        W87081  24.407  37.464   3.300
21822W        W87082  21.483  19.694  14.721
21823W        W87083  10.746  28.944  11.965
21824W        W87084  11.380  29.621  12.320
21825W        W87085   0.758  42.237  11.141
21826W        W87086  14.820   8.260   2.121
21827W        W87087  13.559  35.049   4.151
21828W        W87088  22.613  16.073   2.604
21829W        W87089  15.307  34.820   2.181
21830W        W87090  37.896   7.692  11.363
21831W        W87091  16.235   2.355   0.929
21832W        W87092  42.870   2.873   2.555
21833W        W87093  36.332  42.433   0.458
21834W        W87094  39.886  38.070   4.681
21835W        W87095  27.526  15.692   0.683
21836W        W87096   9.084  12.704  13.313
21837W        W87097  28.536  44.179   2.950
21838W        W87098  36.387  21.262   4.635
21839W        W87099  11.222   6.350   4.521
21840W        W87100  43.290  39.013   0.434
21841W        W87101   3.557  23.172  11.752
21842W        W87102   2.064  24.491   9.865
21843W        W87103  14.796  43.040  11.523
21844W        W87104  13.273  43.572   0.370
21845W        W87105  25.712  35.997   3.721
21846W        W87106  28.981  30.908   2.645
21847W        W87107   7.358   5.669   2.947
21848W        W87108  24.264  21.503  11.564
21849W        W87109   0.983  14.563   1.719
21850W        W87110  35.417  40.803  13.784
21851W        W87111  38.561  16.634  12.372
21852W        W87112  33.499  33.871  13.284
21853W        W87113  24.830  22.274  11.109
21854W        W87114  32.929   2.864   1.101
21855W        W87115   7.852   3.443  10.773
21856W        W87116  16.020  42.333   3.185
21857W        W87117   5.103  22.115  13.849
21858W        W87118  22.658   2.676  10.742
21859W        W87119  12.493  15.944  13.514
21860W        W87120  33.102  39.463   3.783
21861W        W87121  43.981  15.283   5.058
21862W        W87122  32.526  20.039  11.641
21863W        W87123  43.325  33.399   0.410
21864W        W87124  18.703  20.715   0.314
21865W        W87125   0.829   4.212  14.361
21866W        W87126  10.677  29.422   4.249
21867W        W87127  18.367   9.303  14.366
21868W        W87128   1.968  24.067  12.104
21869W        W87129   1.832  29.804  13.535
21870W        W87130  32.831  28.517  12.427
21871W        W87131  22.486  42.700   4.541
21872W        W87132  19.275  31.072   4.025
21873W        W87133  38.831  15.181  10.726
21874W        W87134  16.798  32.644  13.990
21875W        W87135   1.261  12.585   9.820
21876W        W87136   4.731  21.120   2.343
21877W        W87137  22.696   0.276   2.008
21878W        W87138  11.457  24.755  14.927
21879W        W87139  24.473  18.709   3.021
21880W        W87140   7.980  25.297   1.140
21881W        W87141  23.926   2.964   3.390
21882W        W87142  10.075  19.466   3.225
21883W        W87143  13.352  39.833   2.774
21884W        W87144  14.772  26.486  12.995
21885W        W87145   7.900  27.767  12.380
21886W        W87146  44.205  20.778   3.132
21887W        W87147  25.419   7.716  14.042
21888W        W87148  32.871  19.230  13.426
21889W        W87149  31.297  26.913  10.672
21890W        W87150  21.921  39.957  13.950
21891W        W87151  15.958  40.854   4.556
21892W        W87152  39.493  36.839   4.543
21893W        W87153  41.784  19.524   1.283
21894W        W87154   2.403  44.071   2.371
21895W        W87155   9.169   1.381   0.368
21896W        W87156  26.342  42.961   0.877
21897W        W87157  25.955  27.031  11.514
21898W        W87158  20.487   0.811  10.769
21899W        W87159  24.192  16.662  13.603
21900W        W87160  39.360  11.320   2.389
21901W        W87161  19.018   9.419   2.219
21902W        W87162   3.485   6.421   0.318
21903W        W87163  32.976  43.612   4.424
21904W        W87164   9.806  18.235   2.694
21905W        W87165  37.921  27.114   3.097
21906W        W87166  36.780   0.162  12.525
21907W        W87167  39.115   2.005   4.850
21908W        W87168  17.735  42.898  10.623
21909W        W87169  25.111  17.046   3.276
21910W        W87170  32.549  16.525   2.216
21911W        W87171  23.971  33.149   5.072
21912W        W87172  39.431  23.634   2.740
21913W        W87173  28.413   1.384   4.535
21914W        W87174  11.527   8.594  11.994
21915W        W87175  14.971  34.467   1.423
21916W        W87176  36.385  31.419  11.249
21917W        W87177  41.949  28.119   0.928
21918W        W87178   0.196  37.772  13.887
21919W        W87179  28.982  28.426   0.761
21920W        W87180  24.583  12.110  11.869
21921W        W87181  32.108  19.353   0.333
21922W        W87182   7.256  21.012   1.333
21923W        W87183  41.825  11.128   4.086
21924W        W87184  21.078   5.458  14.415
21925W        W87185  39.027  11.270   3.794
21926W        W87186  41.364  10.415  13.863
21927W        W87187  41.726  28.448  13.274
21928W        W87188  13.384  28.330   2.279
21929W        W87189  20.099  12.297  14.700
21930W        W87190   7.628  26.898   2.373
21931W        W87191  19.787  40.583  14.428
21932W        W87192  23.686   7.111   1.360
21933W        W87193  24.714  14.352  10.880
21934W        W87194  28.423   8.419   4.556
21935W        W87195   1.100   1.483  12.604
21936W        W87196  18.794  27.185   0.010
21937W        W87197   1.274  25.822   0.245
21938W        W87198  24.162   3.351  14.247
21939W        W87199   7.374  36.025  10.881
21940W        W87200  14.848  28.485   2.664
21941W        W87201  44.581  39.549   3.710
21942W        W87202   8.317  32.849  12.229
21943W        W87203  44.410  24.133  10.700
21944W        W87204  23.133  34.398   4.687
21945W        W87205   8.931  38.610   0.785
21946W        W87206  14.272  36.552   2.163
21947W        W87207  10.853  14.173  13.239
21948W        W87208  15.551  17.091   2.762
21949W        W87209  38.029  27.901   4.052
21950W        W87210  24.242  43.935  12.640
21951W        W87211   5.966  40.575   3.412
21952W        W87212   7.908  10.828  11.729
21953W        W87213  36.407  37.110  13.954
21954W        W87214  23.705  20.601  11.499
21955W        W87215  11.200   2.838   1.395
21956W        W87216  43.431  17.603  11.565
21957W        W87217  18.116  29.564   1.684
21958W        W87218  31.639  14.096  14.836
21959W        W87219  17.810  10.190  10.673
21960W        W87220  39.363   6.832  11.297
21961W        W87221   5.731  20.119   2.395
21962W        W87222  30.710  23.043  11.931
21963W        W87223  30.319  16.867   2.408
21964W        W87224  19.172   6.134  13.955
21965W        W87225  43.802  32.623  14.182
21966W        W87226  30.954  40.415  12.860
21967W        W87227  21.695  20.620   0.342
21968W        W87228  41.038  18.069  12.919
21969W        W87229  16.204  36.479  14.353
21970W        W87230  40.539  30.126   4.107
21971W        W87231  11.335  24.470  11.154
21972W        W87232  38.742  10.161  11.252
21973W        W87233  39.371  13.822  12.376
21974W        W87234   6.291   2.835  10.478
21975W        W87235  11.677   5.024  12.910
21976W        W87236  13.734  12.684   3.666
21977W        W87237  17.086  20.673   0.264
21978W        W87238  42.909  29.138   1.940
21979W        W87239   6.786   0.522   2.809
21980W        W87240  25.096  29.930  14.196
21981W        W87241   2.490  29.577   1.208
21982W        W87242   0.482  12.494   3.667
21983W        W87243  40.092   9.447  11.946
21984W        W87244  44.600  32.565  12.769
21985W        W87245  20.833  12.837  12.491
21986W        W87246  36.391  33.532  11.004
21987W        W87247  37.714  14.626  10.786
21988W        W87248  30.780   2.804  11.543
21989W        W87249  30.982  33.530  12.462
21990W        W87250  26.630  30.897   1.925
21991W        W87251  16.375   5.165  11.977
21992W        W87252  30.563  13.836  13.654
21993W        W87253  26.708  25.011   1.832
21994W        W87254  17.760  39.065  14.724
21995W        W87255  27.493   7.298   1.930
21996W        W87256  32.880   7.906  12.166
21997W        W87257  16.845  22.678   4.051
21998W        W87258  24.763  33.072  11.077
21999W        W87259  42.533  37.098  11.670
22000W        W87260   8.722  30.930   2.711
22001W        W87261  43.988   5.430   2.507
22002W        W87262   5.442  17.767  13.419
22003W        W87263  23.799  44.488  14.985
22004W        W87264   3.263   5.793  13.029
22005W        W87265  15.865   7.712   5.213
22006W        W87266  29.495  25.152   0.749
22007W        W87267  28.855   5.972   3.354
22008W        W87268  21.498  35.492  14.534
22009W        W87269  10.736  11.352  11.148
22010W        W87270   0.476  35.130  11.307
22011W        W87271  12.798  11.172  10.992
22012W        W87272  13.225  11.617   5.057
22013W        W87273  27.881   3.504  11.585
22014W        W87274  43.815  18.005   2.371
22015W        W87275  13.943   8.360  14.255
22016W        W87276   9.781  20.511   3.190
22017W        W87277  38.855  22.776   3.117
22018W        W87278  23.969   4.773  12.743
22019W        W87279  35.295  10.534  13.090
22020W        W87280   6.910  24.767   4.111
22021W        W87281  21.265  29.962   1.421
22022W        W87282   2.198  41.839   0.795
22023W        W87283   8.042   5.886   2.512
22024W        W87284   4.245  11.809   0.701
22025W        W87285  28.236  34.864  14.947
22026W        W87286   7.917  42.350   0.375
22027W        W87287   6.213  33.875  14.053
22028W        W87288  28.574  36.010  12.339
22029W        W87289  43.230  25.766   4.660
22030W        W87290   9.791  23.519   3.693
22031W        W87291  37.360  18.728   2.122
22032W        W87292  17.494  13.714   2.843
22033W        W87293   5.880  10.859   0.430
22034W        W87294  23.896  13.992   0.081
22035W        W87295  26.180  36.862   0.870
22036W        W87296  38.694  35.877   3.327
22037W        W87297  10.502   4.139  10.002
22038W        W87298  34.117  13.115   1.762
22039W        W87299  19.102  16.514  13.613
22040W        W87300  15.604   1.930   0.518
22041W        W87301  13.573   9.840  12.072
22042W        W87302  21.207   8.808  11.574
22043W        W87303  13.770  15.999  12.122
22044W        W87304  37.123  33.167   4.822
22045W        W87305  18.775  28.494  14.329
22046W        W87306   7.282  17.282  11.616
22047W        W87307  18.286  26.055  12.903
22048W        W87308  14.648  12.778  14.899
22049W        W87309  38.980  40.234   1.132
22050W        W87310   8.797   9.868   0.359
22051W        W87311  12.320  20.755  14.477
22052W        W87312  38.289  34.279   0.241
22053W        W87313  24.737  40.528   3.643
22054W        W87314  30.074  23.000  14.702
22055W        W87315   3.540  14.060   4.937
22056W        W87316  16.213   0.249  12.057
22057W        W87317  34.404  40.810  13.619
22058W        W87318  33.090  17.892  11.360
22059W        W87319  33.819   1.768  10.579
22060W        W87320   1.841  32.665  14.727
22061W        W87321  16.054  37.925  12.459
22062W        W87322  38.033  43.881   2.703
22063W        W87323  11.185   2.031  14.314
22064W        W87324   8.225  14.576   4.531
22065W        W87325  33.551   7.314   4.957
22066W        W87326  30.508  29.115   2.414
22067W        W87327  15.640  42.190  11.124
22068W        W87328  19.277  16.537   3.308
22069W        W87329  33.036   1.303  13.352
22070W        W87330  42.481  32.644  12.258
22071W        W87331   7.696  22.236  14.951
22072W        W87332  43.506  27.616   3.030
22073W        W87333  26.405  24.264  12.039
22074W        W87334   9.787  36.084   3.248
22075W        W87335   1.814  31.446   0.630
22076W        W87336  15.554   8.239  10.610
22077W        W87337   1.397  43.520  12.511
22078W        W87338  26.429  38.970  14.489
22079W        W87339  19.625  38.847  11.926
22080W        W87340   3.818  14.765  12.638
22081W        W87341  20.442   5.478  12.494
22082W        W87342   3.714  30.899  12.059
22083W        W87343   5.368   6.704  10.707
22084W        W87344  14.263  33.642  13.804
22085W        W87345   9.852  17.287   0.454
22086W        W87346   9.874  24.382  11.566
22087W        W87347   6.805   2.381   1.254
22088W        W87348  16.590  26.761   1.680
22089W        W87349  22.046   4.848  12.419
22090W        W87350  42.780   1.947   0.376
22091W        W87351   0.454  15.151  10.197
22092W        W87352  42.007  28.188  13.602
22093W        W87353  37.325  32.138   4.552
22094W        W87354  44.134  22.449  11.879
22095W        W87355  41.126  44.426  11.023
22096W        W87356  34.455  38.892   0.346
22097W        W87357  20.742  44.817   3.336
22098W        W87358   2.270  14.619   3.133
22099W        W87359   2.709  32.439   0.637
22100W        W87360  36.308  41.535  11.093
22101W        W87361  21.577  34.093   1.176
22102W        W87362  38.917  37.077  13.761
22103W        W87363   7.667  22.580   2.213
22104W        W87364  15.505  33.839   4.839
22105W        W87365  39.444  22.289   1.166
22106W        W87366  37.694  16.637  14.804
22107W        W87367   9.268  20.079  14.258
22108W        W87368  10.735  21.941  11.902
22109W        W87369  33.546   9.223   4.680
22110W        W87370   6.778  11.779  12.531
22111W        W87371  26.497  39.973  14.777
22112W        W87372  31.514  12.234   4.707
22113W        W87373  28.507  20.184  10.721
22114W        W87374  36.495  30.902   4.565
22115W        W87375   7.885  42.656  14.509
22116W        W87376  42.679   2.453   1.303
22117W        W87377  24.935  12.005  14.944
22118W        W87378   9.217   8.380  13.448
22119W        W87379   0.769  24.017  13.836
22120W        W87380  28.040  30.276  13.681
22121W        W87381  14.627  17.635   1.739
22122W        W87382  37.800  39.383   1.138
22123W        W87383  20.527  33.549  11.843
22124W        W87384  13.662   6.521  14.321
22125W        W87385  12.249  42.350  14.249
22126W        W87386  36.030  30.600   4.466
22127W        W87387  20.049   5.680   4.328
22128W        W87388  26.998  18.268  11.706
22129W        W87389  35.422  35.413   0.894
22130W        W87390  42.576  36.346  12.181
22131W        W87391  26.136  28.898   4.575
22132W        W87392   5.233   8.138   2.741
22133W        W87393  19.132   7.662   3.222
22134W        W87394  28.512  32.412  14.269
22135W        W87395   7.678  36.406   1.693
22136W        W87396  37.950   7.703   0.006
22137W        W87397  44.780  35.897   2.394
22138W        W87398  25.820   2.877  10.730
22139W        W87399  39.726  41.425  14.281
22140W        W87400  34.940   5.392   2.928
22141W        W87401   9.293   3.385   1.537
22142W        W87402  20.903   9.958   5.068
22143W        W87403  42.532  27.208   3.739
22144W        W87404  32.301  25.116   2.293
22145W        W87405  32.859   1.985  12.614
22146W        W87406   9.025   9.313  11.841
22147W        W87407  25.277  25.238   4.559
22148W        W87408  27.936  41.808   0.269
22149W        W87409   1.225   5.206  13.345
22150W        W87410  21.476  44.516   0.022
22151W        W87411  29.251   9.884  11.918
22152W        W87412   4.477  40.066   3.288
22153W        W87413  36.673   2.128  11.717
22154W        W87414  36.417   7.098   2.304
22155W        W87415  43.408  37.902  11.935
22156W        W87416  30.471  37.753  10.650
22157W        W87417   5.431  41.705  14.434
22158W        W87418  30.101   1.237   0.903
22159W        W87419  11.167  23.003   4.179
22160W        W87420  34.366   1.583   5.541
22161W        W87421  26.882  27.673   1.327
22162W        W87422  17.345  18.369  10.695
22163W        W87423  10.405  42.112  11.152
22164W        W87424  19.939  26.068   0.530
22165W        W87425   9.115  39.082  13.623
22166W        W87426  15.765  10.909   2.438
22167W        W87427  42.267  18.215  12.034
22168W        W87428   3.942  43.376   3.689
22169W        W87429  31.559  21.732   4.098
22170W        W87430  32.447   8.243   1.687
22171W        W87431  44.895  14.844  11.292
22172W        W87432   8.312   9.129   4.286
22173W        W87433  23.017   1.796  11.987
22174W        W87434  19.700  27.594   2.668
22175W        W87435   1.259  23.548  14.854
22176W        W87436  18.809   5.032  12.287
22177W        W87437   3.803  43.318  11.688
22178W        W87438  35.332  31.373  12.123
22179W        W87439   1.525  11.164  10.213
22180W        W87440  11.877  14.604   1.650
22181W        W87441  36.841  33.595  10.756
22182W        W87442  30.043  19.968  10.339
22183W        W87443  23.054  18.079  11.511
22184W        W87444  35.644  16.867  11.176
22185W        W87445  26.649  32.446  13.680
22186W        W87446   3.281  16.020  11.074
22187W        W87447   2.677  39.772   0.283
22188W        W87448   1.200  22.439   1.332
22189W        W87449  31.476  28.905  10.410
22190W        W87450  15.494  28.245  13.828
22191W        W87451  40.060   7.451   1.771
22192W        W87452  40.060  32.684   4.070
22193W        W87453  12.841  21.876   3.102
22194W        W87454   6.708  34.536   3.294
22195W        W87455   0.857  14.672   4.193
22196W        W87456  10.813  27.206   3.190
22197W        W87457  41.017  13.409   4.601
22198W        W87458  14.241  39.441   2.291
22199W        W87459   5.266  13.401  13.969
22200W        W87460  15.615  11.687   1.691
22201W        W87461  26.695  13.846   0.012
22202W        W87462  42.013   1.267   4.393
22203W        W87463   7.745  43.892  11.411
22204W        W87464  29.726   1.502  10.795
22205W        W87465  12.416  24.587   0.769
22206W        W87466  36.345  15.937   2.779
22207W        W87467  10.120  17.668  12.649
22208W        W87468  11.816  33.378  13.986
22209W        W87469  36.985  32.900   4.371
22210W        W87470  21.257  39.776  10.270
22211W        W87471  15.619  12.739   0.723
22212W        W87472   9.204  40.626   1.674
22213W        W87473  42.449  41.941  12.909
22214W        W87474  14.119   8.225   2.834
22215W        W87475  10.710   0.231   2.980
22216W        W87476  11.145  26.203  12.797
22217W        W87477  27.028  38.474   9.985
22218W        W87478  29.115  41.047   4.281
22219W        W87479  39.469  32.043  14.824
22220W        W87480   0.276  10.703   0.521
22221W        W87481  15.247  25.467   2.838
22222W        W87482   1.257  17.236  10.707
22223W        W87483  22.579  31.039   2.878
22224W        W87484  38.018  14.388   3.311
22225W        W87485  42.660  34.967   2.557
22226W        W87486  38.149   0.388  13.277
22227W        W87487  30.499  25.411  12.033
22228W        W87488  17.467  13.136   0.667
22229W        W87489  43.541  44.863  12.089
22230W        W87490   4.619  29.386   3.694
22231W        W87491   8.738   2.815   1.173
22232W        W87492  23.874  20.357  10.779
22233W        W87493  32.413  36.818   3.303
22234W        W87494  30.430   5.458   3.475
22235W        W87495  25.108  23.559  11.947
22236W        W87496  31.796  12.561  10.687
22237W        W87497  25.256  39.892   0.512
22238W        W87498   3.440  38.350  11.146
22239W        W87499  30.484  17.439  13.313
22240W        W87500  29.047  32.524   1.386
22241W        W87501  40.719  44.987  10.595
22242W        W87502  23.683  15.013   3.384
22243W        W87503  33.800   3.639   2.812
22244W        W87504  28.413   7.035  10.835
22245W        W87505   6.649  15.378   4.115
22246W        W87506  40.435   8.249   4.107
22247W        W87507  39.500  44.796   0.469
22248W        W87508  17.205  23.005   4.340
22249W        W87509  39.138  44.490   3.660
22250W        W87510  11.727  39.541  14.277
22251W        W87511  23.736   5.291  12.662
22252W        W87512  36.047  26.645   0.725
22253W        W87513  36.123   4.819  10.773
22254W        W87514  12.117  25.241  12.080
22255W        W87515   2.579  31.991   3.371
22256W        W87516  38.161  37.482  12.543
22257W        W87517  26.376   3.906  12.576
22258W        W87518   2.557  41.487  10.819
22259W        W87519   2.479  20.246  13.410
22260W        W87520   1.291  16.765   2.295
22261W        W87521  24.722   3.521   0.480
22262W        W87522  10.366  17.649  13.970
22263W        W87523  12.849  37.577  11.480
22264W        W87524  31.341  24.538   0.904
22265W        W87525  44.565  22.581  12.258
22266W        W87526  38.766  24.427  12.723
22267W        W87527  23.973  20.519   2.900
22268W        W87528   0.113  16.679  11.123
22269W        W87529  10.780   0.763   1.769
22270W        W87530  19.674  10.109  11.343
22271W        W87531  15.272  16.712  12.570
22272W        W87532   7.172  19.928  13.363
22273W        W87533  17.805  38.557  13.810
22274W        W87534  30.602  24.834   1.250
22275W        W87535  16.724  39.365  14.469
22276W        W87536   2.447   3.447  13.298
22277W        W87537  11.637  13.135   3.578
22278W        W87538   2.863  30.857   4.764
22279W        W87539  42.700  40.924  13.059
22280W        W87540   5.661  34.044  11.595
22281W        W87541  16.806  15.979   1.573
22282W        W87542  32.054  10.683  14.939
22283W        W87543   2.521  18.683  10.713
22284W        W87544  35.340  37.669   2.662
22285W        W87545  39.300  11.287   3.331
22286W        W87546   0.800  10.859  14.745
22287W        W87547  30.936  23.326  14.569
22288W        W87548  13.652  41.003  14.467
22289W        W87549   9.152  12.502  11.520
22290W        W87550  36.175  36.455  14.309
22291W        W87551  15.042  44.276   0.592
22292W        W87552  42.156  15.052  13.342
22293W        W87553  40.915  17.486  13.869
22294W        W87554  43.967   1.293  11.126
22295W        W87555   1.444  19.706   4.508
22296W        W87556  41.849  26.366  14.909
22297W        W87557  32.746  43.703  11.022
22298W        W87558  23.012   1.794   2.837
22299W        W87559  33.945  43.047   3.025
22300W        W87560  43.008  33.654   1.674
22301W        W87561  41.836  42.488   2.501
22302W        W87562  33.813  30.148   3.187
22303W        W87563  30.984   7.697  12.166
22304W        W87564  34.539  43.940  12.974
22305W        W87565  29.062   1.423   2.148
22306W        W87566  28.599  37.013  12.662
22307W        W87567  26.403  15.312   0.817
22308W        W87568   5.991  42.850  13.971
22309W        W87569  11.283  36.311  14.523
22310W        W87570  22.090  25.192  13.475
22311W        W87571  18.303  31.443  10.515
22312W        W87572  15.815  34.586  13.525
22313W        W87573   3.950  28.105   3.128
22314W        W87574  35.621  16.363  11.110
22315W        W87575  41.095   3.329  11.417
22316W        W87576   7.502  29.293  11.670
22317W        W87577   8.970  13.196   1.827
22318W        W87578  10.071  18.109  11.899
22319W        W87579  41.081  15.478   1.277
22320W        W87580  11.794   9.300   2.993
22321W        W87581  34.999  11.213   0.480
22322W        W87582   7.860   8.832   1.291
22323W        W87583   0.900  43.961   4.066
22324W        W87584  18.163  31.239   0.401
22325W        W87585  40.810  23.332   0.424
22326W        W87586  21.078  40.059   3.012
22327W        W87587  39.859   8.441   1.752
22328W        W87588  36.003  16.716  10.729
22329W        W87589  22.576  19.540  13.927
22330W        W87590  10.241  14.924  13.541
22331W        W87591  14.848  25.537  12.313
22332W        W87592  40.771   6.579   0.835
22333W        W87593  21.568  31.587  12.734
22334W        W87594  36.562  18.850  10.075
22335W        W87595  11.512  41.317  12.826
22336W        W87596  44.862  32.025   4.568
22337W        W87597  21.750   7.589   2.592
22338W        W87598  21.068  24.181   3.627
22339W        W87599  15.404  18.780  10.232
22340W        W87600  17.769  26.604  11.383
22341W        W87601  35.346  16.116   4.607
22342W        W87602  39.274  17.886   2.137
22343W        W87603   4.248  43.208   0.299
22344W        W87604  38.864  19.675   2.121
22345W        W87605  13.652  15.808  13.885
22346W        W87606   6.835  36.622  10.452
22347W        W87607   6.307  17.639   2.597
22348W        W87608  22.737   4.346  12.610
22349W        W87609   5.810  25.927   1.348
22350W        W87610   4.740   8.423   3.724
22351W        W87611   0.612  43.517  11.356
22352W        W87612  39.517  19.788   4.531
22353W        W87613  37.466  20.032   3.805
22354W        W87614  30.053  29.032  11.705
22355W        W87615  11.607  27.358  10.615
22356W        W87616  31.060   4.255  14.540
22357W        W87617  39.889  41.278  13.491
22358W        W87618  43.998  11.715   1.523
22359W        W87619  20.519  32.136   3.384
22360W        W87620  15.658   2.908  10.753
22361W        W87621  39.489  22.137  14.175
22362W        W87622  32.923  22.519   0.688
22363W        W87623  25.720  31.015  11.887
22364W        W87624  41.759  24.094  11.953
22365W        W87625   5.359  13.859  12.950
22366W        W87626  31.072  29.381  13.939
22367W        W87627  29.929  18.977  11.972
22368W        W87628  15.042  41.415   5.107
22369W        W87629  39.543   6.915   2.203
22370W        W87630  19.008  27.129  11.417
22371W        W87631  33.011  41.697  14.024
22372W        W87632  29.016  24.614   3.062
22373W        W87633  20.255  31.606  11.036
22374W        W87634  37.838  41.985  12.100
22375W        W87635  22.459  13.833   3.689
22376W        W87636  44.743  26.589   1.845
22377W        W87637  33.974  21.178   0.026
22378W        W87638  26.617  30.399  11.453
22379W        W87639  39.509  24.132   1.774
22380W        W87640  33.115  19.796   3.866
22381W        W87641  41.467  20.233  12.061
22382W        W87642  42.415  15.998   1.964
22383W        W87643  31.879  33.389   2.887
22384W        W87644  20.114   6.061   4.010
22385W        W87645  23.201  44.631  14.436
22386W        W87646  34.154  14.657   3.542
22387W        W87647  26.681  36.190  14.439
22388W        W87648   2.488  22.933   0.377
22389W        W87649  34.608  29.933  12.038
22390W        W87650   9.118   8.741   3.139
22391W        W87651  35.141  20.023  14.015
22392W        W87652  27.642  20.870  11.695
22393W        W87653  33.576  28.680   2.267
22394W        W87654   6.483  31.528   0.899
22395W        W87655  34.924   9.876   2.883
22396W        W87656  32.089  32.453  14.811
22397W        W87657   3.310  28.676   0.703
22398W        W87658  15.562  21.590  12.029
22399W        W87659  17.113   6.049   1.940
22400W        W87660  22.834   8.328  13.527
22401W        W87661  11.396  20.136   3.355
22402W        W87662  12.631  40.584   2.307
22403W        W87663  40.903   1.075  11.127
22404W        W87664  44.764   3.173  12.988
22405W        W87665  17.590  28.468   3.633
22406W        W87666   0.345  19.502  11.581
22407W        W87667  30.568  16.733  14.037
22408W        W87668  13.372  19.693   3.189
22409W        W87669   7.286   2.239   4.563
22410W        W87670  13.784  16.577  14.652
22411W        W87671  13.267  27.082  12.636
22412W        W87672   4.325  14.679  12.497
22413W        W87673  28.158  28.004  11.934
22414W        W87674  32.824  23.256   4.531
22415W        W87675   5.786  35.136   2.639
22416W        W87676  42.975  16.331  10.817
22417W        W87677  15.556  28.430   4.629
22418W        W87678   6.381   5.484   2.927
22419W        W87679  35.826  35.817  13.923
22420W        W87680  14.784   4.493   1.791
22421W        W87681  32.798  39.817   4.884
22422W        W87682  13.502  22.345  13.105
22423W        W87683   6.880   3.992  12.973
22424W        W87684   6.749  36.459  10.928
22425W        W87685  25.556  19.807   4.259
22426W        W87686  27.760  19.779   4.663
22427W        W87687  24.228   7.313   3.680
22428W        W87688  41.373  39.838   3.615
22429W        W87689   5.138  30.641  12.798
22430W        W87690   2.746   9.887   2.406
22431W        W87691  36.386  40.996   4.308
22432W        W87692  37.578  25.048   1.562
22433W        W87693  39.465  43.269   0.283
22434W        W87694  35.508  25.722  10.686
22435W        W87695  19.679  35.013  10.738
22436W        W87696  31.273   8.771  10.688
22437W        W87697   9.861  20.650   4.710
22438W        W87698  13.662   8.243   3.159
22439W        W87699  21.026  12.629   4.503
22440W        W87700  17.021   5.165   3.726
22441W        W87701  39.610  40.355   3.214
22442W        W87702  29.390  15.869  14.616
22443W        W87703  26.391   9.294   1.773
22444W        W87704   9.850  34.468  14.538
22445W        W87705  34.913  18.324  14.970
22446W        W87706  42.385  38.579  12.409
22447W        W87707  11.637  20.632  11.914
22448W        W87708  11.365  34.911   1.882
22449W        W87709   0.264  42.315   1.657
22450W        W87710  15.344   9.107   4.445
22451W        W87711  34.649  37.389  14.486
22452W        W87712  16.075  29.890   2.314
22453W        W87713  21.204  44.058   3.555
22454W        W87714   5.650  23.014   2.640
22455W        W87715  25.177  29.720   3.664
22456W        W87716  34.141  16.603  11.671
22457W        W87717  11.387  18.519   1.154
22458W        W87718  16.213  21.304   4.741
22459W        W87719  12.890  21.619  12.446
22460W        W87720  19.780  25.737  14.305
22461W        W87721  40.925  29.510  11.666
22462W        W87722  40.415  22.193  13.479
22463W        W87723  37.330  33.608   3.141
22464W        W87724  36.903  36.573   3.300
22465W        W87725  32.098  20.532  13.525
22466W        W87726  22.050  23.932  10.655
22467W        W87727  38.980   9.710  13.464
22468W        W87728  25.812  15.911   5.221
22469W        W87729  27.129  40.449  12.015
22470W        W87730  20.337  20.135  12.522
22471W        W87731  14.693   0.270   2.390
22472W        W87732   3.531  29.794  13.340
22473W        W87733  41.251  29.655   0.436
22474W        W87734  34.476  10.288   3.633
22475W        W87735  41.955  33.674   1.145
22476W        W87736  35.600   8.173   4.080
22477W        W87737  43.059  39.382   4.224
22478W        W87738  24.513  22.692   5.468
22479W        W87739  13.596  15.539   0.931
22480W        W87740  15.661  18.748   0.781
22481W        W87741  27.463  31.231   3.099
22482W        W87742  44.528  26.504  11.964
22483W        W87743   2.752   5.943  12.110
22484W        W87744  31.090  10.775  11.491
22485W        W87745  18.264  40.804  12.126
22486W        W87746   0.818  44.244  12.455
22487W        W87747   8.217  29.992  10.656
22488W        W87748  31.224   7.732  13.218
22489W        W87749  20.469  44.758   4.687
22490W        W87750  25.154  37.962   1.907
22491W        W87751  16.741  22.164  12.111
22492W        W87752   1.995  32.106   0.352
22493W        W87753  14.826   9.704  14.489
22494W        W87754  17.319  18.654  10.268
22495W        W87755  13.080   4.887  13.122
22496W        W87756   0.974  31.758  13.984
22497W        W87757  36.166  39.328  11.199
22498W        W87758  30.385  32.112  10.484
22499W        W87759   4.477  35.631   1.844
22500W        W87760  36.331  29.190   4.693
22501W        W87761  17.262  23.210  14.440
22502W        W87762  41.759  15.274   4.247
22503W        W87763  27.174  32.649   1.939
22504W        W87764  13.810  41.110   4.088
22505W        W87765   6.465  41.560   2.768
22506W        W87766  33.903  15.963  11.080
22507W        W87767   4.922  32.048   1.643
22508W        W87768  41.027  41.072  13.819
22509W        W87769  21.719  12.274  12.269
22510W        W87770  28.003  23.976  13.338
22511W        W87771   3.444   5.123  13.831
22512W        W87772  43.179  43.536   2.772
22513W        W87773  14.725   9.859   3.332
22514W        W87774  43.242  22.943   3.693
22515W        W87775  21.248  43.493  14.917
22516W        W87776  41.530  42.986  10.619
22517W        W87777  26.241  28.477  11.474
22518W        W87778  14.221   9.001   0.326
22519W        W87779   9.767  41.294   0.360
22520W        W87780  22.234  22.010  12.511
22521W        W87781  18.624  42.898   0.648
22522W        W87782  30.895  43.269  11.019
22523W        W87783  32.223  37.851  14.438
22524W        W87784  22.614   1.525   3.744
22525W        W87785  43.980  31.132   0.316
22526W        W87786  43.401   2.871   1.279
22527W        W87787  11.352  19.056   1.174
22528W        W87788  15.798  28.217  12.546
22529W        W87789  43.283  43.970   0.746
22530W        W87790  34.319  25.001   1.122
22531W        W87791  33.091  21.074  13.087
22532W        W87792  11.567  11.975  11.409
22533W        W87793  21.280   8.497  10.266
22534W        W87794  40.676  11.129  12.810
22535W        W87795  38.119  39.753  13.738
22536W        W87796  12.369  26.853  11.170
22537W        W87797  35.766  44.894  13.743
22538W        W87798  33.599  35.972  13.584
22539W        W87799  13.139  41.759  11.671
22540W        W87800  33.744   6.723  13.920
22541W        W87801  23.963  15.890  14.958
22542W        W87802  26.760  19.353  13.945
22543W        W87803  35.142   9.774   3.383
22544W        W87804  33.593   6.978   3.671
22545W        W87805  34.280  37.006   2.217
22546W        W87806  28.459   1.568  11.974
22547W        W87807   8.177  44.956   3.305
22548W        W87808   5.446  43.466   3.619
22549W        W87809  21.571  12.833  11.156
22550W        W87810  41.094  38.818  10.769
22551W        W87811   1.760  15.851   2.235
22552W        W87812  31.965  20.067   3.168
22553W        W87813  15.831  32.896  12.968
22554W        W87814   6.373  16.290   2.436
22555W        W87815   8.899  44.926   1.189
22556W        W87816  19.694  40.827   3.359
22557W        W87817  14.247  27.112   4.818
22558W        W87818  32.832  39.024  12.084
22559W        W87819   0.291  16.274   4.889
22560W        W87820  25.944  33.893  10.212
22561W        W87821  22.609  13.849  13.567
22562W        W87822  13.311  41.514  10.196
22563W        W87823  37.037   4.477  11.550
22564W        W87824  17.597  23.121  12.927
22565W        W87825  40.259  38.493  13.160
22566W        W87826  27.826  44.264  12.096
22567W        W87827   9.139   1.468   3.277
22568W        W87828  34.194  11.202   1.782
22569W        W87829  12.698  34.513   0.581
22570W        W87830  35.871  33.934  11.613
22571W        W87831   0.456   2.278   1.439
22572W        W87832  14.826  44.491  14.786
22573W        W87833  19.240  31.925   2.528
22574W        W87834  21.241  31.487  13.106
22575W        W87835  32.030   9.242   0.556
22576W        W87836  28.588  14.602  12.054
22577W        W87837   8.784  42.241  13.130
22578W        W87838   8.667  13.706   1.178
22579W        W87839  23.652  39.887   3.258
22580W        W87840  38.090  31.917  10.695
22581W        W87841  38.332  11.706   4.575
22582W        W87842  22.661  17.282   3.160
22583W        W87843  36.652  37.338  13.490
22584W        W87844  18.165  23.841  14.858
22585W        W87845  31.039  10.638  10.981
22586W        W87846  22.590  18.964  13.077
22587W        W87847  28.746  17.365   4.227
22588W        W87848  28.117   2.827  13.907
22589W        W87849  16.631   9.629  13.490
22590W        W87850   7.684  24.576   2.798
22591W        W87851  20.661  23.694   2.894
22592W        W87852   2.305   5.726  12.085
22593W        W87853  43.198   5.482  14.995
22594W        W87854  22.022   7.773   3.791
22595W        W87855  36.307  23.100  12.060
22596W        W87856  28.340   7.167  14.878
22597W        W87857  36.529  39.504   3.120
22598W        W87858  44.893  44.862  11.885
22599W        W87859   1.807   7.332   4.198
22600W        W87860  18.016   0.883   0.807
22601W        W87861   7.281  26.024  14.290
22602W        W87862  40.993  43.336  14.369
22603W        W87863  20.530  33.439   4.648
22604W        W87864  15.561  18.866   4.559
22605W        W87865  10.818  18.917   3.312
22606W        W87866   6.883  14.207   1.190
22607W        W87867   0.434  41.340  11.276
22608W        W87868  15.832  43.250  11.918
22609W        W87869   8.426  27.125   1.279
22610W        W87870  14.265  13.586  10.936
22611W        W87871  42.827  41.321  13.844
22612W        W87872  11.588  41.136   0.952
22613W        W87873  10.453   4.735   0.515
22614W        W87874   2.018  24.677  14.773
22615W        W87875  43.033  44.326  13.822
22616W        W87876  40.568  28.694   1.329
22617W        W87877  18.558  41.053  10.706
22618W        W87878  21.270  38.473   3.148
22619W        W87879  25.954  43.005  11.622
22620W        W87880  23.524   9.198  10.593
22621W        W87881  25.840  25.455   3.177
22622W        W87882  21.232  42.337  14.208
22623W        W87883   2.893  39.316   0.298
22624W        W87884  16.054   1.291  12.933
22625W        W87885  14.100   1.504   0.256
22626W        W87886  11.790   5.864  14.573
22627W        W87887  32.504  26.102   0.706
22628W        W87888  39.954   4.427  14.308
22629W        W87889   6.891  21.108   4.678
22630W        W87890   6.661  40.893   2.434
22631W        W87891  30.643  31.146   2.921
22632W        W87892   1.782   0.766   2.156
22633W        W87893  14.362   6.384  10.464
22634W        W87894   2.424  17.481   4.461
22635W        W87895   2.300  13.173  12.314
22636W        W87896  34.649  25.374   5.480
22637W        W87897  18.426  44.450  10.269
22638W        W87898  13.313  22.056   2.825
22639W        W87899   1.793   0.630  14.011
22640W        W87900  35.625  24.726   5.023
22641W        W87901  22.638  12.335   1.010
22642W        W87902  31.741   8.608   3.473
22643W        W87903  19.445  11.722   0.913
22644W        W87904  29.853  44.533   0.137
22645W        W87905  38.036  21.142  10.595
22646W        W87906  27.116  23.948  10.819
22647W        W87907  25.051   5.713  13.039
22648W        W87908  12.145  38.362  10.754
22649W        W87909  21.308  27.102   2.663
22650W        W87910  17.657   2.045   0.882
22651W        W87911   2.270  41.317   0.729
22652W        W87912  10.229   2.574   0.447
22653W        W87913  21.106  13.547  10.720
22654W        W87914  15.218  41.512  13.905
22655W        W87915   0.494   2.769  12.472
22656W        W87916   2.937  34.411  13.329
22657W        W87917   5.666  15.098  13.805
22658W        W87918  25.508  14.758  11.188
22659W        W87919  37.944  22.305   3.284
22660W        W87920   4.404  29.346  11.061
22661W        W87921  27.974  32.782  13.121
22662W        W87922  39.258  42.542  11.257
22663W        W87923   0.742  10.583  14.295
22664W        W87924  23.669  25.630  10.741
22665W        W87925  23.099   9.355  13.557
22666W        W87926   3.299  37.498  11.583
22667W        W87927  37.264   5.333   0.786
22668W        W87928  20.976  15.673  13.184
22669W        W87929  28.400   6.716   3.748
22670W        W87930  22.965  43.241  12.630
22671W        W87931  27.551  25.874   4.432
22672W        W87932  18.602   0.986   1.243
22673W        W87933  25.124  26.868  11.147
22674W        W87934   5.776   5.232  10.690
22675W        W87935   8.336  11.168  10.699
22676W        W87936  12.829  31.535  11.290
22677W        W87937  28.740  27.468  12.419
22678W        W87938  25.974  34.123  12.613
22679W        W87939  26.475  20.200  10.675
22680W        W87940  27.867  28.944   4.914
22681W        W87941  17.406  23.562   1.432
22682W        W87942  27.014  39.481   1.386
22683W        W87943  31.108  31.517   1.180
22684W        W87944  31.620   0.858   4.056
22685W        W87945  32.445  37.796   1.725
22686W        W87946  30.974   9.493  13.945
22687W        W87947  39.894  31.937  13.358
22688W        W87948   6.680  23.148  14.945
22689W        W87949  35.476  35.115   4.291
22690W        W87950   7.733  27.249  12.577
22691W        W87951  22.527  24.570  11.104
22692W        W87952  40.366  38.314   1.679
22693W        W87953  39.969  36.124   1.470
22694W        W87954  33.127  20.620   0.378
22695W        W87955  32.856  16.859  14.492
22696W        W87956  27.397  37.542   1.177
22697W        W87957  39.442  17.064  14.569
22698W        W87958  38.538  16.311   2.654
22699W        W87959  29.193  24.187   4.099
22700W        W87960  38.924  28.436   3.134
22701W        W87961  35.042   2.885  13.851
22702W        W87962  32.871  27.322  12.950
22703W        W87963  38.956   8.177  14.703
22704W        W87964  44.169  25.089  14.857
22705W        W87965   4.242   7.525  12.005
22706W        W87966  30.949  32.652   0.454
22707W        W87967  19.970  35.858   5.301
22708W        W87968  35.286  26.587  13.799
22709W        W87969   6.725  42.979  11.187
22710W        W87970  14.618  20.599  14.781
22711W        W87971  41.530  29.219   4.193
22712W        W87972  16.214  13.544  11.591
22713W        W87973  15.487  15.235   0.231
22714W        W87974   8.025  44.756  14.498
22715W        W87975  14.348  25.933  10.531
22716W        W87976   7.787  10.218  13.968
22717W        W87977  13.966  43.833  10.408
22718W        W87978  40.903  38.850   1.955
22719W        W87979  18.094  34.035   0.417
22720W        W87980   7.237  21.995   2.239
22721W        W87981  18.058  38.340   3.398
22722W        W87982   4.376  21.750   0.782
22723W        W87983  35.048  14.082   3.426
22724W        W87984  33.476   8.813  12.481
22725W        W87985   7.496   5.948   2.523
22726W        W87986  37.117  39.105   4.113
22727W        W87987  32.438  29.509  10.718
22728W        W87988  42.061   7.899  10.445
22729W        W87989   5.871  23.103  11.232
22730W        W87990  19.024  19.997  12.923
22731W        W87991  25.963  34.943   1.171
22732W        W87992   5.344   1.373   4.092
22733W        W87993   1.645  35.542  11.956
22734W        W87994   9.860  20.740   2.690
22735W        W87995  33.770  43.293   3.708
22736W        W87996  16.301  15.718   4.803
22737W        W87997  11.208  37.976  11.661
22738W        W87998   4.398  38.187  14.047
22739W        W87999  17.622  30.866   3.280
22740W        W88000  18.674  32.324   2.791
22741W        W88001  22.011  14.775  12.034
22742W        W88002  29.457  44.734  13.469
22743W        W88003  36.442  24.916  10.882
22744W        W88004  34.278   6.557  12.495
22745W        W88005   0.928  16.319  12.685
22746W        W88006  24.965  43.979  10.500
22747W        W88007  17.736  13.833   3.702
22748W        W88008  31.816  44.426   2.839
22749W        W88009   5.912  37.875   1.382
22750W        W88010  39.053  39.576  11.090
22751W        W88011  25.608  36.923  13.758
22752W        W88012  31.119  35.969  11.169
22753W        W88013  16.151  27.024   2.325
22754W        W88014  28.034  18.861   3.811
22755W        W88015  43.295  37.904  11.431
22756W        W88016  44.296   9.670  11.166
22757W        W88017  27.920  32.502   2.859
22758W        W88018  28.362   9.642  11.642
22759W        W88019   9.198  15.672   4.119
22760W        W88020   2.912  33.934   1.896
22761W        W88021  31.574  18.695   3.297
22762W        W88022  24.266   1.063  13.922
22763W        W88023  33.632  35.039  13.274
22764W        W88024   2.896  35.572  12.444
22765W        W88025  31.983   4.904   2.382
22766W        W88026   5.728  10.685   4.796
22767W        W88027  14.740  15.399  12.792
22768W        W88028  12.710  28.684  13.344
22769W        W88029  34.554  10.369   2.755
22770W        W88030  34.091  35.121  12.973
22771W        W88031  39.514  35.039   0.270
22772W        W88032  22.918   5.923   1.243
22773W        W88033  41.036  16.207   0.848
22774W        W88034  36.752   3.971  13.990
22775W        W88035  34.791  38.948   4.648
22776W        W88036  12.214  24.258   2.822
22777W        W88037  10.757  30.412   1.205
22778W        W88038  14.364  23.931   3.833
22779W        W88039   3.921  14.306  13.946
22780W        W88040  34.984  28.229   5.034
22781W        W88041  13.650  25.819   2.094
22782W        W88042  17.269  25.165   3.686
22783W        W88043  11.685  34.453  13.757
22784W        W88044  31.216  11.247  11.659
22785W        W88045   9.495   3.629   3.340
22786W        W88046  33.648  44.581  10.551
22787W        W88047  11.382  15.675  10.676
22788W        W88048   5.704  29.705  13.013
22789W        W88049  19.141  33.437   3.911
22790W        W88050  42.509  19.924  11.357
22791W        W88051  32.022  32.881  13.017
22792W        W88052  12.163  31.151   2.765
22793W        W88053  21.193  26.719   0.279
22794W        W88054   9.884  11.805  14.948
22795W        W88055   8.627  33.362  10.561
22796W        W88056  28.997   3.226   1.817
22797W        W88057  17.395  29.162  10.726
22798W        W88058  36.576  18.213   3.236
22799W        W88059   0.171   1.852   0.431
22800W        W88060  24.913   9.364  12.967
22801W        W88061  22.230  38.116  12.155
22802W        W88062  41.283   3.173  11.958
22803W        W88063  14.875   0.226   0.356
22804W        W88064  18.326  14.685  11.153
22805W        W88065  42.795  28.682  10.999
22806W        W88066  39.362  10.747   4.493
22807W        W88067  10.199   0.702   2.099
22808W        W88068  13.219  30.257  12.865
22809W        W88069  16.625  44.424   1.223
22810W        W88070  16.615   4.181  12.983
22811W        W88071  41.874  18.484   1.283
22812W        W88072   0.339   0.369   4.644
22813W        W88073  30.911  20.674   3.869
22814W        W88074  40.269  33.333   1.245
22815W        W88075   1.865   6.832  13.157
22816W        W88076  14.614  31.827   0.775
22817W        W88077  18.986  24.154   4.543
22818W        W88078  16.117  43.079  13.024
22819W        W88079  35.471  17.269   1.427
22820W        W88080  18.834  30.241   3.666
22821W        W88081   5.792  26.449   2.263
22822W        W88082  12.724  10.720   4.075
22823W        W88083  23.194  11.139   4.416
22824W        W88084  39.866   3.677   1.290
22825W        W88085  25.315  23.982  10.067
22826W        W88086   2.156  23.508  13.407
22827W        W88087  11.712  29.245  13.374
22828W        W88088  11.786  12.057  10.942
22829W        W88089  40.315  17.500   0.430
22830W        W88090   2.324   5.975  12.961
22831W        W88091  19.361  20.090   3.501
22832W        W88092   7.384  26.381   3.674
22833W        W88093  12.399  17.687  14.092
22834W        W88094   3.256   8.594   2.280
22835W        W88095  14.369   2.828  14.101
22836W        W88096   2.396  39.231   1.103
22837W        W88097  33.220  15.827  10.116
22838W        W88098  24.071  22.576   5.178
22839W        W88099  30.800   2.725  10.651
22840W        W88100  44.298  36.857  11.487
22841W        W88101   1.373  42.966   3.683
22842W        W88102  22.967  15.103   0.437
22843W        W88103   3.391  21.322   2.296
22844W        W88104  40.933   0.304   4.635
22845W        W88105  44.446  27.669   0.432
22846W        W88106   1.102  12.908   4.686
22847W        W88107  37.778  29.106   3.716
22848W        W88108  44.181  14.644   1.322
22849W        W88109  39.932  13.386  10.727
22850W        W88110  19.570   3.845   3.697
22851W        W88111  41.570  13.743  10.957
22852W        W88112  35.571  29.100  13.724
22853W        W88113   7.685  37.056  14.981
22854W        W88114  44.927  40.964   0.771
22855W        W88115  14.576  29.144   1.327
22856W        W88116  11.567  44.483  11.997
22857W        W88117  29.136  40.581  11.513
22858W        W88118  42.808  29.208  13.856
22859W        W88119   8.463  17.119  14.192
22860W        W88120   6.435  15.390  10.624
22861W        W88121  34.905  39.529  14.828
22862W        W88122   5.116  16.259   4.622
22863W        W88123  39.257  21.326   4.920
22864W        W88124  28.726  32.068   9.868
22865W        W88125  39.840  23.474  13.935
22866W        W88126   0.910  26.337  13.057
22867W        W88127   2.431  22.765   3.341
22868W        W88128   5.009  39.013  13.479
22869W        W88129  28.313  36.294  10.947
22870W        W88130  34.394  31.166  11.436
22871W        W88131   4.220  21.987  13.821
22872W        W88132  39.814  30.947   0.467
22873W        W88133  13.280  13.424  13.980
22874W        W88134  14.665   2.249   3.405
22875W        W88135   1.332  18.205  10.489
22876W        W88136  12.444   7.472   0.564
22877W        W88137  32.231  35.706   2.784
22878W        W88138  23.446  32.094   4.146
22879W        W88139   9.495   7.962  11.433
22880W        W88140  22.099  34.630   0.368
22881W        W88141  27.344  35.918   4.927
22882W        W88142   0.186  10.825   3.283
22883W        W88143   1.460  28.549   0.050
22884W        W88144   0.965   6.477   4.105
22885W        W88145  38.856  31.125  13.889
22886W        W88146  43.990  32.630   3.883
22887W        W88147  39.096   8.590  13.202
22888W        W88148   2.261   1.964   3.307
22889W        W88149   8.708  16.766   1.214
22890W        W88150  14.789   1.246  12.047
22891W        W88151   9.643  18.176  13.087
22892W        W88152  11.328  21.263   3.647
22893W        W88153  12.568  36.907  12.029
22894W        W88154  38.258  12.349   3.203
22895W        W88155   6.009  41.554   3.699
22896W        W88156  12.273  17.495  11.559
22897W        W88157  22.004  36.791  13.260
22898W        W88158   8.353  38.052   1.363
22899W        W88159  40.304  39.080  12.495
22900W        W88160  34.601  15.764   2.217
22901W        W88161   6.783  44.691   4.628
22902W        W88162  17.782  16.230   3.830
22903W        W88163  22.629  40.587  12.437
22904W        W88164  33.124  40.350  11.953
22905W        W88165  22.588   5.729   2.775
22906W        W88166  41.267   3.286   0.028
22907W        W88167  38.344   7.052  12.361
22908W        W88168  43.354  41.754  13.461
22909W        W88169  42.278   9.185   0.341
22910W        W88170  21.831   6.224  12.133
22911W        W88171   4.770  33.333   5.090
22912W        W88172  39.431  43.898   2.389
22913W        W88173  25.549  31.552   2.198
22914W        W88174   8.967  27.644   0.689
22915W        W88175  44.044  10.034   5.511
22916W        W88176  29.246  20.749   3.182
22917W        W88177  24.233  35.454  12.974
22918W        W88178  29.679  10.626  11.482
22919W        W88179  36.164  14.220  13.900
22920W        W88180  44.290   6.688  14.745
22921W        W88181  22.068  24.719   1.540
22922W        W88182  25.687  30.935   2.837
22923W        W88183  32.791  29.006  14.486
22924W        W88184  17.519  28.437   2.116
22925W        W88185  15.344  20.145   1.829
22926W        W88186   9.923  34.697  11.658
22927W        W88187  13.707  17.139  13.093
22928W        W88188  13.821  23.455   1.288
22929W        W88189  14.809  29.595   1.249
22930W        W88190  21.812  11.128   4.527
22931W        W88191  28.133  21.804   5.102
22932W        W88192   1.966  41.995  11.528
22933W        W88193   1.059  10.984  11.586
22934W        W88194  30.883  28.464   3.121
22935W        W88195  14.336   7.798  10.112
22936W        W88196  19.659   9.618  11.498
22937W        W88197  32.463  20.540  10.399
22938W        W88198   1.910  17.837   4.652
22939W        W88199  27.029  30.101   2.719
22940W        W88200  38.035   3.773   1.898
22941W        W88201  38.436  26.054   3.109
22942W        W88202   5.215  28.398   1.789
22943W        W88203  43.395  38.288   0.980
22944W        W88204   8.523  19.503   0.829
22945W        W88205   1.353  14.841   4.353
22946W        W88206  44.813  36.817   1.478
22947W        W88207   1.385  20.014   0.804
22948W        W88208   7.688  31.586  13.701
22949W        W88209  31.483   8.260   3.749
22950W        W88210  43.727  25.924  12.569
22951W        W88211  34.079   9.438   3.653
22952W        W88212  29.717  39.813   0.927
22953W        W88213  35.446  13.147   2.162
22954W        W88214  10.514  33.452  11.784
22955W        W88215   0.733  34.903   1.373
22956W        W88216  28.391  15.090   0.914
22957W        W88217   7.791  10.631   4.591
22958W        W88218  41.488  14.277   2.729
22959W        W88219   3.434  37.516  12.474
22960W        W88220  18.430   0.477   3.406
22961W        W88221  26.791   3.637  12.396
22962W        W88222  21.054  33.901  12.121
22963W        W88223  19.535  16.214   0.551
22964W        W88224  20.429  41.886   1.887
22965W        W88225  43.490   8.608   1.144
22966W        W88226  32.194   2.092  13.947
22967W        W88227  13.131  34.039  12.335
22968W        W88228  16.838   2.924   3.230
22969W        W88229  32.183  34.915   4.584
22970W        W88230  21.535  24.422  13.292
22971W        W88231   2.975  41.395  14.297
22972W        W88232   3.713  38.112  13.680
22973W        W88233  11.765  27.027   2.221
22974W        W88234   0.612  16.803  11.098
22975W        W88235  20.990  17.681  11.599
22976W        W88236  31.081  17.437   0.326
22977W        W88237   6.242  12.557  11.216
22978W        W88238  30.594  24.628  14.401
22979W        W88239  38.806  18.636  14.951
22980W        W88240   4.589  34.645  14.080
22981W        W88241  20.678  24.172   0.837
22982W        W88242  11.717  20.235   1.473
22983W        W88243   5.389  28.462  14.964
22984W        W88244  32.118  10.542  13.156
22985W        W88245  24.589  19.786  13.358
22986W        W88246  18.263   1.771   0.738
22987W        W88247   7.745  29.670  11.929
22988W        W88248  37.478  34.031  13.463
22989W        W88249  14.992  20.190  13.121
22990W        W88250  21.189  23.429  11.669
22991W        W88251   5.260  24.740   2.206
22992W        W88252  40.305  12.736   4.823
22993W        W88253  26.059  27.989   1.861
22994W        W88254  38.925  23.683   3.856
22995W        W88255   3.504  40.868  12.807
22996W        W88256  11.651  30.522  10.197
22997W        W88257  42.915  19.643  12.113
22998W        W88258   4.827  37.541  11.899
22999W        W88259   8.297   5.908  11.130
23000W        W88260  40.326  37.562  11.974
23001W        W88261   6.959   7.962   4.624
23002W        W88262   8.046  40.294   2.897
23003W        W88263   7.228  19.206   2.217
23004W        W88264  10.696  18.550   0.865
23005W        W88265  18.738  31.632   0.485
23006W        W88266  23.330  37.354   0.332
23007W        W88267  44.924  20.535   0.817
23008W        W88268  41.071  25.970   3.823
23009W        W88269   7.848   9.127   3.212
23010W        W88270  10.246   2.692  14.140
23011W        W88271   5.775   2.439   2.638
23012W        W88272  27.100  29.076   2.380
23013W        W88273  22.023  44.437  14.303
23014W        W88274  40.518  14.122   0.246
23015W        W88275  12.061  30.409  14.867
23016W        W88276  25.224  30.208  12.477
23017W        W88277  16.369  14.896   0.042
23018W        W88278  33.583  17.680   1.780
23019W        W88279  44.506  33.489  12.593
23020W        W88280  10.645  12.817  11.053
23021W        W88281   7.337  41.062  13.401
23022W        W88282  40.765  39.410  14.443
23023W        W88283  15.186   2.889  13.446
23024W        W88284   6.831  10.250   3.671
23025W        W88285  43.594  29.914   0.901
23026W        W88286  35.672  27.423   3.566
23027W        W88287   6.932  33.213  14.992
23028W        W88288  39.518  18.808   4.823
23029W        W88289  22.972  25.232  12.615
23030W        W88290  30.641  33.693  11.454
23031W        W88291  24.026  37.416  11.866
23032W        W88292  31.322  39.331  11.212
23033W        W88293   2.401   1.627  10.577
23034W        W88294  24.609  43.077  13.102
23035W        W88295  28.680   4.219   0.965
23036W        W88296  16.982  12.563   0.895
23037W        W88297  20.805  36.640   1.228
23038W        W88298  43.730   7.769   0.945
23039W        W88299  23.172  39.757   3.308
23040W        W88300  42.543  16.548  13.752
23041W        W88301  13.796  21.725  12.417
23042W        W88302  39.148   2.737  14.597
23043W        W88303  38.392  41.489  11.521
23044W        W88304   2.352  25.691   2.435
23045W        W88305  29.486   9.117  10.582
23046W        W88306   1.365   5.673  11.927
23047W        W88307  19.270  10.125   0.288
23048W        W88308   6.792  30.635  13.886
23049W        W88309  41.421   3.196  13.407
23050W        W88310   5.335  27.632   4.157
23051W        W88311   7.343  32.072   4.654
23052W        W88312  20.658  39.769   3.173
23053W        W88313  22.527   7.622   3.769
23054W        W88314  26.731  19.324  13.025
23055W        W88315  41.370  43.743  14.377
23056W        W88316   6.966  10.286  13.441
23057W        W88317   1.245  23.896  12.426
23058W        W88318  10.021  26.158   1.448
23059W        W88319  40.864   5.783   2.370
23060W        W88320  38.288  28.005  14.074
23061W        W88321  31.933  40.512  12.908
23062W        W88322  44.059  13.578   0.742
23063W        W88323  44.495   2.374  13.057
23064W        W88324   8.354  23.738  12.994
23065W        W88325  16.158  26.332   0.018
23066W        W88326  19.658  26.866  14.944
23067W        W88327  36.419  23.587  13.395
23068W        W88328  22.051  10.363   3.442
23069W        W88329  34.970  43.261  11.047
23070W        W88330  27.585  32.264  14.352
23071W        W88331  39.942   9.369   3.271
23072W        W88332  10.701  31.583  11.951
23073W        W88333   8.398  19.467  14.968
23074W        W88334  40.234  35.533  13.421
23075W        W88335  25.034  36.364  12.932
23076W        W88336  17.602  21.659  12.935
23077W        W88337  16.211  12.061   2.318
23078W        W88338  32.730  30.098  12.190
23079W        W88339   7.078  37.993   2.726
23080W        W88340  17.189  22.782  12.962
23081W        W88341  21.702   5.336  13.438
23082W        W88342  11.381  42.724  14.401
23083W        W88343   2.405   0.329   1.886
23084W        W88344  12.116   8.106   4.817
23085W        W88345  15.116  33.924  11.752
23086W        W88346  38.564  25.931  11.904
23087W        W88347   4.301  33.609   3.354
23088W        W88348  31.189  38.506   4.359
23089W        W88349   5.652   3.333   3.195
23090W        W88350   1.386  14.048   2.238
23091W        W88351  33.905  38.359   2.383
23092W        W88352   0.429  43.906  11.667
23093W        W88353   9.887  34.546  12.527
23094W        W88354   5.108   4.949   4.265
23095W        W88355  21.502  26.384  12.035
23096W        W88356  32.580  28.742  11.160
23097W        W88357  14.513  25.923  12.315
23098W        W88358  35.546  18.114  14.461
23099W        W88359  19.455  42.336   2.393
23100W        W88360  28.703  37.543  10.114
23101W        W88361  38.445   4.628  11.547
23102W        W88362  40.974  10.888  11.646
23103W        W88363  42.964  21.779  11.478
23104W        W88364  27.543  33.358   0.743
23105W        W88365   2.383  16.076  12.959
23106W        W88366  39.018  40.552  11.020
23107W        W88367  23.152  35.914   1.690
23108W        W88368  17.787  34.630  12.818
23109W        W88369  34.970  31.159   0.819
23110W        W88370  20.124  12.258  13.215
23111W        W88371  20.159  36.927   0.253
23112W        W88372  27.835  16.298  11.710
23113W        W88373  21.332   5.194   2.686
23114W        W88374  23.216  32.580  11.388
23115W        W88375  14.375  20.030   2.728
23116W        W88376  36.045  34.261   4.756
23117W        W88377  34.461   5.481   2.690
23118W        W88378  10.923  27.509  10.141
23119W        W88379  20.987  44.109  10.794
23120W        W88380  22.448   2.782   3.509
23121W        W88381  17.758   4.151   3.238
23122W        W88382   8.863  44.982  14.842
23123W        W88383  39.793  34.163  14.114
23124W        W88384  43.018  20.696  11.679
23125W        W88385  33.076  29.160   4.316
23126W        W88386  14.721  14.926   4.308
23127W        W88387  29.436   5.792   3.223
23128W        W88388  44.883  34.133  13.435
23129W        W88389   6.673   4.524   2.854
23130W        W88390   2.918  21.178   0.730
23131W        W88391  38.913  26.001   3.263
23132W        W88392  20.835  16.739   2.849
23133W        W88393  17.926   0.199  14.437
23134W        W88394  16.786  42.986  14.884
23135W        W88395  42.756   4.312   4.266
23136W        W88396  38.797  27.413   2.155
23137W        W88397  28.024  13.181  13.768
23138W        W88398  12.687  22.275   0.826
23139W        W88399  31.957  23.525   2.804
23140W        W88400  41.571  23.517  12.888
23141W        W88401  23.453  32.154   2.757
23142W        W88402  31.378  15.890   2.233
23143W        W88403  18.273  44.063   3.604
23144W        W88404  10.334  16.508  13.013
23145W        W88405   3.012   0.967   2.765
23146W        W88406   7.125  34.488  14.794
23147W        W88407  14.265   4.998  14.854
23148W        W88408  38.785  37.575  10.223
23149W        W88409  13.705  28.014  12.054
23150W        W88410  21.269  38.361  13.109
23151W        W88411  34.423  27.083  11.511
23152W        W88412   6.954  16.812   0.841
23153W        W88413   7.850  33.892   3.669
23154W        W88414  28.666   6.821  12.074
23155W        W88415   8.013   0.913  12.366
23156W        W88416  36.227  15.430   2.890
23157W        W88417  42.354  43.453  10.572
23158W        W88418   0.006  11.830   2.177
23159W        W88419   8.191  44.194   0.956
23160W        W88420  17.734  24.503   0.788
23161W        W88421  18.300  36.973   1.879
23162W        W88422  18.725   0.478  11.548
23163W        W88423  21.274  23.461   0.732
23164W        W88424  30.934   8.136   0.338
23165W        W88425  10.746  10.924   0.830
23166W        W88426   7.809  32.712  12.135
23167W        W88427   1.935  30.940   0.572
23168W        W88428   0.770  17.583   2.911
23169W        W88429  18.912  26.483  12.366
23170W        W88430  16.081  37.995  10.706
23171W        W88431  12.214  26.448   0.690
23172W        W88432  41.500   8.344  11.553
23173W        W88433  17.694   5.254  10.474
23174W        W88434  41.485  41.032   0.919
23175W        W88435  43.599  22.356   0.824
23176W        W88436  33.785  11.392  13.104
23177W        W88437  15.050  31.057   2.373
23178W        W88438  13.717  32.207   3.239
23179W        W88439  34.785  36.098   1.413
23180W        W88440  28.855  31.167  11.983
23181W        W88441  25.114  36.952   1.174
23182W        W88442   5.186  19.065   2.294
23183W        W88443  29.199  43.876   3.381
23184W        W88444  38.494  44.958   2.167
23185W        W88445  25.888  18.468   3.528
23186W        W88446  24.934  34.802  14.781
23187W        W88447  31.948  16.018   0.959
23188W        W88448  43.693  25.465   2.356
23189W        W88449  20.570  40.481   3.767
23190W        W88450  26.515  26.830   3.666
23191W        W88451   2.310   4.170   0.546
23192W        W88452  23.741  22.720  11.987
23193W        W88453  13.842  30.022  12.547
23194W        W88454   4.741  43.997  12.552
23195W        W88455  22.332  11.577   4.095
23196W        W88456  34.062  11.231   3.248
23197W        W88457  10.220  36.957  11.919
23198W        W88458  22.055   7.135   0.042
23199W        W88459  33.164  30.895  14.500
23200W        W88460  44.482  31.928  14.857
23201W        W88461  13.350   7.358   3.041
23202W        W88462  22.903   2.340   2.898
23203W        W88463  30.920  17.064  13.815
23204W        W88464  31.833  29.943  11.667
23205W        W88465  12.722  44.727  13.973
23206W        W88466  40.126  40.580   3.289
23207W        W88467  35.657  21.171   1.931
23208W        W88468  40.324  41.510  13.410
23209W        W88469  13.128  24.912  11.976
23210W        W88470  28.147   0.483   1.712
23211W        W88471  19.615  42.915   2.175
23212W        W88472  37.374   7.278   3.669
23213W        W88473  26.093  22.483  13.733
23214W        W88474  10.958   0.237  13.346
23215W        W88475  34.332  27.741  12.975
23216W        W88476  13.009  34.747  13.892
23217W        W88477  39.384  22.982  14.018
23218W        W88478  43.218  44.823  14.016
23219W        W88479   6.965   0.951  13.914
23220W        W88480  42.447  18.909   1.430
23221W        W88481  35.059  38.044   4.639
23222W        W88482  28.563  38.777   2.992
23223W        W88483  33.770  20.414  10.901
23224W        W88484   2.897  31.031  12.534
23225W        W88485  16.616   1.295  11.066
23226W        W88486  40.497  25.420  14.983
23227W        W88487  31.982  41.279  12.156
23228W        W88488   9.687  34.519  11.028
23229W        W88489   5.463  25.003  11.123
23230W        W88490   3.337  23.206   0.566
23231W        W88491  15.005  40.425   1.304
23232W        W88492  28.106   5.163   3.319
23233W        W88493   4.217  30.883   3.435
23234W        W88494  13.888  37.986   2.222
23235W        W88495  28.011   6.970   0.849
23236W        W88496   1.843  40.476  11.557
23237W        W88497  44.913  34.035  10.677
23238W        W88498  30.227  33.926   4.019
23239W        W88499  27.475  32.977   4.569
23240W        W88500  42.407  16.788  14.686
23241W        W88501   5.655  32.625   2.632
23242W        W88502   8.934  19.206  13.212
23243W        W88503  22.031   0.841   4.546
23244W        W88504  22.307  18.654  10.112
23245W        W88505  25.931  34.099   0.526
23246W        W88506   9.799  34.863  14.879
23247W        W88507  15.329  17.567   2.786
23248W        W88508  14.375  26.597  11.112
23249W        W88509  17.639  39.520   2.555
23250W        W88510  28.941  26.927  10.588
23251W        W88511  31.038  32.302   0.859
23252W        W88512   2.776   4.654   2.221
23253W        W88513  32.352  18.823  12.978
23254W        W88514   4.223  36.994   1.656
23255W        W88515  38.394   3.234  13.265
23256W        W88516  29.512   6.573   0.293
23257W        W88517  23.609  27.676  12.951
23258W        W88518  41.378  32.548   4.469
23259W        W88519  34.647  10.614  12.425
23260W        W88520  24.583  11.462   3.755
23261W        W88521  28.243   3.435  11.151
23262W        W88522  16.998   9.801   0.764
23263W        W88523  11.734  40.068  14.282
23264W        W88524  36.581   4.722  11.699
23265W        W88525  38.111  36.050  12.871
23266W        W88526  12.206   3.279   4.545
23267W        W88527  10.972   0.955   0.844
23268W        W88528  37.060  30.893   4.336
23269W        W88529   8.601  30.530   2.393
23270W        W88530  15.345   8.813  14.286
23271W        W88531  38.767  21.594   2.787
23272W        W88532  13.277  34.977   0.640
23273W        W88533  11.220  39.984  11.565
23274W        W88534  13.379  22.764   2.333
23275W        W88535  15.825   4.881   4.966
23276W        W88536  23.055  34.486   3.289
23277W        W88537  44.914   5.516  12.982
23278W        W88538  32.846  31.072  10.631
23279W        W88539   2.474  16.143  11.555
23280W        W88540  40.804   9.267   2.125
23281W        W88541  35.565  21.495  14.553
23282W        W88542  14.608  20.638   4.740
23283W        W88543  35.327   1.752   2.166
23284W        W88544  39.524  17.567  10.770
23285W        W88545  15.108   2.846   2.277
23286W        W88546  10.768  29.012  14.930
23287W        W88547  44.913  24.164  10.913
23288W        W88548   1.407  26.492  12.057
23289W        W88549   4.281  29.999   3.130
23290W        W88550  34.880  37.232  11.494
23291W        W88551  35.098  14.476   4.215
23292W        W88552  42.743  34.577  12.752
23293W        W88553  14.473  12.668  12.250
23294W        W88554  36.536  20.123   4.919
23295W        W88555  40.438   0.774   0.375
23296W        W88556   3.158  22.531   1.943
23297W        W88557  15.607   1.541   4.779
23298W        W88558   9.950   8.731  12.536
23299W        W88559  28.997  29.473   3.219
23300W        W88560  13.270   6.675  13.952
23301W        W88561  29.044  21.815   1.903
23302W        W88562  41.847  14.940  12.932
23303W        W88563   1.304  24.584  11.059
23304W        W88564  12.592  12.136  11.402
23305W        W88565  25.660  13.198   4.106
23306W        W88566  16.742  26.265   1.736
23307W        W88567  37.589  18.739   4.558
23308W        W88568  21.687  30.229  11.557
23309W        W88569  33.076   2.712  13.773
23310W        W88570   6.765  18.781  12.847
23311W        W88571  12.787  15.083   3.064
23312W        W88572  17.304  35.587   2.441
23313W        W88573  23.330   4.983   4.431
23314W        W88574  24.980  16.269   2.297
23315W        W88575  44.440  22.751  14.470
23316W        W88576  36.139  32.044   4.126
23317W        W88577  35.002  38.450  12.541
23318W        W88578  40.503   5.034  13.493
23319W        W88579   6.899  40.514   4.700
23320W        W88580  42.939  24.095   1.649
23321W        W88581  33.419  14.833  14.925
23322W        W88582  16.654  11.323   2.700
23323W        W88583  40.023  31.631  14.476
23324W        W88584   9.155  33.939   4.591
23325W        W88585  33.021   0.244   3.005
23326W        W88586  14.255   7.153   0.854
23327W        W88587  22.114  20.198  13.054
23328W        W88588  15.313  20.258   3.993
23329W        W88589  30.133  32.421   1.623
23330W        W88590  38.150  44.906  12.777
23331W        W88591  22.704  41.964  14.746
23332W        W88592  31.042  14.057   0.840
23333W        W88593   2.445   2.359   0.231
23334W        W88594  31.839  24.493   1.690
23335W        W88595  21.799   1.783   1.121
23336W        W88596  12.243  36.298  11.137
23337W        W88597  44.818  44.936   4.223
23338W        W88598  34.992  41.795   3.061
23339W        W88599  32.984   3.423  12.961
23340W        W88600  10.689  40.466  11.615
23341W        W88601   1.993  41.359   1.993
23342W        W88602  12.766   5.006   4.101
23343W        W88603  40.407  26.043  12.536
23344W        W88604  39.530  33.606   2.279
23345W        W88605   6.874   9.323  14.282
23346W        W88606  21.662  25.221   0.815
23347W        W88607  15.350  44.441   4.814
23348W        W88608  14.026   2.054   1.293
23349W        W88609  38.216  10.169  11.164
23350W        W88610  43.339  36.095  12.074
23351W        W88611  31.230  29.630   1.862
23352W        W88612  11.498  30.881  14.324
23353W        W88613  16.212   4.369  10.819
23354W        W88614  19.683  24.615  12.470
23355W        W88615  20.811  17.048   0.431
23356W        W88616   4.309  18.701  14.808
23357W        W88617   0.222  13.237   2.664
23358W        W88618   5.154  13.571  13.489
23359W        W88619  36.363  25.821   1.036
23360W        W88620  30.015  16.204   4.601
23361W        W88621  19.364  34.359   2.288
23362W        W88622  22.474  34.047  14.318
23363W        W88623  17.347   3.807  12.085
23364W        W88624  36.878  15.545  11.287
23365W        W88625  38.402   7.578  14.323
23366W        W88626   0.509  16.871   1.881
23367W        W88627   0.069  22.136   2.377
23368W        W88628  31.071  43.238   1.705
23369W        W88629  44.716   9.403  11.032
23370W        W88630  18.607  12.175   0.726
23371W        W88631  10.601   0.368   2.083
23372W        W88632  20.874  43.540   0.354
23373W        W88633  22.959  41.497  11.628
23374W        W88634  43.884  34.696  11.426
23375W        W88635  25.840  39.406  14.922
23376W        W88636   8.272  20.517  13.133
23377W        W88637  33.759  12.676   4.299
23378W        W88638  10.115   6.776  12.837
23379W        W88639  28.581  40.853   1.851
23380W        W88640   8.764   2.737  13.432
23381W        W88641  35.740  14.028   2.839
23382W        W88642  38.378   9.646  14.293
23383W        W88643   1.118  14.337   1.257
23384W        W88644  28.229  40.743  10.724
23385W        W88645  13.911  13.692  14.825
23386W        W88646  40.468  32.494   1.828
23387W        W88647  38.448  15.429   4.827
23388W        W88648  28.617  11.175   3.611
23389W        W88649  38.029  12.075   0.730
23390W        W88650   7.352  18.512   4.306
23391W        W88651  35.455  25.927   3.133
23392W        W88652  26.280  43.838   4.204
23393W        W88653   9.989  20.656   4.217
23394W        W88654  20.604  19.606   0.274
23395W        W88655  42.828  23.697   1.955
23396W        W88656  43.480  11.772   0.168
23397W        W88657  25.375  21.089  12.584
23398W        W88658  26.984   2.518   4.033
23399W        W88659  40.245  28.984  10.707
23400W        W88660   4.239  17.167   1.742
23401W        W88661  32.866   8.916   1.862
23402W        W88662   4.988  24.243  11.104
23403W        W88663  41.319   9.209   2.013
23404W        W88664  38.498  12.156   3.699
23405W        W88665  28.044  20.521  10.635
23406W        W88666  14.077   1.785  12.589
23407W        W88667  14.842  43.477  12.057
23408W        W88668  41.933  44.908  14.785
23409W        W88669  44.547  29.866   3.261
23410W        W88670   5.388  29.527   4.644
23411W        W88671  28.073  15.639   3.390
23412W        W88672  29.778  19.145   2.748
23413W        W88673   7.913  41.989   3.187
23414W        W88674  22.189  23.633  12.339
23415W        W88675  11.420  22.540   0.542
23416W        W88676  10.081   8.367   2.254
23417W        W88677   4.417  44.803   2.306
23418W        W88678  34.096  17.538   1.712
23419W        W88679  37.589  20.541   0.245
23420W        W88680  34.456  17.851  12.162
23421W        W88681  42.330  20.118   0.353
23422W        W88682  23.198   1.311  12.058
23423W        W88683  30.626  20.001   0.946
23424W        W88684  13.793  35.893   3.815
23425W        W88685  21.332   4.419  12.040
23426W        W88686  35.642  12.058   4.941
23427W        W88687   3.934  40.634  12.137
23428W        W88688  32.059  10.940   2.751
23429W        W88689  44.518   0.948  13.946
23430W        W88690   5.751  39.620  13.517
23431W        W88691  25.164  26.594  14.181
23432W        W88692  20.360   1.271   2.358
23433W        W88693   4.306   8.059  14.760
23434W        W88694   4.762  33.035   0.084
23435W        W88695  21.527  39.070   3.876
23436W        W88696   6.336  19.003  13.053
23437W        W88697   4.543  18.231  13.589
23438W        W88698  16.258  36.586  12.874
23439W        W88699  35.918  28.635  14.920
23440W        W88700  32.674   7.502  12.458
23441W        W88701  18.700  34.395   3.328
23442W        W88702  15.996   3.952  11.531
23443W        W88703  27.787   8.752  10.115
23444W        W88704   1.293   3.211   1.942
23445W        W88705   1.185   7.731   0.823
23446W        W88706  14.042  24.053  12.588
23447W        W88707  18.015  34.967  13.902
23448W        W88708  38.570  37.507   1.943
23449W        W88709   5.950  22.608   4.446
23450W        W88710  33.395   4.769   2.260
23451W        W88711  15.863  16.735  11.598
23452W        W88712  13.540  41.299  12.990
23453W        W88713  17.326  34.452  11.561
23454W        W88714  18.712  37.955   3.318
23455W        W88715   9.785  17.586   4.725
23456W        W88716  27.944   3.352  12.447
23457W        W88717  21.725   5.799  11.505
23458W        W88718  40.692   6.496  13.052
23459W        W88719  32.833  36.379  11.194
23460W        W88720  27.456  10.388   4.127
23461W        W88721  13.882  11.760  10.715
23462W        W88722  25.858   5.178   5.359
23463W        W88723  21.924  17.726   2.916
23464W        W88724  17.552   1.751  13.544
23465W        W88725   3.355  19.091   1.899
23466W        W88726   8.390   0.983   3.347
23467W        W88727  30.186   0.511   2.031
23468W        W88728  26.409  26.768   1.252
23469W        W88729  16.573  16.898   1.985
23470W        W88730  15.203  36.674  12.107
23471W        W88731  37.350   3.813   3.626
23472W        W88732  38.983  37.286   5.106
23473W        W88733  10.099  39.784   4.254
23474W        W88734  14.718  42.824  11.980
23475W        W88735  34.107  35.549  14.696
23476W        W88736  21.483  27.471   4.537
23477W        W88737  27.354  14.655  11.420
23478W        W88738  14.754   7.440   2.795
23479W        W88739  20.885  19.062  10.569
23480W        W88740  23.377  14.269   4.533
23481W        W88741   6.700   5.884   4.278
23482W        W88742  27.236  11.235   3.179
23483W        W88743  16.295  22.645   0.452
23484W        W88744  16.222   5.260  11.500
23485W        W88745  29.751  44.712   1.495
23486W        W88746  41.612  14.866  12.484
23487W        W88747  38.262   4.910  10.766
23488W        W88748  34.526   6.240   0.539
23489W        W88749  18.502  31.780  13.665
23490W        W88750  23.999  27.973  13.105
23491W        W88751   5.897  34.659   3.740
23492W        W88752  14.650  16.667  14.990
23493W        W88753  43.875  14.018  14.026
23494W        W88754  36.996  11.627   2.311
23495W        W88755  38.221  43.644  12.939
23496W        W88756   7.998  13.193   3.617
23497W        W88757  18.776  23.070  12.365
23498W        W88758  27.890  44.090  10.701
23499W        W88759  17.692  22.653  13.138
23500W        W88760   2.050   8.243  11.206
23501W        W88761  12.056  19.533   0.512
23502W        W88762   2.213  15.875  10.209
23503W        W88763  41.709   5.295   3.299
23504W        W88764  19.228  20.287  12.533
23505W        W88765   7.431  34.436   0.222
23506W        W88766  27.406  19.596  14.805
23507W        W88767  23.952   6.684  12.521
23508W        W88768  38.779  29.171   3.568
23509W        W88769  36.004  35.172  13.068
23510W        W88770  26.430   1.889  10.297
23511W        W88771  20.138  41.061  12.912
23512W        W88772  12.744  24.751  10.269
23513W        W88773  23.853   9.796   4.422
23514W        W88774  35.649   0.464   2.320
23515W        W88775  37.036  34.436   4.800
23516W        W88776   6.846  21.458   5.047
23517W        W88777   6.285  26.926   5.334
23518W        W88778   4.356  33.595   3.884
23519W        W88779  44.284   2.217   2.921
23520W        W88780   0.373  34.444  12.319
23521W        W88781   6.432  40.130   1.170
23522W        W88782  20.745  34.477  13.372
23523W        W88783  18.666  43.451   1.866
23524W        W88784  10.612  17.626   1.790
23525W        W88785  33.458  25.488  13.959
23526W        W88786  27.905  29.931  12.894
23527W        W88787  28.950  11.874  11.528
23528W        W88788  32.547  32.003  13.263
23529W        W88789  39.334  23.308   3.848
23530W        W88790  34.981  38.955  13.359
23531W        W88791  39.496   6.387  14.308
23532W        W88792  17.705  38.118   4.386
23533W        W88793  22.511  12.891   5.458
23534W        W88794  35.029  22.170  13.040
23535W        W88795  20.133   2.003  11.989
23536W        W88796  33.488  10.264  11.961
23537W        W88797  33.608  34.450  11.215
23538W        W88798  41.384  36.508  11.569
23539W        W88799  34.857  29.947   1.867
23540W        W88800  36.958  41.535  10.754
23541W        W88801  14.649  11.588  11.769
23542W        W88802   3.034   8.341  14.424
23543W        W88803  18.486   3.640   2.897
23544W        W88804  27.891  25.849  12.502
23545W        W88805  14.288  12.323  14.749
23546W        W88806  15.138  17.713   0.846
23547W        W88807   1.246  15.846  11.613
23548W        W88808  19.266  12.806  11.070
23549W        W88809  27.177  39.441   4.157
23550W        W88810  24.074  17.202   1.737
23551W        W88811  23.110  11.206   3.456
23552W        W88812  34.566   1.713   4.135
23553W        W88813   5.513  33.102  11.139
23554W        W88814  26.135   8.363  11.549
23555W        W88815  26.411  15.789   3.098
23556W        W88816  22.033   6.849  13.773
23557W        W88817   3.942   7.919   2.626
23558W        W88818  34.885  27.146   4.294
23559W        W88819  11.806  34.688  11.067
23560W        W88820  23.127   4.724  12.917
23561W        W88821  15.702  18.225  12.373
23562W        W88822   5.084  43.026   1.445
23563W        W88823  22.945  16.223  14.747
23564W        W88824  22.658  37.876   3.334
23565W        W88825  11.905  20.044  10.731
23566W        W88826  21.090  11.701   2.174
23567W        W88827   3.877  17.509   2.350
23568W        W88828  12.693  27.581   4.722
23569W        W88829  27.810  21.316   0.732
23570W        W88830  31.649  10.673   2.601
23571W        W88831  22.395  19.920  10.740
23572W        W88832  30.504  20.253  11.865
23573W        W88833  39.925  43.813  10.893
23574W        W88834  34.381  18.301  14.962
23575W        W88835  34.619  34.705   2.251
23576W        W88836  24.640  21.291   2.850
23577W        W88837  17.609  30.742  12.972
23578W        W88838  34.905  31.480   4.616
23579W        W88839  13.477   3.394   0.193
23580W        W88840   1.209  28.097  13.749
23581W        W88841  13.248  24.184   4.525
23582W        W88842  38.791   3.217   3.232
23583W        W88843  23.333  26.476  13.436
23584W        W88844  24.665  34.601  13.594
23585W        W88845  39.818   6.222   1.012
23586W        W88846  32.778  40.820   3.575
23587W        W88847  43.903  22.602  14.360
23588W        W88848  36.851  18.060  12.940
23589W        W88849   0.560  37.576  14.220
23590W        W88850  15.091  14.820   3.583
23591W        W88851   7.082  14.063   1.658
23592W        W88852  40.152  21.910  11.843
23593W        W88853  38.505   4.294   4.781
23594W        W88854  42.062  16.518   3.648
23595W        W88855   6.804  30.052  12.064
23596W        W88856  18.783   2.017  10.613
23597W        W88857  21.494   9.325   1.686
23598W        W88858  28.062  19.740   2.494
23599W        W88859  42.943   9.025   4.681
23600W        W88860   3.708  26.118  13.051
23601W        W88861  15.387  13.713  12.964
23602W        W88862   4.747   4.629  13.470
23603W        W88863   2.020  10.938  13.391
23604W        W88864  34.021  30.068  13.426
23605W        W88865  40.251  32.562  11.268
23606W        W88866  37.643  39.478  13.952
23607W        W88867  33.973  23.051  10.698
23608W        W88868  14.834   5.495  11.612
23609W        W88869  17.831  17.541   4.603
23610W        W88870  10.848  42.792   2.749
23611W        W88871   2.295  34.895   3.794
23612W        W88872  33.390  15.663   5.035
23613W        W88873   2.385  37.078   3.237
23614W        W88874  41.734  12.108   1.216
23615W        W88875  21.210  29.504  11.918
23616W        W88876   5.289  30.582  13.287
23617W        W88877  19.101   8.771  12.147
23618W        W88878  44.570  10.134   2.394
23619W        W88879  40.596  41.996  14.536
23620W        W88880   8.647  39.006   1.649
23621W        W88881  28.535  11.796   2.230
23622W        W88882  16.601   1.213  12.046
23623W        W88883   5.303  26.730   2.366
23624W        W88884  17.292  31.775  13.809
23625W        W88885  34.632   4.970  13.306
23626W        W88886  17.805  20.736  12.811
23627W        W88887  29.074  15.160  11.946
23628W        W88888  44.720   9.624   3.128
23629W        W88889  44.858   3.378   3.163
23630W        W88890  33.987   1.731  12.871
23631W        W88891  28.385  25.716  12.450
23632W        W88892  12.316  18.412  12.100
23633W        W88893  21.399  26.247   0.304
23634W        W88894  13.308  39.291   2.868
23635W        W88895  12.737  21.991  11.216
23636W        W88896  26.646  12.669   1.693
23637W        W88897  21.558   1.774   5.054
23638W        W88898  33.952  23.206   2.461
23639W        W88899  43.470  16.436   0.947
23640W        W88900   0.538   5.794   0.715
23641W        W88901  39.089   9.356  14.361
23642W        W88902  28.139  38.270   1.318
23643W        W88903   0.393  20.179   4.007
23644W        W88904  41.646  18.187   3.248
23645W        W88905  25.712  11.592  11.393
23646W        W88906   0.389  27.674  12.325
23647W        W88907  39.964   7.308   0.766
23648W        W88908  13.519   3.974   1.531
23649W        W88909  17.587  34.062   4.766
23650W        W88910  22.496   9.214   1.303
23651W        W88911  31.662  17.898   2.834
23652W        W88912  43.998   0.753   1.712
23653W        W88913  12.072  36.119   0.202
23654W        W88914  37.552  43.559   2.868
23655W        W88915  28.142  37.006   2.049
23656W        W88916  15.528  36.786   4.386
23657W        W88917  24.273  27.430   0.882
23658W        W88918   5.706  25.014   1.030
23659W        W88919  18.233  37.475  13.871
23660W        W88920  36.039  44.477   0.059
23661W        W88921  10.254   9.185   2.792
23662W        W88922  34.475  17.028   2.835
23663W        W88923  22.397  39.213  10.863
23664W        W88924  23.984  11.639  10.724
23665W        W88925  20.496  13.684  14.342
23666W        W88926   0.242  18.792  14.440
23667W        W88927   1.715  28.454   4.523
23668W        W88928  17.511  41.613  11.470
23669W        W88929  27.694  18.744  12.117
23670W        W88930  36.295  31.205  13.086
23671W        W88931   1.822  43.798  12.149
23672W        W88932  14.034   1.517  13.955
23673W        W88933  24.146   0.879  10.956
23674W        W88934  12.699  27.910   1.603
23675W        W88935  15.280   7.448   1.392
23676W        W88936  43.339  29.574  13.238
23677W        W88937  11.769  38.356   0.043
23678W        W88938  25.244   0.389   3.583
23679W        W88939  30.542  33.894  10.985
23680W        W88940  31.661   6.864  10.620
23681W        W88941  43.533  20.690  13.835
23682W        W88942   4.254   1.036  13.863
23683W        W88943  28.051  20.692  12.494
23684W        W88944  31.400  32.577   4.218
23685W        W88945   1.687  35.884  12.455
23686W        W88946  23.644  39.813  11.586
23687W        W88947  22.572  19.213  11.378
23688W        W88948  32.499   5.340   3.717
23689W        W88949  35.428  37.887   0.023
23690W        W88950  19.718   6.448   2.859
23691W        W88951  37.309  16.310   2.811
23692W        W88952  28.445   8.290   2.718
23693W        W88953  10.482  32.672  11.783
23694W        W88954   2.520  12.499   4.588
23695W        W88955  24.692  44.374  10.248
23696W        W88956  38.097  18.298  14.336
23697W        W88957  22.592   9.568   3.207
23698W        W88958  22.995   4.762  12.399
23699W        W88959  30.437   8.636   1.320
23700W        W88960  17.515   8.329  13.095
23701W        W88961  22.487  23.639  13.270
23702W        W88962   0.972   1.849   0.842
23703W        W88963  18.341  17.811  10.992
23704W        W88964  29.562  30.517  13.544
23705W        W88965  25.994  28.422  13.946
23706W        W88966  20.108  35.810   4.239
23707W        W88967  26.709   5.697   0.762
23708W        W88968  13.787  40.928   0.845
23709W        W88969  30.074  29.177   2.747
23710W        W88970   7.665  34.953   1.545
23711W        W88971  22.586  19.841  12.013
23712W        W88972  31.903  44.898  12.031
23713W        W88973  25.560  33.289   4.168
23714W        W88974   7.597   2.948  11.113
23715W        W88975  33.428  42.604   1.838
23716W        W88976  20.366  32.373  11.458
23717W        W88977   3.247   8.669   0.304
23718W        W88978  12.287   6.347   2.593
23719W        W88979  40.915  39.933  14.372
23720W        W88980  12.760  19.722  13.762
23721W        W88981  37.067   0.206  11.296
23722W        W88982  35.526  30.976   2.390
23723W        W88983  17.054  44.504  11.177
23724W        W88984  33.853  24.983   9.981
23725W        W88985  43.418  28.443   1.791
23726W        W88986  36.356   6.242   4.210
23727W        W88987  13.335   2.909   2.345
23728W        W88988  30.974  22.325   0.641
23729W        W88989  24.141  11.694   0.239
23730W        W88990  37.105  22.283   1.181
23731W        W88991  33.069   6.423   4.327
23732W        W88992   2.728  11.148   1.155
23733W        W88993  39.783  26.036   4.271
23734W        W88994  36.705  40.128  13.983
23735W        W88995  27.647  44.908   0.309
23736W        W88996  36.075   3.272   2.703
23737W        W88997   0.033   1.413   1.655
23738W        W88998  43.917  15.165   9.930
23739W        W88999   1.540  42.323  14.970
23740W        W89000  15.279  15.763  12.158
23741W        W89001  30.301  20.376   3.692
23742W        W89002  18.867  14.200   1.751
23743W        W89003  40.874   3.230   9.997
23744W        W89004  37.669  37.370   4.069
23745W        W89005   2.316  22.186  14.147
23746W        W89006  20.305   6.264  11.660
23747W        W89007  42.342  31.216   1.291
23748W        W89008  39.303  25.157   1.526
23749W        W89009  11.108  39.935   0.680
23750W        W89010  10.736  29.294   2.420
23751W        W89011  35.639  20.333  11.170
23752W        W89012  35.964  29.075   2.148
23753W        W89013  23.176  44.671   3.081
23754W        W89014   6.947  26.139  11.611
23755W        W89015  27.195  18.653  14.854
23756W        W89016  42.125  41.413   3.570
23757W        W89017  31.204  34.484  12.430
23758W        W89018  28.440  41.297   2.064
23759W        W89019   8.930  35.873   2.247
23760W        W89020  22.532  26.450   1.582
23761W        W89021  36.027  22.018  14.351
23762W        W89022  36.925   4.179  10.662
23763W        W89023  39.030   0.290  12.477
23764W        W89024  21.627  29.629  14.050
23765W        W89025  11.616  19.990  13.910
23766W        W89026  12.035  22.726   1.740
23767W        W89027  42.170   4.333   0.453
23768W        W89028   3.950  19.225  12.624
23769W        W89029  12.899   1.743   2.837
23770W        W89030  11.888  41.296  13.725
23771W        W89031  31.718  17.986   0.352
23772W        W89032  23.991  27.469  10.749
23773W        W89033  19.737  42.781   0.158
23774W        W89034   0.825   4.932   0.734
23775W        W89035  33.079  18.505  12.045
23776W        W89036  23.776  27.574  14.427
23777W        W89037  14.661  36.597  14.763
23778W        W89038  35.655  29.067  14.268
23779W        W89039   8.076  30.091  12.424
23780W        W89040  43.956  26.816  14.028
23781W        W89041   4.375  31.895  11.383
23782W        W89042  12.831  36.589  12.938
23783W        W89043  38.569   6.867  10.621
23784W        W89044  38.446  23.587  14.480
23785W        W89045  35.617  26.517  10.096
23786W        W89046  27.540  12.257  11.949
23787W        W89047   2.218  22.188  11.676
23788W        W89048   3.720   8.871  10.894
23789W        W89049  32.574   5.926  13.020
23790W        W89050  23.733   9.965   0.398
23791W        W89051  22.198  41.094   2.653
23792W        W89052   1.238  19.105  12.492
23793W        W89053  34.012  28.116  13.549
23794W        W89054  19.286  30.482   1.244
23795W        W89055   7.952  41.292   0.234
23796W        W89056  18.228  24.115  13.096
23797W        W89057  36.069  18.528  11.111
23798W        W89058  11.424  44.485  11.055
23799W        W89059  41.328  34.491  14.383
23800W        W89060  30.297  31.662  10.142
23801W        W89061  20.208  43.222   0.950
23802W        W89062  27.204  31.883  14.411
23803W        W89063  37.274   9.616  14.798
23804W        W89064  34.363  13.671   3.378
23805W        W89065  20.512  26.896  13.017
23806W        W89066  10.866  39.508   0.512
23807W        W89067  23.639  12.789  10.701
23808W        W89068  17.058  21.157  10.443
23809W        W89069  34.894  13.597   3.289
23810W        W89070  30.975  13.658  12.993
23811W        W89071  13.500  38.441   2.825
23812W        W89072  17.336  18.958   9.852
23813W        W89073  21.238  42.940  13.035
23814W        W89074  28.163   1.322  12.502
23815W        W89075  34.814   0.540  14.813
23816W        W89076  21.273  22.447  11.662
23817W        W89077  16.148   1.272   0.372
23818W        W89078  19.379  15.116  12.489
23819W        W89079  10.985   4.711   0.370
23820W        W89080   1.038  33.049  12.968
23821W        W89081  37.738  41.372   4.876
23822W        W89082  38.376   1.965   2.189
23823W        W89083   6.159  25.651   2.208
23824W        W89084  30.836   8.811   1.643
23825W        W89085  21.795  24.166   3.949
23826W        W89086   0.856  18.351   3.373
23827W        W89087  23.169  27.096  14.011
23828W        W89088  38.835  40.042  14.885
23829W        W89089  15.013  33.993   4.635
23830W        W89090  31.480   4.384  12.651
23831W        W89091   0.941  28.996   2.209
23832W        W89092  36.863  14.622   0.802
23833W        W89093  16.996  42.362   0.205
23834W        W89094  18.710  38.265   0.724
23835W        W89095  27.705   9.186   4.738
23836W        W89096  22.340  26.768  13.321
23837W        W89097  13.145   2.239   4.617
23838W        W89098   1.768  43.324   1.533
23839W        W89099  40.774   0.769   2.753
23840W        W89100  17.776   2.540   4.003
23841W        W89101  42.154  29.256   2.551
23842W        W89102  23.409  10.686   2.762
23843W        W89103  16.132  24.913   0.515
23844W        W89104  17.090  24.616   3.599
23845W        W89105  22.552  33.724   2.659
23846W        W89106  30.326  41.267   2.239
23847W        W89107  21.187  33.536   1.870
23848W        W89108  38.499  20.720   0.126
23849W        W89109   4.748  42.359  14.855
23850W        W89110  44.382  23.509  14.856
23851W        W89111   9.457  18.743   1.911
23852W        W89112  21.970  15.058   0.321
23853W        W89113  31.970  30.031   1.441
23854W        W89114  33.418  13.898  12.152
23855W        W89115  11.896  23.770  12.910
23856W        W89116  14.699  35.836  12.859
23857W        W89117  42.531  35.697   4.442
23858W        W89118  44.475  36.855  14.470
23859W        W89119  42.846  27.614   0.383
23860W        W89120   0.793  34.817  11.024
23861W        W89121  19.842  34.387  11.690
23862W        W89122  17.671  18.185  14.824
23863W        W89123  40.168   1.542  11.078
23864W        W89124   5.533  10.241   1.241
23865W        W89125  39.304  25.217  10.559
23866W        W89126  35.640   3.029  11.149
23867W        W89127  39.976   4.743   1.275
23868W        W89128  17.500  18.982   3.114
23869W        W89129  13.571   4.683   2.640
23870W        W89130   4.372   2.819  14.409
23871W        W89131   0.510  24.235  11.273
23872W        W89132  35.658  18.700  14.727
23873W        W89133  10.136   9.627   3.514
23874W        W89134  22.508  17.486  10.640
23875W        W89135   1.692  27.488   4.290
23876W        W89136  30.487  11.351  11.156
23877W        W89137   8.342   0.936   1.989
23878W        W89138  32.759  28.617   4.990
23879W        W89139   2.439  14.061   3.217
23880W        W89140   2.244  19.687   1.221
23881W        W89141  19.164  20.737  14.881
23882W        W89142  25.219  42.898  11.127
23883W        W89143  38.995  39.359   0.290
23884W        W89144  34.401  38.963  10.640
23885W        W89145   8.581  35.594  13.991
23886W        W89146  39.044  10.350  14.426
23887W        W89147   5.166  15.153  11.188
23888W        W89148  31.139  11.299   3.060
23889W        W89149   8.278  40.152   2.256
23890W        W89150  25.497   8.866   9.976
23891W        W89151  32.577   0.259  11.914
23892W        W89152   6.321   5.318   0.824
23893W        W89153  44.225  10.441   1.109
23894W        W89154  26.472   9.702  13.855
23895W        W89155  13.672  23.364   0.780
23896W        W89156  12.869   6.414   0.890
23897W        W89157   5.687  25.680  14.201
23898W        W89158  12.166  30.889   0.668
23899W        W89159   9.801  17.763   4.156
23900W        W89160  14.250  37.296  14.409
23901W        W89161  33.038  19.882   1.978
23902W        W89162  29.071   3.283   2.725
23903W        W89163  43.783   9.170   4.340
23904W        W89164  35.883  31.456  11.424
23905W        W89165   3.712   6.289  13.709
23906W        W89166   0.059  14.175   1.750
23907W        W89167  32.643  13.234  14.942
23908W        W89168  13.865  37.465   2.407
23909W        W89169  12.891   1.912   5.092
23910W        W89170  42.836   1.837  10.691
23911W        W89171  27.148   8.128   3.115
23912W        W89172  21.369  40.236   0.781
23913W        W89173  14.235  39.527  10.691
23914W        W89174  12.305  23.925  13.619
23915W        W89175  15.355  29.598   1.262
23916W        W89176  10.623  15.673  13.992
23917W        W89177   0.192  36.549   4.131
23918W        W89178  37.909   4.059   0.881
23919W        W89179   1.291  22.440   2.457
23920W        W89180  33.047  41.306   1.794
23921W        W89181  24.620   9.956   1.982
23922W        W89182  37.083  33.838   4.140
23923W        W89183  26.430  12.066  10.557
23924W        W89184   8.369  33.924   4.127
23925W        W89185   9.247  37.527  11.983
23926W        W89186  11.361  42.832  11.298
23927W        W89187  27.925  33.884   4.137
23928W        W89188  22.439  30.688  12.077
23929W        W89189  38.094  10.104   3.409
23930W        W89190  33.554  19.139   1.832
23931W        W89191   4.948  37.473  12.397
23932W        W89192  39.874  42.837  11.918
23933W        W89193  24.089   9.292  11.139
23934W        W89194  42.920  11.163   2.728
23935W        W89195  13.210  24.110   2.415
23936W        W89196  14.019  12.028  11.134
23937W        W89197   9.558  38.742   1.827
23938W        W89198   7.468   8.785  13.532
23939W        W89199  35.234   0.854  10.968
23940W        W89200  13.294  29.760  13.850
23941W        W89201  31.500  40.469  11.135
23942W        W89202  32.140  25.170   0.964
23943W        W89203  41.791  12.489   5.087
23944W        W89204  19.164  20.687  11.580
23945W        W89205  43.370   9.733   5.530
23946W        W89206  32.111  13.848   4.297
23947W        W89207  12.276  22.061   2.695
23948W        W89208  44.435   4.423  10.233
23949W        W89209  26.149  24.014  10.739
23950W        W89210  15.240   2.515  12.334
23951W        W89211  16.813  41.834   4.806
23952W        W89212  13.369  29.007  14.761
23953W        W89213  30.002  29.523   4.832
23954W        W89214  36.023   6.872   4.315
23955W        W89215  19.727  11.048   1.084
23956W        W89216  32.224  14.202   3.039
23957W        W89217  30.172  30.198  14.808
23958W        W89218   8.062  21.680  11.704
23959W        W89219  30.848  37.114   4.321
23960W        W89220  13.037  30.485  10.648
23961W        W89221   3.874  29.580  14.743
23962W        W89222  31.477  24.205  11.550
23963W        W89223  18.274  16.838  14.534
23964W        W89224   9.865  31.525   1.748
23965W        W89225  11.289  14.252  14.036
23966W        W89226   5.249   6.450   0.712
23967W        W89227  37.421  26.381  12.544
23968W        W89228   1.283  31.867   1.417
23969W        W89229  20.927  36.349  13.336
23970W        W89230   8.952  34.985  12.514
23971W        W89231   2.535  40.991   3.312
23972W        W89232  19.826  18.201   2.805
23973W        W89233  14.105  39.932   3.724
23974W        W89234  38.757  28.854  13.447
23975W        W89235  44.348  38.692  10.281
23976W        W89236  13.729  29.971  13.565
23977W        W89237  27.013  42.513   1.384
23978W        W89238  43.742  18.591  12.860
23979W        W89239   1.431  19.233   3.267
23980W        W89240  25.993  18.992  13.529
23981W        W89241  31.946  36.535  14.757
23982W        W89242  24.042  36.835  12.329
23983W        W89243   5.181  11.323  11.655
23984W        W89244   2.244  24.705   1.497
23985W        W89245  38.315  31.866   5.197
23986W        W89246  42.821  37.011   3.354
23987W        W89247  14.523  17.403  13.353
23988W        W89248  20.230   4.377   2.829
23989W        W89249  10.347  34.894  11.431
23990W        W89250  28.564  24.964   4.576
23991W        W89251  43.935  27.647  12.690
23992W        W89252   3.498  23.063  13.547
23993W        W89253  19.545  17.721   1.490
23994W        W89254  21.026  29.073   2.796
23995W        W89255  12.275  17.542  12.113
23996W        W89256   8.294   6.339   0.249
23997W        W89257  37.047  30.778  13.486
23998W        W89258  23.316  14.262   2.237
23999W        W89259  20.790  25.028   0.248
24000W        W89260  38.456   5.960   2.444
24001W        W89261  31.183   5.931  13.036
24002W        W89262  34.028  34.472  14.291
24003W        W89263   5.004   8.227   0.567
24004W        W89264  42.179  30.539  12.439
24005W        W89265  19.279   1.288   2.363
24006W        W89266  34.837  21.511  13.548
24007W        W89267  30.576  14.033  13.182
24008W        W89268   2.212  27.397   4.182
24009W        W89269   2.883  32.437  12.538
24010W        W89270  38.359  18.479   4.190
24011W        W89271   2.646  27.385   1.708
24012W        W89272  31.586  11.730   0.980
24013W        W89273  41.526  19.915   2.794
24014W        W89274   1.533   6.631   2.488
24015W        W89275  21.033   5.991   1.445
24016W        W89276  29.401  16.371  14.775
24017W        W89277  15.734  12.751   4.542
24018W        W89278   5.661  40.592  12.112
24019W        W89279  32.663  26.710   4.073
24020W        W89280  13.121  20.260  14.427
24021W        W89281  23.574  12.063   4.078
24022W        W89282  25.684   1.224   1.742
24023W        W89283  39.589  21.824   2.317
24024W        W89284  30.008  19.765   0.731
24025W        W89285  27.554  26.408   1.735
24026W        W89286   4.586   8.197  11.338
24027W        W89287  23.547  41.253  13.748
24028W        W89288   8.593   8.309   0.780
24029W        W89289  31.129  27.084  14.492
24030W        W89290   4.019   6.271   3.710
24031W        W89291  44.485  15.653   1.766
24032W        W89292  29.650  17.113   1.214
24033W        W89293   3.643   3.203  14.369
24034W        W89294  19.739  34.763   5.044
24035W        W89295  27.707  36.237   1.630
24036W        W89296  29.992  22.254   1.722
24037W        W89297  42.983  27.886   3.245
24038W        W89298  26.587  30.387   2.803
24039W        W89299  10.417   3.945  14.422
24040W        W89300  23.260  26.672   3.142
24041W        W89301  42.740  26.901  14.789
24042W        W89302   8.367  23.439   2.253
24043W        W89303  12.642  34.068  11.189
24044W        W89304  40.425  15.249   3.524
24045W        W89305  26.632  12.296  14.873
24046W        W89306   2.495  29.701   2.729
24047W        W89307  34.585   3.328  12.538
24048W        W89308  37.565  31.478  12.835
24049W        W89309  36.889   2.722  14.380
24050W        W89310  33.116  33.409  11.395
24051W        W89311  10.177  29.128  11.274
24052W        W89312  35.845  26.877  11.435
24053W        W89313  35.516  40.460   1.580
24054W        W89314  19.145  19.157   0.839
24055W        W89315  19.365  18.663  12.824
24056W        W89316   1.470   4.876  14.769
24057W        W89317  16.737   3.467   4.128
24058W        W89318  44.429  40.422   1.689
24059W        W89319  18.566  38.933  12.581
24060W        W89320  23.506  18.529   2.734
24061W        W89321   8.239  42.007  11.046
24062W        W89322  34.146  34.418   1.315
24063W        W89323   2.824  16.342  10.722
24064W        W89324  43.923  34.324   2.445
24065W        W89325  25.131  39.513   0.189
24066W        W89326  26.916   2.904   0.767
24067W        W89327  35.361   6.789  11.029
24068W        W89328  35.164  30.728  13.462
24069W        W89329  11.913  28.479   4.634
24070W        W89330  37.920  42.162   1.173
24071W        W89331  27.425  11.701   2.420
24072W        W89332  22.151  20.973   4.608
24073W        W89333  18.562   6.662  11.614
24074W        W89334  44.322   4.974   3.270
24075W        W89335  24.178  13.945  13.728
24076W        W89336  36.498  33.047   2.298
24077W        W89337  18.884  31.962  14.599
24078W        W89338  23.765   1.875   4.637
24079W        W89339  26.992  43.352  13.054
24080W        W89340   6.331  36.676  11.145
24081W        W89341  22.222  31.051   0.660
24082W        W89342  30.968   9.650   4.760
24083W        W89343  28.657  38.871   3.885
24084W        W89344  15.595  34.397  13.978
24085W        W89345  43.359  14.241   0.253
24086W        W89346  44.909  39.601  10.736
24087W        W89347   1.712   2.416  12.093
24088W        W89348  36.590  33.506   0.407
24089W        W89349  18.914  28.071  11.982
24090W        W89350  38.288  41.366   3.124
24091W        W89351  31.504  29.907  10.621
24092W        W89352  44.326  36.113  12.966
24093W        W89353  21.657  27.170  14.154
24094W        W89354   0.774  16.188   4.150
24095W        W89355  26.772   2.222  11.497
24096W        W89356  43.205  36.505   2.792
24097W        W89357  37.659   6.202   0.032
24098W        W89358  12.751  28.635   0.385
24099W        W89359  37.402  34.940  12.572
24100W        W89360  25.590   5.300  12.416
24101W        W89361  14.311   5.528   3.690
24102W        W89362  29.105   6.185  11.588
24103W        W89363   1.917   3.687   3.250
24104W        W89364  32.381  14.845   0.613
24105W        W89365  15.822  37.373   0.584
24106W        W89366  30.525  18.584  12.584
24107W        W89367  25.264  43.953  10.918
24108W        W89368  30.717  31.901   3.323
24109W        W89369  33.653  16.794   2.710
24110W        W89370  38.516  15.343   1.845
24111W        W89371  16.531   0.967   2.652
24112W        W89372  20.977  43.371   1.326
24113W        W89373   6.968  43.530   3.662
24114W        W89374   7.329  10.815   3.711
24115W        W89375  33.383  34.991   0.966
24116W        W89376   9.897  34.120  12.267
24117W        W89377  43.911  23.665  14.990
24118W        W89378  38.852  15.070   4.104
24119W        W89379  21.239  19.635  13.003
24120W        W89380  19.533  31.497  11.212
24121W        W89381   3.060  29.864  14.289
24122W        W89382   3.223  19.717  13.384
24123W        W89383  33.594   4.715  11.890
24124W        W89384   8.199  28.227  12.135
24125W        W89385  22.531   2.331   0.490
24126W        W89386  37.122  31.553  13.753
24127W        W89387   1.800   9.124  14.108
24128W        W89388   0.079   0.904   4.389
24129W        W89389   9.656  29.866   1.903
24130W        W89390   8.811  36.560   1.728
24131W        W89391  44.811  19.078   2.911
24132W        W89392  21.772   0.886   0.871
24133W        W89393  17.286   1.241   1.433
24134W        W89394  18.669   8.014   3.173
24135W        W89395  44.337   2.255  13.899
24136W        W89396   2.353  27.889   4.129
24137W        W89397  28.645  36.586   1.244
24138W        W89398  40.338  18.570  14.472
24139W        W89399   1.312  40.237   4.273
24140W        W89400  35.012  33.704   3.342
24141W        W89401  33.246   5.280  14.325
24142W        W89402  18.263  31.509   3.065
24143W        W89403  15.800  44.532  12.532
24144W        W89404  15.480  13.112   1.859
24145W        W89405   1.995  24.247   4.536
24146W        W89406   8.694  35.692   3.684
24147W        W89407  26.323   4.251   5.388
24148W        W89408  36.379   7.165   4.050
24149W        W89409   8.278  29.940   0.266
24150W        W89410  36.381  39.843   2.678
24151W        W89411  16.811   6.584  14.813
24152W        W89412  22.716   9.164   0.366
24153W        W89413  21.359  23.036   3.181
24154W        W89414  33.886  35.947   4.588
24155W        W89415  39.805  23.737   1.911
24156W        W89416   8.608  40.243   3.747
24157W        W89417  11.024  19.536  11.137
24158W        W89418  40.838  16.395   3.273
24159W        W89419  44.243  11.578   2.033
24160W        W89420   8.140  12.122   1.250
24161W        W89421  29.909  44.827   4.196
24162W        W89422  39.497  36.016   1.253
24163W        W89423  23.575  10.582   3.264
24164W        W89424  30.567  35.023  10.997
24165W        W89425  26.128  35.696   5.681
24166W        W89426  40.956  22.994   3.315
24167W        W89427   9.424  22.561  10.438
24168W        W89428  25.921   6.038   1.295
24169W        W89429  11.586  35.168   4.149
24170W        W89430  22.545  25.520   4.720
24171W        W89431  44.622  14.135   2.047
24172W        W89432  44.292  31.033   2.198
24173W        W89433  10.120  31.463  13.352
24174W        W89434  30.616  18.276   2.362
24175W        W89435  31.510  24.275   1.311
24176W        W89436  23.599  44.446  10.649
24177W        W89437  33.412  28.188  10.921
24178W        W89438  25.701  27.596  10.430
24179W        W89439   6.211  22.721  11.215
24180W        W89440  44.523  29.655   0.123
24181W        W89441  34.099   7.497   3.148
24182W        W89442  36.389  42.250   2.634
24183W        W89443  26.133  21.354  10.812
24184W        W89444  29.549  32.612   2.284
24185W        W89445  34.551   9.852   2.205
24186W        W89446  11.798  38.001   3.224
24187W        W89447  21.300  44.465  13.584
24188W        W89448  26.082  21.568  11.271
24189W        W89449  25.015  30.244  10.749
24190W        W89450  10.085  12.234   4.378
24191W        W89451  13.211  40.843  13.545
24192W        W89452  36.061  31.632  10.386
24193W        W89453  11.653  26.444   1.983
24194W        W89454  22.202  33.562   3.750
24195W        W89455   9.057   9.787   4.157
24196W        W89456  20.478   4.280   3.978
24197W        W89457  33.274  29.426  11.772
24198W        W89458  36.828  21.525  12.950
24199W        W89459  36.430  27.072   4.149
24200W        W89460   9.626  28.745   0.510
24201W        W89461  41.370  29.415   3.174
24202W        W89462   1.535  13.629  11.155
24203W        W89463   1.303   2.284   4.245
24204W        W89464  16.546  22.136   3.891
24205W        W89465  14.315  21.722  12.548
24206W        W89466  41.495  27.963   4.267
24207W        W89467  28.008   8.281   0.492
24208W        W89468  14.526   5.123   2.378
24209W        W89469  28.522  40.277   2.721
24210W        W89470  17.236  33.120  10.290
24211W        W89471  37.496  28.248  13.931
24212W        W89472  41.892  38.972   4.698
24213W        W89473  24.480  26.944  12.416
24214W        W89474  33.331  21.153   2.199
24215W        W89475  21.011  41.576   3.151
24216W        W89476  18.641  11.600  14.776
24217W        W89477  13.289  28.095  14.573
24218W        W89478  17.297  22.185  13.905
24219W        W89479  11.709  34.515  11.893
24220W        W89480   4.953  23.749  12.865
24221W        W89481  33.887  22.631  13.457
24222W        W89482  28.957  18.102   3.319
24223W        W89483  38.628  10.584  13.436
24224W        W89484  38.487  36.385   1.183
24225W        W89485  44.292  19.439  14.537
24226W        W89486  21.832  29.146  14.041
24227W        W89487  19.163  21.720  13.323
24228W        W89488  11.728  34.641   4.125
24229W        W89489  30.178  30.426  10.230
24230W        W89490  35.548  42.770  13.073
24231W        W89491  43.534  28.683   3.658
24232W        W89492  14.428  19.692   3.167
24233W        W89493  20.168  16.532   1.972
24234W        W89494  44.222   0.383  13.448
24235W        W89495   9.682  34.481   1.363
24236W        W89496  11.262  26.348   0.821
24237W        W89497  13.419   8.623  11.991
24238W        W89498  14.604  27.920   4.621
24239W        W89499   1.976   2.677   0.431
24240W        W89500  42.542   3.648  12.931
24241W        W89501  40.616  40.879  14.714
24242W        W89502  10.199  31.605   2.165
24243W        W89503  10.732  29.291   9.718
24244W        W89504  41.999   2.009   2.770
24245W        W89505  44.768  33.120  13.270
24246W        W89506  37.525  38.294  14.233
24247W        W89507  44.434  43.530  11.658
24248W        W89508   9.429  34.002   1.585
24249W        W89509   3.304  41.386   3.337
24250W        W89510  23.508  15.599  12.082
24251W        W89511   5.188  44.271  12.606
24252W        W89512   4.270  42.947   4.709
24253W        W89513   0.269  18.284   0.324
24254W        W89514  33.541  27.358  14.473
24255W        W89515  15.309  28.686   3.565
24256W        W89516  19.145  18.615  10.067
24257W        W89517  15.528   4.494  14.703
24258W        W89518   2.656  30.520   0.373
24259W        W89519  11.187  35.817  11.126
24260W        W89520  12.731  35.064   1.960
24261W        W89521   9.503  41.819  14.662
24262W        W89522  37.463  44.035   0.381
24263W        W89523  35.471  41.979   4.904
24264W        W89524  16.225  19.435  13.448
24265W        W89525  13.139  17.223  14.033
24266W        W89526  43.949  12.934   1.660
24267W        W89527  19.033  15.379   2.884
24268W        W89528  28.432  20.040   4.562
24269W        W89529  31.193   8.482   5.043
24270W        W89530  35.435  30.205  11.485
24271W        W89531  25.210   3.851  14.357
24272W        W89532  19.868  41.922   0.360
24273W        W89533  25.102  27.128   4.532
24274W        W89534  33.950  23.655  12.436
24275W        W89535  11.847  29.797   1.398
24276W        W89536  10.165  40.103   4.668
24277W        W89537   9.297  18.852   3.425
24278W        W89538  10.095  34.384  11.302
24279W        W89539  31.729  34.330  10.573
24280W        W89540  22.646  44.127  11.160
24281W        W89541  14.142   5.116  13.497
24282W        W89542  37.377  14.650   0.900
24283W        W89543  24.317   1.513   1.801
24284W        W89544   0.963  37.810   1.218
24285W        W89545  41.258  18.342  11.012
24286W        W89546  39.316   5.935   2.403
24287W        W89547   2.268   5.745  13.968
24288W        W89548   5.705  12.975  11.134
24289W        W89549  27.320  12.843   1.007
24290W        W89550   1.376  17.061  12.151
24291W        W89551   3.938   8.690   0.739
24292W        W89552  26.186   2.351   0.240
24293W        W89553  33.368  30.952   4.050
24294W        W89554  43.964  19.369  10.766
24295W        W89555  26.065  42.737  14.387
24296W        W89556   8.587  35.186  11.202
24297W        W89557  28.341   8.768   4.162
24298W        W89558  21.650  32.972  10.399
24299W        W89559  21.472   3.181  12.340
24300W        W89560  35.986  23.600   0.211
24301W        W89561  16.994  36.033   3.539
24302W        W89562  25.957  10.720   3.975
24303W        W89563  31.871  34.334  11.949
24304W        W89564  21.643  26.677   2.656
24305W        W89565  11.425  23.528  11.458
24306W        W89566  34.024  28.516   4.396
24307W        W89567  23.664   2.260  14.041
24308W        W89568  34.088  13.489  12.847
24309W        W89569  31.031  12.488   2.356
24310W        W89570  15.492  10.093   0.472
24311W        W89571  35.197  18.363  11.101
24312W        W89572  20.790   2.756   1.947
24313W        W89573  38.798  33.784  12.414
24314W        W89574  33.922   7.343  11.590
24315W        W89575  41.461  28.076  10.629
24316W        W89576  21.751  10.640   4.270
24317W        W89577  25.926   6.358  13.120
24318W        W89578   6.655  35.551  14.296
24319W        W89579  27.198   1.416  14.885
24320W        W89580  38.795  38.636   3.882
24321W        W89581  12.869  38.818  14.024
24322W        W89582  29.709  25.537  12.880
24323W        W89583  19.285  11.299   2.300
24324W        W89584  42.811  21.835   1.782
24325W        W89585   6.472  22.657   5.182
24326W        W89586  43.443  10.717  10.255
24327W        W89587  35.465   6.140  13.793
24328W        W89588  22.962   9.073   5.075
24329W        W89589  41.448  30.229  11.540
24330W        W89590  29.739  26.068  12.473
24331W        W89591   6.125  27.140  10.722
24332W        W89592  19.770  22.122   2.209
24333W        W89593  36.127   9.703   2.923
24334W        W89594  38.653  41.990   1.806
24335W        W89595   1.094  23.160  10.715
24336W        W89596  15.188  20.213  12.648
24337W        W89597   0.836  36.999   3.174
24338W        W89598  35.782   4.321  12.360
24339W        W89599  44.356  13.257  12.380
24340W        W89600  23.739  31.974  13.337
24341W        W89601   6.302   4.471  10.901
24342W        W89602  37.383   7.426  14.421
24343W        W89603  36.491  14.340  12.539
24344W        W89604  41.869  15.776  10.687
24345W        W89605  24.843   2.421   0.296
24346W        W89606  15.776  42.756  11.028
24347W        W89607  11.877  19.296  13.388
24348W        W89608  12.075  29.095   2.093
24349W        W89609  41.555  44.517  14.112
24350W        W89610  43.110  28.248   0.379
24351W        W89611   9.913  36.016   2.391
24352W        W89612  12.057  38.352   2.905
24353W        W89613  29.672   7.065   1.562
24354W        W89614   7.389  31.116  11.428
24355W        W89615  13.160  23.669   4.529
24356W        W89616   6.730  13.849  11.536
24357W        W89617  22.702   5.953   1.728
24358W        W89618   4.234   3.335  12.055
24359W        W89619  29.856  41.391   2.064
24360W        W89620  38.042   4.051  13.349
24361W        W89621  43.027  16.852   3.550
24362W        W89622  17.525  14.067  12.485
24363W        W89623  41.518   7.589  14.376
24364W        W89624  17.672   8.321  14.064
24365W        W89625  30.217  35.363   1.199
24366W        W89626  40.788  44.507   4.005
24367W        W89627  35.782  13.573  14.889
24368W        W89628  14.037  13.163  13.017
24369W        W89629   8.763   8.342   4.512
24370W        W89630  36.110  10.658   2.439
24371W        W89631  29.612   6.281   1.431
24372W        W89632  36.915  43.617   1.305
24373W        W89633  11.778   4.309  12.321
24374W        W89634  41.399   0.387  14.033
24375W        W89635   4.024  19.592  14.835
24376W        W89636  33.396  33.844  12.470
24377W        W89637   7.834   7.449   3.748
24378W        W89638  21.469  35.175  11.997
24379W        W89639  32.687  24.430  12.874
24380W        W89640  31.666  27.993  11.505
24381W        W89641  41.893  27.383  12.626
24382W        W89642  37.856  15.913   1.999
24383W        W89643  24.517  40.936  13.588
24384W        W89644  27.584  37.044  14.739
24385W        W89645   0.718   8.790  11.886
24386W        W89646  18.584  29.522   1.890
24387W        W89647  44.977  39.829  14.276
24388W        W89648  42.465   9.540  12.028
24389W        W89649  20.062  42.011  13.230
24390W        W89650  24.107  12.789  13.298
24391W        W89651  31.953  15.125  12.949
24392W        W89652  14.253  12.582   2.315
24393W        W89653  41.020  11.272  13.798
24394W        W89654  22.530  23.507  12.760
24395W        W89655  10.549  25.899  14.059
24396W        W89656  35.979  42.962   3.209
24397W        W89657  24.974  41.958  10.958
24398W        W89658   6.626  33.416  11.964
24399W        W89659  14.860  27.533  12.907
24400W        W89660  21.622   2.479  13.557
24401W        W89661  36.188  40.064  14.035
24402W        W89662  18.692  30.484  10.082
24403W        W89663   8.080  19.547  11.542
24404W        W89664   4.434  20.898  11.721
24405W        W89665  13.926  11.411  11.121
24406W        W89666  12.033  44.359  12.973
24407W        W89667  28.214  40.023  11.119
24408W        W89668  13.694  42.099   3.730
24409W        W89669   9.953   2.950  11.473
24410W        W89670  25.413  14.338  12.376
24411W        W89671   7.426  19.144  14.984
24412W        W89672  13.603   9.059  14.905
24413W        W89673  21.737  14.397   1.412
24414W        W89674  30.072   7.222   2.148
24415W        W89675  17.252   0.462   3.159
24416W        W89676  10.995   4.264   9.841
24417W        W89677  14.112  10.250  12.984
24418W        W89678  33.114  10.689  11.500
24419W        W89679  21.036  34.631   4.245
24420W        W89680   4.453  35.892   3.135
24421W        W89681  42.018  41.027  10.446
24422W        W89682   9.229  38.010  12.179
24423W        W89683  20.742  30.316  14.267
24424W        W89684   8.757  36.483   4.137
24425W        W89685  15.632  30.464  14.786
24426W        W89686  18.602   7.135   1.971
24427W        W89687  25.497  18.070  14.439
24428W        W89688  32.179   1.638   3.672
24429W        W89689  13.770   9.635  11.614
24430W        W89690  10.910  10.636   4.144
24431W        W89691   6.250  23.598  10.733
24432W        W89692  22.401  11.338  13.281
24433W        W89693  37.773  18.515   2.330
24434W        W89694  21.528  34.091  11.022
24435W        W89695   9.805  42.419   4.096
24436W        W89696   9.868  43.809   3.750
24437W        W89697  38.214  11.631   1.919
24438W        W89698  18.147  43.245  14.033
24439W        W89699  26.999   5.869  13.983
24440W        W89700   4.439  40.459  10.569
24441W        W89701  43.968  20.224   1.229
24442W        W89702  43.233  22.698   2.351
24443W        W89703  13.823  23.117   0.294
24444W        W89704  41.798  11.164   1.426
24445W        W89705  11.910  26.283  11.659
24446W        W89706  28.644  28.407  14.114
24447W        W89707  42.966  23.973   3.654
24448W        W89708  11.751  22.238   2.883
24449W        W89709  26.916  26.486  12.961
24450W        W89710   2.016  34.657  14.395
24451W        W89711  16.042  18.120   1.328
24452W        W89712  42.311  29.466   4.276
24453W        W89713   5.442  34.380   4.975
24454W        W89714  24.664  11.811   2.153
24455W        W89715  36.023  41.148   3.005
24456W        W89716  22.689   9.099  12.033
24457W        W89717  16.326  11.078   4.909
24458W        W89718  36.150  24.464   0.824
24459W        W89719   6.750  16.936   4.579
24460W        W89720  14.061   2.264  11.057
24461W        W89721  39.306  43.972   0.877
24462W        W89722  40.399  22.792  13.881
24463W        W89723  11.425  40.067  14.807
24464W        W89724   3.325   2.689  12.386
24465W        W89725  31.176  35.898   4.609
24466W        W89726  27.308  32.906   0.687
24467W        W89727  10.803   7.155  14.882
24468W        W89728  13.685  22.248   4.595
24469W        W89729  22.615  12.067  13.850
24470W        W89730  27.943  32.275   3.897
24471W        W89731   9.674   9.313  13.449
24472W        W89732  16.610  19.233  14.126
24473W        W89733  32.833   3.398   2.892
24474W        W89734  28.019  38.506   4.504
24475W        W89735  38.878  34.484  12.062
24476W        W89736  10.897   5.967   3.235
24477W        W89737  40.008  41.427  13.009
24478W        W89738  33.627  26.260  11.216
24479W        W89739  14.667   5.669  12.849
24480W        W89740  29.988   5.955  13.098
24481W        W89741   6.834  18.253  13.803
24482W        W89742  22.709  40.791  11.555
24483W        W89743  23.000   6.891   3.553
24484W        W89744  14.035  43.494  11.581
24485W        W89745  34.861  24.001  13.942
24486W        W89746  44.428  10.810  11.526
24487W        W89747  17.549  40.081   1.405
24488W        W89748  24.964  40.441   4.766
24489W        W89749  31.305  29.903   4.205
24490W        W89750  17.534  11.029   2.745
24491W        W89751  19.440   6.133   0.015
24492W        W89752  43.320   0.797  13.111
24493W        W89753   2.962   4.448  14.440
24494W        W89754  24.672  18.345   0.354
24495W        W89755   2.471   0.601   0.412
24496W        W89756   7.478  21.851   2.699
24497W        W89757  39.532  30.617  11.838
24498W        W89758  22.007  42.414  11.115
24499W        W89759  18.245  14.851  14.493
24500W        W89760  21.633  37.977   0.371
24501W        W89761  15.984  17.277  13.278
24502W        W89762   9.525  27.483   1.835
24503W        W89763   1.704   2.652   3.397
24504W        W89764   7.288  17.803  13.575
24505W        W89765  41.080  28.426  12.457
24506W        W89766   7.230   8.923   0.796
24507W        W89767  32.542  43.994  12.380
24508W        W89768  38.344  33.485   3.214
24509W        W89769   4.463  34.032  11.151
24510W        W89770   8.695   5.586   1.263
24511W        W89771  33.137  11.881   2.257
24512W        W89772  17.280  40.398   3.233
24513W        W89773  44.555  22.049   2.264
24514W        W89774  11.863  10.683  13.054
24515W        W89775  26.728  28.502  10.499
24516W        W89776  18.890  34.406  10.772
24517W        W89777  28.433  39.632  11.963
24518W        W89778  40.914  23.321   3.683
24519W        W89779  37.087  23.505   2.813
24520W        W89780  15.194  32.473   4.034
24521W        W89781  11.423  28.591   3.697
24522W        W89782   4.007   4.437  11.576
24523W        W89783   4.302   7.130  11.677
24524W        W89784  42.591  33.411   1.925
24525W        W89785  28.618  10.347   0.217
24526W        W89786  41.882  36.927  12.334
24527W        W89787   6.462   5.057   3.430
24528W        W89788  29.439  38.056  13.013
24529W        W89789  19.155   1.985  12.086
24530W        W89790  17.314  15.920  10.980
24531W        W89791  30.369  37.976  12.540
24532W        W89792  42.189  27.731   3.668
24533W        W89793   3.255  38.234  10.682
24534W        W89794  28.511  35.811   3.642
24535W        W89795  30.723  29.655  11.067
24536W        W89796  42.361  41.474   4.543
24537W        W89797  33.488  10.923  12.435
24538W        W89798  21.745   3.423  10.895
24539W        W89799   4.909   9.413   1.857
24540W        W89800  42.428  17.843   1.340
24541W        W89801  38.009   4.011   4.687
24542W        W89802  17.627  43.706   1.943
24543W        W89803  36.891  35.520  11.692
24544W        W89804  11.797  37.454   2.303
24545W        W89805   0.939  12.535  11.485
24546W        W89806  23.691  42.466   4.404
24547W        W89807   1.409  23.240   0.258
24548W        W89808  16.727  17.220   0.534
24549W        W89809  43.522  39.873   2.577
24550W        W89810  24.066  14.883  13.943
24551W        W89811  44.451   5.498   1.445
24552W        W89812  31.743   1.935   3.809
24553W        W89813  36.384   0.060   2.754
24554W        W89814  33.081   8.376   3.611
24555W        W89815  30.573  32.677   1.820
24556W        W89816   4.558  11.837   0.291
24557W        W89817  14.638  42.517  11.502
24558W        W89818   4.242   0.247   2.041
24559W        W89819   3.727  13.621  12.434
24560W        W89820  35.944  30.080  14.399
24561W        W89821   6.036  20.760   4.597
24562W        W89822   6.476  23.720  14.843
24563W        W89823  13.806   4.299   0.725
24564W        W89824  33.325   1.854  11.476
24565W        W89825  30.865   5.158   3.358
24566W        W89826  26.077   7.321   1.652
24567W        W89827  19.004   3.169  14.486
24568W        W89828  24.086  19.713   2.637
24569W        W89829  17.493  26.528   5.035
24570W        W89830  34.355  41.667  13.349
24571W        W89831   4.871   7.860   2.348
24572W        W89832  21.508  32.999   4.045
24573W        W89833  41.052  28.693  11.178
24574W        W89834  18.719  38.381  11.896
24575W        W89835  33.792  38.481  13.268
24576W        W89836   3.281  25.106  13.042
24577W        W89837  26.456  17.568  11.562
24578W        W89838  38.358  16.325   4.671
24579W        W89839   0.645  39.271  14.453
24580W        W89840  35.141   6.759  13.163
24581W        W89841  22.640  11.437  10.706
24582W        W89842  10.253  32.629   2.295
24583W        W89843  40.541  10.735  11.957
24584W        W89844  16.536   3.503  12.457
24585W        W89845  13.525  26.284  14.340
24586W        W89846  22.907   6.456   0.911
24587W        W89847  31.074  10.603   0.931
24588W        W89848   7.248  20.566  14.897
24589W        W89849  16.381  15.664  14.470
24590W        W89850   5.255  26.665  13.929
24591W        W89851   9.020  43.433  12.485
24592W        W89852  36.349  33.721  11.496
24593W        W89853   4.345  23.703   0.863
24594W        W89854   2.412  16.702   3.755
24595W        W89855  23.761   1.620  11.070
24596W        W89856  17.179  19.345   1.715
24597W        W89857   0.546  43.007   4.044
24598W        W89858  29.203  21.006   5.024
24599W        W89859   8.706  18.799  12.511
24600W        W89860  11.921  11.292   2.369
24601W        W89861  31.022  37.481   0.380
24602W        W89862  23.608   9.455  11.037
24603W        W89863  43.012  25.509   2.793
24604W        W89864   0.968  33.634   3.178
24605W        W89865  44.750  21.025   0.913
24606W        W89866  43.920  14.633   5.498
24607W        W89867  22.000  44.241   1.185
24608W        W89868  16.420   9.052   0.343
24609W        W89869  34.538  29.697   3.357
24610W        W89870  25.693  24.960  13.329
24611W        W89871  31.943  36.017  10.809
24612W        W89872  43.752  18.288  12.066
24613W        W89873  34.557  16.683   2.317
24614W        W89874  32.410  28.409   3.656
24615W        W89875  18.551  29.885  11.407
24616W        W89876  22.094  17.220  14.304
24617W        W89877  21.735  35.431  11.652
24618W        W89878  24.507   2.497  12.891
24619W        W89879  39.471  22.413   4.901
24620W        W89880  13.293  16.091   1.358
24621W        W89881  22.240   0.694   0.726
24622W        W89882   0.793   6.254   0.927
24623W        W89883  38.869  32.798  13.114
24624W        W89884  42.868  37.095   1.888
24625W        W89885   8.677  33.918  11.625
24626W        W89886  26.253   3.159  10.635
24627W        W89887  29.092  23.206  12.381
24628W        W89888  23.161  24.028  10.809
24629W        W89889  30.202  25.939   3.663
24630W        W89890  27.462  31.725   2.179
24631W        W89891  39.380  20.301   4.834
24632W        W89892  42.079  12.195  14.339
24633W        W89893  17.868  16.639  11.626
24634W        W89894  12.246  36.969   4.640
24635W        W89895  20.691  19.071   4.586
24636W        W89896  28.039   1.781  11.669
24637W        W89897  22.599  42.295   4.235
24638W        W89898  40.081  21.024  11.205
24639W        W89899  25.028   8.936  13.866
24640W        W89900   3.972  10.944   0.709
24641W        W89901  20.579   8.581  10.743
24642W        W89902  24.471  16.305   9.911
24643W        W89903  13.747  27.482   5.637
24644W        W89904  18.236  40.427   4.326
24645W        W89905  17.252  21.099   0.509
24646W        W89906  13.652  37.859   4.502
24647W        W89907   3.823  15.551  14.664
24648W        W89908  21.439  22.428  12.521
24649W        W89909  35.872   2.187   1.729
24650W        W89910   2.915  28.271   1.868
24651W        W89911  24.108  28.862  14.437
24652W        W89912  21.948  32.414   1.266
24653W        W89913  24.549  29.895  12.926
24654W        W89914  14.238  35.873   4.189
24655W        W89915  20.099   1.946  12.916
24656W        W89916   3.924  40.357  10.728
24657W        W89917  20.808  34.009  11.656
24658W        W89918  22.951   9.343   1.959
24659W        W89919  36.610   8.435  12.931
24660W        W89920  28.080   2.772   1.699
24661W        W89921   9.604   0.062   1.192
24662W        W89922   7.401  13.298  11.462
24663W        W89923  33.979  33.170  13.510
24664W        W89924  20.075  44.029   4.635
24665W        W89925  35.829  39.104  12.071
24666W        W89926   4.899  40.745   2.665
24667W        W89927  25.498  15.048  13.035
24668W        W89928  43.666  24.624   4.129
24669W        W89929  44.549  30.077  12.455
24670W        W89930  22.550  44.282  13.036
24671W        W89931  33.598  25.009  13.098
24672W        W89932  12.711  22.268   2.183
24673W        W89933  31.534  13.695   2.611
24674W        W89934  26.250   2.921   3.675
24675W        W89935  39.733  36.901   0.907
24676W        W89936   6.744  15.994   1.187
24677W        W89937  27.802  42.774   2.269
24678W        W89938  17.551   3.051  10.550
24679W        W89939  19.166  17.261   2.828
24680W        W89940   7.130   1.971   0.310
24681W        W89941  19.483   6.717   4.142
24682W        W89942  12.848  44.016  11.083
24683W        W89943   3.534  10.692  13.318
24684W        W89944   9.259  15.440  10.540
24685W        W89945  23.092  40.291   4.634
24686W        W89946   0.780  12.392  14.043
24687W        W89947  19.203  34.659   1.878
24688W        W89948  13.644  38.398  12.040
24689W        W89949  19.229   7.748   1.736
24690W        W89950  11.645  39.677  11.485
24691W        W89951  17.628  25.415   0.307
24692W        W89952   3.971  40.840  12.609
24693W        W89953  37.858  11.677  13.857
24694W        W89954  41.874  18.176   1.769
24695W        W89955   1.377   8.593   4.902
24696W        W89956   6.922  28.443   2.684
24697W        W89957  19.801  14.897  11.992
24698W        W89958  12.282  17.543  14.990
24699W        W89959  12.433  10.795  10.994
24700W        W89960  27.006   6.745  14.708
24701W        W89961  29.173   7.160  11.563
24702W        W89962   6.685   0.133   0.346
24703W        W89963  34.386   7.151   1.450
24704W        W89964  36.471   6.741   3.252
24705W        W89965  15.240  10.207  13.596
24706W        W89966  13.866  38.437   0.494
24707W        W89967  34.348  44.644  14.056
24708W        W89968   0.469  29.420   3.060
24709W        W89969  22.983   2.372  10.253
24710W        W89970   4.842  39.487   3.672
24711W        W89971  34.504   1.178  10.697
24712W        W89972  39.091  10.259   4.691
24713W        W89973  11.617  21.219   4.489
24714W        W89974  25.948  23.315   0.391
24715W        W89975  22.508  18.351   1.832
24716W        W89976  30.550   7.893   1.048
24717W        W89977  37.596  18.691   3.156
24718W        W89978   8.398   4.381  14.803
24719W        W89979  20.465   9.132   3.588
24720W        W89980  29.046  14.084  14.565
24721W        W89981  39.339   5.179   4.138
24722W        W89982   4.706  18.031   1.354
24723W        W89983   9.482  32.161   0.268
24724W        W89984  38.097  30.649   0.453
24725W        W89985   1.241  34.638  14.819
24726W        W89986  25.053  10.689  14.426
24727W        W89987   7.795  23.007  14.412
24728W        W89988  38.378  44.690  10.700
24729W        W89989  43.066  19.756  14.784
24730W        W89990  13.039  30.850   2.418
24731W        W89991  37.576  41.759   0.435
24732W        W89992  12.281  42.951  14.489
24733W        W89993   4.339   8.970  14.787
24734W        W89994  20.224  26.900   1.880
24735W        W89995  28.623   6.163  10.862
24736W        W89996  18.147  36.980   5.020
24737W        W89997  38.422  36.026   2.817
24738W        W89998  17.592  26.807   1.807
24739W        W89999  23.166  12.184  10.753
24740W        W90000  40.929   9.083   3.224
24741W        W90001  18.585  38.977   5.089
24742W        W90002  18.355  25.717  12.327
24743W        W90003  27.469  17.231   2.753
24744W        W90004  16.295  30.610  12.348
24745W        W90005  42.269   7.820   3.294
24746W        W90006  41.006  21.714  11.879
24747W        W90007  20.195  35.489   3.701
24748W        W90008   7.949  20.303  10.988
24749W        W90009   7.928   1.349   2.407
24750W        W90010  12.848  26.635   3.618
24751W        W90011  12.203  36.457   2.389
24752W        W90012   8.571   5.054   0.488
24753W        W90013   0.369  10.361  13.312
24754W        W90014  16.773   7.085  11.263
24755W        W90015  25.214   1.898   3.117
24756W        W90016  30.903  20.010  13.117
24757W        W90017  26.792  24.924   4.750
24758W        W90018  37.105  19.255  10.536
24759W        W90019  21.698   0.281   4.124
24760W        W90020  29.664  32.004  13.555
24761W        W90021  38.486  44.531  12.468
24762W        W90022  33.584  13.238  14.605
24763W        W90023  17.282  38.753  14.036
24764W        W90024  12.737  16.325  13.759
24765W        W90025  12.399  16.265  14.623
24766W        W90026  26.220  26.203   5.119
24767W        W90027  17.516  44.264  11.246
24768W        W90028  31.510  33.859  11.322
24769W        W90029  28.960  42.749  10.960
24770W        W90030  39.213  20.190   1.892
24771W        W90031  20.761   8.444   4.710
24772W        W90032   4.420  35.855  10.632
24773W        W90033  40.500  22.098   4.133
24774W        W90034  34.316   4.498  11.096
24775W        W90035   4.322  33.091   4.155
24776W        W90036  33.483  33.730   4.436
24777W        W90037  25.045  34.916   2.369
24778W        W90038  31.640   2.373  12.149
24779W        W90039  32.304  14.995   0.004
24780W        W90040  31.088   7.264   4.101
24781W        W90041  24.197   0.348  14.763
24782W        W90042  36.339   3.645  11.068
24783W        W90043  26.093   6.840   0.876
24784W        W90044  14.454  16.122   1.683
24785W        W90045  23.804  33.532  13.609
24786W        W90046  35.039  20.082   3.858
24787W        W90047  18.824  27.603  11.605
24788W        W90048  26.662  12.364   2.212
24789W        W90049   0.626   8.925  11.106
24790W        W90050  13.764   4.408   1.755
24791W        W90051  28.910  18.969  12.808
24792W        W90052  33.183   2.721  11.468
24793W        W90053  35.081   6.269  13.316
24794W        W90054  39.471  13.712   1.524
24795W        W90055  30.610   8.754  12.394
24796W        W90056  38.990  18.991  12.992
24797W        W90057  13.112  23.583   1.698
24798W        W90058  40.092  37.454  14.434
24799W        W90059  36.545  32.388   2.711
24800W        W90060  33.497  39.621   0.126
24801W        W90061  21.606  29.806   1.019
24802W        W90062   5.991  31.146  13.903
24803W        W90063   8.516   6.796   3.629
24804W        W90064   0.574  40.607  12.027
24805W        W90065   9.400  29.875   4.190
24806W        W90066  31.643  21.076   4.831
24807W        W90067  25.580  42.815   3.094
24808W        W90068   8.073  35.334  11.108
24809W        W90069   7.341   6.343   4.174
24810W        W90070  35.602   3.208  12.705
24811W        W90071  24.139  10.615   0.457
24812W        W90072   2.413   9.858   1.225
24813W        W90073  42.428  24.483  11.610
24814W        W90074  44.762  32.936   4.285
24815W        W90075  27.457   4.257   3.948
24816W        W90076  15.615  34.497   4.152
24817W        W90077   3.764  37.469  10.958
24818W        W90078  25.911  22.348   3.849
24819W        W90079   1.446  40.857  13.900
24820W        W90080  25.008  31.454   3.827
24821W        W90081  27.075  43.553   3.825
24822W        W90082  44.044  35.709   0.504
24823W        W90083   8.317   3.837  14.858
24824W        W90084  28.386  11.864   3.133
24825W        W90085  17.319   6.788  14.883
24826W        W90086  19.957   3.888  11.047
24827W        W90087  36.373   1.898   2.194
24828W        W90088  31.499  18.793   1.309
24829W        W90089   4.654  21.252  14.500
24830W        W90090  41.722  29.189   0.444
24831W        W90091  32.064   1.110   5.091
24832W        W90092  39.936   7.762  14.474
24833W        W90093  30.990  26.183  14.537
24834W        W90094  23.098  38.975   4.584
24835W        W90095  36.453  24.240  11.492
24836W        W90096   4.129  15.840   3.389
24837W        W90097   5.209  21.398   0.416
24838W        W90098  22.602  44.311  12.139
24839W        W90099  36.817   3.135   4.111
24840W        W90100   7.117  30.528   4.432
24841W        W90101  28.883  20.942   4.561
24842W        W90102  10.968  41.924  11.711
24843W        W90103  29.197  32.445   0.011
24844W        W90104  10.450  13.832  10.802
24845W        W90105   1.891  35.691   2.432
24846W        W90106  17.144  27.208  12.461
24847W        W90107  10.671  13.277   3.931
24848W        W90108  26.183  40.352   4.811
24849W        W90109  27.095  25.929   0.837
24850W        W90110   4.424  15.853  12.069
24851W        W90111  19.712  21.150   1.223
24852W        W90112  25.935  20.870  10.811
24853W        W90113  20.263  16.776  10.669
24854W        W90114  43.452  36.091  13.926
24855W        W90115   6.787   2.440   2.775
24856W        W90116  16.826  43.448   0.926
24857W        W90117  35.005  40.475   3.879
24858W        W90118  32.229  24.662  12.879
24859W        W90119  34.893   4.740   3.761
24860W        W90120  31.694  34.101   2.664
24861W        W90121  26.003  23.117   2.388
24862W        W90122  36.119  10.219   1.199
24863W        W90123  30.048  15.956   2.828
24864W        W90124  17.088  32.228   1.636
24865W        W90125   6.171  38.544  11.557
24866W        W90126   8.014  15.426  14.748
24867W        W90127  36.089  25.455   2.448
24868W        W90128  38.858  18.642   3.107
24869W        W90129   5.392  22.944  10.121
24870W        W90130  39.960  33.043  10.571
24871W        W90131  42.440  36.332   1.736
24872W        W90132   1.824  38.878   3.366
24873W        W90133  18.808   4.640  11.558
24874W        W90134  32.631  25.738  11.538
24875W        W90135  24.645  17.281   1.281
24876W        W90136  10.458  15.017   2.875
24877W        W90137  19.241  20.861   1.469
24878W        W90138   8.992   3.793   3.326
24879W        W90139  43.128  41.240   4.776
24880W        W90140  15.940   2.994   3.736
24881W        W90141   0.148  15.379   0.929
24882W        W90142  40.371  19.646   0.888
24883W        W90143  34.578  36.568   2.376
24884W        W90144  11.146  43.935   0.409
24885W        W90145  10.487  18.386  14.933
24886W        W90146  23.987  35.825  14.766
24887W        W90147  13.261  36.930  10.481
24888W        W90148  18.058  43.281   3.571
24889W        W90149  43.114  33.525  12.046
24890W        W90150  41.577  11.041   0.523
24891W        W90151  39.284  13.464  13.589
24892W        W90152  44.927  35.095  12.544
24893W        W90153  36.286  16.042  10.634
24894W        W90154  38.859  16.393   2.256
24895W        W90155  25.297  32.907   3.835
24896W        W90156  11.304  39.290   3.252
24897W        W90157  23.979  44.953  11.735
24898W        W90158  29.902  41.402   4.869
24899W        W90159   6.883  31.896   4.906
24900W        W90160  11.622  42.286  12.489
24901W        W90161   8.663  38.892  10.690
24902W        W90162  23.399   8.463   1.347
24903W        W90163   5.530  17.753   1.464
24904W        W90164  15.925  23.936   1.327
24905W        W90165   0.228   1.388  13.400
24906W        W90166  30.399  27.476  14.049
24907W        W90167  18.786  24.159  11.795
24908W        W90168  13.303  40.787   0.894
24909W        W90169  36.749  41.873   3.276
24910W        W90170   4.897  39.810   1.356
24911W        W90171  38.344  30.064   3.690
24912W        W90172  36.539  38.973   2.378
24913W        W90173  26.162   7.267  13.673
24914W        W90174  10.357  29.762   3.891
24915W        W90175   0.438  32.087   3.316
24916W        W90176  17.391  17.171   3.331
24917W        W90177  31.893  30.602  13.017
24918W        W90178  16.568   8.789  11.568
24919W        W90179   0.931   6.390  13.907
24920W        W90180   2.466   6.675  12.047
24921W        W90181   9.843  28.447   5.189
24922W        W90182  20.523  27.405  12.917
24923W        W90183  28.147  40.345  14.710
24924W        W90184  29.570  10.127   1.286
24925W        W90185  29.954  32.098   3.842
24926W        W90186  42.161   1.036   3.696
24927W        W90187  40.228  41.582  14.371
24928W        W90188  19.473  19.129   2.365
24929W        W90189  37.992  30.946   4.768
24930W        W90190  17.815  27.461   0.553
24931W        W90191  27.492  37.440   2.387
24932W        W90192   5.794  23.527  10.941
24933W        W90193  44.049  41.283   0.448
24934W        W90194   9.546   1.366  11.163
24935W        W90195  38.102  14.057   0.220
24936W        W90196  10.129  12.392   3.007
24937W        W90197  42.719  34.017   2.972
24938W        W90198  31.799  14.199   2.124
24939W        W90199  42.365  15.068  14.259
24940W        W90200  11.625   6.796  11.591
24941W        W90201   6.373  28.601  13.575
24942W        W90202  21.725   2.699   1.479
24943W        W90203  16.804   1.791  11.515
24944W        W90204  22.143  30.201   3.692
24945W        W90205  44.931  12.845   1.360
24946W        W90206  12.097  17.278  13.895
24947W        W90207  42.955  10.130  13.991
24948W        W90208   9.249  36.100  10.220
24949W        W90209  27.716  34.826   0.753
24950W        W90210  40.008  34.483   1.283
24951W        W90211  27.556  33.556   3.822
24952W        W90212  14.659  43.986   0.733
24953W        W90213  30.164  28.277   0.931
24954W        W90214  37.602  37.734  13.406
24955W        W90215  32.172  39.647  10.888
24956W        W90216  29.921   8.280  14.018
24957W        W90217  43.523  40.466  14.339
24958W        W90218  34.737  27.498   4.644
24959W        W90219  34.967  33.633  12.003
24960W        W90220  22.155  30.858   2.207
24961W        W90221  35.637  36.037  10.779
24962W        W90222  15.164  24.530  12.654
24963W        W90223  30.131   3.656   2.691
24964W        W90224  43.815  21.282  14.881
24965W        W90225  33.242  41.870   4.145
24966W        W90226   5.692  18.167   0.346
24967W        W90227  38.621  24.548   3.125
24968W        W90228  30.140   5.234   1.104
24969W        W90229  39.014   5.166   4.526
24970W        W90230  16.659  35.999   1.361
24971W        W90231  25.921  18.767  14.388
24972W        W90232  41.692  20.773   0.219
24973W        W90233  10.893   3.510   2.341
24974W        W90234  12.750   4.213   3.194
24975W        W90235  37.108   3.417   5.379
24976W        W90236  27.390  19.627   0.765
24977W        W90237  10.229  27.024  12.396
24978W        W90238   5.666  21.212  14.235
24979W        W90239  16.345  14.556  11.742
24980W        W90240   9.638  19.325  13.789
24981W        W90241  15.881  28.070   1.894
24982W        W90242  35.051  11.193  14.540
24983W        W90243   6.879   9.307  10.726
24984W        W90244  20.278  40.929  11.628
24985W        W90245  16.165  14.619   1.971
24986W        W90246   2.305   9.934  13.277
24987W        W90247  35.761   6.121  11.734
24988W        W90248   0.592  13.794  14.734
24989W        W90249   5.284  21.307   3.743
24990W        W90250  35.403  32.000  11.560
24991W        W90251   8.237  10.683  14.364
24992W        W90252  29.756   8.854   2.966
24993W        W90253  13.152  24.610   0.237
24994W        W90254  21.890  16.066  12.469
24995W        W90255   6.476   2.456   2.362
24996W        W90256  27.505  21.562  11.134
24997W        W90257   7.581  32.063  14.936
24998W        W90258  37.927  17.550  13.053
24999W        W90259   3.607   3.690  12.062
25000W        W90260   0.790  23.337   4.489
25001W        W90261  12.692   5.749   2.313
25002W        W90262   8.914  43.282   3.540
25003W        W90263  24.637  27.594  10.895
25004W        W90264  28.702   3.674   4.194
25005W        W90265  25.037  19.259   1.336
25006W        W90266  26.487  24.792  13.770
25007W        W90267  30.654  24.604   4.089
25008W        W90268   2.349   1.460  12.868
25009W        W90269   2.436   3.971   4.119
25010W        W90270  40.104  34.258  11.535
25011W        W90271   8.665  25.114   1.897
25012W        W90272  29.851  11.498   1.250
25013W        W90273  19.812  25.585  13.452
25014W        W90274  11.832  36.940   1.386
25015W        W90275  27.023  18.002   1.274
25016W        W90276  15.298  18.308   4.064
25017W        W90277  31.776  38.047  10.571
25018W        W90278  39.939  26.227   4.778
25019W        W90279  44.252  21.623   2.290
25020W        W90280  43.815  18.630  14.183
25021W        W90281   0.244   8.836  13.127
25022W        W90282   7.655  21.942  11.508
25023W        W90283  24.002  21.701   0.690
25024W        W90284  19.132  10.627   3.705
25025W        W90285  37.651  42.362  11.023
25026W        W90286  32.041  12.709   0.495
25027W        W90287  36.340  43.895   3.328
25028W        W90288  14.855   5.279   1.504
25029W        W90289   4.379   8.210  13.548
25030W        W90290  14.245   9.123   2.213
25031W        W90291  26.201  13.329  14.279
25032W        W90292  30.875  43.784  10.875
25033W        W90293   9.643  23.618  14.408
25034W        W90294  37.948  22.559   2.823
25035W        W90295  32.574  39.480  10.598
25036W        W90296  19.604  36.504   1.734
25037W        W90297  35.375  16.681  13.445
25038W        W90298  28.747  19.331   2.794
25039W        W90299  31.608  37.493  11.147
25040W        W90300  24.947   8.260   3.647
25041W        W90301  37.335  25.958   1.373
25042W        W90302  16.113  28.447  12.965
25043W        W90303  16.598   4.194  13.786
25044W        W90304  34.163   5.915   2.261
25045W        W90305   6.355  37.489   4.718
25046W        W90306  15.569  20.337   3.294
25047W        W90307  38.526  38.389   1.007
25048W        W90308  38.316   7.633   4.345
25049W        W90309  29.902  26.900  13.790
25050W        W90310  14.795  14.102  14.515
25051W        W90311  37.047  38.417  11.596
25052W        W90312  19.247  11.937  10.818
25053W        W90313  27.399  26.038  11.757
25054W        W90314   3.937   4.493   2.648
25055W        W90315  14.577  16.304   4.103
25056W        W90316  22.413  29.903   2.406
25057W        W90317   9.550  23.967   3.742
25058W        W90318   2.271   1.254  11.208
25059W        W90319  42.759  35.088   2.069
25060W        W90320  33.376  39.833   1.807
25061W        W90321  19.711  23.022   3.998
25062W        W90322  23.689  14.078   3.210
25063W        W90323  37.763  17.502  14.342
25064W        W90324  41.488  10.271   2.647
25065W        W90325  33.505  18.082   3.285
25066W        W90326   9.082  43.307   0.758
25067W        W90327  14.579  34.937   4.607
25068W        W90328  26.319   0.485   0.253
25069W        W90329  35.604  13.391   3.608
25070W        W90330  24.758  19.234  13.888
25071W        W90331  31.173  14.732   4.657
25072W        W90332  41.274  27.689   0.482
25073W        W90333   2.683   7.400  14.540
25074W        W90334  27.013  24.774   2.656
25075W        W90335   6.669  40.401   1.548
25076W        W90336   3.895  40.126  11.209
25077W        W90337  18.658  19.579   1.348
25078W        W90338  11.926  27.151   0.364
25079W        W90339   3.724   2.786  11.117
25080W        W90340   8.499  39.476  12.567
25081W        W90341  29.710  44.414  10.685
25082W        W90342  34.647   1.046   4.927
25083W        W90343  10.619  14.216   0.986
25084W        W90344  18.870   1.377  10.918
25085W        W90345  13.270   3.667   1.889
25086W        W90346  14.218  22.844   0.471
25087W        W90347  26.587  40.100   0.915
25088W        W90348  18.189  17.535  12.257
25089W        W90349  11.594  39.699   3.103
25090W        W90350  22.892   2.752  14.330
25091W        W90351  25.356  30.006   2.905
25092W        W90352  31.042  31.639   0.264
25093W        W90353  23.241  36.862  12.353
25094W        W90354  38.842  24.074  12.362
25095W        W90355  40.050   7.746   0.494
25096W        W90356  36.895   5.855  13.383
25097W        W90357  30.106  37.045   4.732
25098W        W90358  16.277  37.118   2.428
25099W        W90359   2.288  23.997  10.211
25100W        W90360  13.530  14.075  12.881
25101W        W90361   0.996   9.696  11.853
25102W        W90362  36.083  19.522   1.785
25103W        W90363  31.576   0.044  10.733
25104W        W90364  21.225   4.529   9.888
25105W        W90365  19.223  25.515   4.667
25106W        W90366   4.490  22.025  11.150
25107W        W90367  15.449  11.684  14.782
25108W        W90368  18.322  24.136  14.137
25109W        W90369  25.860   8.150  13.356
25110W        W90370  15.381  42.032  14.983
25111W        W90371   3.761  29.275   2.692
25112W        W90372   3.343  42.239   0.896
25113W        W90373  38.697  42.740   3.243
25114W        W90374   4.714  19.833   5.091
25115W        W90375  38.809  43.842   0.682
25116W        W90376   8.603  43.746  13.018
25117W        W90377  28.248  33.043  11.488
25118W        W90378  40.298  33.884  13.868
25119W        W90379  40.288  12.891   3.641
25120W        W90380   4.024   6.934  14.413
25121W        W90381  21.475   5.495  12.581
25122W        W90382  34.440  33.379   4.281
25123W        W90383  30.507  30.678  14.003
25124W        W90384  39.071  30.068   3.143
25125W        W90385  34.316  23.519  11.090
25126W        W90386  11.890  21.803  12.465
25127W        W90387  35.590  25.441   0.327
25128W        W90388  40.637   0.276  11.229
25129W        W90389  14.217  33.093   4.140
25130W        W90390  27.021  14.961   2.719
25131W        W90391  31.679   3.933  10.959
25132W        W90392  19.144   6.829   1.650
25133W        W90393  28.724  35.517   0.459
25134W        W90394   2.460  11.636   0.319
25135W        W90395   4.597  16.594   4.237
25136W        W90396  21.126   0.243   4.184
25137W        W90397  25.100  34.629  14.295
25138W        W90398   5.638  31.887  12.497
25139W        W90399   7.736  26.996   0.489
25140W        W90400  17.234   8.898   3.204
25141W        W90401  28.234  16.985  12.356
25142W        W90402  35.901  39.123   1.691
25143W        W90403  24.121  38.045   4.492
25144W        W90404   1.744  30.606  13.059
25145W        W90405  36.882   2.332  10.870
25146W        W90406  22.584  22.320   4.313
25147W        W90407  39.017  24.597   0.361
25148W        W90408  44.456  10.077  13.365
25149W        W90409  38.073  24.091  12.088
25150W        W90410  28.525  43.875   0.264
25151W        W90411  33.440  39.010  10.786
25152W        W90412  43.515  33.975  13.884
25153W        W90413  10.824  41.749   0.827
25154W        W90414  36.403  44.419  10.273
25155W        W90415  36.030  22.967   4.394
25156W        W90416  26.384  23.957   4.533
25157W        W90417  21.167  34.901   2.610
25158W        W90418   8.110  32.310  10.938
25159W        W90419   5.463  29.991  13.884
25160W        W90420  11.211   0.791  13.522
25161W        W90421  21.896  38.900  13.935
25162W        W90422  12.649  15.325   2.194
25163W        W90423   5.170  25.085   4.719
25164W        W90424   7.184   0.803   2.657
25165W        W90425  21.170  33.052  10.614
25166W        W90426  20.522  39.548  11.589
25167W        W90427  11.265  26.287   3.220
25168W        W90428   5.305  16.803   3.788
25169W        W90429  35.247  33.171   1.670
25170W        W90430   7.624   0.016   0.229
25171W        W90431   5.930  15.576  12.035
25172W        W90432  14.991  37.850  12.261
25173W        W90433  37.335  29.492  13.353
25174W        W90434  20.428   5.768   3.506
25175W        W90435  11.176   3.088  11.303
25176W        W90436   4.046  14.129   4.751
25177W        W90437  23.142  37.600   3.591
25178W        W90438  10.030  24.571  11.066
25179W        W90439  26.747  10.708  10.937
25180W        W90440  26.700   2.630   3.588
25181W        W90441  44.273  14.388  10.477
25182W        W90442  14.739  42.550  13.344
25183W        W90443  34.166  39.742   2.250
25184W        W90444  13.161  34.725   4.997
25185W        W90445  33.593   9.873   2.366
25186W        W90446  35.544   4.665  10.655
25187W        W90447   3.295   1.780  13.787
25188W        W90448  23.490  17.278  12.179
25189W        W90449   8.300   1.856   1.872
25190W        W90450  21.279  11.123  14.836
25191W        W90451  10.263  21.040   9.892
25192W        W90452  16.645   7.939  12.216
25193W        W90453  44.916  16.286  11.443
25194W        W90454  37.625  30.016   2.659
25195W        W90455   4.797   6.861  11.518
25196W        W90456  30.526  27.734  14.505
25197W        W90457  22.662   0.246   4.173
25198W        W90458  28.264  37.246  10.066
25199W        W90459  35.064  34.092  11.111
25200W        W90460   6.955  12.344   1.916
25201W        W90461  23.780  13.246   4.692
25202W        W90462   0.001  31.515   4.700
25203W        W90463  41.094  10.408   2.943
25204W        W90464  44.322  39.012  13.329
25205W        W90465   7.141  36.533   0.394
25206W        W90466  28.795  14.337  13.506
25207W        W90467  26.062  38.617   0.380
25208W        W90468  17.572  12.539  12.477
25209W        W90469  25.149  17.061  11.570
25210W        W90470  20.629  22.599   4.038
25211W        W90471  23.287  14.038   0.787
25212W        W90472   7.761   3.266   3.699
25213W        W90473  14.284   7.076  14.973
25214W        W90474  35.180  39.122  14.998
25215W        W90475  44.551  35.130  11.024
25216W        W90476   5.632  43.537  13.009
25217W        W90477  34.107  41.963  11.220
25218W        W90478  29.235  35.389  13.544
25219W        W90479  14.736   7.826  14.048
25220W        W90480  31.396  20.165   2.792
25221W        W90481  24.993  38.725  13.355
25222W        W90482   6.754   2.276   4.628
25223W        W90483  30.421  20.554  14.811
25224W        W90484  22.739   3.545   4.286
25225W        W90485  30.300  38.569  10.872
25226W        W90486  41.872  26.784  13.771
25227W        W90487   1.115  43.357   3.251
25228W        W90488   8.678  24.633  14.536
25229W        W90489  31.395  36.810  12.538
25230W        W90490  42.377   8.760   0.067
25231W        W90491   6.321   5.364   1.980
25232W        W90492  31.120  27.072   0.397
25233W        W90493   2.240   8.679  14.834
25234W        W90494  13.831   9.021  10.809
25235W        W90495  44.157  38.598  13.588
25236W        W90496   0.431  42.686   3.120
25237W        W90497   6.243  41.048  11.601
25238W        W90498   8.863  22.981   4.410
25239W        W90499  30.600   0.824   1.992
25240W        W90500   7.155  30.454  11.949
25241W        W90501  36.530  21.390   2.749
25242W        W90502  24.491  16.991  13.873
25243W        W90503  27.639  22.040   3.916
25244W        W90504   5.755  13.040   4.018
25245W        W90505  11.772  34.897  12.427
25246W        W90506  44.824  16.833   1.414
25247W        W90507  28.137  22.778   4.094
25248W        W90508   4.913   1.849   1.364
25249W        W90509  17.623  26.093   4.179
25250W        W90510  36.479  22.179  13.462
25251W        W90511  26.203   7.238   4.544
25252W        W90512  25.031   1.438   3.405
25253W        W90513  15.013  25.922   3.653
25254W        W90514  16.351  32.089   2.665
25255W        W90515  23.810  14.199  10.879
25256W        W90516  33.032  22.627   2.440
25257W        W90517  17.727  12.738  12.948
25258W        W90518  44.225   1.705   3.031
25259W        W90519  41.800   7.263  11.645
25260W        W90520   7.675   9.357  14.510
25261W        W90521  27.970  27.094   3.790
25262W        W90522  44.226  28.212   3.046
25263W        W90523  32.699  16.722   1.306
25264W        W90524   6.263  42.085   0.940
25265W        W90525  41.014  39.752  12.841
25266W        W90526  43.301   6.314   2.653
25267W        W90527  21.507  31.593   0.957
25268W        W90528  20.797  19.009  11.867
25269W        W90529  16.706  24.245  13.930
25270W        W90530  17.609  37.333  12.901
25271W        W90531  32.563  17.914   1.249
25272W        W90532   2.227   2.938   2.292
25273W        W90533   3.831   9.312  12.234
25274W        W90534  10.663   1.556  14.520
25275W        W90535   7.722  35.802  14.384
25276W        W90536  28.288   0.325   2.221
25277W        W90537  35.956  33.015   2.306
25278W        W90538  39.390  31.827   3.534
25279W        W90539   9.399  18.678  10.787
25280W        W90540   3.442  32.950   4.097
25281W        W90541  35.505   5.088  13.689
25282W        W90542  39.646  42.282  13.331
25283W        W90543   7.279  14.401  11.850
25284W        W90544  36.307  37.775   1.747
25285W        W90545  30.178  29.706  13.067
25286W        W90546  24.521  39.368   0.493
25287W        W90547  35.821  34.887  13.475
25288W        W90548  17.538  37.487  14.434
25289W        W90549  13.640  39.771   3.584
25290W        W90550  12.861  38.428   0.291
25291W        W90551  28.131   3.726   2.857
25292W        W90552  29.213   6.881  12.035
25293W        W90553  13.244  14.547  12.872
25294W        W90554  38.571   1.105  12.576
25295W        W90555  28.991  38.787  14.869
25296W        W90556   7.158  33.126  12.835
25297W        W90557   1.740  28.724  11.895
25298W        W90558  38.038  29.043   0.965
25299W        W90559   6.623  37.016   2.327
25300W        W90560  34.085   8.433   3.622
25301W        W90561  35.482  30.886  10.688
25302W        W90562  11.128  26.071  14.946
25303W        W90563  16.821  24.513  12.954
25304W        W90564  40.028  40.416  12.143
25305W        W90565  28.981  18.455   2.660
25306W        W90566  38.908   9.512   3.363
25307W        W90567  26.034  34.099   1.057
25308W        W90568  44.637  39.875  11.149
25309W        W90569  14.716  30.968  13.929
25310W        W90570  10.722  19.229  12.866
25311W        W90571  15.840  31.990   0.909
25312W        W90572  20.648  17.486  11.941
25313W        W90573  21.969  34.148   5.490
25314W        W90574   8.440  21.675  13.582
25315W        W90575  38.559  42.465  14.995
25316W        W90576   9.242  31.018  10.652
25317W        W90577  23.244  10.157   0.432
25318W        W90578  17.844   0.967  11.521
25319W        W90579  43.906  18.158  12.579
25320W        W90580  42.912  36.112  14.515
25321W        W90581   1.987   9.678   2.775
25322W        W90582  10.432   8.866  11.462
25323W        W90583  13.854  44.533   4.174
25324W        W90584  21.575   4.294   2.281
25325W        W90585  40.814  31.837   4.879
25326W        W90586  26.923  38.356  13.940
25327W        W90587  30.471  14.584  12.641
25328W        W90588  40.500   1.436   1.167
25329W        W90589  29.989  41.088  11.142
25330W        W90590   7.326  23.549  12.703
25331W        W90591  21.709  23.733   0.748
25332W        W90592  10.371  26.525  12.168
25333W        W90593  26.438  43.493  11.002
25334W        W90594  19.569   0.665  12.047
25335W        W90595  29.678  11.589  12.322
25336W        W90596  13.307  33.786  10.423
25337W        W90597  23.257  13.258   0.491
25338W        W90598  38.822   9.677   3.836
25339W        W90599  14.176  38.486   1.394
25340W        W90600  29.999   1.743  11.173
25341W        W90601  20.625   0.528  13.769
25342W        W90602  25.447   6.408  14.324
25343W        W90603  14.155   2.341   2.154
25344W        W90604  31.150  20.690  10.664
25345W        W90605  13.013  23.232   4.255
25346W        W90606  23.244  25.650  11.949
25347W        W90607  10.087  25.129  12.624
25348W        W90608  13.547  27.131  14.926
25349W        W90609  14.781   9.067  12.298
25350W        W90610  27.539   0.712  10.679
25351W        W90611  39.057  12.574   3.232
25352W        W90612   8.095  38.253  11.584
25353W        W90613   5.370  36.111  14.692
25354W        W90614  28.577  17.548   9.828
25355W        W90615  26.269  37.082  12.042
25356W        W90616  25.354  11.869   4.388
25357W        W90617  31.029  24.562   1.344
25358W        W90618   6.813  14.292  14.041
25359W        W90619  36.927  41.504  14.239
25360W        W90620  22.543  20.895  11.096
25361W        W90621  26.104  30.415  11.366
25362W        W90622  42.721  26.914   1.228
25363W        W90623  33.348   6.945   0.383
25364W        W90624  30.048   9.821   4.323
25365W        W90625  19.007  35.976  11.082
25366W        W90626   4.538  21.503   0.348
25367W        W90627  25.593   9.130  11.772
25368W        W90628  44.411   6.165   2.819
25369W        W90629  33.920  44.174   3.705
25370W        W90630  32.626  41.418   4.455
25371W        W90631  39.308  11.714   3.630
25372W        W90632  28.951  36.448   4.247
25373W        W90633  22.664  33.816  13.832
25374W        W90634  25.716  42.118   2.489
25375W        W90635  40.021  12.079  12.196
25376W        W90636   9.940  20.072   0.452
25377W        W90637  38.409  23.695   3.105
25378W        W90638  27.376  18.573   3.239
25379W        W90639  30.845  15.135   3.786
25380W        W90640  33.615  42.292  12.041
25381W        W90641  33.501  21.210  13.385
25382W        W90642  23.495  12.526  13.902
25383W        W90643  42.323   8.478   0.819
25384W        W90644  21.009   6.311  10.521
25385W        W90645  20.551  33.863   1.315
25386W        W90646  38.071  27.781   2.841
25387W        W90647  34.000  44.397  14.845
25388W        W90648  25.271  11.162  13.496
25389W        W90649  35.098  27.938  11.085
25390W        W90650  26.839  22.062   2.083
25391W        W90651  11.695  43.434   3.760
25392W        W90652  26.552  14.285   1.405
25393W        W90653  38.583  25.870   1.402
25394W        W90654  15.664  18.316  13.720
25395W        W90655  22.664  38.577   0.533
25396W        W90656  12.375   5.668   0.875
25397W        W90657   9.615  43.843  14.830
25398W        W90658  35.033   0.719   4.051
25399W        W90659  31.972   7.716   2.880
25400W        W90660  12.704  23.425  14.896
25401W        W90661   7.752  42.753   4.643
25402W        W90662  20.548   8.748  14.766
25403W        W90663   0.531  35.788   2.861
25404W        W90664  32.452  42.439   4.423
25405W        W90665  26.762   9.376  10.756
25406W        W90666  27.177  22.820  12.903
25407W        W90667  20.406  24.746  13.490
25408W        W90668  42.221  26.102   1.752
25409W        W90669  27.627   2.018  11.452
25410W        W90670   5.737  23.267   1.130
25411W        W90671   0.481   3.534  14.487
25412W        W90672  43.516  28.724  12.101
25413W        W90673  20.141  16.155  13.036
25414W        W90674  18.697   8.469   0.276
25415W        W90675  26.965  21.914   0.781
25416W        W90676  38.884  30.055   4.637
25417W        W90677  18.379  21.789  11.672
25418W        W90678  10.828  27.449   2.226
25419W        W90679   6.595  28.555   1.253
25420W        W90680  40.411   0.854   0.880
25421W        W90681  22.256   3.441   0.810
25422W        W90682  27.088  22.215  11.364
25423W        W90683  35.285   3.254   1.364
25424W        W90684  31.583  13.810  12.888
25425W        W90685  41.531  19.994  12.564
25426W        W90686  18.457  12.303   0.192
25427W        W90687   9.146  28.225  14.325
25428W        W90688  39.436  38.869   1.661
25429W        W90689  32.002  27.611  12.583
25430W        W90690   6.362   9.103   1.764
25431W        W90691   6.698  34.156  10.717
25432W        W90692  19.159  39.445  13.245
25433W        W90693  31.281  21.761  14.936
25434W        W90694  31.647  18.500   0.488
25435W        W90695   8.796  10.977   1.435
25436W        W90696   8.559  40.473   2.833
25437W        W90697  28.573  12.774  14.943
25438W        W90698  10.766  33.138   3.727
25439W        W90699  14.751   9.706  13.566
25440W        W90700  14.584  16.543  13.748
25441W        W90701  29.900  25.480   9.850
25442W        W90702   5.711  11.256   3.210
25443W        W90703  37.780   3.845   0.403
25444W        W90704   0.548  36.553   3.323
25445W        W90705  28.019   7.982   2.744
25446W        W90706  44.530  13.894  11.181
25447W        W90707  40.599  12.804  12.464
25448W        W90708   9.787  22.091   2.068
25449W        W90709  15.359  15.785   3.127
25450W        W90710  34.440  19.587   4.237
25451W        W90711   4.813  36.713  12.098
25452W        W90712   3.731  11.629   4.105
25453W        W90713  18.712  24.208  10.357
25454W        W90714  29.700  33.733  13.362
25455W        W90715  24.649  41.933  11.758
25456W        W90716  15.659   7.983   2.824
25457W        W90717  36.501  23.498  11.302
25458W        W90718   3.922  43.098  13.026
25459W        W90719  18.407  20.998  13.856
25460W        W90720  34.980  33.118   0.490
25461W        W90721  31.848  37.181   3.938
25462W        W90722   2.414   4.461  13.396
25463W        W90723  20.067   4.350   4.302
25464W        W90724  34.040  34.759  11.238
25465W        W90725  23.202   6.694  13.514
25466W        W90726  37.905  24.987   2.339
25467W        W90727  41.843   6.319  13.760
25468W        W90728  11.228  28.085   1.334
25469W        W90729  22.846  37.923  11.151
25470W        W90730  20.871   5.359   0.734
25471W        W90731  16.765  43.192   1.355
25472W        W90732   2.039  29.616   2.968
25473W        W90733  12.694  17.026  13.113
25474W        W90734   0.290  29.530  10.680
25475W        W90735   4.173  39.986  13.809
25476W        W90736  18.250   3.390  14.911
25477W        W90737  33.090  13.208   1.919
25478W        W90738  41.775  11.909   9.708
25479W        W90739  11.800   7.908   3.115
25480W        W90740  10.830   1.527   4.856
25481W        W90741   5.405   4.233  14.224
25482W        W90742   4.333  39.406  10.614
25483W        W90743   2.801  27.557   5.261
25484W        W90744  27.299   4.380   0.798
25485W        W90745  37.077  25.515  13.927
25486W        W90746  13.264  20.122  11.216
25487W        W90747   0.260  23.857  13.835
25488W        W90748  22.960  36.403  12.483
25489W        W90749  29.478  36.141  12.111
25490W        W90750  37.041   3.848  10.299
25491W        W90751   6.730  12.218  14.332
25492W        W90752  15.393  41.641  12.476
25493W        W90753  15.329   4.935   2.314
25494W        W90754  20.279  31.027   0.948
25495W        W90755   0.459  29.620   1.774
25496W        W90756  42.048   1.038   3.139
25497W        W90757   5.737  13.079   3.132
25498W        W90758  28.855   6.261   2.733
25499W        W90759  24.391  35.205  14.413
25500W        W90760   5.873  38.612   1.701
25501W        W90761  32.824  38.963   3.699
25502W        W90762   5.230  37.767   3.888
25503W        W90763  44.246  39.156  11.152
25504W        W90764  19.035  13.614  12.504
25505W        W90765   3.115  11.897  14.214
25506W        W90766   3.499   1.346   5.052
25507W        W90767  13.322   6.143   0.950
25508W        W90768  37.255  19.036  14.361
25509W        W90769  12.821  24.524   4.879
25510W        W90770  36.599  22.681  12.050
25511W        W90771  40.034  35.400  11.670
25512W        W90772  34.390  11.248   1.309
25513W        W90773  27.294  21.034   4.565
25514W        W90774   6.930  13.277   1.642
25515W        W90775   8.398  33.638  11.943
25516W        W90776   4.257  16.797  10.373
25517W        W90777  37.974  19.870   1.810
25518W        W90778  39.298  33.666  14.813
25519W        W90779   0.285   8.075  12.780
25520W        W90780  19.876   9.242  14.945
25521W        W90781  34.354  30.330   3.754
25522W        W90782  29.276  24.672   1.285
25523W        W90783  21.749   1.971  13.613
25524W        W90784  22.695  42.720  12.111
25525W        W90785   6.267   2.684   3.614
25526W        W90786  26.481  33.446  12.421
25527W        W90787   1.261   1.430  13.095
25528W        W90788   9.863  20.960  14.334
25529W        W90789  14.593  39.827   0.956
25530W        W90790  14.133  15.621  13.950
25531W        W90791  32.355  11.760  13.866
25532W        W90792  14.854  12.864  11.957
25533W        W90793   9.599  44.593  14.545
25534W        W90794   9.212   3.166  14.827
25535W        W90795  33.367  15.711   0.791
25536W        W90796  30.012  13.111   2.830
25537W        W90797  25.976  29.890   4.617
25538W        W90798  14.032   4.179  13.051
25539W        W90799  38.246  40.489   2.619
25540W        W90800   4.715  25.531   3.269
25541W        W90801   8.963  22.228   1.806
25542W        W90802  31.787  20.574   4.730
25543W        W90803   7.028   1.302  12.282
25544W        W90804  15.136  18.633   3.695
25545W        W90805  36.605   7.952   2.436
25546W        W90806  43.776  32.910  11.479
25547W        W90807  24.623   0.841   2.353
25548W        W90808  23.688   4.293   0.844
25549W        W90809   4.142  28.913  11.177
25550W        W90810  31.573  41.074   0.707
25551W        W90811  44.831  23.931  11.388
25552W        W90812  11.731   4.858   9.962
25553W        W90813   2.706   7.637   2.560
25554W        W90814  34.454   3.796   3.606
25555W        W90815  38.373  21.578  14.487
25556W        W90816  39.076  16.303   1.393
25557W        W90817  34.340  37.573  13.109
25558W        W90818  36.034  29.534   0.350
25559W        W90819  40.615  33.242   0.827
25560W        W90820  20.836  17.590   3.764
25561W        W90821  32.370  20.034   2.794
25562W        W90822  29.537   1.906   2.787
25563W        W90823  27.232  21.692  12.028
25564W        W90824  21.559  21.247   9.938
25565W        W90825  25.622  29.051  10.848
25566W        W90826  19.858  14.030  11.676
25567W        W90827  11.153  24.921   0.709
25568W        W90828  32.870  36.342  14.831
25569W        W90829   6.710  40.537  13.793
25570W        W90830  33.324  10.009  11.553
25571W        W90831  36.809  16.363   1.388
25572W        W90832   9.325  40.273  11.668
25573W        W90833   1.392  11.593  13.954
25574W        W90834  42.486  29.697  14.495
25575W        W90835  44.023  35.988   3.706
25576W        W90836  10.130  27.494   2.766
25577W        W90837   9.414  27.863   0.020
25578W        W90838   0.373   9.327  10.665
25579W        W90839  29.611  10.761   0.796
25580W        W90840  12.175  22.060   4.617
25581W        W90841  32.514  18.063   2.549
25582W        W90842  38.842   4.638   0.963
25583W        W90843  42.754  34.610  13.289
25584W        W90844  30.191  22.389   2.573
25585W        W90845   7.567  22.697  11.125
25586W        W90846  22.722  17.965  11.885
25587W        W90847  29.990  27.007   4.041
25588W        W90848  28.828  27.268   3.640
25589W        W90849  21.776  39.105   2.658
25590W        W90850   2.801  31.001   1.746
25591W        W90851  37.035  26.568  14.996
25592W        W90852   9.817  15.569  13.077
25593W        W90853  16.983  33.780  14.336
25594W        W90854  17.272  38.471  12.485
25595W        W90855  27.100  11.330  13.866
25596W        W90856  10.249  20.951   4.887
25597W        W90857  38.426  42.735  10.617
25598W        W90858  30.033  27.666  14.806
25599W        W90859   1.681   9.033  12.488
25600W        W90860  25.733  32.683  14.297
25601W        W90861  20.040  24.912  11.246
25602W        W90862  38.586  42.770  14.570
25603W        W90863   8.946  34.938  11.519
25604W        W90864  27.502  14.731   0.640
25605W        W90865  34.503  41.407  13.916
25606W        W90866  22.109  28.025   4.149
25607W        W90867   9.482  33.548   1.341
25608W        W90868   0.483  39.800  12.351
25609W        W90869   9.664  15.113  10.579
25610W        W90870  14.462  12.660  11.704
25611W        W90871   9.882  37.831   1.403
25612W        W90872  10.437  21.756   1.413
25613W        W90873  28.125  24.859  13.347
25614W        W90874   4.378  21.978  12.888
25615W        W90875  43.954  21.656   1.804
25616W        W90876  38.919  30.724   1.882
25617W        W90877  43.241  42.329  12.639
25618W        W90878  14.637   5.930  14.258
25619W        W90879  43.472   0.766   2.890
25620W        W90880   1.968  32.041  14.004
25621W        W90881  40.920   8.312  12.860
25622W        W90882  21.517  19.473  12.384
25623W        W90883  23.381  37.041   0.771
25624W        W90884  36.091  38.091  14.300
25625W        W90885  14.374  14.634   2.187
25626W        W90886  28.991  17.296   3.766
25627W        W90887  32.336  23.277  12.039
25628W        W90888   9.364  35.144  12.875
25629W        W90889   2.182  26.125   1.333
25630W        W90890  39.048  22.102  12.943
25631W        W90891  15.621  24.174  14.024
25632W        W90892  21.520  24.462  14.943
25633W        W90893  17.721  20.975   2.684
25634W        W90894   7.252  25.207   1.756
25635W        W90895  10.479  28.057   5.289
25636W        W90896  34.437  19.132   4.698
25637W        W90897   9.238  41.043  12.142
25638W        W90898  10.763  24.293   0.192
25639W        W90899  42.936  31.381   4.172
25640W        W90900  11.223  42.428   2.766
25641W        W90901  29.941  10.965   1.243
25642W        W90902  12.823  30.856  14.934
25643W        W90903  39.413  34.121   0.737
25644W        W90904  29.206  36.952   1.249
25645W        W90905  12.347  19.034   4.486
25646W        W90906  28.989  31.821  12.822
25647W        W90907  26.429  28.648  13.810
25648W        W90908  27.736   6.206  14.591
25649W        W90909   3.226  24.907  11.911
25650W        W90910  12.036   7.386  13.958
25651W        W90911  12.079  25.630   2.894
25652W        W90912  36.903   1.485  13.934
25653W        W90913  20.312   4.418  11.933
25654W        W90914   2.094  26.521   4.028
25655W        W90915  33.116   3.403   0.903
25656W        W90916  30.614  19.288  14.452
25657W        W90917   0.887  37.178  10.473
25658W        W90918  31.871  44.880  12.937
25659W        W90919   1.898  23.560  10.138
25660W        W90920  10.337  18.755  10.375
25661W        W90921  40.242  36.999  11.059
25662W        W90922   3.109  22.716  11.867
25663W        W90923  20.791  39.371  13.445
25664W        W90924  37.510   7.246   1.807
25665W        W90925   0.232  38.251  11.610
25666W        W90926  17.616  15.260  13.085
25667W        W90927  24.017   1.333  10.721
25668W        W90928  13.615  26.208   4.989
25669W        W90929  35.656  33.268   4.582
25670W        W90930  39.829  10.897   4.668
25671W        W90931  35.844   8.700   0.793
25672W        W90932   1.687  12.836   2.788
25673W        W90933  29.469   8.186  14.262
25674W        W90934  12.876   8.309   1.111
25675W        W90935  15.309   7.232  12.534
25676W        W90936  42.262  20.519  12.694
25677W        W90937  36.436  44.211   1.788
25678W        W90938   5.150  36.789  11.638
25679W        W90939  23.191   6.940  11.150
25680W        W90940  26.006  36.450   5.058
25681W        W90941  23.993  29.407  14.421
25682W        W90942  17.703   9.654  11.906
25683W        W90943  14.573  21.843  10.286
25684W        W90944   9.251  12.206   4.286
25685W        W90945   2.314  31.693   2.705
25686W        W90946   0.039  36.107   2.004
25687W        W90947   3.313  33.841  14.869
25688W        W90948   3.310  42.520   4.563
25689W        W90949  19.581  27.978   2.215
25690W        W90950  39.147  30.146   0.432
25691W        W90951  29.491  34.149  11.225
25692W        W90952  31.565  10.695   0.795
25693W        W90953  29.820  34.897  13.963
25694W        W90954  28.417  42.485   4.465
25695W        W90955  38.827   1.910  11.947
25696W        W90956  21.086  23.367   5.007
25697W        W90957  14.765  15.802  13.118
25698W        W90958  29.693  37.579  10.340
25699W        W90959  11.750  34.907   1.237
25700W        W90960  25.556   0.526   3.187
25701W        W90961  30.997  44.869  14.529
25702W        W90962  31.261   8.358  11.553
25703W        W90963  42.738  12.537   2.190
25704W        W90964  25.586  16.085  12.291
25705W        W90965  31.595   3.264   4.158
25706W        W90966  24.108  43.322   4.183
25707W        W90967  28.494  27.402  14.099
25708W        W90968  25.167   5.473   2.959
25709W        W90969  17.380  24.445   3.993
25710W        W90970   3.397  11.284   2.836
25711W        W90971  15.599  36.225  13.165
25712W        W90972  14.185  15.280   1.707
25713W        W90973  38.316  29.049  12.746
25714W        W90974  16.054  11.788   3.723
25715W        W90975  37.313  27.749   2.373
25716W        W90976  23.542  44.952   0.741
25717W        W90977   4.414  24.210  13.508
25718W        W90978  14.673   4.468   0.925
25719W        W90979  34.551   4.273   0.224
25720W        W90980  14.295  21.466  12.990
25721W        W90981   5.752  31.677  13.036
25722W        W90982  44.466  12.695   2.397
25723W        W90983   3.644  39.231   2.236
25724W        W90984  21.755  40.604  10.644
25725W        W90985  36.344  11.710  12.992
25726W        W90986  17.234  25.248  11.631
25727W        W90987  29.660   2.136  13.421
25728W        W90988  40.321  13.156   1.130
25729W        W90989   2.869  42.299   0.690
25730W        W90990  29.098  37.121   2.180
25731W        W90991  38.623  34.044  11.160
25732W        W90992  16.347  18.045   2.382
25733W        W90993   0.993  11.951  11.612
25734W        W90994  13.155  22.532   0.754
25735W        W90995  30.946  12.775   1.937
25736W        W90996  44.487  35.363   4.221
25737W        W90997  16.455  43.372  13.323
25738W        W90998  18.694  30.560   0.432
25739W        W90999  23.187  27.371  13.129
25740W        W91000  17.357   1.541  11.500
25741W        W91001  44.718  17.068  12.505
25742W        W91002   9.222  27.372  14.945
25743W        W91003  17.339  22.485  12.434
25744W        W91004  35.322  28.411  14.828
25745W        W91005  29.552   4.335  13.367
25746W        W91006   8.694  35.747   1.254
25747W        W91007  11.346  23.123   0.757
25748W        W91008  15.533  43.221  11.040
25749W        W91009  19.227  37.608  13.870
25750W        W91010  39.761  44.263  10.710
25751W        W91011  42.019   7.242  11.168
25752W        W91012  14.333  42.488   2.019
25753W        W91013  41.412  33.313  14.169
25754W        W91014   4.743  20.166   4.691
25755W        W91015  28.182  18.691   2.449
25756W        W91016  21.610  10.324   3.888
25757W        W91017  21.277   6.051   3.781
25758W        W91018  35.120  34.560   2.240
25759W        W91019  11.097  27.087  12.917
25760W        W91020  44.180  15.235   1.756
25761W        W91021  27.640  40.987   0.932
25762W        W91022  44.135  32.659  10.358
25763W        W91023   9.175  36.813   3.296
25764W        W91024  36.628   4.379   2.231
25765W        W91025  36.127  24.547  13.405
25766W        W91026  39.829  18.626   3.849
25767W        W91027  21.202  23.643  12.608
25768W        W91028  21.610  28.981  13.275
25769W        W91029  39.919  35.830  14.825
25770W        W91030  27.176  13.456   2.781
25771W        W91031  22.043  10.678   4.694
25772W        W91032  24.123   6.673  13.029
25773W        W91033  31.468  13.895  11.120
25774W        W91034  11.913  41.373   2.782
25775W        W91035   3.298   5.760  10.729
25776W        W91036  44.772  23.287   1.091
25777W        W91037   6.427   6.230   2.230
25778W        W91038  36.571  40.371   1.299
25779W        W91039   5.838  27.162  11.962
25780W        W91040  38.568  20.026  11.151
25781W        W91041  19.586  37.018   3.423
25782W        W91042   2.927  40.341  11.677
25783W        W91043   1.866   3.857  14.893
25784W        W91044  44.463  40.100  13.073
25785W        W91045  42.866  38.748  13.723
25786W        W91046  33.620  42.263  14.289
25787W        W91047  41.437   8.354  13.813
25788W        W91048  36.631   3.437  14.050
25789W        W91049  36.193  32.010  14.774
25790W        W91050  18.705   9.360   3.156
25791W        W91051  12.807  15.781   0.399
25792W        W91052  13.444  30.671   1.693
25793W        W91053  24.465   9.436   1.940
25794W        W91054  41.879  43.370   1.190
25795W        W91055  26.004  41.043  14.125
25796W        W91056  36.648  14.823  14.321
25797W        W91057  22.599   6.326   1.329
25798W        W91058   0.377   7.381   0.183
25799W        W91059  30.420  23.983   0.604
25800W        W91060  16.098   0.776  12.080
25801W        W91061  19.698  10.611  11.156
25802W        W91062  32.547  23.231   1.673
25803W        W91063   8.231  23.128   3.751
25804W        W91064  22.757  39.471   0.002
25805W        W91065  27.586   7.396   3.390
25806W        W91066  13.548  20.738  13.857
25807W        W91067  35.311  12.249   1.231
25808W        W91068  42.230  43.725  12.392
25809W        W91069  22.491  12.875  11.119
25810W        W91070  36.601   8.373   3.304
25811W        W91071  10.669  32.806  12.597
25812W        W91072  11.854  38.149  12.093
25813W        W91073   0.837  14.905  11.189
25814W        W91074  26.515  30.399   1.867
25815W        W91075  12.299  12.743   2.774
25816W        W91076  31.185   7.376  13.588
25817W        W91077  16.309  44.820   4.748
25818W        W91078   4.433  29.465   1.796
25819W        W91079  43.500  32.343  11.616
25820W        W91080   3.873   9.175   2.767
25821W        W91081  33.026  40.544  11.007
25822W        W91082  37.342  33.541  13.547
25823W        W91083  30.993  11.177  11.199
25824W        W91084  36.633  30.708  14.401
25825W        W91085   7.332   3.504  14.982
25826W        W91086   5.480  42.243   1.426
25827W        W91087  10.763  36.311   0.792
25828W        W91088  23.700  17.226  10.685
25829W        W91089  23.524   2.757  12.070
25830W        W91090   0.522  14.815  14.566
25831W        W91091   9.079  30.406  13.258
25832W        W91092  38.896  28.220  12.387
25833W        W91093   5.897  13.359  11.524
25834W        W91094  36.649  38.822  11.155
25835W        W91095  31.832  31.066  10.572
25836W        W91096  31.338  27.261  14.950
25837W        W91097  43.010  28.746   0.246
25838W        W91098   0.300  39.346  14.995
25839W        W91099  18.608  42.536  11.647
25840W        W91100  22.258  14.561   1.483
25841W        W91101   2.896  31.207  13.524
25842W        W91102   5.137   6.772   3.782
25843W        W91103  40.778   5.669   3.773
25844W        W91104  25.089  23.596   1.336
25845W        W91105  25.991  32.942  13.541
25846W        W91106  29.212   1.264  11.480
25847W        W91107  17.336   8.587  13.578
25848W        W91108  23.858  14.703   1.189
25849W        W91109  26.274  10.831   0.763
25850W        W91110   5.194  35.378  14.049
25851W        W91111  10.412  38.826   2.102
25852W        W91112  12.133  32.902   4.818
25853W        W91113  31.681  15.660   4.755
25854W        W91114  12.768  42.598   3.420
25855W        W91115   5.913  17.206   1.403
25856W        W91116   3.336  34.488  13.632
25857W        W91117  38.943  12.617  12.038
25858W        W91118  23.800  37.624  13.819
25859W        W91119   6.658  17.531  10.488
25860W        W91120  31.307  11.795  13.720
25861W        W91121  30.743  33.953  13.407
25862W        W91122  41.341  34.145   1.914
25863W        W91123  28.604  15.342   0.471
25864W        W91124  33.995  32.904  10.744
25865W        W91125  16.231  10.118  11.726
25866W        W91126   5.692   1.451   4.656
25867W        W91127   9.379  28.967  10.750
25868W        W91128  17.189  28.588  14.342
25869W        W91129  27.561  29.590   2.340
25870W        W91130  20.134   1.978   0.327
25871W        W91131  15.734  38.851  13.490
25872W        W91132  24.069   8.839   3.278
25873W        W91133  13.769  20.595   0.339
25874W        W91134  35.037  37.820  13.910
25875W        W91135  30.250  22.149  12.142
25876W        W91136  16.717  10.477   2.881
25877W        W91137  37.974  18.301   0.233
25878W        W91138  35.391   0.984  11.890
25879W        W91139  41.541  35.970   1.932
25880W        W91140  12.156   2.412   3.228
25881W        W91141   5.282  40.369  12.361
25882W        W91142  29.636  15.634  11.574
25883W        W91143  35.214  17.595   3.327
25884W        W91144  14.031  27.656  13.076
25885W        W91145  31.680  44.242   4.204
25886W        W91146  36.160  28.901  14.081
25887W        W91147  33.348  16.310  12.101
25888W        W91148  42.996   6.071   1.532
25889W        W91149  16.711  29.146  13.009
25890W        W91150  11.388  13.740   0.847
25891W        W91151   6.347  26.875  10.368
25892W        W91152  33.421  12.428   3.296
25893W        W91153  14.472   8.215  12.448
25894W        W91154  15.441   0.786  12.716
25895W        W91155   1.843  22.745  12.122
25896W        W91156  42.872  28.612   1.817
25897W        W91157  40.898  28.215   1.901
25898W        W91158  18.771  29.472   1.196
25899W        W91159   6.919  30.838   2.480
25900W        W91160  33.928   9.591  12.401
25901W        W91161  29.051  43.212  13.882
25902W        W91162  23.109  12.686   3.169
25903W        W91163  35.794  25.568   3.302
25904W        W91164  43.862  41.284   2.748
25905W        W91165   8.400  44.884  13.904
25906W        W91166  14.250  20.305  13.466
25907W        W91167  25.658   0.186   1.705
25908W        W91168  40.378  17.767  11.087
25909W        W91169   0.479   6.341  11.623
25910W        W91170  38.535  16.121  12.311
25911W        W91171   4.296  17.550   0.784
25912W        W91172  39.588   7.133  13.890
25913W        W91173   0.054  40.554  12.068
25914W        W91174  26.174  30.120   0.827
25915W        W91175  40.247  33.898   1.328
25916W        W91176  20.100  13.101   3.313
25917W        W91177  29.051  32.497  12.621
25918W        W91178  19.368  28.302   5.251
25919W        W91179   0.215  15.831  12.482
25920W        W91180  15.350  23.627  11.083
25921W        W91181  15.740  39.461   3.146
25922W        W91182  33.350  40.687   2.300
25923W        W91183  42.435  12.708  12.084
25924W        W91184  13.217  15.464   2.082
25925W        W91185  15.554  33.116   0.852
25926W        W91186   2.461  23.011   2.241
25927W        W91187  19.345   9.478  13.502
25928W        W91188   0.198  24.622  13.040
25929W        W91189  21.462  44.922   1.924
25930W        W91190  10.870  26.320  13.995
25931W        W91191  12.296  33.051   0.349
25932W        W91192  25.693  30.028   1.049
25933W        W91193  38.081  16.733   0.259
25934W        W91194  24.976  25.981   2.390
25935W        W91195  18.024  30.468  11.191
25936W        W91196   8.442   2.758   3.275
25937W        W91197   8.223  19.808  11.972
25938W        W91198  10.045   8.731   3.435
25939W        W91199   5.126  35.210  13.556
25940W        W91200  36.643  41.734   1.353
25941W        W91201  29.721   2.294   4.687
25942W        W91202  31.947   4.817  11.098
25943W        W91203  21.508  28.032  13.392
25944W        W91204  37.708  33.380   0.884
25945W        W91205  44.978  31.183  11.978
25946W        W91206  41.822  34.215   4.068
25947W        W91207  35.861  27.959  13.788
25948W        W91208   3.060  15.056  12.178
25949W        W91209   7.355   3.897  13.188
25950W        W91210   6.448   4.945   1.656
25951W        W91211  41.846  26.917  11.887
25952W        W91212  38.205  20.334   1.873
25953W        W91213  22.726  12.461  10.690
25954W        W91214  30.032  41.957  13.079
25955W        W91215  22.944  24.613   2.755
25956W        W91216  14.489  16.706   3.289
25957W        W91217  38.822  15.557  12.063
25958W        W91218  19.093  14.092  13.920
25959W        W91219  10.370  28.149  12.870
25960W        W91220  18.932   6.104   3.740
25961W        W91221   3.447   0.604   4.264
25962W        W91222  33.012   8.309   0.467
25963W        W91223  31.554  32.893  12.049
25964W        W91224   7.890  31.262   1.354
25965W        W91225   8.895  21.736   3.609
25966W        W91226  29.453  18.069   0.367
25967W        W91227  31.591   1.082  14.799
25968W        W91228  22.141  27.591  13.613
25969W        W91229  39.484  18.324  14.561
25970W        W91230  24.603  19.991  12.870
25971W        W91231  36.148  24.035   0.415
25972W        W91232   2.816  13.301   1.807
25973W        W91233  20.062  26.380   1.908
25974W        W91234  21.443   8.373   1.935
25975W        W91235  29.902  13.361  12.160
25976W        W91236  13.730  23.512   4.912
25977W        W91237  35.901  21.374   1.478
25978W        W91238  43.753  40.379  14.828
25979W        W91239   3.242  25.935  14.859
25980W        W91240  41.818  34.798   4.139
25981W        W91241   6.468   9.592  11.112
25982W        W91242  30.893  21.578  12.484
25983W        W91243  15.718  31.512   4.709
25984W        W91244  28.179  29.160  11.138
25985W        W91245   6.752  23.666   1.339
25986W        W91246  24.026  41.061  14.316
25987W        W91247  38.457  14.058  13.462
25988W        W91248  28.211   4.293  14.297
25989W        W91249  16.331   6.204  14.050
25990W        W91250   5.275  27.697   3.237
25991W        W91251  19.112  26.776   0.058
25992W        W91252  23.537  28.067   0.796
25993W        W91253  26.014  20.348   5.330
25994W        W91254  24.021  34.919  14.593
25995W        W91255  22.516  31.503  14.749
25996W        W91256   4.944  25.695   3.713
25997W        W91257  26.490  29.917   3.692
25998W        W91258  20.260  42.881   4.146
25999W        W91259  42.095  37.417  11.651
26000W        W91260  18.854  23.285  14.364
26001W        W91261   8.489  32.086   0.414
26002W        W91262  21.220  32.943   0.885
26003W        W91263   8.862  15.864   2.342
26004W        W91264  25.955   2.721  14.344
26005W        W91265  25.237   3.274  14.781
26006W        W91266  27.644  33.411   4.308
26007W        W91267  31.111  42.815   4.874
26008W        W91268  43.491  40.987   3.944
26009W        W91269   8.649  19.707   0.362
26010W        W91270   9.528  30.935  12.964
26011W        W91271  32.588  40.826   2.350
26012W        W91272  19.831   8.292   0.913
26013W        W91273  26.096   3.265  11.999
26014W        W91274  13.378  21.680  14.466
26015W        W91275  10.697   0.991   4.792
26016W        W91276  31.065   7.813  12.681
26017W        W91277   8.890   5.826  14.837
26018W        W91278   8.113  37.051  12.974
26019W        W91279  13.315  39.687   1.437
26020W        W91280  39.926  44.676   5.002
26021W        W91281  23.210  25.054  14.900
26022W        W91282  20.162  39.986   2.427
26023W        W91283  44.084  28.073  14.452
26024W        W91284  44.509  18.088   0.676
26025W        W91285  36.482  32.492  13.469
26026W        W91286  24.162  25.846   2.093
26027W        W91287  22.167  17.797  12.645
26028W        W91288   6.950  27.629   3.710
26029W        W91289  32.436  34.973  12.191
26030W        W91290  34.572   9.444  13.423
26031W        W91291  19.267  36.123   1.920
26032W        W91292  33.157   4.895   0.890
26033W        W91293   7.334  38.862   2.706
26034W        W91294  24.410  34.841   0.768
26035W        W91295  12.369  20.658   1.280
26036W        W91296  24.739  40.131  10.264
26037W        W91297  12.329   5.832  14.484
26038W        W91298  33.970  38.192  11.805
26039W        W91299  11.170   8.644   1.623
26040W        W91300  41.542   6.863  13.840
26041W        W91301   0.078  36.348  11.443
26042W        W91302  25.960  21.006  14.352
26043W        W91303  39.527   1.692   1.663
26044W        W91304  24.014  25.509   1.721
26045W        W91305  38.966  30.092  10.563
26046W        W91306  12.410  17.214  14.510
26047W        W91307  35.746  12.187  11.979
26048W        W91308   1.885  27.474   0.227
26049W        W91309  33.999  29.083   3.148
26050W        W91310   7.604  27.659   1.875
26051W        W91311  11.107  32.669  11.352
26052W        W91312  24.928  17.298   3.682
26053W        W91313  11.273   8.224  14.562
26054W        W91314  17.185  40.779  13.582
26055W        W91315  12.426  15.904  13.016
26056W        W91316   3.814  23.631   1.860
26057W        W91317   4.498   4.768  10.237
26058W        W91318  28.890  25.572   4.209
26059W        W91319  30.086  19.341  14.393
26060W        W91320  20.274  30.850   5.032
26061W        W91321  36.548  33.721   1.246
26062W        W91322   6.673  39.395  14.957
26063W        W91323   1.067  23.795   1.371
26064W        W91324  26.927  12.531  13.580
26065W        W91325  33.030  23.751   4.654
26066W        W91326  25.023  13.652   2.284
26067W        W91327  14.274  20.072  10.219
26068W        W91328  17.312   0.885   2.872
26069W        W91329  18.947  22.716  13.389
26070W        W91330  18.321   0.459   0.777
26071W        W91331  19.798  14.507   4.597
26072W        W91332  25.995  16.487   3.543
26073W        W91333  43.803  10.761  14.494
26074W        W91334   9.213  27.054   1.750
26075W        W91335  36.077  26.561   5.168
26076W        W91336   3.751  11.635   4.631
26077W        W91337   1.003  24.178  11.156
26078W        W91338  38.322  42.083   4.707
26079W        W91339  16.173  35.322  10.711
26080W        W91340  29.496   4.880  10.398
26081W        W91341  31.162  24.165   2.096
26082W        W91342   7.279   1.612  11.269
26083W        W91343  11.798  30.995   3.638
26084W        W91344   9.168  37.619   3.682
26085W        W91345   4.174  11.368   4.083
26086W        W91346  13.378   1.405   2.343
26087W        W91347  30.912  21.830  12.021
26088W        W91348  38.038  21.211   1.884
26089W        W91349  26.116  27.923   2.402
26090W        W91350  44.519  13.089   2.096
26091W        W91351  12.304  26.517   4.225
26092W        W91352  38.311  13.696   2.316
26093W        W91353  16.521  18.988   4.545
26094W        W91354  16.355  40.107   3.315
26095W        W91355  10.801   6.843  14.452
26096W        W91356  15.042   4.780  14.607
26097W        W91357   3.782  18.714   2.628
26098W        W91358  23.834  43.531   1.941
26099W        W91359  24.175  12.320  12.494
26100W        W91360  26.526  10.805   1.214
26101W        W91361   5.200  15.046   2.492
26102W        W91362   0.476  43.860   1.688
26103W        W91363   7.659  18.169  11.631
26104W        W91364  22.476  26.068   3.676
26105W        W91365  29.188   2.775   3.857
26106W        W91366   3.542  33.117  14.486
26107W        W91367  10.364  26.992  13.586
26108W        W91368  41.847  19.545  10.339
26109W        W91369  39.772  35.943   3.605
26110W        W91370  15.840   5.292  11.930
26111W        W91371  28.983  38.628  10.402
26112W        W91372  35.709  27.489   0.990
26113W        W91373  28.034  38.978  12.223
26114W        W91374  37.040   9.202  12.642
26115W        W91375  14.858  41.300  10.720
26116W        W91376  33.501  13.890   2.377
26117W        W91377  35.535   6.674  13.922
26118W        W91378  12.251  19.731  13.967
26119W        W91379   4.884   3.854  14.692
26120W        W91380  26.975  16.704  11.857
26121W        W91381  10.724   5.478  10.244
26122W        W91382  17.303  15.596  13.398
26123W        W91383  19.158  12.374   3.611
26124W        W91384  36.389   3.978  11.890
26125W        W91385   5.313  37.325  13.841
26126W        W91386  30.351  39.274   2.840
26127W        W91387  20.913   1.529  11.840
26128W        W91388  43.308   0.743  12.590
26129W        W91389  25.838  30.338  12.560
26130W        W91390  12.253  37.578   2.487
26131W        W91391   6.891  22.231  11.969
26132W        W91392  33.594  34.149   0.803
26133W        W91393  19.984  29.946  11.558
26134W        W91394   4.514  14.367  12.851
26135W        W91395  36.989  17.739   1.933
26136W        W91396  40.091  11.351   1.817
26137W        W91397  25.679   1.453   2.253
26138W        W91398   6.991  10.325  10.724
26139W        W91399  30.105  40.225  12.388
26140W        W91400  31.874  31.505   4.565
26141W        W91401  23.115   6.402   0.413
26142W        W91402   7.880  34.427  11.342
26143W        W91403  42.329  12.802   3.078
26144W        W91404  20.787  22.120  13.604
26145W        W91405  15.620  33.826  11.631
26146W        W91406  15.758  28.479   2.172
26147W        W91407  12.837  21.284   0.957
26148W        W91408  38.952  26.715  10.582
26149W        W91409  24.614  23.458  13.557
26150W        W91410  12.436  40.962   0.927
26151W        W91411   2.828  26.496   1.753
26152W        W91412  18.612   3.968  12.081
26153W        W91413  17.205   6.234   4.251
26154W        W91414  40.266  39.944   3.765
26155W        W91415  38.424   3.589  14.231
26156W        W91416  25.189  16.854   0.055
26157W        W91417   5.343   9.342  14.811
26158W        W91418   3.630   5.629   2.752
26159W        W91419  22.677  10.236   1.335
26160W        W91420  31.506  21.757   0.407
26161W        W91421  40.205  13.698  13.212
26162W        W91422   9.886  24.649   0.934
26163W        W91423  31.384  34.776  14.347
26164W        W91424   5.184  38.345   1.221
26165W        W91425   9.303  21.280   0.949
26166W        W91426  32.916  33.394   3.260
26167W        W91427  32.429  11.851  12.968
26168W        W91428   2.711  27.930   2.376
26169W        W91429  39.348  38.338   2.647
26170W        W91430   0.950  13.097   3.221
26171W        W91431   7.196   9.927  13.834
26172W        W91432  28.613  27.670  10.856
26173W        W91433  27.762  19.728   3.735
26174W        W91434  24.037  32.147   0.922
26175W        W91435  30.837  39.992   5.083
26176W        W91436  37.536  40.419   5.060
26177W        W91437   3.268  31.521   1.380
26178W        W91438   9.628  37.429   2.309
26179W        W91439  24.609  34.298   3.270
26180W        W91440  32.434  18.636  14.162
26181W        W91441  18.243  10.042   1.701
26182W        W91442  24.402  19.524  12.948
26183W        W91443   1.046   5.858   0.675
26184W        W91444   8.912  35.234   2.780
26185W        W91445  39.945  11.373  13.722
26186W        W91446  36.452  25.588   1.527
26187W        W91447  37.465  36.118   2.727
26188W        W91448  17.203  41.492  14.063
26189W        W91449  27.654  38.037  14.967
26190W        W91450  30.562  33.230  12.845
26191W        W91451  28.001  32.016   4.907
26192W        W91452  29.242  35.557   0.474
26193W        W91453  11.912   5.453   0.860
26194W        W91454  42.378  23.346   1.741
26195W        W91455  29.352  15.296   1.837
26196W        W91456   3.033   0.493  12.865
26197W        W91457  28.369   7.476   3.562
26198W        W91458  14.704  40.809   2.012
26199W        W91459  14.624   2.769  11.778
26200W        W91460  28.270  19.254  11.184
26201W        W91461   3.955  15.659  13.731
26202W        W91462  21.449   5.675   1.547
26203W        W91463  25.758  21.208   1.776
26204W        W91464  16.196  36.729  13.891
26205W        W91465   5.009   2.850  13.789
26206W        W91466   9.431  40.818   2.098
26207W        W91467  33.093  31.929   2.425
26208W        W91468  23.628  44.880  10.937
26209W        W91469  12.026  22.234   2.267
26210W        W91470  32.055  18.108   1.310
26211W        W91471  28.846  37.835  14.939
26212W        W91472  12.838  36.771  11.117
26213W        W91473  11.191  13.559  11.069
26214W        W91474  17.682  20.999   0.789
26215W        W91475  24.240  11.737   3.360
26216W        W91476  23.117  14.703  12.461
26217W        W91477  26.532  28.188   4.564
26218W        W91478  43.281  19.655   5.010
26219W        W91479  15.823  31.027   1.853
26220W        W91480   5.415  37.304  12.514
26221W        W91481  33.405   9.477  10.820
26222W        W91482  22.051  19.095  11.432
26223W        W91483  30.024   7.847   1.259
26224W        W91484  44.841  34.647   1.333
26225W        W91485  10.145   1.237   0.596
26226W        W91486  32.977   5.128   2.261
26227W        W91487  16.695  32.011   3.039
26228W        W91488  37.904  28.969  14.964
26229W        W91489  41.248   4.894   2.695
26230W        W91490  17.951  29.639  12.426
26231W        W91491  18.056  14.260   4.920
26232W        W91492  11.153   6.506  13.337
26233W        W91493  29.381  40.861   0.344
26234W        W91494  26.169  37.070   3.112
26235W        W91495  33.421  35.903   5.448
26236W        W91496  22.975   6.715  10.732
26237W        W91497  18.525   7.669   4.109
26238W        W91498  23.656   6.432  12.888
26239W        W91499  17.095  31.367   0.797
26240W        W91500   6.685  42.052  12.461
26241W        W91501  11.712  34.074  12.817
26242W        W91502   6.778  31.333   2.357
26243W        W91503  43.481  27.650   3.562
26244W        W91504  14.697   7.279   5.103
26245W        W91505  27.913  41.714  12.494
26246W        W91506  19.140  44.345  13.316
26247W        W91507  40.477  21.701  12.593
26248W        W91508  39.934  18.286  14.289
26249W        W91509  11.141   7.297   3.114
26250W        W91510  37.567   2.387  13.901
26251W        W91511   0.338  31.907   4.845
26252W        W91512  41.005   6.724  14.646
26253W        W91513   9.126  22.268   4.192
26254W        W91514  43.436  32.121   0.931
26255W        W91515  35.636  10.962   1.768
26256W        W91516  31.193  44.681  10.716
26257W        W91517   1.824   6.003   3.836
26258W        W91518  19.788  25.659  10.990
26259W        W91519  26.595  22.108  10.088
26260W        W91520  17.913  42.759   4.471
26261W        W91521   6.340   8.788  10.402
26262W        W91522   9.856  28.257   4.680
26263W        W91523   0.249  13.548   3.560
26264W        W91524   1.590  41.047   0.737
26265W        W91525   2.124  19.101  12.907
26266W        W91526  28.075  13.633  13.085
26267W        W91527   7.451  43.840   2.262
26268W        W91528  39.151  22.577   0.839
26269W        W91529  34.480  38.533  14.922
26270W        W91530  11.030  38.990   1.808
26271W        W91531  11.053  36.116  13.994
26272W        W91532  42.105  15.832  14.355
26273W        W91533   0.216  36.989   0.922
26274W        W91534  43.325  11.249   2.373
26275W        W91535  36.849  38.354   3.668
26276W        W91536  37.727  42.917   0.109
26277W        W91537  26.279  28.489  12.351
26278W        W91538  14.669  32.837  14.826
26279W        W91539  10.417  17.234  10.247
26280W        W91540   4.948  33.960  14.428
26281W        W91541   1.218  22.774  13.799
26282W        W91542  30.187  42.568   0.758
26283W        W91543   9.155   3.317   2.568
26284W        W91544  37.884  14.606   1.835
26285W        W91545  35.902  10.189  11.621
26286W        W91546  38.370  40.465  11.504
26287W        W91547  34.356  10.360  13.853
26288W        W91548  15.532  28.388   1.324
26289W        W91549  22.982  43.509  14.078
26290W        W91550  32.074  20.298  11.608
26291W        W91551  12.614  29.079   1.229
26292W        W91552  24.002  31.472   2.448
26293W        W91553  13.872   1.440  14.744
26294W        W91554  42.876  24.122  14.832
26295W        W91555  28.857  13.235   4.133
26296W        W91556   7.150  36.852  12.128
26297W        W91557  29.093  15.661  11.580
26298W        W91558   7.452  17.624   1.521
26299W        W91559  43.918  20.291  11.726
26300W        W91560  15.313  39.483  13.903
26301W        W91561  30.181  29.712   3.578
26302W        W91562  26.474  39.623   3.748
26303W        W91563  38.910  31.615   1.229
26304W        W91564  22.942  17.771  10.649
26305W        W91565  37.531  31.903  13.754
26306W        W91566  14.062  11.379   3.643
26307W        W91567  37.761  30.827   1.839
26308W        W91568  42.612  40.408   4.539
26309W        W91569  31.380  44.045   0.734
26310W        W91570  41.402  41.966  10.551
26311W        W91571  10.174  11.889  10.783
26312W        W91572   3.023   4.923   2.770
26313W        W91573   9.323   8.258   2.866
26314W        W91574  21.284   7.808   1.257
26315W        W91575  40.844  21.247  13.509
26316W        W91576  43.022   4.659  13.552
26317W        W91577  18.828  42.508  12.968
26318W        W91578  17.902  32.229  11.583
26319W        W91579  16.555   0.290   3.157
26320W        W91580  43.815   0.853  10.389
26321W        W91581  31.832  38.079  12.613
26322W        W91582  33.557  28.129  11.431
26323W        W91583  42.799  16.129   4.141
26324W        W91584  25.048  35.269  14.985
26325W        W91585   0.514  33.667  14.854
26326W        W91586  26.714  12.186   3.212
26327W        W91587   8.805  11.836  12.807
26328W        W91588   5.321  32.914  13.859
26329W        W91589   0.411  19.681   4.697
26330W        W91590  30.006  24.121   3.807
26331W        W91591   3.399  18.245  14.472
26332W        W91592  40.263  44.736  13.895
26333W        W91593  15.543   9.245   2.564
26334W        W91594  34.920  25.978   1.831
26335W        W91595  12.052   9.800   3.828
26336W        W91596  12.484  43.880  11.420
26337W        W91597  22.252   4.732   2.779
26338W        W91598  37.297  27.454   3.677
26339W        W91599  10.613  41.465  14.966
26340W        W91600  23.006   3.843   0.167
26341W        W91601  29.079  29.713   4.642
26342W        W91602   0.866  10.419   0.916
26343W        W91603  36.955  14.840   1.838
26344W        W91604   4.987  39.854   2.798
26345W        W91605  40.523  25.621  10.701
26346W        W91606  35.102  24.249  11.855
26347W        W91607  33.268   8.664   0.999
26348W        W91608  27.948  14.800   9.950
26349W        W91609  14.547  27.406  10.692
26350W        W91610  44.368   2.671  14.880
26351W        W91611  37.509  37.072   2.411
26352W        W91612  22.282  34.488   0.845
26353W        W91613  43.296  29.060  12.453
26354W        W91614   3.789  41.153  14.027
26355W        W91615  41.036  30.491  10.692
26356W        W91616  22.925   3.310   4.698
26357W        W91617   5.794  41.922   4.653
26358W        W91618   4.864  20.950   3.824
26359W        W91619  38.543  41.316  11.022
26360W        W91620  21.646  31.224   1.296
26361W        W91621   3.690  23.578   0.521
26362W        W91622  43.538  17.522   3.604
26363W        W91623  11.401  11.384   4.040
26364W        W91624   7.132  38.848  12.489
26365W        W91625  22.106  14.645  13.505
26366W        W91626  41.568  14.986  13.887
26367W        W91627   5.512  17.581   4.215
26368W        W91628  39.847   1.943  12.033
26369W        W91629  23.477   7.655   3.686
26370W        W91630  39.522  30.088   0.835
26371W        W91631   9.230  35.225   0.952
26372W        W91632  16.322   4.761  11.666
26373W        W91633  27.259  16.800   2.926
26374W        W91634  21.157  12.037  13.100
26375W        W91635  11.394  33.641  14.500
26376W        W91636   3.905  32.930  14.089
26377W        W91637  15.124  16.460  14.874
26378W        W91638   6.400  31.099  12.022
26379W        W91639  27.249   8.812   1.628
26380W        W91640  14.272   8.240   0.821
26381W        W91641  37.040   0.210   0.547
26382W        W91642   6.632  34.150   4.150
26383W        W91643  40.894  31.164   0.542
26384W        W91644  26.099   7.031  14.638
26385W        W91645  28.942   0.089  12.382
26386W        W91646  14.156   3.630   4.404
26387W        W91647  20.202  21.342   3.739
26388W        W91648   7.447  34.944  13.482
26389W        W91649  11.833  21.366   3.563
26390W        W91650  10.066  16.794  13.347
26391W        W91651  22.119  22.262  13.927
26392W        W91652  29.944  31.852  10.482
26393W        W91653  35.784  39.958  10.512
26394W        W91654  44.271  15.654  14.367
26395W        W91655  32.651  42.027   3.203
26396W        W91656  24.508  33.925   1.265
26397W        W91657  26.136   4.183  12.103
26398W        W91658  28.807  14.653   1.105
26399W        W91659  20.034  10.919  10.375
26400W        W91660   2.400   5.261  11.852
26401W        W91661  14.486  29.696  13.748
26402W        W91662  21.096  43.477  11.452
26403W        W91663   3.853  41.101  11.932
26404W        W91664  28.534  35.071  11.639
26405W        W91665  43.401  25.458   5.026
26406W        W91666   3.875  13.305   3.272
26407W        W91667  19.210   5.796   0.361
26408W        W91668  30.590  36.510   0.466
26409W        W91669  44.459  15.189   0.396
26410W        W91670  19.475   5.342  13.524
26411W        W91671  16.875   3.173  13.092
26412W        W91672  21.181  42.782   4.140
26413W        W91673  19.679  24.740   4.156
26414W        W91674  14.815  18.729  13.878
26415W        W91675   2.072   5.709   4.169
26416W        W91676  19.670   7.705   4.032
26417W        W91677  32.859   6.208  11.944
26418W        W91678  36.242  31.054   2.784
26419W        W91679  27.994  27.030  12.930
26420W        W91680  39.503  28.629  11.979
26421W        W91681  20.773  13.222   1.819
26422W        W91682   0.302  32.980   2.781
26423W        W91683   8.258  44.966  13.403
26424W        W91684  11.951  17.126   1.512
26425W        W91685  44.478  41.268   0.749
26426W        W91686  30.615  15.552   1.908
26427W        W91687  31.304  11.800   4.508
26428W        W91688  40.353  30.596   2.615
26429W        W91689  35.084  20.266   1.431
26430W        W91690  23.551  35.003  13.370
26431W        W91691   2.808  36.028  11.428
26432W        W91692  36.573   9.801  13.536
26433W        W91693  36.415  31.670   3.208
26434W        W91694  28.099  18.184   2.277
26435W        W91695  42.849   9.306   4.231
26436W        W91696   5.182  10.593  11.975
26437W        W91697  42.582  41.871  11.937
26438W        W91698   7.493   2.412   4.101
26439W        W91699  20.324  25.674  13.459
26440W        W91700  26.669  16.184  14.917
26441W        W91701  16.027  35.027   0.424
26442W        W91702   8.696  33.425  11.507
26443W        W91703  35.181   7.068  13.979
26444W        W91704  39.493  13.884   3.096
26445W        W91705  22.930   4.988  13.330
26446W        W91706  32.383  38.728  14.986
26447W        W91707  39.978  21.263   0.468
26448W        W91708   6.930  29.647  12.351
26449W        W91709   8.286  13.304  12.610
26450W        W91710  43.042  27.107   1.641
26451W        W91711  44.298   9.293   1.676
26452W        W91712  15.587  44.405   3.946
26453W        W91713  16.809  41.940  14.874
26454W        W91714   7.738  27.191   2.781
26455W        W91715  44.839  19.288  10.544
26456W        W91716   0.383  21.939  11.900
26457W        W91717   5.139  40.221   4.195
26458W        W91718  19.166  10.299   1.222
26459W        W91719   1.939   8.230   3.734
26460W        W91720  16.531  41.095   0.964
26461W        W91721  31.446  18.622  12.596
26462W        W91722  15.757  36.980  13.780
26463W        W91723  19.622  18.137  13.439
26464W        W91724   3.409  33.129   0.413
26465W        W91725  39.229  22.933   4.905
26466W        W91726  27.909   2.127  10.476
26467W        W91727  11.725  17.262   2.886
26468W        W91728  25.641  24.980   1.856
26469W        W91729  41.020  23.160   2.809
26470W        W91730  19.681  36.107   0.266
26471W        W91731  23.558  41.052   1.481
26472W        W91732  43.327   0.356  10.555
26473W        W91733  13.687  43.495   0.880
26474W        W91734  17.603  21.675   3.697
26475W        W91735   4.969  14.677  10.330
26476W        W91736  41.288   1.557   2.350
26477W        W91737  28.683  18.743  13.748
26478W        W91738   6.678   6.988  12.525
26479W        W91739  18.106  29.071   1.871
26480W        W91740  31.552   0.022   4.593
26481W        W91741  16.306  28.558  13.517
26482W        W91742  29.065  27.766  11.136
26483W        W91743  30.675  38.859   0.362
26484W        W91744   5.634  32.957  13.390
26485W        W91745  40.898   3.534  12.077
26486W        W91746  16.825  12.274  14.551
26487W        W91747  25.608  26.340  14.277
26488W        W91748  22.704  42.879  14.732
26489W        W91749  16.090  44.618  11.193
26490W        W91750  38.292   4.519  13.360
26491W        W91751  25.969  22.528   1.687
26492W        W91752  28.181  39.821   2.229
26493W        W91753  25.857  29.115  11.301
26494W        W91754  13.172  27.296   1.234
26495W        W91755  36.599  41.327   3.641
26496W        W91756  41.458   1.188   2.048
26497W        W91757  44.576  25.642   1.652
26498W        W91758  37.832   4.896  14.594
26499W        W91759  29.232  40.121  12.457
26500W        W91760  41.117  23.753   0.390
26501W        W91761  29.611  24.282  12.519
26502W        W91762   4.672  27.957   1.222
26503W        W91763  19.271  40.799  14.519
26504W        W91764  15.398   0.846   0.321
26505W        W91765  23.473  27.153  14.451
26506W        W91766   9.951  14.997   2.825
26507W        W91767  20.284  39.544  12.889
26508W        W91768   7.870  10.238   4.179
26509W        W91769  33.355  34.904   2.688
26510W        W91770  27.290   5.879  14.405
26511W        W91771  37.407  24.237  14.938
26512W        W91772   8.815  31.301  12.513
26513W        W91773   6.926  39.809   3.968
26514W        W91774  37.584  31.071   5.078
26515W        W91775  40.997   9.894   4.628
26516W        W91776   9.603   3.115  14.008
26517W        W91777  14.649  10.580   3.620
26518W        W91778  40.430  27.383   1.753
26519W        W91779  42.812   2.462   4.985
26520W        W91780   8.687  42.274  11.175
26521W        W91781  26.203  23.113  10.750
26522W        W91782   6.293   9.605   1.846
26523W        W91783  17.711  15.282   0.624
26524W        W91784  10.848  39.009   2.320
26525W        W91785   5.949   6.435  12.488
26526W        W91786  14.781  30.586   3.158
26527W        W91787   0.699  31.989   5.215
26528W        W91788  27.910  21.712   2.512
26529W        W91789   1.248  13.372   0.772
26530W        W91790  11.168  11.932  13.882
26531W        W91791  39.999  10.702   0.011
26532W        W91792  20.964  44.934   1.983
26533W        W91793  24.479  40.300   2.306
26534W        W91794  27.479  41.466  12.689
26535W        W91795  32.986  26.276  12.195
26536W        W91796  14.304  38.682   2.212
26537W        W91797  43.539  20.275  14.175
26538W        W91798  40.964  27.959  10.634
26539W        W91799  24.570   0.432  11.385
26540W        W91800  16.228  21.289   0.493
26541W        W91801  14.028  27.477   5.150
26542W        W91802   0.931  37.808   2.554
26543W        W91803  11.914   7.241  13.373
26544W        W91804  36.598  18.074  13.392
26545W        W91805  27.123  19.733   4.094
26546W        W91806  31.550  43.022   4.702
26547W        W91807  23.904  32.499  14.414
26548W        W91808  44.275   3.833  10.918
26549W        W91809  34.601  35.868   3.213
26550W        W91810  20.258  12.449   3.589
26551W        W91811  44.334  38.042  12.422
26552W        W91812  27.453  10.912   2.472
26553W        W91813  12.716  32.885  14.477
26554W        W91814  29.395  15.585  12.004
26555W        W91815  29.475  37.685  13.419
26556W        W91816  26.989  33.548  12.404
26557W        W91817  21.394  12.230   4.471
26558W        W91818  19.609  12.141  14.335
26559W        W91819  24.395  23.548   2.421
26560W        W91820   6.441   2.277  10.493
26561W        W91821   7.501  23.073  12.058
26562W        W91822   5.907  38.954   9.968
26563W        W91823  23.729  41.399   1.823
26564W        W91824  25.524  22.502   0.914
26565W        W91825  41.501  33.895   2.335
26566W        W91826  36.937  38.206  10.683
26567W        W91827  30.946   9.748  11.562
26568W        W91828  33.909  30.875   1.275
26569W        W91829   3.856   9.241  14.110
26570W        W91830  13.249   1.253   3.255
26571W        W91831  13.536   6.443  12.322
26572W        W91832  41.297  33.348   3.251
26573W        W91833  10.909  28.325  11.066
26574W        W91834  21.012  21.401   3.662
26575W        W91835  23.725   4.957  14.386
26576W        W91836   9.632  42.464   3.091
26577W        W91837  30.546   9.316   3.573
26578W        W91838   7.812  26.113   3.607
26579W        W91839  29.561  24.538   3.161
26580W        W91840  24.676  33.131   2.179
26581W        W91841  22.269  22.523   2.836
26582W        W91842  44.289   1.924  12.913
26583W        W91843  36.137  27.636  14.081
26584W        W91844   3.855  20.607   2.240
26585W        W91845  27.292   7.285   1.430
26586W        W91846  25.021   8.223   0.703
26587W        W91847   3.940  43.001   4.264
26588W        W91848  12.575  13.196   3.639
26589W        W91849  27.792  30.652  13.451
26590W        W91850   2.349  32.093   0.762
26591W        W91851  33.515  16.624  12.483
26592W        W91852  43.294   1.712   1.213
26593W        W91853  42.023   7.938   1.891
26594W        W91854  20.613  35.183   2.391
26595W        W91855  13.052  39.022   4.540
26596W        W91856  16.965  42.401  10.629
26597W        W91857   1.813  36.262   4.109
26598W        W91858  35.334  22.085  11.228
26599W        W91859  22.200  33.628   0.704
26600W        W91860   0.909  39.905   0.258
26601W        W91861  18.743  24.677  13.502
26602W        W91862   1.724   1.486   2.654
26603W        W91863  34.656   3.438  14.406
26604W        W91864  30.385  40.293  14.486
26605W        W91865   5.207  28.948  14.905
26606W        W91866  35.850  17.220   2.674
26607W        W91867  24.048   8.988   4.816
26608W        W91868  23.008  17.776   2.795
26609W        W91869  33.483   5.297   3.413
26610W        W91870   0.273   0.264   4.140
26611W        W91871   6.339  22.634   3.095
26612W        W91872  36.444   5.669   2.168
26613W        W91873   6.475  18.623   0.445
26614W        W91874   1.134  11.444  13.522
26615W        W91875  43.134  33.348   5.048
26616W        W91876  11.239  30.594   1.273
26617W        W91877  15.486   0.294  13.426
26618W        W91878  28.493  37.917  11.480
26619W        W91879  29.302  36.448  11.186
26620W        W91880  28.410  13.665  11.652
26621W        W91881  29.000   2.018  14.854
26622W        W91882   4.679   8.138   0.173
26623W        W91883  10.007  27.304   9.731
26624W        W91884  35.366  30.059  13.528
26625W        W91885  17.235  42.027  10.323
26626W        W91886  39.009  30.093   2.593
26627W        W91887   1.501  32.587  14.060
26628W        W91888  28.391  20.300  12.601
26629W        W91889   7.152  16.770  10.728
26630W        W91890  40.491  25.989  14.002
26631W        W91891  20.065   0.054   0.931
26632W        W91892  14.748  38.908   0.985
26633W        W91893  18.011  26.667   4.910
26634W        W91894  22.912  40.713   0.644
26635W        W91895  27.314  10.824  12.946
26636W        W91896  27.825  28.268   2.054
26637W        W91897  36.277  22.602   2.190
26638W        W91898  30.970   2.337   2.311
26639W        W91899   4.774  17.996  14.020
26640W        W91900  23.202  24.760   0.329
26641W        W91901   9.440  22.615   3.885
26642W        W91902  10.179   2.229   1.460
26643W        W91903  44.947  34.366  12.966
26644W        W91904  40.863  43.829  14.512
26645W        W91905  25.994  17.487  14.890
26646W        W91906   5.321  12.229  11.639
26647W        W91907   2.857  13.078   2.310
26648W        W91908   3.736  30.521   1.378
26649W        W91909  14.352  19.723  14.311
26650W        W91910  16.389  20.786   2.983
26651W        W91911  15.860  28.969   2.328
26652W        W91912   9.181  16.976   1.837
26653W        W91913   7.919  26.883  12.219
26654W        W91914  23.960   9.894  10.323
26655W        W91915   3.972   8.383   2.387
26656W        W91916  39.047  10.156  10.839
26657W        W91917   1.730  15.807  11.450
26658W        W91918  32.352  19.279   3.387
26659W        W91919  39.323  22.834  12.101
26660W        W91920  43.356  44.301   2.301
26661W        W91921   4.288   1.547   2.740
26662W        W91922  14.431   9.547  12.252
26663W        W91923  13.813  30.038   4.614
26664W        W91924   2.865  32.435   3.186
26665W        W91925  29.995  42.573  11.154
26666W        W91926  15.886  14.378  11.573
26667W        W91927  44.016  30.018  12.051
26668W        W91928  44.456   0.010  12.483
26669W        W91929  15.257   2.027   4.135
26670W        W91930  17.489   2.225  12.597
26671W        W91931  21.728   8.382  14.941
26672W        W91932   4.513  22.268   4.207
26673W        W91933  43.493  35.419   1.917
26674W        W91934  21.517  13.284  13.117
26675W        W91935  15.021  16.089   2.808
26676W        W91936  27.881  15.719  12.145
26677W        W91937  43.862  31.922  11.920
26678W        W91938   7.157  37.878  13.963
26679W        W91939   2.334  11.367  13.365
26680W        W91940   8.439   9.815  14.381
26681W        W91941   1.871  31.883   1.641
26682W        W91942  43.376  41.851   3.827
26683W        W91943  42.357  43.959   1.783
26684W        W91944  27.448  12.576  14.373
26685W        W91945  41.263  26.204  14.460
26686W        W91946  41.928   4.706   5.027
26687W        W91947  35.150  42.092  10.720
26688W        W91948  28.557  40.943  12.526
26689W        W91949  37.527  19.525   3.619
26690W        W91950  21.199  17.593  10.271
26691W        W91951  31.079  22.897  10.478
26692W        W91952   6.123   0.587   2.276
26693W        W91953   9.787  20.941  12.068
26694W        W91954  26.959  20.880  13.811
26695W        W91955  35.260  39.629  12.998
26696W        W91956  11.802  18.835   2.310
26697W        W91957   9.819  27.564  11.407
26698W        W91958  32.831  20.826   2.903
26699W        W91959   9.610   6.466  14.970
26700W        W91960   6.837  41.857   1.823
26701W        W91961   6.946  34.513  14.315
26702W        W91962  21.135   7.691   3.238
26703W        W91963   6.647  43.736  13.807
26704W        W91964  22.728  28.421   0.502
26705W        W91965  27.510  13.278   0.236
26706W        W91966  37.585   0.029   1.175
26707W        W91967  11.372  19.829   4.931
26708W        W91968  26.066   9.091  12.031
26709W        W91969  24.416  40.353  11.909
26710W        W91970  36.572   5.230  11.492
26711W        W91971  37.261  38.330  12.072
26712W        W91972  35.359  28.095  11.578
26713W        W91973   4.198  12.721   2.732
26714W        W91974   3.554   3.350   5.025
26715W        W91975  11.928   2.030  11.675
26716W        W91976   8.253  39.565  13.550
26717W        W91977   0.001  28.591  12.518
26718W        W91978  13.333  25.851   1.675
26719W        W91979  23.981   4.796  13.461
26720W        W91980  27.203  19.516   0.278
26721W        W91981  21.497  10.656  14.929
26722W        W91982  33.578  19.659  14.887
26723W        W91983  14.325  31.007  14.789
26724W        W91984   0.886  44.750  12.313
26725W        W91985  17.493   4.684   2.292
26726W        W91986   7.785  44.987   0.753
26727W        W91987  42.510  18.711   0.029
26728W        W91988  28.657  23.969   0.471
26729W        W91989  29.482  37.428  12.560
26730W        W91990  25.090  44.968   3.330
26731W        W91991   3.603  41.551   0.537
26732W        W91992  18.588   6.676  12.127
26733W        W91993  27.009  32.849  11.115
26734W        W91994   6.376  14.596   2.703
26735W        W91995  22.536  15.531   1.267
26736W        W91996  36.930  40.412   3.944
26737W        W91997  11.395   9.207  14.462
26738W        W91998  22.531  44.028   3.737
26739W        W91999  44.338   5.689  11.656
26740W        W92000  43.834  39.836   0.217
26741W        W92001  44.494  39.556   1.971
26742W        W92002  32.252  39.789  12.212
26743W        W92003  16.867  38.456  14.020
26744W        W92004  40.956  33.565  11.613
26745W        W92005  11.099  16.108  10.667
26746W        W92006   8.124  38.894  10.690
26747W        W92007  13.868  11.168   0.096
26748W        W92008   3.784  18.201   2.754
26749W        W92009  42.033   3.893   0.742
26750W        W92010  10.726  21.280  12.470
26751W        W92011  10.127  31.107   2.300
26752W        W92012  40.409  44.501  13.455
26753W        W92013   3.745  23.592  10.932
26754W        W92014  29.231  28.071   3.899
26755W        W92015  25.083   0.948   4.229
26756W        W92016  11.600  36.900   3.128
26757W        W92017  44.763  13.041   2.802
26758W        W92018  40.996  39.959   0.523
26759W        W92019  37.868  14.371  12.337
26760W        W92020  15.931  34.896   4.099
26761W        W92021  35.258  43.176  12.886
26762W        W92022  36.162  14.985  13.585
26763W        W92023  19.868  41.828   4.583
26764W        W92024  40.859   7.084   0.873
26765W        W92025   8.595   6.273  12.215
26766W        W92026   8.877  31.680   0.901
26767W        W92027  34.992  42.454   2.264
26768W        W92028  21.590   6.419   3.527
26769W        W92029  44.812   7.281   4.205
26770W        W92030  41.166  23.327  11.703
26771W        W92031   6.366  39.355   1.628
26772W        W92032  13.641  42.012  12.448
26773W        W92033  43.645   0.375  11.554
26774W        W92034  36.118  21.393   5.165
26775W        W92035  20.997  40.301   4.024
26776W        W92036  36.295  39.231   0.026
26777W        W92037  32.166  30.143  12.052
26778W        W92038  12.142  14.463  13.925
26779W        W92039  32.103  42.454  10.949
26780W        W92040  10.233  23.200  12.897
26781W        W92041  27.606  11.267  13.138
26782W        W92042  20.334   7.240   2.800
26783W        W92043   8.823  41.561  11.922
26784W        W92044   8.581  44.300   0.630
26785W        W92045  26.579   8.884   2.067
26786W        W92046   2.765  21.487  14.763
26787W        W92047   2.387  36.934  10.644
26788W        W92048  44.594   8.511  13.807
26789W        W92049   8.220  31.404  11.867
26790W        W92050  33.661  26.711  13.337
26791W        W92051  14.711  12.002  14.400
26792W        W92052  40.997  35.048   3.190
26793W        W92053  19.556  28.087  14.293
26794W        W92054  23.474   5.069   1.345
26795W        W92055   1.758  15.056  12.055
26796W        W92056  10.616   3.472   3.675
26797W        W92057  44.830  24.076   2.194
26798W        W92058   9.387  16.436  14.933
26799W        W92059   4.195  29.789   4.726
26800W        W92060  26.024  25.433  11.248
26801W        W92061  14.291  41.350   3.875
26802W        W92062  12.803   1.013  14.413
26803W        W92063  12.314  20.284  14.272
26804W        W92064  12.413  13.727   3.707
26805W        W92065   6.345  32.688   3.106
26806W        W92066  11.059   3.335  14.388
26807W        W92067  12.733  34.935  14.308
26808W        W92068  37.396   5.896  13.310
26809W        W92069  13.166  15.337  12.445
26810W        W92070  16.532  18.618   2.816
26811W        W92071  30.864   3.950  12.855
26812W        W92072   4.700   3.510  12.780
26813W        W92073  44.064   0.924   4.589
26814W        W92074   5.912  43.597  14.939
26815W        W92075  16.985  28.700   4.614
26816W        W92076  26.192  31.599  10.740
26817W        W92077   6.836  40.204  12.872
26818W        W92078  27.709  20.405  12.915
26819W        W92079  11.747  10.825  12.579
26820W        W92080   0.958  22.978  12.521
26821W        W92081   9.361   1.916  12.027
26822W        W92082   1.884  22.307  13.494
26823W        W92083  14.875   1.502  14.858
26824W        W92084  23.103  24.693   2.267
26825W        W92085  33.127   9.939  13.730
26826W        W92086  35.090  18.122   3.298
26827W        W92087  25.247   3.445  10.450
26828W        W92088   6.224  38.970   3.422
26829W        W92089  19.444  42.422  10.425
26830W        W92090  17.144  27.160   3.714
26831W        W92091   5.428  13.097   3.552
26832W        W92092  13.827  13.785  14.327
26833W        W92093  36.172  43.762   1.878
26834W        W92094  41.894  21.203   0.417
26835W        W92095  26.544   7.840   2.270
26836W        W92096  28.136  21.979  12.001
26837W        W92097  17.771  23.985   0.931
26838W        W92098  37.748   6.378   1.363
26839W        W92099  32.021  44.847   4.970
26840W        W92100  37.346  43.749  10.600
26841W        W92101  20.185   4.939  13.329
26842W        W92102   0.852  10.141  13.154
26843W        W92103   9.519   9.372  12.045
26844W        W92104  25.022  42.355  13.366
26845W        W92105   4.643  40.469  13.454
26846W        W92106  41.794  19.058   3.376
26847W        W92107  40.324   9.067  12.518
26848W        W92108  15.329   8.514  14.896
26849W        W92109   4.284  20.513  10.797
26850W        W92110  34.926  15.617   9.730
26851W        W92111  34.547  17.838   2.486
26852W        W92112   7.367  16.088   2.717
26853W        W92113   5.968  20.288   3.313
26854W        W92114  42.477  39.663  10.820
26855W        W92115  15.403   3.228   4.448
26856W        W92116  36.829  15.619   3.739
26857W        W92117  22.650   9.679  13.425
26858W        W92118   9.140   8.682   2.628
26859W        W92119  15.350  29.099   5.055
26860W        W92120  27.453   3.054  10.069
26861W        W92121  25.174  12.755   0.416
26862W        W92122  18.830   9.114  14.289
26863W        W92123  31.905  34.972  12.625
26864W        W92124   3.909  11.827  13.906
26865W        W92125  36.301  30.568  12.199
26866W        W92126   2.617  23.580  11.496
26867W        W92127  18.107  15.696   1.362
26868W        W92128  13.626  36.430  14.908
26869W        W92129   4.114  32.912  12.118
26870W        W92130   6.978  24.152   4.150
26871W        W92131  31.404  14.856   3.781
26872W        W92132  32.707  40.884  13.620
26873W        W92133  43.851   0.327   4.007
26874W        W92134  16.491   3.531   0.907
26875W        W92135  11.031  44.433  12.909
26876W        W92136  42.836   4.824  11.214
26877W        W92137  40.364  23.085   0.265
26878W        W92138  18.608   2.304   4.294
26879W        W92139   1.973  34.177   1.227
26880W        W92140  10.856  23.066   2.385
26881W        W92141   9.898  28.095  11.632
26882W        W92142  20.542   7.946   2.224
26883W        W92143  33.398  37.803  13.649
26884W        W92144  14.593  32.854  11.082
26885W        W92145  28.092  25.249   3.066
26886W        W92146   3.218  39.448  14.903
26887W        W92147   0.819  40.082  14.196
26888W        W92148  44.491  14.678   3.673
26889W        W92149  30.699  22.350   2.650
26890W        W92150  19.074  29.663   0.814
26891W        W92151  15.296  30.628   3.302
26892W        W92152   3.454  27.726  12.452
26893W        W92153  14.757  12.184  13.040
26894W        W92154  42.765  17.735  10.621
26895W        W92155  13.246  32.316  12.715
26896W        W92156   8.147  33.092   3.253
26897W        W92157  23.146  36.689   0.467
26898W        W92158   0.881  37.863   0.330
26899W        W92159   6.928  25.938   0.485
26900W        W92160   6.837  28.375  14.846
26901W        W92161  23.235  25.539  14.045
26902W        W92162  18.862  27.986  14.882
26903W        W92163  20.224  36.829  10.609
26904W        W92164  37.518  36.591   2.112
26905W        W92165  10.631  12.149   3.246
26906W        W92166   2.884  13.676  11.464
26907W        W92167  16.287  40.989  13.319
26908W        W92168   2.025   0.259   3.712
26909W        W92169  30.643  21.330  13.061
26910W        W92170  41.749  24.528   3.334
26911W        W92171  23.742  17.274   2.160
26912W        W92172  35.634  26.547   2.457
26913W        W92173  10.305  36.897   0.410
26914W        W92174  32.119  44.198  11.589
26915W        W92175  34.540   4.714   3.183
26916W        W92176   0.514  39.483   0.974
26917W        W92177  30.181  30.251  13.043
26918W        W92178  21.702   1.455   2.852
26919W        W92179  18.346   5.940   0.015
26920W        W92180   4.336  15.357   3.522
26921W        W92181  28.237  33.672   2.205
26922W        W92182  17.778  12.751  13.904
26923W        W92183   7.126  22.193   3.588
26924W        W92184  24.523   8.562   3.234
26925W        W92185  21.204  20.503   5.533
26926W        W92186  39.994  35.550   3.916
26927W        W92187  44.264  24.234   4.633
26928W        W92188  32.475  38.216   0.044
26929W        W92189  43.538  30.427   3.803
26930W        W92190   7.662  24.932  10.924
26931W        W92191   4.991   8.936  13.431
26932W        W92192  34.625   7.748  14.494
26933W        W92193  30.678   4.144  11.156
26934W        W92194  39.074  14.025   4.133
26935W        W92195  29.434  29.477  12.236
26936W        W92196  15.131  44.456   2.394
26937W        W92197   8.325  42.908   3.713
26938W        W92198   3.163  12.468  10.458
26939W        W92199  41.875  20.151   2.462
26940W        W92200  43.402  20.817   3.106
26941W        W92201  29.381  44.302   2.932
26942W        W92202   8.915  33.620  13.561
26943W        W92203   7.928  43.986  13.467
26944W        W92204   9.746  20.185  11.136
26945W        W92205  26.590  31.815  11.128
26946W        W92206  37.815  25.089   4.673
26947W        W92207  32.059  37.276   2.646
26948W        W92208  24.553  23.023  13.937
26949W        W92209  20.820  20.787   4.767
26950W        W92210  21.677  43.215  12.915
26951W        W92211  40.278  43.833   0.789
26952W        W92212  18.989  23.400   4.182
26953W        W92213   1.192  17.716   3.166
26954W        W92214  11.276  26.518  14.742
26955W        W92215  34.563   0.476   1.042
26956W        W92216   8.321  12.602   0.395
26957W        W92217  21.179  27.395   3.428
26958W        W92218  23.586   6.760   2.720
26959W        W92219  41.463  26.708  10.663
26960W        W92220  28.771   8.780   5.120
26961W        W92221   7.158  44.777  14.343
26962W        W92222  29.539  26.510   0.812
26963W        W92223  21.120  38.387   0.746
26964W        W92224   3.837  36.627   4.247
26965W        W92225  30.360  30.815  12.662
26966W        W92226  32.215  15.711  10.300
26967W        W92227  11.243  22.105   2.482
26968W        W92228  30.199   3.361   2.246
26969W        W92229  35.606  41.298  12.959
26970W        W92230  17.446  33.553  11.650
26971W        W92231  16.595   1.643   1.874
26972W        W92232  36.953  22.125   1.665
26973W        W92233  25.524   9.072  13.604
26974W        W92234  43.317  16.495  13.447
26975W        W92235  26.927  10.315   2.825
26976W        W92236  21.205  32.542   1.658
26977W        W92237   3.291  38.978  14.733
26978W        W92238  21.937  21.145  14.428
26979W        W92239  15.127  32.807   0.732
26980W        W92240  31.967   0.808  12.892
26981W        W92241  10.373  25.038  14.521
26982W        W92242  19.001  26.322   0.239
26983W        W92243  15.558  16.755   2.363
26984W        W92244   3.893  35.573  14.304
26985W        W92245  38.405  10.837   1.544
26986W        W92246  37.855  30.369  12.439
26987W        W92247  34.957  20.779   0.574
26988W        W92248  29.669   7.820   4.727
26989W        W92249   5.413  34.093  11.156
26990W        W92250  37.271  28.995   3.711
26991W        W92251  35.888  20.600  12.896
26992W        W92252  23.241  26.628  12.132
26993W        W92253  30.643  39.512  11.741
26994W        W92254  17.320  22.636   1.313
26995W        W92255  22.068  17.500   4.173
26996W        W92256  33.731   3.232   4.583
26997W        W92257   8.940  11.559   2.304
26998W        W92258  20.050  25.141  13.385
26999W        W92259  10.921  33.575  14.299
27000W        W92260   4.499  27.819  13.933
27001W        W92261  39.351   7.521   1.407
27002W        W92262   5.908  30.377  14.903
27003W        W92263  35.137  16.541   2.991
27004W        W92264  33.855  27.904   3.698
27005W        W92265   2.545  42.465  10.966
27006W        W92266  18.397  28.057  11.992
27007W        W92267  38.543  27.180  12.910
27008W        W92268   9.634  13.478   2.200
27009W        W92269  38.085  24.906   5.076
27010W        W92270  21.173  29.470  13.448
27011W        W92271  35.614   6.887  13.040
27012W        W92272  43.362  40.286   1.649
27013W        W92273   5.440  32.106  12.050
27014W        W92274  27.067  11.713   0.459
27015W        W92275  42.915  10.673   5.169
27016W        W92276   3.756  20.519  12.410
27017W        W92277   7.506  36.894   0.452
27018W        W92278  42.400  29.723   1.331
27019W        W92279  35.302   7.954  10.969
27020W        W92280   9.419  18.950  11.980
27021W        W92281   8.356  29.337   3.233
27022W        W92282  39.493  17.076  12.478
27023W        W92283  17.727  28.682  14.001
27024W        W92284  17.916  21.164  11.708
27025W        W92285  35.033  32.674   3.364
27026W        W92286  13.795  11.402   1.480
27027W        W92287  39.489  19.748   1.935
27028W        W92288  41.540  14.309  13.390
27029W        W92289  37.073  33.058   1.276
27030W        W92290  11.383  21.488  11.060
27031W        W92291  41.985  31.338  13.238
27032W        W92292  18.665  24.036  12.799
27033W        W92293   3.752  12.871   2.353
27034W        W92294   3.390  44.703   3.417
27035W        W92295   8.737  20.112   0.745
27036W        W92296   7.162  30.965  14.004
27037W        W92297  15.010  24.582  14.243
27038W        W92298  29.957  30.574   1.401
27039W        W92299   8.364  12.272   2.222
27040W        W92300  41.829  26.112  13.413
27041W        W92301  25.940  38.344   1.782
27042W        W92302   7.197  17.913   2.662
27043W        W92303   1.525  14.742   0.453
27044W        W92304   3.621  14.798   3.047
27045W        W92305  32.187   5.505  11.529
27046W        W92306  20.854   8.234   3.389
27047W        W92307  37.352  42.710   3.380
27048W        W92308  34.576   4.646  10.653
27049W        W92309   4.879  36.067  13.413
27050W        W92310   8.616  14.879   4.337
27051W        W92311  42.389  44.760   1.402
27052W        W92312   9.301   4.915  11.094
27053W        W92313   8.084  21.386   1.464
27054W        W92314  18.125  29.983  11.175
27055W        W92315   2.082  34.397   4.051
27056W        W92316  40.945  21.348  12.213
27057W        W92317   9.805  24.196  10.300
27058W        W92318   6.464  29.931  13.157
27059W        W92319  19.832   9.408  13.402
27060W        W92320   0.344   4.316   2.208
27061W        W92321  21.561  11.661   2.387
27062W        W92322  43.453  17.781   3.167
27063W        W92323  26.490  26.083  12.282
27064W        W92324  36.930  23.398   2.319
27065W        W92325  37.514  37.134   1.462
27066W        W92326   4.028  10.655  13.506
27067W        W92327  21.618  17.535  14.402
27068W        W92328  34.456  12.985  11.906
27069W        W92329  22.094   2.515   0.266
27070W        W92330  22.407   8.140  11.972
27071W        W92331  24.181  20.442  11.629
27072W        W92332  36.426  32.168   4.545
27073W        W92333   0.855   7.717  11.655
27074W        W92334  20.975  34.543  12.381
27075W        W92335  34.159  26.761   4.479
27076W        W92336  26.001  25.954  11.590
27077W        W92337  39.343  26.056   0.510
27078W        W92338   3.848  43.558  14.833
27079W        W92339  22.938  44.985  12.064
27080W        W92340  20.037   2.458   1.892
27081W        W92341  36.335  19.319   2.218
27082W        W92342  12.224  42.754   2.734
27083W        W92343   4.400  25.565  11.952
27084W        W92344  33.579  36.298   0.247
27085W        W92345   5.811  27.455   1.260
27086W        W92346  15.061  39.078   2.467
27087W        W92347  38.408  29.555  12.940
27088W        W92348  43.313  26.932   0.707
27089W        W92349   5.860  11.535  11.047
27090W        W92350  38.393  44.721   2.611
27091W        W92351  39.302  27.561   2.888
27092W        W92352   6.805  22.264  12.490
27093W        W92353   7.867  30.415  11.378
27094W        W92354  14.258  13.715  12.350
27095W        W92355  43.122  28.029  11.393
27096W        W92356  44.843   3.903   1.702
27097W        W92357  32.364   3.798   2.649
27098W        W92358   3.332   9.744  12.998
27099W        W92359  29.707   0.338   2.126
27100W        W92360   5.251  23.008   0.928
27101W        W92361  37.883  24.146   2.737
27102W        W92362  33.908  27.994   0.084
27103W        W92363  43.032   9.856  13.329
27104W        W92364   0.552  44.409  12.966
27105W        W92365   2.886  40.430   4.545
27106W        W92366   1.776  18.004   4.176
27107W        W92367  10.502  44.270   0.582
27108W        W92368  17.517   2.874  11.168
27109W        W92369  17.029  40.429  13.099
27110W        W92370  32.009  35.141  11.481
27111W        W92371  30.971  31.112   2.390
27112W        W92372   7.606   6.347   1.235
27113W        W92373  34.047  18.525   0.329
27114W        W92374  10.856  16.525   0.963
27115W        W92375  43.803  37.477   1.946
27116W        W92376  43.869  35.738   2.408
27117W        W92377  11.795  29.697   0.084
27118W        W92378  30.074   9.724  13.890
27119W        W92379   2.750  35.010  14.556
27120W        W92380   7.585  37.833  12.221
27121W        W92381  44.674  39.449   3.213
27122W        W92382  41.942  40.565  10.184
27123W        W92383  21.321   5.306  13.994
27124W        W92384  37.566  26.720  10.559
27125W        W92385  31.625  34.694   3.297
27126W        W92386  37.514   3.698   1.866
27127W        W92387   3.186  38.576   0.038
27128W        W92388  13.932  14.711  11.629
27129W        W92389  11.909   8.667  12.326
27130W        W92390  29.922  17.651  12.529
27131W        W92391  37.946  18.949  13.486
27132W        W92392   7.900   4.700   1.706
27133W        W92393  35.087  11.556   2.180
27134W        W92394  28.961  37.564   0.366
27135W        W92395  37.393   4.385  13.544
27136W        W92396  41.546  36.008  13.027
27137W        W92397  25.981  40.948  13.582
27138W        W92398  10.709  42.408  12.549
27139W        W92399  42.961  31.354   3.241
27140W        W92400  30.983  41.860   0.816
27141W        W92401  41.189   3.815  10.722
27142W        W92402  19.626  23.720  12.585
27143W        W92403  15.533  42.836  14.159
27144W        W92404  10.778  33.332  14.731
27145W        W92405  39.104  39.056  10.206
27146W        W92406  30.111   1.019   1.912
27147W        W92407  35.109   4.824   1.304
27148W        W92408  24.390  23.205  11.018
27149W        W92409  36.355  36.924   4.251
27150W        W92410  38.898  20.955  13.445
27151W        W92411   3.486  27.896   1.709
27152W        W92412  19.122  25.117   4.101
27153W        W92413  34.101  25.146   3.687
27154W        W92414  14.134  21.741   2.772
27155W        W92415  10.041   4.353  11.560
27156W        W92416  41.091   3.784  11.660
27157W        W92417   6.442  10.726  13.795
27158W        W92418   7.927  44.705  13.956
27159W        W92419  34.158  39.417  12.359
27160W        W92420  19.196   7.873   4.002
27161W        W92421   7.073  35.180   2.380
27162W        W92422  38.745   9.193   1.409
27163W        W92423  20.241  32.427  12.417
27164W        W92424  24.228  13.457  12.072
27165W        W92425  27.989  26.189   3.229
27166W        W92426   7.721  15.277   1.013
27167W        W92427  10.381  35.553  12.020
27168W        W92428  23.050  17.177  12.442
27169W        W92429  35.562  27.025   0.804
27170W        W92430  34.797   0.611  11.125
27171W        W92431  22.300  16.886   1.418
27172W        W92432  11.771   2.484  13.638
27173W        W92433  22.037   3.006  13.530
27174W        W92434  15.862  23.639  11.134
27175W        W92435  23.471  29.607  11.513
27176W        W92436  25.517   9.371  14.043
27177W        W92437  41.708  38.466   1.491
27178W        W92438  15.728  42.977   2.689
27179W        W92439  14.694  18.149   2.867
27180W        W92440  11.482  42.012   3.462
27181W        W92441  35.338  17.135  14.481
27182W        W92442  38.865  16.199  10.481
27183W        W92443  15.596   2.689  11.739
27184W        W92444  33.076  38.780   1.160
27185W        W92445  37.734  42.955   3.594
27186W        W92446  43.872  34.380   0.104
27187W        W92447   7.301  18.977   4.010
27188W        W92448   8.139  21.998   0.064
27189W        W92449   3.398  32.188   3.717
27190W        W92450  39.540  17.827   3.613
27191W        W92451  42.369   1.036   0.926
27192W        W92452  35.939  37.815  12.901
27193W        W92453  34.472  41.272  11.629
27194W        W92454  38.803  40.858   0.395
27195W        W92455   1.402  12.674  12.607
27196W        W92456   4.280  29.638  12.485
27197W        W92457  16.081  13.039  11.471
27198W        W92458  26.622  39.924   0.334
27199W        W92459   3.892  10.969  11.525
27200W        W92460  14.279   4.073  11.744
27201W        W92461   8.806   7.142  11.638
27202W        W92462  29.378  41.929  12.564
27203W        W92463  30.178  20.234   0.890
27204W        W92464  24.545   7.499   1.844
27205W        W92465  40.106  11.616  12.417
27206W        W92466  34.623  30.547   1.070
27207W        W92467  33.865  24.574  13.502
27208W        W92468  42.499  13.005   4.660
27209W        W92469   3.305  41.318   4.743
27210W        W92470  17.731  40.021  14.524
27211W        W92471  31.051  31.564   3.559
27212W        W92472  25.738  19.109  12.891
27213W        W92473  13.452  43.786  14.463
27214W        W92474  42.856  10.461   3.610
27215W        W92475  20.506  10.795  13.508
27216W        W92476  11.697  18.452   3.249
27217W        W92477  36.012  20.779   3.264
27218W        W92478  19.455  23.735   3.383
27219W        W92479  43.090  19.311   4.625
27220W        W92480   3.920  37.946   1.506
27221W        W92481   4.255   1.471  14.674
27222W        W92482  30.940  30.616   3.772
27223W        W92483  27.115  23.947   2.144
27224W        W92484  43.851  41.447   1.810
27225W        W92485   8.473  24.192  11.592
27226W        W92486  30.892   8.757   1.098
27227W        W92487   4.264  16.568   4.636
27228W        W92488  25.225  30.264   1.083
27229W        W92489   6.203  29.281  11.957
27230W        W92490  21.211  35.014   1.623
27231W        W92491  32.428  29.050   0.384
27232W        W92492  29.151  28.557   3.159
27233W        W92493  20.273  19.049  11.849
27234W        W92494  12.283  26.000   4.239
27235W        W92495   2.428  37.866  13.255
27236W        W92496  24.033   5.595  11.586
27237W        W92497  11.987   4.848  11.562
27238W        W92498  44.740  25.640   3.370
27239W        W92499  29.725  31.495  13.547
27240W        W92500  31.764   5.683  12.362
27241W        W92501  26.827  14.948   5.146
27242W        W92502  14.539  11.800  12.685
27243W        W92503  10.380   1.253  13.559
27244W        W92504  16.572  24.032  12.875
27245W        W92505   0.409   2.349  13.770
27246W        W92506  25.078  22.288   4.333
27247W        W92507  12.098  34.442   3.834
27248W        W92508  44.875  16.290   4.585
27249W        W92509  34.533  28.024  13.351
27250W        W92510  22.982  44.091  10.703
27251W        W92511  37.273   1.701   2.715
27252W        W92512  27.258  30.203  11.665
27253W        W92513  33.206  18.866   3.371
27254W        W92514   4.682  23.697  11.644
27255W        W92515   0.712  31.613   2.305
27256W        W92516  32.469   2.166  13.512
27257W        W92517  18.708  12.241   3.295
27258W        W92518   6.125  30.844  14.783
27259W        W92519  24.215   8.029  10.391
27260W        W92520  26.180  30.209  13.565
27261W        W92521  19.258  25.183  13.872
27262W        W92522   2.400  16.037   2.247
27263W        W92523  37.913   9.759   0.891
27264W        W92524  24.663  17.323   3.211
27265W        W92525  32.322  13.849   1.850
27266W        W92526  19.704  26.854   1.255
27267W        W92527  10.008  13.139   2.640
27268W        W92528  34.042  12.150  10.384
27269W        W92529  15.080  12.635  12.373
27270W        W92530   4.630   0.328   2.369
27271W        W92531  20.575  39.578  10.706
27272W        W92532  39.483   0.551  12.571
27273W        W92533   7.003  31.607   0.912
27274W        W92534  15.648   2.816  11.255
27275W        W92535  39.817  22.558  12.100
27276W        W92536  18.511  25.463  14.037
27277W        W92537   6.501  25.486  13.470
27278W        W92538  24.065  31.033  12.559
27279W        W92539  17.259  43.271   3.809
27280W        W92540  21.657  29.493   0.004
27281W        W92541  14.841  37.063  14.917
27282W        W92542  13.638  26.615   1.180
27283W        W92543  23.094   3.353   3.114
27284W        W92544  32.459  10.341   3.335
27285W        W92545  44.926  39.770   2.157
27286W        W92546   0.253  16.832   3.205
27287W        W92547  39.628  44.446   4.578
27288W        W92548  43.803  35.942  12.198
27289W        W92549  14.084  13.077  11.033
27290W        W92550   3.075  26.143   0.297
27291W        W92551  14.854   5.925  12.460
27292W        W92552  38.350   1.354   2.266
27293W        W92553  12.352  27.749  11.836
27294W        W92554  27.975  39.817  11.525
27295W        W92555   7.779  19.672   3.878
27296W        W92556  22.152  31.624  13.445
27297W        W92557   1.664   1.899   4.520
27298W        W92558  11.949   6.270  10.541
27299W        W92559   9.327  33.651  11.843
27300W        W92560  11.671  20.988   3.237
27301W        W92561  11.827  30.663   3.196
27302W        W92562   2.823  17.001   1.718
27303W        W92563   1.191  20.521  13.220
27304W        W92564  14.067  12.104  13.895
27305W        W92565  38.561  26.516   4.928
27306W        W92566  17.041  43.874  13.049
27307W        W92567  26.578  32.482   3.637
27308W        W92568  29.958  13.344   1.888
27309W        W92569  43.652   5.795  13.786
27310W        W92570  42.429  22.212  11.817
27311W        W92571  23.160  11.653   4.778
27312W        W92572  14.589  24.938   2.702
27313W        W92573  44.077  44.547   1.449
27314W        W92574  33.161  43.936  11.220
27315W        W92575   9.444  28.356  11.546
27316W        W92576  39.794  32.881  12.602
27317W        W92577  19.551  18.647   2.792
27318W        W92578  21.964  12.882   3.247
27319W        W92579   5.706  32.503   0.688
27320W        W92580   5.850  27.222  10.284
27321W        W92581  34.422  33.247   1.797
27322W        W92582  17.631  24.498  14.264
27323W        W92583  41.574  25.133  13.724
27324W        W92584   1.541  10.129   3.214
27325W        W92585  26.742  10.825   3.611
27326W        W92586   6.869  38.936   2.320
27327W        W92587  24.721  12.419  14.736
27328W        W92588  30.066  44.974  14.978
27329W        W92589  35.292  23.322  12.218
27330W        W92590  19.744   1.299  11.091
27331W        W92591  11.337  16.097   4.094
27332W        W92592  18.641  16.703  13.759
27333W        W92593   8.936   2.378  10.565
27334W        W92594  39.117  41.141   2.098
27335W        W92595   8.534   3.016   2.845
27336W        W92596  24.260  11.290   2.757
27337W        W92597  41.499  15.811  12.027
27338W        W92598  15.230   1.004  11.900
27339W        W92599  30.817  42.233  14.120
27340W        W92600  29.689  42.408   0.656
27341W        W92601  29.004  26.539   0.338
27342W        W92602   3.323   1.999   1.672
27343W        W92603  43.840  36.415  11.034
27344W        W92604   1.219   2.713  13.010
27345W        W92605   0.706  13.867  11.476
27346W        W92606  19.767  30.125   1.008
27347W        W92607  36.557  40.921   3.281
27348W        W92608  11.262  43.667  14.455
27349W        W92609  14.676   5.644   0.125
27350W        W92610  16.019   5.938   4.204
27351W        W92611  33.603  13.352  14.099
27352W        W92612  40.257  24.591   1.822
27353W        W92613  44.815  43.003  10.984
27354W        W92614  20.759   7.706  10.659
27355W        W92615  20.698  40.998   3.863
27356W        W92616  35.585  29.346   1.918
27357W        W92617  14.515  39.327   0.792
27358W        W92618  42.563  40.557  10.897
27359W        W92619  15.814  18.800  12.527
27360W        W92620  22.073  40.840  13.413
27361W        W92621  36.924  31.628   0.029
27362W        W92622  13.963  23.867   5.246
27363W        W92623  17.562  36.443   3.369
27364W        W92624  32.270  17.555  14.603
27365W        W92625  13.742  40.293  10.520
27366W        W92626  35.569  24.082   4.905
27367W        W92627  13.988  15.853  13.478
27368W        W92628  23.162   0.427   4.152
27369W        W92629  16.301   6.338   0.756
27370W        W92630  15.690  18.659   4.091
27371W        W92631   9.739  43.762   0.760
27372W        W92632  24.476  16.648   0.505
27373W        W92633   6.263  34.416  10.670
27374W        W92634  22.516  20.620  13.739
27375W        W92635  15.064   3.741   4.566
27376W        W92636  29.749  44.482   2.002
27377W        W92637  14.763  18.038  12.393
27378W        W92638  44.349   4.984  13.457
27379W        W92639  44.286   1.379   1.361
27380W        W92640  43.283  44.699   1.207
27381W        W92641  10.679  43.385  10.704
27382W        W92642  17.041  24.258  11.428
27383W        W92643   7.809  31.005   3.211
27384W        W92644  28.049  38.096   3.162
27385W        W92645  40.232   7.239  12.560
27386W        W92646  42.115  34.546   4.968
27387W        W92647   7.973  11.861  13.862
27388W        W92648   8.623  24.876   2.369
27389W        W92649  27.229   9.212   3.827
27390W        W92650  32.003  21.960   4.255
27391W        W92651  14.819  21.268   4.046
27392W        W92652  44.523  32.914   4.791
27393W        W92653   4.452  20.254  12.264
27394W        W92654  17.376   9.759   3.615
27395W        W92655  25.054  41.006  11.553
27396W        W92656  33.121  18.189   4.553
27397W        W92657  34.454   4.094   1.207
27398W        W92658  15.629  10.860  12.418
27399W        W92659  19.563   2.159  11.639
27400W        W92660  17.606  18.806  10.698
27401W        W92661  26.071  44.655   1.409
27402W        W92662  36.571  40.839  14.866
27403W        W92663  10.260   7.727   2.081
27404W        W92664   6.930  15.762   2.318
27405W        W92665  35.562  43.422   4.305
27406W        W92666  13.653   1.232   4.502
27407W        W92667  11.137  43.130   1.822
27408W        W92668  37.852  20.220  10.710
27409W        W92669  15.278  29.224   4.204
27410W        W92670   8.369   9.387   9.766
27411W        W92671  37.915  40.897   2.586
27412W        W92672   5.675  17.079  13.166
27413W        W92673   5.803   4.946  12.034
27414W        W92674  17.535  40.986   4.399
27415W        W92675  29.079  15.494  12.849
27416W        W92676  35.955  25.262   3.682
27417W        W92677  43.485  39.947  10.047
27418W        W92678  12.821  38.003   2.270
27419W        W92679  18.198  38.027   4.750
27420W        W92680  21.684  31.689   2.217
27421W        W92681  20.828  44.797  12.983
27422W        W92682   0.525   0.048  14.663
27423W        W92683  18.565  13.798   1.678
27424W        W92684  14.788  39.882   4.010
27425W        W92685   8.914  38.874   1.223
27426W        W92686  37.867  34.078  14.006
27427W        W92687   6.436  33.423   4.996
27428W        W92688   1.660   6.295  14.450
27429W        W92689  44.509   5.870   1.824
27430W        W92690  36.421  23.349   1.739
27431W        W92691   2.870  37.053  10.465
27432W        W92692  41.936  16.679  14.987
27433W        W92693   5.257  19.765  13.287
27434W        W92694  35.010  29.464   4.530
27435W        W92695  40.081  31.756   3.463
27436W        W92696   7.383   1.755   0.763
27437W        W92697  38.050  11.960  11.933
27438W        W92698  34.499  23.406   4.999
27439W        W92699  32.023  24.407   4.652
27440W        W92700  29.399  36.003   3.589
27441W        W92701  22.163  13.653   0.420
27442W        W92702  21.296   8.679  14.887
27443W        W92703  43.990  20.620   0.893
27444W        W92704  44.246  32.186   3.618
27445W        W92705   8.622   5.895   3.219
27446W        W92706  36.778  28.026  12.646
27447W        W92707  26.795  27.164  11.131
27448W        W92708  33.583  36.542   2.727
27449W        W92709  33.557  44.951   0.288
27450W        W92710   7.776   9.283  12.142
27451W        W92711  21.015  20.551  10.979
27452W        W92712   6.091  38.900   4.306
27453W        W92713   2.962  14.655  14.071
27454W        W92714  40.132  35.082  14.308
27455W        W92715  41.686  37.653   2.186
27456W        W92716  21.110  36.893  14.761
27457W        W92717  36.237  30.898   0.365
27458W        W92718  13.609  13.620   4.207
27459W        W92719  44.302  43.067  10.771
27460W        W92720   4.841  17.631  12.788
27461W        W92721  21.445   0.808   4.506
27462W        W92722   4.799  29.401   0.974
27463W        W92723  14.734  28.255  13.976
27464W        W92724  17.122  29.108   2.633
27465W        W92725  19.257   6.482   2.634
27466W        W92726   9.250  22.318   0.822
27467W        W92727   9.501  18.073   1.330
27468W        W92728  34.778   2.471   3.307
27469W        W92729  20.702  26.344   3.074
27470W        W92730  15.610  25.052   0.469
27471W        W92731  30.408  26.859   0.012
27472W        W92732   5.172   3.509  14.957
27473W        W92733  33.190  34.652  10.985
27474W        W92734  16.924  16.382   9.722
27475W        W92735  39.343   8.627   3.383
27476W        W92736  19.457   7.883   2.622
27477W        W92737  31.728  24.411  13.981
27478W        W92738  22.663  19.097   0.775
27479W        W92739  12.671  23.084   3.881
27480W        W92740  20.261  28.577  14.546
27481W        W92741  34.684  20.231  13.991
27482W        W92742  16.506  37.246  12.081
27483W        W92743  33.545  30.464   1.221
27484W        W92744  38.298  26.663   2.373
27485W        W92745  34.526  40.574  11.811
27486W        W92746   8.376  43.925   3.238
27487W        W92747  33.738   6.752   0.046
27488W        W92748  28.024   8.932   1.087
27489W        W92749  16.526  44.299  13.450
27490W        W92750   3.804  32.322  10.224
27491W        W92751  13.285  14.798  10.517
27492W        W92752  24.445  32.981  10.681
27493W        W92753  39.039  15.884  14.822
27494W        W92754  21.659  42.701  12.832
27495W        W92755  16.637  24.514   1.693
27496W        W92756  10.384  20.008   4.107
27497W        W92757   4.647  22.166  14.085
27498W        W92758   0.880  18.285   1.461
27499W        W92759  30.830   2.021   3.657
27500W        W92760  16.658  26.446   1.257
27501W        W92761  31.559   0.936   4.627
27502W        W92762  38.316   9.907  13.864
27503W        W92763   4.967  37.441   1.762
27504W        W92764  32.851   7.778  12.865
27505W        W92765   0.291  29.175   0.492
27506W        W92766   7.629  32.788  11.678
27507W        W92767  30.894   6.868  12.495
27508W        W92768  21.247  32.891  13.812
27509W        W92769   0.742  40.831   2.321
27510W        W92770   9.717  43.020  13.080
27511W        W92771   2.845  18.182  11.278
27512W        W92772  43.868  14.100   9.785
27513W        W92773  18.684  22.574   5.078
27514W        W92774  19.195  14.819  14.469
27515W        W92775   3.322   8.801  12.532
27516W        W92776  11.529  35.823  11.884
27517W        W92777  10.596  42.002  13.451
27518W        W92778   2.152  19.373   0.751
27519W        W92779   0.482  25.942  13.376
27520W        W92780  14.647  12.088   1.693
27521W        W92781  25.713   3.292  14.950
27522W        W92782  26.779  17.761  10.142
27523W        W92783  20.646  35.892  13.447
27524W        W92784   3.478  22.745   3.114
27525W        W92785   9.966  24.881  11.494
27526W        W92786  26.363  40.836   0.514
27527W        W92787  26.462  27.411   0.232
27528W        W92788  19.120  40.324   4.504
27529W        W92789  25.913   8.124  11.124
27530W        W92790  37.134  24.176   0.421
27531W        W92791  13.911  43.784   2.721
27532W        W92792  15.437  10.678   3.210
27533W        W92793   2.173  29.164  11.238
27534W        W92794   9.486  25.879   1.319
27535W        W92795  31.326  30.714   2.501
27536W        W92796  33.847  31.620   0.062
27537W        W92797  10.589  41.374   1.759
27538W        W92798  17.882  14.956   2.419
27539W        W92799  42.886  13.786   4.611
27540W        W92800  27.047  33.387   0.825
27541W        W92801  16.885  35.383  12.147
27542W        W92802  40.934  10.580  11.244
27543W        W92803  19.574  34.896   0.723
27544W        W92804  23.228  29.164  11.622
27545W        W92805  10.807  42.673   0.414
27546W        W92806  34.092   0.872  11.636
27547W        W92807  17.854  13.604   3.225
27548W        W92808   0.317  17.433  11.778
27549W        W92809  17.551  36.572   1.941
27550W        W92810  15.151   7.581  11.472
27551W        W92811  44.609  42.375  12.939
27552W        W92812  43.530   2.994   4.609
27553W        W92813   3.002  11.215   0.746
27554W        W92814  44.552   9.881   3.782
27555W        W92815  36.895  25.986  13.729
27556W        W92816  31.478  43.366  13.918
27557W        W92817  12.778  19.067  12.400
27558W        W92818   7.476  41.533  11.659
27559W        W92819  20.551  13.934  11.525
27560W        W92820  11.866  27.907   0.025
27561W        W92821   6.277   7.284   0.792
27562W        W92822  26.486  41.692   2.762
27563W        W92823  32.334  12.878   1.667
27564W        W92824   8.178   3.652   4.588
27565W        W92825  43.752  22.672   2.323
27566W        W92826  10.397  40.923  13.144
27567W        W92827   5.833  18.745  10.906
27568W        W92828  35.624  21.107  10.414
27569W        W92829  34.373  18.977  14.399
27570W        W92830  19.829  13.756   4.411
27571W        W92831  26.716  40.775   4.752
27572W        W92832  42.933   9.333  11.983
27573W        W92833  32.182  18.845   2.604
27574W        W92834  27.437  24.277  14.743
27575W        W92835   2.723  29.083   2.862
27576W        W92836  32.524  36.087   2.606
27577W        W92837  34.811  12.214   1.337
27578W        W92838  35.774  42.885   1.412
27579W        W92839  22.810   8.240  11.119
27580W        W92840   8.182  19.175   0.463
27581W        W92841  25.009  25.394  11.925
27582W        W92842   1.737   7.929   2.466
27583W        W92843  26.010  19.735  14.666
27584W        W92844  12.404   2.798   0.781
27585W        W92845  23.737  41.880  14.071
27586W        W92846  31.639  44.448   2.320
27587W        W92847  28.323  40.070  10.278
27588W        W92848  17.193  18.382   1.789
27589W        W92849  40.403  29.674   0.392
27590W        W92850  33.021   5.622  11.505
27591W        W92851  40.957  29.510   1.388
27592W        W92852  15.130   7.382  13.123
27593W        W92853   4.405  43.927   3.282
27594W        W92854  19.807  12.188  10.543
27595W        W92855  21.597  22.800  11.487
27596W        W92856  31.603  30.158   3.253
27597W        W92857  33.532  27.436  13.329
27598W        W92858  16.810   7.973  14.013
27599W        W92859   9.006  43.792  12.133
27600W        W92860  38.624  39.585   1.728
27601W        W92861  22.561  20.261   0.440
27602W        W92862   8.429  15.932  14.534
27603W        W92863  44.292   3.194  14.892
27604W        W92864  21.756  16.527   3.399
27605W        W92865   5.281   6.275  13.805
27606W        W92866  37.583   8.746  13.532
27607W        W92867  11.749  14.395  11.892
27608W        W92868  25.872   8.201   2.759
27609W        W92869   0.355   7.055  12.854
27610W        W92870  25.989  10.423   4.830
27611W        W92871   3.304   7.739  12.854
27612W        W92872  25.239  18.475   2.689
27613W        W92873  37.984  30.653   1.410
27614W        W92874  38.220  37.647   2.900
27615W        W92875  19.318  44.393   1.199
27616W        W92876  19.620  19.789   1.260
27617W        W92877   5.492   2.976  12.496
27618W        W92878  24.732  25.662  10.677
27619W        W92879  44.513  21.133   3.313
27620W        W92880  25.432   6.834  13.565
27621W        W92881  26.920  44.242  12.432
27622W        W92882   0.543  19.667  13.140
27623W        W92883   3.192  14.221  12.340
27624W        W92884  43.958  36.665  12.616
27625W        W92885   7.485  14.865  10.548
27626W        W92886  32.984  29.630   3.280
27627W        W92887  37.857  10.229  13.882
27628W        W92888   2.440  28.938   3.976
27629W        W92889  11.535   1.492   1.156
27630W        W92890   0.719  35.065   1.892
27631W        W92891   5.216  44.305   3.263
27632W        W92892  27.034   3.018   1.791
27633W        W92893  22.204   5.414  13.612
27634W        W92894  43.947  13.242  13.527
27635W        W92895  19.532  18.576  11.961
27636W        W92896  36.644  24.118   1.338
27637W        W92897  14.678  35.279  11.598
27638W        W92898  29.243   0.503   2.753
27639W        W92899  29.979   8.877   1.396
27640W        W92900  15.305  21.554  11.595
27641W        W92901  44.261  14.455  14.799
27642W        W92902   5.321  12.849   4.228
27643W        W92903  30.876  14.286   4.671
27644W        W92904  18.764  37.442   4.077
27645W        W92905  25.681   3.304   4.633
27646W        W92906  14.851  13.809   0.331
27647W        W92907  30.642  21.509  11.089
27648W        W92908  17.801  28.137  13.972
27649W        W92909   7.839   7.195  13.790
27650W        W92910   8.779   6.776  12.420
27651W        W92911  21.712   1.912  12.723
27652W        W92912  15.501   1.761  10.298
27653W        W92913  20.824  32.474  13.196
27654W        W92914  35.507   0.456  14.039
27655W        W92915  34.067   7.592   4.134
27656W        W92916   7.420  43.989  13.284
27657W        W92917   8.678  32.645   2.168
27658W        W92918  37.453   2.972   2.356
27659W        W92919   1.860  28.610   0.375
27660W        W92920  33.950   5.402  12.977
27661W        W92921  28.110  12.552  14.984
27662W        W92922  10.339  17.101   3.877
27663W        W92923   0.911  34.869   4.586
27664W        W92924   6.212  28.760  11.852
27665W        W92925   1.417  19.399  14.813
27666W        W92926  28.905  14.444   0.451
27667W        W92927  32.061  33.156  11.218
27668W        W92928   2.197  32.356  14.932
27669W        W92929  32.100  28.581  11.419
27670W        W92930  10.854   7.949   2.663
27671W        W92931  34.735  39.346  13.595
27672W        W92932   0.191  41.561   2.344
27673W        W92933  22.486  19.294   4.759
27674W        W92934  11.020  38.068  12.422
27675W        W92935   3.884  18.504   4.763
27676W        W92936  38.437  21.192  13.788
27677W        W92937   4.361   0.166  13.570
27678W        W92938   1.302  43.930   2.380
27679W        W92939  23.328  13.060   0.963
27680W        W92940  16.661  29.697  12.367
27681W        W92941  25.710   5.722  13.441
27682W        W92942   4.313   8.896   0.440
27683W        W92943  29.099  32.632   0.490
27684W        W92944  31.022  31.633  11.300
27685W        W92945  14.909  23.506  12.475
27686W        W92946  13.947  14.092  13.901
27687W        W92947  36.358  36.933   0.944
27688W        W92948  41.800   4.299   4.741
27689W        W92949  21.615  40.016   4.975
27690W        W92950  22.793  29.151   1.264
27691W        W92951  30.821  15.326   1.469
27692W        W92952  10.450  43.417  12.592
27693W        W92953   0.213  38.430  10.676
27694W        W92954  17.777  37.801  14.080
27695W        W92955  41.501  15.998  13.786
27696W        W92956  18.765  42.724   4.784
27697W        W92957   4.128  34.044  14.700
27698W        W92958  33.490   7.629  14.097
27699W        W92959   5.386  27.755   0.458
27700W        W92960  39.235  28.583   0.678
27701W        W92961  17.665  12.148   0.219
27702W        W92962  20.218  44.006  13.751
27703W        W92963  13.076  25.410   4.150
27704W        W92964  40.722  40.976   4.726
27705W        W92965  33.929  12.287   3.326
27706W        W92966  20.924  36.454  11.637
27707W        W92967   5.225  31.683  14.270
27708W        W92968  13.547  26.694  14.646
27709W        W92969  41.848  26.023   2.123
27710W        W92970  44.349   3.781   4.113
27711W        W92971  25.640  12.684  10.774
27712W        W92972   4.844   2.855   0.279
27713W        W92973  15.346   5.449   1.410
27714W        W92974  15.206  30.624  13.816
27715W        W92975  23.599   3.963   3.211
27716W        W92976  27.974   6.963   2.782
27717W        W92977  27.060  41.515  14.038
27718W        W92978  43.771  26.887  10.675
27719W        W92979  37.885  40.410   3.362
27720W        W92980  38.306  42.881   5.159
27721W        W92981   7.261  31.039   4.571
27722W        W92982  15.675  42.734   1.326
27723W        W92983  42.756  15.489  14.925
27724W        W92984  21.486  39.302  13.973
27725W        W92985  15.943  14.951  12.492
27726W        W92986  10.773   6.306   5.330
27727W        W92987  30.038  27.776   0.881
27728W        W92988   4.605   8.841   4.550
27729W        W92989  37.944  27.701   1.116
27730W        W92990   4.980   4.488   4.411
27731W        W92991  19.216  31.882   0.501
27732W        W92992  17.688  40.945  13.527
27733W        W92993   0.000   4.997  12.816
27734W        W92994   3.766  35.216   1.420
27735W        W92995  30.502  40.105  12.928
27736W        W92996  34.427  17.778  14.897
27737W        W92997  29.336  31.446   3.126
27738W        W92998  32.855   5.255  12.368
27739W        W92999  30.554  18.153   1.193
27740W        W93000  37.682  10.259   1.199
27741W        W93001  38.918  23.056   3.666
27742W        W93002  29.101  40.966   0.777
27743W        W93003   2.262   3.151   1.751
27744W        W93004  20.797  15.293   9.986
27745W        W93005  16.403  28.876  12.712
27746W        W93006  43.284   4.594   0.864
27747W        W93007   2.263  31.643   0.456
27748W        W93008  26.199  21.044  11.216
27749W        W93009   2.454  12.372   2.621
27750W        W93010   0.332  15.616  13.393
27751W        W93011  18.390  26.725   1.321
27752W        W93012  12.260  42.947  13.965
27753W        W93013  33.329  42.397   3.487
27754W        W93014  44.897  25.582   2.892
27755W        W93015   1.775  22.234  14.957
27756W        W93016   2.819  22.590   0.533
27757W        W93017  21.199  10.357   0.494
27758W        W93018  18.994  26.022  13.395
27759W        W93019  40.522  22.073   3.608
27760W        W93020  15.967  42.881   0.922
27761W        W93021   0.238  28.492  14.000
27762W        W93022  27.422  38.871  12.492
27763W        W93023  11.809  42.778   3.176
27764W        W93024  13.355  16.045   4.395
27765W        W93025  37.256   1.449   4.381
27766W        W93026  12.299  27.678   1.885
27767W        W93027  13.316  13.579  14.477
27768W        W93028  22.722   2.178  10.721
27769W        W93029  14.996  39.521   0.799
27770W        W93030  35.977  42.130  14.876
27771W        W93031  25.010  39.559  12.913
27772W        W93032   0.431  17.788  12.117
27773W        W93033   6.127  18.117   3.326
27774W        W93034  24.474  44.159  10.671
27775W        W93035  18.221  14.600   2.296
27776W        W93036  14.318   6.653   0.862
27777W        W93037  42.318  17.841   3.990
27778W        W93038   9.591   3.502   4.597
27779W        W93039  43.438  16.371  11.052
27780W        W93040  28.023  27.285  12.456
27781W        W93041  28.711  10.183   4.601
27782W        W93042  36.726  34.588   3.113
27783W        W93043  21.518   8.439  10.734
27784W        W93044  18.741  31.940  14.107
27785W        W93045  22.609  23.000  13.913
27786W        W93046  22.753  44.225  11.657
27787W        W93047  18.187  21.425  12.083
27788W        W93048  25.121  28.974  12.646
27789W        W93049   5.719  27.252   4.452
27790W        W93050  36.391  19.337  10.897
27791W        W93051  24.117  19.033   3.252
27792W        W93052   1.038  40.263  11.103
27793W        W93053  22.215  18.621  11.603
27794W        W93054  29.164  36.743  13.071
27795W        W93055  42.375  30.054  12.506
27796W        W93056  40.411   1.905   1.409
27797W        W93057  39.293  26.016  14.984
27798W        W93058  28.800  13.571   1.796
27799W        W93059  31.803   1.563  14.801
27800W        W93060  22.729  40.386  13.818
27801W        W93061  40.320  11.886   5.432
27802W        W93062   9.058  44.644  12.395
27803W        W93063  15.852  44.371   1.843
27804W        W93064  15.660  29.887  12.019
27805W        W93065  23.274  29.530   2.135
27806W        W93066  29.451   0.252  11.236
27807W        W93067  41.305  29.905  14.265
27808W        W93068   6.464  31.973   4.592
27809W        W93069  33.872  16.238   4.337
27810W        W93070  42.370   1.874  11.840
27811W        W93071  31.399  24.965  13.390
27812W        W93072  10.159   8.836  11.919
27813W        W93073  28.406   2.230   2.220
27814W        W93074  36.137   3.972   2.045
27815W        W93075  28.046  15.681   1.978
27816W        W93076  35.155  33.020  13.610
27817W        W93077   3.010  15.241   1.393
27818W        W93078  14.276   0.228   0.845
27819W        W93079  31.591  24.942  14.197
27820W        W93080  40.647   7.207  10.412
27821W        W93081  39.340  42.228  12.343
27822W        W93082  14.183  44.742  13.391
27823W        W93083  20.548  24.283   3.735
27824W        W93084  22.432  25.195   3.957
27825W        W93085  15.149   4.257  12.072
27826W        W93086  43.379  10.730   2.264
27827W        W93087  42.050  10.205  14.824
27828W        W93088  16.729   8.564   4.681
27829W        W93089  42.815  42.232   4.794
27830W        W93090  19.427  23.995  14.481
27831W        W93091  29.078  43.203  10.738
27832W        W93092   0.406   3.995   1.328
27833W        W93093  14.550  30.610   4.142
27834W        W93094  38.193  24.720   3.489
27835W        W93095  10.721  13.593   4.635
27836W        W93096  17.159   0.878   0.500
27837W        W93097  31.687  35.894   4.508
27838W        W93098  10.262   3.037   3.325
27839W        W93099  34.985  19.733   0.452
27840W        W93100   8.358  24.253  10.686
27841W        W93101  30.352  24.878   3.587
27842W        W93102  37.317   6.333   3.747
27843W        W93103  17.974  25.372  14.769
27844W        W93104  22.952  28.552  14.132
27845W        W93105  44.442  34.993   3.881
27846W        W93106   4.803  34.370   3.225
27847W        W93107  35.937   7.789  13.388
27848W        W93108  44.947   7.653  12.575
27849W        W93109  13.049  37.076   0.381
27850W        W93110  39.274  27.453   2.360
27851W        W93111  42.068  35.832   4.247
27852W        W93112   3.818  16.567  13.501
27853W        W93113  18.766  25.663   3.845
27854W        W93114  18.933  36.094  12.381
27855W        W93115   7.409   0.748   1.747
27856W        W93116  13.998   6.172  13.516
27857W        W93117  37.413   4.956   1.462
27858W        W93118  20.031  14.139   2.416
27859W        W93119  25.264  24.214  14.021
27860W        W93120  34.927  25.082   5.090
27861W        W93121  44.974  17.270   3.122
27862W        W93122  30.933  30.008  12.066
27863W        W93123  17.623  16.702  12.085
27864W        W93124  37.567  20.872  11.187
27865W        W93125   9.395  28.119   4.000
27866W        W93126  43.684  17.778  11.141
27867W        W93127  35.335   2.302   0.036
27868W        W93128  31.131  32.124   4.784
27869W        W93129  21.270  23.320  13.829
27870W        W93130  26.700  18.652   1.309
27871W        W93131  33.013  27.624   3.259
27872W        W93132   2.385  35.559  12.388
27873W        W93133  13.367  14.319  13.304
27874W        W93134  43.103  34.198  14.672
27875W        W93135  36.062  34.023  12.472
27876W        W93136  41.387  39.145   4.590
27877W        W93137  32.621  15.781  11.583
27878W        W93138  14.593  34.168   2.565
27879W        W93139  10.135  15.257   1.817
27880W        W93140  37.063   1.228  13.519
27881W        W93141  22.262  43.823   4.169
27882W        W93142  25.606  14.283  11.384
27883W        W93143   5.906  15.079  12.910
27884W        W93144  42.903   8.313  14.046
27885W        W93145  15.207   7.205   0.922
27886W        W93146   1.703  20.156   4.532
27887W        W93147  21.089  27.756   2.479
27888W        W93148   5.672  20.321   3.750
27889W        W93149  32.926  13.637   4.155
27890W        W93150   3.118  35.045   0.444
27891W        W93151  24.264  22.581  13.891
27892W        W93152  13.408  41.014   3.763
27893W        W93153  12.056   2.371  14.065
27894W        W93154  21.012  27.613  11.599
27895W        W93155  24.022   1.218   4.548
27896W        W93156  22.435  42.739   9.941
27897W        W93157  24.009  44.206   0.410
27898W        W93158  14.637  36.578  13.384
27899W        W93159  27.866  38.625  12.548
27900W        W93160  11.538  36.430   3.731
27901W        W93161   2.762  31.566  12.564
27902W        W93162   6.278   2.270   2.805
27903W        W93163   5.695  28.565  10.193
27904W        W93164   9.464  41.097   4.119
27905W        W93165  15.366  34.376   4.630
27906W        W93166  19.663  30.034   3.437
27907W        W93167  34.956   3.228  12.110
27908W        W93168  13.024   3.673   4.770
27909W        W93169   2.173  37.830  12.790
27910W        W93170  22.987  40.874   3.892
27911W        W93171  37.008  30.632   1.220
27912W        W93172  32.158   0.878  13.853
27913W        W93173  37.814  10.407  14.374
27914W        W93174  22.662  26.515   4.555
27915W        W93175   4.807  33.696  14.018
27916W        W93176  16.515  20.765   2.437
27917W        W93177  13.660  17.355   3.970
27918W        W93178  16.842  17.581   1.263
27919W        W93179  22.613  20.462  12.847
27920W        W93180  17.613  24.722   4.972
27921W        W93181  29.344  33.137   4.517
27922W        W93182  41.001  12.984  13.502
27923W        W93183  22.236  23.604  14.887
27924W        W93184  33.461  20.788   3.618
27925W        W93185   0.225  22.951   1.848
27926W        W93186   7.776   4.427  11.595
27927W        W93187  25.716  26.648   2.142
27928W        W93188  31.426  16.175   0.197
27929W        W93189  23.015  39.430   0.972
27930W        W93190  11.932  24.024   3.208
27931W        W93191  25.598  30.380   1.437
27932W        W93192   2.002  26.981   0.366
27933W        W93193  41.080   3.143  10.451
27934W        W93194  42.242  27.478  10.708
27935W        W93195  26.480  17.312  14.978
27936W        W93196  23.403   4.016   4.148
27937W        W93197  24.858   8.025   5.341
27938W        W93198  34.866  43.550  12.916
27939W        W93199  41.322  44.278  12.590
27940W        W93200  42.367  40.875  12.117
27941W        W93201  27.083  24.301   3.363
27942W        W93202  23.808  21.829  12.109
27943W        W93203   5.743  15.788  13.455
27944W        W93204  21.517  17.089  13.328
27945W        W93205  33.157  22.247  11.682
27946W        W93206   4.933  44.519   0.920
27947W        W93207  35.348  23.993   3.847
27948W        W93208  19.653   0.458  11.583
27949W        W93209  14.374  40.870  12.785
27950W        W93210  22.747  16.367  13.452
27951W        W93211  42.054  13.791  12.975
27952W        W93212  20.747   3.847   3.085
27953W        W93213  44.368   1.876   2.540
27954W        W93214  29.026  26.119  12.965
27955W        W93215   8.646  14.237  14.775
27956W        W93216   7.768  30.070   0.172
27957W        W93217  21.188   4.698   0.746
27958W        W93218  33.655  17.419   4.860
27959W        W93219  42.427   4.970  12.593
27960W        W93220  11.067  13.200   0.609
27961W        W93221  14.654  24.664  12.865
27962W        W93222  43.035  19.322   0.728
27963W        W93223   0.411  21.625  14.292
27964W        W93224   0.425  21.679   3.052
27965W        W93225   3.760   1.518   1.222
27966W        W93226  23.180  33.944  10.952
27967W        W93227  15.360  42.490   1.774
27968W        W93228  12.855   7.425   1.324
27969W        W93229   9.782  41.905   1.879
27970W        W93230  18.503  44.970  14.899
27971W        W93231  12.097  39.583   3.236
27972W        W93232  27.457  29.826  11.044
27973W        W93233  20.777  20.075   1.714
27974W        W93234  14.542   4.643   3.374
27975W        W93235  30.020   6.667   4.214
27976W        W93236   2.708  35.070  12.446
27977W        W93237  37.047  11.574  13.359
27978W        W93238  28.505  41.431  12.360
27979W        W93239  33.078  32.354  12.597
27980W        W93240  33.379   3.961   2.729
27981W        W93241   3.730  35.390   3.198
27982W        W93242  19.541   5.767  10.474
27983W        W93243  27.079  21.258   4.137
27984W        W93244  13.943  15.818  12.597
27985W        W93245  23.800   9.767  12.437
27986W        W93246  19.224  15.145   3.321
27987W        W93247  21.158  40.530  13.913
27988W        W93248   3.746  13.056   0.364
27989W        W93249  32.541  34.129   0.292
27990W        W93250  26.217  44.326  13.806
27991W        W93251  25.249  18.180   1.401
27992W        W93252  42.207   2.216   4.101
27993W        W93253  12.222   4.802  10.621
27994W        W93254   7.926  38.835   0.802
27995W        W93255  30.460  11.671  11.605
27996W        W93256  13.893  41.774  14.766
27997W        W93257  11.802  41.217  10.605
27998W        W93258   5.285  27.446   4.734
27999W        W93259  40.812  41.741  11.628
28000W        W93260  39.110  34.700  13.487
28001W        W93261  15.652  13.849   2.802
28002W        W93262  16.137  38.157   3.962
28003W        W93263  28.561  26.436   0.801
28004W        W93264   3.879  44.595  14.866
28005W        W93265  35.518  12.258  12.891
28006W        W93266  23.681  40.330  13.870
28007W        W93267  15.184   8.627  11.554
28008W        W93268  29.500  12.339  13.837
28009W        W93269  30.695  22.085   2.184
28010W        W93270  23.467  41.549   1.381
28011W        W93271  20.166  27.067  10.381
28012W        W93272  25.802  26.065   0.889
28013W        W93273  33.864  33.063   1.900
28014W        W93274   5.492  27.448  14.247
28015W        W93275  23.829   1.842   0.780
28016W        W93276   1.230  14.034  12.801
28017W        W93277  43.736  32.272  13.825
28018W        W93278   6.985  13.893  14.366
28019W        W93279  26.203  22.832  11.993
28020W        W93280  41.219  44.881  10.632
28021W        W93281   1.767  34.701   3.143
28022W        W93282  28.963  15.160   3.391
28023W        W93283   1.934  40.500  13.946
28024W        W93284  37.419  39.025   3.180
28025W        W93285  14.024  14.413   1.858
28026W        W93286   0.468  31.669   3.659
28027W        W93287  27.902  30.691   2.724
28028W        W93288   3.714   8.448  13.475
28029W        W93289   3.255  12.530   1.145
28030W        W93290  24.006  39.351   0.720
28031W        W93291  26.893  22.510  14.051
28032W        W93292   3.244  24.038  11.593
28033W        W93293  22.015  24.549  11.165
28034W        W93294  31.204  10.875   3.385
28035W        W93295  24.947   9.994  13.865
28036W        W93296  16.884  33.317  10.636
28037W        W93297   8.829  43.398   0.316
28038W        W93298  20.637  14.674   4.040
28039W        W93299   7.198  12.956   0.868
28040W        W93300  41.900  12.029   3.038
28041W        W93301  16.481  30.979  11.554
28042W        W93302  18.653  24.549   0.078
28043W        W93303  11.927   9.598  12.092
28044W        W93304  27.508   7.075   3.776
28045W        W93305  26.444  27.504   2.324
28046W        W93306  38.343  23.206   2.505
28047W        W93307   2.144  12.047   2.323
28048W        W93308   7.716  29.567   0.057
28049W        W93309  13.851  18.200   1.837
28050W        W93310  23.619  39.024   4.013
28051W        W93311  25.501  34.052  10.435
28052W        W93312  42.583  29.579  10.758
28053W        W93313  38.791  24.009   2.307
28054W        W93314  24.701  42.493  10.743
28055W        W93315   5.958  32.973   0.796
28056W        W93316   3.779   1.200   3.663
28057W        W93317  26.518  34.852   0.276
28058W        W93318  44.073  10.795  13.098
28059W        W93319  13.603  18.666  13.602
28060W        W93320  37.009  40.281  11.949
28061W        W93321   4.935  15.727   2.244
28062W        W93322  36.657  36.615   1.262
28063W        W93323  23.525   0.398   3.711
28064W        W93324  42.738  19.719   2.148
28065W        W93325  44.884  16.018   0.362
28066W        W93326  43.649  13.194   1.280
28067W        W93327   0.662  16.979  13.311
28068W        W93328  39.733  35.525  13.495
28069W        W93329  35.347  17.055   2.424
28070W        W93330   1.420  22.518  13.370
28071W        W93331  39.488   5.333  13.133
28072W        W93332  35.009  40.117  14.160
28073W        W93333  34.536  29.574   0.972
28074W        W93334  20.649  32.662   3.510
28075W        W93335   5.121  19.254  14.875
28076W        W93336  43.296  25.150  12.141
28077W        W93337   9.110   7.147   1.870
28078W        W93338   5.921  15.362  10.712
28079W        W93339   7.358  19.939   4.552
28080W        W93340  26.395  15.146  12.640
28081W        W93341  42.544  41.338  14.317
28082W        W93342  20.320  41.745  10.733
28083W        W93343  28.483  35.682  11.596
28084W        W93344  38.017  15.279  13.424
28085W        W93345   3.685  15.889  12.475
28086W        W93346  21.742  41.661  12.604
28087W        W93347   1.460  13.649  12.515
28088W        W93348  28.419   7.269   2.698
28089W        W93349  20.201  44.198  12.440
28090W        W93350   2.711  18.339  12.128
28091W        W93351  30.978  27.565  14.705
28092W        W93352  40.025  19.301  12.487
28093W        W93353  39.480  15.719  10.564
28094W        W93354   9.768  27.219  12.267
28095W        W93355  33.936  11.899  13.088
28096W        W93356  35.873   9.686   3.893
28097W        W93357  16.982   1.251   2.763
28098W        W93358  10.264  17.517  11.212
28099W        W93359  28.558   8.650  11.666
28100W        W93360  23.056  24.076   2.754
28101W        W93361  12.243   0.984  10.602
28102W        W93362  18.638  24.121   3.567
28103W        W93363  27.409  35.436  11.515
28104W        W93364  42.765  14.703   4.128
28105W        W93365  16.050  23.700   0.882
28106W        W93366   5.128  19.235   4.779
28107W        W93367   3.080   6.931   4.605
28108W        W93368  15.343  26.868  12.343
28109W        W93369  13.934  39.483  11.585
28110W        W93370  34.954  35.086   3.410
28111W        W93371  34.083   3.401  13.760
28112W        W93372  30.924  13.584  14.472
28113W        W93373   3.914  23.973   4.145
28114W        W93374  31.163  15.657  12.362
28115W        W93375  20.171  27.551  13.292
28116W        W93376  17.082  42.372   1.215
28117W        W93377  28.465  12.915   2.871
28118W        W93378  20.600  26.031  11.621
28119W        W93379  39.027  32.104  11.552
28120W        W93380   1.722   0.681   0.024
28121W        W93381   1.449   2.390  14.787
28122W        W93382  11.906  18.506  14.234
28123W        W93383  17.568  36.953  13.551
28124W        W93384  17.985  40.317  13.377
28125W        W93385  38.006  39.642   4.109
28126W        W93386   9.146  20.153   4.905
28127W        W93387  16.986   5.863  10.566
28128W        W93388   6.923  32.344   2.303
28129W        W93389  36.866  13.202  14.146
28130W        W93390  42.395  21.986  10.642
28131W        W93391  13.001  28.600  14.842
28132W        W93392  26.491  43.782   1.954
28133W        W93393   3.129  42.606  11.344
28134W        W93394   7.761  37.513   1.745
28135W        W93395   3.946  19.488   0.929
28136W        W93396   4.238  37.611  11.146
28137W        W93397  24.951  18.196  11.649
28138W        W93398   5.959  24.927   1.485
28139W        W93399  38.847   0.350  11.571
28140W        W93400  28.774   5.810  14.493
28141W        W93401  29.153  22.001  14.972
28142W        W93402  42.807   2.882   4.135
28143W        W93403  37.400  27.472  13.276
28144W        W93404  26.381  40.085  10.758
28145W        W93405   3.318  36.105   2.529
28146W        W93406  43.073  25.566  10.556
28147W        W93407   4.456  30.116  12.655
28148W        W93408  18.663   0.949   0.206
28149W        W93409  44.983  32.721  11.927
28150W        W93410  16.225  38.669   3.543
28151W        W93411  12.082  44.900   3.279
28152W        W93412  15.844   5.319   1.714
28153W        W93413  44.738  14.245  14.275
28154W        W93414  23.850  32.660   3.875
28155W        W93415  23.408   2.673  14.319
28156W        W93416   4.781  35.004  12.710
28157W        W93417  28.100  11.314  12.922
28158W        W93418  40.040  15.449   3.834
28159W        W93419  14.134  34.509   0.267
28160W        W93420  23.636  31.007   2.022
28161W        W93421  25.445  31.611   0.297
28162W        W93422   7.716   6.402   3.142
28163W        W93423  27.871  15.071  12.886
28164W        W93424  38.802  26.747  12.017
28165W        W93425  19.179   8.184  11.138
28166W        W93426  32.958   0.772   2.011
28167W        W93427  25.593  26.656  14.695
28168W        W93428  22.565  12.417  13.453
28169W        W93429  29.340  17.563  14.009
28170W        W93430  31.313  44.282  11.034
28171W        W93431   7.289  43.452  10.729
28172W        W93432  19.375   5.215   0.976
28173W        W93433  29.520   8.112  10.620
28174W        W93434  31.961   2.452   0.144
28175W        W93435  14.757  33.499   1.786
28176W        W93436  21.132  31.034   3.341
28177W        W93437  13.973  34.984  12.005
28178W        W93438  27.222  29.645   0.014
28179W        W93439   8.879  23.170  12.321
28180W        W93440  31.032  43.172  13.714
28181W        W93441  10.404   1.283  13.031
28182W        W93442   0.994  14.938  12.586
28183W        W93443  19.687  29.726  12.730
28184W        W93444  13.265  30.197   4.382
28185W        W93445  24.221  31.819   0.033
28186W        W93446  32.517   2.020  14.872
28187W        W93447  25.746  42.317  14.329
28188W        W93448  38.719  31.094  10.702
28189W        W93449  29.249  42.825   4.708
28190W        W93450  25.082  22.522   1.707
28191W        W93451  39.321  35.412   0.556
28192W        W93452  11.065  21.097  11.066
28193W        W93453   1.331  11.523   9.860
28194W        W93454  22.230  11.829   0.829
28195W        W93455   6.157   6.863   3.646
28196W        W93456  37.016  44.238  11.284
28197W        W93457   9.934   5.340  13.347
28198W        W93458  10.365   1.352  14.881
28199W        W93459  18.818   0.132  13.415
28200W        W93460  40.902  44.866  12.471
28201W        W93461  32.054  17.158  12.110
28202W        W93462  18.604  24.090  14.840
28203W        W93463  14.345  43.868  12.170
28204W        W93464  44.424   2.159  14.879
28205W        W93465   3.172  40.548  14.294
28206W        W93466  14.737   6.850  14.740
28207W        W93467  12.278  32.305  10.740
28208W        W93468   0.070   8.605  10.087
28209W        W93469   0.732  16.164   0.801
28210W        W93470  36.289  35.487   4.145
28211W        W93471  38.744  20.508   3.723
28212W        W93472  18.844  33.143   0.101
28213W        W93473  42.229  23.117  11.732
28214W        W93474  18.175  13.791   4.126
28215W        W93475  12.209   9.492  14.256
28216W        W93476   4.843  12.282  11.843
28217W        W93477   6.204  41.322   4.177
28218W        W93478  42.579  22.317   1.754
28219W        W93479  37.082  42.993  13.883
28220W        W93480  13.781  29.579   0.272
28221W        W93481  10.407  33.707   0.472
28222W        W93482  21.579  19.978   3.299
28223W        W93483  34.159  26.527   2.272
28224W        W93484  31.116  43.964   1.210
28225W        W93485  26.053   7.970  12.884
28226W        W93486  29.018  43.595  11.048
28227W        W93487  34.859  23.668  14.339
28228W        W93488  23.152   7.605  13.875
28229W        W93489  11.431  27.172   3.515
28230W        W93490   2.980   1.027   1.732
28231W        W93491   0.307   8.081  10.956
28232W        W93492  27.123   0.969  12.864
28233W        W93493  38.830  14.435  14.997
28234W        W93494  27.607  26.790  13.272
28235W        W93495  39.584  16.488   3.591
28236W        W93496  41.524  24.728   1.706
28237W        W93497   2.546  37.666  10.048
28238W        W93498   9.260   5.971  11.075
28239W        W93499  36.921  16.660   2.677
28240W        W93500   8.682  39.864  13.463
28241W        W93501  28.177   3.970  10.634
28242W        W93502  10.532  42.435  10.471
28243W        W93503  31.654  17.829  14.789
28244W        W93504  12.110  28.294   1.132
28245W        W93505  22.092  40.412  10.293
28246W        W93506   6.621   5.893   0.318
28247W        W93507  44.164  18.734   1.213
28248W        W93508  42.083  23.749  11.208
28249W        W93509   1.058   1.541   3.323
28250W        W93510  41.598   6.960  11.234
28251W        W93511  16.796  24.250   2.735
28252W        W93512  20.297  28.674   0.533
28253W        W93513  11.210  30.314  14.725
28254W        W93514   6.372  26.515   2.599
28255W        W93515  38.504  28.037   4.813
28256W        W93516  41.069   5.802  12.041
28257W        W93517  22.084  41.198  11.926
28258W        W93518  24.988   8.694  14.321
28259W        W93519  17.225   8.539   1.748
28260W        W93520  27.710  37.919   0.859
28261W        W93521  23.540  30.022  13.051
28262W        W93522   0.789   3.979  11.992
28263W        W93523   9.387  30.034  14.910
28264W        W93524  25.045  31.069   0.825
28265W        W93525  11.671  23.296  12.859
28266W        W93526  31.117  19.435  11.076
28267W        W93527  25.515  31.339  13.973
28268W        W93528  42.591  20.210  13.559
28269W        W93529  18.425   0.913   3.655
28270W        W93530   5.234  17.731  12.394
28271W        W93531  13.479  25.699  12.388
28272W        W93532  25.941  31.615  13.871
28273W        W93533  35.576  42.167  14.508
28274W        W93534  18.129  11.865   2.580
28275W        W93535  15.757   7.286  12.773
28276W        W93536  27.841  22.198   0.887
28277W        W93537  38.506  35.034  11.460
28278W        W93538  41.254  38.594  14.754
28279W        W93539  43.843  34.541   4.776
28280W        W93540  13.437   3.271   4.024
28281W        W93541  20.027   3.909  13.981
28282W        W93542  17.382   4.918  12.937
28283W        W93543   9.729  20.577   1.237
28284W        W93544   6.177  28.664   3.158
28285W        W93545   3.129  44.695   2.370
28286W        W93546  26.123  26.420  14.462
28287W        W93547  22.179   7.642  13.075
28288W        W93548  40.477  13.312  12.423
28289W        W93549  16.175   1.785  12.777
28290W        W93550  30.520  38.426   0.979
28291W        W93551  18.156  43.208   3.067
28292W        W93552  36.497  23.184   4.510
28293W        W93553  16.179  25.758   3.366
28294W        W93554  29.580  19.765   3.907
28295W        W93555   7.634   0.503   2.700
28296W        W93556  12.843   4.304  14.377
28297W        W93557  12.656   6.049   3.865
28298W        W93558   1.454  25.458   3.640
28299W        W93559   4.849   1.508   0.930
28300W        W93560  40.125   1.443   4.266
28301W        W93561  17.540   6.904  13.040
28302W        W93562   4.812  13.591  12.859
28303W        W93563  24.799   4.898  14.383
28304W        W93564  12.325  30.588   4.572
28305W        W93565  11.159  28.145   3.708
28306W        W93566  17.644  16.645  11.162
28307W        W93567  36.027  43.780   5.118
28308W        W93568  21.253  25.426   2.412
28309W        W93569   7.687   1.253   4.586
28310W        W93570  36.959  15.038  12.176
28311W        W93571  27.657  31.564  13.520
28312W        W93572   3.461  41.350  13.345
28313W        W93573  25.990   2.331   4.885
28314W        W93574  41.884  11.159  11.000
28315W        W93575  32.695  19.143  10.769
28316W        W93576  27.513  20.089   0.960
28317W        W93577  31.543   2.488   0.699
28318W        W93578  22.844  25.209  13.949
28319W        W93579   6.381   8.703  11.200
28320W        W93580   3.297   9.094  13.929
28321W        W93581  28.912  27.042  14.427
28322W        W93582  10.708  30.049  12.112
28323W        W93583  13.791  35.321  11.101
28324W        W93584  10.634  21.203  10.691
28325W        W93585   7.146  25.565   1.415
28326W        W93586  32.518  34.600  12.990
28327W        W93587   4.026  19.657  13.889
28328W        W93588   8.039   9.341  10.165
28329W        W93589  44.768  33.951   0.729
28330W        W93590  16.643  28.568   2.063
28331W        W93591   4.346   7.447   0.585
28332W        W93592  29.462   9.777   0.507
28333W        W93593   8.965  14.591  12.103
28334W        W93594  43.572   0.990   1.899
28335W        W93595  42.594  13.698  14.836
28336W        W93596  27.597  41.110  12.052
28337W        W93597   9.449  18.150   3.985
28338W        W93598  40.280  16.661  11.987
28339W        W93599  41.257  41.202   2.429
28340W        W93600   3.895   0.317   1.644
28341W        W93601  26.787  36.057  11.413
28342W        W93602  12.772   1.849  13.832
28343W        W93603  44.001  39.916  13.804
28344W        W93604  38.475  29.120   0.718
28345W        W93605  44.223  12.170   3.215
28346W        W93606  20.960   1.549   1.269
28347W        W93607  25.216  20.266   3.408
28348W        W93608  17.158  39.921  14.718
28349W        W93609  28.044  38.850  14.766
28350W        W93610   4.205  19.961   3.979
28351W        W93611  38.279  25.220   0.219
28352W        W93612  26.218  32.631   4.191
28353W        W93613   3.354   2.345   1.284
28354W        W93614  31.102   9.023   4.949
28355W        W93615   8.246  42.473   3.432
28356W        W93616   3.812  26.985  12.882
28357W        W93617  18.909  16.629   0.755
28358W        W93618  23.721  37.921   1.839
28359W        W93619  14.236  18.684  10.305
28360W        W93620  25.033  16.242  10.163
28361W        W93621  36.649   4.956  10.796
28362W        W93622  32.618  17.288  11.882
28363W        W93623  37.496  42.289   3.130
28364W        W93624  37.127  14.177   0.836
28365W        W93625   1.176  28.862  14.750
28366W        W93626   0.711   3.085   4.481
28367W        W93627   6.991   3.156  11.919
28368W        W93628   3.839  34.426   3.214
28369W        W93629   0.951  12.197  12.991
28370W        W93630  12.681  26.343   5.452
28371W        W93631  23.940  23.598  12.263
28372W        W93632  21.624  39.592  13.173
28373W        W93633   2.436  14.721   0.860
28374W        W93634  29.364  18.374  10.339
28375W        W93635  24.960  24.309   1.868
28376W        W93636  14.033   0.693  14.370
28377W        W93637  41.339  44.981   1.855
28378W        W93638  15.212  11.555   4.248
28379W        W93639  43.262  26.462   4.135
28380W        W93640  32.067  22.210  11.649
28381W        W93641  42.750  26.675   1.696
28382W        W93642  30.189  37.459   5.064
28383W        W93643  23.974  11.137   1.726
28384W        W93644   8.093  42.469   3.925
28385W        W93645  27.767  22.634   4.602
28386W        W93646  36.855  42.439   1.800
28387W        W93647  22.698  22.078  11.696
28388W        W93648   7.756  41.000   3.274
28389W        W93649  43.735  32.590  10.671
28390W        W93650  10.778   7.798  13.590
28391W        W93651  37.305  19.654   1.777
28392W        W93652  31.315  23.076  12.260
28393W        W93653  27.978  15.795  14.348
28394W        W93654  42.249  15.261   4.113
28395W        W93655  35.916  41.854   4.635
28396W        W93656  32.115  35.865   3.776
28397W        W93657  27.665  34.933  14.757
28398W        W93658  26.190  32.836   3.706
28399W        W93659   8.304  42.640   2.394
28400W        W93660  39.833  23.040   1.452
28401W        W93661  15.305  23.138  10.143
28402W        W93662   1.684  18.702   3.268
28403W        W93663   3.945  15.558  10.336
28404W        W93664   5.296  37.600   4.924
28405W        W93665  13.737  36.390  11.899
28406W        W93666  20.897  13.373  12.523
28407W        W93667  40.288  27.600  12.903
28408W        W93668  25.544   2.192   2.759
28409W        W93669  39.896   8.135  11.889
28410W        W93670  12.937  33.805  14.784
28411W        W93671  35.310  34.615   4.316
28412W        W93672  34.641  30.708   4.057
28413W        W93673   1.013  23.426   2.203
28414W        W93674  22.524  29.204   0.819
28415W        W93675   9.607  32.560   1.117
28416W        W93676  34.370  33.263  13.834
28417W        W93677  43.234  24.316   3.986
28418W        W93678  34.874   5.162   1.893
28419W        W93679  35.600  41.051   0.896
28420W        W93680  15.584  10.194  11.123
28421W        W93681  43.795  18.139  13.118
28422W        W93682  34.545  15.034  12.469
28423W        W93683  39.859  29.606   4.410
28424W        W93684   7.982  25.644  13.544
28425W        W93685  28.592   4.532  12.047
28426W        W93686  40.818  36.083  11.641
28427W        W93687  18.759   4.402  10.680
28428W        W93688  41.978  37.645   1.771
28429W        W93689  35.148   4.966   5.083
28430W        W93690  35.074   8.911  11.148
28431W        W93691   8.719   9.772   0.954
28432W        W93692  20.567  39.447  12.468
28433W        W93693  18.111  44.910  13.968
28434W        W93694  14.606  38.564  11.621
28435W        W93695   3.220  28.195  14.482
28436W        W93696   3.032  25.991  11.734
28437W        W93697  33.871  44.539  13.904
28438W        W93698  40.552  10.341   2.420
28439W        W93699  34.660  17.675   4.876
28440W        W93700   9.673  42.586  14.367
28441W        W93701  41.522  31.999   3.254
28442W        W93702  16.972  30.621  14.456
28443W        W93703  43.005  35.555   4.562
28444W        W93704  38.315  43.896   0.882
28445W        W93705  28.381   2.451  13.061
28446W        W93706   4.146  11.798   4.356
28447W        W93707  24.655  10.826   1.824
28448W        W93708  40.105  24.955   0.099
28449W        W93709  14.133  39.289   1.218
28450W        W93710  36.178  17.247  10.618
28451W        W93711   5.373  40.647   2.372
28452W        W93712   3.012  30.112  13.816
28453W        W93713  40.828   0.024  10.093
28454W        W93714  11.115  31.959  11.038
28455W        W93715  17.955  10.762   2.695
28456W        W93716  29.642   2.849  13.212
28457W        W93717  14.777   7.309   1.821
28458W        W93718  17.872  12.281  11.935
28459W        W93719   9.232  10.775   1.244
28460W        W93720  18.198  25.753   3.651
28461W        W93721   8.834   1.043  12.450
28462W        W93722  22.665  23.642   0.917
28463W        W93723  43.615  25.098   1.109
28464W        W93724  24.515  26.994   0.733
28465W        W93725  15.601   9.810   1.012
28466W        W93726  16.824  32.939   4.065
28467W        W93727  25.649  18.537  11.641
28468W        W93728  29.033  10.844   2.846
28469W        W93729  36.023  20.411   1.115
28470W        W93730   7.595  15.241   2.442
28471W        W93731   9.219  33.095  12.858
28472W        W93732  39.127   8.258   3.077
28473W        W93733   8.645  41.717   3.848
28474W        W93734  15.189   7.949   2.301
28475W        W93735  23.273  11.905  12.050
28476W        W93736  33.588   2.203  14.403
28477W        W93737  13.216   4.759   3.839
28478W        W93738  30.652  30.906   1.482
28479W        W93739  38.498   0.883  12.098
28480W        W93740  35.430   3.424   1.855
28481W        W93741  43.445  17.231  14.427
28482W        W93742  27.710  29.911  13.794
28483W        W93743   3.797  39.934   4.376
28484W        W93744  32.159  22.549   2.850
28485W        W93745  27.005   2.184   3.634
28486W        W93746  42.787  41.376  14.792
28487W        W93747  15.589  22.132  10.747
28488W        W93748   6.739   4.001  11.639
28489W        W93749  31.988  27.129  12.402
28490W        W93750  10.433  27.712   4.901
28491W        W93751  37.474  20.170   4.863
28492W        W93752  20.264  23.340   4.611
28493W        W93753  38.838  22.201  13.429
28494W        W93754  21.080   9.699   2.960
28495W        W93755  25.983   4.190   0.329
28496W        W93756  33.337  30.025   0.928
28497W        W93757   3.033  27.078  13.589
28498W        W93758  40.891   7.861   2.387
28499W        W93759  26.200  11.370   0.859
28500W        W93760  36.804  13.224  11.707
28501W        W93761   3.172  12.183  12.426
28502W        W93762  12.351   4.451   0.121
28503W        W93763   1.054  14.053   1.806
28504W        W93764  27.908  14.710  11.543
28505W        W93765  41.812  37.643   9.926
28506W        W93766   3.248   5.141   0.865
28507W        W93767  37.906  35.846  11.129
28508W        W93768  29.121  28.053  11.579
28509W        W93769   9.422  19.708  10.334
28510W        W93770  29.570  44.007   2.112
28511W        W93771  33.470  42.861   2.773
28512W        W93772  43.860  29.546   1.337
28513W        W93773  41.023   0.344   2.914
28514W        W93774  38.867  44.996   3.730
28515W        W93775  16.854   2.214   0.341
28516W        W93776  22.582  18.287  11.520
28517W        W93777   9.761  32.006   2.839
28518W        W93778  38.035  22.289   4.141
28519W        W93779  23.830  20.374   0.942
28520W        W93780   8.690  22.872  10.943
28521W        W93781  34.026  15.776   4.550
28522W        W93782  24.103   7.533  13.351
28523W        W93783  21.075   6.201   4.617
28524W        W93784  39.843  10.999   2.694
28525W        W93785  19.204  12.554  12.440
28526W        W93786   1.031  16.682  13.893
28527W        W93787  24.819   5.756   0.446
28528W        W93788  12.265   2.022   0.334
28529W        W93789   1.382  30.552   1.900
28530W        W93790  37.119  10.151  12.906
28531W        W93791   6.773  19.035  11.900
28532W        W93792  28.360  43.966  10.534
28533W        W93793  10.728  37.457  14.519
28534W        W93794  39.298  29.165  10.698
28535W        W93795  19.477  23.403  14.638
28536W        W93796   4.450   1.202   0.793
28537W        W93797  26.214  19.122   3.232
28538W        W93798  43.975  18.578   2.579
28539W        W93799  22.466  11.235  11.461
28540W        W93800  20.143   6.164  14.420
28541W        W93801  23.295   1.756  14.450
28542W        W93802  38.345  22.703   2.385
28543W        W93803   7.631  33.690  10.676
28544W        W93804  13.213  18.937  14.254
28545W        W93805  10.741  28.033  13.377
28546W        W93806  26.950  18.259   3.261
28547W        W93807   8.988  18.060  14.801
28548W        W93808  21.535   7.364   3.322
28549W        W93809   7.723  19.290   2.174
28550W        W93810  42.265  32.863  12.659
28551W        W93811  19.343  38.293   2.227
28552W        W93812   1.450  32.878   4.263
28553W        W93813  15.502  43.463   2.699
28554W        W93814  35.517  14.087  14.971
28555W        W93815  28.155  30.620  14.424
28556W        W93816  13.751   5.527   2.843
28557W        W93817  21.378  16.155  12.482
28558W        W93818  34.078  21.608  14.685
28559W        W93819   7.811  17.345   4.071
28560W        W93820  33.831  29.948  10.634
28561W        W93821  25.246  17.129   1.740
28562W        W93822  36.086  40.636  14.945
28563W        W93823  31.428  36.384  11.725
28564W        W93824  25.268  38.040  12.230
28565W        W93825   7.720   2.334   3.111
28566W        W93826  30.452   0.223  12.141
28567W        W93827  37.824   2.541   1.907
28568W        W93828  34.383  38.455   2.083
28569W        W93829   6.095  33.132   2.200
28570W        W93830  43.035  20.653   0.838
28571W        W93831   7.294  11.839   2.592
28572W        W93832  25.804  26.165  11.159
28573W        W93833   9.400  43.810   2.433
28574W        W93834  13.767  11.877   2.996
28575W        W93835  34.393  38.404   3.111
28576W        W93836  14.077  32.945  10.469
28577W        W93837  24.160   6.854   1.265
28578W        W93838   7.089  19.399  13.243
28579W        W93839   5.475  34.597  11.235
28580W        W93840  11.292  27.338   3.030
28581W        W93841  41.486  20.086   4.556
28582W        W93842  22.827  15.389   3.077
28583W        W93843  41.470  41.543  12.490
28584W        W93844   6.244  15.770  11.571
28585W        W93845  24.525  32.355   1.505
28586W        W93846   0.063  30.825   3.677
28587W        W93847  33.560  43.839  11.573
28588W        W93848  26.484   0.215   0.683
28589W        W93849  34.845  14.695   0.903
28590W        W93850  38.103  15.050   1.751
28591W        W93851  33.928  21.646  12.869
28592W        W93852  35.017  20.928  12.433
28593W        W93853  11.198  28.190  11.475
28594W        W93854  10.598  17.282   3.225
28595W        W93855   9.774  29.443  14.311
28596W        W93856   5.222  15.872   2.648
28597W        W93857  26.035  17.138  14.026
28598W        W93858  18.084  31.413  13.522
28599W        W93859   3.858  34.868  13.057
28600W        W93860  17.258  44.739   2.777
28601W        W93861  20.010  30.624  11.957
28602W        W93862  42.524  20.682  13.090
28603W        W93863  16.996  21.008  13.417
28604W        W93864  14.579  35.958   2.453
28605W        W93865  32.596  18.496   0.269
28606W        W93866  21.369   5.028   9.925
28607W        W93867  42.301  19.701  10.575
28608W        W93868  28.561  24.703   3.265
28609W        W93869  31.518  24.455   4.656
28610W        W93870  37.928  36.885   1.685
28611W        W93871  29.148  18.451  11.637
28612W        W93872  21.924  40.972   0.476
28613W        W93873   2.817  10.297   0.072
28614W        W93874  19.605  32.241   3.633
28615W        W93875  17.769  17.355  10.577
28616W        W93876  31.648   4.578   0.948
28617W        W93877  37.446  40.378   0.956
28618W        W93878  10.792  12.386   2.190
28619W        W93879  29.942   2.058   1.838
28620W        W93880  40.370   4.238  11.061
28621W        W93881  26.945  42.813  12.471
28622W        W93882  16.771  10.267  10.541
28623W        W93883   8.359  40.322   3.300
28624W        W93884  28.686  35.926   1.683
28625W        W93885  36.631  39.596  12.073
28626W        W93886   9.600  22.754   1.836
28627W        W93887   6.016   6.405   2.448
28628W        W93888  28.134  28.750  11.412
28629W        W93889  38.775  11.842  12.602
28630W        W93890  15.789   6.441   4.093
28631W        W93891   8.589   6.408   3.298
28632W        W93892  19.044  21.620   0.250
28633W        W93893  44.516  37.317   2.864
28634W        W93894  39.595  16.170   0.044
28635W        W93895  28.626  28.026  11.223
28636W        W93896   8.712  20.053   3.590
28637W        W93897  27.464   1.239   3.074
28638W        W93898   5.647   9.368   0.973
28639W        W93899   3.311  31.177   1.744
28640W        W93900   8.705  28.529  12.988
28641W        W93901  29.507  19.838   2.347
28642W        W93902  18.145  42.293   4.606
28643W        W93903   3.700  32.541   4.609
28644W        W93904  31.690  23.502  10.103
28645W        W93905  13.095  39.345   4.143
28646W        W93906   5.283  35.144   1.412
28647W        W93907   9.681   0.385  12.115
28648W        W93908  39.509  41.598   3.729
28649W        W93909  35.310   3.843  10.971
28650W        W93910  23.926  19.718  12.866
28651W        W93911  27.176  31.073  13.086
28652W        W93912  39.119  38.409   4.217
28653W        W93913  33.423  38.945   5.136
28654W        W93914  11.116  35.440   0.782
28655W        W93915  40.521  35.671  11.461
28656W        W93916  25.144  25.443   2.319
28657W        W93917  10.150  29.442   4.235
28658W        W93918  20.121  29.646   4.137
28659W        W93919  22.196  40.819   0.880
28660W        W93920  34.069  38.362   3.815
28661W        W93921  36.624  20.214   2.116
28662W        W93922  43.830  22.869  11.768
28663W        W93923  31.153   6.759   0.920
28664W        W93924   9.111  17.700  13.572
28665W        W93925  19.681  39.106  10.716
28666W        W93926  19.376  26.770   4.095
28667W        W93927   1.198  36.833  14.732
28668W        W93928   0.245   0.641   2.089
28669W        W93929  43.307  21.963   4.514
28670W        W93930  20.828  25.504   3.199
28671W        W93931  30.616  39.947  14.850
28672W        W93932  36.791  18.317  13.831
28673W        W93933   2.905  22.515  12.962
28674W        W93934  43.955  27.436  12.217
28675W        W93935  10.892  10.151   2.110
28676W        W93936   4.440  31.456  12.040
28677W        W93937  41.313  28.276   0.991
28678W        W93938  31.366  38.874   3.893
28679W        W93939  34.522   7.411   4.882
28680W        W93940  36.473  11.476   2.191
28681W        W93941   1.050  18.990   1.295
28682W        W93942  31.903   6.211   2.167
28683W        W93943   2.847   9.292  13.741
28684W        W93944   9.234  32.692  11.484
28685W        W93945  10.496  29.617  10.049
28686W        W93946  44.038  41.844  13.975
28687W        W93947  42.470  32.148  12.197
28688W        W93948  35.479  14.928   1.546
28689W        W93949  26.679  20.767  11.986
28690W        W93950   3.726  32.032  14.065
28691W        W93951  15.058   3.289   3.608
28692W        W93952  44.091   5.819  12.361
28693W        W93953  14.745   7.701  10.658
28694W        W93954  11.863   5.302   4.673
28695W        W93955   1.432  10.139   2.167
28696W        W93956   7.752  44.714  12.946
28697W        W93957  26.869  34.645  12.454
28698W        W93958  18.314  30.492   1.642
28699W        W93959  14.740  36.553  11.896
28700W        W93960  16.032   3.107   2.609
28701W        W93961  13.511  44.903   3.317
28702W        W93962  36.387  13.148  13.970
28703W        W93963   6.455  34.853  12.083
28704W        W93964  25.998   0.901  13.594
28705W        W93965   0.655  17.207  10.021
28706W        W93966   7.986   7.180  11.528
28707W        W93967  26.663  37.492  14.510
28708W        W93968  43.722  38.250   0.287
28709W        W93969  28.697  16.879   9.401
28710W        W93970   4.352  36.670  14.732
28711W        W93971  23.969  22.035  14.837
28712W        W93972  40.399  38.505  11.194
28713W        W93973  32.955  14.117  12.040
28714W        W93974   3.971  18.703   4.271
28715W        W93975   5.586  37.008   2.364
28716W        W93976   9.435  33.585   3.375
28717W        W93977   7.210  28.466  11.212
28718W        W93978  37.304  41.600   0.011
28719W        W93979   5.131   1.434   4.558
28720W        W93980  27.692  44.474  13.098
28721W        W93981  26.280  13.145   5.079
28722W        W93982  22.230  40.415   3.649
28723W        W93983  31.072  38.857   2.477
28724W        W93984  25.871  14.321   3.667
28725W        W93985  25.006  15.157  10.647
28726W        W93986   1.926  27.598   5.805
28727W        W93987  24.497   9.018   0.420
28728W        W93988  17.259  17.505  13.494
28729W        W93989   9.448  15.195   1.406
28730W        W93990  35.939  19.491   1.220
28731W        W93991  41.259   8.648   3.234
28732W        W93992  44.004   5.770   2.901
28733W        W93993  30.652   6.656   1.183
28734W        W93994  30.045   2.925  14.963
28735W        W93995  25.700  14.414  13.759
28736W        W93996   0.732  29.199  12.433
28737W        W93997  19.063  29.265   1.748
28738W        W93998  18.937   9.208   3.830
28739W        W93999  31.377  37.865  10.840
28740W        W94000   9.751  21.153   4.816
28741W        W94001  30.037  26.037  14.424
28742W        W94002  11.251  22.802   3.215
28743W        W94003  33.541  35.610   4.373
28744W        W94004  31.676  22.023   1.726
28745W        W94005  26.030   0.300  12.406
28746W        W94006  36.165   7.665   2.314
28747W        W94007   3.905  13.242  13.598
28748W        W94008  37.370  18.488  14.385
28749W        W94009  35.313  33.140   2.706
28750W        W94010  36.468  34.624   3.560
28751W        W94011  14.904  10.155   0.420
28752W        W94012   0.257  22.501   3.278
28753W        W94013  41.315  19.493  11.516
28754W        W94014  27.743  19.868  13.958
28755W        W94015   5.971   0.438   1.800
28756W        W94016  13.467  36.809   1.926
28757W        W94017  22.735  27.563  10.992
28758W        W94018  30.733  13.106  14.517
28759W        W94019  19.359   0.341   2.390
28760W        W94020  18.308  28.029  13.988
28761W        W94021  16.383  36.944  12.494
28762W        W94022  20.692  21.294  10.612
28763W        W94023  15.489  35.991  11.674
28764W        W94024  12.032   8.555  11.846
28765W        W94025   1.045  35.607   4.082
28766W        W94026  38.403   4.335  12.851
28767W        W94027  27.600   1.571  14.590
28768W        W94028  35.485  37.327  11.255
28769W        W94029   1.670  27.977  11.177
28770W        W94030  23.600  18.642  14.289
28771W        W94031   1.180   7.137  11.172
28772W        W94032  24.722  14.283  11.391
28773W        W94033  14.717  32.989   1.937
28774W        W94034  20.519   4.602  13.550
28775W        W94035   3.180  39.925   0.988
28776W        W94036  44.916   6.838  13.535
28777W        W94037  41.732  21.016   4.312
28778W        W94038  38.406  23.126  13.553
28779W        W94039  44.743  44.736  10.884
28780W        W94040   3.436  36.546   2.780
28781W        W94041  31.946  20.535  11.160
28782W        W94042  30.403   9.165   1.294
28783W        W94043  37.595   9.855  13.308
28784W        W94044  24.651  23.690  12.124
28785W        W94045  28.017   9.446  12.033
28786W        W94046  36.881  17.230  13.172
28787W        W94047   5.984  41.071  13.930
28788W        W94048  36.091  16.788  11.701
28789W        W94049  16.610  17.622   2.254
28790W        W94050   1.445  37.534   0.947
28791W        W94051  31.655  16.984   3.079
28792W        W94052  44.856  11.273  13.958
28793W        W94053  42.336   1.401   2.372
28794W        W94054  29.602  41.162   9.964
28795W        W94055  35.124  32.092  11.129
28796W        W94056  20.302   4.370  14.044
28797W        W94057  39.442  37.535   0.406
28798W        W94058  21.220  24.666  14.574
28799W        W94059  24.017  41.834   2.739
28800W        W94060   1.913  17.787  14.497
28801W        W94061  26.542  39.119   2.581
28802W        W94062  21.098   4.660  14.776
28803W        W94063  13.203  38.485   5.153
28804W        W94064  12.379  38.212  11.199
28805W        W94065  20.549  15.462   2.629
28806W        W94066  40.580  21.465  14.396
28807W        W94067  11.711  41.952  11.064
28808W        W94068  26.553  17.191  14.109
28809W        W94069  30.570  15.175   0.534
28810W        W94070  34.713  11.334   1.820
28811W        W94071  40.944  29.192  11.260
28812W        W94072  38.479  32.080  11.562
28813W        W94073  29.345  32.540  14.473
28814W        W94074  27.081  40.231  13.296
28815W        W94075  34.432  11.766  13.088
28816W        W94076  27.505   3.759   3.770
28817W        W94077  27.553  38.537  14.916
28818W        W94078   1.421  39.407   1.040
28819W        W94079   0.663  21.322   2.230
28820W        W94080  24.792  44.958  12.010
28821W        W94081  12.124  22.001   0.485
28822W        W94082  23.196   1.413   1.364
28823W        W94083  16.367  25.164   5.087
28824W        W94084  33.961  42.561   0.208
28825W        W94085  21.208  25.155  14.400
28826W        W94086  16.613  43.730   4.201
28827W        W94087   1.707   2.929   2.264
28828W        W94088  39.176  41.595  11.064
28829W        W94089  29.779   6.531   4.811
28830W        W94090  32.919  42.521   3.781
28831W        W94091  23.784  29.141   3.169
28832W        W94092  25.774  41.740  13.441
28833W        W94093  22.713  19.738   2.959
28834W        W94094  11.729   2.312  10.429
28835W        W94095  42.861  25.903   3.784
28836W        W94096  31.912   6.920  13.409
28837W        W94097  42.328  11.850  12.479
28838W        W94098  39.617  26.148   1.472
28839W        W94099  41.110   9.318   1.105
28840W        W94100  32.950   1.170   0.569
28841W        W94101  14.853  17.035   1.885
28842W        W94102  36.391  40.311  13.604
28843W        W94103  10.850  12.037  12.457
28844W        W94104  25.468  14.579   3.860
28845W        W94105  36.249  23.614  10.867
28846W        W94106  30.473  12.162   4.413
28847W        W94107  15.742  14.898   2.339
28848W        W94108  38.954   6.608   0.577
28849W        W94109  11.921  44.327  10.766
28850W        W94110  44.925  19.675   3.722
28851W        W94111  39.820  27.499  14.198
28852W        W94112  28.538  21.613   4.812
28853W        W94113  40.600  42.494   2.991
28854W        W94114  35.188  23.002   4.627
28855W        W94115  14.353  34.083   3.922
28856W        W94116  41.353  43.997   2.229
28857W        W94117   5.548   2.297   0.818
28858W        W94118  21.735  43.097  14.431
28859W        W94119  40.794  18.507  13.819
28860W        W94120  23.312  25.501   3.650
28861W        W94121  30.968  23.770  14.860
28862W        W94122  22.074   0.241   3.725
28863W        W94123  22.720  43.099  13.406
28864W        W94124   8.779  36.069  14.928
28865W        W94125  39.975  11.192  11.673
28866W        W94126  21.980   9.662  13.975
28867W        W94127  11.984  38.527   1.042
28868W        W94128  34.525  34.906  13.162
28869W        W94129   8.896  33.537  12.571
28870W        W94130  19.812  29.994  14.438
28871W        W94131  38.176  41.860  13.013
28872W        W94132  27.231  28.555  12.377
28873W        W94133  38.394  23.946   0.889
28874W        W94134  15.071  22.494   0.723
28875W        W94135  42.349  25.195   3.306
28876W        W94136  42.308  15.227  12.039
28877W        W94137  21.009  18.755   1.713
28878W        W94138  15.606  16.618  14.966
28879W        W94139   6.833  38.134   0.211
28880W        W94140  18.251  22.262   1.448
28881W        W94141  20.443  39.196   0.812
28882W        W94142  10.834  40.814   3.362
28883W        W94143   8.594  12.889  12.516
28884W        W94144   4.291  21.470  12.865
28885W        W94145  35.537   1.488   1.654
28886W        W94146   2.099  15.168   3.325
28887W        W94147   0.486  42.861  11.931
28888W        W94148  28.593   7.513  10.777
28889W        W94149  21.563   4.797   2.303
28890W        W94150  11.242  10.581  11.855
28891W        W94151  32.612   9.787   0.943
28892W        W94152  23.620   8.517   3.275
28893W        W94153  42.254  40.295  14.817
28894W        W94154  19.676   6.324  14.585
28895W        W94155  23.214  27.589   3.696
28896W        W94156  24.201   4.922   0.276
28897W        W94157   9.807  17.647  14.806
28898W        W94158  29.925  23.766  11.205
28899W        W94159  16.309  10.541  11.442
28900W        W94160  26.011  21.160   1.328
28901W        W94161   7.365  40.356  14.422
28902W        W94162  29.202  17.221   3.293
28903W        W94163   4.705  28.443   0.956
28904W        W94164  44.296  28.154   3.606
28905W        W94165  11.698  40.536   2.563
28906W        W94166  42.331  36.399  11.096
28907W        W94167  36.404  27.650   1.350
28908W        W94168  15.478  31.546  12.004
28909W        W94169  40.004  39.062   1.950
28910W        W94170  39.387   6.138  14.759
28911W        W94171  41.824  15.001   4.668
28912W        W94172   3.937   2.466   2.175
28913W        W94173  40.159  42.930  14.713
28914W        W94174   5.848  38.456   0.713
28915W        W94175  29.306  13.500   1.795
28916W        W94176  32.649  42.889  10.800
28917W        W94177  19.511  14.696   3.591
28918W        W94178  16.962  42.834  12.101
28919W        W94179  19.607   9.875  12.796
28920W        W94180  14.061   1.342  12.866
28921W        W94181   8.196  33.578  11.496
28922W        W94182  40.494  30.089  12.525
28923W        W94183  28.745  38.986  11.074
28924W        W94184  28.110   5.082   4.175
28925W        W94185  19.601  34.374   3.205
28926W        W94186  24.872  40.008  14.442
28927W        W94187  23.989  21.822  11.187
28928W        W94188  17.636  12.856  14.415
28929W        W94189  13.632  43.009   4.107
28930W        W94190  26.099   2.542   1.937
28931W        W94191  40.837  24.814   3.754
28932W        W94192   7.476  28.032   1.045
28933W        W94193  40.168  13.833  10.977
28934W        W94194   1.492  36.608   3.244
28935W        W94195  19.245  19.623   2.256
28936W        W94196  26.491   7.065   1.817
28937W        W94197  36.848  28.675  13.305
28938W        W94198   6.366  27.212  12.013
28939W        W94199  29.477  12.255   3.793
28940W        W94200  38.573  38.358   4.249
28941W        W94201  30.909  31.403  14.290
28942W        W94202  39.561  10.996  14.961
28943W        W94203  20.298   5.946  13.525
28944W        W94204   6.251  32.105  11.112
28945W        W94205  34.463   2.484  11.522
28946W        W94206  24.247  33.632   0.909
28947W        W94207  43.779  25.454   1.460
28948W        W94208  21.267  29.522   2.721
28949W        W94209  38.390  24.127   2.870
28950W        W94210  21.228  13.514   4.563
28951W        W94211  20.244  27.986  10.653
28952W        W94212   3.855  30.859   5.381
28953W        W94213  15.516   3.266   3.858
28954W        W94214  34.059  27.275   3.392
28955W        W94215  11.163   5.111  11.041
28956W        W94216  32.957   5.599   0.453
28957W        W94217  13.066  29.416  12.056
28958W        W94218  15.275  37.175   4.685
28959W        W94219  36.526   3.429  12.116
28960W        W94220  33.733   4.024  13.055
28961W        W94221  26.016   7.952   2.299
28962W        W94222  32.485   0.454  13.954
28963W        W94223   9.776  18.106   4.894
28964W        W94224  16.315   7.417  13.779
28965W        W94225   1.320  30.699   2.831
28966W        W94226   5.854   1.351   4.164
28967W        W94227  13.766  10.052   3.665
28968W        W94228   6.644  31.528  14.979
28969W        W94229  36.892  32.494  11.914
28970W        W94230  29.607  32.900  13.598
28971W        W94231  24.905  43.536  13.044
28972W        W94232  10.042  24.343   4.953
28973W        W94233  25.914  26.219   0.398
28974W        W94234  27.008   2.318  10.670
28975W        W94235  12.242  37.961   4.918
28976W        W94236  15.776  18.612  12.053
28977W        W94237  38.448   7.931  12.897
28978W        W94238  36.265  19.877   0.424
28979W        W94239  44.008  23.623  13.602
28980W        W94240   2.155  27.614  14.754
28981W        W94241  44.775  38.879   4.251
28982W        W94242  29.438  41.424  12.457
28983W        W94243  44.579   7.878   1.244
28984W        W94244  32.974   5.337  13.887
28985W        W94245  12.730  22.550   0.076
28986W        W94246  20.612  18.098   0.328
28987W        W94247  12.168   5.626   3.579
28988W        W94248   8.910  17.161   4.427
28989W        W94249  31.160  24.733  11.051
28990W        W94250  20.017  27.438  12.263
28991W        W94251  43.370  24.716  14.745
28992W        W94252  13.378  34.858   3.663
28993W        W94253  19.345   2.010   4.155
28994W        W94254  24.940   4.577  12.561
28995W        W94255  27.149   7.357  13.103
28996W        W94256   5.779  30.848   3.818
28997W        W94257  11.127  17.978  11.236
28998W        W94258   7.450  22.462  13.351
28999W        W94259  40.112  28.902  14.346
29000W        W94260   3.264  42.859  12.583
29001W        W94261   1.771   6.041  11.989
29002W        W94262   5.821  38.730   4.738
29003W        W94263  27.178   3.722   3.349
29004W        W94264  40.742  37.054   0.765
29005W        W94265  40.824  31.938  12.878
29006W        W94266  31.164  23.745  13.083
29007W        W94267  25.625  17.122  14.991
29008W        W94268  15.921  37.906  11.543
29009W        W94269  34.556  44.768   1.720
29010W        W94270  24.784  16.620   4.990
29011W        W94271  37.978  41.386  12.884
29012W        W94272  43.304  36.384   0.906
29013W        W94273  34.365  34.227   3.730
29014W        W94274  12.704  40.889  12.740
29015W        W94275   0.713   3.525   2.024
29016W        W94276  15.279  34.517   2.815
29017W        W94277   1.376   5.296  13.899
29018W        W94278  31.105   0.242   1.753
29019W        W94279  30.736  14.679  10.682
29020W        W94280  29.103  23.757  12.503
29021W        W94281  16.675  42.127  11.090
29022W        W94282  15.548   8.657   1.715
29023W        W94283  36.378  27.711   2.237
29024W        W94284   4.231  37.806  12.934
29025W        W94285   7.700  31.972   5.028
29026W        W94286  13.388  11.715   1.485
29027W        W94287  19.193   4.789  12.538
29028W        W94288   4.517  10.125  10.530
29029W        W94289  37.603  10.683  14.776
29030W        W94290  24.185   2.279   2.301
29031W        W94291  39.768  42.401  11.192
29032W        W94292   0.011  18.074  10.655
29033W        W94293  28.081  41.891   3.660
29034W        W94294  11.346  33.340  10.759
29035W        W94295   4.186  32.163  14.231
29036W        W94296  12.884   0.734   0.836
29037W        W94297   2.993  39.999   4.862
29038W        W94298   9.227  22.216  14.904
29039W        W94299   2.917  10.380  11.174
29040W        W94300  23.692  37.668  12.185
29041W        W94301  20.507  38.232  10.950
29042W        W94302  25.153  38.972   1.059
29043W        W94303  27.572  30.201   3.246
29044W        W94304  37.381  29.441  10.774
29045W        W94305  40.907  35.336  14.604
29046W        W94306  21.965   2.787   3.636
29047W        W94307  28.777  30.624  13.573
29048W        W94308  33.006  15.767   4.714
29049W        W94309   4.900  13.017  10.651
29050W        W94310   3.221  16.967  12.002
29051W        W94311  20.087  19.056   1.290
29052W        W94312  40.776  10.158  13.148
29053W        W94313  20.995  22.969  14.168
29054W        W94314  29.142   2.289   4.065
29055W        W94315  18.681   9.314   4.684
29056W        W94316  29.740   2.390   2.789
29057W        W94317  31.353   5.885   5.034
29058W        W94318  26.020  42.365  14.857
29059W        W94319  38.316  15.868  11.880
29060W        W94320   4.740  17.393   4.653
29061W        W94321  44.200  21.644  12.123
29062W        W94322   3.926  30.228   2.365
29063W        W94323  39.929  25.224   2.244
29064W        W94324   4.708   9.062   3.169
29065W        W94325  13.705   4.259   2.301
29066W        W94326  15.084   2.275   2.596
29067W        W94327  13.737  19.211   3.354
29068W        W94328  20.104  23.125  10.486
29069W        W94329  17.019  24.104  13.546
29070W        W94330  44.863   2.326  14.036
29071W        W94331   5.616  44.815  12.065
29072W        W94332  38.809   7.025  11.589
29073W        W94333  39.430   4.887   3.286
29074W        W94334  34.775  21.031   4.734
29075W        W94335   5.807  43.301  13.811
29076W        W94336  12.746  43.343   1.843
29077W        W94337   6.750  19.831   4.952
29078W        W94338  38.968  25.182   1.039
29079W        W94339  22.091  17.196   4.583
29080W        W94340  16.524   7.776   1.791
29081W        W94341  27.449   4.166   3.423
29082W        W94342  31.546  16.300  13.053
29083W        W94343   9.944  38.450  10.553
29084W        W94344  20.205   1.172   4.035
29085W        W94345  31.451   1.822  10.371
29086W        W94346  19.255   6.593   1.158
29087W        W94347  11.551   0.855   2.189
29088W        W94348   3.938  41.883   3.304
29089W        W94349  14.230  16.107   4.430
29090W        W94350  24.029   1.426   1.043
29091W        W94351   9.350  36.181   3.557
29092W        W94352   8.934  39.836   3.737
29093W        W94353  16.359  17.350   1.880
29094W        W94354  13.852  29.762   0.768
29095W        W94355  23.139  42.904   3.816
29096W        W94356  19.462  19.306  12.365
29097W        W94357  39.556   1.400  13.017
29098W        W94358  22.117  18.038   5.032
29099W        W94359  30.348   3.397  10.936
29100W        W94360  12.116  38.902   4.733
29101W        W94361   0.990   7.242   4.537
29102W        W94362  17.086   8.384  12.824
29103W        W94363  36.611  30.437   3.658
29104W        W94364  14.850  16.765  14.536
29105W        W94365  44.969   0.821  11.771
29106W        W94366  38.925   3.701   3.322
29107W        W94367  38.779   3.924  13.011
29108W        W94368  11.318  42.261  13.867
29109W        W94369  32.403  25.909  10.734
29110W        W94370   3.283   3.236  12.091
29111W        W94371  22.634  35.108  12.591
29112W        W94372  42.392  30.803   4.554
29113W        W94373  37.401  18.090   1.432
29114W        W94374  27.714   7.947  13.587
29115W        W94375  11.675  40.558  14.741
29116W        W94376  19.742   4.448  10.529
29117W        W94377  19.152  30.604   1.734
29118W        W94378  16.819  33.951  12.147
29119W        W94379  35.869  33.230   0.866
29120W        W94380  18.071  11.362  12.649
29121W        W94381   4.421   8.866  13.377
29122W        W94382  20.897  21.819   2.852
29123W        W94383   4.241  36.531   1.899
29124W        W94384   7.772  11.568  13.460
29125W        W94385  31.408  20.103   1.780
29126W        W94386  24.236  42.927   2.359
29127W        W94387  21.626   7.622  11.990
29128W        W94388  31.549  27.996   0.484
29129W        W94389  22.621  10.680   1.604
29130W        W94390  41.063  37.438  14.261
29131W        W94391  28.504  23.945   4.706
29132W        W94392  33.387  34.022   1.905
29133W        W94393   3.697   9.926   2.317
29134W        W94394   6.076  23.279  13.534
29135W        W94395  10.672  13.136  10.651
29136W        W94396   1.954  23.450  10.670
29137W        W94397  40.374   9.644   2.850
29138W        W94398  29.984   6.174  10.532
29139W        W94399   4.450   1.405  11.573
29140W        W94400  23.651   0.599   3.248
29141W        W94401  38.658  26.290   1.698
29142W        W94402   9.702  34.197  13.227
29143W        W94403  31.511  11.419  12.047
29144W        W94404  35.402  42.800   1.790
29145W        W94405  29.198  28.334   2.171
29146W        W94406   3.779  40.146  12.064
29147W        W94407  14.259   5.260   4.148
29148W        W94408  31.929  24.483  11.570
29149W        W94409   3.915   9.376   1.336
29150W        W94410  11.328   5.846  12.859
29151W        W94411  14.089  19.526   2.049
29152W        W94412  33.305  41.570   0.336
29153W        W94413   4.294  10.873  11.012
29154W        W94414  31.609   0.997  11.643
29155W        W94415   2.286  15.978   3.118
29156W        W94416  44.757   5.792   3.141
29157W        W94417  31.080  32.658   3.561
29158W        W94418   1.381   9.978   4.091
29159W        W94419  29.389  34.176   4.237
29160W        W94420   5.687   7.614  14.988
29161W        W94421   4.641  32.530   0.881
29162W        W94422  15.015  36.349  12.483
29163W        W94423  22.281  12.704  10.675
29164W        W94424  44.887  13.658  13.851
29165W        W94425   3.945   7.421  14.307
29166W        W94426   5.325  27.986  10.698
29167W        W94427  13.997  17.315  13.497
29168W        W94428  31.502  35.099   4.102
29169W        W94429  20.665  33.570  12.338
29170W        W94430  23.995   0.140  10.235
29171W        W94431  17.579  43.367  12.446
29172W        W94432  31.967  19.727  10.725
29173W        W94433   9.769  12.232  12.943
29174W        W94434  31.541  31.463   0.365
29175W        W94435  19.137  41.380   2.590
29176W        W94436  18.004  29.154   1.353
29177W        W94437   8.317  21.732   4.475
29178W        W94438   5.404  33.650   0.318
29179W        W94439  43.562  44.336  10.271
29180W        W94440  10.849  39.323  13.088
29181W        W94441  11.810  36.628  11.145
29182W        W94442  24.256  25.174  14.986
29183W        W94443  28.081  19.319   3.571
29184W        W94444  43.101  13.253  13.659
29185W        W94445  37.906  10.016  11.554
29186W        W94446   9.434  14.748  11.238
29187W        W94447  31.819  28.679  12.809
29188W        W94448  38.222  23.934   1.883
29189W        W94449  39.504  38.852  11.120
29190W        W94450  15.098  22.458  11.969
29191W        W94451  31.940  11.717   3.722
29192W        W94452  19.620  44.471   0.351
29193W        W94453   1.191   1.398  11.125
29194W        W94454  23.904  21.096  11.490
29195W        W94455  17.538  43.968  10.441
29196W        W94456  28.395  11.544   2.677
29197W        W94457  35.194  19.675   4.599
29198W        W94458  28.553  25.687   5.809
29199W        W94459  27.037  38.843   1.216
29200W        W94460  37.312  25.193   4.586
29201W        W94461  17.290   5.219   4.174
29202W        W94462  22.569  41.817  11.568
29203W        W94463  15.274  28.475  10.468
29204W        W94464  40.005  27.951  10.670
29205W        W94465  17.018   2.770  11.285
29206W        W94466  16.253   9.465  14.917
29207W        W94467  12.196   5.701  11.502
29208W        W94468  12.858  13.398  14.286
29209W        W94469  44.035  16.753   4.957
29210W        W94470  20.112  30.257   3.263
29211W        W94471  18.008  15.676   0.754
29212W        W94472  12.199  36.617  13.473
29213W        W94473  35.435  43.511   1.453
29214W        W94474  30.423  34.693   1.464
29215W        W94475  35.692  30.937   0.322
29216W        W94476  38.058  18.514   4.621
29217W        W94477   8.340  12.636   2.822
29218W        W94478  39.055   1.968  12.416
29219W        W94479  15.836   3.392  10.680
29220W        W94480  14.028  27.164   1.737
29221W        W94481  38.561  28.462  10.764
29222W        W94482  44.492  15.130  14.326
29223W        W94483   5.778  19.237  10.789
29224W        W94484  27.360  41.701  11.095
29225W        W94485  27.990  14.846  12.058
29226W        W94486   2.938   2.540   0.494
29227W        W94487  23.676  33.034  13.809
29228W        W94488  11.623   8.931  10.703
29229W        W94489   0.674   3.794   4.568
29230W        W94490  17.639  20.577  13.803
29231W        W94491   6.786  42.519  12.025
29232W        W94492  34.385  12.194  11.718
29233W        W94493  21.110  13.296  11.173
29234W        W94494  28.368  11.378   4.007
29235W        W94495  13.878  10.750  14.778
29236W        W94496  44.476  30.482  11.109
29237W        W94497  19.999  14.574  13.109
29238W        W94498  24.922  23.327   9.670
29239W        W94499  43.113  10.706   3.238
29240W        W94500  18.233   9.869   3.653
29241W        W94501   0.862  19.312   0.930
29242W        W94502  16.192  38.017  14.368
29243W        W94503  42.958  18.619  10.903
29244W        W94504  32.178  34.371  10.290
29245W        W94505  41.829  29.646  13.897
29246W        W94506   6.025   0.880   4.329
29247W        W94507  12.747  21.467  11.310
29248W        W94508   2.243  10.979   1.678
29249W        W94509  13.519  35.002   2.810
29250W        W94510  42.424  10.560   4.673
29251W        W94511  19.544  22.134  11.527
29252W        W94512  32.634  25.070   0.971
29253W        W94513  31.650   8.720   4.866
29254W        W94514   3.713   7.644  14.743
29255W        W94515  10.388  12.722  14.979
29256W        W94516  18.938   3.399  12.875
29257W        W94517   6.787  24.995  14.117
29258W        W94518  33.458  28.718  13.973
29259W        W94519  23.314  13.700   2.665
29260W        W94520  14.619  25.621  14.303
29261W        W94521  42.024  29.642  12.536
29262W        W94522   0.642  39.687  11.146
29263W        W94523  20.339  24.133   4.195
29264W        W94524   1.215   2.710   2.167
29265W        W94525  39.983   0.510   0.454
29266W        W94526  35.499   3.336  13.690
29267W        W94527   9.732  14.328  10.807
29268W        W94528  11.674  25.547  12.099
29269W        W94529   0.928  29.361  11.977
29270W        W94530   6.459  12.598   0.268
29271W        W94531   3.892  28.743   0.419
29272W        W94532  40.585  13.944   5.032
29273W        W94533  24.613  41.581   0.941
29274W        W94534  10.690  27.681  14.550
29275W        W94535   1.041  34.096  14.001
29276W        W94536   3.684   0.042   1.120
29277W        W94537  22.605   3.304   2.971
29278W        W94538  11.673  28.610   4.179
29279W        W94539   0.903  21.209  13.477
29280W        W94540  23.439  31.390  11.170
29281W        W94541  24.608  21.328   3.745
29282W        W94542   5.731  32.120   2.829
29283W        W94543   1.381   9.977   1.674
29284W        W94544  32.228  14.587  13.926
29285W        W94545  28.455  28.432   0.831
29286W        W94546  12.636   5.764  13.234
29287W        W94547  28.715  39.580  12.402
29288W        W94548  44.390  16.200  12.266
29289W        W94549   6.280  26.419   1.674
29290W        W94550   5.393  34.005  12.966
29291W        W94551  17.573  17.912   5.388
29292W        W94552  43.063  15.316   3.710
29293W        W94553   1.004   2.358   0.188
29294W        W94554  43.539  10.171   1.610
29295W        W94555   1.277  25.154   0.357
29296W        W94556  21.849   1.167  13.230
29297W        W94557  22.187  10.717  11.549
29298W        W94558  29.556  28.485  10.284
29299W        W94559  38.516  28.046   2.700
29300W        W94560  40.059  42.443   3.375
29301W        W94561   5.847  22.767   1.293
29302W        W94562  42.288   3.800   2.566
29303W        W94563   6.901  33.163  12.387
29304W        W94564   3.886  32.917   0.440
29305W        W94565  17.801  32.489   3.722
29306W        W94566  18.149   0.537   2.650
29307W        W94567  10.167   7.706   0.327
29308W        W94568  31.047   2.198   1.819
29309W        W94569  20.185  11.559   1.852
29310W        W94570   0.779  35.108  13.974
29311W        W94571  43.181  19.764   2.406
29312W        W94572  19.287  27.169   0.310
29313W        W94573   0.432  28.003  11.467
29314W        W94574  29.697  28.653   0.212
29315W        W94575  22.967  36.353   1.865
29316W        W94576  11.348  43.845  13.492
29317W        W94577   2.259  10.730   3.099
29318W        W94578  26.008  15.050  12.329
29319W        W94579  33.671  40.855   3.679
29320W        W94580   9.726  17.005  12.391
29321W        W94581  26.751  30.120   4.121
29322W        W94582  31.425  17.675   0.668
29323W        W94583  16.364   3.414   4.915
29324W        W94584  29.881  44.264  12.016
29325W        W94585  29.171  16.459   2.871
29326W        W94586  20.042  21.569   0.446
29327W        W94587  22.298   1.526   0.306
29328W        W94588   2.589  38.959  11.337
29329W        W94589  19.166  18.653   0.806
29330W        W94590  22.024  27.674   3.313
29331W        W94591  18.543  24.500  12.176
29332W        W94592   9.360  32.970   1.575
29333W        W94593   6.337  19.803   3.713
29334W        W94594  16.353   0.874  12.867
29335W        W94595  27.060  35.552   4.629
29336W        W94596  36.470  28.186   4.608
29337W        W94597  39.323  33.560  10.483
29338W        W94598  36.171  30.168   3.610
29339W        W94599  33.925  38.328  10.919
29340W        W94600  25.222  44.341   2.704
29341W        W94601  44.021  38.121  13.416
29342W        W94602  32.178  24.452   9.872
29343W        W94603  32.846   9.168   2.366
29344W        W94604  27.608  23.470   3.283
29345W        W94605  26.733  41.818   1.334
29346W        W94606  10.155  41.065   0.645
29347W        W94607  16.454   2.956   3.568
29348W        W94608  25.280   0.269   1.326
29349W        W94609  10.807  30.524   2.127
29350W        W94610   0.576  41.522   1.461
29351W        W94611  44.251   3.470   4.588
29352W        W94612  24.101  13.606   4.559
29353W        W94613  10.958  28.068  14.769
29354W        W94614  44.868  17.932   0.326
29355W        W94615  44.882  20.085   4.056
29356W        W94616  21.254  34.149  14.926
29357W        W94617  29.912   8.278   4.543
29358W        W94618   2.264  14.247   0.736
29359W        W94619  30.433  15.597   2.793
29360W        W94620  18.075  37.041   4.505
29361W        W94621  32.921  24.528  12.433
29362W        W94622  35.269   6.236   4.990
29363W        W94623  34.830  20.818  11.576
29364W        W94624   4.697   3.275  15.000
29365W        W94625  22.126  10.055   0.799
29366W        W94626   0.243  25.611  13.068
29367W        W94627  21.091  31.377   1.696
29368W        W94628   5.554  21.577   2.460
29369W        W94629  31.992   9.588   1.453
29370W        W94630  19.334  39.977  12.001
29371W        W94631  25.088  17.689  13.761
29372W        W94632   3.504  26.542   1.213
29373W        W94633  11.382  17.140  12.535
29374W        W94634  37.012  34.679  14.081
29375W        W94635  15.272   6.983  14.852
29376W        W94636  38.948  36.283  10.780
29377W        W94637  30.121  42.965   3.340
29378W        W94638  41.270  29.575   2.324
29379W        W94639  20.340   5.264  12.960
29380W        W94640  11.851  11.575  11.133
29381W        W94641  35.266  13.642  14.902
29382W        W94642  34.552  14.063  12.323
29383W        W94643  44.529  27.147  13.025
29384W        W94644  38.647   8.598  13.467
29385W        W94645  23.223  39.375   4.881
29386W        W94646  16.049  37.563  11.187
29387W        W94647   7.316  35.317  13.153
29388W        W94648   5.482  24.895  11.992
29389W        W94649  26.287  17.393  10.678
29390W        W94650   6.399  43.106  14.136
29391W        W94651   3.930  16.512  10.667
29392W        W94652  22.563   3.662  10.569
29393W        W94653   7.362   0.498   2.254
29394W        W94654   6.458  16.637   3.642
29395W        W94655  19.199  17.142  12.475
29396W        W94656   3.757  16.298  12.826
29397W        W94657  19.104  34.983  12.442
29398W        W94658  16.867  39.480  11.464
29399W        W94659  25.156  20.677   2.198
29400W        W94660  22.532   2.931   1.365
29401W        W94661  15.747   2.011  12.578
29402W        W94662  20.716  15.047   4.385
29403W        W94663  34.379  25.494   0.972
29404W        W94664  13.321   0.230  14.587
29405W        W94665  12.652   1.870  14.367
29406W        W94666   3.938   7.809  10.487
29407W        W94667  26.049  28.008   4.377
29408W        W94668  27.643  31.399   0.503
29409W        W94669  22.817  32.467   3.996
29410W        W94670  20.134  36.801  12.668
29411W        W94671  33.075  11.172   2.063
29412W        W94672  39.726  11.434  12.702
29413W        W94673  24.507  13.036   1.286
29414W        W94674  39.520  14.894  10.834
29415W        W94675  14.436  40.828  14.992
29416W        W94676  25.710  43.561  11.555
29417W        W94677  19.587  16.372  12.245
29418W        W94678  29.088   6.898   3.199
29419W        W94679  40.283  17.377   1.543
29420W        W94680   7.233  39.878  13.091
29421W        W94681  32.635  16.883  12.914
29422W        W94682  17.959  10.678   2.191
29423W        W94683  31.465   5.130  14.220
29424W        W94684  32.459  11.659   2.644
29425W        W94685  25.639  12.423  12.229
29426W        W94686  18.241  11.483   5.093
29427W        W94687  26.507  33.043  14.286
29428W        W94688  18.621   3.910  10.658
29429W        W94689  19.646  17.093   2.176
29430W        W94690  15.718  35.829  14.717
29431W        W94691   1.162  23.951   2.788
29432W        W94692  43.999  29.478   2.743
29433W        W94693  18.291  32.557   1.891
29434W        W94694  17.716   8.366   3.784
29435W        W94695  13.330  30.526  12.342
29436W        W94696   3.914   4.812   4.842
29437W        W94697   2.444  34.914  12.010
29438W        W94698  18.864  31.173   3.709
29439W        W94699   6.703  26.891   2.282
29440W        W94700  23.800  42.855  12.784
29441W        W94701  17.162   6.907   0.888
29442W        W94702   9.191  16.377  10.536
29443W        W94703   7.829  17.262   9.936
29444W        W94704  19.680  31.804   5.116
29445W        W94705  37.523  15.522   4.006
29446W        W94706  43.347   8.027  13.934
29447W        W94707  18.212   8.341  10.984
29448W        W94708  33.721  21.659  14.314
29449W        W94709   5.270   2.586   0.386
29450W        W94710  36.541  31.181   3.231
29451W        W94711  18.415  11.665   0.718
29452W        W94712   7.062  31.133  13.108
29453W        W94713  30.900  34.452  13.371
29454W        W94714  44.072  36.460  11.715
29455W        W94715  38.989  43.110  12.960
29456W        W94716  11.611  40.538  11.929
29457W        W94717  40.793  19.517  13.078
29458W        W94718   9.233  12.153   4.876
29459W        W94719  24.466  21.711   0.319
29460W        W94720  44.815  14.764   3.253
29461W        W94721  29.184  20.653   3.695
29462W        W94722  24.282  16.995  10.049
29463W        W94723  29.639  25.167  13.740
29464W        W94724   4.682  29.842   2.671
29465W        W94725  40.266   6.553   2.830
29466W        W94726  33.186   8.278  11.165
29467W        W94727  20.985  37.389  10.669
29468W        W94728  13.263  22.189   1.857
29469W        W94729  32.161  13.653  13.891
29470W        W94730   4.283  36.493  13.387
29471W        W94731  25.938   6.302  10.399
29472W        W94732   6.292   5.326  11.415
29473W        W94733  15.157  17.778  12.185
29474W        W94734  31.496  25.964   0.855
29475W        W94735  33.815   2.420  14.862
29476W        W94736   9.743  22.274  13.472
29477W        W94737  36.031  30.196  11.990
29478W        W94738   6.036  16.078  11.933
29479W        W94739  13.128  28.074   1.906
29480W        W94740  10.581   3.838   0.411
29481W        W94741  21.548  20.198  10.417
29482W        W94742  16.404  35.739  14.810
29483W        W94743  41.422  29.944   3.269
29484W        W94744  41.945  43.085   3.361
29485W        W94745   5.742   9.175  13.178
29486W        W94746  13.993   9.138  11.633
29487W        W94747  44.818  26.470  13.288
29488W        W94748  14.745  30.648   2.271
29489W        W94749  44.489  17.765   4.143
29490W        W94750  19.121  11.662   0.002
29491W        W94751  25.953   5.231  14.098
29492W        W94752   7.818  24.651   3.288
29493W        W94753  36.976  42.860   2.568
29494W        W94754  31.687  28.727  11.104
29495W        W94755   0.516   7.845  10.548
29496W        W94756  32.593  44.335   0.298
29497W        W94757  39.876  20.702   1.281
29498W        W94758  17.236  33.768  12.918
29499W        W94759  38.333  26.516   2.865
29500W        W94760  13.522  37.644   4.067
29501W        W94761  23.157  22.104   0.962
29502W        W94762  40.956  41.766  12.435
29503W        W94763   4.806  20.643  11.131
29504W        W94764  27.070  30.860  14.473
29505W        W94765   9.508  14.650  12.146
29506W        W94766  31.164  44.349  14.074
29507W        W94767  17.611  27.554   3.419
29508W        W94768  40.254  19.716  13.963
29509W        W94769  36.723   6.198  14.324
29510W        W94770  21.246  28.731   2.415
29511W        W94771  42.086  13.702  12.443
29512W        W94772  33.697  41.034  12.351
29513W        W94773  25.167  32.028  14.438
29514W        W94774  28.432   1.226   1.259
29515W        W94775  41.023  26.864  12.429
29516W        W94776  22.030  20.771   2.822
29517W        W94777  44.316   0.541  10.803
29518W        W94778  10.790  23.294  13.082
29519W        W94779  20.773   4.882   4.586
29520W        W94780  17.326  34.015   2.199
29521W        W94781   6.059   4.263  11.633
29522W        W94782  10.125  38.432   2.320
29523W        W94783  26.856   8.772   0.295
29524W        W94784  14.678  28.948   4.303
29525W        W94785  13.722  15.392   1.890
29526W        W94786  10.373   9.654  12.493
29527W        W94787  44.808  20.201  11.516
29528W        W94788   9.641  29.446   4.268
29529W        W94789   8.299  32.921   1.015
29530W        W94790  36.611  14.711   2.225
29531W        W94791  33.974  41.988   1.971
29532W        W94792  26.108  25.627   0.812
29533W        W94793  39.877   8.316  12.657
29534W        W94794  36.058   1.698   1.796
29535W        W94795  33.550  20.760   0.708
29536W        W94796  40.918  18.010   3.694
29537W        W94797  38.280   6.417   3.361
29538W        W94798   5.879  37.555   3.215
29539W        W94799  11.878  12.322  12.015
29540W        W94800  21.621  14.101   2.485
29541W        W94801  23.645  38.353   0.500
29542W        W94802  39.386  36.101  11.411
29543W        W94803  19.489  20.501  14.488
29544W        W94804  32.534   9.382  14.764
29545W        W94805   4.910  35.764   4.550
29546W        W94806  40.409  44.261  12.084
29547W        W94807  39.593  39.207  13.882
29548W        W94808  16.027  16.076  10.968
29549W        W94809   3.258  44.197   3.609
29550W        W94810   9.484  22.287   0.357
29551W        W94811  11.004  15.771   0.387
29552W        W94812  25.175  22.053   1.951
29553W        W94813   2.382  41.459   3.120
29554W        W94814   8.238  33.440   0.779
29555W        W94815  10.231   2.338   9.870
29556W        W94816  16.694   7.205   1.731
29557W        W94817  37.424  33.359  14.033
29558W        W94818  38.560  21.572   0.597
29559W        W94819  17.364  16.674  14.345
29560W        W94820  19.071  38.089  11.007
29561W        W94821   8.444  33.074   2.812
29562W        W94822   0.898  12.397  13.529
29563W        W94823  34.963  18.129  11.492
29564W        W94824  31.962  14.714  10.752
29565W        W94825   7.042   4.941  13.947
29566W        W94826  32.532   0.686   2.307
29567W        W94827  24.710  34.852  11.198
29568W        W94828   4.447  24.968   4.083
29569W        W94829  24.012  11.182  14.804
29570W        W94830  36.939  43.805   4.951
29571W        W94831   1.337  18.296   0.815
29572W        W94832   3.351  35.622   0.404
29573W        W94833  21.480  10.033   4.942
29574W        W94834   1.739  23.518  14.163
29575W        W94835  24.536   5.645  11.179
29576W        W94836  42.452   5.829  14.307
29577W        W94837  41.418  43.442   3.477
29578W        W94838  28.167  22.054  14.710
29579W        W94839  30.126  33.800   0.502
29580W        W94840   4.047  13.713  14.343
29581W        W94841  27.926   1.041   2.577
29582W        W94842   7.588  44.537   5.065
29583W        W94843   7.293  10.275  14.194
29584W        W94844  14.592  19.690  11.102
29585W        W94845  13.233   8.499  12.450
29586W        W94846   9.494   3.366  13.579
29587W        W94847  13.264  36.367  11.674
29588W        W94848   8.437   2.797   2.374
29589W        W94849  21.539  39.543   2.438
29590W        W94850  16.249  16.339   1.361
29591W        W94851  28.599  27.234   3.186
29592W        W94852  18.144  22.943  11.104
29593W        W94853   9.187  37.259   1.978
29594W        W94854   7.102  12.158  11.511
29595W        W94855  35.561  23.519   1.137
29596W        W94856   8.494  21.475   2.306
29597W        W94857  22.593  14.852  13.606
29598W        W94858   0.894  41.377   0.477
29599W        W94859   0.793  20.191   4.358
29600W        W94860  29.061  27.582   4.616
29601W        W94861  11.192  12.294   4.597
29602W        W94862   0.565   7.294   3.636
29603W        W94863  24.941  24.956   3.578
29604W        W94864  13.620  37.251  13.573
29605W        W94865   9.238   7.741   9.768
29606W        W94866  25.697  33.196  14.399
29607W        W94867  40.283  16.671   2.286
29608W        W94868  27.031   6.911   1.177
29609W        W94869  10.538  25.624  13.431
29610W        W94870  20.747  31.962   0.815
29611W        W94871  19.442  35.157   4.882
29612W        W94872  26.963  31.037   4.711
29613W        W94873   2.511  12.712   3.298
29614W        W94874  25.807   9.928   4.196
29615W        W94875  41.832  22.971  13.982
29616W        W94876   6.581   7.899   1.018
29617W        W94877  24.631  23.185   0.610
29618W        W94878  37.841  20.350   3.593
29619W        W94879  32.285   8.769  12.063
29620W        W94880   0.930  19.759   4.628
29621W        W94881  10.769  16.499  10.587
29622W        W94882  20.203   1.553  11.100
29623W        W94883  12.365  28.193  12.097
29624W        W94884  22.178   4.131  12.126
29625W        W94885  25.108  43.700   1.273
29626W        W94886  32.821  13.190   0.431
29627W        W94887  18.871  18.096   0.300
29628W        W94888   2.854  21.034   4.580
29629W        W94889  32.807  37.961  10.556
29630W        W94890  19.762  29.448   5.112
29631W        W94891  15.329  43.066  11.471
29632W        W94892  15.758  10.340  12.428
29633W        W94893   2.882  33.007   1.351
29634W        W94894  43.756  42.288  11.427
29635W        W94895  18.074   6.761  11.479
29636W        W94896  37.245  32.073   0.947
29637W        W94897  35.102  39.285  13.970
29638W        W94898   3.252  31.452  11.068
29639W        W94899  20.177   4.712   1.466
29640W        W94900  27.177  16.192  13.278
29641W        W94901  25.875  40.893   2.668
29642W        W94902  26.538   7.632   3.845
29643W        W94903   8.185   9.166   5.626
29644W        W94904  33.144  41.525   0.831
29645W        W94905  26.488  31.883   1.847
29646W        W94906   4.352  20.093   2.787
29647W        W94907  28.320  26.709   1.203
29648W        W94908  40.026  17.715   1.870
29649W        W94909   6.830   6.498  14.530
29650W        W94910   1.677  21.230  12.120
29651W        W94911  14.277  14.537   3.555
29652W        W94912   5.768  11.741   3.942
29653W        W94913  38.154  44.530   2.194
29654W        W94914  14.587  36.046  11.921
29655W        W94915  28.559  24.531  12.373
29656W        W94916  15.327   2.704   2.740
29657W        W94917  39.305  20.107   1.218
29658W        W94918   2.758  44.425   1.414
29659W        W94919  31.385   9.369  11.539
29660W        W94920  44.009  12.677  14.370
29661W        W94921  34.461  13.129   3.208
29662W        W94922   3.791  15.408  12.666
29663W        W94923  40.978   5.413   4.912
29664W        W94924  16.644  41.518   0.700
29665W        W94925  17.520  31.381   3.238
29666W        W94926  39.622  36.002  13.298
29667W        W94927   9.595  42.925   3.309
29668W        W94928  20.500  33.929   4.897
29669W        W94929  37.154  27.496  14.275
29670W        W94930  24.095  44.877  11.226
29671W        W94931   5.862  10.172  14.810
29672W        W94932  26.846  17.009   1.370
29673W        W94933  10.887  13.634  10.651
29674W        W94934  30.018  23.654   4.335
29675W        W94935  37.080  27.167  12.044
29676W        W94936  10.684   0.892  12.853
29677W        W94937  34.145  26.386   1.402
29678W        W94938  39.560   1.900  12.486
29679W        W94939  22.299   8.852   2.554
29680W        W94940  31.886  20.059  12.021
29681W        W94941   1.555  35.982   0.253
29682W        W94942  40.157  28.327  12.492
29683W        W94943  25.997   2.721   3.229
29684W        W94944  25.084  40.387   0.721
29685W        W94945   3.935   6.611   4.145
29686W        W94946  39.404  22.926  13.013
29687W        W94947  35.534  43.396   0.949
29688W        W94948  18.715  10.641  13.832
29689W        W94949  29.832  39.073   1.724
29690W        W94950  15.840  16.607  10.749
29691W        W94951   0.894   5.204   3.489
29692W        W94952   5.830  44.373  12.798
29693W        W94953  40.908  14.517  12.940
29694W        W94954   3.443   3.626  10.050
29695W        W94955  27.498  32.046   5.048
29696W        W94956   7.385  36.050   3.927
29697W        W94957  44.431  28.883   1.763
29698W        W94958  40.997  12.054   2.177
29699W        W94959  23.511  23.796  13.373
29700W        W94960  32.626  12.220  13.895
29701W        W94961   2.183  20.701  13.410
29702W        W94962  17.624  23.219   0.231
29703W        W94963   6.902  24.923  14.607
29704W        W94964  21.121   1.329  13.807
29705W        W94965  10.271  13.746   4.814
29706W        W94966  26.390   3.427   3.364
29707W        W94967  31.953  38.940   4.095
29708W        W94968  16.309  26.593   0.915
29709W        W94969  28.960  33.966  12.946
29710W        W94970  24.651  12.719   0.523
29711W        W94971  24.484   5.352  11.619
29712W        W94972  15.640  40.357  13.850
29713W        W94973  30.966  23.481  12.125
29714W        W94974  25.681  24.120   2.456
29715W        W94975  16.704  30.331  12.774
29716W        W94976  17.374  21.680   3.229
29717W        W94977  36.620   9.055  11.376
29718W        W94978  33.374  23.806   0.845
29719W        W94979  24.176  32.681  11.583
29720W        W94980   9.742  19.207   2.378
29721W        W94981   0.749  40.635  14.907
29722W        W94982  25.138  38.099   3.294
29723W        W94983  32.975  18.803   2.930
29724W        W94984   2.837  43.457   1.097
29725W        W94985  33.510  35.742   3.883
29726W        W94986  28.018  44.294   3.094
29727W        W94987  17.208  21.630  10.590
29728W        W94988   3.981  30.823   0.340
29729W        W94989   5.381  16.407   2.630
29730W        W94990  10.709   9.746  14.704
29731W        W94991  11.261  18.434   4.504
29732W        W94992  23.229   8.425  12.370
29733W        W94993  35.978  38.596  12.502
29734W        W94994  25.493  22.757  14.896
29735W        W94995  20.511  26.163  13.458
29736W        W94996  34.376  29.165   1.819
29737W        W94997  27.997  37.855  11.644
29738W        W94998  37.328   3.332   3.224
29739W        W94999  35.591  40.993   1.820
29740W        W95000  10.616  15.569   4.567
29741W        W95001  37.921   1.493  11.105
29742W        W95002  27.436  36.518  13.953
29743W        W95003  10.430  14.260  12.082
29744W        W95004  33.759  33.660   4.909
29745W        W95005  25.983  23.762   3.712
29746W        W95006   4.337   3.340  14.599
29747W        W95007  42.517  22.744   4.128
29748W        W95008  29.584  12.259   1.202
29749W        W95009  42.426  33.465  13.286
29750W        W95010   1.061   5.332   4.889
29751W        W95011  43.332  32.882  10.535
29752W        W95012  39.170  12.211  11.136
29753W        W95013   3.484  26.247  11.741
29754W        W95014   1.843  27.722   2.627
29755W        W95015  43.726  40.160   3.627
29756W        W95016  12.411  40.528   4.182
29757W        W95017  12.507   7.171   1.032
29758W        W95018   0.832  10.116  14.530
29759W        W95019  37.916  43.352   0.326
29760W        W95020  18.405  42.466   3.565
29761W        W95021  32.075  31.038   1.038
29762W        W95022  27.162  35.776   2.627
29763W        W95023   4.471  41.614   4.163
29764W        W95024   6.644  43.991  12.462
29765W        W95025   4.320  40.866  13.294
29766W        W95026  21.387  28.580   2.885
29767W        W95027  14.061  40.102   1.061
29768W        W95028  11.327  37.641  10.786
29769W        W95029   4.812   6.915   2.455
29770W        W95030  24.239  42.081   2.325
29771W        W95031   5.603  16.735   2.268
29772W        W95032  18.587   8.862   1.656
29773W        W95033   1.271   2.872   0.334
29774W        W95034   8.787  20.498  13.057
29775W        W95035   1.527  43.955   0.327
29776W        W95036  18.490   7.444   0.575
29777W        W95037   0.944   2.197   2.252
29778W        W95038  12.876   8.208   0.443
29779W        W95039  32.616  26.515  11.940
29780W        W95040  10.601  30.518  12.278
29781W        W95041  36.419  26.256  11.150
29782W        W95042   1.914  36.494  11.186
29783W        W95043  13.010   0.498  12.930
29784W        W95044  39.884  19.805  10.486
29785W        W95045  34.326  31.839  14.055
29786W        W95046  43.544  23.356   3.584
29787W        W95047   7.228   0.645  11.552
29788W        W95048  43.869   1.911   3.732
29789W        W95049   1.035  37.009   1.623
29790W        W95050  20.500  37.490  13.499
29791W        W95051  43.437  43.126  10.428
29792W        W95052  25.162  34.093   3.863
29793W        W95053   0.061  14.821  13.566
29794W        W95054  39.983  25.143  11.177
29795W        W95055   5.216  41.441  14.900
29796W        W95056   2.793   4.659   4.635
29797W        W95057   6.315   9.913  12.804
29798W        W95058   4.913  34.026   0.328
29799W        W95059  25.562  40.844  12.942
29800W        W95060   3.707  12.612   2.802
29801W        W95061  26.290   6.429  13.506
29802W        W95062  30.072  34.276   1.440
29803W        W95063   7.405  28.343   3.320
29804W        W95064  41.930  11.365  14.598
29805W        W95065   0.381  37.706   3.551
29806W        W95066  26.551  44.949   4.640
29807W        W95067  17.768  25.121  13.084
29808W        W95068   0.938  21.530   0.472
29809W        W95069  42.451  38.006  14.994
29810W        W95070  19.839  33.010  11.561
29811W        W95071  24.475  28.637   2.610
29812W        W95072  22.033  32.858  12.885
29813W        W95073  31.031  20.238  12.684
29814W        W95074  15.142  12.746  14.438
29815W        W95075   5.968   8.317   2.398
29816W        W95076  30.934   6.748   4.156
29817W        W95077  10.430  15.122   0.381
29818W        W95078  22.998  14.148   2.642
29819W        W95079  19.132   2.207  14.379
29820W        W95080  42.369  20.275   2.584
29821W        W95081  17.680   2.297  11.902
29822W        W95082  13.562  39.997  14.428
29823W        W95083  11.453  16.595   0.310
29824W        W95084  41.819   6.956   1.733
29825W        W95085   0.882  31.314  13.571
29826W        W95086  29.513  22.504   3.270
29827W        W95087  33.646  42.703   3.242
29828W        W95088  13.841  31.147   3.713
29829W        W95089  40.163  20.994  11.898
29830W        W95090  41.828  33.073  11.686
29831W        W95091  30.270  27.890   4.092
29832W        W95092  38.642   9.121  14.230
29833W        W95093  25.086  16.914  13.091
29834W        W95094   1.487  41.544  11.992
29835W        W95095  22.349   8.232  13.661
29836W        W95096  41.363  25.749   1.970
29837W        W95097  25.608  25.709  11.352
29838W        W95098  36.234  10.450   0.713
29839W        W95099  21.652  35.372   4.623
29840W        W95100  18.114   3.937  11.867
29841W        W95101  12.081  17.999   0.840
29842W        W95102  37.312  13.547  14.848
29843W        W95103  38.772  36.764   0.288
29844W        W95104  23.951  28.485  12.977
29845W        W95105  18.399  27.514  14.337
29846W        W95106  36.285   6.298  11.945
29847W        W95107  17.614  34.097   2.663
29848W        W95108  15.685   1.760   4.312
29849W        W95109   8.172   8.768  11.555
29850W        W95110  41.568  35.930   2.441
29851W        W95111   9.175  40.302   3.697
29852W        W95112  26.525   3.584  10.589
29853W        W95113  26.922  38.899   3.509
29854W        W95114   9.449  41.509  14.275
29855W        W95115  28.320  23.691  14.213
29856W        W95116  23.953  10.187   3.197
29857W        W95117  27.200  35.349  14.512
29858W        W95118  37.087  31.001  14.436
29859W        W95119  20.070  40.373  10.568
29860W        W95120  18.504  29.459  11.675
29861W        W95121   6.988  34.532  11.586
29862W        W95122  32.400  11.353  13.066
29863W        W95123  19.826  35.396  12.512
29864W        W95124  18.386  17.084  12.999
29865W        W95125  10.060   4.833  13.431
29866W        W95126  10.244  16.811  14.981
29867W        W95127  39.906  22.969  13.893
29868W        W95128  39.511   0.043   1.385
29869W        W95129  33.857  23.165  13.632
29870W        W95130  22.797  11.114   2.334
29871W        W95131  22.241  15.163   4.181
29872W        W95132  31.593  17.654   1.622
29873W        W95133  37.521  38.964   1.337
29874W        W95134  20.656  17.334   1.270
29875W        W95135   5.796  19.198   3.277
29876W        W95136  10.161  22.121  11.107
29877W        W95137  31.882  21.696   3.396
29878W        W95138  34.340  22.698   3.059
29879W        W95139  37.795  20.782  12.630
29880W        W95140  11.031   1.241   1.717
29881W        W95141  20.235  16.622   1.033
29882W        W95142  29.804  33.457  14.364
29883W        W95143   6.663  31.553   1.885
29884W        W95144  28.148  15.068   0.446
29885W        W95145   8.865  38.423   4.427
29886W        W95146  36.013  14.087   3.287
29887W        W95147  43.761  23.021  13.082
29888W        W95148   2.015  34.076   0.351
29889W        W95149   6.453  27.405  13.819
29890W        W95150  23.275  43.774   1.415
29891W        W95151  35.883   8.458  10.506
29892W        W95152   0.134  37.966   0.818
29893W        W95153  27.683  11.277   2.209
29894W        W95154   5.339  25.189   0.386
29895W        W95155   1.321  36.350   0.526
29896W        W95156   8.337  15.471  14.329
29897W        W95157  15.836   0.997  10.716
29898W        W95158  12.206  20.853  12.440
29899W        W95159  24.685   5.226   1.680
29900W        W95160  18.681  30.537   3.258
29901W        W95161   2.893  36.325  11.992
29902W        W95162  15.012   7.882  11.892
29903W        W95163   5.170   9.172  11.342
29904W        W95164  23.539   4.106   2.285
29905W        W95165  39.771  43.933  12.121
29906W        W95166  10.849   0.984  13.901
29907W        W95167  20.949  41.430   4.053
29908W        W95168  29.507  36.404   3.205
29909W        W95169  41.507  28.046  14.501
29910W        W95170  39.799   7.399  10.813
29911W        W95171  32.626  11.346   0.304
29912W        W95172  34.482  23.695  11.556
29913W        W95173  12.610  13.710   1.404
29914W        W95174   3.796  16.155  13.816
29915W        W95175  17.325  30.213  14.348
29916W        W95176  30.221  39.496   3.284
29917W        W95177   6.145  31.372  14.876
29918W        W95178   0.356  25.254  13.885
29919W        W95179  37.083  32.959  11.992
29920W        W95180  20.094   3.389   4.684
29921W        W95181  33.456  42.931   2.261
29922W        W95182  17.699   6.479  12.159
29923W        W95183  36.340   8.214   1.253
29924W        W95184  11.754  10.101   1.728
29925W        W95185   4.435  30.351   0.814
29926W        W95186  22.558  15.687  11.273
29927W        W95187  28.143   5.731  13.905
29928W        W95188  16.013  38.401   9.910
29929W        W95189   1.531   0.426  13.087
29930W        W95190  25.136  15.694   0.575
29931W        W95191  19.514  22.625  14.532
29932W        W95192   4.278  38.746  12.919
29933W        W95193  35.648  31.901   4.143
29934W        W95194   0.317  37.413  11.041
29935W        W95195  26.632   8.859   4.534
29936W        W95196   9.890  28.835  13.243
29937W        W95197  24.197  14.566  10.741
29938W        W95198  20.161  23.240   4.066
29939W        W95199  16.112  31.041   0.438
29940W        W95200  18.295  44.051   2.678
29941W        W95201  18.426  43.409  11.228
29942W        W95202  15.723  30.487  13.775
29943W        W95203  41.904  31.906   2.382
29944W        W95204  12.906  40.131   3.332
29945W        W95205   5.800   0.458   4.152
29946W        W95206   6.793  16.233   4.056
29947W        W95207  22.742  10.634   2.102
29948W        W95208  17.248   4.149   4.076
29949W        W95209  35.054  14.888  11.162
29950W        W95210  21.808   4.174   3.554
29951W        W95211  36.242  28.782   2.852
29952W        W95212  31.011  36.454   2.650
29953W        W95213  32.535  14.409   3.882
29954W        W95214   6.881   1.616  12.633
29955W        W95215  27.677  37.862   4.494
29956W        W95216  28.304  30.163  12.596
29957W        W95217  32.519   2.916   2.381
29958W        W95218  30.150  38.104   0.312
29959W        W95219  11.690  13.373  14.927
29960W        W95220  14.781  17.300   3.250
29961W        W95221  28.006  35.063   0.413
29962W        W95222  44.364  32.956  14.224
29963W        W95223  32.950  17.551   0.431
29964W        W95224  21.608   0.694   2.333
29965W        W95225   0.699   9.956   3.170
29966W        W95226  35.321   1.058   0.371
29967W        W95227  23.089  17.261   2.845
29968W        W95228  39.990  27.617  11.957
29969W        W95229  25.678   7.224   1.932
29970W        W95230  19.551  11.925   2.898
29971W        W95231  18.631  38.411  11.390
29972W        W95232   5.338  43.508  13.898
29973W        W95233   8.741  20.537   2.369
29974W        W95234  19.001  16.060  13.902
29975W        W95235  14.972  16.092   1.636
29976W        W95236  20.274  12.304   1.706
29977W        W95237  22.133  19.642   1.648
29978W        W95238  17.020  15.765   4.172
29979W        W95239  16.358  15.176  13.562
29980W        W95240  24.248  26.780  10.384
29981W        W95241  10.844   3.765  12.450
29982W        W95242  29.852  27.494   2.314
29983W        W95243  41.160  35.564   3.306
29984W        W95244   1.714   2.437  10.740
29985W        W95245  33.090  14.571   1.246
29986W        W95246   4.787  38.909   4.565
29987W        W95247  40.463  28.403  12.042
29988W        W95248   6.962  15.591  11.140
29989W        W95249  34.786  20.736   1.333
29990W        W95250  42.437  18.896   2.873
29991W        W95251   5.334   5.279   1.747
29992W        W95252  17.261  30.244   4.485
29993W        W95253  42.507   9.315   4.634
29994W        W95254  29.663  14.402   2.742
29995W        W95255   4.483  33.498  10.478
29996W        W95256  36.751   4.324  11.986
29997W        W95257  40.755   0.368  12.013
29998W        W95258  17.115  25.968   1.907
29999W        W95259  27.667  39.768  14.405
30000W        W95260  22.109  14.561   0.972
30001W        W95261  28.589   0.806  14.996
30002W        W95262  11.395  35.574  12.993
30003W        W95263  10.754   0.760   4.309
30004W        W95264  17.786  17.437   1.182
30005W        W95265  40.119   5.752   2.664
30006W        W95266  30.239  17.717   4.235
30007W        W95267  40.200  38.292   2.928
30008W        W95268  41.532  22.113   0.002
30009W        W95269  28.973  39.466  11.105
30010W        W95270  11.358  29.827  14.817
30011W        W95271  34.111  42.307  12.161
30012W        W95272   5.366  23.031   1.431
30013W        W95273  12.411   9.222   1.822
30014W        W95274  12.058  44.461  12.187
30015W        W95275  28.575   0.481  11.297
30016W        W95276  11.400   8.174   1.595
30017W        W95277  28.848  37.552   1.420
30018W        W95278  11.612   3.191  11.019
30019W        W95279  36.550  34.678  11.525
30020W        W95280  10.782  29.893  11.158
30021W        W95281  10.528   3.616  10.026
30022W        W95282  43.195  28.651  10.670
30023W        W95283  24.130  18.059   2.166
30024W        W95284  39.326   8.687   2.857
30025W        W95285  42.247   1.679   1.943
30026W        W95286  32.026  27.170   5.290
30027W        W95287  15.448  19.223   5.014
30028W        W95288  40.421  30.149  13.971
30029W        W95289   0.603  19.175  13.013
30030W        W95290  18.517  11.809  14.301
30031W        W95291  40.795  19.026   3.456
30032W        W95292  35.447  37.913   2.202
30033W        W95293  15.229  33.307   1.701
30034W        W95294  19.095  21.062   0.407
30035W        W95295  42.263  29.383  13.909
30036W        W95296   2.300  10.981  14.844
30037W        W95297   4.971   7.958  14.253
30038W        W95298  42.388   0.669   1.296
30039W        W95299  40.474  14.624   2.785
30040W        W95300  35.503   2.178   4.962
30041W        W95301  44.810   4.799   3.338
30042W        W95302  27.037  36.821   1.160
30043W        W95303  27.928  44.049  10.173
30044W        W95304  14.253  40.365  14.752
30045W        W95305   0.897  24.672  12.862
30046W        W95306   4.556  32.766  13.217
30047W        W95307  18.137  15.671  13.025
30048W        W95308   9.198  41.327   3.342
30049W        W95309  14.240  16.654   3.758
30050W        W95310  33.396  11.154   3.685
30051W        W95311   6.301  32.109  13.592
30052W        W95312  35.003  25.570  10.729
30053W        W95313  27.583  20.598   4.580
30054W        W95314  21.624  31.552  13.480
30055W        W95315  35.460  36.062  13.590
30056W        W95316  26.759  30.621   9.905
30057W        W95317  44.566  14.609  12.650
30058W        W95318  33.627   2.202   2.208
30059W        W95319  34.905  44.307   1.759
30060W        W95320  38.311  19.445   3.373
30061W        W95321  10.126  38.556  13.340
30062W        W95322  29.109  25.669  14.654
30063W        W95323  12.240  41.735   1.463
30064W        W95324   8.804  11.185  12.134
30065W        W95325  32.463   4.007  14.115
30066W        W95326  33.071   2.317  10.644
30067W        W95327  11.724  40.608   1.073
30068W        W95328  19.015   5.399   0.075
30069W        W95329  11.876  42.976   0.761
30070W        W95330  10.653  17.178   4.298
30071W        W95331  41.347  15.238   4.624
30072W        W95332  32.919  29.093   1.701
30073W        W95333   5.441  38.388  12.929
30074W        W95334  27.322  43.122   3.764
30075W        W95335  36.017  16.243  12.507
30076W        W95336   0.160  33.278   4.197
30077W        W95337  28.501  10.869   4.070
30078W        W95338  13.257  25.368   1.466
30079W        W95339  22.814  23.733   5.011
30080W        W95340  20.244  13.267  14.148
30081W        W95341  32.974  13.684   1.698
30082W        W95342   9.093   5.774   1.897
30083W        W95343  37.699  24.006  14.577
30084W        W95344  42.736  35.506   2.876
30085W        W95345   5.836  21.589   4.949
30086W        W95346  30.942  40.409   0.808
30087W        W95347  24.502  21.838  11.229
30088W        W95348  37.405  43.549   1.459
30089W        W95349  26.169  28.249  14.436
30090W        W95350  42.118   4.003   3.437
30091W        W95351  16.824  30.001  13.174
30092W        W95352   9.802  43.554  13.105
30093W        W95353  41.407  22.610  11.084
30094W        W95354  38.851  16.150   3.258
30095W        W95355  37.408  19.718   4.601
30096W        W95356  23.444  23.481  12.966
30097W        W95357  38.958  35.315  10.624
30098W        W95358  29.123  38.058   0.328
30099W        W95359  34.362  38.438   2.592
30100W        W95360  25.814  25.683   1.256
30101W        W95361  32.026  40.935  14.250
30102W        W95362  26.203   5.772  10.891
30103W        W95363  21.876  37.373  12.301
30104W        W95364  27.481   7.786   4.083
30105W        W95365  26.896  32.204   1.918
30106W        W95366  22.781  34.766  13.888
30107W        W95367  26.789   3.929  13.516
30108W        W95368  22.484  39.932  13.846
30109W        W95369  36.679   0.525   1.476
30110W        W95370  28.360  12.708   3.692
30111W        W95371  15.195  25.672  11.004
30112W        W95372  11.072  33.997   0.340
30113W        W95373  12.663  26.601  10.316
30114W        W95374   0.655  18.238   4.882
30115W        W95375  14.582  25.657   1.295
30116W        W95376  27.333  19.527   2.608
30117W        W95377  10.259  35.916   3.349
30118W        W95378  37.610  20.992   0.972
30119W        W95379   9.366  17.237   2.245
30120W        W95380  33.146  35.313   1.346
30121W        W95381   0.217  14.055  14.457
30122W        W95382  19.548  37.031  11.444
30123W        W95383   7.956  29.950   1.180
30124W        W95384   9.331  12.925   1.350
30125W        W95385  34.407  33.921  12.153
30126W        W95386  33.349  33.139   1.914
30127W        W95387  20.924  33.485   1.392
30128W        W95388  40.456  16.650  12.876
30129W        W95389   7.861  23.206   2.875
30130W        W95390  18.301  27.606  12.664
30131W        W95391  24.058  35.860  12.268
30132W        W95392  31.097  27.785   3.626
30133W        W95393  34.474  43.595   2.389
30134W        W95394  34.130  21.561   3.708
30135W        W95395   2.770  31.358   1.359
30136W        W95396  41.076  40.517   3.126
30137W        W95397  39.793  34.169   2.792
30138W        W95398  30.218  11.709   3.216
30139W        W95399   4.734  37.084  11.646
30140W        W95400  20.196  43.393  14.927
30141W        W95401  32.943  21.523   4.057
30142W        W95402  25.683  35.428   0.366
30143W        W95403  16.574  32.173  13.994
30144W        W95404  42.921  24.020  12.570
30145W        W95405  12.819  15.703   1.318
30146W        W95406  41.513  42.392  11.548
30147W        W95407  16.063  27.677   3.080
30148W        W95408  24.608  22.437   4.517
30149W        W95409  36.348  12.817   3.696
30150W        W95410  33.971  44.298  11.752
30151W        W95411  23.507   2.787  12.926
30152W        W95412  10.943  30.242  12.563
30153W        W95413   5.200  44.790  11.689
30154W        W95414  30.470  30.575  10.643
30155W        W95415  29.918  10.361  11.077
30156W        W95416   4.711  28.938  11.102
30157W        W95417  34.820  42.512   3.341
30158W        W95418  24.226  23.986  12.072
30159W        W95419  17.565  28.250  12.839
30160W        W95420   6.939  32.631  14.960
30161W        W95421  40.737  36.267   4.551
30162W        W95422  25.071  23.251   4.670
30163W        W95423  12.957  38.672   0.748
30164W        W95424  20.212  36.001  10.030
30165W        W95425   9.649  43.307   2.014
30166W        W95426   8.453  38.582   3.649
30167W        W95427  18.299  10.139  10.866
30168W        W95428   6.108  25.949  10.579
30169W        W95429   4.863   0.042  14.459
30170W        W95430  33.200  29.346   5.252
30171W        W95431  19.692  34.504   4.572
30172W        W95432   9.561  33.577  14.424
30173W        W95433  22.722  12.411   2.964
30174W        W95434  44.909   8.208  11.344
30175W        W95435   0.002  29.997  14.047
30176W        W95436   8.608  23.121  13.953
30177W        W95437   6.749  28.729   1.699
30178W        W95438  19.395  41.534  10.705
30179W        W95439  16.568  30.502   0.963
30180W        W95440   8.914  38.989   2.528
30181W        W95441  35.985   9.743   2.437
30182W        W95442  10.651  20.907   2.136
30183W        W95443   6.733  38.817   1.289
30184W        W95444  10.932   3.217  13.900
30185W        W95445  12.413  41.814  14.548
30186W        W95446   8.420  23.494  12.064
30187W        W95447   0.994  13.071  11.863
30188W        W95448  15.718  30.862   3.648
30189W        W95449  35.948  18.165   2.432
30190W        W95450  15.766  22.159  12.013
30191W        W95451  15.931  10.819   3.269
30192W        W95452  43.849  17.186  12.883
30193W        W95453  14.357  23.717  11.259
30194W        W95454   4.442  31.078  14.015
30195W        W95455  25.597  34.960  12.154
30196W        W95456  41.939  24.873   2.397
30197W        W95457  16.576  30.467   4.092
30198W        W95458   4.852  24.968   0.410
30199W        W95459  38.414  23.768  12.424
30200W        W95460  29.612  33.378   4.096
30201W        W95461  19.255  30.211   4.214
30202W        W95462  14.325   4.231  13.523
30203W        W95463  27.746  36.690  14.359
30204W        W95464  36.009  28.540   1.368
30205W        W95465   2.787  19.648  14.313
30206W        W95466  16.159  12.200  10.653
30207W        W95467  33.513  30.033   3.589
30208W        W95468  44.248  27.818  10.521
30209W        W95469  19.798   1.223   0.610
30210W        W95470  11.635   4.273   1.255
30211W        W95471  20.223  28.048  12.879
30212W        W95472   8.680  12.553   3.237
30213W        W95473  20.993  26.151   1.133
30214W        W95474  38.636  35.517  14.793
30215W        W95475  26.084  13.699   1.114
30216W        W95476   8.426  33.379  13.239
30217W        W95477  27.674  33.789   4.647
30218W        W95478  19.674  23.464  11.133
30219W        W95479   8.219  11.405  13.962
30220W        W95480   8.385   8.934  10.111
30221W        W95481  27.998  33.720   3.593
30222W        W95482  22.790  32.114  13.350
30223W        W95483  15.865  35.392   3.327
30224W        W95484   1.274  37.887  12.851
30225W        W95485  30.477  43.969   4.110
30226W        W95486  21.018  38.894  13.416
30227W        W95487   2.513  32.952   2.631
30228W        W95488   5.027  31.215   0.234
30229W        W95489  10.243   7.458  14.397
30230W        W95490  32.026  31.546   1.198
30231W        W95491  43.242  36.605  12.893
30232W        W95492  12.684  36.028  12.852
30233W        W95493  42.569  16.508  11.080
30234W        W95494  24.174  17.772  14.988
30235W        W95495  20.590  19.557  10.663
30236W        W95496   8.742  31.201  10.611
30237W        W95497  18.728  26.612   2.757
30238W        W95498  19.133  12.773  12.904
30239W        W95499  19.283  30.155  11.072
30240W        W95500  30.542  30.159   2.006
30241W        W95501  25.406  25.080  14.115
30242W        W95502   8.029  13.855   0.367
30243W        W95503  29.079  27.516   0.745
30244W        W95504  34.979  18.749   1.360
30245W        W95505  30.076   8.627   0.897
30246W        W95506   0.028  33.244  11.985
30247W        W95507   6.896  24.920  11.159
30248W        W95508  26.065  23.194  14.887
30249W        W95509  35.474  16.657  10.710
30250W        W95510  15.642  24.573  13.696
30251W        W95511  32.430  15.528  11.151
30252W        W95512  43.301  19.751  11.148
30253W        W95513  19.399  17.339   0.756
30254W        W95514  28.646  27.879  11.710
30255W        W95515  31.930  25.703   3.513
30256W        W95516  42.369   4.375   0.936
30257W        W95517  40.412   4.220   1.852
30258W        W95518  14.739  21.464  14.486
30259W        W95519  32.635  34.420   2.350
30260W        W95520   2.944  29.363  14.394
30261W        W95521  41.488  20.851   0.684
30262W        W95522  28.883  16.237   1.481
30263W        W95523  34.407  37.037   1.218
30264W        W95524  34.657  40.772   4.483
30265W        W95525   2.034   9.951   3.232
30266W        W95526  35.421   2.516   1.778
30267W        W95527  27.947  34.447  14.946
30268W        W95528  37.291  42.689   5.210
30269W        W95529  39.565  37.989  14.469
30270W        W95530  28.954  41.619  12.524
30271W        W95531   3.248  41.805   1.697
30272W        W95532  37.337  16.566   2.334
30273W        W95533   1.524  42.271   4.250
30274W        W95534  13.533  44.925   1.718
30275W        W95535  41.523   5.745   3.804
30276W        W95536  10.841  31.554   2.813
30277W        W95537  19.442  19.702  13.257
30278W        W95538  43.409   5.372   0.473
30279W        W95539  23.448  14.869  11.266
30280W        W95540  24.093  30.310   4.337
30281W        W95541   9.557  44.472  12.362
30282W        W95542  22.297  25.474  13.023
30283W        W95543  14.739   1.307   2.202
30284W        W95544   7.791  41.564  10.609
30285W        W95545  16.788   3.369   2.240
30286W        W95546  30.990   5.807   4.147
30287W        W95547  31.446  33.112  13.842
30288W        W95548  29.985  43.769   2.733
30289W        W95549   6.758  17.086  12.348
30290W        W95550  28.015  34.181  12.099
30291W        W95551  11.063  10.092  14.820
30292W        W95552   8.601  33.664  13.969
30293W        W95553  23.724  17.213  13.100
30294W        W95554   4.963   8.621  12.155
30295W        W95555  34.583  16.780  12.573
30296W        W95556   2.344  35.607   0.366
30297W        W95557   0.870  17.646  12.585
30298W        W95558   6.847  33.967  12.887
30299W        W95559  38.417  43.285  13.802
30300W        W95560  43.541  16.103  11.510
30301W        W95561  34.688  27.756   3.005
30302W        W95562  40.666  29.012  11.650
30303W        W95563  40.887   0.879  12.586
30304W        W95564   9.134  20.324   3.782
30305W        W95565  44.897  10.346  12.035
30306W        W95566  13.050  12.832  11.512
30307W        W95567  29.722  36.979   2.815
30308W        W95568  28.095  34.117  14.073
30309W        W95569   1.759  15.341   2.223
30310W        W95570   1.958  25.383  13.265
30311W        W95571  13.667  15.353  13.535
30312W        W95572   5.614  28.285   3.611
30313W        W95573  27.566  13.315  13.964
30314W        W95574  35.462  27.068  13.865
30315W        W95575  15.037  22.637  11.109
30316W        W95576   7.376  36.162   2.718
30317W        W95577  43.482  39.912  14.842
30318W        W95578  42.518  19.290  14.038
30319W        W95579  35.440   1.945  13.982
30320W        W95580  39.847  35.895  11.474
30321W        W95581  27.535  30.641  11.594
30322W        W95582  40.206   3.120   2.933
30323W        W95583   5.221  41.265   4.875
30324W        W95584  28.882  14.665  13.944
30325W        W95585  29.554  37.555  12.072
30326W        W95586  18.618   9.984  12.547
30327W        W95587  32.528  18.547  12.576
30328W        W95588  29.706  29.516   0.547
30329W        W95589  32.117  30.852   3.668
30330W        W95590  26.217  27.071   3.300
30331W        W95591  19.704  15.863   3.698
30332W        W95592  39.783  28.615   4.137
30333W        W95593  37.440  35.355   2.917
30334W        W95594  18.038  28.425  11.920
30335W        W95595  30.452  17.850  11.635
30336W        W95596   4.842   3.388  14.499
30337W        W95597  38.352  12.581   1.876
30338W        W95598  36.852  29.527  14.232
30339W        W95599  13.058   2.284  13.912
30340W        W95600  17.054  40.881   2.792
30341W        W95601   4.437  36.325  12.057
30342W        W95602  21.003  23.487  11.198
30343W        W95603  23.753   0.861   0.919
30344W        W95604  32.847  27.241  13.962
30345W        W95605  22.668  20.646   2.421
30346W        W95606  26.154  11.366   2.886
30347W        W95607  27.141  44.773  13.527
30348W        W95608  41.744  18.302  12.167
30349W        W95609   9.178  42.083   2.583
30350W        W95610  25.110  39.276   3.788
30351W        W95611  42.333  30.012  10.581
30352W        W95612   4.910  19.509   2.309
30353W        W95613  28.132  14.356  12.033
30354W        W95614  12.725  14.056   2.818
30355W        W95615  11.582  11.690  14.100
30356W        W95616  42.943  12.682  14.990
30357W        W95617  11.263  38.083   4.115
30358W        W95618  13.378  41.328   0.888
30359W        W95619  22.167   2.815   1.736
30360W        W95620   4.909   9.489  12.501
30361W        W95621  23.278   4.353   1.165
30362W        W95622  32.789   7.766  14.802
30363W        W95623  10.169  28.572   4.462
30364W        W95624  14.142  30.364  10.825
30365W        W95625  25.095   9.576   2.208
30366W        W95626  33.068  14.798   3.365
30367W        W95627   1.999   6.418   2.674
30368W        W95628  10.166  43.564   2.103
30369W        W95629  27.197  27.412   1.727
30370W        W95630  39.974  42.398   0.485
30371W        W95631  20.063  24.083   3.720
30372W        W95632  10.653  41.375   0.507
30373W        W95633  10.251   3.891   2.275
30374W        W95634   0.010  14.876  12.631
30375W        W95635  23.193  27.696  11.359
30376W        W95636   2.969  21.261  11.061
30377W        W95637  41.914   9.292  13.627
30378W        W95638  23.037  12.321  13.880
30379W        W95639  29.955  43.631  11.155
30380W        W95640  34.560  43.762   3.383
30381W        W95641  26.916  31.151  14.891
30382W        W95642  43.313   9.462   5.089
30383W        W95643  10.853  25.042  14.340
30384W        W95644  14.926  43.847  10.631
30385W        W95645  33.087  12.697  12.545
30386W        W95646   1.377  21.678  11.407
30387W        W95647  44.861  41.333  12.457
30388W        W95648  25.226  15.117  12.023
30389W        W95649   4.579  35.594  11.241
30390W        W95650  16.653  41.346   2.313
30391W        W95651  24.690  13.924  12.361
30392W        W95652  38.383  18.593  12.590
30393W        W95653  32.349  29.583   3.998
30394W        W95654  24.026  11.608   1.537
30395W        W95655   5.481  30.970   4.262
30396W        W95656   9.753  13.193  10.550
30397W        W95657  14.550  25.604   4.791
30398W        W95658  29.970  18.107  14.265
30399W        W95659  33.396   2.412  11.091
30400W        W95660  25.253  17.150  10.681
30401W        W95661  44.048  25.801  14.307
30402W        W95662   0.341  40.423  10.771
30403W        W95663  29.481  17.743  13.046
30404W        W95664   8.580   5.130   1.527
30405W        W95665   6.794  37.622   0.212
30406W        W95666  41.091  29.243  14.479
30407W        W95667  43.179  31.821   1.289
30408W        W95668  27.464  28.994  12.854
30409W        W95669  27.904  23.570  10.500
30410W        W95670  27.152   5.358   1.500
30411W        W95671  41.329   8.780   4.131
30412W        W95672  26.624   6.405   3.204
30413W        W95673  40.879  24.437  14.056
30414W        W95674  35.900  16.514   3.837
30415W        W95675   0.447  40.884  14.070
30416W        W95676  37.937  17.085   2.674
30417W        W95677  33.986   1.610   5.192
30418W        W95678   4.935  36.390   0.255
30419W        W95679  33.516  42.444   4.502
30420W        W95680  11.074  21.856  10.543
30421W        W95681  43.389   1.275   3.799
30422W        W95682  18.313  40.953  14.378
30423W        W95683  13.676  44.992  10.449
30424W        W95684   4.836  30.407  12.403
30425W        W95685   3.208  27.436   0.796
30426W        W95686   6.615  29.071  13.506
30427W        W95687   4.805  31.742   2.040
30428W        W95688   9.791  12.112  10.526
30429W        W95689  23.457  34.319  11.126
30430W        W95690  10.545  30.985  13.337
30431W        W95691  13.552  39.443  13.797
30432W        W95692  21.557  39.086   2.169
30433W        W95693  15.628   0.291  14.881
30434W        W95694   0.082  40.380   3.303
30435W        W95695  42.392  24.171  12.412
30436W        W95696  30.810  33.220  11.453
30437W        W95697  36.353  10.692  13.008
30438W        W95698  30.721   0.361   4.917
30439W        W95699  34.427  41.160   4.176
30440W        W95700  42.930  14.809   0.384
30441W        W95701  36.398  19.493  13.253
30442W        W95702   3.953  17.346   3.245
30443W        W95703  44.855   2.881   1.900
30444W        W95704   3.751   0.422   0.725
30445W        W95705  30.716  11.569   3.256
30446W        W95706   0.722  40.489  10.064
30447W        W95707  29.488  14.318  14.076
30448W        W95708  23.976  44.429  14.026
30449W        W95709  34.173  37.864   0.881
30450W        W95710  14.171   1.187   4.400
30451W        W95711  33.846  36.731  12.570
30452W        W95712  43.084  30.533  10.567
30453W        W95713  26.972  33.663   1.881
30454W        W95714  14.974  28.976  13.359
30455W        W95715  34.407   7.987   0.418
30456W        W95716   5.956  24.098   0.524
30457W        W95717  42.481  28.216   1.192
30458W        W95718  41.552   4.156  13.513
30459W        W95719   2.639  28.735  13.531
30460W        W95720  25.019  38.474   1.822
30461W        W95721  44.880   3.150   3.625
30462W        W95722  18.549   8.524   3.122
30463W        W95723  40.878  28.569   0.933
30464W        W95724  26.676  38.998   2.089
30465W        W95725  37.314  16.782   0.731
30466W        W95726  36.864  28.625   3.309
30467W        W95727   4.909   8.957   2.130
30468W        W95728  44.791   6.276   0.950
30469W        W95729  32.136  27.043   3.763
30470W        W95730   1.289  22.219  10.630
30471W        W95731  32.601  38.859   1.944
30472W        W95732  27.955  31.995  10.617
30473W        W95733  24.636  14.224  11.904
30474W        W95734  18.252   7.978  12.062
30475W        W95735  39.032  39.268  11.984
30476W        W95736  16.248   7.935   3.192
30477W        W95737  36.918  43.819   4.089
30478W        W95738  26.880  17.750   0.850
30479W        W95739   4.131  18.978   0.825
30480W        W95740  44.914  20.319   3.600
30481W        W95741  41.823  20.621   2.679
30482W        W95742  21.637  12.201   4.007
30483W        W95743  35.096  17.091  14.034
30484W        W95744  15.838  12.041  12.946
30485W        W95745   5.238  26.273  11.007
30486W        W95746   5.467   6.767  13.776
30487W        W95747  18.879  27.585   4.211
30488W        W95748   6.213   4.895  10.633
30489W        W95749  41.784  13.985  12.114
30490W        W95750   7.318  11.157   4.639
30491W        W95751  20.487  35.431  14.214
30492W        W95752  33.184  16.714   3.163
30493W        W95753  28.777   4.651  12.811
30494W        W95754  17.722  25.452  14.041
30495W        W95755   2.102   0.668  10.694
30496W        W95756  22.518  31.898  12.942
30497W        W95757  37.792  31.535  11.506
30498W        W95758  23.831   6.321   2.803
30499W        W95759  39.496   0.420  13.790
30500W        W95760  14.028  20.169  14.286
30501W        W95761  25.658   1.351  12.894
30502W        W95762  20.195  33.156  14.837
30503W        W95763   0.294  20.174   1.287
30504W        W95764  35.305   0.304  10.312
30505W        W95765   5.187   9.737  14.192
30506W        W95766   7.423  23.048   2.236
30507W        W95767  28.331  30.069  14.531
30508W        W95768  11.673  20.219   2.895
30509W        W95769   4.384   1.931   4.817
30510W        W95770   6.788  27.462   2.274
30511W        W95771  14.830   5.750   1.279
30512W        W95772  23.669  22.148  11.703
30513W        W95773  22.486   1.825   4.979
30514W        W95774  37.626  22.590   4.091
30515W        W95775  43.216  37.140  12.931
30516W        W95776   5.953  38.833   3.818
30517W        W95777  44.892   7.766  11.060
30518W        W95778  42.219   5.964   3.302
30519W        W95779  34.502   0.545   4.822
30520W        W95780  30.457  10.530   4.510
30521W        W95781   0.016  37.656   0.403
30522W        W95782   8.132   8.862   1.751
30523W        W95783   6.244   0.354   1.032
30524W        W95784  17.990  36.518   0.830
30525W        W95785   3.394   0.135  12.809
30526W        W95786   3.532  17.316   4.151
30527W        W95787   1.558   0.959   4.034
30528W        W95788  32.494  33.326   3.673
30529W        W95789  20.663   0.037   2.884
30530W        W95790  27.764  26.132  10.889
30531W        W95791  40.272  33.452  10.445
30532W        W95792   4.674  36.540  11.635
30533W        W95793   2.514  39.868   2.798
30534W        W95794  31.867  36.914   3.364
30535W        W95795   6.003  28.693   5.493
30536W        W95796  19.651   0.953  11.459
30537W        W95797  20.657  21.196   1.641
30538W        W95798  14.160  21.988  12.102
30539W        W95799  42.271  38.919  13.302
30540W        W95800  36.103  10.285  11.136
30541W        W95801  10.162   3.871  13.450
30542W        W95802  15.007  20.790   1.769
30543W        W95803  30.390   0.932  13.895
30544W        W95804  10.768  43.430  11.692
30545W        W95805  29.014  38.634   0.945
30546W        W95806  42.861  30.833   4.222
30547W        W95807   8.520  21.668  11.496
30548W        W95808  34.922  20.119  13.525
30549W        W95809  31.372  41.057  13.544
30550W        W95810  21.609  38.482   0.530
30551W        W95811  43.167  22.414  12.199
30552W        W95812  43.281  29.543   3.251
30553W        W95813  23.093  34.383   9.817
30554W        W95814   9.147  10.638  14.317
30555W        W95815  14.796  17.658   0.007
30556W        W95816  26.655  19.273   9.867
30557W        W95817  25.271  22.686   4.095
30558W        W95818  28.301  24.568  10.920
30559W        W95819   7.238  27.834  14.402
30560W        W95820  19.163  44.846   0.974
30561W        W95821  25.612   1.636  10.015
30562W        W95822  36.781   9.889  11.276
30563W        W95823  19.800  33.304  12.509
30564W        W95824  32.132   9.553  12.924
30565W        W95825  10.777  31.020  10.543
30566W        W95826   8.212   4.413  11.989
30567W        W95827  30.809  17.127   2.633
30568W        W95828  35.994  27.125   4.448
30569W        W95829  16.797  10.735   1.674
30570W        W95830  22.138  19.204  13.023
30571W        W95831  15.873  29.407  12.011
30572W        W95832  24.110  10.842  11.942
30573W        W95833  11.744   5.189   2.349
30574W        W95834   9.890   8.909   1.934
30575W        W95835  15.141  19.173   2.230
30576W        W95836   2.050  44.537  12.967
30577W        W95837  25.513  34.802   3.143
30578W        W95838   4.433  41.535  12.676
30579W        W95839  36.013   4.907   1.262
30580W        W95840  42.065  44.439   2.722
30581W        W95841  15.254  32.417   4.532
30582W        W95842  19.642  41.361   3.368
30583W        W95843   2.442  21.805   4.237
30584W        W95844  14.856  20.541  12.346
30585W        W95845  21.680   5.962  12.583
30586W        W95846  16.038   2.981  11.623
30587W        W95847  11.395  14.801   1.715
30588W        W95848  40.469  29.718   1.292
30589W        W95849  43.958  32.149  10.411
30590W        W95850  30.632  35.108   1.779
30591W        W95851  27.295   0.962  11.553
30592W        W95852  26.235  10.160   5.213
30593W        W95853   3.150  31.824  14.685
30594W        W95854  37.278   3.046   5.065
30595W        W95855  35.112  21.456   0.471
30596W        W95856  44.983  30.152   3.171
30597W        W95857  23.577  20.316  12.813
30598W        W95858  19.220  36.828  14.990
30599W        W95859  39.098  28.138  10.713
30600W        W95860  26.126  12.666   3.656
30601W        W95861  18.594  19.695  12.783
30602W        W95862  38.853   2.431   4.600
30603W        W95863  38.278  15.064  11.473
30604W        W95864  39.862  23.090  14.946
30605W        W95865  39.835  15.282  13.648
30606W        W95866  16.706  41.928  11.576
30607W        W95867   7.382  11.510   1.182
30608W        W95868  29.269  33.891  14.863
30609W        W95869  24.260   7.094  12.422
30610W        W95870  44.541  14.685   2.808
30611W        W95871   6.529  36.076  12.532
30612W        W95872  23.519  14.190   2.719
30613W        W95873  23.151  34.303   5.179
30614W        W95874   7.640   5.936  12.520
30615W        W95875  16.723  30.631  14.912
30616W        W95876   2.982  43.351  14.580
30617W        W95877   8.501  17.205   4.740
30618W        W95878  41.459  18.660   3.263
30619W        W95879  24.460  42.293  12.056
30620W        W95880   4.454  40.873  14.887
30621W        W95881  34.722  25.096  13.723
30622W        W95882   8.129   7.679   3.370
30623W        W95883  28.390   4.173   3.168
30624W        W95884   5.393  16.083   4.218
30625W        W95885  22.332   9.775   3.718
30626W        W95886  44.741  39.187  11.929
30627W        W95887  31.154  34.085   3.367
30628W        W95888  12.209   4.014  13.054
30629W        W95889   6.639  15.364   2.693
30630W        W95890  23.583  11.967  11.667
30631W        W95891  31.566  13.211   0.847
30632W        W95892  42.418   4.872   4.937
30633W        W95893  12.557   3.927  10.748
30634W        W95894  10.258  11.717  13.557
30635W        W95895  33.942   8.727   4.086
30636W        W95896  28.103   1.968   2.618
30637W        W95897  25.760   0.253   3.619
30638W        W95898  27.983  20.493   0.383
30639W        W95899  38.855  35.434   2.352
30640W        W95900  34.529  33.507  10.914
30641W        W95901  44.888  29.073  11.199
30642W        W95902   7.165  31.535  12.748
30643W        W95903  14.205  16.253  14.818
30644W        W95904   6.338  38.851   2.148
30645W        W95905  20.246  38.469   2.813
30646W        W95906  34.867  23.133  10.766
30647W        W95907  19.839   0.862   1.694
30648W        W95908  20.570  27.167  13.444
30649W        W95909  19.297  36.305  14.973
30650W        W95910   1.906  26.003  12.623
30651W        W95911  22.211  24.106  12.011
30652W        W95912  38.494  34.574   2.604
30653W        W95913  44.306   1.715   1.773
30654W        W95914  14.880  35.064   5.039
30655W        W95915  22.591  44.581   0.402
30656W        W95916  26.353  36.937  12.519
30657W        W95917  27.007  10.594  13.408
30658W        W95918  13.686  40.430   0.921
30659W        W95919  36.546  36.515  11.124
30660W        W95920  24.871  17.943  11.189
30661W        W95921  42.018   0.201   0.856
30662W        W95922  43.856   7.131   1.253
30663W        W95923  11.639  40.995  14.479
30664W        W95924   2.505  23.015  10.037
30665W        W95925  19.584   0.432   2.844
30666W        W95926  30.498  22.684  14.047
30667W        W95927   0.268  33.130  12.507
30668W        W95928  26.141  38.438   3.448
30669W        W95929   8.865  16.178  10.897
30670W        W95930  33.564  22.083   0.235
30671W        W95931  19.523  31.036  10.429
30672W        W95932  16.728  27.890  12.841
30673W        W95933   6.185  23.339   3.408
30674W        W95934  23.714  42.546  10.697
30675W        W95935  44.364   1.329  11.872
30676W        W95936  41.321  39.041  13.351
30677W        W95937  30.460  31.034   4.212
30678W        W95938  17.571  23.602   0.662
30679W        W95939  40.936   1.857   1.583
30680W        W95940   4.921  20.869  11.591
30681W        W95941   4.416  30.464  11.975
30682W        W95942  30.132   3.866   4.257
30683W        W95943  42.263  14.118  11.675
30684W        W95944  38.816  12.240  14.765
30685W        W95945  14.163   9.349   1.270
30686W        W95946  41.260   0.715  13.338
30687W        W95947  16.606  35.119   1.810
30688W        W95948  14.965   8.149  12.688
30689W        W95949  18.986  11.664  12.823
30690W        W95950   5.991  21.427  13.592
30691W        W95951  21.203  44.455   0.699
30692W        W95952  15.841  15.609  11.118
30693W        W95953  36.611  44.704  10.670
30694W        W95954   7.059  41.830   4.711
30695W        W95955  33.087  35.632  11.020
30696W        W95956  10.591  33.451  13.419
30697W        W95957  29.417  29.601  11.520
30698W        W95958  44.008  17.625  11.535
30699W        W95959  31.611  41.919   0.188
30700W        W95960  34.531  30.535  14.068
30701W        W95961  20.729  27.941   3.107
30702W        W95962  18.761  16.970   1.351
30703W        W95963  34.407  34.767   4.552
30704W        W95964  34.323  44.868   2.181
30705W        W95965  40.465  15.808  14.822
30706W        W95966  29.395  21.008  14.926
30707W        W95967  27.125  23.290   3.159
30708W        W95968   3.321   8.572  13.951
30709W        W95969  33.949  34.018   4.404
30710W        W95970  13.338  18.318   3.731
30711W        W95971  25.468   0.880  12.736
30712W        W95972  16.828   7.623  14.901
30713W        W95973  44.498  23.612  10.587
30714W        W95974  11.591  33.498   5.126
30715W        W95975  26.031  39.908  10.420
30716W        W95976  12.852  24.011   4.803
30717W        W95977  38.816  44.248  11.542
30718W        W95978   9.766  36.054   1.891
30719W        W95979  23.728   5.805  13.425
30720W        W95980  28.997  44.362  14.214
30721W        W95981  31.424  17.151   4.078
30722W        W95982  38.798  37.060  14.791
30723W        W95983  20.781   1.254  12.991
30724W        W95984  44.349  44.709   4.103
30725W        W95985  16.624  10.195   3.818
30726W        W95986  22.503  27.650   3.165
30727W        W95987  41.261  19.976  13.936
30728W        W95988  38.547  35.847   1.354
30729W        W95989  33.912  36.955   4.209
30730W        W95990   2.520  29.455   4.206
30731W        W95991  14.870  24.887   4.010
30732W        W95992  29.549  11.481  11.165
30733W        W95993  24.624  38.624   9.804
30734W        W95994   8.259  34.948   2.387
30735W        W95995  28.706   2.788   1.174
30736W        W95996  23.759  24.039  11.590
30737W        W95997  33.866  31.851   2.882
30738W        W95998  15.198  15.370  10.564
30739W        W95999   8.976  18.814   1.742
30740W        W96000   9.304   4.193  14.820
30741W        W96001   7.837  30.034   3.443
30742W        W96002  13.518  34.094   4.154
30743W        W96003   6.386  40.054   2.845
30744W        W96004  13.682  16.209  14.268
30745W        W96005  22.389  12.386   3.358
30746W        W96006   7.481  41.567  13.593
30747W        W96007  43.873  36.867   0.448
30748W        W96008   2.300  30.120   0.391
30749W        W96009   2.727  37.568   4.675
30750W        W96010  40.374  19.699   4.559
30751W        W96011  39.089  38.913   3.557
30752W        W96012  17.998  22.284   3.624
30753W        W96013  24.645  33.955  11.067
30754W        W96014  22.201   5.444  11.925
30755W        W96015  20.355  20.956   2.005
30756W        W96016   4.164  11.345   3.216
30757W        W96017  37.354  18.742   1.610
30758W        W96018  21.099  33.194  14.440
30759W        W96019  25.137  32.852  11.653
30760W        W96020   3.181  23.164  12.137
30761W        W96021  31.703   6.679   2.305
30762W        W96022   3.734  38.848  12.441
30763W        W96023   5.488   9.885  13.809
30764W        W96024  16.179  29.454  13.295
30765W        W96025  29.940   6.723  12.575
30766W        W96026  40.858   3.696   0.491
30767W        W96027  26.873   2.498   2.730
30768W        W96028  23.811  43.293  13.596
30769W        W96029  20.806   7.160   2.642
30770W        W96030  32.089  18.329   0.195
30771W        W96031  15.725  36.871   0.789
30772W        W96032  32.122  33.472   3.332
30773W        W96033  26.420  35.603  11.191
30774W        W96034  35.321   8.607   4.075
30775W        W96035  24.213   3.700  11.189
30776W        W96036  42.483   8.248   4.506
30777W        W96037   4.264   0.181  14.305
30778W        W96038  23.238   5.899   4.000
30779W        W96039  37.551  30.664  12.731
30780W        W96040   3.921  28.057  12.272
30781W        W96041  17.539   3.751  12.600
30782W        W96042  36.464  36.861  11.963
30783W        W96043  18.632   7.175  11.555
30784W        W96044   9.177  28.996   0.389
30785W        W96045  33.065   3.028  11.965
30786W        W96046  36.133  22.215   0.340
30787W        W96047   0.481  12.834   0.727
30788W        W96048  19.593  38.037  11.476
30789W        W96049  39.055  34.941   3.362
30790W        W96050  32.743  17.737  14.559
30791W        W96051  24.702   1.810   3.165
30792W        W96052  19.976  37.978   4.841
30793W        W96053  38.461   3.860   3.142
30794W        W96054  44.479  38.414  13.217
30795W        W96055  28.251  28.570   3.138
30796W        W96056  34.078  44.429   3.297
30797W        W96057  21.195  37.900   3.285
30798W        W96058  41.248  25.025  12.793
30799W        W96059   4.441   3.801  12.398
30800W        W96060  41.582  37.542   3.488
30801W        W96061   9.806  44.262   1.639
30802W        W96062  38.570   5.294   1.130
30803W        W96063  25.096  21.156   3.059
30804W        W96064  11.265  10.835   9.729
30805W        W96065  13.545  32.526   4.622
30806W        W96066  40.937  14.659   1.623
30807W        W96067   7.752  11.896   5.004
30808W        W96068  38.376  14.178  14.798
30809W        W96069  43.376  31.732  10.357
30810W        W96070  12.847  18.139  13.339
30811W        W96071  40.944  32.859   4.429
30812W        W96072  24.780  24.548  14.426
30813W        W96073  24.697  26.516  10.377
30814W        W96074   1.013  15.326  11.614
30815W        W96075  44.862  24.449  11.541
30816W        W96076  33.353  38.771  13.306
30817W        W96077  12.358  38.355   0.405
30818W        W96078  11.723  42.832   0.265
30819W        W96079  13.736   2.996   2.694
30820W        W96080   0.948  19.213  14.685
30821W        W96081  41.451  27.095   4.526
30822W        W96082  40.035  19.338   4.354
30823W        W96083  21.135   0.785   1.952
30824W        W96084  16.982   0.858   2.400
30825W        W96085  44.508  12.204  13.118
30826W        W96086  20.029   5.822  13.994
30827W        W96087   9.831   2.089   4.863
30828W        W96088  25.438  35.167  13.627
30829W        W96089  16.327  41.341  11.879
30830W        W96090  10.251   2.239   2.345
30831W        W96091  44.538  38.174  14.887
30832W        W96092  19.990  35.892  12.506
30833W        W96093   4.189  44.529  12.430
30834W        W96094  17.092  36.019   4.046
30835W        W96095  35.110   0.768  13.083
30836W        W96096  21.307  44.945  14.346
30837W        W96097  24.430   1.843   4.171
30838W        W96098   3.995  18.718  11.985
30839W        W96099  29.149  21.269   3.244
30840W        W96100   8.330  36.267   1.785
30841W        W96101   0.239  40.880  10.506
30842W        W96102  33.182  42.757  12.966
30843W        W96103  20.584  30.376   2.237
30844W        W96104  12.324  15.402  12.969
30845W        W96105  33.922  16.731  10.680
30846W        W96106  24.448  15.274  11.496
30847W        W96107  16.740   6.595   0.781
30848W        W96108   4.399  27.508   3.794
30849W        W96109  28.743   9.181   2.599
30850W        W96110  11.888  35.487  14.438
30851W        W96111  23.223   1.974  12.471
30852W        W96112  38.099   7.359  13.920
30853W        W96113  25.999  18.150  11.955
30854W        W96114  30.335  24.551  13.875
30855W        W96115  44.236  43.000  11.690
30856W        W96116   7.658  30.595  12.156
30857W        W96117  16.320   0.241  14.456
30858W        W96118  15.056  11.339   0.936
30859W        W96119  34.861  21.026   3.824
30860W        W96120  10.722  29.560  12.004
30861W        W96121   4.964  36.480  14.225
30862W        W96122   8.657  19.558   3.286
30863W        W96123  27.685   6.730  12.884
30864W        W96124  43.491  30.946  13.451
30865W        W96125  18.342   4.945  13.348
30866W        W96126  42.552  18.287  10.722
30867W        W96127   5.960  29.622   0.777
30868W        W96128  41.776   3.986   1.698
30869W        W96129  14.027  14.752  12.601
30870W        W96130   4.354  39.038  12.480
30871W        W96131  18.190  33.086   1.874
30872W        W96132  32.774  10.552  10.214
30873W        W96133  39.047  23.967  13.905
30874W        W96134   7.454  15.743   2.343
30875W        W96135  21.379  13.239   0.354
30876W        W96136  38.070  38.090  13.002
30877W        W96137  39.136  22.579   4.550
30878W        W96138  32.605  13.383   1.936
30879W        W96139   8.735  21.055  11.027
30880W        W96140  20.206  43.694   2.828
30881W        W96141  11.376  15.726  12.187
30882W        W96142  36.616  37.020   3.815
30883W        W96143  35.514  38.092  13.128
30884W        W96144   9.721   8.302   3.714
30885W        W96145   0.477   6.230  14.920
30886W        W96146  27.129  16.706  13.214
30887W        W96147  30.214  44.921   1.413
30888W        W96148  18.738  34.993  13.983
30889W        W96149  43.398  26.375  10.039
30890W        W96150  11.652  37.497   1.430
30891W        W96151  11.920  23.835  11.191
30892W        W96152   0.382  37.491  14.697
30893W        W96153  18.417   4.795  10.719
30894W        W96154  12.755  42.488   2.431
30895W        W96155  31.034  25.920  13.018
30896W        W96156  21.191  21.775   0.742
30897W        W96157  44.922  26.179   3.989
30898W        W96158  25.494  36.459   0.353
30899W        W96159  15.898  37.009   1.635
30900W        W96160  31.177  17.544   3.779
30901W        W96161   8.258  41.639   2.336
30902W        W96162  13.067  34.535  14.359
30903W        W96163   0.716  19.227  11.844
30904W        W96164  25.638  42.358   4.897
30905W        W96165  21.591  42.480   4.278
30906W        W96166  37.479  41.295  12.672
30907W        W96167  20.569   4.635   1.799
30908W        W96168  35.930  26.233   2.777
30909W        W96169  30.414   8.131   1.496
30910W        W96170  13.866  18.593   2.212
30911W        W96171  27.850  37.291   1.137
30912W        W96172  41.371  18.669   4.730
30913W        W96173  36.783  25.711  11.187
30914W        W96174  43.330  37.618  13.117
30915W        W96175  33.316  31.690  12.791
30916W        W96176  33.074   7.046   2.338
30917W        W96177  22.038  32.085   2.860
30918W        W96178  37.065  42.873  12.877
30919W        W96179   6.388  36.960  14.096
30920W        W96180  10.910  16.823   2.832
30921W        W96181  12.451   6.317  14.984
30922W        W96182   2.761  27.102   2.130
30923W        W96183   3.654   4.726   3.846
30924W        W96184  14.238  20.704   0.132
30925W        W96185  32.407  35.037  12.698
30926W        W96186  24.474  26.109   2.425
30927W        W96187  43.238  10.146  14.419
30928W        W96188  41.769   8.784   1.732
30929W        W96189  20.792  21.242   4.501
30930W        W96190  13.730  33.384  14.804
30931W        W96191  36.234  35.196   4.580
30932W        W96192   9.745  27.931   1.711
30933W        W96193  19.192  33.581   4.953
30934W        W96194  42.796  22.631   1.375
30935W        W96195  23.445  43.986  10.489
30936W        W96196   0.357   5.449  14.238
30937W        W96197  33.304  41.973   2.641
30938W        W96198  44.834   4.783   0.510
30939W        W96199  34.138  11.787  14.423
30940W        W96200  16.222  41.056   2.202
30941W        W96201  20.455  12.743   3.171
30942W        W96202  15.911  39.015   4.698
30943W        W96203  27.879  32.406   3.400
30944W        W96204  11.150   8.364   2.549
30945W        W96205  21.186  42.995  11.611
30946W        W96206  38.093  41.800   0.373
30947W        W96207  12.638   6.133  13.591
30948W        W96208  35.204  44.454   1.313
30949W        W96209  35.002  43.364  12.435
30950W        W96210   0.317  30.269   2.334
30951W        W96211   0.098   8.201   5.715
30952W        W96212  44.815  15.744  12.795
30953W        W96213  26.559  15.436  13.616
30954W        W96214  41.101  16.212  11.046
30955W        W96215   5.915   0.928   1.657
30956W        W96216  19.813   1.718  14.366
30957W        W96217  18.949  11.142   3.710
30958W        W96218   6.697  24.929   0.940
30959W        W96219  33.119  24.656   2.205
30960W        W96220  14.720  12.287   2.165
30961W        W96221  26.948  18.559   1.771
30962W        W96222  34.876  23.503   3.245
30963W        W96223  22.134  43.779   1.336
30964W        W96224   0.504  14.453  11.850
30965W        W96225  20.197  38.560   9.766
30966W        W96226  34.316  18.023   1.029
30967W        W96227   9.727   0.448   2.145
30968W        W96228  27.126  39.864   2.653
30969W        W96229  37.082  43.305   4.095
30970W        W96230  14.812  20.115  10.243
30971W        W96231  22.778  28.672   4.129
30972W        W96232  34.013  27.620  13.392
30973W        W96233   6.710  11.423   0.358
30974W        W96234  19.197  23.881   4.150
30975W        W96235  12.238  24.770   1.693
30976W        W96236  38.903  25.353   0.505
30977W        W96237  36.226  20.860  10.707
30978W        W96238  24.254  42.258   0.452
30979W        W96239   5.790  31.815   4.166
30980W        W96240  20.998  34.476   1.393
30981W        W96241  16.994  42.420  12.403
30982W        W96242  17.599  27.939   3.800
30983W        W96243  13.925  23.541  11.569
30984W        W96244   8.930  13.606  10.690
30985W        W96245  31.208  37.972   1.223
30986W        W96246  35.320   8.884  14.926
30987W        W96247   7.399  38.918  11.192
30988W        W96248  10.173  35.824  12.441
30989W        W96249  28.450  12.806  11.567
30990W        W96250  19.087   3.688   3.747
30991W        W96251  44.558  44.951  13.359
30992W        W96252  42.266  20.985  11.127
30993W        W96253  29.598  34.395   1.924
30994W        W96254   5.365  33.880   0.767
30995W        W96255   0.999  14.848  14.101
30996W        W96256  23.692  25.571   2.146
30997W        W96257  22.333  36.473   1.267
30998W        W96258   1.560  15.886   2.726
30999W        W96259  25.915  14.784   3.353
31000W        W96260  11.762  18.954   3.347
31001W        W96261   0.651   4.070   0.842
31002W        W96262  42.888   2.828   2.036
31003W        W96263  20.990  44.094   1.833
31004W        W96264  26.090   3.357  14.601
31005W        W96265   2.967  22.651  14.555
31006W        W96266   6.390   0.299   1.521
31007W        W96267  33.290  23.777   3.245
31008W        W96268  24.385   5.246   2.162
31009W        W96269  19.868  13.740  11.222
31010W        W96270  34.323  42.260   2.751
31011W        W96271  41.822   3.704  13.491
31012W        W96272  38.964   0.603  12.054
31013W        W96273  16.899   3.855   0.882
31014W        W96274  41.140  20.544  14.434
31015W        W96275   8.140   8.821   2.835
31016W        W96276  44.821  17.712  10.957
31017W        W96277  13.080   5.602  12.627
31018W        W96278  19.241   4.269   2.013
31019W        W96279  37.370  29.137   2.661
31020W        W96280  32.676  15.577  12.616
31021W        W96281   1.714  37.498  12.120
31022W        W96282   5.710   2.446  14.518
31023W        W96283   0.428  25.973  12.379
31024W        W96284  15.141  19.933   4.354
31025W        W96285   3.539  40.906  12.312
31026W        W96286  42.937  39.526  14.949
31027W        W96287  25.076  24.553  14.874
31028W        W96288  11.152  34.930  12.117
31029W        W96289  28.203  26.589  14.397
31030W        W96290  32.461  36.504  11.926
31031W        W96291  37.341  33.063  11.420
31032W        W96292  34.933  17.657  14.731
31033W        W96293  42.495  44.776  11.026
31034W        W96294  22.723  15.598   0.475
31035W        W96295  32.592  14.775  14.272
31036W        W96296  26.844  24.025   1.703
31037W        W96297  30.630   4.354  12.037
31038W        W96298  29.230   0.210  13.471
31039W        W96299   8.349  13.158  14.433
31040W        W96300  14.613  26.999  13.939
31041W        W96301  37.411  23.566  14.522
31042W        W96302  11.895  11.769   2.952
31043W        W96303  27.491  20.973   2.361
31044W        W96304  27.472  16.252   2.741
31045W        W96305  14.824  27.991   4.152
31046W        W96306  17.260   7.626  13.937
31047W        W96307  41.480  44.419  10.644
31048W        W96308  22.941  14.173  10.088
31049W        W96309   3.064   2.244   3.177
31050W        W96310  17.307  23.479   4.135
31051W        W96311  19.739  43.787  11.230
31052W        W96312  25.867  43.926  13.057
31053W        W96313  35.851  36.921  13.379
31054W        W96314  34.866  14.114  12.797
31055W        W96315  30.178   0.498  14.834
31056W        W96316  21.424  29.865   5.056
31057W        W96317  32.487  20.501   3.767
31058W        W96318  30.240   8.989   2.801
31059W        W96319  13.725  20.786  11.022
31060W        W96320  38.375  36.960  11.018
31061W        W96321  35.650  26.527   1.942
31062W        W96322  16.753  11.504   3.189
31063W        W96323  27.950   9.141  13.912
31064W        W96324  44.998  11.948   1.325
31065W        W96325   4.752  40.226  13.014
31066W        W96326  14.191   5.948  12.191
31067W        W96327  28.823  21.617  12.705
31068W        W96328   8.961  35.540  11.224
31069W        W96329  23.227   6.189  14.914
31070W        W96330  16.034  44.979   1.994
31071W        W96331   3.615  21.514   3.259
31072W        W96332  30.906  10.249   3.366
31073W        W96333  43.387  13.897  14.273
31074W        W96334  13.851   5.324  14.793
31075W        W96335   0.576  15.590   2.536
31076W        W96336  28.377  27.984   4.189
31077W        W96337   5.373  32.118   1.439
31078W        W96338  40.675   5.861   1.326
31079W        W96339  25.326  40.948   2.340
31080W        W96340  10.141  26.269   3.227
31081W        W96341  35.953  20.722   1.988
31082W        W96342  20.497  40.484   1.405
31083W        W96343  13.482  10.930   9.819
31084W        W96344  37.977  17.372   0.724
31085W        W96345  34.852   1.341   5.306
31086W        W96346  17.564  13.166  14.839
31087W        W96347   3.278  37.795  12.902
31088W        W96348  12.754  38.182   0.756
31089W        W96349   4.703  38.652  10.619
31090W        W96350  28.352  38.997  14.333
31091W        W96351  17.501  30.066   0.261
31092W        W96352  17.333  44.924  12.848
31093W        W96353  14.319  18.506  12.053
31094W        W96354   3.981   4.759   1.747
31095W        W96355   9.174  43.844   4.260
31096W        W96356   8.847  38.230  11.866
31097W        W96357   1.364  42.937   0.267
31098W        W96358   9.283  25.185   0.816
31099W        W96359  19.713  32.797   4.817
31100W        W96360  23.263  29.077   4.563
31101W        W96361   3.366  28.924  12.971
31102W        W96362  35.557  27.959  13.379
31103W        W96363  32.836  30.851   0.345
31104W        W96364  12.821  14.798  10.779
31105W        W96365  14.295  34.380  14.287
31106W        W96366   4.188  17.198  12.902
31107W        W96367  18.752   7.987  11.960
31108W        W96368  16.492  42.061  13.898
31109W        W96369  37.003  40.129  14.405
31110W        W96370   3.184   9.446  11.473
31111W        W96371  30.452  43.580   2.832
31112W        W96372  10.170  42.770   5.034
31113W        W96373  29.549   9.118   1.268
31114W        W96374   3.341  36.459   1.743
31115W        W96375  43.283  14.192   2.003
31116W        W96376  44.840  39.250  13.959
31117W        W96377  42.306  31.448  11.549
31118W        W96378  35.075  33.071   1.083
31119W        W96379  32.727  13.711  10.234
31120W        W96380  20.841  43.269   3.282
31121W        W96381  41.979  22.696  14.407
31122W        W96382   3.389  40.271   4.553
31123W        W96383   7.138  36.849  11.605
31124W        W96384  40.332  22.125  11.377
31125W        W96385  43.476  36.334   3.224
31126W        W96386  14.384  40.907   3.615
31127W        W96387  36.661  40.621  12.156
31128W        W96388  16.496  35.139   1.030
31129W        W96389   0.091   3.157   1.426
31130W        W96390  17.072  11.140  10.876
31131W        W96391  21.207  37.254  11.122
31132W        W96392  28.818   0.452   2.368
31133W        W96393  23.618  36.791  10.294
31134W        W96394  20.671  35.470   4.622
31135W        W96395  37.772  21.485  11.971
31136W        W96396   5.179   4.840   2.338
31137W        W96397  42.933   3.331   2.797
31138W        W96398   4.899  18.015  10.221
31139W        W96399  40.697  30.844  12.604
31140W        W96400  40.489  12.262  12.930
31141W        W96401  39.530   0.489   2.328
31142W        W96402  30.445  32.076   2.931
31143W        W96403  44.792  38.906  13.521
31144W        W96404  11.772  37.833   4.150
31145W        W96405  23.756  13.762   1.346
31146W        W96406  23.275  40.498  10.665
31147W        W96407   5.978  23.400  11.717
31148W        W96408  43.889  27.428   4.104
31149W        W96409   2.398  23.933  13.552
31150W        W96410  28.215   2.190   0.792
31151W        W96411   8.016  37.400  14.752
31152W        W96412  23.316   5.977  10.280
31153W        W96413  39.455  21.583   4.425
31154W        W96414  15.242  25.966   1.881
31155W        W96415  26.059  20.896   2.180
31156W        W96416   8.366  31.065   1.453
31157W        W96417  18.171  18.684  10.894
31158W        W96418  13.234  23.231   0.544
31159W        W96419  17.194  33.187   0.018
31160W        W96420  40.306  18.176   4.533
31161W        W96421  42.748  10.840  14.726
31162W        W96422   7.737   3.243  14.782
31163W        W96423  32.961  32.112   3.720
31164W        W96424  12.706   7.008  12.501
31165W        W96425   5.228  12.647   3.747
31166W        W96426   6.839  40.576   3.303
31167W        W96427  36.943  12.776   3.151
31168W        W96428  14.787  26.016  10.788
31169W        W96429   4.884  27.511   2.537
31170W        W96430  31.368  30.718   5.111
31171W        W96431  35.005  36.172  12.895
31172W        W96432  42.489  27.082  14.361
31173W        W96433  14.721   5.135  10.698
31174W        W96434  20.176  25.250  11.608
31175W        W96435  33.179   1.013  13.759
31176W        W96436  38.599  32.008  10.592
31177W        W96437   4.145  40.977  14.397
31178W        W96438  41.963   2.621  14.576
31179W        W96439  12.829  24.831  13.401
31180W        W96440  41.392  12.286  11.026
31181W        W96441  43.159   0.923   4.103
31182W        W96442  29.129  44.181   2.347
31183W        W96443  25.941   0.874  11.140
31184W        W96444  39.012  23.480   4.692
31185W        W96445  31.626   7.791  10.720
31186W        W96446  22.745  17.134  11.447
31187W        W96447   1.720  13.026   1.427
31188W        W96448  22.521   7.372  14.854
31189W        W96449  25.582  17.763  12.844
31190W        W96450  44.077  33.314  11.883
31191W        W96451  29.008  12.599  12.862
31192W        W96452  26.619  35.965  13.101
31193W        W96453  42.075  34.911  11.358
31194W        W96454   1.741   1.934   1.271
31195W        W96455  23.587  39.371   3.276
31196W        W96456  29.598  18.172   3.310
31197W        W96457   9.135  36.276   2.616
31198W        W96458  40.962   0.500   9.894
31199W        W96459   8.256   3.956   2.694
31200W        W96460  39.060  11.314  14.426
31201W        W96461  32.625  37.548   3.819
31202W        W96462  29.472  39.530  12.898
31203W        W96463  22.108  34.036   1.038
31204W        W96464  41.280  19.133  13.506
31205W        W96465  44.698  25.568   1.130
31206W        W96466  43.443  35.900   1.709
31207W        W96467   2.838   2.197   4.891
31208W        W96468  30.099  38.957  11.113
31209W        W96469   0.429   4.207  10.529
31210W        W96470   5.340  32.926   4.574
31211W        W96471   9.162  13.544  12.993
31212W        W96472  16.998   5.989   4.643
31213W        W96473  24.118  39.757  13.375
31214W        W96474   0.722  36.447  13.943
31215W        W96475  36.918  24.662   0.512
31216W        W96476  43.988  20.079   4.085
31217W        W96477  17.852   6.365  12.970
31218W        W96478   2.511  10.351  14.197
31219W        W96479  13.246  37.694  11.129
31220W        W96480  11.752  14.371  11.150
31221W        W96481   1.299  29.946   0.312
31222W        W96482  19.511  39.270   3.783
31223W        W96483   6.475  16.769  14.075
31224W        W96484  29.907  33.286  11.118
31225W        W96485  17.916   2.404  12.360
31226W        W96486  29.164   2.906   1.450
31227W        W96487  30.180  42.750  12.051
31228W        W96488  36.055   3.127  12.924
31229W        W96489   6.687  25.110  13.128
31230W        W96490  16.708  11.217  14.517
31231W        W96491  22.470  23.411   0.345
31232W        W96492  23.798  32.827   4.713
31233W        W96493  41.309  34.026  14.849
31234W        W96494  38.513  33.106  13.344
31235W        W96495   3.523  16.798  10.796
31236W        W96496   5.031  44.312   2.772
31237W        W96497  41.129   3.336  10.916
31238W        W96498  18.141  42.839   2.271
31239W        W96499  31.326  40.183   5.100
31240W        W96500   6.097   3.060   1.426
31241W        W96501  44.390  11.409  14.110
31242W        W96502   5.784  32.596   3.675
31243W        W96503  17.568  44.706   1.838
31244W        W96504  12.764  10.960  13.463
31245W        W96505  25.917  44.781  11.157
31246W        W96506  34.817  26.544   5.019
31247W        W96507  37.650  32.665  11.236
31248W        W96508  17.628  15.274   4.663
31249W        W96509  12.639  14.580  13.817
31250W        W96510  37.421  30.104  14.368
31251W        W96511   5.702  41.566  12.093
31252W        W96512  25.731  40.605   0.517
31253W        W96513  26.148  31.247  11.634
31254W        W96514  15.361  16.666  14.471
31255W        W96515  11.062  10.856   0.374
31256W        W96516  38.921  22.102   2.687
31257W        W96517  32.734  34.369   0.780
31258W        W96518   7.771  18.089   0.456
31259W        W96519  39.701  28.562  12.460
31260W        W96520   8.468   1.540   4.072
31261W        W96521  39.549  36.344  14.012
31262W        W96522   5.946  41.504  10.668
31263W        W96523  34.344  25.978   2.209
31264W        W96524  24.044  25.706  11.122
31265W        W96525  41.567  30.527   0.692
31266W        W96526   8.239  13.260   4.080
31267W        W96527  41.300   6.719   0.883
31268W        W96528  17.282   2.440   0.784
31269W        W96529  33.160  41.420  13.595
31270W        W96530   4.300  32.142   0.779
31271W        W96531  30.466  43.561  14.926
31272W        W96532  13.053   1.243  11.607
31273W        W96533  43.867  34.509  13.407
31274W        W96534  12.265  43.763   2.626
31275W        W96535  26.020   0.526  10.544
31276W        W96536   8.493  18.989   1.833
31277W        W96537  17.050  37.326   4.574
31278W        W96538  35.291   6.749  12.646
31279W        W96539  11.980  36.910   2.241
31280W        W96540   7.685  19.815   2.874
31281W        W96541  13.895   9.675  14.397
31282W        W96542   4.573  43.852   1.555
31283W        W96543   8.284  44.433   3.374
31284W        W96544  41.321  13.762  11.748
31285W        W96545  42.538  37.403   3.646
31286W        W96546  30.210  11.164  12.518
31287W        W96547   5.805   0.428   0.744
31288W        W96548  27.111  30.119   0.219
31289W        W96549  39.792   3.270   0.006
31290W        W96550  36.802  21.265   1.367
31291W        W96551  17.734  13.305   3.644
31292W        W96552  38.383   6.303   0.055
31293W        W96553  17.869  31.042   1.851
31294W        W96554  36.098  30.113  14.931
31295W        W96555  10.056  16.554   2.192
31296W        W96556   6.658   2.390   3.744
31297W        W96557  39.514  25.408   3.420
31298W        W96558  40.765  32.093   2.318
31299W        W96559  26.532  35.319   5.096
31300W        W96560  34.658  21.278   4.285
31301W        W96561  44.927  26.125   3.463
31302W        W96562  35.059  19.274  11.588
31303W        W96563  38.049  40.526  11.094
31304W        W96564  19.534   9.313  12.967
31305W        W96565  18.048  31.873  10.827
31306W        W96566  20.014  21.010  10.591
31307W        W96567  43.926  11.131   4.637
31308W        W96568  25.739   5.988   3.680
31309W        W96569  12.575   9.690   3.973
31310W        W96570   2.414  39.120   0.255
31311W        W96571  22.712  20.590   3.410
31312W        W96572  18.112  31.967  12.597
31313W        W96573  39.973  16.286   3.262
31314W        W96574  13.715   9.831   2.275
31315W        W96575  23.626  23.300   0.947
31316W        W96576  32.506   2.166  14.376
31317W        W96577   7.885  35.438  13.362
31318W        W96578  17.086  36.306   1.244
31319W        W96579   5.376  21.030   1.780
31320W        W96580  41.188  28.373   4.236
31321W        W96581   8.153   8.661  14.066
31322W        W96582   5.120  16.576   4.210
31323W        W96583  15.694   0.284  11.986
31324W        W96584  22.236  22.527   1.834
31325W        W96585   8.950  17.328  12.327
31326W        W96586  26.246  19.100  13.982
31327W        W96587   8.806   2.924  11.528
31328W        W96588  37.047  13.827  14.450
31329W        W96589  42.991  20.440  10.688
31330W        W96590  34.148  30.134  11.975
31331W        W96591  34.633  18.351   2.468
31332W        W96592  17.654  33.020   3.697
31333W        W96593  43.666  23.589   3.066
31334W        W96594  27.762  12.228   3.167
31335W        W96595  22.889  16.891   4.195
31336W        W96596   2.007  35.321   0.896
31337W        W96597   4.694   2.753  14.800
31338W        W96598  44.011  19.091   0.619
31339W        W96599   8.942  12.752   0.019
31340W        W96600   9.876  21.951  14.441
31341W        W96601  11.967  27.896   2.577
31342W        W96602  10.286  36.038   0.156
31343W        W96603  25.131  28.911   1.413
31344W        W96604  43.551  33.018  12.053
31345W        W96605  41.516  27.807   0.921
31346W        W96606  13.296  11.612   4.157
31347W        W96607  30.503  19.296   3.280
31348W        W96608  28.998  31.987  10.324
31349W        W96609  44.547  15.616   2.788
31350W        W96610  29.728  39.589   3.439
31351W        W96611  18.804  15.682  10.646
31352W        W96612   3.699  18.679  14.420
31353W        W96613   7.784   1.438   1.473
31354W        W96614   8.913  15.798  12.553
31355W        W96615  23.462   1.690   5.013
31356W        W96616   4.617  12.282   1.117
31357W        W96617  12.662  12.685   3.158
31358W        W96618  44.745   3.014  11.604
31359W        W96619  29.355  18.165   1.865
31360W        W96620   5.865   4.381   3.838
31361W        W96621   3.011  43.918   1.345
31362W        W96622  33.109  26.614  11.809
31363W        W96623  17.257   6.263  13.632
31364W        W96624   6.374  19.714  14.344
31365W        W96625   2.639  42.879   4.629
31366W        W96626  18.718  41.787  11.128
31367W        W96627  38.030  26.583   4.190
31368W        W96628  43.714  15.578  11.490
31369W        W96629  21.043   5.882   0.785
31370W        W96630  25.460  15.376  11.537
31371W        W96631  31.213   9.242  13.560
31372W        W96632  12.290  44.836  11.412
31373W        W96633  41.529  39.718   2.335
31374W        W96634  35.136  26.434  10.286
31375W        W96635  39.605  15.225   2.907
31376W        W96636  26.915  22.788   1.293
31377W        W96637  29.634  12.457   3.330
31378W        W96638  43.903   7.183   4.187
31379W        W96639   7.413   2.402  13.993
31380W        W96640  24.965  13.225   3.916
31381W        W96641   2.915   9.707   1.345
31382W        W96642  21.195   1.085   2.368
31383W        W96643   9.793  43.259  13.528
31384W        W96644  38.367   9.023  13.385
31385W        W96645  17.210   6.539   4.698
31386W        W96646   9.623  32.206   3.308
31387W        W96647  15.721  38.354  13.305
31388W        W96648  10.712  22.727   4.191
31389W        W96649  25.220  34.425   1.241
31390W        W96650  39.885  10.971  12.852
31391W        W96651  17.448  11.843  11.462
31392W        W96652   7.872  31.863   3.599
31393W        W96653  12.778  15.483   2.690
31394W        W96654  18.248  16.796   4.941
31395W        W96655  43.854  40.867  13.148
31396W        W96656   5.993  41.279  14.404
31397W        W96657  37.669  29.928  14.884
31398W        W96658   4.507  34.918  13.573
31399W        W96659  22.592   5.723  13.014
31400W        W96660  36.537  21.183   3.702
31401W        W96661   6.179   1.583  12.826
31402W        W96662  10.774   2.519  14.355
31403W        W96663  32.003  11.418   2.571
31404W        W96664  40.971  21.773   2.587
31405W        W96665  32.497  32.998   1.361
31406W        W96666  12.662   0.838  10.878
31407W        W96667  10.000  12.839   5.163
31408W        W96668   1.901  34.915   1.796
31409W        W96669  42.337  39.560  12.593
31410W        W96670  32.848  23.337  11.992
31411W        W96671   9.401  35.387  12.122
31412W        W96672  13.147   4.730   4.353
31413W        W96673  29.474  44.909  13.940
31414W        W96674  28.739  42.005  12.049
31415W        W96675  33.884  40.399  12.902
31416W        W96676  42.855   3.191  14.057
31417W        W96677  41.355  27.263   1.848
31418W        W96678  16.707  14.791   4.457
31419W        W96679  38.096   1.689  10.622
31420W        W96680  37.524  27.379   1.392
31421W        W96681  33.905  43.297   4.231
31422W        W96682  14.419  44.506  12.977
31423W        W96683  17.680   4.298   0.959
31424W        W96684  16.195   7.396   1.665
31425W        W96685  34.021  17.243  10.562
31426W        W96686  43.914  39.425   3.995
31427W        W96687  20.923  13.230  12.026
31428W        W96688  33.679   7.176   3.171
31429W        W96689  26.178   7.702  11.860
31430W        W96690  16.238   9.978  14.690
31431W        W96691   8.668  41.196  13.838
31432W        W96692  12.111  17.656  14.522
31433W        W96693  26.156  32.376  14.395
31434W        W96694   1.741  44.899  13.872
31435W        W96695  21.482  19.241  13.771
31436W        W96696  34.047   1.929   2.905
31437W        W96697  39.405  37.449  13.093
31438W        W96698  39.076  29.713   0.101
31439W        W96699  21.946  44.654  14.800
31440W        W96700  11.644  28.097   0.944
31441W        W96701   1.857  33.380  12.516
31442W        W96702  12.054   4.009  10.598
31443W        W96703  31.014   8.752   3.127
31444W        W96704  15.381  23.253  14.391
31445W        W96705  38.505  41.953  12.533
31446W        W96706  42.366   6.323  13.869
31447W        W96707  39.147  32.916   4.084
31448W        W96708   1.197  37.874  12.353
31449W        W96709  16.864  37.013   3.453
31450W        W96710  43.371  38.469   4.965
31451W        W96711  14.533   0.145  14.461
31452W        W96712   8.478  12.680  10.832
31453W        W96713   6.780  20.667   2.310
31454W        W96714   8.843  23.373   4.772
31455W        W96715  41.750   7.410   4.900
31456W        W96716  22.443   0.503   4.594
31457W        W96717   0.295  16.643  14.521
31458W        W96718  20.103   8.193  13.888
31459W        W96719  43.967  36.217   0.388
31460W        W96720  29.569  28.217   3.491
31461W        W96721  26.603  23.457   4.571
31462W        W96722  37.971  30.937  11.170
31463W        W96723  19.851  32.421  11.564
31464W        W96724  22.682  30.450  12.466
31465W        W96725  28.435  23.920   3.569
31466W        W96726  41.396  26.926  13.595
31467W        W96727  27.686  29.948   0.943
31468W        W96728  17.947  16.674   4.538
31469W        W96729  28.989  31.904   4.656
31470W        W96730  22.122  44.877  11.588
31471W        W96731   3.528  11.181   0.834
31472W        W96732  20.723   2.406  13.572
31473W        W96733  37.552   9.900  14.475
31474W        W96734  36.767  10.637   2.426
31475W        W96735  23.728  33.990  12.823
31476W        W96736  24.529  22.136  12.094
31477W        W96737   1.702  21.998   4.876
31478W        W96738  10.018  28.668   2.732
31479W        W96739   8.371  37.349   0.761
31480W        W96740  14.977   1.335  12.516
31481W        W96741  12.217   1.268  13.329
31482W        W96742   2.473  34.069   4.163
31483W        W96743  40.412  11.390   0.958
31484W        W96744  19.572  38.827  13.337
31485W        W96745  43.480  22.005  13.582
31486W        W96746  33.429   4.944  10.968
31487W        W96747  15.223   9.261   0.506
31488W        W96748  17.806  23.178  14.311
31489W        W96749  20.800  14.133   1.708
31490W        W96750  14.081   7.064   2.234
31491W        W96751  30.823  15.613  11.955
31492W        W96752  12.980  31.890  12.676
31493W        W96753  14.589  15.212  11.509
31494W        W96754   9.802   9.637   2.468
31495W        W96755  28.085  42.358   2.433
31496W        W96756  18.726  11.863   0.335
31497W        W96757  38.335   1.712   2.636
31498W        W96758  40.018  12.618  14.337
31499W        W96759  39.147  42.318  13.442
31500W        W96760  33.553   7.384  10.778
31501W        W96761   1.897  20.319  11.105
31502W        W96762  20.223   4.766   0.948
31503W        W96763  25.615  32.851  11.807
31504W        W96764  41.914  16.177  14.034
31505W        W96765  36.092   5.630  11.994
31506W        W96766  38.771  25.920  14.347
31507W        W96767  17.811  17.542  12.622
31508W        W96768  20.110  37.527  12.034
31509W        W96769  34.983  41.930   0.003
31510W        W96770  37.422  28.369   1.324
31511W        W96771  20.858   3.269   2.643
31512W        W96772   2.479  33.591   1.942
31513W        W96773  12.772   8.978  11.286
31514W        W96774  17.795   3.327   3.665
31515W        W96775   9.847   6.645   9.889
31516W        W96776   4.003  21.976   1.104
31517W        W96777  35.638  43.446   0.411
31518W        W96778   2.425   6.634   0.695
31519W        W96779  39.510  32.619   4.741
31520W        W96780  42.294  41.379   5.067
31521W        W96781  17.521  40.523  13.259
31522W        W96782  18.963  38.841   3.028
31523W        W96783  14.018   5.197   2.282
31524W        W96784  13.404  12.586  14.312
31525W        W96785  40.895  29.179   3.191
31526W        W96786  10.924   4.437  14.750
31527W        W96787  10.801   5.494  12.538
31528W        W96788  21.597  42.484   2.793
31529W        W96789  19.577  35.188  14.329
31530W        W96790  11.837  32.623   1.656
31531W        W96791  22.948  30.103  14.988
31532W        W96792  28.491  31.330  14.687
31533W        W96793  14.753  37.396  14.333
31534W        W96794  42.489  17.708  13.120
31535W        W96795  11.244  12.741  10.740
31536W        W96796  13.837   0.776  11.563
31537W        W96797   4.825  12.232  14.718
31538W        W96798  11.109  35.492  14.801
31539W        W96799  34.912  18.189   4.628
31540W        W96800  12.315  22.871  12.792
31541W        W96801  27.833  22.110   0.361
31542W        W96802  38.333  25.563  10.575
31543W        W96803   0.443  29.449   0.904
31544W        W96804  13.923  38.844  14.738
31545W        W96805  29.500   8.627  10.694
31546W        W96806  40.882   1.916  12.833
31547W        W96807  15.303  28.693   0.916
31548W        W96808  24.750  15.562   4.228
31549W        W96809  32.654  32.572  11.015
31550W        W96810   4.677  44.692   2.772
31551W        W96811  14.577  28.109   3.687
31552W        W96812  36.448  20.076   3.365
31553W        W96813  38.469  11.193  12.829
31554W        W96814  24.324  40.217  10.629
31555W        W96815  28.529  34.328  11.952
31556W        W96816  36.657  25.104   3.272
31557W        W96817   3.349  32.413  13.883
31558W        W96818  19.695  12.639  13.117
31559W        W96819   0.326  37.022   3.264
31560W        W96820  22.152   1.345   4.572
31561W        W96821   1.275  17.071  14.328
31562W        W96822  30.572  13.554   2.905
31563W        W96823  28.259  16.814   2.594
31564W        W96824  10.841  21.572   2.714
31565W        W96825  36.424  29.047   2.437
31566W        W96826  32.532  44.511  14.779
31567W        W96827  32.786  19.766  12.903
31568W        W96828  41.788  16.090   1.355
31569W        W96829  20.328  41.454   0.959
31570W        W96830  17.023  17.955  12.559
31571W        W96831  43.785  26.463  10.968
31572W        W96832  12.323  27.502  12.277
31573W        W96833  27.219  32.386  11.074
31574W        W96834  21.080  28.976  13.395
31575W        W96835  30.260   3.171   3.661
31576W        W96836  20.087  39.815  13.319
31577W        W96837   1.343  31.107  10.991
31578W        W96838  38.518  14.318   0.383
31579W        W96839   1.656  35.035  12.593
31580W        W96840   8.222  39.575   1.351
31581W        W96841  16.491  23.906   4.597
31582W        W96842  32.902  29.184  11.517
31583W        W96843   6.746   4.884   0.876
31584W        W96844  42.379  14.089   3.934
31585W        W96845  25.678  42.317  12.961
31586W        W96846   8.808   4.189   2.394
31587W        W96847  16.108  12.163   4.105
31588W        W96848  20.059   9.649  12.959
31589W        W96849  15.720  27.191  10.390
31590W        W96850   2.132  13.823   4.273
31591W        W96851  14.582  30.121  11.927
31592W        W96852  21.788  36.407   1.037
31593W        W96853  44.900  35.156  10.658
31594W        W96854  22.557  22.101   1.707
31595W        W96855  14.086  40.924   3.207
31596W        W96856   4.877  32.830   1.518
31597W        W96857  30.518  13.088  14.068
31598W        W96858   7.331  42.620  14.312
31599W        W96859  13.228  16.593   0.451
31600W        W96860  20.692  41.861   3.771
31601W        W96861  35.058  11.881   2.611
31602W        W96862  44.852   6.672   2.257
31603W        W96863   0.457  36.003  13.273
31604W        W96864   9.892  27.051  14.436
31605W        W96865  21.754  20.679   1.271
31606W        W96866  30.689  29.621   3.626
31607W        W96867  43.611  30.957  14.368
31608W        W96868   7.918  25.094   3.022
31609W        W96869   2.460  10.253   3.200
31610W        W96870  25.483   5.978  14.634
31611W        W96871  39.469   7.474  12.096
31612W        W96872  17.267  24.261   4.898
31613W        W96873  38.065  44.205  11.223
31614W        W96874  16.745  40.011   1.761
31615W        W96875  37.338   0.177   9.840
31616W        W96876   2.545   1.918   0.902
31617W        W96877  10.185  36.864   1.877
31618W        W96878  11.236   2.394   3.234
31619W        W96879  27.986   5.928   2.020
31620W        W96880   2.963  40.084  14.366
31621W        W96881  19.134  34.616   0.731
31622W        W96882   7.640  43.771  14.745
31623W        W96883  23.991  39.879   3.687
31624W        W96884  40.818  10.607   0.024
31625W        W96885  18.670  27.542  10.433
31626W        W96886  24.108  44.879   4.931
31627W        W96887  35.637  37.338  13.595
31628W        W96888   0.793  13.125   1.885
31629W        W96889   5.693  34.384   4.148
31630W        W96890  14.741  23.106   3.589
31631W        W96891   2.882   0.311   0.226
31632W        W96892  35.854  41.168  11.859
31633W        W96893  20.602  29.931  14.656
31634W        W96894   4.118  32.408   1.779
31635W        W96895  26.196  29.187   0.591
31636W        W96896  41.126  20.901   3.587
31637W        W96897  22.761  39.880   0.840
31638W        W96898   8.361   4.126  12.467
31639W        W96899  31.214  28.723   2.801
31640W        W96900  10.053  10.984   3.382
31641W        W96901  15.777  27.477  13.131
31642W        W96902  15.145  25.503  14.837
31643W        W96903  10.404  11.853   0.101
31644W        W96904  28.571  20.085   9.627
31645W        W96905  29.546  35.528   4.531
31646W        W96906  26.963  23.130  11.334
31647W        W96907  21.212  43.560  10.570
31648W        W96908   7.238  27.766   4.989
31649W        W96909  32.621  38.795   0.889
31650W        W96910  17.930  17.847  10.687
31651W        W96911  28.867  32.027  11.899
31652W        W96912  12.784  38.868  12.553
31653W        W96913  44.932  32.996   0.540
31654W        W96914   3.262  21.120  12.954
31655W        W96915   9.764  13.273   0.102
31656W        W96916  11.604  24.053   3.608
31657W        W96917  39.634  42.815   4.603
31658W        W96918  37.663   6.857   0.293
31659W        W96919  38.365  17.684   4.365
31660W        W96920  39.371  11.264  12.343
31661W        W96921  27.102   7.412   4.551
31662W        W96922  42.825   6.145  14.059
31663W        W96923  20.978  28.537  10.520
31664W        W96924  36.922  38.133   4.628
31665W        W96925  17.743  14.983   4.238
31666W        W96926  41.997   2.453  11.552
31667W        W96927  28.577  38.069  12.895
31668W        W96928  44.835  33.209   2.823
31669W        W96929  14.089  24.516  14.223
31670W        W96930  11.626  37.063  14.328
31671W        W96931  18.864   1.577   3.910
31672W        W96932  28.504  38.078   0.257
31673W        W96933  32.772  14.659  12.607
31674W        W96934  11.284   1.764  13.865
31675W        W96935  21.849  38.977  11.395
31676W        W96936  25.089  11.339   0.711
31677W        W96937  21.644  42.826  13.339
31678W        W96938   7.260  27.832   3.244
31679W        W96939  17.192  43.224  10.749
31680W        W96940  33.803   2.916  12.526
31681W        W96941  24.974  16.835   1.369
31682W        W96942  36.046  38.723   0.773
31683W        W96943  37.339  43.988  11.605
31684W        W96944   9.563  27.392   4.464
31685W        W96945  14.525  44.939   1.773
31686W        W96946  26.440  23.577  10.782
31687W        W96947  22.589   0.368   0.939
31688W        W96948  38.808  10.069  13.861
31689W        W96949  37.410  25.612  14.352
31690W        W96950   4.909  33.438  14.458
31691W        W96951   7.325  26.770  13.808
31692W        W96952  19.171   5.537  11.507
31693W        W96953   2.763   1.473   2.529
31694W        W96954   3.258  22.221  14.589
31695W        W96955  28.740  34.853   0.782
31696W        W96956  20.004  13.296   4.150
31697W        W96957  23.334  29.078  12.815
31698W        W96958  33.223  30.258  12.233
31699W        W96959  39.355  35.427   1.466
31700W        W96960   7.690  30.553   1.891
31701W        W96961   5.251  18.855  13.119
31702W        W96962   6.329  23.705   2.736
31703W        W96963  44.758  36.464  14.250
31704W        W96964  12.758  24.889   3.735
31705W        W96965  19.536  20.085  12.913
31706W        W96966  37.660  20.084  14.320
31707W        W96967  16.271  26.092   4.750
31708W        W96968   9.392   0.895  14.301
31709W        W96969  40.312   4.996   2.182
31710W        W96970  13.328  13.803  11.620
31711W        W96971  32.129   0.741   2.852
31712W        W96972  42.310  14.715  12.030
31713W        W96973   4.596  14.206   1.053
31714W        W96974  29.520  18.792  11.645
31715W        W96975  24.301  39.177  10.267
31716W        W96976  31.377   8.473  14.461
31717W        W96977  23.043   6.738  11.596
31718W        W96978  42.855  27.725   0.883
31719W        W96979  22.494   7.453  11.464
31720W        W96980  38.908  19.246  12.528
31721W        W96981  18.291   1.733   3.155
31722W        W96982   1.925   8.611  12.301
31723W        W96983  29.559  12.292   4.832
31724W        W96984   9.423   2.978   4.950
31725W        W96985  20.594  33.108  14.480
31726W        W96986   9.864  22.540   4.648
31727W        W96987  35.903  21.350  10.789
31728W        W96988   3.888  23.627  14.531
31729W        W96989   2.807   3.654  11.041
31730W        W96990  17.296  41.953   0.451
31731W        W96991  21.142  23.881  10.259
31732W        W96992   5.110  32.509   4.793
31733W        W96993  11.994   2.761   4.113
31734W        W96994  11.668  15.039   0.871
31735W        W96995  12.309  12.623  13.421
31736W        W96996   3.928  38.970  13.279
31737W        W96997   3.574  12.566   0.341
31738W        W96998  32.691  14.393   4.402
31739W        W96999  44.991  43.338   4.821
31740W        W97000  31.713  40.601   0.849
31741W        W97001  37.007  15.655   4.584
31742W        W97002  34.238  24.031   2.929
31743W        W97003  26.186  29.379  10.672
31744W        W97004  21.464  21.019  11.664
31745W        W97005   7.241  30.263   1.659
31746W        W97006  39.012   0.729   0.337
31747W        W97007  32.354  34.471  12.058
31748W        W97008  22.233  22.720  12.951
31749W        W97009  43.715  22.274   4.433
31750W        W97010  11.300  43.605   1.735
31751W        W97011  37.529  41.548  11.577
31752W        W97012  39.068  32.028   4.351
31753W        W97013  12.727   5.168  14.021
31754W        W97014  27.548   5.707   4.050
31755W        W97015  19.076  13.811  10.784
31756W        W97016  30.168  11.327  13.011
31757W        W97017  36.612  23.457  12.925
31758W        W97018   0.878   7.633  14.487
31759W        W97019  42.076  18.515  10.986
31760W        W97020  42.974  39.449  10.663
31761W        W97021  16.260  16.124   4.067
31762W        W97022  20.669  15.262   3.338
31763W        W97023  23.651   9.808   4.941
31764W        W97024  33.010  30.818   1.783
31765W        W97025   7.970  11.642   4.592
31766W        W97026  33.163  33.081  13.152
31767W        W97027  23.067  11.273  13.939
31768W        W97028  20.948  38.600  13.916
31769W        W97029  23.477  33.836  11.908
31770W        W97030  11.135  42.698  12.471
31771W        W97031   4.132  21.128  10.127
31772W        W97032   8.190  24.688  13.039
31773W        W97033  41.817  30.476   4.522
31774W        W97034  29.441  38.845   0.744
31775W        W97035  42.258  21.386   3.301
31776W        W97036   5.360   4.366  14.742
31777W        W97037  22.629  19.438  10.838
31778W        W97038  31.509  19.565  12.392
31779W        W97039  28.089  19.813   4.244
31780W        W97040  21.746  33.017  13.970
31781W        W97041  18.455   0.545   1.456
31782W        W97042  32.433   9.428  12.140
31783W        W97043  20.124  11.343  13.403
31784W        W97044  34.844  18.698   1.874
31785W        W97045  32.478   8.298  13.008
31786W        W97046  43.344  21.449   4.667
31787W        W97047   2.568   9.222  10.910
31788W        W97048  36.889  41.082   2.140
31789W        W97049   3.013   9.217  14.759
31790W        W97050  44.335  10.772  11.030
31791W        W97051   1.463  38.868   4.325
31792W        W97052   4.180  42.816  14.553
31793W        W97053  32.249  17.023  12.593
31794W        W97054  10.104  25.606   0.337
31795W        W97055  18.294  30.790   0.200
31796W        W97056  42.873  36.887   1.417
31797W        W97057   8.018  16.134   0.698
31798W        W97058  17.393  12.060   3.858
31799W        W97059  26.680   6.016   0.293
31800W        W97060  20.019  16.726  13.425
31801W        W97061  13.376  10.355  14.042
31802W        W97062  39.447  27.621  12.586
31803W        W97063  28.210  34.851   0.878
31804W        W97064  29.697  41.804  12.163
31805W        W97065  17.159  32.138  12.205
31806W        W97066  31.535  24.511   2.852
31807W        W97067  21.109  19.808   4.720
31808W        W97068  24.994  29.298  12.048
31809W        W97069  19.080  16.364   4.083
31810W        W97070  21.360  35.110   4.977
31811W        W97071  34.398   1.323   0.868
31812W        W97072   4.025  12.569  12.444
31813W        W97073  16.015  23.489   3.245
31814W        W97074  35.500  36.992  13.029
31815W        W97075  17.533  25.554  11.266
31816W        W97076   3.202  18.706  14.275
31817W        W97077  26.546  35.101  10.579
31818W        W97078  15.356  42.772  13.661
31819W        W97079  16.323   4.743  12.690
31820W        W97080  38.983   0.349   0.744
31821W        W97081  10.303   0.374   0.791
31822W        W97082  11.679  27.428  14.989
31823W        W97083  37.021   3.521   1.741
31824W        W97084  37.890  31.459  10.505
31825W        W97085  44.469   1.036  14.476
31826W        W97086  11.895  23.038  13.345
31827W        W97087  40.894  15.084  12.282
31828W        W97088   0.239  40.889   1.786
31829W        W97089  18.226  17.285   0.213
31830W        W97090   9.893  39.647  12.867
31831W        W97091  33.504  18.120  13.119
31832W        W97092   1.866  42.255   3.834
31833W        W97093   6.479  25.175  11.440
31834W        W97094   9.763  11.221   3.067
31835W        W97095  11.156   1.475  14.290
31836W        W97096  22.065   1.210  14.923
31837W        W97097   1.391  39.204   0.184
31838W        W97098  41.339  17.682   4.137
31839W        W97099  13.134  23.144   3.264
31840W        W97100   8.734   0.252  14.055
31841W        W97101  18.684  26.566  10.862
31842W        W97102  34.004  37.559  13.524
31843W        W97103  19.271  15.651   0.513
31844W        W97104  38.515  24.603  10.665
31845W        W97105   9.754   3.723  10.771
31846W        W97106  43.973  18.069   0.452
31847W        W97107  18.752  18.495   4.045
31848W        W97108  19.642  29.944   2.475
31849W        W97109  24.176  40.676   5.023
31850W        W97110   9.789  35.858  13.903
31851W        W97111  20.590  11.511   1.549
31852W        W97112  10.253   4.102  11.110
31853W        W97113   8.311  16.077  12.876
31854W        W97114   2.735  21.039  12.999
31855W        W97115  18.062  39.327   3.350
31856W        W97116  21.656  30.720   1.360
31857W        W97117  26.033  23.503   4.599
31858W        W97118  37.030   5.317   2.713
31859W        W97119  29.422  31.979   2.786
31860W        W97120   2.131  20.826  14.340
31861W        W97121  19.766  16.147   1.930
31862W        W97122  37.258  24.667  11.994
31863W        W97123  12.253  42.483   3.817
31864W        W97124  35.450  36.156   2.819
31865W        W97125   9.348  37.614  10.760
31866W        W97126  40.446  38.875   1.282
31867W        W97127  35.400   3.492   2.903
31868W        W97128  25.018  23.783  13.820
31869W        W97129  18.413  44.424  13.890
31870W        W97130  40.957  40.784   0.061
31871W        W97131  27.569   7.245   2.925
31872W        W97132  27.559  43.365  14.791
31873W        W97133  26.968  32.447   2.392
31874W        W97134  23.879  28.938   1.926
31875W        W97135  28.584  36.667  10.703
31876W        W97136  14.494  35.349   0.739
31877W        W97137  41.266   4.279   1.008
31878W        W97138   9.401   6.211  13.567
31879W        W97139   1.931  35.069   2.808
31880W        W97140  44.463  43.299   5.313
31881W        W97141  11.712  30.413   2.746
31882W        W97142   8.161   3.127   4.618
31883W        W97143  11.741  13.272  10.202
31884W        W97144  30.635  25.717  12.456
31885W        W97145  32.218   4.864   3.731
31886W        W97146   9.715  13.220   4.122
31887W        W97147  22.643  21.635  10.238
31888W        W97148  21.009  18.260   1.861
31889W        W97149  16.256  30.917  13.962
31890W        W97150  17.346  34.587  12.562
31891W        W97151  40.038  21.036  13.037
31892W        W97152  30.955  15.094  14.655
31893W        W97153  41.262  20.167  11.526
31894W        W97154  14.731  18.366   3.343
31895W        W97155  30.144   4.947  13.915
31896W        W97156   3.765   5.362   3.183
31897W        W97157  28.930  18.003  11.635
31898W        W97158  16.670  36.574   0.488
31899W        W97159  37.841   3.284   2.162
31900W        W97160  17.180   7.182  13.295
31901W        W97161   4.487  12.137  10.652
31902W        W97162  36.265   7.282   1.400
31903W        W97163  40.679   1.085   3.583
31904W        W97164   8.233   9.337  11.474
31905W        W97165  20.899  14.793   0.889
31906W        W97166  19.965  23.729   4.129
31907W        W97167  37.025  24.027   2.781
31908W        W97168   9.225  31.391   1.156
31909W        W97169   4.660  10.610  12.141
31910W        W97170  38.956  12.312  13.403
31911W        W97171  29.628  40.964   4.177
31912W        W97172  17.522  27.954  10.750
31913W        W97173  12.008  27.074   1.759
31914W        W97174  17.987  12.130   2.140
31915W        W97175  43.027  28.527   4.539
31916W        W97176   6.246  32.089   0.420
31917W        W97177   9.777  38.679  12.034
31918W        W97178  21.251  32.389   2.247
31919W        W97179  20.579  26.941   1.325
31920W        W97180   4.889  32.871  14.529
31921W        W97181  13.604  19.655   2.736
31922W        W97182  25.054  11.691   2.725
31923W        W97183  36.568  43.982  11.196
31924W        W97184  41.014  27.989   2.357
31925W        W97185  31.564  21.514   0.863
31926W        W97186   2.814   0.224  11.956
31927W        W97187  40.543  16.398  13.847
31928W        W97188   1.366  34.591   3.836
31929W        W97189  30.103  32.579  11.595
31930W        W97190   6.794  20.692  13.566
31931W        W97191  35.964  34.112  11.154
31932W        W97192   3.903  40.162  14.239
31933W        W97193   9.573  11.091   2.624
31934W        W97194  13.488  36.901  12.549
31935W        W97195  28.192  27.212   0.463
31936W        W97196   8.923  29.166   3.745
31937W        W97197  27.144  44.929   1.183
31938W        W97198  30.063  36.657  11.616
31939W        W97199  28.390  31.368   2.317
31940W        W97200  25.059  28.776  12.104
31941W        W97201  33.573   1.869  11.946
31942W        W97202  10.024  29.142   0.538
31943W        W97203  43.954   9.873   0.353
31944W        W97204   1.789  34.843   3.663
31945W        W97205  21.684  40.930   2.510
31946W        W97206   9.309   8.366  11.994
31947W        W97207  15.301  40.551   3.341
31948W        W97208  19.495   0.060  11.028
31949W        W97209  23.980  26.958  10.784
31950W        W97210  27.647  24.680  12.122
31951W        W97211  25.003   2.505  11.112
31952W        W97212  15.248  43.709  11.135
31953W        W97213  22.805  21.785  12.099
31954W        W97214  44.852  40.613  10.717
31955W        W97215  19.265  15.692   2.250
31956W        W97216  11.563  27.411   1.885
31957W        W97217   0.061   6.167   2.269
31958W        W97218   9.673  25.801  10.647
31959W        W97219   1.429  43.091  10.464
31960W        W97220  14.019  42.023   1.815
31961W        W97221  16.986  13.399  14.126
31962W        W97222  21.982  14.729  14.413
31963W        W97223  33.838  42.988  14.864
31964W        W97224   4.694   1.438   3.316
31965W        W97225  39.767  35.306   1.817
31966W        W97226  40.942   2.464   3.266
31967W        W97227  19.802   8.193   3.740
31968W        W97228  23.797  27.877   0.390
31969W        W97229   7.877  17.348  12.821
31970W        W97230   9.921  14.792   0.867
31971W        W97231  39.793  40.916  14.432
31972W        W97232  23.405  34.992   0.279
31973W        W97233  22.141  12.319  14.956
31974W        W97234  16.650  20.303  14.051
31975W        W97235  35.315  43.676  12.708
31976W        W97236  38.030  20.071  11.223
31977W        W97237  43.442   6.545   4.679
31978W        W97238  38.541   2.089  11.494
31979W        W97239  16.148  24.233  14.191
31980W        W97240  18.343  24.513   3.412
31981W        W97241  18.223  25.410  11.840
31982W        W97242  18.690  11.271   0.900
31983W        W97243  33.967  19.052   0.289
31984W        W97244  16.970  28.389  14.773
31985W        W97245  20.711  18.398   1.375
31986W        W97246  42.367  15.760   4.682
31987W        W97247  43.572  10.500   3.092
31988W        W97248  15.580  29.115  12.434
31989W        W97249   3.381   1.850   1.165
31990W        W97250  31.333  12.730  11.590
31991W        W97251  34.948   6.600  11.298
31992W        W97252  24.189  42.124  11.552
31993W        W97253   2.601   7.634  12.349
31994W        W97254  44.222  35.824  13.457
31995W        W97255   8.718  38.728   0.310
31996W        W97256  31.359   0.492   3.400
31997W        W97257  27.676  10.798  11.929
31998W        W97258  44.735  28.401   1.336
31999W        W97259  40.909  25.693  13.915
32000W        W97260  17.194  31.808  12.603
32001W        W97261  31.321  25.469   0.805
32002W        W97262   7.234  36.869  13.978
32003W        W97263  42.997  12.790   0.990
32004W        W97264  40.702  25.780  12.914
32005W        W97265  40.941  39.211  10.481
32006W        W97266   0.701   1.169  12.603
32007W        W97267  26.078  24.042   3.295
32008W        W97268   0.949  39.937   4.611
32009W        W97269   4.974   2.777   4.385
32010W        W97270  20.826  23.720  14.860
32011W        W97271  40.311  26.149  13.039
32012W        W97272  17.994  16.376   0.289
32013W        W97273  29.525   0.906   0.442
32014W        W97274   2.922  12.901   1.484
32015W        W97275  34.677   5.499   4.113
32016W        W97276  24.581  39.954  13.565
32017W        W97277  43.008   0.456   3.878
32018W        W97278  12.686  29.743  11.018
32019W        W97279  36.347  18.274   3.768
32020W        W97280  10.222  21.273  14.556
32021W        W97281  43.333  15.887   2.551
32022W        W97282  42.863  36.090  11.871
32023W        W97283  21.002  26.198  12.264
32024W        W97284   1.450  32.943  10.404
32025W        W97285  15.560   9.166   3.071
32026W        W97286   9.803   0.885   3.516
32027W        W97287  31.464  24.712  12.411
32028W        W97288  12.945  27.076   0.387
32029W        W97289  40.266  29.705  11.064
32030W        W97290  39.203   0.320   5.027
32031W        W97291  34.632  32.494   4.855
32032W        W97292  37.009  23.634  11.175
32033W        W97293  44.975  22.938   0.763
32034W        W97294  14.019  10.380  13.466
32035W        W97295  36.851  42.138  13.047
32036W        W97296  43.502   9.962   4.218
32037W        W97297  16.129  33.435  14.795
32038W        W97298  32.491  39.570   1.217
32039W        W97299   9.262   1.808  13.405
32040W        W97300  36.028  34.538  12.515
32041W        W97301  42.784   0.919  13.074
32042W        W97302  27.943   2.469   3.913
32043W        W97303  23.816   1.399  12.578
32044W        W97304   1.742  12.059  11.969
32045W        W97305  26.775   5.078  10.194
32046W        W97306   0.153  24.785  13.939
32047W        W97307  12.248   9.704  12.895
32048W        W97308   1.513  24.739   2.603
32049W        W97309   6.223  19.728  13.461
32050W        W97310  10.012  10.581  10.740
32051W        W97311  27.434  33.542  14.882
32052W        W97312  21.748  15.667  10.991
32053W        W97313  33.980  43.478  14.899
32054W        W97314  43.826  13.437   1.749
32055W        W97315  26.469  28.554  10.985
32056W        W97316  10.640  42.343   4.569
32057W        W97317  25.586  13.890  12.020
32058W        W97318   5.453  10.808   3.311
32059W        W97319  40.365   8.253  12.934
32060W        W97320  10.358  39.346   2.831
32061W        W97321   3.147  17.488  13.784
32062W        W97322  28.021   1.528  12.955
32063W        W97323  21.023  28.234   4.772
32064W        W97324  13.789   7.253   3.420
32065W        W97325  31.421   0.341   2.403
32066W        W97326   9.727  43.765   4.245
32067W        W97327  33.477  32.077  11.387
32068W        W97328  25.041  38.084  12.698
32069W        W97329  42.091  35.112  13.948
32070W        W97330   2.384   6.199  12.375
32071W        W97331  11.366  23.902  13.495
32072W        W97332   7.147   3.722   1.289
32073W        W97333  43.423  37.381   2.455
32074W        W97334  39.041  14.982  14.392
32075W        W97335  23.555  42.774  14.270
32076W        W97336   5.997  40.339   0.870
32077W        W97337  16.903  14.096   1.581
32078W        W97338  37.356   7.832   3.192
32079W        W97339  18.806  22.027  14.969
32080W        W97340  20.811  19.487  12.044
32081W        W97341  10.055  30.073  11.336
32082W        W97342  36.296  40.004  10.591
32083W        W97343  43.483   6.762   1.214
32084W        W97344  37.655  36.753  13.016
32085W        W97345   5.887  27.975   2.215
32086W        W97346   4.726  35.956  12.546
32087W        W97347  31.632   9.264   0.022
32088W        W97348  25.879   5.965  12.410
32089W        W97349  11.698  25.210   3.563
32090W        W97350  25.038  13.219  14.776
32091W        W97351  10.500  22.159  10.205
32092W        W97352  15.014  34.933   2.607
32093W        W97353  15.666  19.733  12.322
32094W        W97354  32.474   5.967  12.181
32095W        W97355  18.197   9.291   1.207
32096W        W97356  25.468  29.181  14.261
32097W        W97357  40.097  26.467  13.413
32098W        W97358  15.182   0.229   0.790
32099W        W97359  36.605  29.605   0.236
32100W        W97360  29.066  27.431  10.701
32101W        W97361   6.692  37.751  13.794
32102W        W97362  12.302  21.131   3.632
32103W        W97363  38.092   8.599  13.471
32104W        W97364  39.951  44.732  13.459
32105W        W97365  28.435  15.127  12.148
32106W        W97366  10.489  20.861   0.835
32107W        W97367  42.829  25.903  12.512
32108W        W97368  37.306   4.623   0.360
32109W        W97369  12.168  24.035  10.655
32110W        W97370  31.938  30.109  14.410
32111W        W97371  29.043  12.896   0.119
32112W        W97372   2.630  30.400  11.458
32113W        W97373  13.168  12.129   0.849
32114W        W97374  38.136   9.563   0.012
32115W        W97375  26.559  28.183  14.765
32116W        W97376  27.510   4.684  13.468
32117W        W97377  13.854   1.171  14.315
32118W        W97378  40.416   6.186  14.379
32119W        W97379  41.331   5.150  13.298
32120W        W97380   6.074  38.424   2.359
32121W        W97381  35.634  40.990   2.700
32122W        W97382  25.169   5.483   1.626
32123W        W97383  14.359   1.884  14.099
32124W        W97384  23.054  41.764   1.197
32125W        W97385  13.308  36.828   3.824
32126W        W97386   4.338  41.768   2.398
32127W        W97387  38.975  21.279  11.477
32128W        W97388  14.497  16.739  12.430
32129W        W97389   2.749   4.116   4.538
32130W        W97390   4.308  34.628   0.217
32131W        W97391  10.814   9.618   4.102
32132W        W97392   8.247   0.890   4.171
32133W        W97393  35.571   5.682   4.084
32134W        W97394  38.579  21.527  12.435
32135W        W97395   4.506  43.738  13.552
32136W        W97396   6.798  30.046  13.538
32137W        W97397  27.948  35.054  13.880
32138W        W97398  33.831  13.598  12.022
32139W        W97399   2.244  36.356   2.838
32140W        W97400  12.131  13.416   0.224
32141W        W97401   8.117  33.323   2.445
32142W        W97402  16.052  12.279  13.420
32143W        W97403  29.388  14.813  14.003
32144W        W97404  14.211  17.697  14.288
32145W        W97405  27.473  32.628   3.152
32146W        W97406  22.218  43.851  13.878
32147W        W97407   1.469  44.720  14.527
32148W        W97408  36.812  22.312  11.749
32149W        W97409  13.109  20.937  14.063
32150W        W97410   5.751  34.145  14.017
32151W        W97411  16.766  21.172   0.345
32152W        W97412  20.726  42.744   1.890
32153W        W97413   6.102  20.845   0.375
32154W        W97414  28.411   0.751  13.320
32155W        W97415  44.020  37.411  10.735
32156W        W97416  32.131  20.158   3.658
32157W        W97417  19.043  32.981  13.387
32158W        W97418  34.659  37.006   3.676
32159W        W97419  19.483  19.778   2.707
32160W        W97420   4.228  43.957  12.643
32161W        W97421  14.588  12.700   0.886
32162W        W97422   5.650  14.702   4.708
32163W        W97423  23.702  16.925   4.472
32164W        W97424  44.385  30.595   4.477
32165W        W97425   8.412  39.330  10.714
32166W        W97426  27.107  17.523  14.090
32167W        W97427   3.904   0.971  10.826
32168W        W97428  17.570  26.218  13.331
32169W        W97429  25.739  23.161  13.135
32170W        W97430  22.552  41.072  12.583
32171W        W97431   6.234   5.862  10.238
32172W        W97432  26.743  38.411   1.380
32173W        W97433  37.465  35.324   1.523
32174W        W97434  43.369  36.363   1.928
32175W        W97435  34.295  43.255  11.405
32176W        W97436  16.309  44.859   0.528
32177W        W97437  29.195  19.712  13.553
32178W        W97438  14.663  22.484  13.843
32179W        W97439  21.707  40.022   1.745
32180W        W97440  25.080  12.379   3.254
32181W        W97441  36.316   3.983   4.193
32182W        W97442  10.691  43.324   3.943
32183W        W97443  25.299  13.156  14.279
32184W        W97444  37.345  28.875  12.497
32185W        W97445   7.301  35.180  14.433
32186W        W97446  25.704   1.215  14.925
32187W        W97447  27.561  42.464   2.634
32188W        W97448   9.674  11.944   3.288
32189W        W97449  35.858  28.648   4.564
32190W        W97450  17.256  29.915  14.758
32191W        W97451  29.862  20.889   1.464
32192W        W97452  35.026  40.574  11.940
32193W        W97453  29.847  27.018   4.522
32194W        W97454   6.388  17.126   3.813
32195W        W97455   3.915  35.517   3.736
32196W        W97456  32.818  14.491   0.417
32197W        W97457  12.544  26.983  14.877
32198W        W97458  19.523  21.237  11.402
32199W        W97459   7.473  34.611  11.580
32200W        W97460   2.732   6.341  11.774
32201W        W97461  37.042  31.470   2.869
32202W        W97462  30.016  41.264  11.632
32203W        W97463  16.266  21.126   2.152
32204W        W97464  21.068   3.947  14.008
32205W        W97465  34.113  33.772  11.060
32206W        W97466  27.735  23.532   0.454
32207W        W97467  23.314  22.538   0.732
32208W        W97468  42.245  19.596  11.073
32209W        W97469  41.257  11.378  10.295
32210W        W97470  35.967  43.227   0.081
32211W        W97471  25.967  16.511   1.258
32212W        W97472  41.563   0.422   0.682
32213W        W97473  44.348   1.013  10.557
32214W        W97474  10.538  41.528  12.509
32215W        W97475   8.540   3.316   0.867
32216W        W97476  39.989   7.325   4.066
32217W        W97477  20.270  33.495  14.417
32218W        W97478  44.897  37.134   4.842
32219W        W97479   8.687  22.351   2.292
32220W        W97480  31.235  41.323  13.981
32221W        W97481   0.532  17.428   1.458
32222W        W97482  33.516   3.763   4.201
32223W        W97483  15.996  16.044   0.948
32224W        W97484  12.887  19.210   4.161
32225W        W97485  24.624  20.981   4.158
32226W        W97486  23.153  25.464  13.091
32227W        W97487  19.289  13.580  13.826
32228W        W97488  32.018   8.320   3.793
32229W        W97489  16.634  17.210   2.849
32230W        W97490  28.595  26.979   5.050
32231W        W97491  36.852  20.129  10.529
32232W        W97492  32.888  42.246   2.728
32233W        W97493  24.168  15.814  14.437
32234W        W97494   3.517  12.293  14.550
32235W        W97495  41.704  38.763  10.153
32236W        W97496   6.818  11.289   4.709
32237W        W97497  39.833  33.965   4.641
32238W        W97498  30.963  32.935   2.670
32239W        W97499  33.123  24.745   3.680
32240W        W97500  31.135   4.426   0.877
32241W        W97501  32.935  10.587   0.739
32242W        W97502  19.220   2.423  14.849
32243W        W97503  36.943  38.462  14.813
32244W        W97504  15.596  24.679   0.841
32245W        W97505  15.291  36.607   0.315
32246W        W97506  36.018  20.609   2.758
32247W        W97507  17.307  20.858  12.975
32248W        W97508   5.204  43.495   2.209
32249W        W97509  19.651  36.163  13.452
32250W        W97510  24.529  19.794  11.147
32251W        W97511  11.605  21.507   3.128
32252W        W97512  33.630  15.279   4.066
32253W        W97513   4.415  21.170   1.809
32254W        W97514  17.174  16.725   2.494
32255W        W97515  41.038   2.871   9.653
32256W        W97516  11.380  15.695  11.649
32257W        W97517  33.883   3.111  13.355
32258W        W97518  20.675  18.451   3.238
32259W        W97519  15.280  24.815  11.660
32260W        W97520  14.514  21.251   5.022
32261W        W97521  21.489  20.739  13.468
32262W        W97522  22.155  22.407  10.764
32263W        W97523  15.363   4.721  10.738
32264W        W97524   8.432  29.837   1.335
32265W        W97525   3.267  44.753   1.340
32266W        W97526  15.631  39.033  12.944
32267W        W97527   2.763  27.062  12.999
32268W        W97528  30.415  26.956  12.123
32269W        W97529   9.248  23.281  12.986
32270W        W97530  27.468  17.293  12.892
32271W        W97531  37.689  37.988   2.656
32272W        W97532  38.323   2.451   1.808
32273W        W97533  31.416  15.162   4.883
32274W        W97534  28.409   7.914   4.403
32275W        W97535  23.604  32.575   4.314
32276W        W97536  12.223   2.761   4.585
32277W        W97537  31.328  24.481   1.745
32278W        W97538  43.519  42.871   4.223
32279W        W97539  19.205  44.614  10.855
32280W        W97540  42.763  19.327  13.592
32281W        W97541  22.769  29.941   2.877
32282W        W97542  14.540  24.657  14.432
32283W        W97543  19.719  37.898  13.688
32284W        W97544  36.775  20.640   0.750
32285W        W97545  26.052  13.508  14.772
32286W        W97546   3.344  24.258  14.459
32287W        W97547   0.925  14.759  13.602
32288W        W97548  39.443  30.036  13.488
32289W        W97549  43.395  21.237  10.926
32290W        W97550  43.430  23.767   1.151
32291W        W97551  18.888  21.303  14.484
32292W        W97552  11.332  17.304   3.704
32293W        W97553  31.076  40.761   2.407
32294W        W97554  21.516  30.120  10.732
32295W        W97555  44.256  36.763   0.826
32296W        W97556  23.266  18.517   0.936
32297W        W97557   2.419  16.716  10.685
32298W        W97558  31.838  13.289  12.677
32299W        W97559   0.556  38.920   0.229
32300W        W97560  25.240   0.456   1.825
32301W        W97561  35.410  21.024   0.384
32302W        W97562  19.282  32.026  14.001
32303W        W97563  34.695   5.369  14.567
32304W        W97564  11.561  40.417  12.849
32305W        W97565  32.228  33.174  13.385
32306W        W97566   8.697  13.623   1.702
32307W        W97567   5.450  35.516  12.207
32308W        W97568  19.146   9.240   4.317
32309W        W97569   9.891  18.144  13.537
32310W        W97570   0.985  35.147  12.015
32311W        W97571   7.000  40.506  11.029
32312W        W97572  28.335  44.265  11.952
32313W        W97573  24.548   9.110   3.344
32314W        W97574  29.469  40.616   1.825
32315W        W97575  14.050  34.878   1.939
32316W        W97576  36.821  11.456  13.839
32317W        W97577  14.101  26.517   1.377
32318W        W97578  37.943  13.353   2.447
32319W        W97579  10.125  37.327   2.205
32320W        W97580  12.260  10.424  14.068
32321W        W97581   3.517   9.078   0.442
32322W        W97582  21.044  28.227   3.798
32323W        W97583  42.544  13.188   1.961
32324W        W97584  37.368  21.224  12.633
32325W        W97585  18.599   7.323   2.461
32326W        W97586   5.823   9.134  14.539
32327W        W97587  40.870   4.213   2.749
32328W        W97588  22.166   9.769   1.768
32329W        W97589  25.588   5.710  12.079
32330W        W97590  25.442  29.005  13.601
32331W        W97591   4.387  43.256  10.842
32332W        W97592  12.138   4.368  12.698
32333W        W97593  13.811  23.818  13.808
32334W        W97594  19.727  15.884   2.771
32335W        W97595  13.955  32.362  14.896
32336W        W97596   9.824   2.486   0.786
32337W        W97597   2.293  11.809   0.914
32338W        W97598  42.300  25.935   0.793
32339W        W97599  40.409  11.897   0.989
32340W        W97600  29.426  15.250   3.646
32341W        W97601   4.950  41.266   2.843
32342W        W97602  24.280  22.735  11.984
32343W        W97603  24.501  34.693  14.479
32344W        W97604   7.372  36.321   0.830
32345W        W97605  13.271   6.068   5.121
32346W        W97606  24.127  38.364   4.939
32347W        W97607   2.340  16.867   1.674
32348W        W97608  18.681   2.226   4.800
32349W        W97609  30.032   9.725  11.466
32350W        W97610   4.447  17.655  13.119
32351W        W97611  12.727  31.697  12.122
32352W        W97612  10.034  12.074   1.040
32353W        W97613  22.840  15.809  12.459
32354W        W97614  19.150  33.885  11.662
32355W        W97615  20.487  23.665   0.330
32356W        W97616   3.392  33.839  12.094
32357W        W97617  14.188   9.920   3.949
32358W        W97618  24.645  33.536  12.011
32359W        W97619  14.726  33.686   2.635
32360W        W97620  13.273  41.078   0.434
32361W        W97621  30.586   4.327  13.124
32362W        W97622  31.786  12.360  13.499
32363W        W97623  17.669   8.536   1.396
32364W        W97624  39.085  21.137   3.721
32365W        W97625  25.781   4.273  10.719
32366W        W97626  14.113  35.274  12.406
32367W        W97627  44.222  34.722   2.318
32368W        W97628  34.246   5.208   4.068
32369W        W97629  36.066  21.775  12.483
32370W        W97630  18.033  20.454  12.141
32371W        W97631  10.658  37.560  14.018
32372W        W97632  23.145  41.021  10.626
32373W        W97633  30.980  16.160  13.102
32374W        W97634  27.705  33.628   0.348
32375W        W97635  42.826   4.827  10.687
32376W        W97636  27.190  42.053   1.200
32377W        W97637  28.173  12.358  11.757
32378W        W97638  18.689  28.205   4.712
32379W        W97639  36.898  44.762   5.708
32380W        W97640   7.606  18.719   1.190
32381W        W97641  42.017  39.697   1.640
32382W        W97642  31.242  44.380  14.594
32383W        W97643  26.382   5.888   2.937
32384W        W97644  13.677   0.827  13.976
32385W        W97645  35.818   0.895   1.312
32386W        W97646  17.634  24.309  10.317
32387W        W97647  27.786  18.928   3.347
32388W        W97648  27.165  25.149  13.691
32389W        W97649  10.402  29.513  12.550
32390W        W97650  17.941  24.562  11.396
32391W        W97651  35.936  21.105   1.023
32392W        W97652  31.815   6.375   0.385
32393W        W97653  25.492  36.093  12.968
32394W        W97654  44.822  18.179  11.623
32395W        W97655  10.382  22.229   3.656
32396W        W97656  30.635  37.627   3.284
32397W        W97657  38.405  34.435  12.942
32398W        W97658  19.419  37.116   2.939
32399W        W97659  25.331  22.056  10.975
32400W        W97660  14.160   0.788  13.469
32401W        W97661   3.943  22.157   1.598
32402W        W97662  18.767   6.680   0.446
32403W        W97663   1.433   5.211  12.132
32404W        W97664  21.002  19.729  11.155
32405W        W97665  44.383  23.997   4.192
32406W        W97666  39.038  35.793   0.390
32407W        W97667   3.949  37.390   3.226
32408W        W97668  33.163  14.653  12.991
32409W        W97669  37.318  34.517  11.110
32410W        W97670  24.400  21.827   3.701
32411W        W97671  14.540  34.181   0.227
32412W        W97672  22.525  33.016  12.885
32413W        W97673  34.635  40.080   3.158
32414W        W97674   6.503  29.087  11.575
32415W        W97675  35.624  20.542  14.504
32416W        W97676  30.859  15.809  11.030
32417W        W97677   5.421  19.561   2.259
32418W        W97678  16.264  17.579   4.363
32419W        W97679  17.018  32.520  13.342
32420W        W97680  31.340  29.653   2.406
32421W        W97681  38.238  41.283  12.032
32422W        W97682  33.179   0.199   4.256
32423W        W97683  27.140  42.369   2.921
32424W        W97684   9.780  26.369  12.631
32425W        W97685  43.330  23.771   3.951
32426W        W97686  15.160  23.317   0.459
32427W        W97687  12.845   0.613   4.417
32428W        W97688  21.455  34.915  13.338
32429W        W97689   0.798  36.800  13.062
32430W        W97690  35.079  44.913   4.439
32431W        W97691  32.454  28.094  14.473
32432W        W97692  30.174  42.790  13.413
32433W        W97693  38.844  27.472   1.178
32434W        W97694   9.840  29.797   2.809
32435W        W97695  33.616  33.786   1.171
32436W        W97696  42.450  21.673   0.907
32437W        W97697   5.085  35.856  12.944
32438W        W97698  27.767  28.185  12.927
32439W        W97699  10.437  20.024   0.298
32440W        W97700  21.224   5.717  11.587
32441W        W97701   2.324  11.734  10.166
32442W        W97702  32.488  14.629  10.741
32443W        W97703   2.001   6.697   0.423
32444W        W97704  34.988  12.377  11.102
32445W        W97705  19.655  39.332  11.167
32446W        W97706  38.792   1.796   5.719
32447W        W97707   4.028  42.993  13.922
32448W        W97708   5.482   7.673   2.698
32449W        W97709  27.423   5.468  14.073
32450W        W97710  39.365  27.528  13.966
32451W        W97711  25.096  32.183   2.381
32452W        W97712  19.129  11.042  11.610
32453W        W97713  25.166  27.200  12.903
32454W        W97714  44.637  18.796   2.396
32455W        W97715  19.344  14.151  11.664
32456W        W97716  38.975  16.477   3.661
32457W        W97717  36.965  38.867  13.131
32458W        W97718   8.385  31.619   3.113
32459W        W97719  37.894  27.965  13.742
32460W        W97720  21.546   0.832  12.974
32461W        W97721  15.766  40.285   2.161
32462W        W97722  19.968  24.196   2.213
32463W        W97723  14.581  10.177  12.826
32464W        W97724  39.066   7.604   3.669
32465W        W97725   0.726  32.494   1.312
32466W        W97726  25.967  30.431   1.793
32467W        W97727  19.241  14.424  14.894
32468W        W97728  42.057  42.370  14.598
32469W        W97729   1.173  38.359  12.173
32470W        W97730  22.863  28.129  13.001
32471W        W97731  27.670  40.784   4.504
32472W        W97732   0.655  42.044  14.971
32473W        W97733  40.503  42.234   0.031
32474W        W97734   4.004  33.619   0.920
32475W        W97735  20.774  17.650  13.852
32476W        W97736  27.974   4.793   4.571
32477W        W97737  12.764   1.280  12.025
32478W        W97738   9.663  26.174   0.935
32479W        W97739   9.966  42.917  11.593
32480W        W97740  18.591   3.311   2.239
32481W        W97741  16.840   6.724   1.761
32482W        W97742  42.952  23.503  12.692
32483W        W97743   2.807  29.978   1.089
32484W        W97744   2.021  18.629  10.814
32485W        W97745   1.688  10.044   4.498
32486W        W97746  17.277   0.248   2.685
32487W        W97747  31.958   4.184  11.931
32488W        W97748  32.122  18.252  12.433
32489W        W97749  18.871  22.269   0.441
32490W        W97750  37.905  22.995   2.270
32491W        W97751  29.061  16.174   3.910
32492W        W97752  23.656   0.836  13.369
32493W        W97753   7.725  44.069   4.166
32494W        W97754   9.669  14.133  14.970
32495W        W97755  40.977  21.984   3.376
32496W        W97756  16.751  17.729   4.247
32497W        W97757  19.551  27.472  14.023
32498W        W97758  19.376  14.160   1.773
32499W        W97759  15.222   6.697   3.569
32500W        W97760  21.052  38.383   3.606
32501W        W97761  39.792  30.444  10.914
32502W        W97762   2.220  44.705  11.582
32503W        W97763  11.302  32.606  12.851
32504W        W97764  20.739  20.716  14.550
32505W        W97765  16.312  24.173  12.462
32506W        W97766  34.110   4.337   4.547
32507W        W97767  19.621   3.709  11.952
32508W        W97768  31.427   4.974  11.966
32509W        W97769  20.184   8.977   1.118
32510W        W97770  38.049   1.723  14.416
32511W        W97771   5.130  20.529   4.530
32512W        W97772  32.097  41.398   1.477
32513W        W97773  44.671   5.289  11.656
32514W        W97774  43.026  26.675   4.814
32515W        W97775  29.674  41.436   3.332
32516W        W97776  44.110  23.076   2.319
32517W        W97777   2.807  34.187   4.541
32518W        W97778  24.525   2.204  14.962
32519W        W97779  33.188  27.876   1.106
32520W        W97780  11.516  16.784  10.097
32521W        W97781  36.368  17.107  12.363
32522W        W97782  32.559  38.863   4.155
32523W        W97783  20.679  15.129  11.031
32524W        W97784  23.911  35.945  13.745
32525W        W97785   0.507  43.276   4.969
32526W        W97786  24.184  16.710   0.942
32527W        W97787   5.390  36.132  13.318
32528W        W97788  32.063  41.534  13.061
32529W        W97789  24.894  32.190  12.906
32530W        W97790  13.300  21.332   3.603
32531W        W97791   3.288  16.337  14.419
32532W        W97792  19.056  41.643   5.141
32533W        W97793   9.954  25.119   5.306
32534W        W97794  26.656  23.982  10.549
32535W        W97795   2.465  22.658   4.257
32536W        W97796  26.559  35.767  14.732
32537W        W97797  18.331  42.828  12.467
32538W        W97798  31.789  33.223   4.112
32539W        W97799   8.156  22.750   2.748
32540W        W97800  35.153  27.961   1.653
32541W        W97801   5.334  26.806  11.099
32542W        W97802  44.690   7.463  14.797
32543W        W97803  38.438  39.073   3.140
32544W        W97804  40.875   2.225   3.706
32545W        W97805  11.336   9.729   0.851
32546W        W97806  37.628  42.744   1.874
32547W        W97807  40.653  40.612   0.826
32548W        W97808  15.040   4.937  11.074
32549W        W97809   5.181   8.567  13.071
32550W        W97810  39.512  28.158  12.191
32551W        W97811  42.383   4.009  11.253
32552W        W97812   8.442  23.990   0.016
32553W        W97813  43.800  22.573  12.808
32554W        W97814  42.878   4.731   0.092
32555W        W97815  23.785  24.215   2.115
32556W        W97816  15.181  11.611   3.257
32557W        W97817  14.281  11.117   9.790
32558W        W97818  34.816  16.230   2.136
32559W        W97819  17.268   8.941  11.618
32560W        W97820  36.285  28.082  12.783
32561W        W97821  16.101  41.097  10.562
32562W        W97822   3.981   1.418   0.757
32563W        W97823   1.053  15.174  13.297
32564W        W97824  22.548  26.765   4.995
32565W        W97825  21.963  24.373  11.639
32566W        W97826  10.377  28.550  12.439
32567W        W97827  32.252  16.267  14.550
32568W        W97828  41.405  26.613   3.687
32569W        W97829  12.282  15.544  14.799
32570W        W97830  15.642  17.792  14.926
32571W        W97831  31.153  35.005   4.494
32572W        W97832  32.613  26.940   3.587
32573W        W97833   9.363  28.317  14.789
32574W        W97834  16.329  11.249  13.364
32575W        W97835  41.502  13.812   0.043
32576W        W97836  33.006  18.727  10.695
32577W        W97837  27.662  41.462   1.159
32578W        W97838   0.291  11.808  13.604
32579W        W97839  30.602   9.111   4.047
32580W        W97840  42.546  36.615   4.678
32581W        W97841  35.909   5.700   2.278
32582W        W97842  20.556  19.043   3.218
32583W        W97843  17.511   1.821  13.023
32584W        W97844  22.247   2.742  12.474
32585W        W97845  38.020  18.401   3.167
32586W        W97846  25.424  10.135   2.604
32587W        W97847  23.036  19.565  11.154
32588W        W97848  19.754  17.916   3.265
32589W        W97849  12.388  30.172   4.235
32590W        W97850  35.027  14.667  14.476
32591W        W97851  31.561  39.769   2.137
32592W        W97852  25.668   8.093   1.879
32593W        W97853  26.591  25.999   4.366
32594W        W97854  23.007  36.861   1.743
32595W        W97855  36.007   8.336  11.390
32596W        W97856  26.443  11.842   2.208
32597W        W97857  42.962  34.457   4.418
32598W        W97858  29.049  38.438  13.867
32599W        W97859  35.548   4.176  14.231
32600W        W97860  34.997  11.841  12.276
32601W        W97861  28.582  29.575   1.375
32602W        W97862  43.248  38.472   2.961
32603W        W97863  23.002   6.421   3.211
32604W        W97864   7.419  17.616   3.772
32605W        W97865  10.830  34.953  11.231
32606W        W97866   4.534  10.099   4.968
32607W        W97867  38.941  17.750   3.130
32608W        W97868  12.803  36.793  14.833
32609W        W97869  16.329  34.384  12.610
32610W        W97870  12.378  38.735  11.064
32611W        W97871  11.617  24.226   4.875
32612W        W97872  22.672  32.065   4.693
32613W        W97873  14.621  42.697   0.380
32614W        W97874  37.662  28.102  14.836
32615W        W97875  42.503  43.799   4.137
32616W        W97876  17.312  13.840   1.327
32617W        W97877   3.133   3.895  11.353
32618W        W97878  41.379   7.748  13.487
32619W        W97879  12.146  32.130   0.679
32620W        W97880  31.482  24.727  11.537
32621W        W97881  26.990  39.889  11.346
32622W        W97882  34.621  29.322   2.413
32623W        W97883  28.556   8.056  10.819
32624W        W97884   6.104  42.530   0.674
32625W        W97885  36.399  23.564   4.170
32626W        W97886  40.459  33.524  14.257
32627W        W97887  22.831  43.462  14.928
32628W        W97888  14.233  22.550  10.698
32629W        W97889  32.524  32.856  13.092
32630W        W97890   5.207  41.409  12.085
32631W        W97891  39.341  35.102  14.794
32632W        W97892   5.866  11.214  14.450
32633W        W97893  16.534  14.619   2.635
32634W        W97894   0.420  34.582   0.991
32635W        W97895  23.274  30.948  12.003
32636W        W97896   0.828  27.336  13.196
32637W        W97897  41.049  33.367  12.090
32638W        W97898  12.016  44.801  12.750
32639W        W97899  40.600  40.242   1.790
32640W        W97900  21.723  40.496   3.712
32641W        W97901   8.670  27.857   1.949
32642W        W97902   9.615   2.700   4.043
32643W        W97903   2.211  21.075   0.408
32644W        W97904   3.622  28.254   2.737
32645W        W97905   3.914  26.999  11.117
32646W        W97906  21.950  31.546   4.287
32647W        W97907  34.910  36.416  11.059
32648W        W97908  10.326  15.692   3.672
32649W        W97909  33.615   6.273   3.098
32650W        W97910  24.589  34.421   0.526
32651W        W97911  44.127  13.263   3.598
32652W        W97912  14.776  20.078  14.087
32653W        W97913  16.498  35.313  12.627
32654W        W97914  18.405   0.448  12.695
32655W        W97915  13.038  30.392  11.912
32656W        W97916  38.014   6.693   3.692
32657W        W97917  27.699  11.776  11.140
32658W        W97918  25.514  36.463  14.515
32659W        W97919  35.428  14.814   2.841
32660W        W97920   1.212   5.753   2.884
32661W        W97921   3.283  13.764  12.094
32662W        W97922  31.665  22.019   0.897
32663W        W97923  14.401  30.557  12.161
32664W        W97924  30.803  28.607  11.596
32665W        W97925  32.270  43.864  11.097
32666W        W97926  15.638  37.361  14.215
32667W        W97927   4.428  26.943   1.212
32668W        W97928   5.627  12.054  12.971
32669W        W97929  41.066  42.797  10.765
32670W        W97930  22.067  12.379   3.766
32671W        W97931   8.698  21.502  10.674
32672W        W97932  10.941  16.056   2.339
32673W        W97933  25.241  16.050   3.774
32674W        W97934  20.632  30.797  11.162
32675W        W97935  28.331  17.436   1.334
32676W        W97936   5.442  31.494  10.547
32677W        W97937  12.290   8.904   1.381
32678W        W97938  44.649   5.614  10.692
32679W        W97939  26.671  22.597  12.066
32680W        W97940  26.597  31.612   2.277
32681W        W97941  34.519   1.892  13.035
32682W        W97942  10.834   2.483  10.561
32683W        W97943  41.751  37.155  11.067
32684W        W97944   2.875  17.127   3.383
32685W        W97945  25.504  14.100   5.077
32686W        W97946  13.348  16.356   0.005
32687W        W97947  18.016  15.310  10.672
32688W        W97948  20.907  42.019  11.949
32689W        W97949  42.916  13.704  14.420
32690W        W97950   0.364  35.414  13.979
32691W        W97951  35.910  12.574   3.800
32692W        W97952  19.022  23.206   0.827
32693W        W97953   6.425  30.810  12.465
32694W        W97954  40.851   4.745  10.382
32695W        W97955  17.037  39.162   2.325
32696W        W97956  42.710  10.201   4.418
32697W        W97957  14.535  32.933  14.282
32698W        W97958  17.855  40.858  12.470
32699W        W97959  41.560   4.777  12.060
32700W        W97960   2.944  33.536  13.394
32701W        W97961  20.045   4.415   3.326
32702W        W97962  13.615  40.044  12.570
32703W        W97963  39.270   2.008   3.099
32704W        W97964   5.448  36.431  10.703
32705W        W97965   3.884   0.870   1.733
32706W        W97966  17.097  32.249  13.851
32707W        W97967  37.543  32.423   1.263
32708W        W97968  40.948  39.091   4.344
32709W        W97969   1.354  28.586   2.010
32710W        W97970  14.795  17.336   2.320
32711W        W97971  35.101  39.342   0.867
32712W        W97972  44.267  27.212  14.010
32713W        W97973  17.006  41.012   4.521
32714W        W97974   9.411  37.593  14.913
32715W        W97975  18.369  16.329  14.926
32716W        W97976  25.666  18.742   2.636
32717W        W97977  39.344  22.763   3.821
32718W        W97978  24.134  40.622   3.152
32719W        W97979  36.609  24.658   4.881
32720W        W97980  35.252  17.991   0.234
32721W        W97981  21.547  20.597  10.109
32722W        W97982  13.767  39.748  10.581
32723W        W97983  13.232  13.233   2.854
32724W        W97984  40.326  32.528  14.080
32725W        W97985  31.037  33.060  12.853
32726W        W97986  38.755  31.606   4.460
32727W        W97987   6.606  11.263  12.407
32728W        W97988  38.605   5.141  11.513
32729W        W97989  22.599   7.674   2.893
32730W        W97990  28.921  37.971   2.700
32731W        W97991  17.507  11.334  14.023
32732W        W97992   6.375  28.092  11.569
32733W        W97993   6.784  21.064  11.252
32734W        W97994  11.309  32.381   1.908
32735W        W97995  33.546   1.852   5.131
32736W        W97996  43.529  10.210   5.416
32737W        W97997  23.075  35.237   2.740
32738W        W97998  25.545  15.646  14.486
32739W        W97999   1.931  27.708   3.880
32740W        W98000  23.782   6.004   4.118
32741W        W98001  33.291   4.288   3.178
32742W        W98002  34.458  25.624  14.949
32743W        W98003  20.821  11.778  12.763
32744W        W98004   6.175  11.464  12.175
32745W        W98005   0.721  10.700   0.245
32746W        W98006  29.050  39.454  14.190
32747W        W98007  13.043  33.509   2.918
32748W        W98008  40.469  14.625   4.635
32749W        W98009  16.199  25.100   3.697
32750W        W98010   6.299   1.760   2.829
32751W        W98011  37.855  22.192   1.877
32752W        W98012   7.666  23.991  14.379
32753W        W98013  14.789  42.767   1.289
32754W        W98014  43.759  32.217   2.376
32755W        W98015  40.814  39.391   0.425
32756W        W98016  17.009  37.522  14.406
32757W        W98017  30.512  21.978   3.591
32758W        W98018   1.268  25.598  12.603
32759W        W98019  13.339   5.353  14.784
32760W        W98020  23.446  22.040   1.480
32761W        W98021  27.672  38.479  14.111
32762W        W98022  24.323  35.071   3.084
32763W        W98023   6.587  11.761   4.652
32764W        W98024  24.007  31.533  13.196
32765W        W98025  35.637  27.567  14.211
32766W        W98026   5.508  27.055   5.599
32767W        W98027  13.326  35.860  13.454
32768W        W98028  34.504  34.483  14.507
32769W        W98029   5.750  10.954   1.943
32770W        W98030  17.557  26.349   1.197
32771W        W98031  41.736  21.071   2.927
32772W        W98032  40.792  11.286  13.288
32773W        W98033  37.604  42.804  12.923
32774W        W98034  35.409  16.160  14.307
32775W        W98035  14.753   7.170   3.263
32776W        W98036  32.621  18.282  12.163
32777W        W98037  25.193  31.103  12.063
32778W        W98038  38.564  18.957   2.587
32779W        W98039  20.144  36.891  13.178
32780W        W98040  44.925  36.019  10.645
32781W        W98041  29.082  14.273   0.916
32782W        W98042   0.399  41.601  14.750
32783W        W98043  40.599  26.452  10.182
32784W        W98044   7.660  18.419  12.102
32785W        W98045   8.173  28.513  11.126
32786W        W98046  44.723  44.833  10.384
32787W        W98047  34.959  35.384   2.623
32788W        W98048  11.716   7.323   2.221
32789W        W98049  11.844  26.082   5.375
32790W        W98050  31.499  24.521   0.004
32791W        W98051  29.388  25.801  11.569
32792W        W98052  14.547   4.812  11.089
32793W        W98053  12.837  32.405  14.359
32794W        W98054  27.344   1.989  14.780
32795W        W98055   1.173  43.347  11.534
32796W        W98056   8.203   1.946  13.824
32797W        W98057  16.763   3.629  12.919
32798W        W98058   9.972  42.813   0.720
32799W        W98059   1.152  18.770   4.123
32800W        W98060  11.146  32.322   5.013
32801W        W98061  33.630  35.359  11.611
32802W        W98062  25.574  10.160  13.465
32803W        W98063  28.423  39.873   3.061
32804W        W98064  31.889  40.070  10.743
32805W        W98065   8.705  19.820   2.679
32806W        W98066  31.985  30.403  14.887
32807W        W98067  41.086  21.280   2.706
32808W        W98068  12.843  25.808  11.632
32809W        W98069  44.006   4.650   0.167
32810W        W98070   5.713  37.489  11.593
32811W        W98071  26.751   5.783  14.420
32812W        W98072  10.228  35.952  14.166
32813W        W98073   1.787  34.494  13.499
32814W        W98074   5.672  12.135  13.895
32815W        W98075  28.037  29.952   3.190
32816W        W98076  42.383   3.804   1.666
32817W        W98077  43.771  34.030  11.980
32818W        W98078   0.455  31.935  14.031
32819W        W98079  12.257  40.303   3.710
32820W        W98080  44.822  21.515  14.719
32821W        W98081  18.204  37.650   2.015
32822W        W98082   1.905  36.278   3.297
32823W        W98083  32.440   2.823  12.090
32824W        W98084   5.281  41.330  12.610
32825W        W98085  42.392  18.742  13.038
32826W        W98086  29.240  33.057   3.704
32827W        W98087  19.151  41.756  14.943
32828W        W98088  18.651  18.008   4.125
32829W        W98089  37.009  31.614  12.009
32830W        W98090  15.057  13.192   2.523
32831W        W98091   7.641  34.785   2.397
32832W        W98092  15.569   8.420   3.061
32833W        W98093  12.666  43.694  14.088
32834W        W98094  25.045  34.054   4.406
32835W        W98095  34.496  16.120   1.237
32836W        W98096  37.075  12.759   4.159
32837W        W98097  15.226  13.927   1.390
32838W        W98098  19.755  17.220  14.813
32839W        W98099  12.028  37.373   4.279
32840W        W98100  33.889  14.432   3.960
32841W        W98101   8.226  43.334   4.872
32842W        W98102  36.485  34.354  12.332
32843W        W98103  32.557  35.493  12.880
32844W        W98104  18.288  42.476  12.094
32845W        W98105   6.378  29.678   3.238
32846W        W98106  26.653  12.674  14.017
32847W        W98107  18.593  30.108  14.181
32848W        W98108  12.041  36.799  10.704
32849W        W98109  40.338  15.767   3.289
32850W        W98110  11.278  24.418  11.652
32851W        W98111  27.228  22.115  12.334
32852W        W98112  21.041  28.955  10.041
32853W        W98113   3.575  11.268   1.935
32854W        W98114  35.922  35.394  13.595
32855W        W98115   8.734  37.360  11.344
32856W        W98116  36.278  28.707  11.084
32857W        W98117   7.715   7.948  12.480
32858W        W98118   7.880   6.866  12.471
32859W        W98119  13.197  26.963   0.855
32860W        W98120  22.094  29.501   0.758
32861W        W98121  42.865  22.689   3.323
32862W        W98122  41.064  27.128   4.181
32863W        W98123   9.287  27.594  11.225
32864W        W98124  26.436  26.041   3.847
32865W        W98125  12.410  22.039  14.502
32866W        W98126  20.250  25.285   0.717
32867W        W98127   4.594  15.723   4.236
32868W        W98128  25.633  41.763  12.074
32869W        W98129  17.021  41.958   0.899
32870W        W98130  24.576  38.509   0.996
32871W        W98131   0.226  16.287  13.966
32872W        W98132   1.131  38.304   1.254
32873W        W98133  35.323  14.653  12.080
32874W        W98134  23.019  31.417  12.974
32875W        W98135   8.818  16.018  13.012
32876W        W98136  30.375  24.689   2.686
32877W        W98137  25.532  13.174   1.904
32878W        W98138  23.161  17.478  10.286
32879W        W98139  12.089  43.843  14.572
32880W        W98140   8.747  42.326  11.693
32881W        W98141  17.125  31.582  14.732
32882W        W98142  11.355  31.066   1.002
32883W        W98143  38.078  38.958   3.504
32884W        W98144  44.702  32.394  14.739
32885W        W98145  17.623  28.684  13.090
32886W        W98146  39.399   9.082   5.064
32887W        W98147  42.568  31.925  10.831
32888W        W98148   9.435   3.431   4.117
32889W        W98149  36.966  44.205   1.858
32890W        W98150  43.422  40.750  13.431
32891W        W98151  24.711  20.294  13.415
32892W        W98152  33.753  39.281  10.486
32893W        W98153  15.133  11.562   0.261
32894W        W98154  29.904  43.907  10.727
32895W        W98155  27.436  37.104   3.801
32896W        W98156   3.513  25.637   2.896
32897W        W98157   4.996  17.661  11.859
32898W        W98158  34.890   3.871   0.399
32899W        W98159  22.216  15.643  11.661
32900W        W98160  23.247  44.349  13.540
32901W        W98161  39.238   7.065   4.021
32902W        W98162  19.801  10.790  12.910
32903W        W98163  22.470  22.510  12.547
32904W        W98164  11.375  40.590   4.204
32905W        W98165   8.094  18.107   2.672
32906W        W98166  29.073  41.849   2.925
32907W        W98167  43.282  26.407   0.860
32908W        W98168   5.756   3.124   5.068
32909W        W98169   2.706  16.637   2.730
32910W        W98170  37.377  17.210  13.043
32911W        W98171  11.567  19.265   2.456
32912W        W98172   8.268   5.222  13.173
32913W        W98173   7.966  25.513   0.295
32914W        W98174  32.965   2.427  12.859
32915W        W98175   7.686  33.416   1.418
32916W        W98176  38.716  21.998  14.488
32917W        W98177  20.882  29.160  11.557
32918W        W98178  31.987   1.333  10.938
32919W        W98179  28.891  42.130  12.522
32920W        W98180  32.495  36.342   2.167
32921W        W98181   1.761  33.927   2.714
32922W        W98182  36.645  11.319  11.967
32923W        W98183  39.242  29.457  11.138
32924W        W98184  18.195  26.108  14.971
32925W        W98185  44.069  39.930  12.767
32926W        W98186  42.407  24.195  10.574
32927W        W98187  32.612  44.184   2.149
32928W        W98188  34.352  38.433  12.870
32929W        W98189  23.167  38.327   1.228
32930W        W98190  27.123   3.378   1.389
32931W        W98191   8.482  39.964   2.704
32932W        W98192   1.596  11.870  14.347
32933W        W98193  30.343  16.227   3.255
32934W        W98194   3.466   7.177  11.584
32935W        W98195   8.787  43.926   1.241
32936W        W98196  24.699  16.336   3.731
32937W        W98197   7.300  26.485   0.890
32938W        W98198  32.146   9.295   1.863
32939W        W98199  21.191  35.893  11.991
32940W        W98200  26.934  29.630   0.574
32941W        W98201  33.096  21.994  12.661
32942W        W98202  28.011  20.838   1.443
32943W        W98203  41.929  24.374   3.773
32944W        W98204  26.426  41.394   2.341
32945W        W98205  29.402   8.926   5.087
32946W        W98206   9.183   0.407  14.957
32947W        W98207  30.958  29.114  14.437
32948W        W98208  34.107  36.585   1.296
32949W        W98209   8.241  29.483   3.762
32950W        W98210  37.377   6.588   4.244
32951W        W98211  37.797  36.512   4.080
32952W        W98212   8.756   5.386  13.372
32953W        W98213  17.817  36.887  12.151
32954W        W98214  42.019  10.191   2.664
32955W        W98215  10.599   5.478   4.957
32956W        W98216  33.547  36.916  13.056
32957W        W98217   8.195  33.098  10.765
32958W        W98218  21.245   1.523   2.122
32959W        W98219  37.298  11.289   0.458
32960W        W98220   6.179  30.924   3.092
32961W        W98221  16.376  32.397  11.548
32962W        W98222  32.824  18.531  13.009
32963W        W98223  32.011  26.668   4.573
32964W        W98224  44.989  21.787   2.773
32965W        W98225  11.373  16.326   1.839
32966W        W98226  20.770  15.673   3.025
32967W        W98227   5.663   6.122  11.549
32968W        W98228  34.042  19.901   4.113
32969W        W98229   3.840  23.451   4.218
32970W        W98230  25.620   2.831   5.178
32971W        W98231  16.081  27.042  13.125
32972W        W98232  12.209  14.741   0.396
32973W        W98233  12.218  29.393  13.330
32974W        W98234  41.873  19.571   2.620
32975W        W98235   2.483  21.501   0.645
32976W        W98236   5.465  32.638   1.335
32977W        W98237   9.386   1.666   4.030
32978W        W98238  13.065  19.548   1.852
32979W        W98239  21.273  35.340   0.849
32980W        W98240  22.791  43.594   3.667
32981W        W98241  44.319  40.410   2.218
32982W        W98242  20.257  41.311   2.699
32983W        W98243   0.309  27.535  13.316
32984W        W98244  37.928  16.790   3.101
32985W        W98245   7.875   4.437   4.598
32986W        W98246   5.893  10.113  12.991
32987W        W98247   4.622  36.132   4.125
32988W        W98248   6.731  30.415  12.403
32989W        W98249  39.600  29.267  11.871
32990W        W98250  28.749  40.471   3.797
32991W        W98251   1.401   9.983  13.126
32992W        W98252  30.427  44.826  14.473
32993W        W98253  23.913  40.458   1.367
32994W        W98254  24.327  40.356   0.436
32995W        W98255  17.027   5.174   0.274
32996W        W98256  16.568  40.649  12.911
32997W        W98257   7.621  28.179   1.853
32998W        W98258  33.047  20.218   4.158
32999W        W98259  30.101  44.129   0.371
33000W        W98260  26.114  37.366   3.555
33001W        W98261  18.269  30.844  12.132
33002W        W98262  25.538  16.717  11.532
33003W        W98263  39.096  17.650  14.757
33004W        W98264   1.124  41.702   2.312
33005W        W98265  35.204   2.805   4.656
33006W        W98266   9.680  40.482   1.498
33007W        W98267  26.716   2.393   4.496
33008W        W98268  22.008  10.783  10.990
33009W        W98269  22.475  14.642  12.244
33010W        W98270  34.523  17.697   1.980
33011W        W98271  31.939  32.210  13.470
33012W        W98272  34.917   2.975   3.205
33013W        W98273  40.242  25.487   1.737
33014W        W98274  33.524  18.970  14.140
33015W        W98275  30.553  33.492  13.288
33016W        W98276  17.780  11.659   2.233
33017W        W98277   0.427  20.170  13.949
33018W        W98278  15.128  33.578  11.168
33019W        W98279  16.015  12.704  12.588
33020W        W98280  21.076  20.980   1.857
33021W        W98281  20.602  39.861  13.482
33022W        W98282  29.313   6.416  13.594
33023W        W98283  39.797  20.833  11.584
33024W        W98284  35.381  18.262  12.106
33025W        W98285  38.454  25.654  14.042
33026W        W98286   9.224   5.403  13.913
33027W        W98287   9.346   2.029   5.047
33028W        W98288  36.506  19.699  14.994
33029W        W98289  43.552  13.591   0.814
33030W        W98290   2.692  19.986  11.430
33031W        W98291  25.647  32.876  14.792
33032W        W98292  44.719  14.529   0.060
33033W        W98293  22.669  20.206   4.094
33034W        W98294   5.844  12.369  14.431
33035W        W98295  35.621  23.504  13.048
33036W        W98296  43.903  25.137  13.447
33037W        W98297   5.554  14.315  11.596
33038W        W98298   5.245   0.288  12.604
33039W        W98299  20.486  11.134  10.643
33040W        W98300  33.990  31.447  11.345
33041W        W98301   2.072  27.130  14.464
33042W        W98302   4.620  18.283   0.456
33043W        W98303  31.387   1.948  11.559
33044W        W98304  44.283  29.386   2.313
33045W        W98305  44.217  24.305  12.972
33046W        W98306  30.089  11.668  11.992
33047W        W98307  11.917  17.442   0.369
33048W        W98308  12.425  25.068   1.325
33049W        W98309  39.677  23.597   3.215
33050W        W98310  20.656  24.539   3.131
33051W        W98311  38.383  17.112   3.831
33052W        W98312  17.807   3.091  14.836
33053W        W98313  20.433  18.255  13.152
33054W        W98314  42.805  31.953  14.414
33055W        W98315  12.081  36.876   4.159
33056W        W98316  11.833  30.795   4.544
33057W        W98317  40.306  20.969  14.404
33058W        W98318   2.726  11.594  10.492
33059W        W98319  26.045  31.638  12.866
33060W        W98320  34.402  41.463   4.630
33061W        W98321  21.955  22.450  12.586
33062W        W98322  39.924  43.761  12.561
33063W        W98323  33.907  16.588  13.866
33064W        W98324  28.125   8.215  13.839
33065W        W98325  38.973  31.210  14.732
33066W        W98326  10.653  44.761  10.778
33067W        W98327   3.139  43.768   4.905
33068W        W98328  16.676  36.322   3.808
33069W        W98329   3.726  12.088   4.391
33070W        W98330   1.290   6.579  10.432
33071W        W98331  42.275  15.282  14.767
33072W        W98332  15.226   5.189   3.875
33073W        W98333  10.105   5.229   1.374
33074W        W98334  34.299  12.626   3.297
33075W        W98335  17.094  35.843  12.189
33076W        W98336  11.307   3.513   2.011
33077W        W98337  26.089  37.377  11.127
33078W        W98338  24.869  21.115   2.160
33079W        W98339   1.505  37.553  14.081
33080W        W98340  10.024  29.256  13.877
33081W        W98341   5.473  17.275  11.604
33082W        W98342  12.878  14.910  14.822
33083W        W98343  18.086  44.688  10.582
33084W        W98344  12.309  35.167  14.512
33085W        W98345  24.158  12.524   9.835
33086W        W98346  31.111   7.217   0.658
33087W        W98347  21.196   9.005   0.745
33088W        W98348   2.681  38.389   2.383
33089W        W98349  14.654  30.438   5.158
33090W        W98350  11.058  40.955  10.661
33091W        W98351  33.094  38.804  12.480
33092W        W98352  20.131  20.484  11.345
33093W        W98353   4.730  39.711  10.422
33094W        W98354  39.044  11.712   3.178
33095W        W98355  19.500  36.146  11.162
33096W        W98356  22.687  10.330  11.972
33097W        W98357   3.764  26.186  12.184
33098W        W98358  23.624   6.505   0.412
33099W        W98359  29.156   9.441  14.846
33100W        W98360  44.836  23.202   2.776
33101W        W98361   6.020  37.920   2.310
33102W        W98362   7.986  12.041  14.407
33103W        W98363  22.426  19.802   3.455
33104W        W98364   9.682  25.993  13.870
33105W        W98365  38.093  18.729  11.622
33106W        W98366  14.650  37.578   1.877
33107W        W98367   3.008   2.569   2.289
33108W        W98368  36.913   9.767  12.555
33109W        W98369  15.075  28.233   3.691
33110W        W98370  38.268  31.595  11.657
33111W        W98371  26.111   6.353  12.637
33112W        W98372  33.185  11.516   0.859
33113W        W98373   3.180  22.300  12.511
33114W        W98374  44.316  32.047  11.646
33115W        W98375  40.589  19.212   1.022
33116W        W98376  34.126  34.407  12.567
33117W        W98377   0.019  18.135   1.944
33118W        W98378   5.749  42.947   4.604
33119W        W98379  37.482  39.780  13.581
33120W        W98380  42.513  43.465   1.030
33121W        W98381  24.727  10.899  12.624
33122W        W98382  20.710   2.364   2.728
33123W        W98383  20.610  19.369   9.669
33124W        W98384  31.929  37.039   4.442
33125W        W98385  21.583  10.879  10.692
33126W        W98386   7.416   2.184   3.509
33127W        W98387   5.481  41.329   2.831
33128W        W98388  17.771   0.267   3.924
33129W        W98389   0.613  27.070   0.647
33130W        W98390   4.113  25.100  14.969
33131W        W98391   8.139  30.721  12.363
33132W        W98392  28.191  31.169  11.191
33133W        W98393  43.547  24.573  13.413
33134W        W98394  13.208  44.582  14.049
33135W        W98395   3.217  35.482   3.225
33136W        W98396  20.755  29.957   0.725
33137W        W98397  27.986   7.339   2.140
33138W        W98398  39.609  44.000  12.888
33139W        W98399   8.696   6.987   4.071
33140W        W98400  16.805  30.697  12.356
33141W        W98401  26.949  29.898  14.247
33142W        W98402   1.349  18.653  13.398
33143W        W98403  20.699  38.432   9.769
33144W        W98404  26.012  39.313   3.782
33145W        W98405   9.645   5.495   4.471
33146W        W98406  14.563  30.584  14.987
33147W        W98407  14.724  31.919  10.349
33148W        W98408  40.529  26.646   3.442
33149W        W98409   8.958  22.532   4.612
33150W        W98410   6.876   8.171  13.867
33151W        W98411   8.947   9.804  14.330
33152W        W98412  43.469  14.878   2.912
33153W        W98413  10.174  42.474  10.847
33154W        W98414  18.076   0.248   3.096
33155W        W98415  14.641  27.392   4.615
33156W        W98416  33.557  18.959   4.644
33157W        W98417  15.847  42.004   0.257
33158W        W98418  30.358  24.086   2.375
33159W        W98419  11.698  24.950  12.008
33160W        W98420  38.739   9.243   4.563
33161W        W98421  11.654   4.222   3.844
33162W        W98422   2.892  15.321  13.148
33163W        W98423   7.964  35.618  14.860
33164W        W98424  11.691  31.586  12.957
33165W        W98425  36.687  24.155   4.883
33166W        W98426   3.968  10.414  13.059
33167W        W98427   8.445  31.953  13.140
33168W        W98428  35.093   8.737   2.389
33169W        W98429  38.094  24.315  10.728
33170W        W98430  35.970   9.768   1.920
33171W        W98431  10.883  16.191  11.129
33172W        W98432  24.374   3.936   0.428
33173W        W98433  18.062   5.760   0.405
33174W        W98434  26.968   4.770   4.290
33175W        W98435  23.518  32.120   5.342
33176W        W98436  20.717  44.531   2.849
33177W        W98437  35.956  13.226   4.351
33178W        W98438   6.337  16.267  14.961
33179W        W98439   4.821   0.947   5.012
33180W        W98440   2.735  16.921   0.351
33181W        W98441  32.280  22.125  11.199
33182W        W98442   5.148   4.799   4.801
33183W        W98443  44.224  33.540  13.584
33184W        W98444  40.573  24.272  12.929
33185W        W98445  40.319  23.404  10.948
33186W        W98446  16.301  22.035  11.027
33187W        W98447  26.669  21.267  14.899
33188W        W98448  40.812  16.689  14.532
33189W        W98449  24.502  24.498  11.465
33190W        W98450  35.175   8.641   3.331
33191W        W98451   2.364  23.422   0.350
33192W        W98452  43.008  17.752   3.458
33193W        W98453   1.979  31.384   1.843
33194W        W98454  27.291  37.374  13.973
33195W        W98455  10.143  42.294  14.963
33196W        W98456  14.638   6.179  12.093
33197W        W98457   8.673  26.980  14.488
33198W        W98458  20.427  28.725   4.142
33199W        W98459  24.054  35.028   3.560
33200W        W98460   7.934  40.763   2.050
33201W        W98461  31.577  41.774  13.057
33202W        W98462   9.038  34.928  13.197
33203W        W98463  42.782  33.126  13.448
33204W        W98464   0.405  30.118   4.382
33205W        W98465   8.196   5.899   1.487
33206W        W98466  14.724  17.306   4.800
33207W        W98467   1.233   2.329  11.980
33208W        W98468  10.064  10.596   0.440
33209W        W98469  14.375   7.364   3.729
33210W        W98470   0.268  37.085  10.544
33211W        W98471   9.631  14.402   3.668
33212W        W98472   8.182   9.804   9.436
33213W        W98473   9.314  18.489  11.745
33214W        W98474  26.406  44.967  11.114
33215W        W98475  28.979   6.050  14.942
33216W        W98476  28.478  33.486  14.934
33217W        W98477  44.918  42.944  13.330
33218W        W98478  42.736  25.769  13.913
33219W        W98479   9.962  42.066   0.403
33220W        W98480  37.211   4.305   3.646
33221W        W98481  43.748  43.518  11.093
33222W        W98482  37.905  21.689   2.050
33223W        W98483  32.916  34.572  14.391
33224W        W98484  31.822  21.169   2.088
33225W        W98485   6.379  24.038   1.437
33226W        W98486  39.256  12.634   1.872
33227W        W98487  31.497  22.252   1.318
33228W        W98488   6.762  39.545  10.913
33229W        W98489  16.092  10.132  14.174
33230W        W98490  30.067  28.417   2.092
33231W        W98491  39.998  24.133   3.333
33232W        W98492  44.573  44.352  14.477
33233W        W98493   4.655  22.712  11.106
33234W        W98494  28.168  25.512  12.885
33235W        W98495  40.141  32.087  10.573
33236W        W98496  28.937  40.567  12.478
33237W        W98497  20.509  12.724  10.679
33238W        W98498  43.766  32.147   3.825
33239W        W98499   4.765  13.253   2.297
33240W        W98500  32.165   7.923   2.443
33241W        W98501  31.334   6.302  11.250
33242W        W98502  34.739  24.505  11.107
33243W        W98503  13.887  10.715   0.981
33244W        W98504  32.515  41.860  12.951
33245W        W98505  27.013  13.767  12.000
33246W        W98506   4.946  30.185  12.959
33247W        W98507  26.621  10.249  10.743
33248W        W98508  15.967  24.706   3.926
33249W        W98509   6.881   0.359  10.693
33250W        W98510  23.047   5.245  11.457
33251W        W98511  40.326   7.724   1.423
33252W        W98512  22.254  31.587  11.616
33253W        W98513  15.192   9.407  11.139
33254W        W98514  17.981  33.539  12.424
33255W        W98515   1.467   8.752  10.606
33256W        W98516  10.386  32.442  10.952
33257W        W98517   0.517   7.772   3.378
33258W        W98518  21.745  10.041  11.825
33259W        W98519  10.066   5.331   2.282
33260W        W98520  29.595  19.304  13.014
33261W        W98521   5.834  36.802   4.586
33262W        W98522  30.730  18.732   1.773
33263W        W98523  10.812  11.105  14.060
33264W        W98524  28.167  12.850  11.088
33265W        W98525  39.367  37.954  12.363
33266W        W98526   4.644   7.148  12.057
33267W        W98527  35.141  10.854   1.900
33268W        W98528  20.275   5.254  14.882
33269W        W98529   8.567  10.059   9.758
33270W        W98530  14.838  37.933  14.689
33271W        W98531  10.212   2.687   4.628
33272W        W98532  40.838  16.726  12.518
33273W        W98533  16.699   3.197   4.568
33274W        W98534  22.951  43.203  12.119
33275W        W98535  43.249  28.462  11.154
33276W        W98536  25.458   5.411  12.917
33277W        W98537  40.874  38.610   4.168
33278W        W98538  29.113  41.889   3.840
33279W        W98539  12.784  26.750   4.140
33280W        W98540  26.180  21.202   5.022
33281W        W98541   8.077  39.856  14.040
33282W        W98542   3.111  38.092   3.562
33283W        W98543  22.112  19.178   2.386
33284W        W98544   5.915  32.425  14.335
33285W        W98545  32.042   8.879   3.799
33286W        W98546  30.922  23.602  13.518
33287W        W98547  27.623   1.923   4.734
33288W        W98548  33.725   4.351  14.787
33289W        W98549  13.723  13.938  13.359
33290W        W98550  23.912  38.215  11.148
33291W        W98551  36.081  27.534   4.800
33292W        W98552   6.565   9.099  12.804
33293W        W98553  31.046   0.397  14.589
33294W        W98554  23.059   0.924   2.197
33295W        W98555  31.757  31.961  10.669
33296W        W98556   1.802  33.714  14.396
33297W        W98557   4.005   1.749  11.135
33298W        W98558  17.280  42.090  13.203
33299W        W98559  31.714  41.961   4.817
33300W        W98560  37.308   9.148   2.038
33301W        W98561   0.337  22.486   1.670
33302W        W98562  20.230  20.295  13.959
33303W        W98563  14.065  43.421  12.451
33304W        W98564  12.100  12.203   2.730
33305W        W98565  19.719  29.083   3.128
33306W        W98566  34.061   1.934  14.435
33307W        W98567  41.423   7.566  12.037
33308W        W98568  18.024  20.317  13.533
33309W        W98569   1.452  29.194   4.164
33310W        W98570  10.725   2.921   1.212
33311W        W98571  39.281  19.476  12.795
33312W        W98572  34.813  15.207  12.882
33313W        W98573  13.504   8.851   0.736
33314W        W98574  24.524  44.223  12.292
33315W        W98575  33.665   9.754   3.301
33316W        W98576  35.595  27.897   2.482
33317W        W98577  32.114  33.689   2.524
33318W        W98578   4.102  27.040  10.649
33319W        W98579  24.165  11.898  12.067
33320W        W98580  25.153  41.890  11.953
33321W        W98581  11.292  22.571  11.611
33322W        W98582  35.073  44.924  13.583
33323W        W98583  19.314   8.364   3.765
33324W        W98584   6.220   8.352   2.867
33325W        W98585  23.176  12.116   0.133
33326W        W98586  39.945   5.713   3.158
33327W        W98587   0.166  20.187   3.163
33328W        W98588  44.347  22.642  10.647
33329W        W98589  22.718  15.137  13.161
33330W        W98590  27.229  24.278   2.880
33331W        W98591   4.681  11.325   3.210
33332W        W98592  23.964   9.919  13.956
33333W        W98593  20.526   0.691  12.941
33334W        W98594  25.471  14.027   3.547
33335W        W98595  11.650  18.111  12.883
33336W        W98596  12.626  42.912   5.070
33337W        W98597  36.568  12.185   4.887
33338W        W98598   2.033   2.926   0.888
33339W        W98599   0.965  16.694   2.866
33340W        W98600   6.547  14.186  11.168
33341W        W98601  42.708   7.546   2.479
33342W        W98602   4.879  12.938  12.275
33343W        W98603  43.704  32.037   4.710
33344W        W98604  16.172   5.009   0.457
33345W        W98605  31.473  27.939  14.063
33346W        W98606   6.919  34.027  13.405
33347W        W98607  22.088  13.714  13.542
33348W        W98608  12.739  23.489  12.015
33349W        W98609  34.466   4.670  12.919
33350W        W98610  32.002  11.134   2.145
33351W        W98611  18.305   6.244  11.452
33352W        W98612  17.716  31.231  13.040
33353W        W98613  27.050  25.892   4.616
33354W        W98614   2.869  17.698  13.352
33355W        W98615  19.675  10.141  14.555
33356W        W98616  15.889   9.527   2.933
33357W        W98617  31.054  19.950  11.139
33358W        W98618   6.256  26.592  12.935
33359W        W98619  25.395  40.246  11.084
33360W        W98620  11.363  23.809   4.583
33361W        W98621  42.723  39.658   0.878
33362W        W98622  31.464  25.274  13.787
33363W        W98623  39.346  30.056   4.903
33364W        W98624  40.526  23.341  11.870
33365W        W98625  32.967  11.571   1.746
33366W        W98626  22.343  30.534  10.810
33367W        W98627  19.693   8.755  12.924
33368W        W98628  40.558  30.763   0.421
33369W        W98629   5.553  34.600   1.280
33370W        W98630  11.353  36.771  13.513
33371W        W98631  17.056  16.319  14.568
33372W        W98632   6.154  12.463  14.853
33373W        W98633   6.392  14.395   3.186
33374W        W98634   9.729   3.708   3.786
33375W        W98635  32.455  35.394   1.827
33376W        W98636  37.491  12.055   0.008
33377W        W98637  29.508   9.643  11.496
33378W        W98638  18.372   4.507   2.571
33379W        W98639  19.184  15.598   4.559
33380W        W98640  23.626  33.452  14.107
33381W        W98641   4.648  17.583  10.909
33382W        W98642   9.799  16.155  12.364
33383W        W98643  43.140  20.239   0.541
33384W        W98644  17.850  24.298   3.688
33385W        W98645  42.503   4.306  14.472
33386W        W98646  18.217  44.441  11.913
33387W        W98647  37.304  41.962  10.730
33388W        W98648  21.048  43.779  13.962
33389W        W98649  38.549  29.674   4.766
33390W        W98650  33.445   1.355  12.050
33391W        W98651  12.411  36.833   3.785
33392W        W98652  21.567   5.268   3.516
33393W        W98653  32.003   5.534  13.579
33394W        W98654  25.606  35.916  12.457
33395W        W98655  26.685   1.364  12.151
33396W        W98656  28.976  44.800  13.273
33397W        W98657  22.752  23.397  11.527
33398W        W98658   4.259  22.935   1.289
33399W        W98659  29.742  23.144  13.085
33400W        W98660  32.492  15.693  14.511
33401W        W98661  27.126  15.923   2.388
33402W        W98662  43.959  32.530   3.351
33403W        W98663  20.135  10.477   0.255
33404W        W98664  39.437  22.451  11.785
33405W        W98665  25.101  25.987   0.094
33406W        W98666  43.350  33.514   3.671
33407W        W98667  21.742  20.155  14.089
33408W        W98668  22.161   7.316  14.031
33409W        W98669  28.691  12.047  13.355
33410W        W98670  11.191  27.677  10.559
33411W        W98671  28.944  28.361  14.939
33412W        W98672  14.274  12.271  12.856
33413W        W98673  36.150  37.410  13.551
33414W        W98674  26.247  25.056  14.724
33415W        W98675   6.572  35.001   4.488
33416W        W98676  24.676  27.926   2.276
33417W        W98677   0.566  43.378   2.274
33418W        W98678  16.073  33.986  12.857
33419W        W98679   8.855  27.743  13.842
33420W        W98680  21.766   8.390   3.615
33421W        W98681  19.652  17.692  14.609
33422W        W98682  19.053  43.841   2.187
33423W        W98683   2.238  24.560   3.245
33424W        W98684  30.351  29.130   4.566
33425W        W98685  38.982  32.363  12.295
33426W        W98686  13.203   8.491   4.383
33427W        W98687  39.457  41.955   1.310
33428W        W98688  26.114  17.755  12.889
33429W        W98689  29.741   2.530  14.776
33430W        W98690   4.427  43.901   2.368
33431W        W98691   9.510  25.110  11.461
33432W        W98692  10.761  41.265  14.413
33433W        W98693  30.982   6.101   0.319
33434W        W98694  36.439  35.976  13.455
33435W        W98695  41.468  16.312   2.860
33436W        W98696   3.508  26.718  14.317
33437W        W98697  39.425  18.176   2.563
33438W        W98698  10.155  21.692   2.222
33439W        W98699  10.801   3.941  11.935
33440W        W98700  20.755  38.214  12.994
33441W        W98701   6.633  36.970   0.846
33442W        W98702  25.697  38.799   0.066
33443W        W98703  14.592   3.786  13.339
33444W        W98704  39.945  20.847   4.027
33445W        W98705  25.807  29.904  13.349
33446W        W98706  31.902  40.398   4.385
33447W        W98707  23.304   1.467  12.597
33448W        W98708  29.743   3.256  10.921
33449W        W98709  33.893  44.346   1.895
33450W        W98710  18.990   6.768  11.353
33451W        W98711  32.828  32.908   4.169
33452W        W98712  42.501  32.364  11.446
33453W        W98713  44.482   9.909   1.010
33454W        W98714   4.855   4.180  13.232
33455W        W98715   8.273  42.063   0.621
33456W        W98716  13.295  41.934   3.350
33457W        W98717   5.388   1.349   0.895
33458W        W98718  27.690  20.518  11.085
33459W        W98719  23.211  10.361  11.966
33460W        W98720  26.159  43.076  12.919
33461W        W98721  31.430  19.087   4.609
33462W        W98722  10.061   0.306   1.227
33463W        W98723  24.505  29.467  12.141
33464W        W98724  17.083  24.106  11.916
33465W        W98725  25.233  39.532  10.553
33466W        W98726   5.337  33.326  11.610
33467W        W98727  26.491  18.994  11.609
33468W        W98728  20.076  13.277   5.069
33469W        W98729  17.071  33.088   4.850
33470W        W98730  44.998  30.881   2.407
33471W        W98731   9.010   2.492  12.940
33472W        W98732  17.252  10.815  11.602
33473W        W98733  20.093   1.199  11.492
33474W        W98734  21.218  28.406   0.530
33475W        W98735  20.752  19.196  14.989
33476W        W98736   0.449   7.874  11.387
33477W        W98737  33.614  18.280  12.112
33478W        W98738  15.721  14.747  11.159
33479W        W98739  31.996  33.675  11.318
33480W        W98740   5.942  43.020  10.347
33481W        W98741   6.241  20.319   2.878
33482W        W98742  23.206   0.076  13.919
33483W        W98743  27.033  41.828  12.092
33484W        W98744  24.821  15.403  10.227
33485W        W98745  33.904   2.442  11.020
33486W        W98746  40.076  16.502   3.761
33487W        W98747   9.820  25.535  14.887
33488W        W98748  20.014  20.764  13.795
33489W        W98749   6.993  13.128  12.872
33490W        W98750  41.099  36.667  14.912
33491W        W98751  30.665  35.585  14.464
33492W        W98752  21.829   8.096  11.090
33493W        W98753  19.785  16.600  10.656
33494W        W98754  22.505  39.827  12.804
33495W        W98755  22.646  10.891  14.822
33496W        W98756   4.495  35.095   1.899
33497W        W98757   5.613  24.462   2.885
33498W        W98758  20.039  18.614  12.000
33499W        W98759  30.648  22.632  12.598
33500W        W98760  31.060  35.567  13.408
33501W        W98761  43.822  35.840   0.040
33502W        W98762  29.121  18.288   0.688
33503W        W98763  14.737  21.961  12.897
33504W        W98764  13.181  21.462  14.031
33505W        W98765   5.431  23.517   2.675
33506W        W98766  39.875   3.732  12.591
33507W        W98767  17.994  30.355  12.107
33508W        W98768  32.364  25.530  14.491
33509W        W98769  14.208   2.319  14.302
33510W        W98770  41.573   6.652  14.331
33511W        W98771  14.094  29.035  10.282
33512W        W98772  29.580   4.103  12.902
33513W        W98773  21.218  19.700   3.527
33514W        W98774   0.069  29.927  12.096
33515W        W98775   4.190   8.481   4.679
33516W        W98776  18.367   5.319  14.485
33517W        W98777  41.073  29.253   2.701
33518W        W98778  39.864  24.404  13.878
33519W        W98779   3.711  32.565  10.815
33520W        W98780  15.832  24.102   1.852
33521W        W98781  33.946  17.593  11.567
33522W        W98782  36.085  18.038  10.995
33523W        W98783  23.969  21.619   1.312
33524W        W98784  21.596   9.405   2.311
33525W        W98785  32.273  32.382   4.173
33526W        W98786   1.465  27.937  12.840
33527W        W98787  30.416  20.986   2.094
33528W        W98788  41.047  35.125  13.808
33529W        W98789   6.476  18.370  12.508
33530W        W98790  42.357  25.189  10.963
33531W        W98791   6.743  31.248   1.449
33532W        W98792  42.262  19.015  14.402
33533W        W98793  24.774  33.623   0.314
33534W        W98794  13.814  19.354  12.962
33535W        W98795  19.258  13.303   0.645
33536W        W98796  41.923  23.495  10.350
33537W        W98797   9.801  13.295   3.087
33538W        W98798  28.095  32.836  12.639
33539W        W98799  11.658  44.145   3.569
33540W        W98800   5.461  14.791   3.771
33541W        W98801  28.116  23.425   1.787
33542W        W98802   8.755  31.195   1.172
33543W        W98803  43.466  30.207   5.075
33544W        W98804  36.090   2.358  12.450
33545W        W98805  41.982   6.286  10.270
33546W        W98806   6.802   5.702  14.796
33547W        W98807   2.333  14.190   0.221
33548W        W98808   8.931  20.768   5.063
33549W        W98809  16.603  23.530   1.809
33550W        W98810   2.297  16.680  14.397
33551W        W98811   0.507   3.886  12.899
33552W        W98812  12.199  25.650   0.390
33553W        W98813   7.630  14.084   0.609
33554W        W98814  12.614   7.903   1.383
33555W        W98815  16.365  16.864  11.546
33556W        W98816   6.100   5.972   0.030
33557W        W98817  24.549  36.372  12.662
33558W        W98818  10.658  25.147  14.925
33559W        W98819  12.264  26.570   9.993
33560W        W98820  13.129   1.538  12.917
33561W        W98821  44.853   0.448   1.099
33562W        W98822  34.806  20.486   4.238
33563W        W98823   2.770  40.320   2.530
33564W        W98824   9.931  25.454   9.646
33565W        W98825   6.878   7.276   2.935
33566W        W98826   7.116  19.592  11.999
33567W        W98827   2.436  39.879   4.476
33568W        W98828   7.180  32.536  11.614
33569W        W98829  43.896  41.359   0.949
33570W        W98830  13.849   0.249  14.548
33571W        W98831  12.773   2.192   4.186
33572W        W98832  10.149  28.669   0.404
33573W        W98833  29.135  41.688   1.173
33574W        W98834  24.984   7.824  13.741
33575W        W98835  15.555   4.458   1.297
33576W        W98836   3.467   1.953  12.004
33577W        W98837  26.443  26.622  13.888
33578W        W98838   5.677  34.616   2.601
33579W        W98839  41.963  26.897  12.420
33580W        W98840  17.438   7.864   5.321
33581W        W98841  38.984  27.620  10.753
33582W        W98842   0.992  40.391   3.443
33583W        W98843  13.712  36.816   0.756
33584W        W98844  38.092   0.042   1.395
33585W        W98845  40.385  25.981  14.965
33586W        W98846  31.791  29.475   2.625
33587W        W98847  31.499   6.251   2.562
33588W        W98848  17.893  16.633  12.545
33589W        W98849  16.398  39.426  13.081
33590W        W98850  42.057  39.231   2.928
33591W        W98851  19.253  20.958   9.848
33592W        W98852   3.317  43.237  13.589
33593W        W98853  31.867   1.902   3.298
33594W        W98854  14.359  12.211  11.923
33595W        W98855  20.093  28.680   3.237
33596W        W98856  31.452  12.277  10.970
33597W        W98857  19.628  26.958   2.343
33598W        W98858  29.148  26.965   2.416
33599W        W98859  44.504  31.653  13.992
33600W        W98860   8.505  30.861  13.843
33601W        W98861   7.908  42.911   1.042
33602W        W98862  35.967  36.131   4.998
33603W        W98863  13.884  40.767   3.673
33604W        W98864  23.467  29.355   2.798
33605W        W98865  26.865   7.901   4.556
33606W        W98866  14.269  44.219   4.148
33607W        W98867  19.319  13.350   3.747
33608W        W98868   3.202  20.857  14.365
33609W        W98869  29.080   0.433   1.916
33610W        W98870  29.000  25.809  10.283
33611W        W98871  13.144  17.618  14.378
33612W        W98872  14.605  22.744  14.300
33613W        W98873  31.618  28.801  12.049
33614W        W98874  28.984  37.144  10.612
33615W        W98875  41.513  40.461  12.298
33616W        W98876  38.018  14.762  13.547
33617W        W98877   5.389   3.728  11.671
33618W        W98878  35.193  17.118  10.494
33619W        W98879  32.429  32.934  12.519
33620W        W98880  19.747  29.313  13.040
33621W        W98881   2.898   5.977   3.210
33622W        W98882  39.611  32.982   3.293
33623W        W98883  41.644  23.689   0.354
33624W        W98884  19.149  11.839   1.318
33625W        W98885  15.883   8.870   5.057
33626W        W98886  32.143   1.699  12.790
33627W        W98887  15.471  14.715  11.615
33628W        W98888   8.989   1.955  11.239
33629W        W98889  10.321  43.465   1.206
33630W        W98890   1.919  25.896  10.324
33631W        W98891  27.735  43.739  12.630
33632W        W98892  34.625  35.028   1.838
33633W        W98893  41.752  21.978  14.006
33634W        W98894  28.560  10.681   4.546
33635W        W98895  18.095  44.240   0.365
33636W        W98896  17.311   3.839  13.448
33637W        W98897   8.778   3.993   2.884
33638W        W98898  17.677  43.516   0.940
33639W        W98899   2.363  43.276  13.805
33640W        W98900  11.025   1.563   1.287
33641W        W98901  29.675  35.635  12.107
33642W        W98902  11.570  23.172  12.351
33643W        W98903  36.550  31.978  13.484
33644W        W98904  15.715   7.248  14.810
33645W        W98905  27.317  40.280   3.295
33646W        W98906   0.886   3.229  12.226
33647W        W98907  25.535  26.770   3.190
33648W        W98908  13.713  26.167  14.856
33649W        W98909  12.361  21.958  10.547
33650W        W98910  16.252   9.921  13.252
33651W        W98911  30.308   7.212  14.835
33652W        W98912  27.588  43.515   4.078
33653W        W98913  30.620  21.536   4.136
33654W        W98914   8.809  14.580   5.332
33655W        W98915  16.570  12.207  13.447
33656W        W98916  34.901  13.643   1.714
33657W        W98917  44.950  27.087   2.454
33658W        W98918   2.825   7.867  14.844
33659W        W98919  16.297  29.043   4.150
33660W        W98920  16.277   3.212   2.169
33661W        W98921  38.379  27.627   1.932
33662W        W98922  23.785   3.606   1.306
33663W        W98923   8.138  27.735   1.836
33664W        W98924  15.748   5.789  13.302
33665W        W98925  10.226  31.606   0.273
33666W        W98926   8.364  25.136   4.330
33667W        W98927  20.630   5.704   1.651
33668W        W98928  35.175  13.668   3.702
33669W        W98929  11.419  19.643  11.951
33670W        W98930  30.199  34.439   3.213
33671W        W98931  11.248  23.287   4.641
33672W        W98932  23.040   2.030   3.298
33673W        W98933   2.741  12.325   3.591
33674W        W98934   0.041  17.721  11.428
33675W        W98935  27.660  27.679  13.479
33676W        W98936  11.364  42.618  10.844
33677W        W98937  44.184   8.665  11.072
33678W        W98938   1.379  38.881  14.262
33679W        W98939   4.081  12.270  10.928
33680W        W98940   5.985  33.935  13.576
33681W        W98941  39.504  44.904  12.449
33682W        W98942   4.412  39.554   3.316
33683W        W98943  16.408   6.822   2.015
33684W        W98944  36.468  10.944   2.716
33685W        W98945  18.214   0.553   4.610
33686W        W98946  31.644  28.813   4.080
33687W        W98947   1.404  42.341   1.739
33688W        W98948   3.715  18.174   1.208
33689W        W98949  42.347   5.470  11.115
33690W        W98950   0.232  24.535  14.440
33691W        W98951  23.787  10.711  13.632
33692W        W98952  32.379  34.797  14.512
33693W        W98953  40.814  38.310  10.975
33694W        W98954   7.237  12.295   2.350
33695W        W98955  32.289   7.776  14.665
33696W        W98956  24.576  16.913   4.570
33697W        W98957  40.791  26.940   3.803
33698W        W98958  13.653  17.208  13.946
33699W        W98959  38.855  25.219   2.813
33700W        W98960   1.800  21.296   3.234
33701W        W98961  21.702  13.710   2.857
33702W        W98962  10.286  16.145  11.173
33703W        W98963  44.793   1.688  11.141
33704W        W98964   2.225  35.134   0.205
33705W        W98965  19.729  32.917  14.692
33706W        W98966  10.639  24.619   2.853
33707W        W98967  32.049   2.419  11.449
33708W        W98968   2.546  29.628  13.442
33709W        W98969   0.312  13.557  13.557
33710W        W98970  40.356  31.573  12.597
33711W        W98971   4.959   4.739   1.859
33712W        W98972  24.901  17.417   0.790
33713W        W98973  44.941  23.538  13.559
33714W        W98974  24.498   7.722  14.479
33715W        W98975  19.350  11.654  12.424
33716W        W98976  28.544  22.146  14.342
33717W        W98977   1.953  15.633   0.799
33718W        W98978  19.630  27.674   1.712
33719W        W98979  36.093  37.092   3.691
33720W        W98980  28.465  36.932   1.630
33721W        W98981  26.639  20.713  14.965
33722W        W98982  29.407  23.787   0.738
33723W        W98983  19.256  38.923   4.558
33724W        W98984  13.184  36.622   2.366
33725W        W98985  22.395   3.361   4.625
33726W        W98986  44.793  22.202   0.395
33727W        W98987  35.457  29.133   2.849
33728W        W98988   6.220  10.259  13.812
33729W        W98989  29.060  39.167   4.147
33730W        W98990  40.613   2.978  13.890
33731W        W98991  37.455  23.554   4.778
33732W        W98992  27.951  36.608   4.186
33733W        W98993  38.773   5.042   5.203
33734W        W98994  10.640  30.709  14.391
33735W        W98995  43.234   1.472  13.795
33736W        W98996  42.024  24.675   1.490
33737W        W98997  12.428  18.011  12.423
33738W        W98998  24.989  33.939   3.208
33739W        W98999  42.307   2.821  10.659
33740W        W99000  26.552  21.504   3.151
33741W        W99001  10.099   4.237   2.631
33742W        W99002   2.431   3.533  10.102
33743W        W99003   7.308  17.191  14.411
33744W        W99004  12.134  12.267  10.558
33745W        W99005  21.293   9.704  10.884
33746W        W99006  16.211   1.843   2.618
33747W        W99007  31.047  41.387   1.722
33748W        W99008  43.881  14.592  13.985
33749W        W99009  32.031  25.937   2.811
33750W        W99010  13.608   4.984  14.494
33751W        W99011  38.127  10.302   4.750
33752W        W99012  11.235  13.305  12.438
33753W        W99013  29.848  37.046   4.277
33754W        W99014  37.643   7.134  14.054
33755W        W99015  26.104  42.433   2.670
33756W        W99016  38.428  20.328  12.179
33757W        W99017  40.222  30.012   3.701
33758W        W99018  17.141  37.438   2.456
33759W        W99019  11.369   9.305   4.877
33760W        W99020  17.279  41.745  13.607
33761W        W99021   5.397  10.140  12.853
33762W        W99022  40.873  42.025  12.898
33763W        W99023  25.784  10.781   0.851
33764W        W99024  10.651  23.188  11.607
33765W        W99025  39.747  10.392   4.408
33766W        W99026  26.740   3.855   5.060
33767W        W99027  26.647   1.998   0.290
33768W        W99028  34.412  34.211   0.482
33769W        W99029   2.822  28.125   4.178
33770W        W99030  29.895  40.376  14.367
33771W        W99031  26.581  15.618  13.110
33772W        W99032  31.510  39.993  10.380
33773W        W99033  39.807  17.422   1.281
33774W        W99034  42.927   2.164  14.090
33775W        W99035  26.128  17.556  13.724
33776W        W99036   6.814  12.713  13.142
33777W        W99037  40.361   9.001  10.679
33778W        W99038  15.274  16.614   3.741
33779W        W99039  18.342  39.900   3.660
33780W        W99040  37.739   1.249  11.533
33781W        W99041  22.336  38.977  14.816
33782W        W99042  19.578  21.233  10.191
33783W        W99043  22.285  39.995   3.280
33784W        W99044  34.902  24.740   3.969
33785W        W99045  41.906  15.516  12.086
33786W        W99046  26.031  20.559  14.009
33787W        W99047  19.711  40.727  12.962
33788W        W99048  38.669   0.403   1.980
33789W        W99049  41.232  34.163  13.902
33790W        W99050  22.540  22.052   1.183
33791W        W99051  40.553  10.919   3.289
33792W        W99052  14.078  19.599  10.060
33793W        W99053   1.450  24.288   4.998
33794W        W99054  41.273  29.991   1.451
33795W        W99055  34.876   8.980   1.565
33796W        W99056  30.594  27.189   3.219
33797W        W99057  44.977  13.325   3.167
33798W        W99058   9.744   6.281   2.255
33799W        W99059  43.478  23.538   0.262
33800W        W99060  18.607  18.672   3.591
33801W        W99061  30.165  40.920   0.811
33802W        W99062  43.975   9.442   1.284
33803W        W99063  36.432  41.837  11.611
33804W        W99064  15.756  43.438  10.637
33805W        W99065   9.410  10.173   4.208
33806W        W99066  28.786  13.187  11.684
33807W        W99067  12.412   9.761   5.510
33808W        W99068  12.398  44.070   0.419
33809W        W99069   3.471  25.115   0.775
33810W        W99070  26.436   4.250   1.667
33811W        W99071  41.458  37.186   2.854
33812W        W99072  30.192  30.099  10.658
33813W        W99073  12.595  10.665  11.752
33814W        W99074   0.941  36.145   0.867
33815W        W99075  44.326  20.761  11.823
33816W        W99076   8.725  42.348   2.615
33817W        W99077  26.882  24.673   4.043
33818W        W99078  34.462  44.650  14.861
33819W        W99079  18.526  17.616   3.610
33820W        W99080  18.169  40.575   1.926
33821W        W99081  11.695  38.113  14.334
33822W        W99082  11.487  37.477   4.396
33823W        W99083  31.653  34.654   2.429
33824W        W99084  15.182  39.635   4.255
33825W        W99085  23.124  29.875  14.564
33826W        W99086  27.109  31.369  14.445
33827W        W99087  23.602  38.866   2.347
33828W        W99088  32.862  17.726   4.531
33829W        W99089  17.058   7.942  10.585
33830W        W99090  28.169  26.982   0.005
33831W        W99091   7.845  19.721   4.390
33832W        W99092  23.713  28.344   4.081
33833W        W99093   1.982  21.800   0.883
33834W        W99094   3.856  24.974   3.103
33835W        W99095  27.496  16.179  14.026
33836W        W99096  10.613  44.538   1.038
33837W        W99097  13.268  39.513   0.261
33838W        W99098  30.905  29.959   4.581
33839W        W99099  28.175  18.713   3.002
33840W        W99100  26.130  41.401  14.497
33841W        W99101   6.814  24.175   4.666
33842W        W99102  18.611   4.847   4.701
33843W        W99103  11.300  29.532   4.570
33844W        W99104  22.057  40.371   1.096
33845W        W99105  19.392  29.943  13.661
33846W        W99106  31.431  32.549   0.571
33847W        W99107  18.099  11.306  11.502
33848W        W99108  41.950   6.272  12.094
33849W        W99109  14.623  20.454  10.622
33850W        W99110  12.428  39.352   2.905
33851W        W99111   9.640  19.698  11.714
33852W        W99112  43.624  33.680   1.305
33853W        W99113  17.072   0.323  13.020
33854W        W99114  27.313  17.884  10.085
33855W        W99115  39.103  38.808  11.514
33856W        W99116  22.719  22.769   2.866
33857W        W99117  15.755   4.692   0.256
33858W        W99118   4.232  44.781   1.798
33859W        W99119  17.280  10.419  13.025
33860W        W99120   5.460  43.843   1.184
33861W        W99121   0.920  19.579   3.642
33862W        W99122  28.686  44.350  10.713
33863W        W99123  25.180  21.051   2.572
33864W        W99124   1.270  15.787  13.494
33865W        W99125  14.304  27.701  12.206
33866W        W99126  20.293   2.806  11.591
33867W        W99127  41.381  18.023  11.382
33868W        W99128  17.030  23.706  14.233
33869W        W99129  33.304  36.549  12.466
33870W        W99130  17.598  42.834  12.068
33871W        W99131  24.199  31.533  10.660
33872W        W99132  10.549  43.385   2.415
33873W        W99133  34.465  16.689   4.406
33874W        W99134  34.576  24.225   0.321
33875W        W99135  40.063   7.435  11.264
33876W        W99136  15.196  42.714  11.127
33877W        W99137   1.222  31.148   0.864
33878W        W99138  16.487   9.214  12.732
33879W        W99139  21.054  23.704  13.097
33880W        W99140  26.307  17.237  12.410
33881W        W99141   4.871   1.012  12.157
33882W        W99142  24.483  14.469   1.377
33883W        W99143  42.268   1.870  12.358
33884W        W99144   0.325  10.736  14.011
33885W        W99145  16.347   8.267   1.927
33886W        W99146  25.077  26.250  13.794
33887W        W99147  38.338  40.866  14.488
33888W        W99148   5.703  18.465   1.842
33889W        W99149  24.494  40.997  13.075
33890W        W99150  42.802  36.859   4.299
33891W        W99151  10.351  29.231  12.123
33892W        W99152  27.773  35.534  11.938
33893W        W99153  28.485  33.785   3.721
33894W        W99154  16.993  17.632  13.015
33895W        W99155   1.859   3.875  10.756
33896W        W99156  18.166   9.288   3.232
33897W        W99157   9.581  13.748   3.221
33898W        W99158  24.097   1.191  12.980
33899W        W99159  18.250   7.884  11.259
33900W        W99160  37.600  35.021   1.904
33901W        W99161  26.375   7.996   3.539
33902W        W99162  37.522  25.402   4.137
33903W        W99163   5.913  12.928  13.511
33904W        W99164  29.740  13.107   3.774
33905W        W99165  41.061  10.734   1.990
33906W        W99166  28.131  21.939  13.315
33907W        W99167  24.644  33.904   0.742
33908W        W99168   8.720  19.085   2.283
33909W        W99169  33.529   6.430   0.428
33910W        W99170  41.571  28.261  12.420
33911W        W99171  30.053  25.474  13.657
33912W        W99172  10.658   5.260   1.331
33913W        W99173  41.048  27.380  12.332
33914W        W99174  28.952  23.039   0.327
33915W        W99175  35.314  26.414  13.011
33916W        W99176  42.445  26.131   2.246
33917W        W99177   3.796  30.920   1.725
33918W        W99178   8.413  20.105  13.945
33919W        W99179   0.911  44.051   2.711
33920W        W99180  41.361  30.591   4.123
33921W        W99181  24.777  23.749  12.801
33922W        W99182  27.193  25.254  11.600
33923W        W99183  21.665  21.972   0.936
33924W        W99184  35.351  39.978   1.747
33925W        W99185  37.032  16.960   2.185
33926W        W99186   5.776  17.304  14.345
33927W        W99187  15.724   5.959  12.247
33928W        W99188  33.769  33.174   1.372
33929W        W99189  44.014  39.484  12.568
33930W        W99190  20.606  29.516   4.852
33931W        W99191  35.032   0.302  10.773
33932W        W99192  16.865  15.606   0.311
33933W        W99193  22.577  30.061  13.916
33934W        W99194   3.681  15.764   1.726
33935W        W99195  39.505   7.314   2.839
33936W        W99196  29.908  33.775  14.761
33937W        W99197   6.487  16.214  14.467
33938W        W99198  41.987  17.629   0.395
33939W        W99199   0.014  12.203  12.490
33940W        W99200   5.255   9.749  11.591
33941W        W99201  35.493  37.225   4.919
33942W        W99202  34.022  20.416  10.450
33943W        W99203  29.257   2.484  13.500
33944W        W99204   4.463  16.181   2.099
33945W        W99205  27.910  20.946  12.932
33946W        W99206  27.950  44.356   4.558
33947W        W99207  24.597  18.674   1.125
33948W        W99208  32.982   6.146  14.596
33949W        W99209  10.372  15.424  11.970
33950W        W99210   9.402  22.115   2.804
33951W        W99211  21.526  11.295  12.494
33952W        W99212  23.027  13.297   1.303
33953W        W99213   7.347  12.555  14.848
33954W        W99214  33.573   1.015  12.439
33955W        W99215  40.817  27.090   3.320
33956W        W99216  43.791  21.551   4.367
33957W        W99217  15.795  10.617  12.867
33958W        W99218  15.164  17.040   4.208
33959W        W99219   4.042   1.512  12.485
33960W        W99220  35.320   2.477  11.709
33961W        W99221  35.149   7.750  14.479
33962W        W99222  29.711  20.149  12.473
33963W        W99223  42.255  32.931   3.002
33964W        W99224  39.990   8.233   3.663
33965W        W99225  16.151  12.144  11.157
33966W        W99226  20.611   8.196  11.622
33967W        W99227  44.798   2.122   3.528
33968W        W99228  38.774  21.045  11.030
33969W        W99229   7.758   1.002   3.559
33970W        W99230   8.611  31.122  14.718
33971W        W99231  30.161  28.640   4.573
33972W        W99232  25.836  33.674   2.658
33973W        W99233  34.637  21.127   1.911
33974W        W99234  18.477   4.238  11.636
33975W        W99235   4.700  33.405   1.054
33976W        W99236   4.637   1.258  14.944
33977W        W99237  22.687   0.219   3.297
33978W        W99238   1.700  31.310   2.299
33979W        W99239  42.419  23.949   2.393
33980W        W99240  12.608  12.577   0.391
33981W        W99241  31.615  17.084  14.864
33982W        W99242  23.690  44.935  14.736
33983W        W99243  19.638  13.125  11.849
33984W        W99244   2.986  34.525   0.290
33985W        W99245  44.380  43.995  12.633
33986W        W99246  27.443  11.344  10.963
33987W        W99247   1.445  21.542   1.914
33988W        W99248  39.245  28.521   4.969
33989W        W99249  44.601  29.155  11.613
33990W        W99250  10.619  39.837   4.334
33991W        W99251  12.643   5.834  14.925
33992W        W99252  44.067  29.670   1.855
33993W        W99253  29.458  26.754   5.259
33994W        W99254  34.272   0.866   4.497
33995W        W99255   1.861  41.220   3.744
33996W        W99256  35.145  29.144  14.454
33997W        W99257   2.880  17.027  14.547
33998W        W99258   7.215   8.369  11.504
33999W        W99259  29.413  10.721   2.137
34000W        W99260  36.096   6.627   3.869
34001W        W99261  36.138  14.598   0.249
34002W        W99262  28.429  16.205  14.508
34003W        W99263  16.557  25.444   0.463
34004W        W99264   1.828   7.412   2.392
34005W        W99265  25.485   2.410  13.853
34006W        W99266  32.324  27.375  14.026
34007W        W99267   9.708   8.089  12.288
34008W        W99268  16.572  22.055   2.882
34009W        W99269  28.029  15.830  11.667
34010W        W99270  25.427  15.423  10.630
34011W        W99271  33.017  14.047  11.030
34012W        W99272   7.929  38.407   1.982
34013W        W99273  32.612  28.510  10.671
34014W        W99274   6.011  35.443  11.501
34015W        W99275  18.335  40.873   2.593
34016W        W99276   6.700  24.305   2.003
34017W        W99277   9.407  21.592   4.494
34018W        W99278   6.617  14.797  12.193
34019W        W99279  26.257  29.958   1.921
34020W        W99280   9.157  31.509  10.746
34021W        W99281   3.561   7.472  11.192
34022W        W99282   4.791  43.574   0.727
34023W        W99283  42.335   0.572  12.109
34024W        W99284  33.049   4.471  14.514
34025W        W99285  39.088   1.670   0.463
34026W        W99286  42.016  14.207   0.659
34027W        W99287   3.018   0.529   3.550
34028W        W99288  11.120  20.156   3.784
34029W        W99289   9.629  31.686  13.451
34030W        W99290  17.798  34.505  13.802
34031W        W99291  10.948  36.988   1.436
34032W        W99292  38.980  44.755   4.152
34033W        W99293  40.334  41.998  13.540
34034W        W99294  19.193  33.576   4.430
34035W        W99295   1.416  19.621  13.793
34036W        W99296  31.480   0.905   3.084
34037W        W99297   9.614  17.723  13.332
34038W        W99298  13.056  12.604   0.673
34039W        W99299   3.991   4.746  11.140
34040W        W99300  19.513  17.096   1.650
34041W        W99301  34.558   0.388  11.966
34042W        W99302  37.827  11.320   1.266
34043W        W99303   6.248  29.708  12.293
34044W        W99304   9.684  29.099  12.505
34045W        W99305  11.209  24.133   2.255
34046W        W99306  17.281   8.143  10.137
34047W        W99307  37.389   4.980  12.969
34048W        W99308  10.754  20.545   0.545
34049W        W99309  23.130  16.261   2.669
34050W        W99310  16.382  35.308   4.176
34051W        W99311  21.696  30.079  13.747
34052W        W99312  41.306   5.748  12.483
34053W        W99313  36.046  39.156  12.531
34054W        W99314  40.931  32.688   0.918
34055W        W99315  35.052  14.370  12.408
34056W        W99316   3.637  24.632   1.414
34057W        W99317  21.462  14.807   1.589
34058W        W99318  14.752  22.636  12.398
34059W        W99319   4.874  28.964   4.523
34060W        W99320  33.396   1.992  12.746
34061W        W99321  20.589  21.189  14.422
34062W        W99322   5.902  26.747  11.107
34063W        W99323  21.610   2.356   0.387
34064W        W99324  38.640  42.347  13.368
34065W        W99325  28.592  15.718   2.649
34066W        W99326  19.099   7.357  14.394
34067W        W99327  14.617  44.936  14.928
34068W        W99328   8.478  19.313  13.510
34069W        W99329  21.237  27.188   1.724
34070W        W99330  12.063  43.827   0.079
34071W        W99331  12.658  14.140  11.517
34072W        W99332  23.057   3.074   5.128
34073W        W99333   6.679  32.602  11.567
34074W        W99334  27.196  16.997   1.740
34075W        W99335  32.442   3.390  11.392
34076W        W99336  15.571  12.265   4.342
34077W        W99337  27.509  42.410  12.115
34078W        W99338  16.476  44.000  13.865
34079W        W99339  41.723   3.790  14.339
34080W        W99340  28.801   6.873   2.352
34081W        W99341  23.444  25.535  14.890
34082W        W99342  17.192  11.720  12.243
34083W        W99343  17.361  30.888   0.747
34084W        W99344  38.297  25.207  13.800
34085W        W99345  38.488  16.616   3.843
34086W        W99346   3.399  36.280  14.904
34087W        W99347  31.708  28.701  13.756
34088W        W99348  42.529  14.182   0.748
34089W        W99349  13.062  32.450  11.824
34090W        W99350  39.480  35.798  11.832
34091W        W99351  40.888  14.092  12.044
34092W        W99352   0.881  39.957  10.720
34093W        W99353  44.537  12.007  14.606
34094W        W99354  30.183   5.432   4.347
34095W        W99355  34.644  30.065  12.993
34096W        W99356  32.092  34.929   0.650
34097W        W99357  27.909   2.960   0.559
34098W        W99358  13.105  24.196   0.837
34099W        W99359  20.465  37.786  14.696
34100W        W99360   9.173   6.480  11.037
34101W        W99361   9.072  13.715   0.307
34102W        W99362  42.823  14.136  11.615
34103W        W99363  21.524  38.113   3.613
34104W        W99364  29.988  21.998  11.614
34105W        W99365  22.995  20.502   3.824
34106W        W99366  32.642  28.348   1.345
34107W        W99367  31.045  24.515   4.872
34108W        W99368   3.268  35.429   4.927
34109W        W99369  32.817  14.698   2.327
34110W        W99370  40.963  33.122  13.978
34111W        W99371  37.505  34.219   0.794
34112W        W99372  32.192  23.453  12.611
34113W        W99373  27.104   3.228   0.392
34114W        W99374   4.046  31.394   4.662
34115W        W99375  30.150  11.717   1.658
34116W        W99376   6.446  15.639  12.038
34117W        W99377  12.574  43.503  14.601
34118W        W99378   2.061  18.303  13.910
34119W        W99379  38.610  36.406  13.824
34120W        W99380  17.477  41.307  14.517
34121W        W99381   3.103  19.374   2.269
34122W        W99382  27.486  41.510  14.694
34123W        W99383   9.708  35.572  11.649
34124W        W99384  36.527  40.878   1.211
34125W        W99385  12.268  11.295   3.707
34126W        W99386  38.437  37.298   0.990
34127W        W99387  16.207  33.974   4.126
34128W        W99388  21.648  38.412  14.012
34129W        W99389  11.231  14.590  14.409
34130W        W99390  23.244  30.526   0.834
34131W        W99391  17.091   3.258  11.223
34132W        W99392  22.165  34.619   1.770
34133W        W99393  42.420  19.747  13.407
34134W        W99394  44.890   9.385  13.631
34135W        W99395  43.452  40.750   4.402
34136W        W99396  29.605   4.871   3.114
34137W        W99397  28.630  21.478  14.815
34138W        W99398   3.317  24.577   4.608
34139W        W99399  16.429  38.876   4.603
34140W        W99400  37.845  42.142   0.657
34141W        W99401  25.714  15.268   3.152
34142W        W99402   2.800   9.491   0.679
34143W        W99403  22.995  20.273   1.275
34144W        W99404  38.674  24.013  14.265
34145W        W99405  24.743   7.259   3.096
34146W        W99406  11.723  29.525   0.586
34147W        W99407  14.768   8.425   2.608
34148W        W99408   3.591  35.701  13.024
34149W        W99409   3.062  20.614  12.936
34150W        W99410  11.786  12.597   2.694
34151W        W99411  23.445  44.604   4.125
34152W        W99412  15.245  42.448   3.661
34153W        W99413  40.812   4.193   0.728
34154W        W99414  14.179  33.625  14.714
34155W        W99415   4.681  16.327  12.053
34156W        W99416  18.801   2.452  12.892
34157W        W99417   3.519   6.123  14.856
34158W        W99418  15.719  31.453  11.497
34159W        W99419  37.885  37.604  12.975
34160W        W99420  26.579   0.707   1.888
34161W        W99421   9.264   0.092   0.775
34162W        W99422  24.649  40.802   4.087
34163W        W99423  37.025  37.071   4.169
34164W        W99424  16.330  22.633  12.517
34165W        W99425  10.825  23.001   2.912
34166W        W99426   0.962   8.790  10.740
34167W        W99427  29.590   9.891   3.096
34168W        W99428  22.965   9.781  13.822
34169W        W99429  23.586  28.366  11.154
34170W        W99430  31.050  28.191  14.827
34171W        W99431  35.611  22.762   2.731
34172W        W99432  22.438  26.737   1.161
34173W        W99433  40.484  43.919   3.133
34174W        W99434  13.916   3.042  13.906
34175W        W99435  24.096  20.179  12.915
34176W        W99436  32.468  22.654   1.689
34177W        W99437  41.865  12.547   2.291
34178W        W99438  22.964  33.842   0.216
34179W        W99439   0.469  39.276  12.362
34180W        W99440  41.556  15.246   1.175
34181W        W99441  30.078   6.355  14.275
34182W        W99442  18.329  34.355   4.628
34183W        W99443  41.518   9.078  12.180
34184W        W99444   8.086  14.702  13.940
34185W        W99445   8.329  42.141   2.337
34186W        W99446  27.291   7.202  14.637
34187W        W99447   6.977  22.775  13.381
34188W        W99448  13.662  32.645   0.450
34189W        W99449  33.879   5.957  11.891
34190W        W99450  30.833  33.373   2.901
34191W        W99451  20.617  33.899   2.789
34192W        W99452  36.144  23.512  13.869
34193W        W99453  14.814  17.101   0.217
34194W        W99454  15.625   3.417  12.913
34195W        W99455  33.877  36.979   3.241
34196W        W99456  35.798   3.251   3.140
34197W        W99457   8.976  36.496  11.576
34198W        W99458   6.341  41.297   2.306
34199W        W99459  21.694   9.977  11.247
34200W        W99460  37.625  16.143   2.434
34201W        W99461  35.809   5.391   1.809
34202W        W99462  16.841  42.443  13.812
34203W        W99463  12.945  11.737   2.756
34204W        W99464  11.896  26.542   5.100
34205W        W99465  41.029  32.737  11.625
34206W        W99466  32.341  11.668   4.623
34207W        W99467  12.904  26.624   5.075
34208W        W99468   6.029  19.399   3.698
34209W        W99469  13.111   0.477  11.135
34210W        W99470  24.119  36.559   3.159
34211W        W99471  23.145   3.704  12.959
34212W        W99472  41.886  37.839  14.543
34213W        W99473  30.222   9.206   4.814
34214W        W99474  24.574  41.837   4.184
34215W        W99475  38.903   2.258  14.557
34216W        W99476  31.961  35.068   0.178
34217W        W99477  27.273  42.841  14.380
34218W        W99478   9.251  27.142   3.508
34219W        W99479  25.316  29.721  11.190
34220W        W99480  43.766  37.037   2.245
34221W        W99481  17.530  41.910   0.918
34222W        W99482  26.149  24.455  14.504
34223W        W99483  14.883  27.930  11.452
34224W        W99484  25.074  31.184   1.361
34225W        W99485  22.736  29.054  14.054
34226W        W99486   3.376  40.386  10.595
34227W        W99487   2.390   3.288   0.206
34228W        W99488   4.202   5.237  11.148
34229W        W99489  30.243  23.642  11.623
34230W        W99490  32.621  38.391   4.354
34231W        W99491  14.280  14.614  13.047
34232W        W99492  35.689  34.384   0.800
34233W        W99493   8.950  17.212  10.906
34234W        W99494  36.218  14.320   0.700
34235W        W99495   8.600  21.477   1.405
34236W        W99496  13.760  39.569  11.110
34237W        W99497   0.839   8.096   1.769
34238W        W99498   5.678  41.417   1.169
34239W        W99499  27.547   6.082   3.691
34240W        W99500  32.448   4.363  11.194
34241W        W99501  27.665   2.961  12.760
34242W        W99502  30.682  33.350   4.986
34243W        W99503   7.050   2.012  12.911
34244W        W99504  42.333  39.976   0.790
34245W        W99505   7.335   1.147  11.497
34246W        W99506  28.112  20.571   2.809
34247W        W99507   2.676  17.285   2.325
34248W        W99508   1.464  19.533  12.356
34249W        W99509  16.940  11.894  11.529
34250W        W99510  40.450  35.853   1.832
34251W        W99511   6.611  10.853   0.891
34252W        W99512   8.904  25.073  14.397
34253W        W99513  42.691  27.549   4.673
34254W        W99514  33.043  20.262  11.547
34255W        W99515  14.201  18.542  12.978
34256W        W99516  16.218   9.034   1.970
34257W        W99517  29.964  36.045   4.232
34258W        W99518  35.194  21.108  10.693
34259W        W99519  18.142  12.413   0.894
34260W        W99520   8.812  35.047   0.651
34261W        W99521  32.623  29.249  11.107
34262W        W99522  23.401  23.126   4.942
34263W        W99523  14.128  16.282   2.886
34264W        W99524   6.915  24.428  11.420
34265W        W99525  41.151  37.565   2.166
34266W        W99526  23.073  41.474  11.079
34267W        W99527   2.219  14.816  14.885
34268W        W99528  33.667   4.856   0.819
34269W        W99529   4.688  35.940   0.417
34270W        W99530   3.337  25.277  14.510
34271W        W99531  20.143  11.843  11.260
34272W        W99532  12.526  25.942   1.237
34273W        W99533  17.865  22.037  14.565
34274W        W99534  16.836  39.488   1.751
34275W        W99535   2.232  24.649   0.982
34276W        W99536  11.442  15.238  13.914
34277W        W99537  33.989  36.638   0.347
34278W        W99538  22.674  29.667  12.144
34279W        W99539  27.519  16.187  14.537
34280W        W99540  19.261  10.215  13.056
34281W        W99541  34.119  12.623  12.621
34282W        W99542  10.353  18.772  13.324
34283W        W99543  35.516  23.622  10.476
34284W        W99544  19.743   4.999   3.654
34285W        W99545  35.049  31.832   0.344
34286W        W99546  18.213  38.565  12.490
34287W        W99547  29.577  12.067  13.375
34288W        W99548   8.639  43.482  14.816
34289W        W99549   1.065  23.055   4.155
34290W        W99550  43.164   5.183  13.421
34291W        W99551  29.103  19.025  14.817
34292W        W99552   3.766   3.389  13.858
34293W        W99553  33.896   3.048  14.266
34294W        W99554  17.393  30.324   5.078
34295W        W99555  34.094   9.994  11.131
34296W        W99556  29.550  25.430   2.857
34297W        W99557   7.320  21.685  12.930
34298W        W99558   4.558  14.006   1.547
34299W        W99559  25.455  29.574   2.631
34300W        W99560  25.724  37.106  10.201
34301W        W99561   5.499  39.096  13.538
34302W        W99562  20.428  34.927  13.385
34303W        W99563  39.906  25.447  13.530
34304W        W99564   4.298  26.996   3.172
34305W        W99565  14.644   0.230   4.272
34306W        W99566  42.944  19.793  13.500
34307W        W99567  29.568  27.540   0.969
34308W        W99568   7.926  30.475   0.989
34309W        W99569  30.508  28.114   2.233
34310W        W99570  20.375  19.770   4.032
34311W        W99571   1.874   9.922   2.342
34312W        W99572  33.623  41.041   4.541
34313W        W99573  21.444  42.318   2.296
34314W        W99574  37.879  42.762   2.573
34315W        W99575  22.597  32.683   0.728
34316W        W99576  24.107   7.447   4.300
34317W        W99577  19.489  20.060   2.207
34318W        W99578   1.315  28.528  12.431
34319W        W99579  21.529  22.095  10.486
34320W        W99580  44.776   8.741  13.336
34321W        W99581  42.803   7.206   2.012
34322W        W99582  11.374  22.994  13.216
34323W        W99583  39.546  11.264   3.783
34324W        W99584  40.543   5.397  11.720
34325W        W99585   8.762   6.903  12.927
34326W        W99586  36.784  44.738   2.811
34327W        W99587  17.707  19.178   3.803
34328W        W99588   4.451  44.733   0.868
34329W        W99589   9.860  31.884  12.975
34330W        W99590  41.898  12.688   4.630
34331W        W99591  40.272  30.547  11.108
34332W        W99592  41.724  35.989   4.583
34333W        W99593  13.357  26.659   3.712
34334W        W99594   7.696   1.882   1.171
34335W        W99595  17.741  13.575  13.417
34336W        W99596  12.058  36.874   0.680
34337W        W99597   2.360  13.603   3.442
34338W        W99598  25.818  29.436  12.337
34339W        W99599  25.583  17.825   3.247
34340W        W99600  20.264  19.438   5.076
34341W        W99601  16.313  44.940   2.860
34342W        W99602   7.549   1.325  13.092
34343W        W99603   9.020  34.658   4.224
34344W        W99604   4.183  41.836  13.516
34345W        W99605  36.053   6.325  14.975
34346W        W99606  17.059  11.340   0.450
34347W        W99607  11.311  10.393   2.359
34348W        W99608  17.648  44.721  11.050
34349W        W99609  23.499  20.240   4.333
34350W        W99610  27.165   3.011  12.905
34351W        W99611   3.189  13.799   4.626
34352W        W99612   2.133  14.133  13.257
34353W        W99613   2.791  16.341  13.122
34354W        W99614   2.480  42.042   1.360
34355W        W99615  15.978   5.751  14.720
34356W        W99616  44.424  26.160   1.667
34357W        W99617  14.646  44.231   0.252
34358W        W99618  23.121  16.476  12.056
34359W        W99619  12.171  25.735  10.486
34360W        W99620  32.391   8.155  10.828
34361W        W99621  29.723  10.389   3.797
34362W        W99622  43.434   1.093   3.290
34363W        W99623  39.803  43.928   1.900
34364W        W99624  30.694  27.412  12.137
34365W        W99625  37.035   4.196  12.407
34366W        W99626  20.536  11.231   3.093
34367W        W99627  21.354   8.795  11.083
34368W        W99628  29.885  12.169   0.791
34369W        W99629  32.590   6.311  11.506
34370W        W99630  14.210  17.150  12.996
34371W        W99631   5.275  44.295  11.686
34372W        W99632  12.526  22.693   1.511
34373W        W99633  22.707   0.819  13.591
34374W        W99634   8.910  18.120   2.151
34375W        W99635  12.707   5.889   4.374
34376W        W99636  36.499  24.878   0.733
34377W        W99637  36.462  41.249  10.701
34378W        W99638  11.649   8.163   2.694
34379W        W99639  22.368  40.303  12.943
34380W        W99640   6.283  15.166  12.093
34381W        W99641  42.450  20.803  14.814
34382W        W99642  38.016  29.423  14.041
34383W        W99643  14.004  26.107  14.440
34384W        W99644   0.086  39.515   3.540
34385W        W99645  19.637  12.751   0.136
34386W        W99646   5.304  31.591  12.787
34387W        W99647  20.971   6.386   1.815
34388W        W99648  42.227  34.568   1.343
34389W        W99649  30.937   7.194   5.161
34390W        W99650  20.153  42.753   1.201
34391W        W99651   9.381  34.474   0.289
34392W        W99652   2.422  31.720  10.479
34393W        W99653   2.432   3.962  14.245
34394W        W99654  10.039   1.195  11.146
34395W        W99655  14.567  40.014  12.268
34396W        W99656  35.897   5.272  13.364
34397W        W99657   3.560  26.812  14.850
34398W        W99658  19.205   1.525  13.039
34399W        W99659  38.011  19.407   2.027
34400W        W99660  26.075  32.031   0.665
34401W        W99661  32.135  37.932   4.979
34402W        W99662  35.551  21.106  12.044
34403W        W99663   6.394  39.392   0.722
34404W        W99664  15.638   2.499  14.845
34405W        W99665  29.149   2.042  12.331
34406W        W99666  22.037  35.874   2.965
34407W        W99667  18.619  22.425   0.899
34408W        W99668  10.724  18.037   3.197
34409W        W99669  28.020  37.969   0.411
34410W        W99670  43.959   7.870  14.554
34411W        W99671  21.103  16.169  13.008
34412W        W99672  32.468  30.142  10.933
34413W        W99673  43.557  19.298  11.114
34414W        W99674  11.025  44.379   0.691
34415W        W99675  27.677  27.263   1.504
34416W        W99676   9.643  21.604   2.178
34417W        W99677   4.357   3.729   2.287
34418W        W99678  14.859   7.177  10.637
34419W        W99679  12.168  16.729  14.489
34420W        W99680  34.048  19.199   4.331
34421W        W99681  22.794  20.144  11.541
34422W        W99682  36.830  10.180  14.284
34423W        W99683  10.369   6.304  10.129
34424W        W99684  12.245  33.105   4.311
34425W        W99685   2.786   5.837  13.921
34426W        W99686  18.685  32.157   3.734
34427W        W99687  24.571  20.192   3.626
34428W        W99688  34.534  43.131  12.392
34429W        W99689  14.217   0.986  13.962
34430W        W99690  12.615  25.703  12.122
34431W        W99691  15.274   5.036   4.354
34432W        W99692   8.890   3.866  14.233
34433W        W99693  36.315  15.183   1.063
34434W        W99694  12.743  24.135  11.817
34435W        W99695  29.196  35.150  14.819
34436W        W99696  17.071  41.279  13.572
34437W        W99697   9.528  17.781   2.678
34438W        W99698  30.125  14.288  13.059
34439W        W99699   8.329  23.969   2.286
34440W        W99700   1.799   8.196   1.706
34441W        W99701  40.835  40.754   3.497
34442W        W99702  35.967  27.360   1.405
34443W        W99703  33.430  11.757   1.843
34444W        W99704  11.317  11.221  10.554
34445W        W99705   3.467   5.919   4.350
34446W        W99706  35.116   0.648   2.728
34447W        W99707  29.354  28.161   4.416
34448W        W99708  13.895  23.161  14.641
34449W        W99709  22.743  33.545   5.090
34450W        W99710   9.215  44.955  12.784
34451W        W99711   3.582   9.259   0.920
34452W        W99712   4.819  43.997  13.066
34453W        W99713  35.101  25.201  11.546
34454W        W99714  24.788   5.519   1.269
34455W        W99715  43.693  26.548   3.873
34456W        W99716  29.520  19.207   3.201
34457W        W99717  27.421  26.677   2.707
34458W        W99718   8.897  43.942   4.694
34459W        W99719  16.032   5.997   2.796
34460W        W99720  26.043   3.484   2.927
34461W        W99721  43.378  17.314  13.056
34462W        W99722  28.781  20.090  14.313
34463W        W99723  17.699  22.318  12.075
34464W        W99724  42.527   5.931   2.895
34465W        W99725  18.237  28.960   4.831
34466W        W99726   6.662   8.617  13.964
34467W        W99727   9.868  23.106  14.286
34468W        W99728   9.780  18.618   4.105
34469W        W99729  10.302  32.631  12.920
34470W        W99730  22.687  14.015  14.054
34471W        W99731   2.692  25.683   2.002
34472W        W99732  20.982   9.698   1.236
34473W        W99733  10.125  32.164   4.107
34474W        W99734  43.134  34.325  12.531
34475W        W99735  32.219  14.853   4.064
34476W        W99736   9.747  34.674   3.749
34477W        W99737  28.835   8.662   2.779
34478W        W99738  27.615  22.065  12.005
34479W        W99739  24.570  42.082   0.844
34480W        W99740  14.388  11.204  11.994
34481W        W99741   5.939   7.279   0.381
34482W        W99742  14.123  35.583   4.610
34483W        W99743   5.984   5.954  14.224
34484W        W99744  13.058  37.031  14.461
34485W        W99745  22.989  43.752  12.747
34486W        W99746  25.001  29.027   2.335
34487W        W99747  39.392  22.240  11.323
34488W        W99748   7.507  24.247  14.963
34489W        W99749   4.490  32.362  11.225
34490W        W99750  42.869  24.624   4.804
34491W        W99751   7.327  22.749  14.434
34492W        W99752  28.601  43.467   0.563
34493W        W99753  18.283  24.208   4.870
34494W        W99754  15.781  16.575   3.777
34495W        W99755  44.417   4.166   1.814
34496W        W99756  21.009  34.496   3.277
34497W        W99757  27.096  25.240   2.861
34498W        W99758  14.329   3.549  11.437
34499W        W99759  39.165   7.430  12.554
34500W        W99760   7.302   2.972  14.995
34501W        W99761  21.519  30.202   2.331
34502W        W99762   4.920  44.492   3.635
34503W        W99763  20.535  43.398  11.498
34504W        W99764   1.215  10.579  13.860
34505W        W99765  43.686  44.532  11.612
34506W        W99766  11.091  31.007   0.503
34507W        W99767  21.798  39.730  10.315
34508W        W99768  39.604   2.976   3.047
34509W        W99769  35.951  31.992   1.616
34510W        W99770   2.510   4.451   1.825
34511W        W99771   7.255  27.203   2.157
34512W        W99772  44.888  42.426   2.697
34513W        W99773   2.656  36.393   3.696
34514W        W99774   5.803  40.369   2.209
34515W        W99775  25.255   4.893   0.195
34516W        W99776  44.293   4.157   2.874
34517W        W99777  19.472   4.298  12.558
34518W        W99778  16.762  24.540  10.562
34519W        W99779  37.498  16.146  11.869
34520W        W99780  20.034  44.943  12.929
34521W        W99781   6.752  20.481  10.981
34522W        W99782   2.933  19.153  14.322
34523W        W99783  22.737  38.410  12.426
34524W        W99784  22.082   0.784   3.656
34525W        W99785  28.882  35.861  11.906
34526W        W99786   6.029   2.132   0.932
34527W        W99787  40.011  11.450   5.512
34528W        W99788  12.727  22.737   0.568
34529W        W99789  17.635   0.762   3.992
34530W        W99790  43.831  25.222   1.901
34531W        W99791  28.083  24.535  10.110
34532W        W99792  22.528  36.450  14.487
34533W        W99793  13.688  32.403   1.285
34534W        W99794  13.838  41.406   0.674
34535W        W99795  10.199  27.862   1.464
34536W        W99796  38.300  41.739  10.860
34537W        W99797  15.465  27.548   1.176
34538W        W99798  21.960  20.921  11.526
34539W        W99799  34.902  22.768  14.363
34540W        W99800  29.473   1.642  13.547
34541W        W99801  23.103   2.852  10.550
34542W        W99802  23.197  42.937   3.290
34543W        W99803  22.749  16.266   3.078
34544W        W99804  32.634  16.551  11.127
34545W        W99805  12.115   9.185  13.859
34546W        W99806  35.410  21.338  13.144
34547W        W99807  31.571  22.041   4.528
34548W        W99808  19.689   1.169  11.983
34549W        W99809  35.821   3.186  12.023
34550W        W99810  19.710  43.381   1.816
34551W        W99811  21.173  16.988   5.089
34552W        W99812  12.385  35.464  10.714
34553W        W99813  39.932  32.184   4.249
34554W        W99814  38.595  38.972   1.240
34555W        W99815  12.582  27.999   3.631
34556W        W99816  39.624  40.353  14.313
34557W        W99817  41.524   3.393  10.591
34558W        W99818  12.633   9.740  11.875
34559W        W99819  18.199  44.587   3.636
34560W        W99820  29.919  31.354  10.349
34561W        W99821   9.235   9.805  11.514
34562W        W99822  43.504  19.774  14.012
34563W        W99823   6.783   2.955  11.470
34564W        W99824  29.804  25.599  11.366
34565W        W99825  26.747  19.560  12.519
34566W        W99826  25.472  28.977  10.365
34567W        W99827   8.281  32.083  10.508
34568W        W99828   4.872  16.527   2.851
34569W        W99829  34.420  39.472   0.516
34570W        W99830  37.939   1.894  12.653
34571W        W99831   9.105  44.205   0.792
34572W        W99832  31.780  22.093  12.097
34573W        W99833  16.982  21.796   4.590
34574W        W99834  29.182  21.024  13.952
34575W        W99835  14.380  44.242  13.405
34576W        W99836  44.391  41.377   1.832
34577W        W99837   4.780  21.072   5.089
34578W        W99838  31.855  12.348  14.374
34579W        W99839  12.704  12.432  14.386
34580W        W99840  12.858   4.343  13.457
34581W        W99841  39.500  12.620  10.406
34582W        W99842   9.200   0.483  14.027
34583W        W99843  27.613  34.097  11.128
34584W        W99844  43.449  44.338  11.190
34585W        W99845  27.244  33.422   2.310
34586W        W99846  11.628   2.156   9.821
34587W        W99847  16.393   6.910   4.690
34588W        W99848  15.868   8.949  14.248
34589W        W99849  39.611  30.347   0.322
34590W        W99850  20.362  18.722  12.946
34591W        W99851   8.382  38.310   2.719
34592W        W99852   6.900   2.210   2.140
34593W        W99853  25.399  25.461   4.112
34594W        W99854  42.125  33.440  11.972
34595W        W99855  10.000   3.535   3.342
34596W        W99856  14.376  34.472   0.738
34597W        W99857  20.877  40.595   1.752
34598W        W99858  44.855  18.962  10.969
34599W        W99859  43.444   0.187   3.711
34600W        W99860   8.743  13.538  13.354
34601W        W99861   8.243  44.912  12.463
34602W        W99862   2.836  36.985  14.747
34603W        W99863  23.623  29.180   2.321
34604W        W99864  36.092  43.828  12.913
34605W        W99865  19.584  43.786  11.712
34606W        W99866  13.307  20.226  10.715
34607W        W99867  44.781  43.607  13.907
34608W        W99868  29.352  27.420   2.273
34609W        W99869  10.163  35.329  12.515
34610W        W99870   4.591  33.096  12.017
34611W        W99871  24.210  13.161   4.342
34612W        W99872  14.440   8.310   4.504
34613W        W99873  15.781  32.668   0.967
34614W        W99874  23.007  39.273  12.532
34615W        W99875  11.362   3.704   2.506
34616W        W99876  24.738  27.495   1.919
34617W        W99877  31.573  18.274   1.394
34618W        W99878  38.436  21.350   4.534
34619W        W99879  19.141  37.616   4.369
34620W        W99880  22.636  35.616  14.854
34621W        W99881  43.698  10.208   3.807
34622W        W99882  41.662  28.956  11.964
34623W        W99883   6.305  43.967   1.670
34624W        W99884  26.937  27.958  11.683
34625W        W99885  11.499  28.957  12.977
34626W        W99886  14.240   7.426   1.301
34627W        W99887   7.801   6.109   3.981
34628W        W99888  29.432  24.522  12.963
34629W        W99889   9.812  27.177   4.030
34630W        W99890  20.717   0.287   3.853
34631W        W99891   2.994  13.902   1.337
34632W        W99892  44.601  11.263  14.550
34633W        W99893  37.916   1.338   2.606
34634W        W99894  30.654  32.105   2.431
34635W        W99895   6.151   1.563   4.901
34636W        W99896  23.418  14.485  13.241
34637W        W99897  10.078  28.423  12.016
34638W        W99898   6.519   6.825  10.776
34639W        W99899   7.003  29.985  10.606
34640W        W99900   9.670  30.199  13.194
34641W        W99901  39.041   6.033  11.597
34642W        W99902  18.031  10.942  11.125
34643W        W99903  27.003   0.240  13.375
34644W        W99904  39.732  32.840   2.239
34645W        W99905  31.761  35.538   0.004
34646W        W99906  24.710  24.029  10.797
34647W        W99907  37.553  13.227  13.049
34648W        W99908   8.950   2.831   2.593
34649W        W99909  14.351  43.729  14.799
34650W        W99910  24.591   0.234   0.082
34651W        W99911  43.508   0.746   0.397
34652W        W99912   5.974  27.447  12.385
34653W        W99913  42.954  16.212   3.667
34654W        W99914  26.244   1.720   2.360
34655W        W99915   9.842   9.806   0.508
34656W        W99916  29.514   3.441  13.832
34657W        W99917  13.660  14.273  11.623
34658W        W99918  34.123   7.693  13.347
34659W        W99919  14.290   5.177  12.014
34660W        W99920  40.057  41.097   3.224
34661W        W99921  22.462  12.848   3.117
34662W        W99922   7.152   0.736  12.449
34663W        W99923  41.846  32.330   3.714
34664W        W99924   9.850  40.630   3.992
34665W        W99925  10.660  33.937   2.403
34666W        W99926   4.929  31.453  10.619
34667W        W99927  19.134  22.987   3.186
34668W        W99928  30.063  38.714  14.949
34669W        W99929  39.320  20.825  12.466
34670W        W99930  32.203   1.425   1.537
34671W        W99931  37.317  19.575   3.148
34672W        W99932  36.519  39.696  13.089
34673W        W99933  32.476   6.162   4.085
34674W        W99934  34.118   4.860  12.592
34675W        W99935   5.421  44.218  14.441
34676W        W99936   8.207  31.541  12.909
34677W        W99937  37.786  18.300  11.646
34678W        W99938  19.968   7.862   4.424
34679W        W99939  10.472  30.455   3.446
34680W        W99940   8.585  44.522  12.577
34681W        W99941  34.477   3.672   3.002
34682W        W99942  32.127  31.711   2.237
34683W        W99943   9.685  40.651  11.964
34684W        W99944   7.133  31.635   2.635
34685W        W99945  43.910   8.883  14.339
34686W        W99946  34.484   2.791  14.918
34687W        W99947  35.003   7.887  11.381
34688W        W99948   1.409  40.943  11.157
34689W        W99949  10.084   8.446  10.904
34690W        W99950  16.511  15.723   4.236
34691W        W99951  13.772  31.355   2.284
34692W        W99952  13.856  22.536   3.271
34693W        W99953  16.133  17.987  14.927
34694W        W99954  44.929  30.585   4.539
34695W        W99955  44.265  30.933  10.970
34696W        W99956  17.723  42.792   1.713
34697W        W99957  14.661  17.222   1.414
34698W        W99958  36.480  43.553  12.024
34699W        W99959  22.116   5.959  11.793
34700W        W99960   7.145  42.813   3.789
34701W        W99961  28.670  27.408  11.913
34702W        W99962   1.650  30.603   1.090
34703W        W99963  31.179   1.356  11.559
34704W        W99964  31.674   5.788  12.855
34705W        W99965   8.969  17.039   4.968
34706W        W99966  17.297  28.509  12.392
34707W        W99967   9.841  21.350   0.231
34708W        W99968  24.642  41.314   4.064
34709W        W99969  44.801  35.098  14.398
34710W        W99970  18.227  10.279  10.367
34711W        W99971  36.612  37.119   1.360
34712W        W99972   7.699  40.094  11.667
34713W        W99973  41.422  11.165  14.705
34714W        W99974  28.030  26.060  13.940
34715W        W99975   4.200  38.385  11.561
34716W        W99976  13.638  29.422   4.141
34717W        W99977  44.320  12.807   2.863
34718W        W99978  28.523  32.096   0.816
34719W        W99979  14.165  43.097  13.903
34720W        W99980  15.612  11.794   0.255
34721W        W99981  19.257  14.818   0.885
34722W        W99982  13.797  35.907   4.866
34723W        W99983  39.170  23.701   0.025
34724W        W99984  36.359   1.543  12.525
34725W        W99985  41.057  37.839  11.670
34726W        W99986  32.164  28.638  10.901
34727W        W99987  18.675  24.818   2.487
34728W        W99988   6.736  26.507  12.687
34729W        W99989   2.870  12.783   4.833
34730W        W99990  33.352  14.390  10.291
34731W        W99991  30.574  38.959  10.658
34732W        W99992  31.662  11.350  14.517
34733W        W99993   3.869  29.071   4.727
34734W        W99994  36.876  44.751  14.704
34735W        W99995  12.645  37.443   0.283
34736W        W99996  35.448   9.402  14.000
34737W        W99997  20.659  21.636  13.765
34738W        W99998  19.183  34.495  12.479
34739W        W99999  26.689  28.737   1.521
34740W        W    0  34.995   8.817   1.081
34741W        W    1  28.510   1.160  14.382
34742W        W    2   3.887  30.966   4.430
34743W        W    3  43.646   9.673   3.377
34744W        W    4  37.445   4.900  13.469
34745W        W    5   7.417  37.921   3.152
34746W        W    6  13.574   6.807   2.753
34747W        W    7  28.483  38.049  13.412
34748W        W    8  10.725  33.404   2.380
34749W        W    9   5.991  10.869  10.051
34750W        W   10  15.124  28.141  12.660
34751W        W   11  37.855  36.420   0.809
34752W        W   12   7.105  44.258   1.017
34753W        W   13  21.198  15.764   1.809
34754W        W   14  29.244   2.321   2.671
34755W        W   15   2.203   2.166   2.013
34756W        W   16  18.123   2.898   3.799
34757W        W   17  38.368  31.948  13.835
34758W        W   18  21.441  37.560  10.361
34759W        W   19  36.835   7.277  11.957
34760W        W   20  31.921  23.162  14.374
34761W        W   21   8.936  42.229   1.202
34762W        W   22  13.740   8.326   1.178
34763W        W   23   5.863  32.918   1.790
34764W        W   24  25.083   7.378  12.124
34765W        W   25   5.766  18.240   2.317
34766W        W   26  37.094  15.851  11.670
34767W        W   27  39.808   6.519   1.997
34768W        W   28  18.133  15.106   4.585
34769W        W   29  12.847  42.963   4.606
34770W        W   30  31.818  13.296   0.301
34771W        W   31  14.389   7.999   3.250
34772W        W   32  37.577  35.784   1.386
34773W        W   33  17.096  44.515   3.240
34774W        W   34  33.396  42.022  13.858
34775W        W   35   7.643  29.444   3.833
34776W        W   36  20.948   0.043   4.666
34777W        W   37  32.022   0.991   0.544
34778W        W   38  14.786   8.915   0.835
34779W        W   39  19.198  22.594   0.162
34780W        W   40  12.970  19.659   5.017
34781W        W   41  27.963   6.148   4.533
34782W        W   42  18.605  23.103   5.044
34783W        W   43  25.133  42.589   4.185
34784W        W   44  12.352  24.287   1.868
34785W        W   45  36.010  20.572  14.173
34786W        W   46  24.911  11.664   1.315
34787W        W   47  42.532  13.899   3.122
34788W        W   48   8.681  27.089   1.735
34789W        W   49  15.694  34.611   3.643
34790W        W   50  35.820  10.732  13.047
34791W        W   51  30.572  15.837  13.288
34792W        W   52   5.799  13.571  12.969
34793W        W   53  28.890  26.919   1.982
34794W        W   54  26.023   2.322   2.901
34795W        W   55   4.932  11.518   4.478
34796W        W   56  32.709   8.233   4.115
34797W        W   57   5.194  23.166  12.371
34798W        W   58  27.765  32.481   4.837
34799W        W   59   1.419  15.682   1.456
34800W        W   60   7.423   7.998  13.593
34801W        W   61   3.743  24.110  11.673
34802W        W   62   0.634  11.883  12.479
34803W        W   63  23.794  40.308  12.864
34804W        W   64   5.466  32.809  12.471
34805W        W   65   7.949  29.044   3.840
34806W        W   66  34.192  24.558  11.077
34807W        W   67   6.635   2.879   1.366
34808W        W   68  35.867  33.501  14.580
34809W        W   69  25.052   0.762  11.852
34810W        W   70  34.520  18.883  11.837
34811W        W   71   0.996   4.971  13.749
34812W        W   72  16.988   0.231   1.294
34813W        W   73  28.966  44.173   0.424
34814W        W   74   2.704  43.870  13.351
34815W        W   75   0.497   8.409   0.226
34816W        W   76  22.237  10.716   1.965
34817W        W   77  25.977  14.539  14.750
34818W        W   78  20.858  43.621  14.403
34819W        W   79   4.342  18.482  10.675
34820W        W   80  33.768  18.665   1.683
34821W        W   81  35.870  17.075   1.158
34822W        W   82  25.393  43.708  13.072
34823W        W   83  41.859  30.425  11.244
34824W        W   84  29.341  24.707  13.980
34825W        W   85  20.113  22.072   3.199
34826W        W   86  29.660  42.714  12.137
34827W        W   87   1.044   2.015   3.095
34828W        W   88  38.838  16.145   4.628
34829W        W   89  18.352  13.632  14.981
34830W        W   90   1.944  10.436   2.389
34831W        W   91  34.872  43.611  11.408
34832W        W   92  14.412  28.232  11.536
34833W        W   93   9.725  18.324   1.730
34834W        W   94  39.503  12.694   2.320
34835W        W   95  43.830  19.129   4.166
34836W        W   96  38.137  23.646  11.817
34837W        W   97  19.112  34.479  14.379
34838W        W   98  37.750   5.784  14.074
34839W        W   99  12.335  40.029  14.951
34840W        W  100  39.308  18.725   2.180
34841W        W  101  43.733   4.755  10.259
34842W        W  102  43.374  30.569   4.690
34843W        W  103  31.316   9.786   2.814
34844W        W  104  37.801  13.302   1.501
34845W        W  105   3.775  26.908   3.104
34846W        W  106   4.274  41.071   1.351
34847W        W  107  42.451  30.142  13.208
34848W        W  108   0.048  24.669  11.994
34849W        W  109  31.861  40.796   4.715
34850W        W  110  21.101   5.849   5.106
34851W        W  111  34.398  26.476   0.900
34852W        W  112  34.706   8.858   4.816
34853W        W  113  15.548  23.747  14.332
34854W        W  114  15.337  15.193  13.956
34855W        W  115   1.318  24.372  14.341
34856W        W  116  36.448  28.225   0.390
34857W        W  117  18.549  31.042  14.782
34858W        W  118  44.220  30.644  10.519
34859W        W  119   7.193  37.539   4.331
34860W        W  120  19.036  11.296   1.350
34861W        W  121  30.796  18.738  11.580
34862W        W  122  24.779  10.728  14.893
34863W        W  123  20.755  21.703  11.999
34864W        W  124  26.566  33.215   4.118
34865W        W  125  20.619  14.098  14.791
34866W        W  126  33.432  23.040  11.229
34867W        W  127  13.294   2.164  14.794
34868W        W  128  43.944   6.415   4.926
34869W        W  129  32.130  31.957   4.454
34870W        W  130  16.590  12.258   0.817
34871W        W  131   4.450  10.286   0.467
34872W        W  132  14.263  22.642   1.307
34873W        W  133   5.718   1.177  14.932
34874W        W  134  16.193  38.043   2.337
34875W        W  135   3.589   7.855   4.279
34876W        W  136  18.103  26.171  12.024
34877W        W  137  30.473  15.839   2.348
34878W        W  138   6.957  33.615   0.977
34879W        W  139  18.163   0.202  13.094
34880W        W  140  42.011   8.273  12.548
34881W        W  141  16.907   6.720  10.656
34882W        W  142  41.781   4.355  11.845
34883W        W  143  24.281   5.786  14.758
34884W        W  144  17.139   0.388  14.055
34885W        W  145   9.241  17.703  12.015
34886W        W  146   9.771   4.731  11.277
34887W        W  147  13.642  26.082  13.575
34888W        W  148  27.702  20.605  14.500
34889W        W  149  38.116  32.917   1.832
34890W        W  150   7.617   2.355  12.121
34891W        W  151  21.811  23.053   2.353
34892W        W  152  21.593  13.856   3.374
34893W        W  153  20.150  31.864   0.351
34894W        W  154   4.798  41.006   1.354
34895W        W  155  33.231  39.847  12.112
34896W        W  156  31.501  17.805   4.713
34897W        W  157  39.746   4.120  11.577
34898W        W  158  19.641  35.600   4.548
34899W        W  159  32.865  35.429   3.097
34900W        W  160   4.542  29.523   0.306
34901W        W  161  20.658   2.303   4.614
34902W        W  162  13.216   0.205   4.451
34903W        W  163  26.119  39.906   0.148
34904W        W  164  40.785  31.038  13.069
34905W        W  165  18.961  20.080   2.230
34906W        W  166  27.560   7.282   4.247
34907W        W  167  38.576  43.308  11.963
34908W        W  168   2.756  31.464   0.478
34909W        W  169  39.433  13.126  10.484
34910W        W  170  39.030  27.063   3.837
34911W        W  171  11.323  36.833  11.205
34912W        W  172  14.696  35.127  14.769
34913W        W  173  37.547  23.538  10.451
34914W        W  174  21.811  40.845   1.272
34915W        W  175  15.197  31.660   3.173
34916W        W  176   1.842  32.022  14.508
34917W        W  177  43.400  11.633  12.044
34918W        W  178  36.716   8.444  13.459
34919W        W  179   3.789  24.614  11.597
34920W        W  180   3.379  44.341   4.646
34921W        W  181  15.987   1.266  11.534
34922W        W  182   8.073  44.539  11.371
34923W        W  183   4.665   3.784   4.943
34924W        W  184  38.501  32.827   2.276
34925W        W  185  43.344  23.773  12.891
34926W        W  186  27.743  14.005  12.013
34927W        W  187  16.067  34.964   2.715
34928W        W  188  16.609  39.861  13.277
34929W        W  189   6.643   8.703  14.896
34930W        W  190  27.236   2.647   3.581
34931W        W  191  13.772  12.057   1.655
34932W        W  192  30.647   8.869  13.807
34933W        W  193  27.016  16.480   3.228
34934W        W  194  19.532   4.289  11.140
34935W        W  195  35.313  27.405  12.899
34936W        W  196  28.634  23.217   1.775
34937W        W  197   0.055  12.274   0.325
34938W        W  198   9.414  34.062   2.661
34939W        W  199   3.766   2.003  10.735
34940W        W  200  15.099  26.187  11.138
34941W        W  201  21.492  17.652  11.701
34942W        W  202  20.785   2.473   1.294
34943W        W  203  31.178  13.644  12.083
34944W        W  204  19.158  24.485  11.593
34945W        W  205   4.839  30.718   0.942
34946W        W  206  40.159  43.818  13.016
34947W        W  207   6.296  15.876  12.805
34948W        W  208   1.363  22.137  12.809
34949W        W  209  17.408   4.332  13.307
34950W        W  210  25.304  16.575  11.091
34951W        W  211  43.854   9.949   1.248
34952W        W  212   6.895  43.826   2.310
34953W        W  213  27.141  40.342  11.123
34954W        W  214  24.112  40.098   3.220
34955W        W  215  20.201  33.864  10.987
34956W        W  216  17.190  32.058   3.636
34957W        W  217  15.147  33.914   2.296
34958W        W  218  23.600  44.403  11.156
34959W        W  219  43.063  24.836   3.988
34960W        W  220  36.343  43.398  12.990
34961W        W  221  23.476  33.567   0.017
34962W        W  222  25.126  22.461  12.848
34963W        W  223  35.551  25.219   1.691
34964W        W  224  30.065  27.203   2.687
34965W        W  225   3.736   3.818  13.558
34966W        W  226  30.166  41.080  13.790
34967W        W  227  40.524   2.701   2.835
34968W        W  228   5.767  18.879  10.393
34969W        W  229  19.841  10.289  13.574
34970W        W  230  11.200  37.351  14.330
34971W        W  231   7.216   7.631   3.173
34972W        W  232  34.361   9.363  14.960
34973W        W  233  40.391  42.815  12.004
34974W        W  234  17.780  31.700   2.890
34975W        W  235  13.732  43.488  12.854
34976W        W  236  13.487  31.522   3.863
34977W        W  237  33.533  27.939  13.387
34978W        W  238   1.265  20.932   1.272
34979W        W  239  21.607  34.842   3.790
34980W        W  240   8.139   6.454  13.970
34981W        W  241   4.800  40.961  13.453
34982W        W  242  37.088  41.020  14.913
34983W        W  243  19.800   6.967   5.056
34984W        W  244   7.157  34.336   4.194
34985W        W  245  38.769  21.792  10.581
34986W        W  246  23.794  11.059   2.711
34987W        W  247  11.281  42.816  13.810
34988W        W  248  36.540  11.829  12.074
34989W        W  249  34.666  18.533  11.466
34990W        W  250  42.196  12.593   5.427
34991W        W  251   7.452  37.435   3.892
34992W        W  252   2.014  11.368   4.307
34993W        W  253  20.095  39.625   0.753
34994W        W  254  25.080  35.311   1.247
34995W        W  255  43.345  33.498  12.936
34996W        W  256  34.431   2.318  13.435
34997W        W  257  12.230  42.389   4.338
34998W        W  258  19.737  26.190  10.573
34999W        W  259  24.770  43.906  11.023
35000W        W  260  44.760  42.953  10.486
35001W        W  261  10.335   8.364  14.721
35002W        W  262  43.960  19.275  12.360
35003W        W  263  15.787   4.257   2.768
35004W        W  264   2.913  34.461   1.708
35005W        W  265  24.448  36.489   1.919
35006W        W  266  38.175  10.440   1.305
35007W        W  267  36.168  20.711   0.724
35008W        W  268   1.486  16.971   3.782
35009W        W  269  36.179  25.587  12.012
35010W        W  270  16.757  25.206  13.831
35011W        W  271  14.702  36.843   2.245
35012W        W  272  34.822  17.159  14.472
35013W        W  273  36.390   2.845   2.810
35014W        W  274  28.204   9.960  12.001
35015W        W  275  13.440   5.712   3.213
35016W        W  276  40.551  34.412   2.612
35017W        W  277  11.089  21.553   3.179
35018W        W  278  16.368  16.049   1.820
35019W        W  279  23.009  14.015  11.908
35020W        W  280  44.338   0.311   0.951
35021W        W  281  15.657  23.250   3.603
35022W        W  282  44.266  36.050   9.727
35023W        W  283  37.546  28.996   1.115
35024W        W  284   5.303   3.577   1.392
35025W        W  285  30.697  24.009  14.363
35026W        W  286   0.812  42.763   4.839
35027W        W  287  42.345  31.400  12.404
35028W        W  288  18.890  28.686   2.215
35029W        W  289   2.904   4.771   1.176
35030W        W  290  41.500  22.274  13.382
35031W        W  291  35.976   8.742  12.935
35032W        W  292  15.285   0.324  14.491
35033W        W  293  42.824   8.641   5.021
35034W        W  294  15.013  27.545   1.431
35035W        W  295  31.540  23.113  13.778
35036W        W  296  31.878   0.702  11.980
35037W        W  297   7.613  24.293   3.616
35038W        W  298  20.043  25.559  13.901
35039W        W  299  29.947   7.010   5.037
35040W        W  300  25.875  15.526   2.302
35041W        W  301  16.830  22.453  11.657
35042W        W  302   7.947  22.168   0.924
35043W        W  303  22.490  21.081   1.649
35044W        W  304  22.678  11.656  14.163
35045W        W  305  14.762  14.360   3.693
35046W        W  306   9.915   1.413   4.179
35047W        W  307  24.622  36.887   0.265
35048W        W  308  10.032  19.623  14.425
35049W        W  309  14.337  37.573  12.786
35050W        W  310   4.094   8.739   1.920
35051W        W  311  19.777  18.112  11.906
35052W        W  312  31.673  12.741   2.720
35053W        W  313  13.819  32.176   1.770
35054W        W  314  24.239  33.509   1.402
35055W        W  315   0.536  21.160   3.182
35056W        W  316   8.326   7.671   2.872
35057W        W  317  30.402  31.142  10.350
35058W        W  318  26.547  19.614  12.043
35059W        W  319  19.074  24.708  11.103
35060W        W  320  33.172   0.505  12.979
35061W        W  321  12.337  31.029   3.706
35062W        W  322  39.853  17.253   0.323
35063W        W  323   5.679   6.872  12.529
35064W        W  324  28.085  43.292  11.658
35065W        W  325  32.684  27.986  10.727
35066W        W  326  35.490   8.580  12.835
35067W        W  327   7.327  17.045  11.157
35068W        W  328  36.098   3.011   4.580
35069W        W  329  40.436  44.004  13.403
35070W        W  330   0.970  21.750   3.253
35071W        W  331  33.497  32.430  14.759
35072W        W  332  36.961   0.555   3.141
35073W        W  333  31.983  17.085   4.400
35074W        W  334   2.440  33.982  10.740
35075W        W  335  30.931  18.000  12.032
35076W        W  336  34.793   6.878   1.129
35077W        W  337  40.994  22.544  11.416
35078W        W  338  41.218  30.699  13.871
35079W        W  339  30.382  17.151  11.946
35080W        W  340  19.706   0.405   0.980
35081W        W  341  43.609  34.858  11.012
35082W        W  342  38.440  20.644   2.839
35083W        W  343   8.213  34.224  12.571
35084W        W  344  40.287  34.048   2.856
35085W        W  345  34.798  11.018   0.028
35086W        W  346   6.788  37.896  14.721
35087W        W  347  21.296   9.735   4.543
35088W        W  348  21.517  23.244   1.903
35089W        W  349  14.190  44.251   5.042
35090W        W  350  23.018  11.351   0.714
35091W        W  351   6.355  43.856   0.694
35092W        W  352  16.272  20.678   5.450
35093W        W  353  18.304   2.227  11.089
35094W        W  354   4.523  42.363  14.390
35095W        W  355  15.219  24.547  12.124
35096W        W  356  34.357   8.483   1.788
35097W        W  357  33.436  38.375   2.136
35098W        W  358  36.613  28.526   4.065
35099W        W  359  27.167  14.214   3.171
35100W        W  360  26.655  42.941   1.453
35101W        W  361  16.523  39.835   3.751
35102W        W  362  40.678  14.289  10.196
35103W        W  363  17.579  41.507  10.958
35104W        W  364  14.177  10.540  11.186
35105W        W  365  11.789  14.595   0.648
35106W        W  366   2.463   4.480  14.311
35107W        W  367   9.660  29.460   3.746
35108W        W  368   1.451  31.076  12.405
35109W        W  369  37.934  17.787  12.572
35110W        W  370  43.851  14.409   5.041
35111W        W  371   2.393  16.338  13.449
35112W        W  372  13.871   0.767   4.468
35113W        W  373  13.615  36.277  13.389
35114W        W  374   2.205  28.442   2.229
35115W        W  375  32.487  24.668   2.730
35116W        W  376  29.571  28.735   3.417
35117W        W  377  10.419  14.928  12.698
35118W        W  378  10.110  15.780  13.962
35119W        W  379  29.061  42.764  10.454
35120W        W  380  26.129  37.737   4.006
35121W        W  381   6.177  20.201  13.239
35122W        W  382   2.946  29.167   4.170
35123W        W  383   5.161   9.435   0.793
35124W        W  384   2.874  19.652   2.654
35125W        W  385  20.563   3.496   4.480
35126W        W  386  18.613   6.395  13.568
35127W        W  387   2.654  38.977  12.884
35128W        W  388   4.855  26.617  12.552
35129W        W  389  39.630   6.834  13.444
35130W        W  390   4.878  11.019   4.582
35131W        W  391  15.215  13.527  11.466
35132W        W  392  20.482  40.439   2.400
35133W        W  393  41.727  33.984   2.801
35134W        W  394  44.993  34.017   0.261
35135W        W  395  38.074   3.822  14.526
35136W        W  396   1.085  41.252   3.254
35137W        W  397  31.471  31.705   4.827
35138W        W  398  26.769  14.099  12.994
35139W        W  399  23.172  25.018   0.798
35140W        W  400  17.293  12.444  14.424
35141W        W  401  38.178  28.132  14.808
35142W        W  402  37.191  38.020  14.638
35143W        W  403  44.494  17.050  11.986
35144W        W  404  10.801  32.067  10.625
35145W        W  405  20.507   2.756   3.943
35146W        W  406  13.187  27.491  13.417
35147W        W  407   0.247  34.445  13.866
35148W        W  408  40.526  25.051   1.846
35149W        W  409   0.956  31.899  10.944
35150W        W  410  44.324   2.871   2.169
35151W        W  411  34.857  34.637  11.896
35152W        W  412  29.423  20.383   5.185
35153W        W  413  26.593  29.006   3.833
35154W        W  414  29.779  19.416   0.400
35155W        W  415  28.603   1.006  11.390
35156W        W  416   0.992  26.185  14.451
35157W        W  417  30.676  24.532  11.186
35158W        W  418  17.690   7.864   4.547
35159W        W  419   5.669   1.837   4.126
35160W        W  420  39.225  23.792  10.180
35161W        W  421  32.182  15.311   0.407
35162W        W  422  23.598  32.029  14.392
35163W        W  423   4.298  17.259   3.619
35164W        W  424  22.637   9.161  13.438
35165W        W  425  12.399  15.625  10.636
35166W        W  426  44.446  15.173   3.838
35167W        W  427  28.625  40.588  14.876
35168W        W  428   0.484  40.517   4.142
35169W        W  429  19.488   0.753   1.311
35170W        W  430  36.261  44.331   5.004
35171W        W  431  17.231  38.955  12.731
35172W        W  432  18.553  26.128   4.184
35173W        W  433   5.848   1.728  10.901
35174W        W  434   6.742   0.605   1.292
35175W        W  435  41.303   4.441   1.986
35176W        W  436   7.230   7.272   1.300
35177W        W  437  11.632  34.633   2.637
35178W        W  438   1.210  35.082  14.555
35179W        W  439  21.229  12.580  14.870
35180W        W  440   5.308  16.813  12.865
35181W        W  441  16.432  33.606  14.393
35182W        W  442  31.670   8.165  14.782
35183W        W  443  32.733  31.799  10.716
35184W        W  444  41.334  15.565  11.592
35185W        W  445  29.181  18.772   0.868
35186W        W  446  32.938  40.549   3.136
35187W        W  447  14.013  26.880  14.812
35188W        W  448  37.820  24.047  12.546
35189W        W  449  23.980  41.585   3.651
35190W        W  450   7.425  13.091  12.576
35191W        W  451  34.884   5.559   0.895
35192W        W  452  10.265   2.350  14.532
35193W        W  453  11.420   6.319   0.828
35194W        W  454   6.790  26.979   0.443
35195W        W  455  14.691  34.868   0.852
35196W        W  456  24.736  33.486  12.615
35197W        W  457  37.174  19.612  12.171
35198W        W  458  16.565   0.944   3.639
35199W        W  459  27.711  21.549   1.227
35200W        W  460  16.349  44.962  13.116
35201W        W  461  41.340  13.734   0.945
35202W        W  462  12.392  43.851   0.909
35203W        W  463  43.960  14.747   3.707
35204W        W  464  16.962  41.303  14.487
35205W        W  465  12.339   1.776   0.775
35206W        W  466   3.304  15.871   1.330
35207W        W  467  15.326  23.767   0.267
35208W        W  468   1.110   9.171  11.094
35209W        W  469  16.602  15.360  10.749
35210W        W  470  40.602  40.640   2.636
35211W        W  471   2.667  18.277  10.106
35212W        W  472   3.228  14.729   2.198
35213W        W  473  29.230  23.032   1.265
35214W        W  474  43.284  10.219  10.235
35215W        W  475  31.401   4.303  10.705
35216W        W  476  10.877  32.480   1.526
35217W        W  477   5.770  19.656  13.132
35218W        W  478  23.955   4.700   0.671
35219W        W  479  34.185   0.743  12.899
35220W        W  480  44.911  13.701   1.857
35221W        W  481  35.349  33.143   2.188
35222W        W  482  12.282  38.103   3.357
35223W        W  483  22.479  15.264   2.216
35224W        W  484  16.527   3.417  13.414
35225W        W  485  18.766   8.442   4.646
35226W        W  486  40.797  16.323   0.389
35227W        W  487   5.386  44.483  13.035
35228W        W  488  25.172  31.851   1.968
35229W        W  489   3.687  21.567   3.746
35230W        W  490  44.729  16.809   2.320
35231W        W  491  30.281  40.654  14.108
35232W        W  492  11.852  12.817   0.828
35233W        W  493  14.832  42.013  13.286
35234W        W  494   2.990  33.427   2.007
35235W        W  495  44.054  36.434  10.576
35236W        W  496  44.784  19.025  13.766
35237W        W  497  34.400  29.616   1.489
35238W        W  498   7.809  28.993   2.158
35239W        W  499  22.277  39.834  11.963
35240W        W  500  13.323   6.853  13.455
35241W        W  501   2.714  21.159   3.274
35242W        W  502  10.828  44.303   2.865
35243W        W  503  12.682  43.917  12.394
35244W        W  504  30.414  42.048  11.506
35245W        W  505  39.783  30.683   2.720
35246W        W  506  37.209  25.120  10.237
35247W        W  507  38.589  40.334  12.035
35248W        W  508   4.989  28.928  12.444
35249W        W  509   7.988  36.593  12.083
35250W        W  510  28.296  25.571  13.883
35251W        W  511  12.696  25.498   4.515
35252W        W  512   0.713  17.578  10.388
35253W        W  513  37.938   9.501  11.699
35254W        W  514  15.567  16.609  10.312
35255W        W  515  16.082  33.541  13.158
35256W        W  516   7.078   1.314  14.290
35257W        W  517  22.510  17.284  13.279
35258W        W  518  17.756  12.261   4.834
35259W        W  519  19.827   3.864  13.430
35260W        W  520   7.731   7.918   0.065
35261W        W  521  44.066   8.486   1.315
35262W        W  522  38.051  32.520   2.816
35263W        W  523  33.494   6.849   1.770
35264W        W  524  14.771  19.614   3.577
35265W        W  525  12.382  42.981   3.658
35266W        W  526  36.614  39.536   0.378
35267W        W  527  36.777  28.350  14.986
35268W        W  528  25.165   9.114   4.712
35269W        W  529  37.490  40.858   1.292
35270W        W  530  29.956   9.386  14.592
35271W        W  531   8.163  15.093   4.522
35272W        W  532   3.860   9.087  12.712
35273W        W  533   6.408  31.940   3.687
35274W        W  534   9.231  41.968  13.168
35275W        W  535   0.415  29.169   2.182
35276W        W  536  42.501  27.144   1.678
35277W        W  537  12.936   5.184   3.654
35278W        W  538  18.270  17.216   1.241
35279W        W  539  37.292  43.811   0.985
35280W        W  540   4.494   7.953   0.662
35281W        W  541  20.218  10.151   2.810
35282W        W  542  33.750  15.975  10.203
35283W        W  543  34.343  10.871  12.035
35284W        W  544  26.946  21.297  12.146
35285W        W  545   0.271  19.676  14.082
35286W        W  546  10.332  33.112  13.938
35287W        W  547  29.701  43.504  12.922
35288W        W  548  13.199  18.539   4.382
35289W        W  549  43.064   4.304   1.735
35290W        W  550  16.162   5.995  12.548
35291W        W  551  40.336  31.682  13.487
35292W        W  552  29.195   5.760  10.662
35293W        W  553  29.007   6.887  14.466
35294W        W  554  37.480  39.937  13.094
35295W        W  555  10.410   6.734   2.271
35296W        W  556  24.693  30.929  12.034
35297W        W  557  43.729  26.212   1.843
35298W        W  558  36.607   1.470  13.489
35299W        W  559   9.945   8.863  13.431
35300W        W  560  38.396  11.175   2.136
35301W        W  561  15.332  27.022  14.974
35302W        W  562  13.836  42.725   1.292
35303W        W  563  15.352   6.710  12.518
35304W        W  564   8.294  28.010   4.935
35305W        W  565   8.939   0.521   4.478
35306W        W  566  38.471  21.846  14.059
35307W        W  567  32.526   8.783  12.525
35308W        W  568  18.770  31.905   1.863
35309W        W  569  10.737  22.370  13.257
35310W        W  570  11.270  38.505   1.771
35311W        W  571  15.043  36.200   2.644
35312W        W  572  40.915   3.296  13.489
35313W        W  573  19.746  39.787   2.209
35314W        W  574  26.571   3.323   4.439
35315W        W  575   3.481  24.612  14.014
35316W        W  576   2.556  23.633   3.482
35317W        W  577  16.342  17.699   1.212
35318W        W  578  36.865  23.783  12.427
35319W        W  579   2.234  19.047  11.124
35320W        W  580  22.731   6.812   2.256
35321W        W  581  39.536  12.197   1.937
35322W        W  582  12.266  43.517  10.548
35323W        W  583  10.819  17.200   3.701
35324W        W  584  38.692  36.900   4.820
35325W        W  585  17.270  35.998  12.966
35326W        W  586  39.776  17.528   4.526
35327W        W  587  19.550  15.658   1.785
35328W        W  588   5.217  23.687  13.499
35329W        W  589  18.413  32.135  11.768
35330W        W  590  33.538   2.800  11.847
35331W        W  591  38.295   6.341   3.966
35332W        W  592   2.500   4.280  12.453
35333W        W  593   9.652   3.327  14.491
35334W        W  594  22.083  12.368   1.859
35335W        W  595  21.823   9.746   4.633
35336W        W  596  44.092  32.996   2.178
35337W        W  597  28.550  20.764  11.608
35338W        W  598  39.948  30.729  14.867
35339W        W  599  31.934  17.749   3.323
35340W        W  600  32.874   2.824  10.628
35341W        W  601  10.113  22.629   2.728
35342W        W  602  34.927  11.832  12.793
35343W        W  603  13.768  12.378  14.977
35344W        W  604  32.513  15.734   4.584
35345W        W  605  15.734  12.298   2.443
35346W        W  606  23.469  22.750  10.379
35347W        W  607  42.586   8.303  11.475
35348W        W  608  16.246   9.756  10.914
35349W        W  609   3.995  12.077  14.619
35350W        W  610   0.798  28.630   4.920
35351W        W  611  12.135  26.426  13.353
35352W        W  612  17.216  11.222  14.441
35353W        W  613   5.732  24.919  12.916
35354W        W  614  24.934  12.629   4.467
35355W        W  615  41.367   3.888  12.554
35356W        W  616  11.829  25.765   4.432
35357W        W  617  43.231  42.451   2.835
35358W        W  618   3.706  17.644  10.989
35359W        W  619  14.111  23.745  13.385
35360W        W  620   5.954  43.442   3.707
35361W        W  621  15.705  35.108  13.452
35362W        W  622  40.964   9.164  11.229
35363W        W  623  18.530  40.994  13.891
35364W        W  624   8.228   3.219  14.289
35365W        W  625  35.839  36.512  11.517
35366W        W  626   0.727  37.083   0.773
35367W        W  627  19.998  19.731  12.431
35368W        W  628  25.081  12.709   0.916
35369W        W  629  17.522  32.340   2.358
35370W        W  630  28.841   5.886   4.193
35371W        W  631  26.350   0.436  14.695
35372W        W  632  33.906   4.473  13.367
35373W        W  633  29.413  19.696   1.330
35374W        W  634  10.052  13.620  13.820
35375W        W  635  32.630  22.578   1.126
35376W        W  636  12.805  28.371   9.858
35377W        W  637  21.618  43.281   3.748
35378W        W  638  42.604   6.827   2.995
35379W        W  639   9.311  28.596  13.886
35380W        W  640  30.874   6.707  14.295
35381W        W  641   5.400  30.498  14.862
35382W        W  642  40.052  34.946  13.497
35383W        W  643  23.587   5.522   4.092
35384W        W  644  11.474  14.733   2.749
35385W        W  645   6.994  30.589   0.751
35386W        W  646  33.851   4.221  12.388
35387W        W  647   7.642  21.016   4.045
35388W        W  648  28.871  19.934  10.038
35389W        W  649  37.565  41.229   3.751
35390W        W  650   3.563   4.506   3.344
35391W        W  651  22.091  34.433  14.063
35392W        W  652  43.559  23.333  14.783
35393W        W  653  13.049   7.734  14.899
35394W        W  654  43.846  13.070   0.793
35395W        W  655  30.585  37.319   4.742
35396W        W  656   5.666   5.995  12.493
35397W        W  657  13.220  39.723  14.753
35398W        W  658   3.964  36.305   0.709
35399W        W  659  25.663  43.739  14.376
35400W        W  660  33.810  39.794   4.176
35401W        W  661   2.911  18.039  14.268
35402W        W  662  24.473   4.777  14.853
35403W        W  663   0.796  27.897   4.033
35404W        W  664  23.451   6.847  10.414
35405W        W  665  38.572   5.388  14.129
35406W        W  666  23.700  12.608   3.234
35407W        W  667  33.868  10.963  12.819
35408W        W  668  27.452  22.720   1.812
35409W        W  669   2.447  10.402   4.088
35410W        W  670   2.422  18.148   3.397
35411W        W  671  27.240   2.904   2.710
35412W        W  672   8.731   0.395   1.364
35413W        W  673   8.289  13.830   0.834
35414W        W  674  15.576  15.704   0.878
35415W        W  675   6.902  43.708   4.143
35416W        W  676   1.894  26.704   5.436
35417W        W  677  43.537  17.263   4.137
35418W        W  678  19.331  10.606   4.193
35419W        W  679  19.235   9.602   3.700
35420W        W  680  28.657  29.624  14.423
35421W        W  681  32.367  13.119   3.200
35422W        W  682  20.199  10.180  14.807
35423W        W  683  26.609   0.571   3.214
35424W        W  684   5.225   8.261   1.848
35425W        W  685   8.471  39.623   3.635
35426W        W  686  37.216   5.845   2.890
35427W        W  687  13.369  14.687  14.944
35428W        W  688  37.134  44.440  11.742
35429W        W  689   5.156  24.947   1.752
35430W        W  690  34.296  20.127   1.811
35431W        W  691   9.243  33.212  11.514
35432W        W  692  39.611  20.632  14.859
35433W        W  693  22.510   4.837   1.382
35434W        W  694  31.515  30.748  12.197
35435W        W  695   3.898  15.125  10.608
35436W        W  696  38.243  18.525  13.445
35437W        W  697  28.102  27.117   3.244
35438W        W  698   9.800   1.845  14.548
35439W        W  699  20.881  35.163   0.190
35440W        W  700  22.983  15.089  11.294
35441W        W  701  39.492  26.639   9.842
35442W        W  702  31.920  29.025   3.421
35443W        W  703  22.565   8.713   2.951
35444W        W  704   7.457  10.618  13.819
35445W        W  705  16.638   4.799   0.327
35446W        W  706  21.503  18.251  12.177
35447W        W  707  42.329  42.014  14.865
35448W        W  708  11.673   8.373   4.614
35449W        W  709  40.975  43.749   1.950
35450W        W  710  26.562  30.119   4.605
35451W        W  711   3.798  34.096   1.869
35452W        W  712   5.867  39.579  11.048
35453W        W  713   3.907  36.673   1.083
35454W        W  714   0.652  25.686  13.793
35455W        W  715  31.404  17.368  11.617
35456W        W  716   9.711   7.645   1.390
35457W        W  717  26.630  25.555  11.149
35458W        W  718  15.716   4.328   1.836
35459W        W  719  37.344  12.626   0.730
35460W        W  720  20.357  11.057   1.760
35461W        W  721  18.758  22.072   2.247
35462W        W  722  25.224  42.967  10.621
35463W        W  723  43.245  14.282  11.904
35464W        W  724  17.234  27.706   4.722
35465W        W  725  23.520  34.108   3.251
35466W        W  726  22.912   8.167   2.152
35467W        W  727  39.432  42.712  13.582
35468W        W  728  21.236  39.758  14.943
35469W        W  729   3.244  43.387  10.713
35470W        W  730  39.271  30.752   2.672
35471W        W  731  25.306   7.212   2.347
35472W        W  732   5.248  37.962   2.867
35473W        W  733   3.759  27.756   2.720
35474W        W  734   5.167  41.915  13.288
35475W        W  735  23.135  12.721  10.857
35476W        W  736   8.763  34.973  14.148
35477W        W  737  16.307  27.569  14.944
35478W        W  738  22.510  21.557   1.405
35479W        W  739  33.179   5.432  11.021
35480W        W  740  29.449  26.243   4.127
35481W        W  741   6.482  34.106  13.686
35482W        W  742  41.752  16.800  10.798
35483W        W  743  38.359  28.939  12.270
35484W        W  744   7.810  32.941  14.866
35485W        W  745  19.262  15.754  12.043
35486W        W  746   4.191   7.676   2.214
35487W        W  747   6.969  12.202  13.055
35488W        W  748   9.705  31.600  14.380
35489W        W  749  35.093  42.759   3.697
35490W        W  750  19.169  12.825   0.313
35491W        W  751  31.841   1.359  10.456
35492W        W  752  15.489  31.919  11.440
35493W        W  753  26.147  44.488   3.605
35494W        W  754  37.391  26.885  12.388
35495W        W  755  20.666  35.141  13.810
35496W        W  756  36.380  38.084   0.442
35497W        W  757  19.226  28.940  11.914
35498W        W  758  25.678  35.070   1.715
35499W        W  759   1.724  20.899  13.288
35500W        W  760  44.824  30.357   0.183
35501W        W  761  10.765  12.647   2.628
35502W        W  762   2.985   1.078  11.764
35503W        W  763   3.665  41.633  13.911
35504W        W  764  33.072  25.984   0.478
35505W        W  765  44.057  25.118  11.660
35506W        W  766  29.160  20.210  12.841
35507W        W  767   5.234  22.469   0.237
35508W        W  768  30.838   8.276   3.241
35509W        W  769  36.286  20.352   0.208
35510W        W  770  18.159  37.902   0.775
35511W        W  771  15.110  17.066  13.881
35512W        W  772  37.957  12.432   1.562
35513W        W  773  19.658   9.139   3.347
35514W        W  774  43.248  29.152   0.494
35515W        W  775  11.866  24.065  14.241
35516W        W  776   0.338  15.275  14.357
35517W        W  777  37.918  34.255   2.429
35518W        W  778   7.626   7.263  11.898
35519W        W  779  15.817  10.031   2.821
35520W        W  780  28.025  43.729   0.435
35521W        W  781   6.778  27.993  12.129
35522W        W  782  38.365  29.380   1.435
35523W        W  783  34.763  15.579  11.570
35524W        W  784   4.636  24.229  14.842
35525W        W  785  39.254  24.701  14.914
35526W        W  786  10.108  33.358   4.992
35527W        W  787  21.332  30.373   0.278
35528W        W  788  41.279  23.115  13.009
35529W        W  789   9.430  42.802   1.940
35530W        W  790   6.755  44.159   3.283
35531W        W  791  11.261  14.864  12.580
35532W        W  792   9.341  15.805   2.182
35533W        W  793   3.399   7.812   0.644
35534W        W  794   0.241  10.744  11.946
35535W        W  795  35.999  44.033  10.690
35536W        W  796  27.851  42.714   5.169
35537W        W  797   9.209  40.302   1.287
35538W        W  798  19.359  42.996   4.308
35539W        W  799  32.152   3.916   2.199
35540W        W  800  27.761  41.485   2.809
35541W        W  801  38.577  39.595  10.931
35542W        W  802  14.424  21.084  14.798
35543W        W  803  26.270  29.420   3.720
35544W        W  804   4.792  23.055   1.261
35545W        W  805  37.865  15.670  14.371
35546W        W  806   9.490  10.668  10.741
35547W        W  807   4.718  35.189  13.941
35548W        W  808  22.656  18.107  14.817
35549W        W  809   4.367  32.048   2.121
35550W        W  810   0.742  18.473  11.264
35551W        W  811  44.300  14.298   9.981
35552W        W  812  29.973   3.561   9.836
35553W        W  813  33.899  17.191   3.571
35554W        W  814   4.372  30.811   4.719
35555W        W  815   8.740  13.226   1.365
35556W        W  816  19.243  21.759  12.477
35557W        W  817   7.179  23.207  10.680
35558W        W  818  44.824   7.399  13.016
35559W        W  819  37.915   7.226  12.062
35560W        W  820  10.290  37.426   0.312
35561W        W  821  17.050  14.311  11.563
35562W        W  822   3.456   5.309  12.887
35563W        W  823  12.301  21.746   3.108
35564W        W  824  35.396  21.249   2.605
35565W        W  825  31.139  16.126   3.745
35566W        W  826  33.253  42.847   0.515
35567W        W  827  13.228  11.460   2.288
35568W        W  828  28.662  30.411  13.040
35569W        W  829  13.759  33.166   0.500
35570W        W  830  35.498  28.403   3.864
35571W        W  831  24.998  42.661   1.424
35572W        W  832  42.911  43.488   3.601
35573W        W  833   4.478  29.935   4.320
35574W        W  834   0.264   8.229   3.356
35575W        W  835  18.699   2.755  13.316
35576W        W  836  25.547  25.714   1.730
35577W        W  837   6.212  31.940   2.703
35578W        W  838  11.532  43.869   3.993
35579W        W  839  38.688  28.634  12.643
35580W        W  840  16.796   7.358   3.692
35581W        W  841   6.976  21.974   2.684
35582W        W  842  22.661   6.875  11.233
35583W        W  843  37.618  39.430   0.629
35584W        W  844  44.632  37.923   2.029
35585W        W  845  19.684  30.194  12.517
35586W        W  846   5.639  36.364   0.958
35587W        W  847   1.707  19.032  13.235
35588W        W  848  17.992  29.470  12.921
35589W        W  849  40.992  43.444   0.455
35590W        W  850  13.610  37.220  10.733
35591W        W  851  44.337  21.027   4.533
35592W        W  852  19.202  40.489   3.651
35593W        W  853  38.123   7.616   2.238
35594W        W  854  16.909  39.537   4.169
35595W        W  855  29.974   1.738   3.872
35596W        W  856  11.351  27.928  11.026
35597W        W  857  16.579  36.116   4.267
35598W        W  858  15.796  31.950  12.999
35599W        W  859  31.346  33.418  13.085
35600W        W  860  22.341  22.538  14.871
35601W        W  861  29.978  29.185  10.784
35602W        W  862  18.083  15.320   1.725
35603W        W  863  30.658  21.959  13.386
35604W        W  864  32.046   9.311   2.782
35605W        W  865  16.337   0.876  11.620
35606W        W  866  33.905  11.127   2.213
35607W        W  867  18.755  21.330   3.366
35608W        W  868   1.517  20.699  11.045
35609W        W  869  30.630  31.943  11.372
35610W        W  870   7.975  31.535   0.895
35611W        W  871  27.038  11.203   0.291
35612W        W  872   0.781  17.518   3.744
35613W        W  873  14.088  17.554   2.341
35614W        W  874  25.535  12.205   0.943
35615W        W  875  20.756   9.549  14.991
35616W        W  876  35.975  28.430   0.408
35617W        W  877  20.180  10.634   4.567
35618W        W  878  42.032   7.265  13.102
35619W        W  879  26.447  35.860  12.643
35620W        W  880  30.999  33.951   1.724
35621W        W  881  36.594   4.960   4.066
35622W        W  882  24.882  13.333   2.687
35623W        W  883  30.245  33.483  14.076
35624W        W  884  10.553  36.020  12.179
35625W        W  885  31.536   3.225   2.619
35626W        W  886  16.554   2.359   4.687
35627W        W  887  22.036  33.382  14.754
35628W        W  888  14.131  37.629  13.993
35629W        W  889  21.671  41.634  10.701
35630W        W  890  43.767  17.657   2.759
35631W        W  891  24.557  36.453   2.901
35632W        W  892  11.730  38.582   4.615
35633W        W  893  39.372  23.346  12.121
35634W        W  894  16.679   4.499   2.496
35635W        W  895  15.226  31.367   3.810
35636W        W  896  21.607  32.930   2.632
35637W        W  897  16.651  41.374   4.352
35638W        W  898  30.071  32.905   1.815
35639W        W  899  34.424  43.696  11.642
35640W        W  900  30.435  34.940  14.832
35641W        W  901  16.999  44.782  14.713
35642W        W  902  14.650  23.134   0.429
35643W        W  903  18.135  25.748   3.141
35644W        W  904   0.028  31.465  12.437
35645W        W  905  43.553  33.376  12.490
35646W        W  906  36.720   0.239   4.978
35647W        W  907  37.880   9.109   1.817
35648W        W  908  16.506   9.460  11.251
35649W        W  909  11.921  13.844   0.001
35650W        W  910  21.509  42.773  14.887
35651W        W  911  23.462  18.906  13.840
35652W        W  912  44.767  22.516   2.165
35653W        W  913  21.728   4.747   0.495
35654W        W  914  32.122  38.447   0.360
35655W        W  915   2.925  22.013  12.004
35656W        W  916  40.299  21.073   2.330
35657W        W  917  29.403  23.962  11.240
35658W        W  918  21.518  29.058   2.729
35659W        W  919  19.015  20.945  13.981
35660W        W  920  28.591  39.501  12.889
35661W        W  921  41.457  18.155   1.412
35662W        W  922  15.174  34.370   1.890
35663W        W  923  33.459  42.965  12.500
35664W        W  924   7.888  25.744   0.759
35665W        W  925  39.955  17.359   2.259
35666W        W  926  38.442   1.991   9.853
35667W        W  927  44.863   6.761  11.420
35668W        W  928   1.790  14.408   3.632
35669W        W  929  27.175   8.152   4.242
35670W        W  930  14.863  39.800  14.093
35671W        W  931  14.813  38.977   2.906
35672W        W  932   6.750  44.223   0.653
35673W        W  933  37.347  40.339   4.603
35674W        W  934  19.695  30.005   4.816
35675W        W  935  26.969  20.151  13.544
35676W        W  936  36.881  13.708  13.980
35677W        W  937  27.346  39.801   3.119
35678W        W  938  20.758  18.177  14.007
35679W        W  939  42.181  10.750  10.328
35680W        W  940  14.177  19.310  13.340
35681W        W  941  27.630  36.887   4.956
35682W        W  942   1.543  26.292   2.287
35683W        W  943  38.556  18.544  14.230
35684W        W  944   0.198   8.714  11.987
35685W        W  945   4.354  31.332  14.456
35686W        W  946  14.853  13.830   3.644
35687W        W  947  15.816  14.426   3.756
35688W        W  948  10.272  16.573   4.006
35689W        W  949   6.187  25.197   2.935
35690W        W  950  37.634  31.568   4.290
35691W        W  951   5.210  19.738   5.020
35692W        W  952  38.000  14.681  11.666
35693W        W  953  38.810  18.992  14.516
35694W        W  954  13.069  12.623  12.778
35695W        W  955  44.816  29.561   4.447
35696W        W  956  11.040   1.017  12.045
35697W        W  957  20.011  35.354  14.025
35698W        W  958  14.093  22.296  11.682
35699W        W  959  10.914   3.787   3.329
35700W        W  960  32.943   2.260   1.681
35701W        W  961  12.174  36.120   3.343
35702W        W  962  42.080  31.609  12.820
35703W        W  963  22.777  38.948  11.916
35704W        W  964  11.598  17.016   3.379
35705W        W  965   8.370   3.180   0.341
35706W        W  966  13.781  42.759  10.989
35707W        W  967  32.189  29.185   0.875
35708W        W  968  31.618  25.058   0.935
35709W        W  969   7.707  11.692  10.713
35710W        W  970   8.406  38.069  11.209
35711W        W  971  24.141  16.090  12.836
35712W        W  972  17.284   1.317   0.065
35713W        W  973  43.021  20.187   4.056
35714W        W  974  10.985  44.348  10.795
35715W        W  975   0.804   6.350   3.242
35716W        W  976  35.484  43.490  13.816
35717W        W  977  31.138  37.484  10.091
35718W        W  978  18.821  41.281  13.536
35719W        W  979  29.031   1.147  13.979
35720W        W  980   9.697  23.685  12.103
35721W        W  981  31.159  24.549  11.996
35722W        W  982  31.985   7.374  10.728
35723W        W  983  39.031  20.294   3.324
35724W        W  984  41.782   5.191   1.234
35725W        W  985  26.488   2.446  12.957
35726W        W  986  22.611  26.016   4.626
35727W        W  987   0.977   3.725  14.411
35728W        W  988  42.989  18.356   0.784
35729W        W  989  44.045  31.129  10.529
35730W        W  990  22.937  23.167  11.922
35731W        W  991  30.786  26.141   1.129
35732W        W  992  36.176  22.634   3.749
35733W        W  993  27.557   0.463   3.344
35734W        W  994  28.280  29.977  11.422
35735W        W  995  32.429  33.062   0.378
35736W        W  996  31.228  16.624  10.514
35737W        W  997  12.082   7.888   1.432
35738W        W  998  31.497   8.142   1.719
35739W        W  999  17.599  40.875  12.013
35740W        W 1000  10.364  17.793  14.977
35741W        W 1001  24.689   3.947  14.466
35742W        W 1002  42.718  35.889  14.043
35743W        W 1003  39.548   7.923   2.414
35744W        W 1004  29.987   8.360   1.317
35745W        W 1005  18.009  35.842  14.829
35746W        W 1006   7.925  32.214  12.009
35747W        W 1007  26.287  28.989  11.548
35748W        W 1008   9.177  11.567   0.698
35749W        W 1009   7.956  21.516   2.285
35750W        W 1010   6.085  39.505  11.515
35751W        W 1011  40.508   3.474  13.792
35752W        W 1012  30.509  24.067  11.435
35753W        W 1013  25.628   8.575  10.516
35754W        W 1014  21.847   2.913  11.419
35755W        W 1015   2.507  41.917  12.386
35756W        W 1016  31.086   3.268   0.853
35757W        W 1017  39.368  33.466   3.196
35758W        W 1018  30.567  11.843  11.105
35759W        W 1019  42.560  27.491  12.043
35760W        W 1020   7.465   9.910  11.174
35761W        W 1021  38.975  25.451  13.324
35762W        W 1022  41.796  44.378   4.044
35763W        W 1023  20.380   8.342   3.213
35764W        W 1024  35.731  39.544  13.288
35765W        W 1025  34.644  24.605  13.953
35766W        W 1026  18.425  32.971   0.366
35767W        W 1027  38.454  12.602   2.375
35768W        W 1028  25.403   2.859  11.080
35769W        W 1029  32.078   6.501  10.751
35770W        W 1030  21.680  14.029  14.845
35771W        W 1031  16.799  30.180  14.634
35772W        W 1032  11.147  36.044  11.591
35773W        W 1033  39.860  25.604  11.413
35774W        W 1034  26.181  41.308   0.926
35775W        W 1035  29.575  22.960   4.273
35776W        W 1036  21.461   9.476   5.005
35777W        W 1037  20.749  42.148  14.254
35778W        W 1038  32.994  38.537   1.907
35779W        W 1039  25.983  26.893   1.536
35780W        W 1040  44.946  13.081   0.883
35781W        W 1041  11.250  36.482   0.028
35782W        W 1042  42.396  44.234   1.340
35783W        W 1043  11.262   3.787  12.113
35784W        W 1044  12.288   3.749  11.586
35785W        W 1045  26.282  10.653  10.714
35786W        W 1046   9.342   3.197   1.004
35787W        W 1047   2.016  27.147  12.080
35788W        W 1048  40.572  39.931   3.292
35789W        W 1049   2.034  25.998   4.218
35790W        W 1050  22.714   6.122   0.571
35791W        W 1051  44.328  10.684   0.283
35792W        W 1052   7.002  28.997   3.802
35793W        W 1053  43.925   1.876   0.871
35794W        W 1054  37.815  20.434   1.291
35795W        W 1055  23.405  36.339  14.516
35796W        W 1056  26.020  22.812   3.673
35797W        W 1057  35.632  30.925  13.519
35798W        W 1058   8.594  14.778  13.803
35799W        W 1059  44.814  14.301   3.047
35800W        W 1060  10.367  12.326   1.339
35801W        W 1061   9.692  20.663   2.191
35802W        W 1062  31.662  24.372   9.808
35803W        W 1063  40.104  12.944  12.498
35804W        W 1064  16.372   0.444   2.682
35805W        W 1065  29.671  33.112   2.246
35806W        W 1066  23.526   7.946  13.112
35807W        W 1067  18.672  32.809  14.326
35808W        W 1068   4.810   0.001  12.419
35809W        W 1069  24.183  29.985  14.453
35810W        W 1070  37.786  26.659   3.666
35811W        W 1071  36.445  11.383  11.484
35812W        W 1072  15.677  20.649  11.964
35813W        W 1073  20.183  31.501   1.202
35814W        W 1074  31.539  39.269   1.365
35815W        W 1075  20.175  30.399  10.535
35816W        W 1076  31.893  43.478   3.957
35817W        W 1077  38.953  19.717  13.120
35818W        W 1078   6.590  16.717   4.135
35819W        W 1079  28.863  17.809  13.985
35820W        W 1080  37.594  38.613  13.823
35821W        W 1081  14.716   5.826   0.678
35822W        W 1082  42.828   8.919  10.120
35823W        W 1083  10.279  30.600   1.098
35824W        W 1084  17.274  21.299   0.989
35825W        W 1085   3.974   7.121  11.155
35826W        W 1086  16.089  26.535  12.920
35827W        W 1087  27.149   9.589   3.456
35828W        W 1088   5.864  40.953  13.425
35829W        W 1089  13.564   5.293   2.058
35830W        W 1090  33.630   8.900   2.279
35831W        W 1091  17.555  19.098   0.801
35832W        W 1092  14.535   4.220  13.061
35833W        W 1093  14.461  15.760  12.511
35834W        W 1094  40.877   6.052  12.895
35835W        W 1095   9.698  37.709   0.411
35836W        W 1096  18.150  16.874   2.021
35837W        W 1097  13.369   9.633  14.525
35838W        W 1098  20.574  35.564   0.332
35839W        W 1099   0.678  32.823  11.160
35840W        W 1100   5.214  31.168  14.311
35841W        W 1101  22.768   3.099   9.803
35842W        W 1102  37.014  43.138   4.839
35843W        W 1103   4.672  19.041   2.214
35844W        W 1104  18.480   1.039  13.825
35845W        W 1105  22.716   9.384   0.850
35846W        W 1106   3.417  35.795   4.602
35847W        W 1107  34.520   1.935  14.915
35848W        W 1108  28.632  31.655   0.486
35849W        W 1109  12.301  22.472   0.388
35850W        W 1110  11.852  27.435   4.615
35851W        W 1111  22.588  33.067   0.359
35852W        W 1112  15.325   4.760  11.473
35853W        W 1113  44.279  12.100   1.743
35854W        W 1114   5.722  17.127  13.886
35855W        W 1115  32.033  19.425   4.157
35856W        W 1116  22.548  40.838   4.236
35857W        W 1117   8.490  17.211  12.126
35858W        W 1118  14.313   2.486  12.064
35859W        W 1119  36.309  30.032   2.283
35860W        W 1120  13.759  28.742  14.483
35861W        W 1121  18.318  22.599   3.345
35862W        W 1122  38.535  32.444   1.431
35863W        W 1123  22.999  34.564  11.109
35864W        W 1124  11.125   3.250  12.708
35865W        W 1125   8.260   7.295   1.786
35866W        W 1126  27.588  44.946  13.318
35867W        W 1127  37.397  22.287  13.951
35868W        W 1128   3.133  32.024   3.312
35869W        W 1129  26.118  33.857  10.707
35870W        W 1130   9.733  10.679   0.951
35871W        W 1131  21.238  33.422   2.376
35872W        W 1132  17.284   3.185   2.346
35873W        W 1133  24.673  18.217  12.111
35874W        W 1134  29.211   3.270  11.006
35875W        W 1135  21.127  39.592  11.950
35876W        W 1136  12.816  12.866   1.032
35877W        W 1137  31.916  41.761   2.881
35878W        W 1138  31.071  12.176   1.765
35879W        W 1139  37.027  19.696  11.280
35880W        W 1140  24.620  17.205   4.121
35881W        W 1141  19.530  42.349  10.918
35882W        W 1142  29.400  29.586   1.516
35883W        W 1143  44.925  22.180  12.216
35884W        W 1144  24.203  12.578   4.308
35885W        W 1145   4.939  31.691   4.475
35886W        W 1146  23.081  10.705  13.925
35887W        W 1147  28.598   3.962   2.750
35888W        W 1148  18.673   6.726  12.629
35889W        W 1149  37.782   3.757  14.112
35890W        W 1150  11.163  34.012   4.530
35891W        W 1151  15.832  24.441  13.237
35892W        W 1152  14.560  23.625   1.956
35893W        W 1153  10.837   4.720  10.732
35894W        W 1154  19.526  22.436  11.120
35895W        W 1155  15.379  37.968  13.270
35896W        W 1156   4.165   9.648  14.022
35897W        W 1157  24.939   6.805   3.357
35898W        W 1158  40.477   9.487  11.559
35899W        W 1159  14.163  32.622   1.209
35900W        W 1160  27.560  40.422   4.894
35901W        W 1161   1.933  19.639  13.965
35902W        W 1162  28.179  28.609   0.414
35903W        W 1163  40.251   3.155  14.752
35904W        W 1164  26.964   4.434  10.226
35905W        W 1165  41.845  20.244   1.954
35906W        W 1166  35.442  31.068  13.071
35907W        W 1167  43.440  17.658   1.781
35908W        W 1168   5.802  20.957  13.817
35909W        W 1169  18.292  20.766  10.801
35910W        W 1170  24.576  17.704  12.084
35911W        W 1171  19.317   1.366   0.268
35912W        W 1172  35.304   1.426  11.596
35913W        W 1173  39.729   0.730  11.534
35914W        W 1174  17.917  13.382   0.749
35915W        W 1175  29.630  43.881   1.181
35916W        W 1176   9.194  10.565   4.574
35917W        W 1177  23.572  28.383   2.672
35918W        W 1178  26.065  28.993  12.331
35919W        W 1179  25.177  16.955   4.936
35920W        W 1180  27.932   9.103   4.226
35921W        W 1181  33.027  10.145  12.753
35922W        W 1182  21.091  35.601  10.401
35923W        W 1183  38.003  36.503  10.670
35924W        W 1184   9.183  37.535  14.438
35925W        W 1185  32.146  30.570   0.406
35926W        W 1186  14.739   1.001   3.797
35927W        W 1187  41.244   7.830  13.978
35928W        W 1188  34.646  37.509   1.270
35929W        W 1189  21.017  19.690  14.961
35930W        W 1190  35.109  21.918   1.771
35931W        W 1191  21.812  40.317  14.312
35932W        W 1192  44.974  40.899  13.764
35933W        W 1193   6.315  27.218   1.247
35934W        W 1194  30.426  19.123   1.916
35935W        W 1195  27.043  41.874   0.230
35936W        W 1196   9.517  18.728  14.336
35937W        W 1197  17.346  23.913   4.492
35938W        W 1198  42.273  34.343  10.653
35939W        W 1199  12.804  41.075   2.387
35940W        W 1200  25.760   0.995   3.268
35941W        W 1201  22.683  37.709   3.830
35942W        W 1202  44.385  35.123  14.901
35943W        W 1203  14.211  14.706   4.057
35944W        W 1204  43.680  12.382   3.801
35945W        W 1205  10.288  16.735   3.522
35946W        W 1206  29.702  29.069   0.845
35947W        W 1207  38.876  13.949  14.810
35948W        W 1208  43.769  34.421  13.908
35949W        W 1209  33.032  30.408   2.154
35950W        W 1210  32.143   8.220   2.888
35951W        W 1211   5.837  33.462  13.414
35952W        W 1212   7.683  18.936   0.420
35953W        W 1213  20.153   9.113   2.739
35954W        W 1214  18.478  39.887  13.905
35955W        W 1215  35.027  29.654   0.758
35956W        W 1216  41.597  24.690   1.197
35957W        W 1217  42.294  34.883   0.379
35958W        W 1218   1.024   5.970   2.200
35959W        W 1219  16.223  29.788  11.765
35960W        W 1220  19.277   4.912   0.359
35961W        W 1221  14.136  25.910  13.570
35962W        W 1222  41.301  44.116   1.181
35963W        W 1223  16.573   4.999  10.340
35964W        W 1224   7.808   7.141  12.890
35965W        W 1225   4.924  24.185  13.496
35966W        W 1226   1.609  19.313  12.825
35967W        W 1227  14.715  34.296  10.146
35968W        W 1228  21.196  18.084  11.798
35969W        W 1229  17.421  14.278  10.278
35970W        W 1230  37.239   5.590   4.134
35971W        W 1231  28.524  15.765  11.471
35972W        W 1232  37.978  27.320   2.624
35973W        W 1233  16.924  35.826  14.809
35974W        W 1234  34.659  17.790  13.411
35975W        W 1235  16.093   2.931   4.242
35976W        W 1236  38.060  38.440  12.406
35977W        W 1237  42.402  18.342  13.826
35978W        W 1238  11.714   9.750   0.002
35979W        W 1239   6.947  23.329  13.440
35980W        W 1240  33.108  40.707   0.553
35981W        W 1241   2.864  11.092   1.636
35982W        W 1242  42.637  22.186  11.352
35983W        W 1243  44.928  41.373   4.960
35984W        W 1244  32.810   9.625  13.457
35985W        W 1245  17.895  40.460  11.878
35986W        W 1246   3.353  13.187   2.909
35987W        W 1247  34.844  21.156   2.422
35988W        W 1248  16.158  18.697   0.990
35989W        W 1249  36.348  16.325   3.674
35990W        W 1250  14.692  32.913   2.443
35991W        W 1251  41.845  43.555   0.183
35992W        W 1252  36.299  34.869   2.202
35993W        W 1253  23.740  23.454   4.705
35994W        W 1254   0.823  39.893   3.094
35995W        W 1255  30.522  39.641  12.216
35996W        W 1256  24.303  28.669  13.673
35997W        W 1257  29.756  14.907  10.789
35998W        W 1258  35.142  12.749   2.322
35999W        W 1259   1.536  19.550  10.820
36000W        W 1260  14.343  27.157   4.272
36001W        W 1261   0.017  34.517  11.556
36002W        W 1262  42.576   5.265   1.811
36003W        W 1263  36.486  13.244  10.412
36004W        W 1264   8.959  41.408   2.869
36005W        W 1265  34.265  41.448  11.128
36006W        W 1266  11.719  19.673   2.828
36007W        W 1267   2.798  37.883   3.190
36008W        W 1268  16.636  19.782   1.350
36009W        W 1269  32.505  43.674  13.331
36010W        W 1270  27.503  38.659  11.109
36011W        W 1271  22.035  23.072   4.666
36012W        W 1272  38.302  36.359  14.735
36013W        W 1273  35.890  39.350  14.470
36014W        W 1274  19.569  11.616  14.324
36015W        W 1275  42.240  20.289   1.629
36016W        W 1276   1.655   9.152  11.144
36017W        W 1277  20.167  40.767  12.484
36018W        W 1278  29.694  18.084  12.388
36019W        W 1279  24.421   6.344   0.991
36020W        W 1280  36.481   3.254   0.050
36021W        W 1281   3.428  22.782  11.476
36022W        W 1282  24.643  43.352   5.037
36023W        W 1283  39.375  29.646  12.148
36024W        W 1284  38.907   8.164   2.235
36025W        W 1285   4.491  37.170  13.891
36026W        W 1286  16.319   7.347   5.011
36027W        W 1287   5.757  17.708  12.539
36028W        W 1288   7.387   3.808   1.767
36029W        W 1289   5.900  16.819   0.850
36030W        W 1290  18.156  22.080  13.759
36031W        W 1291   6.435  14.433   2.224
36032W        W 1292  22.457  26.231   3.143
36033W        W 1293  34.406  40.213   1.655
36034W        W 1294  42.367  21.563   2.405
36035W        W 1295  36.618  27.375   0.877
36036W        W 1296   7.131   8.643   3.143
36037W        W 1297  30.090  26.566   1.868
36038W        W 1298  37.131  38.166  13.264
36039W        W 1299  28.943  11.097  11.227
36040W        W 1300  10.728  12.789  11.960
36041W        W 1301  34.145  34.774  10.752
36042W        W 1302  10.323  16.104  14.447
36043W        W 1303  17.531  39.921   4.699
36044W        W 1304   4.317  31.438   3.274
36045W        W 1305  44.735  27.082   2.921
36046W        W 1306  23.014  43.967   1.812
36047W        W 1307  36.151  23.191  14.380
36048W        W 1308  16.373  37.534  13.720
36049W        W 1309  43.547   8.790   3.446
36050W        W 1310  33.661  23.637  12.862
36051W        W 1311  37.325  36.900   0.107
36052W        W 1312  23.186  44.090  11.872
36053W        W 1313  37.317   9.059   2.801
36054W        W 1314  44.738  17.755   2.383
36055W        W 1315  21.237  30.456   1.184
36056W        W 1316  31.953  15.057   0.827
36057W        W 1317   9.949   9.937  14.049
36058W        W 1318  20.288  28.915  14.948
36059W        W 1319  20.541  41.344   2.256
36060W        W 1320   1.915   3.222   1.316
36061W        W 1321  44.008  33.923   0.368
36062W        W 1322  10.133  21.152  10.939
36063W        W 1323  25.795  27.503  13.488
36064W        W 1324  34.438  39.425   0.015
36065W        W 1325   4.027  26.542  13.001
36066W        W 1326   3.370  29.644   0.899
36067W        W 1327  34.298   0.583  14.731
36068W        W 1328  35.078   8.873  10.217
36069W        W 1329  19.008  15.789   0.925
36070W        W 1330  13.241   7.783  13.824
36071W        W 1331  39.027  20.351  13.969
36072W        W 1332  29.008  11.405   1.014
36073W        W 1333  20.018   2.880   3.720
36074W        W 1334  26.897  26.526  12.122
36075W        W 1335  17.822  23.508   4.155
36076W        W 1336  23.211   2.506   2.501
36077W        W 1337  14.793  13.032  12.555
36078W        W 1338  41.890  28.894   2.845
36079W        W 1339  25.536  40.882   4.155
36080W        W 1340  29.780   0.164  13.567
36081W        W 1341  17.146  34.249  14.497
36082W        W 1342  13.269  16.040   2.181
36083W        W 1343  26.222   3.961   4.979
36084W        W 1344  28.556  24.741   1.907
36085W        W 1345  22.796  17.231  13.755
36086W        W 1346  15.988  11.101  13.985
36087W        W 1347  11.295  39.299   2.192
36088W        W 1348   8.909  12.841  11.896
36089W        W 1349   3.577  14.600  14.424
36090W        W 1350  21.721  21.263   4.651
36091W        W 1351   1.522   3.286  13.429
36092W        W 1352  40.584  22.191  10.924
36093W        W 1353  37.876  22.723   1.830
36094W        W 1354  41.424   9.749  13.082
36095W        W 1355  22.601   1.565   4.529
36096W        W 1356  36.319  22.909   2.737
36097W        W 1357  35.201  18.288   1.882
36098W        W 1358  21.198  17.021   4.132
36099W        W 1359   6.699  30.585   1.712
36100W        W 1360  36.486  43.536   2.260
36101W        W 1361   6.065  21.595   2.625
36102W        W 1362  42.973  22.936  14.141
36103W        W 1363  43.013   9.903   1.241
36104W        W 1364   8.357  16.720  12.046
36105W        W 1365  18.196   0.286   5.052
36106W        W 1366   2.906  42.461   2.701
36107W        W 1367  26.907  34.731  10.286
36108W        W 1368  43.010  35.396   3.329
36109W        W 1369  26.087  26.654   2.476
36110W        W 1370  38.318  12.875   2.807
36111W        W 1371   5.639   7.406   1.693
36112W        W 1372  41.466  28.391  11.030
36113W        W 1373  27.891  18.421   3.383
36114W        W 1374  11.855   4.008  11.496
36115W        W 1375  39.227  25.622   0.823
36116W        W 1376  12.818   1.179  10.539
36117W        W 1377  37.038  16.340  12.559
36118W        W 1378  17.255  21.055  12.380
36119W        W 1379  36.660  16.086  14.190
36120W        W 1380   5.438  31.985   4.534
36121W        W 1381  12.707  38.048  11.660
36122W        W 1382  33.850  35.011  14.347
36123W        W 1383  18.693   0.590  13.688
36124W        W 1384  10.285  22.639  11.614
36125W        W 1385  13.431  13.146   3.357
36126W        W 1386  42.444   0.317  10.988
36127W        W 1387  12.947  21.585   4.816
36128W        W 1388   8.775  18.659   4.219
36129W        W 1389   4.295  25.256   3.095
36130W        W 1390   1.765  44.929  11.308
36131W        W 1391  18.222  38.585   4.905
36132W        W 1392  28.605   9.126   1.090
36133W        W 1393  39.735  29.087  12.797
36134W        W 1394  43.843  24.806   2.810
36135W        W 1395  21.713  36.500   3.563
36136W        W 1396  43.898  22.495  10.429
36137W        W 1397   1.015  34.991   2.858
36138W        W 1398  38.886  15.176   3.100
36139W        W 1399   0.812   6.735  11.571
36140W        W 1400  38.977  12.603   2.349
36141W        W 1401   7.384  37.320  11.675
36142W        W 1402   1.345  15.243  12.359
36143W        W 1403  40.915  37.664  12.557
36144W        W 1404  42.354  44.758   2.394
36145W        W 1405  21.723  37.438  14.710
36146W        W 1406   9.501   3.982  12.127
36147W        W 1407  39.353  24.619   0.737
36148W        W 1408  20.708  34.876   2.842
36149W        W 1409  36.790  23.960  13.536
36150W        W 1410  44.409  17.495   3.185
36151W        W 1411   6.405  29.435   4.688
36152W        W 1412  21.550  42.390   1.424
36153W        W 1413  33.372  21.268  14.341
36154W        W 1414  27.316  18.155   2.881
36155W        W 1415   1.927  42.089  12.931
36156W        W 1416  33.492  22.992   2.181
36157W        W 1417  35.653   0.379   1.382
36158W        W 1418  39.309  32.903   0.248
36159W        W 1419  29.023  39.745  13.303
36160W        W 1420  19.759  30.068   2.947
36161W        W 1421   4.035  40.738   0.987
36162W        W 1422   8.692   1.212  10.930
36163W        W 1423  22.031   3.674  14.014
36164W        W 1424  40.741  13.765  10.281
36165W        W 1425  26.879   3.325   3.190
36166W        W 1426  41.264  29.270   1.760
36167W        W 1427  30.452   0.355   3.434
36168W        W 1428  28.187   3.350   0.794
36169W        W 1429   1.894  35.433  12.393
36170W        W 1430  31.630  15.214   0.423
36171W        W 1431   7.423  16.290  10.683
36172W        W 1432  36.886   6.354   1.644
36173W        W 1433  11.803   2.907   1.777
36174W        W 1434  32.935   8.803   0.255
36175W        W 1435  41.063  31.463  12.807
36176W        W 1436  44.499   0.954  11.554
36177W        W 1437  12.486  33.002  13.564
36178W        W 1438  37.473   3.230   4.648
36179W        W 1439  35.697  18.148   1.239
36180W        W 1440  42.299  27.172  14.841
36181W        W 1441  16.363   4.687  12.184
36182W        W 1442  36.539  44.430  13.456
36183W        W 1443  18.313   5.483   2.603
36184W        W 1444   7.644   1.038   2.714
36185W        W 1445  40.575  27.683   2.301
36186W        W 1446  39.013  19.536  14.899
36187W        W 1447  29.587   4.735   4.609
36188W        W 1448  27.623  16.597   3.957
36189W        W 1449   7.650   5.065  10.795
36190W        W 1450   3.418  39.396   3.219
36191W        W 1451  31.922  31.134  12.123
36192W        W 1452  10.284  10.630  11.338
36193W        W 1453  11.906  38.952  11.057
36194W        W 1454  21.927  39.493   3.682
36195W        W 1455  10.915  21.715   4.370
36196W        W 1456  33.134  24.697  12.903
36197W        W 1457  25.670  36.790   0.815
36198W        W 1458  36.839  24.451   3.754
36199W        W 1459  13.700   7.155   0.485
36200W        W 1460  35.427  40.604   0.630
36201W        W 1461   4.208  33.292  14.806
36202W        W 1462   6.731  28.276  11.224
36203W        W 1463  41.477  25.413  14.958
36204W        W 1464  43.293  22.991  13.366
36205W        W 1465  21.560   4.675   0.004
36206W        W 1466  19.353  43.420  13.511
36207W        W 1467  12.669  17.152  11.606
36208W        W 1468  36.815  41.832   3.777
36209W        W 1469  41.348  28.791   1.891
36210W        W 1470  18.824  32.951  12.421
36211W        W 1471   4.768  36.338   3.222
36212W        W 1472  41.016   3.980   1.787
36213W        W 1473  41.356   3.317   9.774
36214W        W 1474  35.905  38.198   0.730
36215W        W 1475  32.012   6.204  14.264
36216W        W 1476   9.574   4.833   3.733
36217W        W 1477  17.361  30.536   1.250
36218W        W 1478  24.068   2.819   2.919
36219W        W 1479  36.936  33.943   0.718
36220W        W 1480   9.021  20.539  14.377
36221W        W 1481  37.657  11.219  14.040
36222W        W 1482  30.582  20.365  12.935
36223W        W 1483  43.034  26.246   0.386
36224W        W 1484  37.725  28.656  13.453
36225W        W 1485  24.666  31.904   0.756
36226W        W 1486  38.381  35.319   1.116
36227W        W 1487  22.782  39.816  11.840
36228W        W 1488  24.440  41.567  12.997
36229W        W 1489  24.406  15.592  11.058
36230W        W 1490  24.106  36.665  11.233
36231W        W 1491  18.753  26.628  10.345
36232W        W 1492  28.570  37.584  13.647
36233W        W 1493   2.648  11.863   2.757
36234W        W 1494  12.557  39.184   4.611
36235W        W 1495   4.286  17.622   4.403
36236W        W 1496  22.000  39.887  12.938
36237W        W 1497  24.943  40.354   1.272
36238W        W 1498  28.642  10.708  11.032
36239W        W 1499  11.915   2.711  12.332
36240W        W 1500  25.660  29.069   3.787
36241W        W 1501  32.855   1.687  11.584
36242W        W 1502  35.085   9.187   0.265
36243W        W 1503  39.235  39.018   2.112
36244W        W 1504  19.435  38.603   3.113
36245W        W 1505  25.659  27.767   1.219
36246W        W 1506  29.931  31.495  10.864
36247W        W 1507  30.089  10.612  13.554
36248W        W 1508   0.950  19.023  11.420
36249W        W 1509   3.957  42.459   2.826
36250W        W 1510  23.738  12.709   2.197
36251W        W 1511  22.764  38.094   1.724
36252W        W 1512  13.142  25.118  11.462
36253W        W 1513  19.141  43.364  10.687
36254W        W 1514  27.073  44.564   2.761
36255W        W 1515  18.077  21.814   0.600
36256W        W 1516  27.237  38.988   4.403
36257W        W 1517  10.897  41.575  13.552
36258W        W 1518  23.499  19.067  12.546
36259W        W 1519  42.560  29.107  12.964
36260W        W 1520  29.843  11.229  13.732
36261W        W 1521   2.225  36.015  10.898
36262W        W 1522  18.186  32.433  13.560
36263W        W 1523  38.501  23.814  11.195
36264W        W 1524  41.230  42.456   3.722
36265W        W 1525   1.545  18.365  13.833
36266W        W 1526  44.828   9.201   1.711
36267W        W 1527  25.695  44.607  11.877
36268W        W 1528  19.934  36.450  11.102
36269W        W 1529  34.044  18.364  13.341
36270W        W 1530  44.987  26.351  12.804
36271W        W 1531   3.196  35.109  12.554
36272W        W 1532  35.333  38.923  13.706
36273W        W 1533  37.143  22.235   2.341
36274W        W 1534  30.081  33.903  10.460
36275W        W 1535  25.195  39.246   9.735
36276W        W 1536  38.022  33.163  13.459
36277W        W 1537  13.267  31.772  13.584
36278W        W 1538  40.926  44.882  11.090
36279W        W 1539   0.476  44.532  14.794
36280W        W 1540  36.925  22.124   3.829
36281W        W 1541  30.836   7.768  13.557
36282W        W 1542  30.349  14.618  13.975
36283W        W 1543  43.368   7.346   1.900
36284W        W 1544  15.582  11.198  11.038
36285W        W 1545  18.166   4.938   3.362
36286W        W 1546   4.157  19.307   5.057
36287W        W 1547  35.942  34.874   1.223
36288W        W 1548  44.826  23.178  10.671
36289W        W 1549  41.399  37.903   4.247
36290W        W 1550  30.009  29.238   3.664
36291W        W 1551   5.161  35.680   0.432
36292W        W 1552  22.525  27.990  11.243
36293W        W 1553  32.000   3.636   2.993
36294W        W 1554  14.261  17.955  10.735
36295W        W 1555  43.166  21.739  13.275
36296W        W 1556  39.949  19.151  13.817
36297W        W 1557  11.203  11.522  14.866
36298W        W 1558  38.306   7.993   1.535
36299W        W 1559  11.768   7.855   2.202
36300W        W 1560  30.618  16.752   4.118
36301W        W 1561  11.698  43.510  11.345
36302W        W 1562  17.535  40.427  12.285
36303W        W 1563   8.259   9.336   2.842
36304W        W 1564  42.568  26.634   5.112
36305W        W 1565  40.459  36.010  10.659
36306W        W 1566  10.160   2.529   1.930
36307W        W 1567   5.544   1.699   1.879
36308W        W 1568  20.679   3.296  11.907
36309W        W 1569  44.988  25.851  12.697
36310W        W 1570  20.909  12.155   4.639
36311W        W 1571  40.480  31.960   9.961
36312W        W 1572  19.461  43.333  11.093
36313W        W 1573   9.611  16.118   1.203
36314W        W 1574  13.825  38.619  12.546
36315W        W 1575  23.959   7.690  10.718
36316W        W 1576  14.229   0.503   2.408
36317W        W 1577   9.424  19.828  12.495
36318W        W 1578  27.581  12.256  14.798
36319W        W 1579  25.394  36.935   2.703
36320W        W 1580  17.200  41.480   0.868
36321W        W 1581  22.438   7.966  11.490
36322W        W 1582  18.594  36.707   3.391
36323W        W 1583  38.941   8.194   0.237
36324W        W 1584   1.505   4.275  12.400
36325W        W 1585  29.878  17.820   2.317
36326W        W 1586  41.126   6.810  11.292
36327W        W 1587  42.426  21.021  14.331
36328W        W 1588  28.772  28.044  12.958
36329W        W 1589  10.778   8.940   1.775
36330W        W 1590  37.145  28.088   0.882
36331W        W 1591   9.956  15.139   1.321
36332W        W 1592  22.004  36.487   3.104
36333W        W 1593  22.767  44.606  11.284
36334W        W 1594  19.681  35.666  12.092
36335W        W 1595  33.691   3.224   0.281
36336W        W 1596   0.452  21.420   1.687
36337W        W 1597   3.032  20.006  14.922
36338W        W 1598  18.584  27.615   1.686
36339W        W 1599  16.017   1.641   3.554
36340W        W 1600  38.753  15.296  11.220
36341W        W 1601  25.747  33.110  11.383
36342W        W 1602  33.468  35.138   5.053
36343W        W 1603  19.201  29.420  12.657
36344W        W 1604   9.121   1.313  14.496
36345W        W 1605   8.152  25.706   1.402
36346W        W 1606  43.035  26.461  13.497
36347W        W 1607  32.515  44.265  14.306
36348W        W 1608  18.784   6.244   2.249
36349W        W 1609  10.797  14.215   1.490
36350W        W 1610   9.250  43.758   0.991
36351W        W 1611  14.772   5.846   3.650
36352W        W 1612  43.313  39.305   3.256
36353W        W 1613  28.924  25.251   4.785
36354W        W 1614  29.610  34.987   0.364
36355W        W 1615   6.922  13.377  11.600
36356W        W 1616  36.748  12.206  11.041
36357W        W 1617  37.533  23.031   4.866
36358W        W 1618  39.060  16.314   2.765
36359W        W 1619  20.509  40.655   2.902
36360W        W 1620   7.757  28.612   3.589
36361W        W 1621  43.386  14.486   0.722
36362W        W 1622  11.803  22.802  12.892
36363W        W 1623  22.190  18.780   3.598
36364W        W 1624  44.312  30.115   0.314
36365W        W 1625   8.938  31.195   0.704
36366W        W 1626  41.767  44.005  10.678
36367W        W 1627  38.943  38.515  13.605
36368W        W 1628   1.365  32.371   0.391
36369W        W 1629  16.369  30.603   0.309
36370W        W 1630   0.302  30.535   3.299
36371W        W 1631   8.256  36.382   4.324
36372W        W 1632   7.213   3.992  14.860
36373W        W 1633  36.490   4.472  10.624
36374W        W 1634   9.367   9.686  14.714
36375W        W 1635  29.502  41.036   2.690
36376W        W 1636  17.547  20.540  11.998
36377W        W 1637   3.229  35.341  10.725
36378W        W 1638  23.746   6.136  14.991
36379W        W 1639  20.657   9.204   2.725
36380W        W 1640  32.948  38.213   1.502
36381W        W 1641  22.687  22.130  14.642
36382W        W 1642  36.446  28.920   3.295
36383W        W 1643   3.756  33.915  11.349
36384W        W 1644  24.792  22.561  13.823
36385W        W 1645  36.879   4.738  12.258
36386W        W 1646  19.712  11.604   2.462
36387W        W 1647  42.100   9.231   2.697
36388W        W 1648  33.967  42.516  11.712
36389W        W 1649  25.863  40.383  11.566
36390W        W 1650  34.948  11.727  14.793
36391W        W 1651  10.837  42.935  14.983
36392W        W 1652  24.467  17.167  12.117
36393W        W 1653  29.305  11.810   1.151
36394W        W 1654  24.563  10.448   4.745
36395W        W 1655  24.296  38.938   0.865
36396W        W 1656  35.130  28.282   0.326
36397W        W 1657  22.932  23.134   3.351
36398W        W 1658  27.484   3.516  14.807
36399W        W 1659  27.774  22.572   1.382
36400W        W 1660  12.979  27.615  10.447
36401W        W 1661  36.561  13.579   4.189
36402W        W 1662  14.278  41.889   1.392
36403W        W 1663  24.481   4.400  13.334
36404W        W 1664  22.369  37.314   0.517
36405W        W 1665  28.614  24.683  11.871
36406W        W 1666  22.236  34.837   5.009
36407W        W 1667  23.907  15.575   1.938
36408W        W 1668  30.348  12.702  13.787
36409W        W 1669  12.751  11.197   3.924
36410W        W 1670   7.465  35.372  11.068
36411W        W 1671  28.628   3.264   0.392
36412W        W 1672  16.366  17.824  14.394
36413W        W 1673  23.202  27.012   4.425
36414W        W 1674   6.859   5.781   3.779
36415W        W 1675  17.770  44.252  12.200
36416W        W 1676  37.042   2.795  11.073
36417W        W 1677   2.494  33.109  11.235
36418W        W 1678   8.854  21.539   0.961
36419W        W 1679  10.623  16.255  11.559
36420W        W 1680  24.916   6.398  13.424
36421W        W 1681  23.629  11.087  11.517
36422W        W 1682  15.543  25.397   4.561
36423W        W 1683   4.691  43.101   3.777
36424W        W 1684  26.712  44.101   4.264
36425W        W 1685  32.894  33.325  10.697
36426W        W 1686  24.418  41.958  14.453
36427W        W 1687  44.363  24.682   2.715
36428W        W 1688  21.011   9.527  12.899
36429W        W 1689  28.385  43.353  13.400
36430W        W 1690  18.225  21.860  14.236
36431W        W 1691  20.056  29.649   2.361
36432W        W 1692  39.723  22.615   1.737
36433W        W 1693   0.413  36.971   4.312
36434W        W 1694   9.198  31.222   3.622
36435W        W 1695   6.319  23.972  13.052
36436W        W 1696   7.024  17.590  12.057
36437W        W 1697  18.773   9.325   1.765
36438W        W 1698   5.178  22.065   0.887
36439W        W 1699  37.759  37.256  11.706
36440W        W 1700   4.525  31.202   1.161
36441W        W 1701  39.586  27.894   0.985
36442W        W 1702  36.697  43.757   1.808
36443W        W 1703  28.080   8.765  13.127
36444W        W 1704  25.559   4.058  13.021
36445W        W 1705  42.269   2.503   2.291
36446W        W 1706  29.611  16.263  14.322
36447W        W 1707  44.678  38.431  14.438
36448W        W 1708  27.989  28.547   1.671
36449W        W 1709  13.142   9.394   4.143
36450W        W 1710  28.393  38.569  11.025
36451W        W 1711  30.062  15.919  10.666
36452W        W 1712  38.968   8.889  10.623
36453W        W 1713  25.098  43.653   2.223
36454W        W 1714  18.132   6.510  11.047
36455W        W 1715  38.618   9.884   1.847
36456W        W 1716  14.645  20.052   1.380
36457W        W 1717  14.145  38.015   4.544
36458W        W 1718  20.736  16.052  12.028
36459W        W 1719  20.239  37.240   3.712
36460W        W 1720  38.565  25.663   3.896
36461W        W 1721  23.155  14.978  13.445
36462W        W 1722  17.585  18.501   9.824
36463W        W 1723  31.901  42.067  10.681
36464W        W 1724  33.787  16.643  14.778
36465W        W 1725   0.405  28.059   2.238
36466W        W 1726  31.547  21.095  13.568
36467W        W 1727  29.684  29.967   0.809
36468W        W 1728  21.096  19.326   3.832
36469W        W 1729  25.956  24.106  12.688
36470W        W 1730  31.162   0.902   4.295
36471W        W 1731  30.556  42.919   0.861
36472W        W 1732   5.037  16.465  14.689
36473W        W 1733   0.053  37.505  14.292
36474W        W 1734   9.920  38.244   1.691
36475W        W 1735  38.825  31.358  12.493
36476W        W 1736  11.285  17.563   2.344
36477W        W 1737   4.484  25.728   1.932
36478W        W 1738  21.136   1.325  14.383
36479W        W 1739  27.993  32.293   0.006
36480W        W 1740   1.930  27.460   2.210
36481W        W 1741  40.980  14.227  12.526
36482W        W 1742  37.359  21.317  11.046
36483W        W 1743   9.437  17.306   4.984
36484W        W 1744  43.769   1.162  14.536
36485W        W 1745  27.971  27.315   2.389
36486W        W 1746  33.549   7.237  13.169
36487W        W 1747  12.389  35.352   1.694
36488W        W 1748  20.724   5.183   5.452
36489W        W 1749  17.347  11.114   1.780
36490W        W 1750  22.131  18.682   2.614
36491W        W 1751  20.581  43.487  13.972
36492W        W 1752   9.764   5.490  14.763
36493W        W 1753  23.804  13.085   5.166
36494W        W 1754   9.899  43.612  14.445
36495W        W 1755   8.368  38.454  13.251
36496W        W 1756  12.776  17.368   2.254
36497W        W 1757  37.863   3.196  13.140
36498W        W 1758  30.955  27.447   0.739
36499W        W 1759  11.626  32.112   2.230
36500W        W 1760  31.846   7.163   2.649
36501W        W 1761  37.997   5.940   0.796
36502W        W 1762  43.740   9.139  13.485
36503W        W 1763  39.562  32.404   2.769
36504W        W 1764  22.744  29.590  14.804
36505W        W 1765  36.340   7.658   3.342
36506W        W 1766   3.428  16.620   3.554
36507W        W 1767   5.955   6.158  13.331
36508W        W 1768  26.021  14.132   1.453
36509W        W 1769  15.711  13.736   0.337
36510W        W 1770  25.223  24.159   0.966
36511W        W 1771  33.159   9.165  11.169
36512W        W 1772  44.778  31.541   0.715
36513W        W 1773  32.148  22.493  10.645
36514W        W 1774  22.408  40.638   5.071
36515W        W 1775   1.465  30.079   1.719
36516W        W 1776  26.651  27.230   1.108
36517W        W 1777  10.414   6.300  13.610
36518W        W 1778  26.131   1.159  12.952
36519W        W 1779  39.238  27.912  13.638
36520W        W 1780  23.537  34.631   5.481
36521W        W 1781  42.270  30.941  13.075
36522W        W 1782  15.218  30.272  11.187
36523W        W 1783  25.032  24.470  11.454
36524W        W 1784  19.230  43.495   4.418
36525W        W 1785  12.122   2.754  11.650
36526W        W 1786  15.088  31.546  12.948
36527W        W 1787  18.777  26.313   2.312
36528W        W 1788   0.248   3.019  12.871
36529W        W 1789  23.413   7.353  10.285
36530W        W 1790   9.167   3.270  10.253
36531W        W 1791   2.183  15.002  10.939
36532W        W 1792  13.017  44.944   1.529
36533W        W 1793  23.080  37.075   3.553
36534W        W 1794  22.408  10.054   3.193
36535W        W 1795  10.625  20.280  10.655
36536W        W 1796  30.176  11.142   3.821
36537W        W 1797   1.103  43.444   2.295
36538W        W 1798  43.445   1.443   1.666
36539W        W 1799  38.590   3.974   0.212
36540W        W 1800  43.447  14.400  13.286
36541W        W 1801  29.966  32.573   3.572
36542W        W 1802   7.454  35.517  14.792
36543W        W 1803  42.479  28.121   1.704
36544W        W 1804  14.251  36.653   4.675
36545W        W 1805  41.872  27.158  10.890
36546W        W 1806  35.089  42.057  11.576
36547W        W 1807  14.694   0.444  14.899
36548W        W 1808  16.831  34.517  12.571
36549W        W 1809   3.620  44.916  13.991
36550W        W 1810  19.510  30.380  13.456
36551W        W 1811  23.187   4.343   3.794
36552W        W 1812  26.985  17.177   0.057
36553W        W 1813  32.458  16.697   4.545
36554W        W 1814   4.268  10.776  14.739
36555W        W 1815   5.421  29.491   0.810
36556W        W 1816  14.863   1.254  14.389
36557W        W 1817  38.044  21.353  11.550
36558W        W 1818  20.013  24.606  12.918
36559W        W 1819  26.149  25.040  11.576
36560W        W 1820  41.874  39.556  12.962
36561W        W 1821  35.116  22.669  12.995
36562W        W 1822   1.498  33.041  13.255
36563W        W 1823   2.263   9.584   0.802
36564W        W 1824   9.693  36.018   4.302
36565W        W 1825  36.405   8.791   4.103
36566W        W 1826  35.003  14.356   2.322
36567W        W 1827   0.754  43.962  11.146
36568W        W 1828   0.311  20.304   2.400
36569W        W 1829  23.908  30.377   3.341
36570W        W 1830  27.927  35.968  11.004
36571W        W 1831  23.642  15.871  14.552
36572W        W 1832  15.807  33.629   2.894
36573W        W 1833  15.854  18.203   2.306
36574W        W 1834  25.674  43.480  14.820
36575W        W 1835  36.956  13.203  10.739
36576W        W 1836  30.860   2.447   3.342
36577W        W 1837   7.823   1.243  10.664
36578W        W 1838  14.149  24.009  14.156
36579W        W 1839  12.185  30.118   1.646
36580W        W 1840  25.598  39.871  10.696
36581W        W 1841  31.739  35.882   2.768
36582W        W 1842   6.437  25.554   2.672
36583W        W 1843  20.258  13.697  14.942
36584W        W 1844  24.310  24.566   3.153
36585W        W 1845  37.482  29.039  10.465
36586W        W 1846  33.634  26.050   2.764
36587W        W 1847   2.335  34.529   0.971
36588W        W 1848   6.721   8.241   3.726
36589W        W 1849  12.214  40.908   4.694
36590W        W 1850  32.223  33.528   0.468
36591W        W 1851   8.472  16.041   3.731
36592W        W 1852  17.632  14.776   1.985
36593W        W 1853  21.011  16.991  11.080
36594W        W 1854  22.990  23.749  13.462
36595W        W 1855  18.715  24.052   0.843
36596W        W 1856  27.209  38.597   0.327
36597W        W 1857  10.012  27.962   5.047
36598W        W 1858  35.829  36.966   4.141
36599W        W 1859  17.296  18.200   0.201
36600W        W 1860  20.579  16.924  11.733
36601W        W 1861  41.295  43.823   0.756
36602W        W 1862  39.580  34.598   3.671
36603W        W 1863   7.471  30.795   4.157
36604W        W 1864  23.992   8.522   2.316
36605W        W 1865  30.116  17.237  14.440
36606W        W 1866   1.223   7.885   2.621
36607W        W 1867  21.600  26.922   3.109
36608W        W 1868  37.287  30.494  11.594
36609W        W 1869  22.550   9.125  10.747
36610W        W 1870   8.919  22.643  11.438
36611W        W 1871   1.670  32.213  14.955
36612W        W 1872  27.981  17.798  14.080
36613W        W 1873  19.213  21.639   3.384
36614W        W 1874  42.765  36.159   0.365
36615W        W 1875  22.066   2.387   4.541
36616W        W 1876  37.541  30.636   3.236
36617W        W 1877  40.916  23.699  12.002
36618W        W 1878  20.991   7.144  14.796
36619W        W 1879   9.530   9.645   4.302
36620W        W 1880  24.231  15.800  11.500
36621W        W 1881  30.987  25.876   0.743
36622W        W 1882  36.920  25.912   4.758
36623W        W 1883  35.761   3.294   4.272
36624W        W 1884   0.796  40.482   1.025
36625W        W 1885   0.872  40.028  13.704
36626W        W 1886   8.252  21.860   1.387
36627W        W 1887  35.889   0.901  12.102
36628W        W 1888   1.514  11.289  11.441
36629W        W 1889  17.343  10.565   1.768
36630W        W 1890  24.077  32.493  11.125
36631W        W 1891  17.735  13.818   0.978
36632W        W 1892  38.275   7.324  14.789
36633W        W 1893  27.546  20.106  13.553
36634W        W 1894  11.240  33.109  11.615
36635W        W 1895  12.801  43.462   4.462
36636W        W 1896   3.033  28.925   4.622
36637W        W 1897  18.176  17.435  11.757
36638W        W 1898  29.276  41.194  13.012
36639W        W 1899  12.146   0.382  11.464
36640W        W 1900  37.599  12.808   0.213
36641W        W 1901  17.146  28.334  10.302
36642W        W 1902  24.551  33.135  14.265
36643W        W 1903  10.357  29.576   1.204
36644W        W 1904   7.810  39.263  12.057
36645W        W 1905  24.366   7.337  14.810
36646W        W 1906   8.212   9.964  13.044
36647W        W 1907  28.129   8.508  11.919
36648W        W 1908   3.070  20.290   3.263
36649W        W 1909  31.817  30.651  11.212
36650W        W 1910  23.139  20.614  14.487
36651W        W 1911  38.048  17.505  14.784
36652W        W 1912  13.218  24.454  10.261
36653W        W 1913   9.680  28.944  14.195
36654W        W 1914  19.188  26.998  10.391
36655W        W 1915  44.395  16.703  14.512
36656W        W 1916  17.272   6.448  12.621
36657W        W 1917  40.486  44.451   2.069
36658W        W 1918  43.415  33.892  12.400
36659W        W 1919  26.581  11.189   2.238
36660W        W 1920  40.612  42.072   1.785
36661W        W 1921  43.291  21.054  11.405
36662W        W 1922  40.872  30.618   3.860
36663W        W 1923  38.277  10.548  14.578
36664W        W 1924  42.347  38.837  11.088
36665W        W 1925  16.800  28.682  12.418
36666W        W 1926  36.418  33.600   4.945
36667W        W 1927  14.143  38.748  14.224
36668W        W 1928  27.853  15.617   4.003
36669W        W 1929  12.582   9.940  14.918
36670W        W 1930   6.123  40.779  12.372
36671W        W 1931  24.005  34.550   0.983
36672W        W 1932  41.963  11.808  13.228
36673W        W 1933  21.060   1.993   2.226
36674W        W 1934  43.056  24.099  12.066
36675W        W 1935  23.536   1.333   0.890
36676W        W 1936   8.385   2.472   3.696
36677W        W 1937   7.445  30.666  14.400
36678W        W 1938  44.495  10.345  13.803
36679W        W 1939  10.213   9.029   3.824
36680W        W 1940  38.101   1.555  10.110
36681W        W 1941   4.197  15.410  14.305
36682W        W 1942  24.063   0.398  12.564
36683W        W 1943   2.663  16.341   4.070
36684W        W 1944   8.571  38.504   1.267
36685W        W 1945  35.318   4.602  12.830
36686W        W 1946  32.113  23.003   1.906
36687W        W 1947  24.262   3.815   2.677
36688W        W 1948  25.715  20.749   1.214
36689W        W 1949   8.079  43.745  13.022
36690W        W 1950  18.721  20.705  12.999
36691W        W 1951  20.261  29.220  13.001
36692W        W 1952  39.112   1.303  12.739
36693W        W 1953   0.349   6.235   1.836
36694W        W 1954  44.729  18.254  12.891
36695W        W 1955  16.538   2.340   2.362
36696W        W 1956  15.590  31.017  11.143
36697W        W 1957   8.181  40.449  11.839
36698W        W 1958  16.095   5.300  14.924
36699W        W 1959  26.778  35.956   1.833
36700W        W 1960  22.605  14.745   0.858
36701W        W 1961   7.861  31.945  14.529
36702W        W 1962  30.497  19.630   2.837
36703W        W 1963  41.040   6.805   0.433
36704W        W 1964  27.087  44.007  11.167
36705W        W 1965  15.872   8.786   3.272
36706W        W 1966  27.633  41.471  11.608
36707W        W 1967  22.143   4.505  14.429
36708W        W 1968  25.569  17.062  10.273
36709W        W 1969  31.567  38.505  12.744
36710W        W 1970   7.261  42.508  13.817
36711W        W 1971   9.312  37.150   3.871
36712W        W 1972  11.634  36.587  11.979
36713W        W 1973   9.706  41.318  12.779
36714W        W 1974  18.755  34.057  13.641
36715W        W 1975  34.626  21.749  12.224
36716W        W 1976   1.012   4.361  11.185
36717W        W 1977  15.372   4.474  12.485
36718W        W 1978  36.123   2.756   1.443
36719W        W 1979  11.601  10.262  13.246
36720W        W 1980  11.853   1.701  12.069
36721W        W 1981  33.914  14.850   0.934
36722W        W 1982  18.015  43.870   2.257
36723W        W 1983  37.703  17.491  13.521
36724W        W 1984   1.470  34.822   2.655
36725W        W 1985  27.585   2.555  11.481
36726W        W 1986  11.210  13.899  12.912
36727W        W 1987  28.854  15.276   2.450
36728W        W 1988  25.045  32.013  14.938
36729W        W 1989   6.447   7.884   2.782
36730W        W 1990   1.489  44.800   1.050
36731W        W 1991  44.319   7.273  10.360
36732W        W 1992  26.958   7.154   0.045
36733W        W 1993   6.478   3.667  14.280
36734W        W 1994   6.847  15.857   3.711
36735W        W 1995  12.229  10.231   2.607
36736W        W 1996   3.517  40.408   3.243
36737W        W 1997   2.192  16.348  13.987
36738W        W 1998  26.923  37.838   1.265
36739W        W 1999  34.641   8.554  10.306
36740W        W 2000   2.892  26.131   3.102
36741W        W 2001   3.894  11.794   1.441
36742W        W 2002  40.485  14.154  12.366
36743W        W 2003  42.236  29.572  11.201
36744W        W 2004  28.670  17.765   0.489
36745W        W 2005  15.347  38.102  14.637
36746W        W 2006   2.375  23.948   4.796
36747W        W 2007  28.836   2.380   4.842
36748W        W 2008  16.020  16.132   3.621
36749W        W 2009  38.302  11.319   3.257
36750W        W 2010  43.705  19.568   3.457
36751W        W 2011  28.026  33.224  11.905
36752W        W 2012  36.215  27.688   0.855
36753W        W 2013  37.360   5.447   1.716
36754W        W 2014   1.920  30.333  13.509
36755W        W 2015  23.254   0.990  10.428
36756W        W 2016  19.614  33.427   4.144
36757W        W 2017  22.684  34.343   5.437
36758W        W 2018  31.436  30.069  14.407
36759W        W 2019  43.518  27.256   0.306
36760W        W 2020  44.124  10.437   9.867
36761W        W 2021  28.564   6.796   2.838
36762W        W 2022  29.218  44.346  12.804
36763W        W 2023  27.674  43.904   2.302
36764W        W 2024  20.962  42.357  11.016
36765W        W 2025  39.047  23.301  11.509
36766W        W 2026   9.825  22.796  12.560
36767W        W 2027  26.270  38.154  12.916
36768W        W 2028  31.669  26.593   0.075
36769W        W 2029   8.759  37.264  12.039
36770W        W 2030   1.930  15.373   3.770
36771W        W 2031  25.593  16.273   3.170
36772W        W 2032  18.305   4.970  12.379
36773W        W 2033  26.986  13.104   4.135
36774W        W 2034  40.085  21.779  13.414
36775W        W 2035  36.450  10.408   2.108
36776W        W 2036  10.572  34.174   0.354
36777W        W 2037  13.297  29.454  11.581
36778W        W 2038   4.514  29.774   1.258
36779W        W 2039  24.730  22.320  14.354
36780W        W 2040   0.403  21.313   0.319
36781W        W 2041  11.102  43.815  13.966
36782W        W 2042  21.243  18.019  13.876
36783W        W 2043  28.733  19.537  12.397
36784W        W 2044  14.010  32.086   2.376
36785W        W 2045  21.449  43.251   1.137
36786W        W 2046  26.029   4.108   1.188
36787W        W 2047   0.776  17.374  12.046
36788W        W 2048  34.537   9.024   0.371
36789W        W 2049  23.223  12.883   2.213
36790W        W 2050  28.695  29.357   4.664
36791W        W 2051  32.446  29.114   3.169
36792W        W 2052   8.706   4.682  11.985
36793W        W 2053  38.574  23.492  11.597
36794W        W 2054  44.947   4.950   0.982
36795W        W 2055  31.278  28.546  10.726
36796W        W 2056  21.466   0.012   0.270
36797W        W 2057  39.577  21.746   4.891
36798W        W 2058  11.348   9.723   4.541
36799W        W 2059  15.046   6.427  10.324
36800W        W 2060  24.056   7.883  14.699
36801W        W 2061  13.804  37.060   2.736
36802W        W 2062  38.292  41.968   0.856
36803W        W 2063  28.032  37.380   2.404
36804W        W 2064  18.043  18.223  11.107
36805W        W 2065   9.900  38.603   0.552
36806W        W 2066  44.769  27.131  13.981
36807W        W 2067   6.981   8.107   3.209
36808W        W 2068   0.903   8.860   2.286
36809W        W 2069   7.144  30.965   1.257
36810W        W 2070  27.058  37.817   2.621
36811W        W 2071  14.377   7.148  14.465
36812W        W 2072  31.696  19.575   4.598
36813W        W 2073  21.978  29.460  11.209
36814W        W 2074  13.181  41.422   2.459
36815W        W 2075   5.118   5.967   4.995
36816W        W 2076   3.015   1.762  13.324
36817W        W 2077  40.397  28.866   4.609
36818W        W 2078  16.137  30.968  14.488
36819W        W 2079   9.144  13.709  11.566
36820W        W 2080  14.322  19.126  14.039
36821W        W 2081  32.177   6.815   2.419
36822W        W 2082  12.384  24.637   3.128
36823W        W 2083   3.159  30.197  13.267
36824W        W 2084  16.377   1.311  14.512
36825W        W 2085  36.627  13.826  11.586
36826W        W 2086   8.650  22.476   1.425
36827W        W 2087  44.768   9.468   0.146
36828W        W 2088  23.920  43.714  12.970
36829W        W 2089   7.585  31.457   2.402
36830W        W 2090   1.289   1.272   2.854
36831W        W 2091   5.493  37.051  14.262
36832W        W 2092  29.517  42.512  10.476
36833W        W 2093  39.218  33.399   4.239
36834W        W 2094  37.277   0.909   2.318
36835W        W 2095  21.113  39.334   2.251
36836W        W 2096  28.078  16.314  10.171
36837W        W 2097  33.164  39.226  10.372
36838W        W 2098  16.126  40.056  14.533
36839W        W 2099  25.133  43.226  14.884
36840W        W 2100   6.440   5.601   3.520
36841W        W 2101   5.726  29.531  12.353
36842W        W 2102   2.990  30.887   1.280
36843W        W 2103   2.505  33.021   0.508
36844W        W 2104   3.363  20.690   3.047
36845W        W 2105  41.368  43.737   0.267
36846W        W 2106   9.997  36.858   5.037
36847W        W 2107   8.493  34.227   2.825
36848W        W 2108   8.948  17.015  11.903
36849W        W 2109  10.891  21.568  10.943
36850W        W 2110  21.175  12.609   2.571
36851W        W 2111   0.929  34.367   3.648
36852W        W 2112  12.255  10.152   2.090
36853W        W 2113  24.238  32.976   0.366
36854W        W 2114  33.321  29.799  10.350
36855W        W 2115  20.291  22.191   4.644
36856W        W 2116   7.152  27.161   9.785
36857W        W 2117   5.830   5.253   4.207
36858W        W 2118  31.304  17.015  12.997
36859W        W 2119  17.333   6.709   2.709
36860W        W 2120  22.825  28.033   3.304
36861W        W 2121  33.028  43.506  13.058
36862W        W 2122  16.116   4.324  11.860
36863W        W 2123  29.232  38.960   1.270
36864W        W 2124   7.785   4.157  13.012
36865W        W 2125  14.504  26.049   3.724
36866W        W 2126  43.945  10.094  14.890
36867W        W 2127  43.016   4.767   3.080
36868W        W 2128  34.907  13.884   0.666
36869W        W 2129   2.478   1.598   4.181
36870W        W 2130  43.031  39.883  13.249
36871W        W 2131   8.121   1.827   2.362
36872W        W 2132  30.428  17.152   0.810
36873W        W 2133   1.159  31.500  10.672
36874W        W 2134   3.480  15.648   0.895
36875W        W 2135  18.000   1.428   1.899
36876W        W 2136   4.307   1.739  12.952
36877W        W 2137  20.078  16.189  10.531
36878W        W 2138   8.242  25.543  11.610
36879W        W 2139  11.336  16.093   3.207
36880W        W 2140  24.028  28.474   2.361
36881W        W 2141  13.192  27.675   4.654
36882W        W 2142  30.345  37.694  11.734
36883W        W 2143   9.387  19.052  12.972
36884W        W 2144  11.163  38.783  12.069
36885W        W 2145  24.715   8.247   9.732
36886W        W 2146   8.733  19.342  10.741
36887W        W 2147  22.670  24.739   4.013
36888W        W 2148  35.342  22.598   3.184
36889W        W 2149  12.427  10.362  10.599
36890W        W 2150  18.483  36.036  11.118
36891W        W 2151   0.307  17.266  10.405
36892W        W 2152  33.951  18.903   1.270
36893W        W 2153  18.269  23.520   2.429
36894W        W 2154  11.087   3.450  10.319
36895W        W 2155  25.675  41.992   0.027
36896W        W 2156   1.843  39.288  12.709
36897W        W 2157  10.750  29.106   4.664
36898W        W 2158  44.487  40.495   5.148
36899W        W 2159  15.592  24.145  11.164
36900W        W 2160   2.400  40.526  12.210
36901W        W 2161  11.163   4.306   1.444
36902W        W 2162   7.738  44.345  10.590
36903W        W 2163  10.812  29.597   3.797
36904W        W 2164   9.554  35.274   9.915
36905W        W 2165  28.640  13.397  12.597
36906W        W 2166  25.575  22.504  14.460
36907W        W 2167  42.778  18.862   0.745
36908W        W 2168  31.330   3.393  14.878
36909W        W 2169  13.701  14.513   0.899
36910W        W 2170  30.654   2.849   3.763
36911W        W 2171  41.499  15.406   0.274
36912W        W 2172  36.498  10.570   4.125
36913W        W 2173  30.217  39.891   0.863
36914W        W 2174  22.158  16.963   4.139
36915W        W 2175   2.104  29.187  12.203
36916W        W 2176  36.592  41.519   4.157
36917W        W 2177  28.610  18.036  14.812
36918W        W 2178  31.930   0.291   2.253
36919W        W 2179   5.493  31.792   3.762
36920W        W 2180   4.654  23.594  12.475
36921W        W 2181  21.740  41.218  13.558
36922W        W 2182  35.069  31.285   2.303
36923W        W 2183  31.675  29.418  12.416
36924W        W 2184  38.960  12.832  11.087
36925W        W 2185  33.401  22.984   1.280
36926W        W 2186   5.996  30.439   0.695
36927W        W 2187  42.408  26.929  12.118
36928W        W 2188  40.802  41.653  14.917
36929W        W 2189  31.104   4.866  11.477
36930W        W 2190  33.128  41.459  14.477
36931W        W 2191  26.445  23.094  14.471
36932W        W 2192  39.837  13.789   4.396
36933W        W 2193  12.790  42.450  12.549
36934W        W 2194  20.112  30.942   4.160
36935W        W 2195  16.950   1.760   4.901
36936W        W 2196  19.706  21.998  12.527
36937W        W 2197   7.411  20.794   3.588
36938W        W 2198  11.854  36.793  13.913
36939W        W 2199  26.050  42.900   2.909
36940W        W 2200   1.988   5.329   4.632
36941W        W 2201  27.379  22.869  11.460
36942W        W 2202  36.269  33.861   0.156
36943W        W 2203  21.726  12.748   1.229
36944W        W 2204  23.523  30.527  13.264
36945W        W 2205  15.837   3.445   4.212
36946W        W 2206   4.216  23.284   2.294
36947W        W 2207  32.823  24.485  13.358
36948W        W 2208  14.786  32.419   3.701
36949W        W 2209  31.163  30.030  11.158
36950W        W 2210  33.399   1.424   0.266
36951W        W 2211  31.631  36.173  14.089
36952W        W 2212  33.998  26.205   1.882
36953W        W 2213  15.607  15.204  11.415
36954W        W 2214  41.844   0.451  12.986
36955W        W 2215  22.137  26.091   2.094
36956W        W 2216  22.171   6.656  12.851
36957W        W 2217  20.752   3.349  10.912
36958W        W 2218  38.809  30.972   3.650
36959W        W 2219  22.194  27.926   2.359
36960W        W 2220  43.838  23.007   2.763
36961W        W 2221  17.523   3.378   2.770
36962W        W 2222  35.367  32.167  12.423
36963W        W 2223   4.969  41.400   0.423
36964W        W 2224   0.174  39.936  12.787
36965W        W 2225  17.068  40.285   1.493
36966W        W 2226   9.652  37.828   4.653
36967W        W 2227  44.149  13.221   1.194
36968W        W 2228   9.343   3.670  14.837
36969W        W 2229  31.458  37.372  10.667
36970W        W 2230  35.823   6.385  12.172
36971W        W 2231  30.541  44.508  13.760
36972W        W 2232   9.622  15.131   1.885
36973W        W 2233  37.703   1.904  14.064
36974W        W 2234  26.356  22.176  12.887
36975W        W 2235  34.503  31.343  13.337
36976W        W 2236  33.410  41.021  10.364
36977W        W 2237  21.215  38.296  14.264
36978W        W 2238  21.722  35.954  12.373
36979W        W 2239  20.363  24.154   0.422
36980W        W 2240   4.354  41.087   4.170
36981W        W 2241  23.670  11.117  12.053
36982W        W 2242  25.958   5.190   4.549
36983W        W 2243  32.996  39.871  14.490
36984W        W 2244  26.176   6.840  10.976
36985W        W 2245  18.216  40.409   3.400
36986W        W 2246  29.059  32.670  13.132
36987W        W 2247   2.702  15.565   0.261
36988W        W 2248   1.960   6.336   4.224
36989W        W 2249   8.447  17.038   4.223
36990W        W 2250  14.448  32.118  13.642
36991W        W 2251  20.238  11.400  12.021
36992W        W 2252  32.968   9.118  14.832
36993W        W 2253  14.712   5.517  13.845
36994W        W 2254  43.890  17.855   3.760
36995W        W 2255  31.701  22.457   4.819
36996W        W 2256  22.147   1.306   3.634
36997W        W 2257  11.146  21.522  13.239
36998W        W 2258  35.596  27.571   4.065
36999W        W 2259  33.636  21.065   3.139
37000W        W 2260  28.975  30.793   0.873
37001W        W 2261   1.838  44.291   3.786
37002W        W 2262  25.737  16.285   2.614
37003W        W 2263   1.086  26.301   0.376
37004W        W 2264  22.680  13.440  14.432
37005W        W 2265  27.308  17.189  12.371
37006W        W 2266  14.214   0.532   1.278
37007W        W 2267   7.508  16.189  13.586
37008W        W 2268  32.161  24.198   3.372
37009W        W 2269  22.633   5.440   3.217
37010W        W 2270   1.945   4.448   0.737
37011W        W 2271  13.193  39.559  13.431
37012W        W 2272   8.152   5.902  12.453
37013W        W 2273  26.642  16.289   3.797
37014W        W 2274  40.492  40.835  13.925
37015W        W 2275  21.499  20.563   0.833
37016W        W 2276  41.498  41.472  12.984
37017W        W 2277  30.828   1.164   1.695
37018W        W 2278  19.056  42.287   4.805
37019W        W 2279  30.930  39.732  12.542
37020W        W 2280  41.374  16.040   3.884
37021W        W 2281  31.283  36.651  13.855
37022W        W 2282  36.493   2.996   0.493
37023W        W 2283  41.915  42.690   5.083
37024W        W 2284  37.969  21.739  14.216
37025W        W 2285  16.301  41.344  10.960
37026W        W 2286   6.048  19.400   4.613
37027W        W 2287   6.219  38.299   1.425
37028W        W 2288  36.440  43.004   2.227
37029W        W 2289  12.829  18.070   2.861
37030W        W 2290  36.754  10.384   0.756
37031W        W 2291  27.221  39.379   2.812
37032W        W 2292  25.955  31.400  11.145
37033W        W 2293  23.909  39.974  12.471
37034W        W 2294  18.037  44.944   4.645
37035W        W 2295  41.300   8.883   4.986
37036W        W 2296  40.384  35.147  11.118
37037W        W 2297  38.412   1.940  12.869
37038W        W 2298  15.030   4.984   2.743
37039W        W 2299  41.251  24.773  13.952
37040W        W 2300  17.845  39.104   4.123
37041W        W 2301  31.343  33.002  11.523
37042W        W 2302  25.864   9.465   0.831
37043W        W 2303  13.741  16.464   3.695
37044W        W 2304   2.371  41.397   3.733
37045W        W 2305  34.901  36.891   4.125
37046W        W 2306  24.539  11.688   1.665
37047W        W 2307  10.332   9.796   0.693
37048W        W 2308  19.293  44.865   4.206
37049W        W 2309  12.835  42.859   0.169
37050W        W 2310   1.955  24.974   3.231
37051W        W 2311  39.212  30.332   2.141
37052W        W 2312   8.226  26.548   0.145
37053W        W 2313  16.106  13.161   2.332
37054W        W 2314  30.587   9.865  13.988
37055W        W 2315  28.186   8.949  10.554
37056W        W 2316  13.496  23.840  11.547
37057W        W 2317  18.706  29.061  14.433
37058W        W 2318   4.901  34.395  12.504
37059W        W 2319  44.984   9.731  12.311
37060W        W 2320  17.779  20.023   0.439
37061W        W 2321   6.455  19.169   0.860
37062W        W 2322  26.000   9.729  12.362
37063W        W 2323  40.789  23.356   4.169
37064W        W 2324  33.572  32.832  13.417
37065W        W 2325  20.478  43.867  14.641
37066W        W 2326  43.779  12.185   1.426
37067W        W 2327  41.534  42.949  11.574
37068W        W 2328  26.576  31.091   4.355
37069W        W 2329  14.129  44.499   2.205
37070W        W 2330  24.877  33.946  14.132
37071W        W 2331   6.713  41.977   0.712
37072W        W 2332   6.948  43.828  10.674
37073W        W 2333  26.244  28.264  13.506
37074W        W 2334  18.131  19.407  12.841
37075W        W 2335  26.563  34.454  14.501
37076W        W 2336  26.571  30.808  10.966
37077W        W 2337  36.367  39.515   2.296
37078W        W 2338  18.262  20.693   3.992
37079W        W 2339   8.751  39.794   4.214
37080W        W 2340  19.093  10.766  11.029
37081W        W 2341  22.924  31.994   4.237
37082W        W 2342  15.088  30.665  14.450
37083W        W 2343  35.508   4.945   1.907
37084W        W 2344  26.994  42.261  13.499
37085W        W 2345  29.024  43.272  14.766
37086W        W 2346  15.974   9.611   1.718
37087W        W 2347  37.473  20.379  11.047
37088W        W 2348   7.744  20.743  14.828
37089W        W 2349  29.062  25.690  11.197
37090W        W 2350  38.802  25.204   3.718
37091W        W 2351  32.328  42.806  11.219
37092W        W 2352  38.185  20.624  10.602
37093W        W 2353   0.365  18.291   3.622
37094W        W 2354   1.403   7.414   2.739
37095W        W 2355  29.433  21.894  12.437
37096W        W 2356  33.404   6.725   3.246
37097W        W 2357  43.837  18.764   1.773
37098W        W 2358  44.515  11.203   0.494
37099W        W 2359  11.380   0.311  13.652
37100W        W 2360  44.082  42.009   2.638
37101W        W 2361  42.655  11.882   3.228
37102W        W 2362  44.421  34.920   0.389
37103W        W 2363   2.510  34.398   1.415
37104W        W 2364  12.889  29.414  12.826
37105W        W 2365  26.102  11.599   1.333
37106W        W 2366  12.621  33.968  12.834
37107W        W 2367  31.129  32.425  14.056
37108W        W 2368  26.613   2.920  11.323
37109W        W 2369  16.905  10.874   2.591
37110W        W 2370  36.552  35.916  11.925
37111W        W 2371  27.209  34.011   4.642
37112W        W 2372  39.823   7.731   2.804
37113W        W 2373  31.197  13.432   1.218
37114W        W 2374  31.098  28.665  11.193
37115W        W 2375  30.298  26.478   3.685
37116W        W 2376  28.541  19.042   3.183
37117W        W 2377  29.930  41.054   0.328
37118W        W 2378  30.742  44.788   4.692
37119W        W 2379  42.827  35.987  10.879
37120W        W 2380  16.641  19.781  14.041
37121W        W 2381  27.409  13.615  14.399
37122W        W 2382  14.207   6.448   1.656
37123W        W 2383  20.203   2.569   2.738
37124W        W 2384  41.923  19.996  12.909
37125W        W 2385  19.202   8.589   0.371
37126W        W 2386   9.915  13.693  14.859
37127W        W 2387  37.378  11.998   4.215
37128W        W 2388  28.564  31.057  13.348
37129W        W 2389  16.042  23.051  12.471
37130W        W 2390  36.729  19.044  14.390
37131W        W 2391  43.578  21.087  12.436
37132W        W 2392  18.786   4.719  13.190
37133W        W 2393   8.219  19.684   2.238
37134W        W 2394  12.628  27.176  12.033
37135W        W 2395  42.723  28.762   0.991
37136W        W 2396  16.817  33.546   2.683
37137W        W 2397   2.777  33.694   4.361
37138W        W 2398  41.510  25.288   1.802
37139W        W 2399  42.542  38.515  14.307
37140W        W 2400   8.110  10.835  11.028
37141W        W 2401   8.366   6.568  11.328
37142W        W 2402  12.164  42.245   2.728
37143W        W 2403  22.028  20.565   0.797
37144W        W 2404  23.112  42.245  13.432
37145W        W 2405  31.215  44.302  13.083
37146W        W 2406  10.822  15.902  14.424
37147W        W 2407  21.273  39.782   3.413
37148W        W 2408   6.601  42.478   0.776
37149W        W 2409  33.970  26.748   3.457
37150W        W 2410  12.561  24.928  12.845
37151W        W 2411   7.860  35.035   2.774
37152W        W 2412  37.626  20.414   3.031
37153W        W 2413  13.893  11.115  12.966
37154W        W 2414  19.711  18.157   0.352
37155W        W 2415  34.317   5.726  10.629
37156W        W 2416  10.642  40.443  13.946
37157W        W 2417  18.976  11.531  11.632
37158W        W 2418   7.243  30.635   4.940
37159W        W 2419  39.452  20.069  13.933
37160W        W 2420  36.989   2.062  12.146
37161W        W 2421  41.927   5.012  13.801
37162W        W 2422  14.633  11.486  13.558
37163W        W 2423   5.428  26.935  10.237
37164W        W 2424  11.780   3.868   2.823
37165W        W 2425  19.576   4.827  13.896
37166W        W 2426   9.125   9.699   3.275
37167W        W 2427  43.727  38.869  11.975
37168W        W 2428  22.582  32.961  13.449
37169W        W 2429  25.936  16.685   4.051
37170W        W 2430   8.158  35.715   3.728
37171W        W 2431  20.050  29.715   3.203
37172W        W 2432  16.867  30.993   2.713
37173W        W 2433  20.113  33.022  12.829
37174W        W 2434  29.922  41.344   2.581
37175W        W 2435  24.702   0.863  14.134
37176W        W 2436  44.166  22.073   2.635
37177W        W 2437  27.713   4.690   4.145
37178W        W 2438  40.004  18.794  11.612
37179W        W 2439  31.084  32.910  10.666
37180W        W 2440  38.040   5.885  12.134
37181W        W 2441  11.564  39.210  13.876
37182W        W 2442  19.610  26.671   1.830
37183W        W 2443  22.075   7.650  11.231
37184W        W 2444   5.236  42.286   4.806
37185W        W 2445   9.872  27.094   2.627
37186W        W 2446  34.568  22.510  14.072
37187W        W 2447  32.427  29.928   1.177
37188W        W 2448  37.206   3.431  12.127
37189W        W 2449  39.453  26.283  12.068
37190W        W 2450  26.399  25.581   4.130
37191W        W 2451  19.952  44.463  13.726
37192W        W 2452  29.136  31.507   1.804
37193W        W 2453  27.008  28.201  13.464
37194W        W 2454  44.466  44.970   2.220
37195W        W 2455  20.781  17.342   4.247
37196W        W 2456  35.020  31.841  14.439
37197W        W 2457   8.379   2.001   0.917
37198W        W 2458  12.799   6.482  12.581
37199W        W 2459  25.982  34.959  13.382
37200W        W 2460  28.081  12.857   3.223
37201W        W 2461  41.703  33.499  10.877
37202W        W 2462  32.869   0.794  13.388
37203W        W 2463  35.971  19.546  12.932
37204W        W 2464  18.091  30.116   1.928
37205W        W 2465  13.261  35.669  14.299
37206W        W 2466  26.150  33.676   0.756
37207W        W 2467   2.740  19.271  12.050
37208W        W 2468  20.709   0.201  12.057
37209W        W 2469  30.645  36.904  13.326
37210W        W 2470  33.582   3.916   0.046
37211W        W 2471  14.239  19.041  12.883
37212W        W 2472  41.885  35.556  13.749
37213W        W 2473  30.862  14.870  12.410
37214W        W 2474  38.593  10.122   1.373
37215W        W 2475  10.689  14.811  13.769
37216W        W 2476  20.097   7.934   3.353
37217W        W 2477  13.312  15.578   1.369
37218W        W 2478  44.911  27.217  11.621
37219W        W 2479   5.262  34.661   0.495
37220W        W 2480  32.783  30.595  10.976
37221W        W 2481  41.364  18.789  14.968
37222W        W 2482  27.307  15.184   2.311
37223W        W 2483  38.421   1.764  14.795
37224W        W 2484   3.718  23.675  12.452
37225W        W 2485   2.314  20.451   3.005
37226W        W 2486  26.941  35.281   0.818
37227W        W 2487  11.096   4.788   4.631
37228W        W 2488  28.042   5.907   3.572
37229W        W 2489   0.903  41.528  11.513
37230W        W 2490  29.561  25.111   1.277
37231W        W 2491   2.099  36.720   2.456
37232W        W 2492  21.614   5.296   2.277
37233W        W 2493   2.792   4.867   1.705
37234W        W 2494   4.364  35.938  13.526
37235W        W 2495  16.758  15.791  14.791
37236W        W 2496  25.930  36.964  12.792
37237W        W 2497  42.465   0.241   2.633
37238W        W 2498  38.178  28.475  12.670
37239W        W 2499   9.381  41.582   1.741
37240W        W 2500  15.212  13.749  14.527
37241W        W 2501  28.789  19.207  11.180
37242W        W 2502  25.706  44.161   0.755
37243W        W 2503  44.836  17.252  11.192
37244W        W 2504   6.382  10.026  11.908
37245W        W 2505  37.546  34.475   4.826
37246W        W 2506   7.201  42.459   1.609
37247W        W 2507  27.072  36.335   3.902
37248W        W 2508  12.061  30.442  13.961
37249W        W 2509  39.338   4.280   4.503
37250W        W 2510   9.600  40.061   2.246
37251W        W 2511  25.436  12.926  13.356
37252W        W 2512  21.137  40.762  14.920
37253W        W 2513  30.269  33.306   0.465
37254W        W 2514  44.454  34.641   1.855
37255W        W 2515  25.773  35.560   9.808
37256W        W 2516  30.383   9.151  13.127
37257W        W 2517  31.032  22.112  12.574
37258W        W 2518   1.316  12.302   0.955
37259W        W 2519  11.364   0.019  14.580
37260W        W 2520  32.721  13.701  13.802
37261W        W 2521  19.657   7.164  14.963
37262W        W 2522   4.072  22.773  11.560
37263W        W 2523  41.403  19.560  13.255
37264W        W 2524  18.904   7.840   4.453
37265W        W 2525  38.304  22.197   4.564
37266W        W 2526   5.740  11.042  11.121
37267W        W 2527  31.101  26.528  13.745
37268W        W 2528   7.330  25.525   0.536
37269W        W 2529  43.303   1.788  12.940
37270W        W 2530   6.750  17.381  13.467
37271W        W 2531  11.680  42.245  10.642
37272W        W 2532  40.237  29.631   4.063
37273W        W 2533   0.900  15.365   2.150
37274W        W 2534  25.130  36.411   2.610
37275W        W 2535  11.298  44.453   1.686
37276W        W 2536  43.764   0.332   3.175
37277W        W 2537  30.693  19.740   0.316
37278W        W 2538  17.371  12.618   3.150
37279W        W 2539   0.217  41.764  11.066
37280W        W 2540   2.909  37.078   1.118
37281W        W 2541   1.258  42.892   4.613
37282W        W 2542   5.392   8.119   1.375
37283W        W 2543   5.363  35.533   4.741
37284W        W 2544  14.133  11.031  12.450
37285W        W 2545  32.993  27.935  11.144
37286W        W 2546   0.983  11.485   3.072
37287W        W 2547  30.916  19.947   2.679
37288W        W 2548   8.422   8.295   3.569
37289W        W 2549   6.782  33.833   3.649
37290W        W 2550   1.788  16.150   3.134
37291W        W 2551   6.249   5.474   4.960
37292W        W 2552   6.542  14.760  14.119
37293W        W 2553  14.371  26.569   3.639
37294W        W 2554   7.449   5.752  12.958
37295W        W 2555  14.742  40.884  11.571
37296W        W 2556  13.242  40.801   4.201
37297W        W 2557  20.741  10.799  13.979
37298W        W 2558  29.693  44.305  14.711
37299W        W 2559  31.568   8.875  11.538
37300W        W 2560   3.333  36.951  12.259
37301W        W 2561   2.745  44.242  14.486
37302W        W 2562   6.454  19.457  10.352
37303W        W 2563  17.719   6.186   3.335
37304W        W 2564  26.698  44.344  13.975
37305W        W 2565  25.907  40.757  12.479
37306W        W 2566  35.568  30.166   0.048
37307W        W 2567   6.333  39.026  12.997
37308W        W 2568  21.107  12.527  12.885
37309W        W 2569  16.782  13.090  12.693
37310W        W 2570  42.711  33.329  11.141
37311W        W 2571   1.306  32.471  12.120
37312W        W 2572  24.606  44.306   3.212
37313W        W 2573  10.156  28.756  14.037
37314W        W 2574  39.263  22.509  13.804
37315W        W 2575   0.885   8.911   4.093
37316W        W 2576  42.979   8.839  12.288
37317W        W 2577  21.749  13.986   0.467
37318W        W 2578  29.691  19.197   1.417
37319W        W 2579  35.478  21.757   2.772
37320W        W 2580  22.516  28.947   3.780
37321W        W 2581  33.947  24.786   0.662
37322W        W 2582  33.104  38.312   3.851
37323W        W 2583  27.402   7.704  12.787
37324W        W 2584  37.556  27.183  14.024
37325W        W 2585   4.003  42.844  11.560
37326W        W 2586  24.855  36.037  13.607
37327W        W 2587  42.309  29.695   3.303
37328W        W 2588  10.893  20.770   4.361
37329W        W 2589  41.972  15.750   2.309
37330W        W 2590  30.399  12.773  12.795
37331W        W 2591  29.106  12.251   2.777
37332W        W 2592   6.577  42.486  12.730
37333W        W 2593  14.620  23.833   1.504
37334W        W 2594  17.791  25.252   1.905
37335W        W 2595  25.205  12.099   1.369
37336W        W 2596  43.311  37.786   1.807
37337W        W 2597   4.844  13.214   0.781
37338W        W 2598  33.531  13.280   4.716
37339W        W 2599  36.438  18.974  11.761
37340W        W 2600  35.505  13.267   4.098
37341W        W 2601   2.358  44.902  14.895
37342W        W 2602   8.894   9.086  14.107
37343W        W 2603  24.446   1.353  13.426
37344W        W 2604  12.247  21.608  11.300
37345W        W 2605  34.897  20.050  14.516
37346W        W 2606  22.041  26.762   4.924
37347W        W 2607  40.587  25.064   0.919
37348W        W 2608  42.510  12.574   2.650
37349W        W 2609  43.747  27.156  14.857
37350W        W 2610  34.686   2.911   4.651
37351W        W 2611   0.333  21.251  12.860
37352W        W 2612  26.374  14.302   3.744
37353W        W 2613  26.041  20.839   0.782
37354W        W 2614  37.398  18.163   2.370
37355W        W 2615  30.484  16.330  12.427
37356W        W 2616  26.595   8.932   2.577
37357W        W 2617  10.243  36.356   3.082
37358W        W 2618  16.729  26.047  11.638
37359W        W 2619  20.990  34.016   3.117
37360W        W 2620  24.277  36.445   1.440
37361W        W 2621  20.420   9.706  14.621
37362W        W 2622  43.406  41.271   0.759
37363W        W 2623  15.232  10.206   0.931
37364W        W 2624  12.503  28.124   4.970
37365W        W 2625  31.388  15.766   0.759
37366W        W 2626  37.648  40.701  10.819
37367W        W 2627  43.359  28.775   1.404
37368W        W 2628  30.921  33.114  13.797
37369W        W 2629  39.631  22.795  12.539
37370W        W 2630  44.521   2.139   1.964
37371W        W 2631  19.485  22.473  12.027
37372W        W 2632  25.283   8.638   0.499
37373W        W 2633   9.339  31.607   1.643
37374W        W 2634  42.739  26.167   1.797
37375W        W 2635  21.755  37.550   2.487
37376W        W 2636  30.119  16.608  13.799
37377W        W 2637  12.775  40.935  13.821
37378W        W 2638  39.534  16.189  13.596
37379W        W 2639  23.214  33.490  12.620
37380W        W 2640  37.873  28.116   1.394
37381W        W 2641   1.128  12.728  14.936
37382W        W 2642  31.872   0.835  11.086
37383W        W 2643  35.613  16.822   0.511
37384W        W 2644   4.308  33.041   4.675
37385W        W 2645  30.376  41.810   3.206
37386W        W 2646  25.223  42.344   3.707
37387W        W 2647  41.941  41.350   0.230
37388W        W 2648  42.473  14.455  14.923
37389W        W 2649   2.851  35.587   0.251
37390W        W 2650  43.925   7.344  12.132
37391W        W 2651   2.197  28.380  13.827
37392W        W 2652  26.000  33.109   1.443
37393W        W 2653  39.041  32.315   2.786
37394W        W 2654   5.733  29.469  10.587
37395W        W 2655   4.178   4.720   2.228
37396W        W 2656  12.373  17.559   3.570
37397W        W 2657  34.987   8.189   2.384
37398W        W 2658  30.978  11.923  10.555
37399W        W 2659  17.213   8.750   4.621
37400W        W 2660  21.218  19.202   2.407
37401W        W 2661  18.640  13.206   4.244
37402W        W 2662  25.106  39.910   1.516
37403W        W 2663  34.358   5.161   1.837
37404W        W 2664  42.484   6.273   2.110
37405W        W 2665  15.655   0.424   3.776
37406W        W 2666  35.686   0.063   3.215
37407W        W 2667  32.395  41.364   0.473
37408W        W 2668  11.921   0.286   4.779
37409W        W 2669  14.366  26.063  14.069
37410W        W 2670  30.700  18.818   2.295
37411W        W 2671  10.359  21.717   3.643
37412W        W 2672  25.955  23.500  11.227
37413W        W 2673  40.499  10.838  11.139
37414W        W 2674   4.348  18.539   2.298
37415W        W 2675  37.058  31.082   3.213
37416W        W 2676   4.274  25.598  14.953
37417W        W 2677  20.223  36.879   1.373
37418W        W 2678  28.900   2.283  10.716
37419W        W 2679   2.529  19.597   3.562
37420W        W 2680  35.968  25.057  10.660
37421W        W 2681  21.561   2.141   4.621
37422W        W 2682  29.619  12.819  14.407
37423W        W 2683  36.675  17.005  14.917
37424W        W 2684  42.232  32.322  11.007
37425W        W 2685  23.749   1.350   0.069
37426W        W 2686  17.335  35.517  10.866
37427W        W 2687  15.397   8.221   4.656
37428W        W 2688  20.496  16.291   1.400
37429W        W 2689  12.208  12.805  10.836
37430W        W 2690   5.970  10.333  10.623
37431W        W 2691  39.972  25.565  11.912
37432W        W 2692  13.683  27.125  11.804
37433W        W 2693  11.277  19.691   2.580
37434W        W 2694  20.028  40.632  10.071
37435W        W 2695  35.883   6.953   1.301
37436W        W 2696  26.447  31.402   2.730
37437W        W 2697  17.383   4.761   0.872
37438W        W 2698  28.937  12.061  12.907
37439W        W 2699  13.458  16.177  10.845
37440W        W 2700  31.131   4.260  13.460
37441W        W 2701  10.729   1.953  10.617
37442W        W 2702  42.006  23.697  14.971
37443W        W 2703  34.474  38.553  14.020
37444W        W 2704   5.090   2.695   1.274
37445W        W 2705  33.822  42.436   3.679
37446W        W 2706  11.168   5.250   1.280
37447W        W 2707  22.538  44.964   3.749
37448W        W 2708  20.599  20.161   3.583
37449W        W 2709  24.592   2.757  11.353
37450W        W 2710  29.644  20.413   3.123
37451W        W 2711  31.413  33.986  14.095
37452W        W 2712  18.784  30.950  11.337
37453W        W 2713  18.765  13.189  14.878
37454W        W 2714  43.501  23.909   1.638
37455W        W 2715   6.772  13.784   0.866
37456W        W 2716  34.926  26.095  13.067
37457W        W 2717   2.978  34.140   4.067
37458W        W 2718   2.760  31.310  11.216
37459W        W 2719  33.352  35.813  14.501
37460W        W 2720   3.724  44.085  14.864
37461W        W 2721   0.875  22.529  10.679
37462W        W 2722  17.809  10.324  12.920
37463W        W 2723   8.392  31.743   3.671
37464W        W 2724  31.583  11.177   2.786
37465W        W 2725  35.435  18.760  12.116
37466W        W 2726  15.728  34.088   3.866
37467W        W 2727  25.592  24.661   0.295
37468W        W 2728  41.464   6.787   3.202
37469W        W 2729  32.329  14.150  10.888
37470W        W 2730  21.424  15.695  14.883
37471W        W 2731  27.678   1.195  14.946
37472W        W 2732  11.234  27.475  12.079
37473W        W 2733  26.954  12.784  11.962
37474W        W 2734  44.015   8.788   3.644
37475W        W 2735  16.455   5.714   2.837
37476W        W 2736   1.194  41.121  10.732
37477W        W 2737   7.680  20.062  14.489
37478W        W 2738  38.330  33.608   4.596
37479W        W 2739   3.736  27.226   0.750
37480W        W 2740   1.137  36.852   2.678
37481W        W 2741  14.020   1.923   1.799
37482W        W 2742   0.368   2.504  12.026
37483W        W 2743  41.747  16.514   4.660
37484W        W 2744  38.032  19.293  10.635
37485W        W 2745  43.000  23.486   2.397
37486W        W 2746  40.519   6.472   3.990
37487W        W 2747  26.479  16.228  11.449
37488W        W 2748  34.682  44.773  10.777
37489W        W 2749   2.322  34.566   2.935
37490W        W 2750  35.969  19.045   0.941
37491W        W 2751   2.294  27.539   3.220
37492W        W 2752  25.883   4.266   1.729
37493W        W 2753  12.128  26.300   1.200
37494W        W 2754  10.784   7.346   0.901
37495W        W 2755  44.393  35.143   2.009
37496W        W 2756  27.396  36.673  11.179
37497W        W 2757  12.545  26.925  10.692
37498W        W 2758  39.279  26.378   0.966
37499W        W 2759  18.015  24.503  13.908
37500W        W 2760  31.962   2.174  13.449
37501W        W 2761  19.192  19.138  12.848
37502W        W 2762   5.341  37.459   2.491
37503W        W 2763  43.177   7.936   3.749
37504W        W 2764  44.461  43.283  14.255
37505W        W 2765  32.168   2.346   4.546
37506W        W 2766  17.583  31.865  11.825
37507W        W 2767  21.056  18.709  14.719
37508W        W 2768  34.480  12.859   3.720
37509W        W 2769   5.766  19.619  11.103
37510W        W 2770  21.015  33.154   4.188
37511W        W 2771   9.846  30.290  13.727
37512W        W 2772  30.381  40.954   3.271
37513W        W 2773  10.987  27.199  10.548
37514W        W 2774  34.899  44.321   3.639
37515W        W 2775  21.910  22.395  11.615
37516W        W 2776  37.997  44.444  12.597
37517W        W 2777  42.542  25.502  10.595
37518W        W 2778  20.623  33.139  12.659
37519W        W 2779  35.661   3.696  11.877
37520W        W 2780  24.169  28.821   1.518
37521W        W 2781  33.475  22.037  10.336
37522W        W 2782  38.509   4.935   2.306
37523W        W 2783  18.675  16.117  14.548
37524W        W 2784  24.431  29.690   1.392
37525W        W 2785  12.861  19.822  12.049
37526W        W 2786  18.546   9.842  11.659
37527W        W 2787  22.890  17.437   2.419
37528W        W 2788  39.039  12.327  14.289
37529W        W 2789   9.867  28.559  12.495
37530W        W 2790  17.661  18.989  12.047
37531W        W 2791  41.578  23.427  14.902
37532W        W 2792   9.950  17.263   5.225
37533W        W 2793  24.107  17.582   2.353
37534W        W 2794  16.191   9.643  12.811
37535W        W 2795  30.586   3.799   2.886
37536W        W 2796  22.033  38.272  12.807
37537W        W 2797  35.455  24.559  11.381
37538W        W 2798   0.347  40.024  13.297
37539W        W 2799  19.980  11.252  12.485
37540W        W 2800   1.878  34.674  11.584
37541W        W 2801   8.886  14.704  14.757
37542W        W 2802  37.973   2.117  11.554
37543W        W 2803   9.432  28.222   4.960
37544W        W 2804  33.475   6.749   0.859
37545W        W 2805  10.802  32.683  13.086
37546W        W 2806  42.449  36.158   2.258
37547W        W 2807  37.045  35.986   2.015
37548W        W 2808  21.341  41.887   0.624
37549W        W 2809  41.362  41.300  12.053
37550W        W 2810  41.049  39.494  14.021
37551W        W 2811   2.385  27.615   5.561
37552W        W 2812  29.621  35.016  13.508
37553W        W 2813  10.324  44.386   0.100
37554W        W 2814   7.507  40.558  13.451
37555W        W 2815  35.400  40.004   2.608
37556W        W 2816  36.520  19.195   0.957
37557W        W 2817  30.030  25.212  10.283
37558W        W 2818  36.607   6.928  13.152
37559W        W 2819  27.194  24.980   4.304
37560W        W 2820  30.469   3.406   4.903
37561W        W 2821  15.840  27.217  14.868
37562W        W 2822  41.341   6.218   3.082
37563W        W 2823  11.794  22.634  11.624
37564W        W 2824   5.022  29.558   0.020
37565W        W 2825   6.285  43.099  11.600
37566W        W 2826  15.103  18.290  10.694
37567W        W 2827  22.308  32.351   3.216
37568W        W 2828  13.071   1.433   0.345
37569W        W 2829  31.580   2.483  11.144
37570W        W 2830  24.767  13.908  10.561
37571W        W 2831   5.826   9.388  11.559
37572W        W 2832   8.070  32.016   1.788
37573W        W 2833  34.476  42.600   0.371
37574W        W 2834  20.797  19.791  11.629
37575W        W 2835  39.018   3.865   3.806
37576W        W 2836  12.519  33.936  13.354
37577W        W 2837  15.519  21.536   1.550
37578W        W 2838  11.613  41.459  14.704
37579W        W 2839   8.281  11.164   4.668
37580W        W 2840  41.508   8.855   2.785
37581W        W 2841   8.585  42.921  12.038
37582W        W 2842  19.343   4.787  10.367
37583W        W 2843  11.636  33.204   3.940
37584W        W 2844  15.164  15.251   1.283
37585W        W 2845  27.721  12.836   2.289
37586W        W 2846   7.175  26.427   5.111
37587W        W 2847  35.977   9.588   0.376
37588W        W 2848   0.692  41.369   2.387
37589W        W 2849  26.559   7.193  10.956
37590W        W 2850  17.049  11.177   4.094
37591W        W 2851   5.203  36.727   4.026
37592W        W 2852  44.354  37.383   4.366
37593W        W 2853  38.564   0.497   0.436
37594W        W 2854   8.191  13.645   1.939
37595W        W 2855  17.328  18.300  14.293
37596W        W 2856  33.813   9.251   4.065
37597W        W 2857  14.390   3.405   0.513
37598W        W 2858  17.522  24.663  12.965
37599W        W 2859  20.941  39.309  10.106
37600W        W 2860  25.978  27.570  13.965
37601W        W 2861  15.055  35.057  12.051
37602W        W 2862  29.471  39.539  11.126
37603W        W 2863  44.353  30.472   3.467
37604W        W 2864  21.084  17.311  13.511
37605W        W 2865   0.710   1.015   9.770
37606W        W 2866   1.471  10.469   4.234
37607W        W 2867  33.859   9.190  10.735
37608W        W 2868   8.840  18.709   3.682
37609W        W 2869   0.504   5.659  13.337
37610W        W 2870   1.543  12.592  10.243
37611W        W 2871  44.815   9.303   3.908
37612W        W 2872  16.137  23.406   3.747
37613W        W 2873  42.810  44.250   4.581
37614W        W 2874  14.577  39.952  14.512
37615W        W 2875   6.236  28.709   2.348
37616W        W 2876   5.995  29.005  10.660
37617W        W 2877  27.552  10.840   1.960
37618W        W 2878  26.542  44.714   2.653
37619W        W 2879  13.181   2.882   1.475
37620W        W 2880  34.022   3.834   1.906
37621W        W 2881  21.101  19.111   0.849
37622W        W 2882   5.808   1.963  14.225
37623W        W 2883  41.532  18.986  13.947
37624W        W 2884  11.740  37.961  10.794
37625W        W 2885  30.559  17.022  14.688
37626W        W 2886   2.355   2.279   1.233
37627W        W 2887  22.994  20.707   0.847
37628W        W 2888  44.250  18.880  11.548
37629W        W 2889  17.650   1.735   0.454
37630W        W 2890   5.942   4.416  12.110
37631W        W 2891   9.109  18.048  13.982
37632W        W 2892  27.152  32.366   1.477
37633W        W 2893  16.437  43.309   1.763
37634W        W 2894  34.121   3.522   0.889
37635W        W 2895  44.044  42.024   3.165
37636W        W 2896  19.992   6.855   2.716
37637W        W 2897  42.581   4.702  12.167
37638W        W 2898  18.309  14.324  14.551
37639W        W 2899  15.858  39.029   3.776
37640W        W 2900  26.878  12.551  11.123
37641W        W 2901   9.460  28.188  10.307
37642W        W 2902   5.038  19.764   1.843
37643W        W 2903  44.944  25.279  12.543
37644W        W 2904  11.035  27.660   1.075
37645W        W 2905  23.962  22.593  12.459
37646W        W 2906  26.505   2.092   2.665
37647W        W 2907  11.598  28.231   3.380
37648W        W 2908  12.783  31.005   0.974
37649W        W 2909  44.535  16.245  10.560
37650W        W 2910  35.056  21.540   0.966
37651W        W 2911   6.293  18.163  14.393
37652W        W 2912  27.244  12.150   3.163
37653W        W 2913  33.465  30.518   3.312
37654W        W 2914  43.416  14.753   0.218
37655W        W 2915  40.037   7.085   2.122
37656W        W 2916  37.639  27.633  12.799
37657W        W 2917  26.485   4.599  10.302
37658W        W 2918   5.733  41.369  13.114
37659W        W 2919  32.379  21.703   3.240
37660W        W 2920  29.691  22.453  11.571
37661W        W 2921   9.817   1.966   0.040
37662W        W 2922  25.412   5.544  10.300
37663W        W 2923  24.777  25.995  14.696
37664W        W 2924  22.049  17.778  14.525
37665W        W 2925   8.243  23.561   4.970
37666W        W 2926  14.174  32.542  10.783
37667W        W 2927  23.313  13.182   4.473
37668W        W 2928   1.858  27.026   4.065
37669W        W 2929  34.383  10.280  12.715
37670W        W 2930  25.293  43.291   1.908
37671W        W 2931  20.718   4.976  14.998
37672W        W 2932   7.980   7.870   1.471
37673W        W 2933  12.058  26.706   4.639
37674W        W 2934  42.223  38.290   0.943
37675W        W 2935  14.619  33.850  12.607
37676W        W 2936   3.877  32.078  12.545
37677W        W 2937  17.247  35.456   0.029
37678W        W 2938   5.428  19.476   0.208
37679W        W 2939  41.026  36.932   0.361
37680W        W 2940  43.854  33.089  14.384
37681W        W 2941  20.237   6.554  11.226
37682W        W 2942  28.148  29.444   0.152
37683W        W 2943  11.779  43.821  10.600
37684W        W 2944   4.813  23.960   4.094
37685W        W 2945  14.779   7.891   0.806
37686W        W 2946   2.295   5.824   3.687
37687W        W 2947  10.585   8.801   3.156
37688W        W 2948  16.727   3.977  12.529
37689W        W 2949  42.995  28.106   1.812
37690W        W 2950  25.568  28.256  10.104
37691W        W 2951  39.109  33.011   3.322
37692W        W 2952   4.970  43.028   4.245
37693W        W 2953   3.401  25.483   1.232
37694W        W 2954   9.502  25.587   3.733
37695W        W 2955  12.667  42.675  14.307
37696W        W 2956  34.337   9.218   4.081
37697W        W 2957  28.191   8.889   0.552
37698W        W 2958  40.778  29.500   2.280
37699W        W 2959  21.661   0.947   2.850
37700W        W 2960  36.283  35.495   0.109
37701W        W 2961  11.433  28.862   0.906
37702W        W 2962  36.513  33.333  13.895
37703W        W 2963   7.347  43.157  11.680
37704W        W 2964   7.183  41.362   4.419
37705W        W 2965  30.965   7.142   4.599
37706W        W 2966  30.118  16.811   4.098
37707W        W 2967  14.646  22.252  12.010
37708W        W 2968  10.378  37.694  14.834
37709W        W 2969  44.133  28.889   4.089
37710W        W 2970  34.090  40.259   3.169
37711W        W 2971  28.081  40.730   0.943
37712W        W 2972  42.716  25.718  11.604
37713W        W 2973  37.344  15.723  14.332
37714W        W 2974  33.344  38.944   4.612
37715W        W 2975  27.090  23.831  11.859
37716W        W 2976  30.182   6.494  11.978
37717W        W 2977  12.192  28.034  11.432
37718W        W 2978  16.586   9.300   0.772
37719W        W 2979  14.551  14.741  13.879
37720W        W 2980  10.462   7.159   2.646
37721W        W 2981  33.355  16.144   0.491
37722W        W 2982  34.967  37.328   3.360
37723W        W 2983   6.669  25.917   9.750
37724W        W 2984  44.394  35.966   0.211
37725W        W 2985   9.756   5.993   2.702
37726W        W 2986  30.665  42.838   4.632
37727W        W 2987  26.697  11.140  14.882
37728W        W 2988   9.318   7.964   1.494
37729W        W 2989  36.541   2.823   4.828
37730W        W 2990  25.455  42.946   3.595
37731W        W 2991  44.047  20.273  13.468
37732W        W 2992  40.717   5.303   2.253
37733W        W 2993  44.347  30.830   3.121
37734W        W 2994  37.998  16.165   0.998
37735W        W 2995  14.317  44.152  11.190
37736W        W 2996  33.521  16.589   0.719
37737W        W 2997  13.838  14.892   1.700
37738W        W 2998   0.717  36.539   4.181
37739W        W 2999  24.295  13.903   2.770
37740W        W 3000   2.707  44.299  11.568
37741W        W 3001  30.974  15.870   0.418
37742W        W 3002   4.370   3.314  13.135
37743W        W 3003   2.657  35.095   4.992
37744W        W 3004  44.684  43.009  12.311
37745W        W 3005   6.649   5.183  14.719
37746W        W 3006  40.994  19.092   4.860
37747W        W 3007   3.488  42.483  11.002
37748W        W 3008  28.609  42.998  10.660
37749W        W 3009  11.828   2.471  14.516
37750W        W 3010  42.973  14.027   1.224
37751W        W 3011  21.690  42.813   0.366
37752W        W 3012  22.269   8.881  11.100
37753W        W 3013   6.386   6.441  13.382
37754W        W 3014   7.116  37.850  12.410
37755W        W 3015  12.887  23.052   0.184
37756W        W 3016  16.291  11.407  14.273
37757W        W 3017  39.891  37.511  12.866
37758W        W 3018  35.410  24.872  11.780
37759W        W 3019  18.876  12.251  10.672
37760W        W 3020  27.993  15.129   4.183
37761W        W 3021  35.688  17.391  11.188
37762W        W 3022  27.172  27.164   4.110
37763W        W 3023  40.496  29.672  13.776
37764W        W 3024  23.607   8.347  11.421
37765W        W 3025  19.880  40.421   1.734
37766W        W 3026  27.112  27.596  11.064
37767W        W 3027  35.015   1.996   3.241
37768W        W 3028   9.938  12.404  13.407
37769W        W 3029   8.095  17.296   5.093
37770W        W 3030  12.019  31.015   4.111
37771W        W 3031  32.451  34.148  12.657
37772W        W 3032  29.646  12.645   2.159
37773W        W 3033  23.903   7.451  11.167
37774W        W 3034   7.781  40.871  14.436
37775W        W 3035  20.694  36.990  10.420
37776W        W 3036  19.549  22.690  13.248
37777W        W 3037  32.632   2.693   4.602
37778W        W 3038  11.875  14.605   2.263
37779W        W 3039  37.928  10.765  13.941
37780W        W 3040  12.515   0.586   1.189
37781W        W 3041  43.812   4.936  11.317
37782W        W 3042  27.107  11.608   4.485
37783W        W 3043  16.512  19.798   0.424
37784W        W 3044   7.903  30.941   0.526
37785W        W 3045   2.929  39.017   4.420
37786W        W 3046   0.836  14.833  11.691
37787W        W 3047   4.335  14.800  11.993
37788W        W 3048  29.005  16.171   3.405
37789W        W 3049  40.499  13.644   1.374
37790W        W 3050  14.153  41.356  11.218
37791W        W 3051  43.762  20.338  10.746
37792W        W 3052  23.021  15.616   1.889
37793W        W 3053   8.106  33.945   1.480
37794W        W 3054  26.633  30.599   3.276
37795W        W 3055  36.448  38.307  12.532
37796W        W 3056  30.431  39.356  10.363
37797W        W 3057  14.440  29.616  11.480
37798W        W 3058  17.081  29.622   2.807
37799W        W 3059  41.373   9.974   1.623
37800W        W 3060  36.529  21.825   1.714
37801W        W 3061   8.346   1.983  13.323
37802W        W 3062  24.853  24.559  12.371
37803W        W 3063   6.912  16.259   2.563
37804W        W 3064   0.843  19.584  12.729
37805W        W 3065  21.770  34.004   2.871
37806W        W 3066  33.618  14.187  12.533
37807W        W 3067  34.137   3.990  10.970
37808W        W 3068  39.919  21.448  13.776
37809W        W 3069   7.949  21.103   1.887
37810W        W 3070  17.983  14.643   2.810
37811W        W 3071  10.280  16.628  11.448
37812W        W 3072   7.194  42.711  11.120
37813W        W 3073  22.966  10.847   1.241
37814W        W 3074   8.617   5.971  12.628
37815W        W 3075  12.436  34.484  11.426
37816W        W 3076  32.976  26.434   0.722
37817W        W 3077   0.320  30.539  13.902
37818W        W 3078  28.597   1.422  13.948
37819W        W 3079  27.458  22.786   3.640
37820W        W 3080  11.342  38.842   1.374
37821W        W 3081  21.017  22.670   3.284
37822W        W 3082   3.783  19.710  12.665
37823W        W 3083  26.614  17.049   3.322
37824W        W 3084   3.470  24.149   3.397
37825W        W 3085  40.443   4.619   2.819
37826W        W 3086   7.335  34.912  13.984
37827W        W 3087  30.364  27.590   2.302
37828W        W 3088  17.572  18.040  13.384
37829W        W 3089   9.398  17.273  12.669
37830W        W 3090  41.261  20.434  12.507
37831W        W 3091   3.258  17.696  11.561
37832W        W 3092  25.440   0.917  11.186
37833W        W 3093  26.659  29.511  13.410
37834W        W 3094  18.359  17.640   1.875
37835W        W 3095  35.623  27.453   4.574
37836W        W 3096  13.611  12.122  10.360
37837W        W 3097   0.344  29.912   4.879
37838W        W 3098  11.386  21.122  13.477
37839W        W 3099  32.315  17.899   0.387
37840W        W 3100  19.814  34.871  13.037
37841W        W 3101  24.750  16.533  13.896
37842W        W 3102  12.377   0.858   1.924
37843W        W 3103   4.044  35.559  11.080
37844W        W 3104  19.160   3.259  13.358
37845W        W 3105  32.944  33.624  12.104
37846W        W 3106  20.270  42.333  14.434
37847W        W 3107  33.965  21.736  11.120
37848W        W 3108   3.223  11.785  10.544
37849W        W 3109  21.730  16.336  12.035
37850W        W 3110  42.239  30.524   2.381
37851W        W 3111  19.304  28.492  12.679
37852W        W 3112   5.712  11.288   4.134
37853W        W 3113  38.517  29.906  11.322
37854W        W 3114  18.528  19.203   3.440
37855W        W 3115  38.894   3.337   3.704
37856W        W 3116  28.126   7.464  12.393
37857W        W 3117  39.873  17.831   3.164
37858W        W 3118   2.727  17.804   3.132
37859W        W 3119  17.682   8.167   3.286
37860W        W 3120  42.243  39.301   3.602
37861W        W 3121  34.364   1.959  11.616
37862W        W 3122   9.711  29.974  12.152
37863W        W 3123   0.281   8.690  14.105
37864W        W 3124  25.296  24.629  14.370
37865W        W 3125  27.621  21.761   1.794
37866W        W 3126  23.165   5.984   0.804
37867W        W 3127  27.127  35.264  14.001
37868W        W 3128  24.189   7.177  11.495
37869W        W 3129   7.623  42.504   0.779
37870W        W 3130  42.743  29.551   2.294
37871W        W 3131  22.124   7.900   2.861
37872W        W 3132   5.228  21.195  13.955
37873W        W 3133   4.856  25.370   1.911
37874W        W 3134  15.033  18.341  13.563
37875W        W 3135   9.380  42.774   0.389
37876W        W 3136  20.714  37.122  12.762
37877W        W 3137   6.244  40.247  11.211
37878W        W 3138  36.634  35.029   2.836
37879W        W 3139  23.616  28.616  11.621
37880W        W 3140  36.067  20.129   4.657
37881W        W 3141  21.106   7.186   3.070
37882W        W 3142  17.801  19.173  13.475
37883W        W 3143  13.831  16.643  12.972
37884W        W 3144  34.874   4.488   5.037
37885W        W 3145  40.505  17.427  13.527
37886W        W 3146  37.406   7.662  14.920
37887W        W 3147  17.663  38.272   3.790
37888W        W 3148  20.285  30.312   4.991
37889W        W 3149  42.508   4.723   3.104
37890W        W 3150  38.953   6.816  13.912
37891W        W 3151  13.212  12.653   1.290
37892W        W 3152  35.717  36.753   1.763
37893W        W 3153   4.695  29.633  13.898
37894W        W 3154  27.619  17.703   0.437
37895W        W 3155  35.377  19.530  10.783
37896W        W 3156  10.601  37.497   2.397
37897W        W 3157  37.035  35.502   0.199
37898W        W 3158  25.934  15.215   3.654
37899W        W 3159   1.708   8.712  13.776
37900W        W 3160  39.791  13.176  11.187
37901W        W 3161  18.856   3.170  10.254
37902W        W 3162  27.187   9.242  13.467
37903W        W 3163  40.328  34.853   4.589
37904W        W 3164  17.112  12.738   2.640
37905W        W 3165   5.760  26.541  13.973
37906W        W 3166  37.813   5.417   0.280
37907W        W 3167   3.753  11.260   1.438
37908W        W 3168  31.940  17.132   2.456
37909W        W 3169  21.014  32.158  11.417
37910W        W 3170  25.155  37.515   1.544
37911W        W 3171  14.279   7.330  12.684
37912W        W 3172   9.865  27.664   3.173
37913W        W 3173  22.241  24.867   3.576
37914W        W 3174   1.179  30.077   2.163
37915W        W 3175  39.876  19.778  11.511
37916W        W 3176   8.867  26.680   0.969
37917W        W 3177  30.207  30.872  11.643
37918W        W 3178   7.809  14.626  13.494
37919W        W 3179  33.443  29.249   0.276
37920W        W 3180  38.403  40.987   2.819
37921W        W 3181   8.972  36.274  12.063
37922W        W 3182   2.737   4.269   1.394
37923W        W 3183  25.180  14.825  12.464
37924W        W 3184  40.602   4.283   3.195
37925W        W 3185  25.005  41.018  12.982
37926W        W 3186  37.830  29.311   2.827
37927W        W 3187   5.962  27.226  12.888
37928W        W 3188  35.676  30.365   4.126
37929W        W 3189  24.485  42.322  11.172
37930W        W 3190  29.180  28.563   2.641
37931W        W 3191  36.397  27.753  12.373
37932W        W 3192  34.587  32.005  13.058
37933W        W 3193  11.882  35.074   3.707
37934W        W 3194   1.532   5.275   0.502
37935W        W 3195  36.827  37.711  10.533
37936W        W 3196  36.632  12.528   4.108
37937W        W 3197  33.546  21.730  11.595
37938W        W 3198  43.536  41.409  10.656
37939W        W 3199  23.273  34.309   2.721
37940W        W 3200   6.249  32.410  12.606
37941W        W 3201  36.168  34.567  12.001
37942W        W 3202   3.809  17.567   1.014
37943W        W 3203  39.314   4.702   0.045
37944W        W 3204  29.122  21.103  12.880
37945W        W 3205  28.849  27.400   2.238
37946W        W 3206  18.770  43.958   1.757
37947W        W 3207  38.605  18.616  11.626
37948W        W 3208   3.797   5.599  13.131
37949W        W 3209  19.301  15.562  11.548
37950W        W 3210  34.813  14.882   4.078
37951W        W 3211  39.940  39.600  13.869
37952W        W 3212  26.882  20.296   1.711
37953W        W 3213  29.962   6.423  11.522
37954W        W 3214   3.322   0.165   2.477
37955W        W 3215  36.436  41.541   0.466
37956W        W 3216  15.124   9.853   1.946
37957W        W 3217  37.991   8.006  13.129
37958W        W 3218  41.795  16.264   2.328
37959W        W 3219  25.158  26.381  14.703
37960W        W 3220  24.141  26.283  13.746
37961W        W 3221  22.979  24.636  14.284
37962W        W 3222  22.128  25.968  12.886
37963W        W 3223  38.563   3.105   1.228
37964W        W 3224  28.152  24.213  10.527
37965W        W 3225  17.175  42.314  11.079
37966W        W 3226   9.115  36.934   4.401
37967W        W 3227  23.001  27.502   3.206
37968W        W 3228  36.860  11.136   2.370
37969W        W 3229  20.999  30.135   2.402
37970W        W 3230  30.365   5.620  11.358
37971W        W 3231  17.097   2.702   2.453
37972W        W 3232   7.257   0.211  12.500
37973W        W 3233  18.080  39.021  13.988
37974W        W 3234   7.918  27.678  13.402
37975W        W 3235  27.789  19.274  13.976
37976W        W 3236  11.305  12.284  12.542
37977W        W 3237  11.679  11.800   1.974
37978W        W 3238  25.273  13.158   0.732
37979W        W 3239   9.707   9.823  10.836
37980W        W 3240   6.917  16.304  10.755
37981W        W 3241  20.248   4.867   4.596
37982W        W 3242  10.157  11.896   1.526
37983W        W 3243  44.802  40.583  11.613
37984W        W 3244  22.591  24.654  14.919
37985W        W 3245   8.871  32.533  11.099
37986W        W 3246  10.327  15.221  13.132
37987W        W 3247  40.786   7.705   3.930
37988W        W 3248  27.412   0.448  14.530
37989W        W 3249  17.855  41.088   2.733
37990W        W 3250  36.273   6.955  12.502
37991W        W 3251  37.901  11.790  14.744
37992W        W 3252  21.805  16.089  11.573
37993W        W 3253  35.506  17.530  10.387
37994W        W 3254   5.722  41.206   4.086
37995W        W 3255  41.963  34.995  10.365
37996W        W 3256   3.727  20.169   1.394
37997W        W 3257   3.889  28.975   2.143
37998W        W 3258  29.542  35.410   0.907
37999W        W 3259  34.960  16.369  13.452
38000W        W 3260  35.613  10.427  13.964
38001W        W 3261  19.725  25.886   2.298
38002W        W 3262  33.987  24.482   1.619
38003W        W 3263   0.483   2.963   4.933
38004W        W 3264   0.048  35.053  11.651
38005W        W 3265  43.542  26.958  14.390
38006W        W 3266  14.397  12.767  12.776
38007W        W 3267   7.140   7.969   1.752
38008W        W 3268  39.262  24.693   3.724
38009W        W 3269  37.304  44.162   4.954
38010W        W 3270  23.668   3.662   4.708
38011W        W 3271  28.345  19.635  13.357
38012W        W 3272  23.817  19.382  13.774
38013W        W 3273  20.038  16.305  11.984
38014W        W 3274  35.517  39.930  11.090
38015W        W 3275  25.091   5.156  14.001
38016W        W 3276  40.008  29.441   1.250
38017W        W 3277   8.439  11.928  11.160
38018W        W 3278  41.538  20.757  12.179
38019W        W 3279  17.051  26.949   1.806
38020W        W 3280  32.923  44.699   4.578
38021W        W 3281  22.623  15.283  10.987
38022W        W 3282  42.830   6.658  11.256
38023W        W 3283  20.372  21.742   2.820
38024W        W 3284  43.867  39.658   1.240
38025W        W 3285  25.944  20.077  12.537
38026W        W 3286  18.223  30.639  11.644
38027W        W 3287   1.903  40.892  13.615
38028W        W 3288  35.847  28.584   1.936
38029W        W 3289   0.933  16.320  12.135
38030W        W 3290   9.440  44.018  12.059
38031W        W 3291   1.908  10.865  14.523
38032W        W 3292   1.981   1.668  11.110
38033W        W 3293  31.175  43.815   4.735
38034W        W 3294  41.984  28.648   4.589
38035W        W 3295  35.402   4.813   3.777
38036W        W 3296  42.440  33.834  10.546
38037W        W 3297  33.079   0.490  14.767
38038W        W 3298  11.703   6.299   4.239
38039W        W 3299  44.508  36.915   4.559
38040W        W 3300   6.699  32.027  10.766
38041W        W 3301  27.723   0.318  12.987
38042W        W 3302   0.992  25.125  11.595
38043W        W 3303  13.145  13.237   1.951
38044W        W 3304  44.183   6.113  13.023
38045W        W 3305  32.563  30.952  13.299
38046W        W 3306  27.552  19.135  13.526
38047W        W 3307   7.007  43.698   3.183
38048W        W 3308  39.350  43.776  10.687
38049W        W 3309  16.645   9.527   0.326
38050W        W 3310  14.395  36.150  11.097
38051W        W 3311  43.173   5.125  12.674
38052W        W 3312  13.229  12.884   3.749
38053W        W 3313  42.982   5.637   4.553
38054W        W 3314  23.761  44.551   2.702
38055W        W 3315  16.564  41.455  11.448
38056W        W 3316  39.892   8.770  10.776
38057W        W 3317  35.488  12.871   3.747
38058W        W 3318  42.200  42.849   1.194
38059W        W 3319  35.833  12.088   3.769
38060W        W 3320  32.837  11.774  10.736
38061W        W 3321  38.766  42.644   5.103
38062W        W 3322  33.599  21.414  11.182
38063W        W 3323   8.166   0.695   3.702
38064W        W 3324  38.429  28.201   4.313
38065W        W 3325   6.720  33.000  13.111
38066W        W 3326  36.503   9.379   0.958
38067W        W 3327  24.764   5.234   2.672
38068W        W 3328  20.556  14.156   2.621
38069W        W 3329  13.766  39.370   2.131
38070W        W 3330  12.164   1.372  13.847
38071W        W 3331   6.955  14.311  11.481
38072W        W 3332  26.066  16.324  12.124
38073W        W 3333  20.696  37.347  11.128
38074W        W 3334  44.216   8.137  13.511
38075W        W 3335  37.493  23.937  11.209
38076W        W 3336  16.610   7.670  10.634
38077W        W 3337  16.323  30.955   0.912
38078W        W 3338  29.495  11.789  13.800
38079W        W 3339  12.142  16.076  10.597
38080W        W 3340  38.873   8.689  11.091
38081W        W 3341  23.324  14.655   1.243
38082W        W 3342   7.122  40.979   2.152
38083W        W 3343  40.187  23.627   3.306
38084W        W 3344   9.941  32.902   1.319
38085W        W 3345  20.117   5.746   4.823
38086W        W 3346  13.003  14.294  14.040
38087W        W 3347  18.621  18.141   3.629
38088W        W 3348   8.210  25.489   3.214
38089W        W 3349  41.731   2.721  11.141
38090W        W 3350  25.020  30.381   2.738
38091W        W 3351   4.000  24.599  14.000
38092W        W 3352   5.379  26.461   2.798
38093W        W 3353  34.538   4.440   2.342
38094W        W 3354   1.909  19.392  13.524
38095W        W 3355  25.688  14.329  10.875
38096W        W 3356   2.292  44.249  13.754
38097W        W 3357  30.797  18.985   2.828
38098W        W 3358  37.014  38.369   1.848
38099W        W 3359  28.952   3.232  11.518
38100W        W 3360  29.841  16.631   3.603
38101W        W 3361  10.800  34.847   4.707
38102W        W 3362   4.831  34.848   4.440
38103W        W 3363  35.600   9.417  12.476
38104W        W 3364  37.561   4.316   4.607
38105W        W 3365  20.736  24.558  10.629
38106W        W 3366  21.595  41.299   1.427
38107W        W 3367  30.745  25.602   3.217
38108W        W 3368  14.315   8.236   3.716
38109W        W 3369  42.409   5.991  10.986
38110W        W 3370  38.263  26.276   1.365
38111W        W 3371  30.975  28.441  12.047
38112W        W 3372  16.314   8.825  13.056
38113W        W 3373  38.021  10.154  13.402
38114W        W 3374  12.732  20.438   2.203
38115W        W 3375   3.908  42.151   0.195
38116W        W 3376  36.602  44.730  12.999
38117W        W 3377  34.022   6.718  11.566
38118W        W 3378  26.550  40.762  12.939
38119W        W 3379  44.473  14.148   3.389
38120W        W 3380  34.077  22.054  14.298
38121W        W 3381  34.414  41.303  14.886
38122W        W 3382  11.639  10.742  13.510
38123W        W 3383  42.152   9.464  11.175
38124W        W 3384  24.382   3.435   2.242
38125W        W 3385  38.556   0.564  12.536
38126W        W 3386  37.320  13.722  12.078
38127W        W 3387   2.008  17.817   1.217
38128W        W 3388  38.373  30.172   4.766
38129W        W 3389  17.133   2.877  10.800
38130W        W 3390   3.756  15.214   1.802
38131W        W 3391  27.273  36.100   1.841
38132W        W 3392  22.585  13.828  11.322
38133W        W 3393  11.340  42.815  14.918
38134W        W 3394   5.741  21.964  12.972
38135W        W 3395   2.770  25.568  14.220
38136W        W 3396  22.135  18.790  14.304
38137W        W 3397  26.921  11.594   2.256
38138W        W 3398  41.421  16.817   2.752
38139W        W 3399  20.521  33.596  14.853
38140W        W 3400  21.427  16.429  11.532
38141W        W 3401  30.507  20.208   0.453
38142W        W 3402   8.184  22.243   4.361
38143W        W 3403  41.426  27.701  13.954
38144W        W 3404  39.345  35.042   3.760
38145W        W 3405  42.451  13.807   1.196
38146W        W 3406  27.147  44.017   0.249
38147W        W 3407  17.095  33.426   0.864
38148W        W 3408  34.840  32.009  10.706
38149W        W 3409   9.617  42.011   2.854
38150W        W 3410  10.600  24.562  12.235
38151W        W 3411   9.974  34.783   1.030
38152W        W 3412  44.771  11.370  13.045
38153W        W 3413  13.122  35.122   1.640
38154W        W 3414  37.298  30.143   3.038
38155W        W 3415   3.472  20.094   0.942
38156W        W 3416  41.057   3.951  12.994
38157W        W 3417   4.959  20.275   1.661
38158W        W 3418   6.242  41.056   2.752
38159W        W 3419  40.482   1.962  13.826
38160W        W 3420  33.840  19.522  11.015
38161W        W 3421  30.086  33.945   1.899
38162W        W 3422  20.076  27.957  11.538
38163W        W 3423  38.519  23.937   1.427
38164W        W 3424  26.279   4.357  10.725
38165W        W 3425  40.589  20.539   2.349
38166W        W 3426  38.855  13.674   4.884
38167W        W 3427  43.715  44.848   0.576
38168W        W 3428  29.863   4.730   5.055
38169W        W 3429  22.573   4.804  14.841
38170W        W 3430  11.756  16.751   2.985
38171W        W 3431  31.844  15.552   0.745
38172W        W 3432  26.892  31.292  13.974
38173W        W 3433  23.952  40.974  12.491
38174W        W 3434   2.229  16.243   1.365
38175W        W 3435  21.217  13.606   4.072
38176W        W 3436  14.243   3.137  12.908
38177W        W 3437  22.821  19.175  14.866
38178W        W 3438  14.316  36.408  14.337
38179W        W 3439  37.374   7.750   1.801
38180W        W 3440  10.810   0.437  14.969
38181W        W 3441  34.558  25.516   0.486
38182W        W 3442   3.189  27.296  12.382
38183W        W 3443   7.962  36.387  11.622
38184W        W 3444  41.336  11.297   4.762
38185W        W 3445  32.809   2.435  14.852
38186W        W 3446  25.727   8.984  14.507
38187W        W 3447  28.093  15.810   2.475
38188W        W 3448  31.395   0.486   1.391
38189W        W 3449   7.177  13.613   2.820
38190W        W 3450  16.293  43.571   2.209
38191W        W 3451  39.964  31.104   2.946
38192W        W 3452  10.837   5.795   5.397
38193W        W 3453  26.922  20.593  13.223
38194W        W 3454  35.650  15.233  12.034
38195W        W 3455  36.355  29.418  14.050
38196W        W 3456  28.908   7.912   3.210
38197W        W 3457  43.984  35.846   4.976
38198W        W 3458  12.382  26.352   9.505
38199W        W 3459  23.569  40.325  10.265
38200W        W 3460  26.702  26.026   1.939
38201W        W 3461   0.329  14.032   3.718
38202W        W 3462   7.731   3.396   1.718
38203W        W 3463  18.667  18.559   4.976
38204W        W 3464  39.085   8.145   3.624
38205W        W 3465  23.646  17.506  12.666
38206W        W 3466   0.925  24.002   0.503
38207W        W 3467  13.839  31.051   0.816
38208W        W 3468  37.528  12.916   3.283
38209W        W 3469  26.935  30.058  12.515
38210W        W 3470   1.963  22.773   4.335
38211W        W 3471  26.980   2.994   3.848
38212W        W 3472   2.328  35.932   2.568
38213W        W 3473  33.490  41.516  13.981
38214W        W 3474  22.757  40.270  11.572
38215W        W 3475   6.849  10.075   3.189
38216W        W 3476  34.770  12.024   5.211
38217W        W 3477  28.464  19.736  14.745
38218W        W 3478  31.931  17.146   3.898
38219W        W 3479  40.259  18.597   0.992
38220W        W 3480  16.796   0.708  13.328
38221W        W 3481  30.260  10.856  13.983
38222W        W 3482  10.079  28.451   1.825
38223W        W 3483  30.704  10.372   3.822
38224W        W 3484  38.710   3.835  13.846
38225W        W 3485  24.996  36.448  14.418
38226W        W 3486  20.224  12.365  11.916
38227W        W 3487  40.767  43.484   2.899
38228W        W 3488  43.727  21.687   2.301
38229W        W 3489  15.058  44.882  10.455
38230W        W 3490   3.212   1.348   1.134
38231W        W 3491  22.094  16.925  12.541
38232W        W 3492  24.778  42.495   2.897
38233W        W 3493  39.138  18.676  11.477
38234W        W 3494  42.246  42.127   1.767
38235W        W 3495  14.283  43.920  14.330
38236W        W 3496  36.116  24.958   0.386
38237W        W 3497  33.846  15.302   1.424
38238W        W 3498  19.830   9.190   4.231
38239W        W 3499  37.601  38.865   4.194
38240W        W 3500  30.079   9.169   3.276
38241W        W 3501   1.552  13.567   3.078
38242W        W 3502  19.472  21.370   2.675
38243W        W 3503  10.928  39.077  12.443
38244W        W 3504   3.934  39.565   3.726
38245W        W 3505  35.434   2.521  11.201
38246W        W 3506  33.885  41.459  13.098
38247W        W 3507  15.513  39.486   0.784
38248W        W 3508  14.117  26.105  11.019
38249W        W 3509  23.483   5.331   1.850
38250W        W 3510  17.860  14.175  12.938
38251W        W 3511  10.175  21.016   0.443
38252W        W 3512  17.080   7.246   1.353
38253W        W 3513  23.862  12.996  11.512
38254W        W 3514  43.824  38.456   1.768
38255W        W 3515  20.110  25.868   3.672
38256W        W 3516  40.904  37.010  14.000
38257W        W 3517  25.629   2.883  13.975
38258W        W 3518   0.253  29.725   1.324
38259W        W 3519   0.007  33.635   4.581
38260W        W 3520  28.753  37.946   0.707
38261W        W 3521   4.223  30.000  12.102
38262W        W 3522  25.626  42.025  12.518
38263W        W 3523  12.705   8.403   3.166
38264W        W 3524  31.267  15.204   0.054
38265W        W 3525  32.635  14.754   4.833
38266W        W 3526  33.128   1.393   1.502
38267W        W 3527  20.552   1.203  14.381
38268W        W 3528  33.992  31.252   4.661
38269W        W 3529  29.451  29.380   4.537
38270W        W 3530  18.306  26.425   4.549
38271W        W 3531  43.443  15.559   1.243
38272W        W 3532  32.872   6.686   0.407
38273W        W 3533  39.220  32.545  11.385
38274W        W 3534  16.790  22.506   0.539
38275W        W 3535  35.283   9.953   1.742
38276W        W 3536  43.523  36.490   0.322
38277W        W 3537  27.497  18.195  14.709
38278W        W 3538  33.022  39.856  12.600
38279W        W 3539  15.662   3.115  13.415
38280W        W 3540  32.536  28.440  11.625
38281W        W 3541  31.531  25.235  12.976
38282W        W 3542   9.139  23.723  14.343
38283W        W 3543   6.584   4.425  12.950
38284W        W 3544  23.954   6.901   0.459
38285W        W 3545  25.135  41.261  14.298
38286W        W 3546  34.354   0.074   4.619
38287W        W 3547  28.126  25.225   4.412
38288W        W 3548  37.041  29.931   0.909
38289W        W 3549   5.956  33.938   2.508
38290W        W 3550  21.680   3.011   2.853
38291W        W 3551  26.135   6.241   1.712
38292W        W 3552  42.177  14.668  13.898
38293W        W 3553  14.685  37.534  11.961
38294W        W 3554  22.234  19.560  11.157
38295W        W 3555  16.753  18.513   4.539
38296W        W 3556  29.906  21.062   4.561
38297W        W 3557  36.024  41.490  11.511
38298W        W 3558  24.612  26.017  13.742
38299W        W 3559  39.992  36.667   0.365
38300W        W 3560  10.824  22.521   3.153
38301W        W 3561  26.923  30.432  13.779
38302W        W 3562  10.224  13.141   3.411
38303W        W 3563  10.851   4.013   2.365
38304W        W 3564  32.340   3.479   3.682
38305W        W 3565  13.582  15.297   3.659
38306W        W 3566  35.011  15.367  13.325
38307W        W 3567  33.445  11.412  14.954
38308W        W 3568   6.453  33.380   3.623
38309W        W 3569  43.951  24.731   0.771
38310W        W 3570   0.885  39.464  12.583
38311W        W 3571  19.794  40.038   0.866
38312W        W 3572  42.322   3.286   2.692
38313W        W 3573  24.728  24.944  11.256
38314W        W 3574   7.939  29.874   3.914
38315W        W 3575  10.100  30.176   0.391
38316W        W 3576  14.897  38.477   3.090
38317W        W 3577  21.936  25.273   2.156
38318W        W 3578  30.478  14.253   2.254
38319W        W 3579  30.409  21.646  14.526
38320W        W 3580  14.667  18.006   0.359
38321W        W 3581   7.130  23.474   2.336
38322W        W 3582  35.758  42.147   3.164
38323W        W 3583  20.190  15.044   1.886
38324W        W 3584  25.739  20.530  14.442
38325W        W 3585  13.229  13.368  10.800
38326W        W 3586  42.894  21.057   2.195
38327W        W 3587   5.483   8.650   1.446
38328W        W 3588  30.576  34.662  12.981
38329W        W 3589  19.332  32.986  11.628
38330W        W 3590  21.316   7.025  11.745
38331W        W 3591  34.678  39.849  12.963
38332W        W 3592  17.086  22.727  12.064
38333W        W 3593  19.926  42.562  14.084
38334W        W 3594  29.618  13.417  11.173
38335W        W 3595  36.019  44.178  13.303
38336W        W 3596   4.493   4.792  11.112
38337W        W 3597  44.295  32.117   1.337
38338W        W 3598  28.080  19.200  10.261
38339W        W 3599  17.658  35.035   4.614
38340W        W 3600  21.095   9.741  13.413
38341W        W 3601  27.428  11.765   3.492
38342W        W 3602  25.243   1.948   1.695
38343W        W 3603  15.785  13.078  14.298
38344W        W 3604  35.925  40.306   4.317
38345W        W 3605  29.779   5.105   2.682
38346W        W 3606   8.918  17.201  12.815
38347W        W 3607  25.532  22.463   1.960
38348W        W 3608  14.749  33.611  13.583
38349W        W 3609  35.012   0.642   4.906
38350W        W 3610   9.832  29.077   2.319
38351W        W 3611  42.769  28.860  13.445
38352W        W 3612   6.797   3.244  14.269
38353W        W 3613  22.686   2.057   4.544
38354W        W 3614  12.930  21.732   0.080
38355W        W 3615   8.853  16.692  12.949
38356W        W 3616  40.437   6.330   4.470
38357W        W 3617  37.532  26.285   3.258
38358W        W 3618   5.341  30.917  11.269
38359W        W 3619  25.523   2.986   0.340
38360W        W 3620   5.715  16.335  12.255
38361W        W 3621  10.852  15.373   2.892
38362W        W 3622  39.365  44.016  12.416
38363W        W 3623  31.543  27.497   2.697
38364W        W 3624  19.453  39.456  14.830
38365W        W 3625  31.522  28.435  13.364
38366W        W 3626  24.383  41.401  11.059
38367W        W 3627  30.151  11.273  10.635
38368W        W 3628   5.335  34.901   3.896
38369W        W 3629  15.409  33.089   0.346
38370W        W 3630   2.411  27.911  13.834
38371W        W 3631  19.693  42.983   1.084
38372W        W 3632   1.827  28.166   0.092
38373W        W 3633   7.381   9.147   3.999
38374W        W 3634  38.983  14.575  14.082
38375W        W 3635  17.839  14.181  11.200
38376W        W 3636  34.882  38.548  13.670
38377W        W 3637  11.326  27.393   0.747
38378W        W 3638  35.623  11.928   2.581
38379W        W 3639  25.726   1.919   3.188
38380W        W 3640  28.315  14.254   2.065
38381W        W 3641  12.806   5.271  13.525
38382W        W 3642   8.238  25.594   4.121
38383W        W 3643  44.858  34.869   2.129
38384W        W 3644  21.996  25.093  12.126
38385W        W 3645  11.392  12.295   3.576
38386W        W 3646   7.284  19.143  14.016
38387W        W 3647  36.101  11.211  12.941
38388W        W 3648   4.388  27.994   3.528
38389W        W 3649  19.073  35.698   2.861
38390W        W 3650  25.043  21.907  13.022
38391W        W 3651  18.498   0.743  11.925
38392W        W 3652  43.098  20.259  13.356
38393W        W 3653  35.871  28.966  11.727
38394W        W 3654  44.008  17.382  14.970
38395W        W 3655  15.003  43.025  12.407
38396W        W 3656  10.837  31.596   1.851
38397W        W 3657  28.235  34.709   3.768
38398W        W 3658  13.116   0.749  10.672
38399W        W 3659  29.055   9.835  14.537
38400W        W 3660  27.456   9.300  13.002
38401W        W 3661  19.127  28.475  11.685
38402W        W 3662  44.326  11.347   3.609
38403W        W 3663  35.328  35.944   0.028
38404W        W 3664  37.451  22.145   3.259
38405W        W 3665   2.433  39.354  14.037
38406W        W 3666  37.521  34.906  13.877
38407W        W 3667   6.397  29.194   4.194
38408W        W 3668  13.148   6.602  13.007
38409W        W 3669  32.398  34.658   2.848
38410W        W 3670  21.309   4.236  12.525
38411W        W 3671  33.981  21.957  12.456
38412W        W 3672   3.092   9.085   0.804
38413W        W 3673  19.779  26.625   2.756
38414W        W 3674  15.462  37.176   3.357
38415W        W 3675  14.198  18.305   2.764
38416W        W 3676   2.870  20.156   2.825
38417W        W 3677  12.166  42.273   1.384
38418W        W 3678  23.573   8.914   0.413
38419W        W 3679   7.087  25.584  14.573
38420W        W 3680  15.690  37.876  14.967
38421W        W 3681   9.782   8.918   0.598
38422W        W 3682  31.681  30.958   2.802
38423W        W 3683  31.504   3.213   1.199
38424W        W 3684  15.088  30.389  14.905
38425W        W 3685  33.493  18.981   0.507
38426W        W 3686  35.979  33.634   2.777
38427W        W 3687  11.068  19.050  11.950
38428W        W 3688  42.455   2.703  14.791
38429W        W 3689  36.951  11.275  14.443
38430W        W 3690  40.811  28.733   4.284
38431W        W 3691  14.683  34.894   1.374
38432W        W 3692  34.604  10.827   0.509
38433W        W 3693  24.162  27.091   2.617
38434W        W 3694  23.494  13.888  11.170
38435W        W 3695  25.984  28.871   0.937
38436W        W 3696  35.051  19.144  10.552
38437W        W 3697  25.497  14.007   0.206
38438W        W 3698  38.423  37.928   3.326
38439W        W 3699  36.680  29.851  13.865
38440W        W 3700  40.508  34.358  13.917
38441W        W 3701  22.588  43.502  12.380
38442W        W 3702   6.719  13.786  13.946
38443W        W 3703  20.668  16.587   1.813
38444W        W 3704   8.359  23.081   0.713
38445W        W 3705   3.204  38.447  11.594
38446W        W 3706   7.276  23.246  14.335
38447W        W 3707  40.988  29.579  13.045
38448W        W 3708   8.178  23.567   3.091
38449W        W 3709  24.221  40.409  12.418
38450W        W 3710   5.433   5.375  14.915
38451W        W 3711  29.854   4.884  12.052
38452W        W 3712  23.284  43.031   5.141
38453W        W 3713  14.876  11.754   0.688
38454W        W 3714  10.610  13.752  14.477
38455W        W 3715  12.378   7.739  13.005
38456W        W 3716  37.982   0.245  11.298
38457W        W 3717  26.020  38.262   3.930
38458W        W 3718  41.471  15.056  11.628
38459W        W 3719  44.498  13.341   0.823
38460W        W 3720  36.008  12.280  13.050
38461W        W 3721  33.097  19.665   4.935
38462W        W 3722  32.530  31.874   0.863
38463W        W 3723  41.000  28.729  14.569
38464W        W 3724  44.489  33.921   2.392
38465W        W 3725  19.667   1.773  11.991
38466W        W 3726  44.771   7.138   3.185
38467W        W 3727  19.159  36.767  11.658
38468W        W 3728   5.315   1.885  11.559
38469W        W 3729   6.208   7.570   4.096
38470W        W 3730  36.906   2.198  14.445
38471W        W 3731   6.689  37.515   4.180
38472W        W 3732  26.020  24.349   0.437
38473W        W 3733  42.604  28.000  14.388
38474W        W 3734   7.063   7.875   0.860
38475W        W 3735  39.892  20.337   4.075
38476W        W 3736   8.456  44.867  11.561
38477W        W 3737  18.372  31.695  13.163
38478W        W 3738  26.562   2.744   1.731
38479W        W 3739  13.995  12.462   0.462
38480W        W 3740   2.517   9.842   0.427
38481W        W 3741  43.778  34.377   3.333
38482W        W 3742  36.625  18.095   1.708
38483W        W 3743  41.262  36.794   2.535
38484W        W 3744  33.602  17.157   4.022
38485W        W 3745   1.437   7.315   1.756
38486W        W 3746  20.117  24.537   3.907
38487W        W 3747  28.497   0.395   1.307
38488W        W 3748  40.049  20.524   1.738
38489W        W 3749  34.008  13.071   4.746
38490W        W 3750  29.589  34.394  12.211
38491W        W 3751  27.126  18.761  11.950
38492W        W 3752   7.772  42.786  13.167
38493W        W 3753  43.836  12.886  14.832
38494W        W 3754  21.994  10.246  14.843
38495W        W 3755   5.323   0.840  14.958
38496W        W 3756  33.818  43.004  11.772
38497W        W 3757  19.230  22.280  13.334
38498W        W 3758  41.473  11.567  11.685
38499W        W 3759  39.861  31.416  11.631
38500W        W 3760   6.155  43.803   4.630
38501W        W 3761  26.471  18.489   2.329
38502W        W 3762  17.479  15.283  11.587
38503W        W 3763   4.127  19.012  11.385
38504W        W 3764   0.806  30.123   4.739
38505W        W 3765  21.280  27.514  14.579
38506W        W 3766  21.071  36.080   0.087
38507W        W 3767   1.626  31.433  14.138
38508W        W 3768   9.754  26.025   3.976
38509W        W 3769  26.970   4.244   3.227
38510W        W 3770  39.822  10.863   2.183
38511W        W 3771   9.820  35.232   3.663
38512W        W 3772  12.172  40.723   1.293
38513W        W 3773  15.511  34.166   0.296
38514W        W 3774  19.312  32.748   2.762
38515W        W 3775  32.567   0.018  12.371
38516W        W 3776  35.964  31.520   3.409
38517W        W 3777  20.700  14.639  13.553
38518W        W 3778  29.377   1.232   3.313
38519W        W 3779  34.943  17.473   2.605
38520W        W 3780  23.581   6.733  13.902
38521W        W 3781   4.289   4.173   0.891
38522W        W 3782  35.054  24.032   1.849
38523W        W 3783  26.793  37.454  14.009
38524W        W 3784  37.503  26.205  10.694
38525W        W 3785  31.083   6.327   4.917
38526W        W 3786  21.217   6.191   2.804
38527W        W 3787  11.688  38.160   1.821
38528W        W 3788  36.462  22.964  12.934
38529W        W 3789   1.749   0.767   4.485
38530W        W 3790  26.109  12.763   3.131
38531W        W 3791  43.831  27.590  14.485
38532W        W 3792  21.510  34.578  11.166
38533W        W 3793  18.409   7.585  13.781
38534W        W 3794  35.552  25.577   3.904
38535W        W 3795  19.710  33.919  11.488
38536W        W 3796   0.823  32.465   3.329
38537W        W 3797  17.226  17.556   3.707
38538W        W 3798   5.761  12.186   3.216
38539W        W 3799  23.538  14.185  12.194
38540W        W 3800  15.268  14.855  10.680
38541W        W 3801  20.573   8.912   0.260
38542W        W 3802   7.255  27.113  13.394
38543W        W 3803  27.434   3.981   1.278
38544W        W 3804  13.270  10.569   2.855
38545W        W 3805  41.544   6.242  11.418
38546W        W 3806  40.056  23.265  11.614
38547W        W 3807  32.892  32.105   4.540
38548W        W 3808  12.788  37.850  12.121
38549W        W 3809  12.554  10.048  13.830
38550W        W 3810  44.768  25.146   3.661
38551W        W 3811   4.457  13.159   3.921
38552W        W 3812  30.728  36.464   4.006
38553W        W 3813   0.738   2.488   4.982
38554W        W 3814  16.025  27.001   0.816
38555W        W 3815   9.555  39.393  11.549
38556W        W 3816  26.868  30.695   4.117
38557W        W 3817   2.269  43.882   1.879
38558W        W 3818  29.263  40.342   3.716
38559W        W 3819  38.756  38.759  11.907
38560W        W 3820  28.712   4.394   2.215
38561W        W 3821  28.502   0.195  14.227
38562W        W 3822   0.930  34.004  14.922
38563W        W 3823  14.281  29.736  12.457
38564W        W 3824  23.382  39.980  13.311
38565W        W 3825  13.727   7.721   1.940
38566W        W 3826  41.489  30.033   2.402
38567W        W 3827  21.028   2.417  14.417
38568W        W 3828  21.838   8.610  11.162
38569W        W 3829  16.556  34.381  13.995
38570W        W 3830  28.514   8.901   4.681
38571W        W 3831  24.208  22.702   3.231
38572W        W 3832  20.744  43.045   0.281
38573W        W 3833   6.669  15.336  14.812
38574W        W 3834  11.127  20.359  10.823
38575W        W 3835  41.244   0.197   0.336
38576W        W 3836   1.666  17.189  13.111
38577W        W 3837  36.961  10.280   0.255
38578W        W 3838  32.451  40.974   4.170
38579W        W 3839  39.624  13.531   2.707
38580W        W 3840  26.758  33.065  12.574
38581W        W 3841  20.271   4.908   2.770
38582W        W 3842  29.686  28.885  13.060
38583W        W 3843  36.906   3.426   9.743
38584W        W 3844  30.361  12.088  14.876
38585W        W 3845  10.834   4.663   4.217
38586W        W 3846  39.083  27.253  12.137
38587W        W 3847  29.248   5.676  11.576
38588W        W 3848  39.347   4.701   1.679
38589W        W 3849  34.058   6.307   1.341
38590W        W 3850  16.003  13.515  13.893
38591W        W 3851  17.282  16.202   0.899
38592W        W 3852  29.186  27.264  11.183
38593W        W 3853   9.577  21.548  14.287
38594W        W 3854  31.435  18.308  13.027
38595W        W 3855  12.657  16.498   2.625
38596W        W 3856  23.232  39.037   2.706
38597W        W 3857  29.235  30.142  10.694
38598W        W 3858   6.908  25.699  12.536
38599W        W 3859  12.285  43.468  13.770
38600W        W 3860   1.253   7.338   0.413
38601W        W 3861   7.990  43.275  12.419
38602W        W 3862   7.616  43.720  13.817
38603W        W 3863  24.986  26.962  12.452
38604W        W 3864  16.968  10.125  11.031
38605W        W 3865   9.464   0.205  10.653
38606W        W 3866  22.976  15.825   2.871
38607W        W 3867  17.277  34.615   0.413
38608W        W 3868  13.528  20.142  11.646
38609W        W 3869  17.172  44.647   0.369
38610W        W 3870  38.190  31.068  10.684
38611W        W 3871  18.037  31.100  14.825
38612W        W 3872  15.229   6.416   3.136
38613W        W 3873  25.227  28.947   4.102
38614W        W 3874  24.021   9.295   3.022
38615W        W 3875  28.371  26.095  14.358
38616W        W 3876  15.982  21.326   0.926
38617W        W 3877  10.082  16.753   0.851
38618W        W 3878  39.177   1.000   3.541
38619W        W 3879   8.889  13.098  10.469
38620W        W 3880  28.111  10.673   0.102
38621W        W 3881   1.307   5.314   1.732
38622W        W 3882  44.392  28.887   4.797
38623W        W 3883  22.173   4.961   1.006
38624W        W 3884  34.912  21.918   3.826
38625W        W 3885   2.347  44.736  12.596
38626W        W 3886   4.856  42.927   1.921
38627W        W 3887  31.584  32.706  10.607
38628W        W 3888  12.843  23.571  13.027
38629W        W 3889  21.612   5.441   3.036
38630W        W 3890  14.602   2.721   2.211
38631W        W 3891  44.454  40.849   2.440
38632W        W 3892   5.259  34.443   1.694
38633W        W 3893  11.110  12.670   1.334
38634W        W 3894  44.226  10.730   1.823
38635W        W 3895  19.993  15.440   2.618
38636W        W 3896  41.173  32.363   1.254
38637W        W 3897   4.749   8.306  10.858
38638W        W 3898  11.382  25.921  12.397
38639W        W 3899   2.512   0.849   1.821
38640W        W 3900   5.442  14.781   2.876
38641W        W 3901  40.487  29.718  14.302
38642W        W 3902   5.445   2.359   4.090
38643W        W 3903   5.735  25.969   2.388
38644W        W 3904  42.472  22.846   1.709
38645W        W 3905   8.366  20.964   1.333
38646W        W 3906  42.406  19.833  12.101
38647W        W 3907  11.775  11.091  10.364
38648W        W 3908  20.110  15.905  10.072
38649W        W 3909   0.343  36.852   1.475
38650W        W 3910  16.317  17.199   0.156
38651W        W 3911  26.613  33.578  13.960
38652W        W 3912  34.362  18.757   2.278
38653W        W 3913  24.257  26.026  14.705
38654W        W 3914  33.864  11.714  10.729
38655W        W 3915  37.036  15.856  14.944
38656W        W 3916   9.165  11.687   0.109
38657W        W 3917  14.669  41.859  12.800
38658W        W 3918  31.973  10.677  11.885
38659W        W 3919  12.619  18.686  14.872
38660W        W 3920   9.729  18.831  11.557
38661W        W 3921   2.070  18.748   3.762
38662W        W 3922  32.391  11.357   0.942
38663W        W 3923  19.641  25.249   4.065
38664W        W 3924  15.019  40.260  12.288
38665W        W 3925  41.486   6.713   2.265
38666W        W 3926  42.836   0.516   2.874
38667W        W 3927   6.675  27.525   0.474
38668W        W 3928  44.996  29.919   4.114
38669W        W 3929   3.763  18.607   3.130
38670W        W 3930   1.278  28.951  11.960
38671W        W 3931   8.281   6.684  12.201
38672W        W 3932   5.311  42.914  12.049
38673W        W 3933  20.571   2.064  12.620
38674W        W 3934  24.096  24.038  14.833
38675W        W 3935  15.689   7.492   2.752
38676W        W 3936   3.776  29.566   4.536
38677W        W 3937   8.171  25.004   2.157
38678W        W 3938  19.738  24.389  14.306
38679W        W 3939  19.125  11.248   4.186
38680W        W 3940  39.346  31.978   3.022
38681W        W 3941  22.129  29.560  12.988
38682W        W 3942   0.181  41.594  12.127
38683W        W 3943  43.728  24.503   2.294
38684W        W 3944  40.793  39.009  13.492
38685W        W 3945  16.494  36.014  11.481
38686W        W 3946   2.390  24.295   1.840
38687W        W 3947  34.598  18.200   4.201
38688W        W 3948  27.475  32.966   2.246
38689W        W 3949  35.634  32.473  11.512
38690W        W 3950  14.584  27.080  11.105
38691W        W 3951   7.382   9.441   1.901
38692W        W 3952  30.486  35.583   2.565
38693W        W 3953  16.702  34.665   0.902
38694W        W 3954  25.223  13.644  10.684
38695W        W 3955   1.094  35.770   4.570
38696W        W 3956  28.187   7.771   1.887
38697W        W 3957  39.797  15.751  13.448
38698W        W 3958   8.383  24.323   9.898
38699W        W 3959  43.151  24.594   3.289
38700W        W 3960  39.112  32.807  14.500
38701W        W 3961  33.813  26.616   2.667
38702W        W 3962  23.660  28.114  14.068
38703W        W 3963  20.572   3.336   1.295
38704W        W 3964  39.605  35.310   2.881
38705W        W 3965   7.325  25.166  14.365
38706W        W 3966   5.440  21.631  14.442
38707W        W 3967   0.311  16.108   4.382
38708W        W 3968  37.379  11.215   2.368
38709W        W 3969   5.238  35.064  12.446
38710W        W 3970   4.867  11.684   4.977
38711W        W 3971  44.437  28.821  14.127
38712W        W 3972  43.262  40.029  14.401
38713W        W 3973   9.660  11.139  11.840
38714W        W 3974  36.143  23.155  13.508
38715W        W 3975  29.366  16.024   3.060
38716W        W 3976   1.477  21.957   1.234
38717W        W 3977  30.604   3.459  12.946
38718W        W 3978  29.977  19.965   3.639
38719W        W 3979  38.232  31.023   2.630
38720W        W 3980   5.624  27.934   0.003
38721W        W 3981  23.811  32.032   0.281
38722W        W 3982  14.383  27.599   3.665
38723W        W 3983  17.268   7.789  12.507
38724W        W 3984  28.968   6.685  12.487
38725W        W 3985   7.368  43.429   1.598
38726W        W 3986   4.448  35.471  12.722
38727W        W 3987  10.867  16.958  14.762
38728W        W 3988  37.077  30.472  14.465
38729W        W 3989  19.231  16.128   1.905
38730W        W 3990  22.462   3.299  10.209
38731W        W 3991   9.006  28.047   2.294
38732W        W 3992  36.154  17.580  11.173
38733W        W 3993  42.813   6.156   5.383
38734W        W 3994   4.237  33.399   1.373
38735W        W 3995  43.340  12.772   1.412
38736W        W 3996   3.389   2.841   0.349
38737W        W 3997  28.501  39.931   1.155
38738W        W 3998  13.272  36.421  12.698
38739W        W 3999  43.286   5.050   4.252
38740W        W 4000  15.658  15.290   2.692
38741W        W 4001  21.618  23.762   2.770
38742W        W 4002   1.802  36.599   2.850
38743W        W 4003  44.962  22.069   1.852
38744W        W 4004   5.357  13.093  13.524
38745W        W 4005  39.259   9.332   4.624
38746W        W 4006  32.885  39.813  10.834
38747W        W 4007  43.777  35.147  11.637
38748W        W 4008  22.991  12.516  12.586
38749W        W 4009  19.896  15.258  13.298
38750W        W 4010  14.917  12.703   2.744
38751W        W 4011   6.380  32.001   5.089
38752W        W 4012  33.326  35.813   0.026
38753W        W 4013  33.639  41.435   0.772
38754W        W 4014  36.932   2.209   0.426
38755W        W 4015  44.485  11.692   0.823
38756W        W 4016  42.842   6.823  12.137
38757W        W 4017  42.912  35.839  14.959
38758W        W 4018  21.814  31.090   4.479
38759W        W 4019  42.406  28.898  13.851
38760W        W 4020  37.403   9.630  11.017
38761W        W 4021  23.780  37.913  13.091
38762W        W 4022  39.065  43.124  12.075
38763W        W 4023  25.453   1.827  11.086
38764W        W 4024  36.600   2.993   1.397
38765W        W 4025  16.257   7.062  11.060
38766W        W 4026   8.246  12.313  13.755
38767W        W 4027  44.262   6.225  14.968
38768W        W 4028  20.655   4.499   1.302
38769W        W 4029  18.676  12.426   2.820
38770W        W 4030  27.525  27.132  12.583
38771W        W 4031   3.531   8.345   1.210
38772W        W 4032  41.295  16.132   3.358
38773W        W 4033  40.439  42.325  11.185
38774W        W 4034   5.179   7.718  12.361
38775W        W 4035  11.306   5.745   1.202
38776W        W 4036   6.748  11.784   3.811
38777W        W 4037   5.463  39.007  11.183
38778W        W 4038   6.510   0.932   4.150
38779W        W 4039  14.655   8.112  13.587
38780W        W 4040  38.841  10.583  13.967
38781W        W 4041  19.425   9.434   9.907
38782W        W 4042  20.911  28.068   1.325
38783W        W 4043   5.669  31.398   1.633
38784W        W 4044   7.011  16.288  13.430
38785W        W 4045  40.988  27.204  11.038
38786W        W 4046   2.874  39.525   4.645
38787W        W 4047   7.587  33.403   2.329
38788W        W 4048  15.076  13.977  14.090
38789W        W 4049  43.376  40.275  11.541
38790W        W 4050  42.107  17.174  14.840
38791W        W 4051  23.057  16.556   3.375
38792W        W 4052  20.786  43.205  12.932
38793W        W 4053  28.939  31.588  14.558
38794W        W 4054  34.207  36.871  11.966
38795W        W 4055  21.285  15.312  12.951
38796W        W 4056  37.849  26.990   2.233
38797W        W 4057  24.042  24.691   3.579
38798W        W 4058  43.957  27.110  11.636
38799W        W 4059  13.130   5.888   3.605
38800W        W 4060  33.151  27.093   2.377
38801W        W 4061  38.621  16.601  11.106
38802W        W 4062  28.488   6.297   4.558
38803W        W 4063  32.457   9.851   3.151
38804W        W 4064  22.306  26.174   2.580
38805W        W 4065  39.164  36.375  14.390
38806W        W 4066  28.158  41.068  13.505
38807W        W 4067  14.603  37.030  12.088
38808W        W 4068   0.474  37.571   0.187
38809W        W 4069  39.670  10.004  13.034
38810W        W 4070  21.678  22.600  11.022
38811W        W 4071  43.232  26.066   1.868
38812W        W 4072  40.081  21.958   2.393
38813W        W 4073  39.882  10.869  10.556
38814W        W 4074  26.678  13.644  13.823
38815W        W 4075  21.135   9.366   2.565
38816W        W 4076   5.883  39.335   4.071
38817W        W 4077   8.370  37.118  12.530
38818W        W 4078  17.055   2.937   3.719
38819W        W 4079   3.039   9.723   3.681
38820W        W 4080   1.424   5.709   2.411
38821W        W 4081  19.460   4.881   4.098
38822W        W 4082   4.250   9.606   1.679
38823W        W 4083  35.149   6.776   2.678
38824W        W 4084  42.471  10.403  14.011
38825W        W 4085  35.649  39.103   2.763
38826W        W 4086  11.361  35.406  12.119
38827W        W 4087   0.379  20.052  12.836
38828W        W 4088  32.871   3.863   2.639
38829W        W 4089  14.703  27.050  11.599
38830W        W 4090   3.196   1.279   0.358
38831W        W 4091   6.876   0.709   3.295
38832W        W 4092  18.554  27.101   0.904
38833W        W 4093   3.606   7.777  12.429
38834W        W 4094  15.127  26.841   2.848
38835W        W 4095   0.093   1.836  12.506
38836W        W 4096  22.985   0.410  12.460
38837W        W 4097  33.414  20.063  13.479
38838W        W 4098  19.927  36.594  13.541
38839W        W 4099   1.324  16.210   1.475
38840W        W 4100  26.625  30.343   0.098
38841W        W 4101  28.478  21.854  13.882
38842W        W 4102   6.708   8.874   2.826
38843W        W 4103   5.310  19.103   1.414
38844W        W 4104   3.312  33.073  13.373
38845W        W 4105   1.939  10.992  12.175
38846W        W 4106  12.711   8.563  12.922
38847W        W 4107  29.661  35.841  10.696
38848W        W 4108  35.393  32.923  10.711
38849W        W 4109   4.700  30.686   1.923
38850W        W 4110  18.041  28.440  12.813
38851W        W 4111  12.017  28.350  14.748
38852W        W 4112  30.437  20.803  12.093
38853W        W 4113  25.968   6.834   3.070
38854W        W 4114  19.136  13.215  11.700
38855W        W 4115  14.449  10.331   0.138
38856W        W 4116  33.035   1.900   3.840
38857W        W 4117   0.397   9.387   3.678
38858W        W 4118  21.107   7.502  14.445
38859W        W 4119   5.301  25.745  14.989
38860W        W 4120  29.948  28.653  14.758
38861W        W 4121   1.325  15.931   1.926
38862W        W 4122  40.216  10.217   4.230
38863W        W 4123  30.013  32.440   0.646
38864W        W 4124  15.773  34.018  11.171
38865W        W 4125  30.479  20.111  13.401
38866W        W 4126  21.934  31.000   1.739
38867W        W 4127  12.732  31.771   3.213
38868W        W 4128  33.960   3.201   5.056
38869W        W 4129  16.642  36.904   0.910
38870W        W 4130  28.625  31.432  14.165
38871W        W 4131  11.859   9.214   3.491
38872W        W 4132  28.590  25.725   1.606
38873W        W 4133  33.654  37.268  14.908
38874W        W 4134   5.885  16.196   0.220
38875W        W 4135  29.537  30.952  12.979
38876W        W 4136  10.736  19.119   2.288
38877W        W 4137  19.738  43.250  12.941
38878W        W 4138  40.362  11.781   1.902
38879W        W 4139  31.157  24.226   2.598
38880W        W 4140   1.869  28.046  14.564
38881W        W 4141  34.607  13.047  13.486
38882W        W 4142  35.489  13.073  12.159
38883W        W 4143  43.590  34.906  13.892
38884W        W 4144  32.571   8.225  14.742
38885W        W 4145  18.547  26.703  14.037
38886W        W 4146   3.778  23.187   0.852
38887W        W 4147  22.758  35.342  11.766
38888W        W 4148  24.131  38.924  11.590
38889W        W 4149  14.816  24.551  13.353
38890W        W 4150  24.513  14.139  13.370
38891W        W 4151  30.720  22.847   3.756
38892W        W 4152  40.099  43.501   1.921
38893W        W 4153  31.467  20.255  14.223
38894W        W 4154  20.745  17.963   3.007
38895W        W 4155  33.230   1.730  13.611
38896W        W 4156   4.870  11.721  14.845
38897W        W 4157  33.576  44.758  10.070
38898W        W 4158   1.144  35.171  11.199
38899W        W 4159   0.597  15.697   5.676
38900W        W 4160  36.950  17.219   1.165
38901W        W 4161  20.647  32.783   4.044
38902W        W 4162  15.279  21.177   1.240
38903W        W 4163  22.941  15.482  12.079
38904W        W 4164  36.400  36.095   0.787
38905W        W 4165  33.507  15.779  13.855
38906W        W 4166  14.067  18.388  11.251
38907W        W 4167   8.988  39.173   3.014
38908W        W 4168  37.352  17.859   4.679
38909W        W 4169  23.000  37.624  10.290
38910W        W 4170  33.524  29.980  12.620
38911W        W 4171  18.763  27.437  10.939
38912W        W 4172  44.890  12.757  14.364
38913W        W 4173   0.480  14.098  11.049
38914W        W 4174  36.964  33.991   2.219
38915W        W 4175  35.932  29.731   3.712
38916W        W 4176   5.659  18.732  14.845
38917W        W 4177  22.127  28.867  11.899
38918W        W 4178  40.006  19.226   3.368
38919W        W 4179   5.846  15.882  12.491
38920W        W 4180  32.539   2.558   3.768
38921W        W 4181  33.634  43.873   2.852
38922W        W 4182  23.355  38.081  11.251
38923W        W 4183  38.622  33.545  13.079
38924W        W 4184  25.028   1.749  10.787
38925W        W 4185  44.245  27.264   3.688
38926W        W 4186  35.104  31.678   1.361
38927W        W 4187  33.446  14.148  10.759
38928W        W 4188  25.644   2.140  12.534
38929W        W 4189  27.536   8.816  13.236
38930W        W 4190  38.586  42.233  11.984
38931W        W 4191   3.648  36.155   4.288
38932W        W 4192   0.883  42.584   0.848
38933W        W 4193  31.597  36.366   1.448
38934W        W 4194  16.689  13.306  10.736
38935W        W 4195  34.546  35.319  12.854
38936W        W 4196   9.563  29.123   1.416
38937W        W 4197  28.777  22.549   4.742
38938W        W 4198  31.890   3.530  13.515
38939W        W 4199  44.509  28.970   0.911
38940W        W 4200  27.798  27.486   2.860
38941W        W 4201  31.461  43.914   2.427
38942W        W 4202  37.509   5.992  12.337
38943W        W 4203  38.737  41.281  11.863
38944W        W 4204  20.456  15.256   0.861
38945W        W 4205  41.819  44.489   3.200
38946W        W 4206  20.644  17.443  10.186
38947W        W 4207  19.203   4.720  13.539
38948W        W 4208   4.277  25.494  13.007
38949W        W 4209  31.468   9.399   3.219
38950W        W 4210  33.958   8.192   3.156
38951W        W 4211  15.172   0.500   1.217
38952W        W 4212  31.476  10.456  11.355
38953W        W 4213  17.747   6.282  11.657
38954W        W 4214   7.437  18.698   2.237
38955W        W 4215   8.453  10.943  13.965
38956W        W 4216   3.377  18.112   0.479
38957W        W 4217   2.860  27.613   9.719
38958W        W 4218   5.715  19.536  11.596
38959W        W 4219  43.093  15.757   3.407
38960W        W 4220   2.820  35.378   2.242
38961W        W 4221  23.029   7.930   2.903
38962W        W 4222  27.121  15.383  11.635
38963W        W 4223   6.316   2.833   0.458
38964W        W 4224  37.933  42.295   4.412
38965W        W 4225  18.293  18.718  14.437
38966W        W 4226  40.446  28.948   3.023
38967W        W 4227  10.386  24.618  10.690
38968W        W 4228   6.435  31.400  10.805
38969W        W 4229  37.915  31.869  14.087
38970W        W 4230  22.687   3.162   0.928
38971W        W 4231  26.442  13.086   2.865
38972W        W 4232  27.943   3.462  14.338
38973W        W 4233  35.295  40.932  12.759
38974W        W 4234  35.946  32.965   4.279
38975W        W 4235  36.589   2.765  14.925
38976W        W 4236  24.486   7.205   2.611
38977W        W 4237  27.655  14.327   2.324
38978W        W 4238  37.240   5.523  14.556
38979W        W 4239  35.596  40.805   0.013
38980W        W 4240   5.566  17.960   1.934
38981W        W 4241  27.916  31.208   2.715
38982W        W 4242  13.961  34.030  14.981
38983W        W 4243  30.551  33.615   0.947
38984W        W 4244   1.976  43.547   0.566
38985W        W 4245   0.749  32.116  11.750
38986W        W 4246  44.367  39.021  13.845
38987W        W 4247  37.234  40.843  11.330
38988W        W 4248  36.512  12.101  13.989
38989W        W 4249  36.974  31.116  11.835
38990W        W 4250   7.999   4.897   0.319
38991W        W 4251  40.328  34.404   0.381
38992W        W 4252  23.957   8.137   2.689
38993W        W 4253  11.093   5.609   5.006
38994W        W 4254  37.464  40.122  12.602
38995W        W 4255  27.428  18.757   0.299
38996W        W 4256  27.589  41.502   4.107
38997W        W 4257  23.292  37.483  13.954
38998W        W 4258  23.471   4.672  13.995
38999W        W 4259  27.478  11.395   0.495
39000W        W 4260  41.323  18.892   2.822
39001W        W 4261  33.033  32.890   3.240
39002W        W 4262  15.885  14.155  12.091
39003W        W 4263   6.191   5.978  12.504
39004W        W 4264  10.901  29.438  13.877
39005W        W 4265  17.036  32.305   2.640
39006W        W 4266  35.497  22.544  11.621
39007W        W 4267  41.798  41.071   2.157
39008W        W 4268  31.032  26.590   1.316
39009W        W 4269   5.351  33.902   3.669
39010W        W 4270  37.203  42.403   0.721
39011W        W 4271  30.959   2.475   1.339
39012W        W 4272  38.115  30.540   4.464
39013W        W 4273  41.926  27.043   2.470
39014W        W 4274   8.212  29.503  13.794
39015W        W 4275  27.606  15.176   0.383
39016W        W 4276  38.518   6.249   1.475
39017W        W 4277   6.507  11.671   3.014
39018W        W 4278  28.894  25.596   2.375
39019W        W 4279  22.767  30.364   1.744
39020W        W 4280  31.699   1.772   0.247
39021W        W 4281   4.784  38.309  10.218
39022W        W 4282  27.033  32.416  11.931
39023W        W 4283  35.123  13.552  14.395
39024W        W 4284  17.346  27.685   2.516
39025W        W 4285  13.578   9.952  14.913
39026W        W 4286  32.938  44.178  14.624
39027W        W 4287   4.738  15.500   0.026
39028W        W 4288  29.924  29.090   1.849
39029W        W 4289  37.931  41.530   1.955
39030W        W 4290   9.860  22.359  11.682
39031W        W 4291  41.845  17.022   4.644
39032W        W 4292  18.170  18.339   0.713
39033W        W 4293  17.386  30.858   4.122
39034W        W 4294  13.758  29.507  13.821
39035W        W 4295  29.694  19.644  12.058
39036W        W 4296  26.284  44.255  14.739
39037W        W 4297  17.786   9.129   4.131
39038W        W 4298  42.347  19.408   2.838
39039W        W 4299  23.138  42.458  14.320
39040W        W 4300  33.777   9.248   3.114
39041W        W 4301  43.169  17.774  11.046
39042W        W 4302   3.428  23.804   2.415
39043W        W 4303  19.450  13.300   0.158
39044W        W 4304   0.767   2.752   2.435
39045W        W 4305   4.778  26.063   4.628
39046W        W 4306  12.879  18.027  10.303
39047W        W 4307  32.352  19.448   1.120
39048W        W 4308  18.825  22.406  13.801
39049W        W 4309  33.754  25.416  11.666
39050W        W 4310  36.565  17.560  11.459
39051W        W 4311  18.574  33.214  14.648
39052W        W 4312   3.198  11.612  13.453
39053W        W 4313   1.139  24.045  14.775
39054W        W 4314  36.293  43.851  11.599
39055W        W 4315  37.945   7.816  14.077
39056W        W 4316  14.383  24.711   4.088
39057W        W 4317  40.391  34.018   3.930
39058W        W 4318  38.950  39.797  10.610
39059W        W 4319  44.492   7.680  12.259
39060W        W 4320   7.665  23.042  10.753
39061W        W 4321  17.274   9.450  11.709
39062W        W 4322   1.393  20.704   0.016
39063W        W 4323  24.506  22.115  13.918
39064W        W 4324   9.481  28.005   4.479
39065W        W 4325   7.649  38.774   4.552
39066W        W 4326  44.318   7.411  10.858
39067W        W 4327  23.318  12.730  12.969
39068W        W 4328  17.886  20.273  11.683
39069W        W 4329  14.174  32.615  11.276
39070W        W 4330  35.532   4.127  12.809
39071W        W 4331  14.277  23.178   4.947
39072W        W 4332  30.901  20.555   0.476
39073W        W 4333  20.505  42.494  11.244
39074W        W 4334  24.990   6.873   3.868
39075W        W 4335  14.546  37.603  13.292
39076W        W 4336   4.185  36.290  13.851
39077W        W 4337  26.966  34.594   4.723
39078W        W 4338  23.541   5.437  11.552
39079W        W 4339  37.193  34.461   2.217
39080W        W 4340  30.129   0.280   4.294
39081W        W 4341   1.493  38.323  14.892
39082W        W 4342  44.445   7.175  12.144
39083W        W 4343  17.388  28.033   3.343
39084W        W 4344  26.517   9.801   4.952
39085W        W 4345  33.828  44.247  12.236
39086W        W 4346   2.435  35.434   3.795
39087W        W 4347  13.442  34.884  14.173
39088W        W 4348  44.333  23.922   2.347
39089W        W 4349  36.114  16.700  14.574
39090W        W 4350  43.825  36.947  11.184
39091W        W 4351  15.364  14.432   3.144
39092W        W 4352  37.295  20.754   4.875
39093W        W 4353  16.730  14.271   4.796
39094W        W 4354  38.916   6.493   2.714
39095W        W 4355  26.454   7.352  14.897
39096W        W 4356   4.677  40.030   0.878
39097W        W 4357  14.297   2.629  13.087
39098W        W 4358   0.821  35.318  10.838
39099W        W 4359  28.678   7.159   3.856
39100W        W 4360  31.394  14.175  14.015
39101W        W 4361   8.738  24.575  12.166
39102W        W 4362  33.221  29.744   0.291
39103W        W 4363  19.860  21.654   2.886
39104W        W 4364  34.549  39.939  14.316
39105W        W 4365  33.932  33.911   2.064
39106W        W 4366  22.154  25.695  14.306
39107W        W 4367  21.286   7.626   4.556
39108W        W 4368  11.916  11.358   4.165
39109W        W 4369  37.500  12.861  12.007
39110W        W 4370  16.745   0.707   1.679
39111W        W 4371   0.226  17.774  14.100
39112W        W 4372   2.928   1.415  13.729
39113W        W 4373  27.331  21.242  10.774
39114W        W 4374  26.464  25.182   3.788
39115W        W 4375  18.579  12.818   3.671
39116W        W 4376  39.872  41.982   3.095
39117W        W 4377  10.286  10.664  12.907
39118W        W 4378  41.247  42.615   5.033
39119W        W 4379  11.751  35.723   1.824
39120W        W 4380  42.752   3.817  13.385
39121W        W 4381   0.429   0.265   0.514
39122W        W 4382  11.466  26.839   5.192
39123W        W 4383  43.881  38.731  14.326
39124W        W 4384  15.337   0.305   1.780
39125W        W 4385  11.668  13.736  11.926
39126W        W 4386  36.480   4.026   0.458
39127W        W 4387  37.601  24.852   3.427
39128W        W 4388   1.853  39.597   0.792
39129W        W 4389  32.521  12.822   0.708
39130W        W 4390  31.247   8.875   2.667
39131W        W 4391   5.452  24.620  13.801
39132W        W 4392  27.699  37.571  14.686
39133W        W 4393   8.448   0.264  10.761
39134W        W 4394  33.167  43.827   0.684
39135W        W 4395  17.372  36.506  13.782
39136W        W 4396  33.380   3.211  11.569
39137W        W 4397   3.469  12.873   4.119
39138W        W 4398   3.935  32.391   0.481
39139W        W 4399  33.900  11.056   4.418
39140W        W 4400  32.006  30.062  10.711
39141W        W 4401  12.828  24.476   4.367
39142W        W 4402  21.183  32.123  14.837
39143W        W 4403   8.261   8.568   2.357
39144W        W 4404  44.740   4.836  10.343
39145W        W 4405  18.642  29.673  10.743
39146W        W 4406  14.613  21.032  14.249
39147W        W 4407   8.905  37.171   3.573
39148W        W 4408   9.690  42.396  10.650
39149W        W 4409   6.095   6.468   4.651
39150W        W 4410  10.882   3.008   3.712
39151W        W 4411   6.142  34.079   3.130
39152W        W 4412  16.837  32.003   4.040
39153W        W 4413  11.070  18.294  12.070
39154W        W 4414  16.171  32.113  11.925
39155W        W 4415  22.121  29.660   2.739
39156W        W 4416  40.136  40.065   1.978
39157W        W 4417  28.513  18.252   2.804
39158W        W 4418  11.560   8.901   3.239
39159W        W 4419  43.304   0.340   2.359
39160W        W 4420  12.191  34.630   1.328
39161W        W 4421  30.110   2.846   0.818
39162W        W 4422   0.691  14.280  14.530
39163W        W 4423  35.843  32.752  14.246
39164W        W 4424  22.217  24.077  13.276
39165W        W 4425   8.711  43.917   2.814
39166W        W 4426  19.825   6.822  14.516
39167W        W 4427  40.116  44.197   2.305
39168W        W 4428  44.818  27.971  12.060
39169W        W 4429  22.740  27.540   2.722
39170W        W 4430   4.338   1.513  10.699
39171W        W 4431  31.854   2.580   2.215
39172W        W 4432   4.928  26.920   1.362
39173W        W 4433  16.566  25.919  13.486
39174W        W 4434  38.563  39.464  11.880
39175W        W 4435   4.916  19.404   0.317
39176W        W 4436  23.654  12.258  12.532
39177W        W 4437   2.820   3.781   2.283
39178W        W 4438  32.342   3.426   2.238
39179W        W 4439  34.339  42.825   2.758
39180W        W 4440  36.120  39.586  12.205
39181W        W 4441  14.261  12.058   2.381
39182W        W 4442   9.442  42.223   0.326
39183W        W 4443  23.022  34.573  12.006
39184W        W 4444  29.817  21.515  12.503
39185W        W 4445  41.790  16.703  13.459
39186W        W 4446  30.208  25.717   1.620
39187W        W 4447  28.417  25.774   4.969
39188W        W 4448  13.840   1.901  14.976
39189W        W 4449  35.226  15.817  11.528
39190W        W 4450  44.836  38.028  10.648
39191W        W 4451  17.761  37.932   0.401
39192W        W 4452  36.910  37.614   4.635
39193W        W 4453  27.138  29.862   2.274
39194W        W 4454  23.588  16.035   1.373
39195W        W 4455  25.703  25.681   4.582
39196W        W 4456  10.405  14.294   3.227
39197W        W 4457  29.659   4.655  12.959
39198W        W 4458  24.919  15.798   2.521
39199W        W 4459  40.307  36.412  10.373
39200W        W 4460  26.463  28.932   0.236
39201W        W 4461  38.788  10.818  14.485
39202W        W 4462  21.257  37.817   1.842
39203W        W 4463   9.526  21.138   3.563
39204W        W 4464  41.106  22.062   4.247
39205W        W 4465  36.986  33.345   2.755
39206W        W 4466   1.619  11.336   5.086
39207W        W 4467  19.053  40.885   3.349
39208W        W 4468  10.857  44.815   0.206
39209W        W 4469  29.684  22.211  13.347
39210W        W 4470   5.911  21.997  12.018
39211W        W 4471  39.395  13.258   0.725
39212W        W 4472  39.886  25.864  13.122
39213W        W 4473  14.814   3.842  12.869
39214W        W 4474  14.649  33.382  12.922
39215W        W 4475  14.728   6.822   9.673
39216W        W 4476  40.372   5.790   4.609
39217W        W 4477  36.659  14.566   0.303
39218W        W 4478  25.096   0.876   3.709
39219W        W 4479  10.163  10.359  12.435
39220W        W 4480  39.793  16.647  13.553
39221W        W 4481   9.497  26.715  10.669
39222W        W 4482  33.878  30.990   4.168
39223W        W 4483  32.543  29.438   1.847
39224W        W 4484  38.048  40.224   1.210
39225W        W 4485  38.122  38.460  13.376
39226W        W 4486   5.433   2.811   0.826
39227W        W 4487  26.214  43.043   0.383
39228W        W 4488  26.958   9.706  13.364
39229W        W 4489   4.793  33.610   4.634
39230W        W 4490   7.270   1.809  14.283
39231W        W 4491   8.078   3.460   0.696
39232W        W 4492  31.388  21.559  10.489
39233W        W 4493  33.885  19.318  13.266
39234W        W 4494  41.922   0.372  11.171
39235W        W 4495  36.372  34.669   4.574
39236W        W 4496   0.670  30.007   2.056
39237W        W 4497  28.669  19.617   4.399
39238W        W 4498   3.425  35.052   2.687
39239W        W 4499   0.995  30.967  11.343
39240W        W 4500  33.862  30.199   4.523
39241W        W 4501   9.797  15.503   2.864
39242W        W 4502  40.514  40.355   3.596
39243W        W 4503  14.094  26.315   4.010
39244W        W 4504  22.894  41.487  14.931
39245W        W 4505  25.494  10.684  13.524
39246W        W 4506   7.777   0.215   3.133
39247W        W 4507  37.625  12.170  14.526
39248W        W 4508   4.234   0.683  13.478
39249W        W 4509  10.114  19.266   3.685
39250W        W 4510  34.054   7.841   1.387
39251W        W 4511  44.404  14.078   0.103
39252W        W 4512  21.806  38.656   1.450
39253W        W 4513  37.397  44.929   4.526
39254W        W 4514   8.180   1.216   3.790
39255W        W 4515  18.372  14.250  12.542
39256W        W 4516   4.827   1.015  13.145
39257W        W 4517  12.216  29.919  13.989
39258W        W 4518  30.399   9.965   1.702
39259W        W 4519  24.234  28.444   3.919
39260W        W 4520  43.210  37.460  12.109
39261W        W 4521  37.056  26.509   3.239
39262W        W 4522  23.131  19.759   2.634
39263W        W 4523   4.165  35.438   4.327
39264W        W 4524  20.403   7.353   0.459
39265W        W 4525  38.337  25.670   4.358
39266W        W 4526   6.887  42.360  14.469
39267W        W 4527  36.430  41.253  12.894
39268W        W 4528   8.142  11.232   1.352
39269W        W 4529   9.200  31.444   0.346
39270W        W 4530   4.773  40.597   3.665
39271W        W 4531   4.375  43.718   1.069
39272W        W 4532  19.031   3.734   0.100
39273W        W 4533  29.424  20.117   4.726
39274W        W 4534  14.592  31.916  14.094
39275W        W 4535   9.766  41.418  13.289
39276W        W 4536  25.422  41.388   1.240
39277W        W 4537  26.648  26.303   1.054
39278W        W 4538  42.513  40.105  11.700
39279W        W 4539  36.033  32.386   4.962
39280W        W 4540  29.748  18.530  12.646
39281W        W 4541  27.396   6.255  10.608
39282W        W 4542   1.290  30.165  14.846
39283W        W 4543  27.214  13.698  13.901
39284W        W 4544  15.339   6.167   2.700
39285W        W 4545   6.293   0.815  11.854
39286W        W 4546  28.213  36.426  10.446
39287W        W 4547   8.403  17.251  11.613
39288W        W 4548  30.132   4.722  11.648
39289W        W 4549  26.659  12.003   0.305
39290W        W 4550  30.681   7.972   5.022
39291W        W 4551  21.582  26.453   2.164
39292W        W 4552  24.777  24.039  14.208
39293W        W 4553  30.660  41.848  11.916
39294W        W 4554  20.275  22.121  13.605
39295W        W 4555  37.900  22.472   2.317
39296W        W 4556   9.598  40.025  13.787
39297W        W 4557  19.152  31.863  11.125
39298W        W 4558  23.250  41.838  12.346
39299W        W 4559  35.530  16.670   2.123
39300W        W 4560  42.368  11.925  13.992
39301W        W 4561  17.714  27.450  12.023
39302W        W 4562  28.602  23.090  11.175
39303W        W 4563  37.156  39.286  11.924
39304W        W 4564  12.335  36.645   3.306
39305W        W 4565  23.153  19.282   2.896
39306W        W 4566  29.659  19.342   2.264
39307W        W 4567  11.352  27.569   3.891
39308W        W 4568   9.790  19.491  14.863
39309W        W 4569  27.199   9.211   4.819
39310W        W 4570  28.976   7.379   2.306
39311W        W 4571  14.193  12.284   1.892
39312W        W 4572   1.663  10.277  13.510
39313W        W 4573  42.240  18.070   0.413
39314W        W 4574  22.118  28.312  11.660
39315W        W 4575  40.744   2.230   2.871
39316W        W 4576  34.729  19.512  11.208
39317W        W 4577  20.895  26.813  14.847
39318W        W 4578  17.247   7.246  11.120
39319W        W 4579  16.113  29.280  12.495
39320W        W 4580  23.277   4.009  13.374
39321W        W 4581  31.291   6.688   4.534
39322W        W 4582  34.966  27.209   0.061
39323W        W 4583  42.258  32.016   3.868
39324W        W 4584  28.764  41.312  12.893
39325W        W 4585  20.707  31.913  14.954
39326W        W 4586  44.421  16.255   0.290
39327W        W 4587  10.112  38.069   3.745
39328W        W 4588  36.085  35.076  12.171
39329W        W 4589  37.557  23.904   0.480
39330W        W 4590  18.623  21.007  12.569
39331W        W 4591   6.456  37.997   4.177
39332W        W 4592  29.615  16.871  11.609
39333W        W 4593  30.795  32.087   4.303
39334W        W 4594  35.038  12.668   4.630
39335W        W 4595  13.112  17.239   2.625
39336W        W 4596  12.439   2.607  11.266
39337W        W 4597   3.181  42.763  13.458
39338W        W 4598   8.094  20.851  12.369
39339W        W 4599  26.045  31.635  11.968
39340W        W 4600  15.028  13.329  12.949
39341W        W 4601  37.124   7.881  14.535
39342W        W 4602  39.991  31.131  13.922
39343W        W 4603  31.692  23.534  14.037
39344W        W 4604   4.097   2.025  12.568
39345W        W 4605   7.917  20.185   3.141
39346W        W 4606  17.482  10.805  13.841
39347W        W 4607  38.390   2.844  11.946
39348W        W 4608  39.631   6.970  12.179
39349W        W 4609  37.038  12.392  10.657
39350W        W 4610   4.834  10.293  14.077
39351W        W 4611   8.227  11.700  10.768
39352W        W 4612  22.261  27.814  10.831
39353W        W 4613  43.529   2.874  12.792
39354W        W 4614   6.168   0.316   4.517
39355W        W 4615  21.513  31.313   4.063
39356W        W 4616  27.709  29.503  14.898
39357W        W 4617   2.377  37.390  14.061
39358W        W 4618  38.059  18.040  13.463
39359W        W 4619  20.661  12.332  13.949
39360W        W 4620  38.057  37.053  14.200
39361W        W 4621  14.097  35.080  12.871
39362W        W 4622  19.497   3.748   1.988
39363W        W 4623  34.630  28.468   3.706
39364W        W 4624  15.723  19.363  13.845
39365W        W 4625  36.191  38.485  12.021
39366W        W 4626  33.223  35.937   9.941
39367W        W 4627  43.947  30.481   1.489
39368W        W 4628  41.868   5.197  11.987
39369W        W 4629  28.664   5.888   1.465
39370W        W 4630  25.923  33.532  11.598
39371W        W 4631  20.821   6.730  14.316
39372W        W 4632  40.617  30.379  11.848
39373W        W 4633  17.557  44.887   1.002
39374W        W 4634  32.882  32.592  14.387
39375W        W 4635  28.669   3.823   0.013
39376W        W 4636  41.308   7.957  14.675
39377W        W 4637  30.510  40.140  14.001
39378W        W 4638  26.811  17.819   3.637
39379W        W 4639  23.098  12.734  12.069
39380W        W 4640  29.220   3.754   3.259
39381W        W 4641  44.854  13.319  12.200
39382W        W 4642  30.494  34.721  11.388
39383W        W 4643  19.068   6.070   1.266
39384W        W 4644  41.007   9.577  11.526
39385W        W 4645   0.798  37.745  13.125
39386W        W 4646  40.872   2.516  13.906
39387W        W 4647  15.700  41.088  10.225
39388W        W 4648   1.857  22.304  12.915
39389W        W 4649   7.816  11.681   2.626
39390W        W 4650  14.086  21.956   3.671
39391W        W 4651  34.439   9.188   1.403
39392W        W 4652  23.462  22.607  11.559
39393W        W 4653  17.877  17.971  12.983
39394W        W 4654  35.888  20.992  14.504
39395W        W 4655   9.132  23.602  13.477
39396W        W 4656  44.040   6.728  13.445
39397W        W 4657   3.065   2.996   3.682
39398W        W 4658  34.932  41.331  12.625
39399W        W 4659   7.346  21.435  12.465
39400W        W 4660  28.494  40.284  10.751
39401W        W 4661  18.339   3.870  14.341
39402W        W 4662  36.494   7.987   2.946
39403W        W 4663  44.934  42.765   1.858
39404W        W 4664  25.485  20.767   3.258
39405W        W 4665   1.765  11.834   0.039
39406W        W 4666  11.805  44.131   1.302
39407W        W 4667  31.452  14.684  10.815
39408W        W 4668   3.839   3.470  14.781
39409W        W 4669  43.260  20.671   4.099
39410W        W 4670  43.189   8.592   0.680
39411W        W 4671   6.132  34.835  12.533
39412W        W 4672  33.800   6.859   2.310
39413W        W 4673  10.702  30.111   3.826
39414W        W 4674  39.017  37.406  14.450
39415W        W 4675  43.374  35.228   4.661
39416W        W 4676  16.983   1.677  12.923
39417W        W 4677  18.277  31.828   4.986
39418W        W 4678   8.437  43.417   3.369
39419W        W 4679   1.251  25.142   2.805
39420W        W 4680   8.705  13.564  12.462
39421W        W 4681  12.743  34.741  12.368
39422W        W 4682  21.281  39.380   1.259
39423W        W 4683  25.115  11.874   3.206
39424W        W 4684  44.441   6.443  10.900
39425W        W 4685  39.320  18.729   3.311
39426W        W 4686  12.750  30.041   0.178
39427W        W 4687   0.875  11.512  12.220
39428W        W 4688  25.243  33.156  12.042
39429W        W 4689  25.467  20.113  12.328
39430W        W 4690  31.175   7.897   3.608
39431W        W 4691  27.001  27.983  12.663
39432W        W 4692  14.051  26.224   1.885
39433W        W 4693  41.426   8.084  11.996
39434W        W 4694  43.310  22.689   0.544
39435W        W 4695  31.543  28.154  12.932
39436W        W 4696  36.910  36.517  12.066
39437W        W 4697  19.494  37.833  12.359
39438W        W 4698  12.077   9.915   1.367
39439W        W 4699  41.438   6.735  14.971
39440W        W 4700  10.353  42.952   2.672
39441W        W 4701  34.202   0.887  13.797
39442W        W 4702  34.396  22.074   0.665
39443W        W 4703   0.927   7.224  11.607
39444W        W 4704  43.507  17.492   1.280
39445W        W 4705  28.939  31.566  10.622
39446W        W 4706  18.598  11.167  11.537
39447W        W 4707  42.979  12.474  11.939
39448W        W 4708  34.393  37.340  14.930
39449W        W 4709  11.042  35.062  10.775
39450W        W 4710   5.354   6.884   4.266
39451W        W 4711  31.034  17.045   3.542
39452W        W 4712   9.749  43.788  13.550
39453W        W 4713  18.950  30.444  13.975
39454W        W 4714  15.624  34.584  12.132
39455W        W 4715   3.397  28.408   1.754
39456W        W 4716  23.756  15.627   0.374
39457W        W 4717  43.481  10.770  11.065
39458W        W 4718   2.574  25.652   0.618
39459W        W 4719  29.471  33.238   1.104
39460W        W 4720  30.689  33.588   0.422
39461W        W 4721  35.383   0.042   2.179
39462W        W 4722  23.788  39.025  11.979
39463W        W 4723   3.799   3.784  13.046
39464W        W 4724  19.106  39.912   4.842
39465W        W 4725  24.747  35.303  11.972
39466W        W 4726  25.445  10.369   0.662
39467W        W 4727  43.681   7.601  12.539
39468W        W 4728  25.670   4.226   3.738
39469W        W 4729  24.551  23.059   2.300
39470W        W 4730  17.723  39.039  12.843
39471W        W 4731   6.457  39.115   2.585
39472W        W 4732  19.547   7.402   2.353
39473W        W 4733  33.609   3.886  12.055
39474W        W 4734  18.251  42.373  12.915
39475W        W 4735  40.784  40.586   3.990
39476W        W 4736  20.600  25.021  11.771
39477W        W 4737  31.153  41.980   2.368
39478W        W 4738   8.409  17.219   0.482
39479W        W 4739   8.003   9.294   1.109
39480W        W 4740  35.462   6.722  11.944
39481W        W 4741  28.074   2.725  11.866
39482W        W 4742   2.339  28.163  14.298
39483W        W 4743  18.133  32.941  13.550
39484W        W 4744  15.068  14.618   4.063
39485W        W 4745  31.518  33.569  13.617
39486W        W 4746  14.602  20.807   4.204
39487W        W 4747  40.187  10.570  12.428
39488W        W 4748   7.076  35.002  14.875
39489W        W 4749   3.839  18.227  14.209
39490W        W 4750  36.518  16.577   1.790
39491W        W 4751  38.510   5.718   1.445
39492W        W 4752  33.807  33.001  12.423
39493W        W 4753  34.139  13.566  10.632
39494W        W 4754  31.455  42.872  10.202
39495W        W 4755  43.600  35.955   0.686
39496W        W 4756  11.177  33.619   3.130
39497W        W 4757  42.313  22.174   2.755
39498W        W 4758   2.356  28.364   0.395
39499W        W 4759  21.236  19.315  10.244
39500W        W 4760  12.752  30.167  13.330
39501W        W 4761  44.416  40.401  10.519
39502W        W 4762  39.942  33.935   2.052
39503W        W 4763   7.326  32.338   4.156
39504W        W 4764  33.384  31.442   0.254
39505W        W 4765  23.566  37.376   4.720
39506W        W 4766  10.805  36.331  14.797
39507W        W 4767  18.543  42.617   1.977
39508W        W 4768  28.215  37.460  11.400
39509W        W 4769  15.357  18.252   1.642
39510W        W 4770  41.853  31.417   2.521
39511W        W 4771  21.232   4.931  14.335
39512W        W 4772  35.587  42.843   2.721
39513W        W 4773  21.098  25.530  12.886
39514W        W 4774  17.435  40.335   2.730
39515W        W 4775   5.924   5.210  14.890
39516W        W 4776  19.500  17.839  12.504
39517W        W 4777  29.550   3.328  11.371
39518W        W 4778  44.993   6.635  10.495
39519W        W 4779  40.816  16.972   1.251
39520W        W 4780  41.937  24.049   2.671
39521W        W 4781   6.830  40.333  10.522
39522W        W 4782  11.548  39.973   1.366
39523W        W 4783  25.714  19.610  14.274
39524W        W 4784   7.647   2.005   0.368
39525W        W 4785   6.226  20.938  14.868
39526W        W 4786  44.816  23.334   4.672
39527W        W 4787  38.454  13.360   2.702
39528W        W 4788  25.006  30.380  11.883
39529W        W 4789  21.119  35.829   2.751
39530W        W 4790   7.401   1.679  12.722
39531W        W 4791   4.845  30.198   1.103
39532W        W 4792  24.990  11.203  12.082
39533W        W 4793   2.222  44.725  13.942
39534W        W 4794  14.741   6.676  10.652
39535W        W 4795  35.107   5.678  11.058
39536W        W 4796  34.434  43.462  10.331
39537W        W 4797   7.297  32.348  13.884
39538W        W 4798  10.656   9.023  11.898
39539W        W 4799  37.289  13.855   4.566
39540W        W 4800   5.488  16.250  12.704
39541W        W 4801   5.812   2.454  11.995
39542W        W 4802  40.257  13.335  11.123
39543W        W 4803  20.180  12.454  13.698
39544W        W 4804  12.653  27.779  13.005
39545W        W 4805  23.580  29.013  11.954
39546W        W 4806  40.541   8.688   1.238
39547W        W 4807   7.071  12.061  13.939
39548W        W 4808   4.957  17.964  14.923
39549W        W 4809  32.633  20.678   2.380
39550W        W 4810  41.586   1.696  10.263
39551W        W 4811   1.034  33.650  12.901
39552W        W 4812  36.343  27.432  13.643
39553W        W 4813  19.868   9.943  11.825
39554W        W 4814  11.907  40.051   3.348
39555W        W 4815   2.632  11.383  14.890
39556W        W 4816   1.466  29.422  14.067
39557W        W 4817   2.769  15.218   1.912
39558W        W 4818  36.931   1.139   0.261
39559W        W 4819  32.355   5.221   0.926
39560W        W 4820   4.230   7.857  13.914
39561W        W 4821  10.368  40.927   1.647
39562W        W 4822  10.851  25.712   0.731
39563W        W 4823   7.900  20.186   1.437
39564W        W 4824  25.252  21.593  11.707
39565W        W 4825  33.590  26.737  11.970
39566W        W 4826  39.811  33.570  13.437
39567W        W 4827  11.807  11.264   0.114
39568W        W 4828   8.136   6.310   4.808
39569W        W 4829  24.461  37.789   2.763
39570W        W 4830  37.963  24.506  11.448
39571W        W 4831  32.396  27.298  12.094
39572W        W 4832  33.949  17.876   2.114
39573W        W 4833  27.901  43.232  12.628
39574W        W 4834  12.743  26.497  14.844
39575W        W 4835  32.488   1.289   3.994
39576W        W 4836  10.745  25.510   3.130
39577W        W 4837   6.286  26.046   4.151
39578W        W 4838  26.786  17.157  11.561
39579W        W 4839  33.413  19.063  12.694
39580W        W 4840  13.887  12.354   2.654
39581W        W 4841  18.632  35.350   2.185
39582W        W 4842  11.109  35.440  12.574
39583W        W 4843  16.982  24.954  10.850
39584W        W 4844  27.227  14.736  13.550
39585W        W 4845  36.607  14.759   1.221
39586W        W 4846  27.493  28.441  10.989
39587W        W 4847  38.266  23.132  10.688
39588W        W 4848  25.577  39.242   0.926
39589W        W 4849   1.924  22.780  12.676
39590W        W 4850  44.246   8.215  14.015
39591W        W 4851  32.236  26.766   5.021
39592W        W 4852  23.206  13.222   3.551
39593W        W 4853  39.395   9.230  12.652
39594W        W 4854  24.937   8.731   0.898
39595W        W 4855  19.505  24.006   4.537
39596W        W 4856  42.456   2.191  11.414
39597W        W 4857  36.934  15.017   0.465
39598W        W 4858  11.689  43.530   2.910
39599W        W 4859  11.684   3.230   0.160
39600W        W 4860   3.944  32.182   3.671
39601W        W 4861  15.068  23.913   3.261
39602W        W 4862  19.096  10.889  14.340
39603W        W 4863  33.666  26.287   3.221
39604W        W 4864   8.303  31.409  12.388
39605W        W 4865  35.896  16.012   3.691
39606W        W 4866  42.514  33.303  12.810
39607W        W 4867  30.734  32.865  11.073
39608W        W 4868   4.952   2.479   2.145
39609W        W 4869  31.828  39.958   3.583
39610W        W 4870  24.999  32.715  12.861
39611W        W 4871  40.821  18.540  11.218
39612W        W 4872  18.278  25.597   4.645
39613W        W 4873  25.584  17.283   3.252
39614W        W 4874  24.326  13.360   0.913
39615W        W 4875  13.746  27.417  11.072
39616W        W 4876  21.843  41.095  14.074
39617W        W 4877  27.002   1.495   3.127
39618W        W 4878  36.329  23.286  10.463
39619W        W 4879   1.914  31.689  12.000
39620W        W 4880   1.791  40.207  12.489
39621W        W 4881  34.007  28.090  11.830
39622W        W 4882  40.333  41.103  10.005
39623W        W 4883  42.385   4.980  10.927
39624W        W 4884  13.236  19.015  11.743
39625W        W 4885   4.069  21.439   2.822
39626W        W 4886  34.044  44.548   1.443
39627W        W 4887  16.419  22.993  13.410
39628W        W 4888  27.778  42.862  14.528
39629W        W 4889  29.558   4.705  10.924
39630W        W 4890  21.688  30.502   3.653
39631W        W 4891  23.445  37.023  11.021
39632W        W 4892  19.706   2.559  11.331
39633W        W 4893  17.809   2.197   1.899
39634W        W 4894  25.709  15.569   4.072
39635W        W 4895  26.563   7.830   0.066
39636W        W 4896  36.798  31.636   3.900
39637W        W 4897   5.838  19.445  12.068
39638W        W 4898  26.776  19.760  11.576
39639W        W 4899  20.985  15.475   4.144
39640W        W 4900  33.345   7.698  12.963
39641W        W 4901  37.635  36.563   0.371
39642W        W 4902  14.947  40.990   4.792
39643W        W 4903  24.907  44.993   4.272
39644W        W 4904  16.052  33.477   4.133
39645W        W 4905  29.891  31.965   0.429
39646W        W 4906  22.507   9.383  14.940
39647W        W 4907  12.882   1.285   2.371
39648W        W 4908  32.551  42.931   3.173
39649W        W 4909   4.898  14.067  13.015
39650W        W 4910   0.999  43.256  14.393
39651W        W 4911   1.463  13.845  14.413
39652W        W 4912   5.109  42.775   3.794
39653W        W 4913  32.216  23.495   9.852
39654W        W 4914  43.324  40.899   2.216
39655W        W 4915  21.515  17.277  12.056
39656W        W 4916  11.026  33.644  10.489
39657W        W 4917   5.816  12.465   0.483
39658W        W 4918  23.064   4.981   0.675
39659W        W 4919  26.004   6.818   1.762
39660W        W 4920  35.996   6.197   2.910
39661W        W 4921  34.910  21.518  10.537
39662W        W 4922  24.647  11.404  12.635
39663W        W 4923  34.486  39.865  11.625
39664W        W 4924   8.923  25.812   0.471
39665W        W 4925   0.349  26.974   4.921
39666W        W 4926  40.335  31.508  14.917
39667W        W 4927  17.712  43.452   2.927
39668W        W 4928   3.277  27.153  14.061
39669W        W 4929   4.235  12.304  13.530
39670W        W 4930  23.808  43.213   0.149
39671W        W 4931  35.551  23.674   2.352
39672W        W 4932  32.897  34.921  12.806
39673W        W 4933  12.542   4.911  14.977
39674W        W 4934   2.935  23.078   1.389
39675W        W 4935  24.430  27.462  12.406
39676W        W 4936  34.930  37.652  14.929
39677W        W 4937  28.770  18.552   0.392
39678W        W 4938  24.991  11.163   0.249
39679W        W 4939  17.106  15.827  12.896
39680W        W 4940  29.050  26.448   1.799
39681W        W 4941  40.073  32.384  13.075
39682W        W 4942  36.101  29.058   4.233
39683W        W 4943  30.483  29.668  10.602
39684W        W 4944  12.699   0.357   1.642
39685W        W 4945   2.402  39.358  13.051
39686W        W 4946  29.628  37.252  14.723
39687W        W 4947  15.176  18.663  12.918
39688W        W 4948  14.076   5.925   1.531
39689W        W 4949   1.788  27.510   3.148
39690W        W 4950  27.221  28.125  11.281
39691W        W 4951  42.906   9.128   3.271
39692W        W 4952  20.855  38.443   1.399
39693W        W 4953  15.222  16.149   4.324
39694W        W 4954  11.524  19.104   0.485
39695W        W 4955  28.376  23.053  11.649
39696W        W 4956  27.758   7.002  11.630
39697W        W 4957  30.641  42.824   2.344
39698W        W 4958  38.094  28.950   4.128
39699W        W 4959  33.029  41.081   2.245
39700W        W 4960   5.906  26.736  10.121
39701W        W 4961  20.663  14.778   3.541
39702W        W 4962  25.650  12.340   2.243
39703W        W 4963  33.578  22.182  14.325
39704W        W 4964  10.326  14.662  11.160
39705W        W 4965  40.403   6.318  13.867
39706W        W 4966  22.866  40.248   0.428
39707W        W 4967  39.612  19.539   3.293
39708W        W 4968  13.947   0.239   0.454
39709W        W 4969  10.397  43.002   0.468
39710W        W 4970  29.028  40.395   2.738
39711W        W 4971  13.977  35.395   0.820
39712W        W 4972  30.403  21.764  12.968
39713W        W 4973  25.994  43.872   5.048
39714W        W 4974  38.463  31.996   0.262
39715W        W 4975  14.597  30.522   4.648
39716W        W 4976  31.433   5.429   4.765
39717W        W 4977  30.497  40.056   1.249
39718W        W 4978  38.002  20.270  13.952
39719W        W 4979  19.764   6.895   0.437
39720W        W 4980  31.141  44.849  11.579
39721W        W 4981  43.511  37.932  12.434
39722W        W 4982  44.986  32.412   4.173
39723W        W 4983  23.227  34.374  14.560
39724W        W 4984  15.353  39.835  13.529
39725W        W 4985   7.768   6.758  11.979
39726W        W 4986  44.445   5.911  13.477
39727W        W 4987  11.646  35.913  10.645
39728W        W 4988  34.670  15.844   3.393
39729W        W 4989   3.633  11.143  14.926
39730W        W 4990  27.995  22.690   0.837
39731W        W 4991  33.844   7.717   1.841
39732W        W 4992  12.848  22.252   1.343
39733W        W 4993  17.283  43.230   2.665
39734W        W 4994  18.585  13.795   4.989
39735W        W 4995   2.744  24.633   1.718
39736W        W 4996  30.591  32.243  13.030
39737W        W 4997  43.545  40.870   2.686
39738W        W 4998   0.293  15.300   5.786
39739W        W 4999  30.617  16.688  13.529
39740W        W 5000  26.870  19.964   4.532
39741W        W 5001  25.550   5.806   4.610
39742W        W 5002  10.285  33.861  12.535
39743W        W 5003  44.267   5.967  10.783
39744W        W 5004  27.039  40.991  12.671
39745W        W 5005  13.598  44.014  12.865
39746W        W 5006   5.098  11.179  14.495
39747W        W 5007  13.580  18.192  14.933
39748W        W 5008  19.049  22.760  11.988
39749W        W 5009  28.704  11.798  10.640
39750W        W 5010  30.065   0.274  12.899
39751W        W 5011  29.374  17.062  13.783
39752W        W 5012   1.274  38.383  13.036
39753W        W 5013  18.660  22.883   2.239
39754W        W 5014  40.307  25.126  10.725
39755W        W 5015  41.281  39.535  10.853
39756W        W 5016  18.611  13.256  12.535
39757W        W 5017  31.703  22.237  10.623
39758W        W 5018  34.865  37.415   1.729
39759W        W 5019  19.706   5.729  11.518
39760W        W 5020  23.951   3.159   2.151
39761W        W 5021  20.169  13.615  11.609
39762W        W 5022  20.492  11.194  14.332
39763W        W 5023  17.331  39.057   0.555
39764W        W 5024  31.392  44.898  12.016
39765W        W 5025   5.329  44.810  10.819
39766W        W 5026  30.144  34.959   1.851
39767W        W 5027  18.042  18.095   1.694
39768W        W 5028  25.554  19.118  14.309
39769W        W 5029  33.844  18.415  14.358
39770W        W 5030  32.436  15.228   4.769
39771W        W 5031  38.746  31.209   1.783
39772W        W 5032   8.789  24.592   1.836
39773W        W 5033   6.595   8.504  12.635
39774W        W 5034  11.829  31.809   0.398
39775W        W 5035   1.466  41.537   1.455
39776W        W 5036  33.187  17.018   2.740
39777W        W 5037   6.390  25.450  11.004
39778W        W 5038   7.433  43.012   0.219
39779W        W 5039  16.611  42.448  13.337
39780W        W 5040  44.253  29.410  13.689
39781W        W 5041  13.211  36.405   2.857
39782W        W 5042   6.240  40.789   0.866
39783W        W 5043  41.198  11.884   1.406
39784W        W 5044  31.124  31.576  11.861
39785W        W 5045  14.858  40.309  14.049
39786W        W 5046  26.606  40.357  14.016
39787W        W 5047  10.863  41.293   3.087
39788W        W 5048  10.932  29.077   5.438
39789W        W 5049  24.134  22.102   0.989
39790W        W 5050  31.332   4.984   0.815
39791W        W 5051  22.458  17.119  10.989
39792W        W 5052  33.363  12.087   2.707
39793W        W 5053  33.989  34.584   0.290
39794W        W 5054  25.837   4.889   9.590
39795W        W 5055  27.467  18.238   0.221
39796W        W 5056  34.542  13.280  12.992
39797W        W 5057  17.776  29.922  11.902
39798W        W 5058  14.072   3.398   2.602
39799W        W 5059  29.906  13.303   3.311
39800W        W 5060   2.381  36.469  13.605
39801W        W 5061  25.059   4.283   3.159
39802W        W 5062  13.367  13.863  10.768
39803W        W 5063   9.139  16.861  12.477
39804W        W 5064   4.980  27.158   0.886
39805W        W 5065  13.570  31.335   1.313
39806W        W 5066   6.415  15.557   1.328
39807W        W 5067  13.691  24.008  10.697
39808W        W 5068  14.106  29.652  14.392
39809W        W 5069  14.276  12.543  11.168
39810W        W 5070  24.001  16.036   1.719
39811W        W 5071  17.196  12.555  12.106
39812W        W 5072  25.559  26.131  10.685
39813W        W 5073   1.328  34.505   3.329
39814W        W 5074  10.943  18.023   3.696
39815W        W 5075   9.387   3.945  14.387
39816W        W 5076   9.180   2.843  10.568
39817W        W 5077  19.728  18.443   3.257
39818W        W 5078  35.550  28.337   3.364
39819W        W 5079  38.556  14.952  14.559
39820W        W 5080  10.669   7.876   1.746
39821W        W 5081  22.560  34.866   5.394
39822W        W 5082  15.753  23.189   4.559
39823W        W 5083   1.244  41.032   0.352
39824W        W 5084  14.608  13.613   2.743
39825W        W 5085   7.877   6.948  14.238
39826W        W 5086  41.909   9.926  13.064
39827W        W 5087  25.724  19.294  13.851
39828W        W 5088  21.601  18.050  14.457
39829W        W 5089   1.781  26.683   1.830
39830W        W 5090  13.242  43.444   3.154
39831W        W 5091  15.696  40.419  12.461
39832W        W 5092  28.694  36.040   4.494
39833W        W 5093  41.915   6.643   0.496
39834W        W 5094  37.329  33.588  11.293
39835W        W 5095  12.984  20.179   4.995
39836W        W 5096   4.364   3.391   1.386
39837W        W 5097  36.022  11.775   2.902
39838W        W 5098   8.824  43.958  14.692
39839W        W 5099  34.541  37.522   3.075
39840W        W 5100   4.109   8.121  11.189
39841W        W 5101  26.459  38.596  10.587
39842W        W 5102  33.483  18.096  10.295
39843W        W 5103  12.351  15.363   4.134
39844W        W 5104  18.607  32.496  13.906
39845W        W 5105  19.644  27.384   1.277
39846W        W 5106  23.430  42.425   0.170
39847W        W 5107   2.570  32.639  10.987
39848W        W 5108   2.277  44.900   2.149
39849W        W 5109  36.319  12.240   3.842
39850W        W 5110  41.477   9.101   4.525
39851W        W 5111  28.653  32.298   4.299
39852W        W 5112  24.714  32.455   4.388
39853W        W 5113   7.338  11.218  12.865
39854W        W 5114  15.136   8.887  11.034
39855W        W 5115   4.825  13.889   3.312
39856W        W 5116  32.063  28.945  14.029
39857W        W 5117   2.801  25.993  14.514
39858W        W 5118  12.322   1.014   0.227
39859W        W 5119  12.295  41.348  14.355
39860W        W 5120  14.814  27.325  14.294
39861W        W 5121  15.243   7.203   2.677
39862W        W 5122   2.323   3.844   0.151
39863W        W 5123  21.157  27.733   3.848
39864W        W 5124  14.410  24.827  11.555
39865W        W 5125  42.681  10.517  11.456
39866W        W 5126  21.632  42.783   2.383
39867W        W 5127  31.505  16.284   0.726
39868W        W 5128   2.853   5.247   3.383
39869W        W 5129  35.987  18.758  11.593
39870W        W 5130  34.283   9.530  12.004
39871W        W 5131  44.766  12.665  10.822
39872W        W 5132  33.834  33.691  13.620
39873W        W 5133  39.603  32.198  10.640
39874W        W 5134  11.926  26.628  12.041
39875W        W 5135   1.230  29.951   1.284
39876W        W 5136  14.543  42.083   1.802
39877W        W 5137  16.584  26.084  14.889
39878W        W 5138  28.296  33.551  10.385
39879W        W 5139  21.593  33.510   2.778
39880W        W 5140   9.354  37.546   5.045
39881W        W 5141  16.029  27.027   4.623
39882W        W 5142   6.543   1.709   1.811
39883W        W 5143  24.220  12.693   2.385
39884W        W 5144  33.079  39.368   2.885
39885W        W 5145  37.379  19.612  11.669
39886W        W 5146  38.445   3.624   2.673
39887W        W 5147  15.117  10.196   1.437
39888W        W 5148  13.326  16.727  10.614
39889W        W 5149  28.468  18.773   1.612
39890W        W 5150  20.058  41.356   4.408
39891W        W 5151  27.603   1.266  13.101
39892W        W 5152  36.355  33.523  11.979
39893W        W 5153  14.195  25.755   0.964
39894W        W 5154  41.758  13.132  13.348
39895W        W 5155  25.201  32.488   2.822
39896W        W 5156  26.833   0.515   0.369
39897W        W 5157  38.545  15.770  14.924
39898W        W 5158  25.030  29.257   1.845
39899W        W 5159   7.609  10.182  11.594
39900W        W 5160  15.692  13.229   1.402
39901W        W 5161   3.257  25.534   3.361
39902W        W 5162  21.003  32.890   0.399
39903W        W 5163  26.319   6.248  12.155
39904W        W 5164  32.836  36.567  10.719
39905W        W 5165  16.538   1.480   2.745
39906W        W 5166  27.975   5.751   4.888
39907W        W 5167  36.385  40.685  10.820
39908W        W 5168  19.778   1.662   0.893
39909W        W 5169  44.348  13.841   1.712
39910W        W 5170  32.903  20.780   1.462
39911W        W 5171  35.556  37.358  12.700
39912W        W 5172  38.643  16.132  13.825
39913W        W 5173  15.376   1.658  12.616
39914W        W 5174  35.516  39.053   0.695
39915W        W 5175  11.994  27.969  10.174
39916W        W 5176  13.527  27.698  12.976
39917W        W 5177  25.577  29.714  14.261
39918W        W 5178  31.182   7.008   3.639
39919W        W 5179  35.053  17.573   2.105
39920W        W 5180  15.189  39.977   1.029
39921W        W 5181  20.782   5.348   4.241
39922W        W 5182  30.957  41.448  11.782
39923W        W 5183  14.268  27.020   3.282
39924W        W 5184  23.838  35.310  12.580
39925W        W 5185  23.964   4.713  13.976
39926W        W 5186  12.136  33.259   0.885
39927W        W 5187   0.803  42.023   2.607
39928W        W 5188  16.054  37.411  14.550
39929W        W 5189   6.192  12.464  11.806
39930W        W 5190  37.576   3.944   4.957
39931W        W 5191  21.230  40.776   2.235
39932W        W 5192  32.096  13.124  13.926
39933W        W 5193  21.985  30.899   3.405
39934W        W 5194  41.106  21.797   4.878
39935W        W 5195  10.038  39.422  13.406
39936W        W 5196  11.173   0.143   0.968
39937W        W 5197   5.776  27.968   1.290
39938W        W 5198  18.138  27.119   3.870
39939W        W 5199   9.226  22.600  11.026
39940W        W 5200  27.649  32.422  11.540
39941W        W 5201   8.044  38.915   5.354
39942W        W 5202   2.356  44.380   3.853
39943W        W 5203  15.375   2.280  12.840
39944W        W 5204   0.438  20.034   0.808
39945W        W 5205  40.714   3.477  10.633
39946W        W 5206   2.165  17.036   4.581
39947W        W 5207  19.591  21.471  12.097
39948W        W 5208  40.308  39.799   1.157
39949W        W 5209  11.507  36.684   2.363
39950W        W 5210  44.540  39.975  14.535
39951W        W 5211   3.061   4.676   3.224
39952W        W 5212  36.536  31.438  12.713
39953W        W 5213  41.347  37.412  10.039
39954W        W 5214  44.207   5.371   3.658
39955W        W 5215  36.456  21.344  12.145
39956W        W 5216  24.723  32.617  14.118
39957W        W 5217  33.080  27.585  11.517
39958W        W 5218  10.045  28.582   0.893
39959W        W 5219  43.935   6.913   3.199
39960W        W 5220  26.960  44.957   1.822
39961W        W 5221  18.064  35.394   2.788
39962W        W 5222  41.897  24.891   5.106
39963W        W 5223  13.831  39.280   2.867
39964W        W 5224  36.953  30.654  11.194
39965W        W 5225  21.508  16.963   1.122
39966W        W 5226  44.293  15.150   2.858
39967W        W 5227  10.885   1.471  13.709
39968W        W 5228   6.383  33.190  12.385
39969W        W 5229   4.430  14.835  13.434
39970W        W 5230  30.607  42.797   3.256
39971W        W 5231  17.264  17.135  11.562
39972W        W 5232  32.667  44.382   4.231
39973W        W 5233  12.207  43.318   1.888
39974W        W 5234  26.978  41.519  14.586
39975W        W 5235  44.320  38.563  14.086
39976W        W 5236  28.462  16.504   1.312
39977W        W 5237   4.150  39.585   4.200
39978W        W 5238   0.885   0.091   2.850
39979W        W 5239  23.976   9.661  12.909
39980W        W 5240  21.092  28.422   3.281
39981W        W 5241  14.065  39.935  14.510
39982W        W 5242  26.681  27.695  12.958
39983W        W 5243  35.308  34.459   2.733
39984W        W 5244  37.820  33.606  13.735
39985W        W 5245   4.212  14.564   1.020
39986W        W 5246  40.518  15.690   3.787
39987W        W 5247  14.917   6.807   1.717
39988W        W 5248  30.595  22.707   1.316
39989W        W 5249   8.686  36.388  14.272
39990W        W 5250  13.097  13.685   4.153
39991W        W 5251  11.462  41.970   4.611
39992W        W 5252  11.931   4.794  12.525
39993W        W 5253  40.859  24.200   1.275
39994W        W 5254  44.995  30.154  14.566
39995W        W 5255  43.284  44.511   4.041
39996W        W 5256  11.570  37.566   0.896
39997W        W 5257   0.019  37.898   2.364
39998W        W 5258  10.418  25.959  12.032
39999W        W 5259  11.866  40.184   0.037
40000W        W 5260  41.729  34.709   1.294
40001W        W 5261  14.109  39.424   3.328
40002W        W 5262   0.297  14.288   3.236
40003W        W 5263  29.553   6.285   1.984
40004W        W 5264   3.889  41.565   2.231
40005W        W 5265  15.184  41.104  14.221
40006W        W 5266  13.347  37.413  13.144
40007W        W 5267  42.625  33.565  11.874
40008W        W 5268  27.198  18.967  13.875
40009W        W 5269  14.819  35.781   2.886
40010W        W 5270   7.804   8.203  10.665
40011W        W 5271  40.543  25.003  14.259
40012W        W 5272  25.663  42.418   1.728
40013W        W 5273   3.653  39.826   3.386
40014W        W 5274  31.504  31.057   1.788
40015W        W 5275  36.876  16.186  10.652
40016W        W 5276   4.475  13.136   1.400
40017W        W 5277  39.477   9.416  12.175
40018W        W 5278  21.751  11.577  13.931
40019W        W 5279  10.915  26.511  12.099
40020W        W 5280  10.463  36.957   2.324
40021W        W 5281  13.767   0.346   3.221
40022W        W 5282   5.328  22.165  12.094
40023W        W 5283  22.507  32.107  11.738
40024W        W 5284  18.767  36.539  15.000
40025W        W 5285  43.367   9.880  13.755
40026W        W 5286   3.962   9.593  12.687
40027W        W 5287  23.006  29.464  13.432
40028W        W 5288  20.722  44.449  10.485
40029W        W 5289   3.756  36.589  11.538
40030W        W 5290  35.826  35.027  12.611
40031W        W 5291  32.666  32.486  13.926
40032W        W 5292  38.055  34.881   1.737
40033W        W 5293  40.870  38.753  11.234
40034W        W 5294   2.821  33.561  14.862
40035W        W 5295  35.075  33.525   2.382
40036W        W 5296  19.070  42.548  11.365
40037W        W 5297  20.669  22.585   1.758
40038W        W 5298   1.249  14.414  11.455
40039W        W 5299  31.103   3.148  10.785
40040W        W 5300   1.485   1.705   0.871
40041W        W 5301  18.752  41.532  11.582
40042W        W 5302   7.538  19.508  11.508
40043W        W 5303  34.796  12.265  12.544
40044W        W 5304  40.615  21.722  13.401
40045W        W 5305  29.245   0.039   3.553
40046W        W 5306   6.644  24.478   1.215
40047W        W 5307  40.478  17.738   3.680
40048W        W 5308  21.064  22.924   1.857
40049W        W 5309   7.336  12.739   0.393
40050W        W 5310   1.898   6.516  10.698
40051W        W 5311  10.730   1.026   1.310
40052W        W 5312  18.525  38.485   3.155
40053W        W 5313  15.338  10.543   4.103
40054W        W 5314  30.645   4.220  13.643
40055W        W 5315  23.019  16.726  11.596
40056W        W 5316   1.008  32.039  14.443
40057W        W 5317  16.274  22.025  12.949
40058W        W 5318  12.403   9.739   1.802
40059W        W 5319  19.442  38.025   4.117
40060W        W 5320  27.294   5.868   1.248
40061W        W 5321   5.203  16.363  11.991
40062W        W 5322   5.392  23.707  10.623
40063W        W 5323  17.072   9.910  11.806
40064W        W 5324  14.199  19.812  13.392
40065W        W 5325  44.824   4.901   2.834
40066W        W 5326  26.179  11.308   1.794
40067W        W 5327   3.344  31.422  14.943
40068W        W 5328  29.111  10.548   4.617
40069W        W 5329  14.810  28.403  11.237
40070W        W 5330  19.543  15.069  11.602
40071W        W 5331  15.536  25.130   3.125
40072W        W 5332  22.045  26.549  12.905
40073W        W 5333  21.340  38.884   0.734
40074W        W 5334  17.622  15.662  10.669
40075W        W 5335  16.035  40.927   1.742
40076W        W 5336  35.424   7.386   3.645
40077W        W 5337  10.218  23.822   2.220
40078W        W 5338  21.727  43.007   2.849
40079W        W 5339  39.855  26.617   1.093
40080W        W 5340  10.090  36.109   4.581
40081W        W 5341  23.963   3.121  10.581
40082W        W 5342  17.522  19.689  14.115
40083W        W 5343   6.860  29.224  14.329
40084W        W 5344  13.355  13.099   1.501
40085W        W 5345  14.741   8.818  11.837
40086W        W 5346   9.085   4.141  11.514
40087W        W 5347  18.352  24.148   0.306
40088W        W 5348  34.124  37.157   0.380
40089W        W 5349   0.347  23.441   1.815
40090W        W 5350  21.456  30.944  11.916
40091W        W 5351  43.217   2.388   1.342
40092W        W 5352  24.229   9.373  11.650
40093W        W 5353  26.491  43.208   2.809
40094W        W 5354   8.117  17.339  13.277
40095W        W 5355  15.703  38.769   0.347
40096W        W 5356  25.015   0.234  11.620
40097W        W 5357   9.383  10.724  11.679
40098W        W 5358  42.455  42.063  13.864
40099W        W 5359  27.449   4.037  14.090
40100W        W 5360   6.286   0.524  12.628
40101W        W 5361   1.433  32.357  14.514
40102W        W 5362  19.683  33.083  12.043
40103W        W 5363  27.573  10.665  14.405
40104W        W 5364  27.535  40.073  13.000
40105W        W 5365   0.924  28.916  14.121
40106W        W 5366  12.553  34.155   2.263
40107W        W 5367   7.213  44.363  14.002
40108W        W 5368  11.799  14.028  11.523
40109W        W 5369  22.172  43.661   3.679
40110W        W 5370  33.929  31.512   4.216
40111W        W 5371  22.608   7.894   5.008
40112W        W 5372  13.094  15.237   3.462
40113W        W 5373  27.248   5.714  10.630
40114W        W 5374   1.525  36.030   4.678
40115W        W 5375  42.343   4.253  13.983
40116W        W 5376  34.005  13.772  11.115
40117W        W 5377  42.937  38.908  10.641
40118W        W 5378  21.128   0.242   2.733
40119W        W 5379  19.605   9.629   0.214
40120W        W 5380  39.459  25.711   3.969
40121W        W 5381  27.429  15.296  13.757
40122W        W 5382   3.215  27.201   2.403
40123W        W 5383  12.291  24.720   2.209
40124W        W 5384   2.350  32.123  10.789
40125W        W 5385  11.390   8.631   5.264
40126W        W 5386   7.185   8.275   4.136
40127W        W 5387  31.537  35.617  13.871
40128W        W 5388  24.588  35.453  14.832
40129W        W 5389  27.578  35.400  13.753
40130W        W 5390  14.374   6.862   5.062
40131W        W 5391  16.797  32.328  14.425
40132W        W 5392  39.930  38.011   0.250
40133W        W 5393  32.800  30.985   3.140
40134W        W 5394  23.115  34.834  13.143
40135W        W 5395  16.654   1.045   0.686
40136W        W 5396   3.219  37.088   2.106
40137W        W 5397  41.690   7.458   1.238
40138W        W 5398  32.880  25.141   1.429
40139W        W 5399  29.711  40.426  14.886
40140W        W 5400   0.663  42.286   4.631
40141W        W 5401  35.710  15.246   1.899
40142W        W 5402  18.457  31.616  10.039
40143W        W 5403   4.860  39.110   2.187
40144W        W 5404  32.694  28.661   0.912
40145W        W 5405  26.559  20.863   0.873
40146W        W 5406   8.536  13.726   0.336
40147W        W 5407   4.393  24.021   0.270
40148W        W 5408  32.953  37.999   0.051
40149W        W 5409   9.055  38.467  12.374
40150W        W 5410  21.623  19.613   0.212
40151W        W 5411  10.589  16.767  13.380
40152W        W 5412   5.222  40.902   1.002
40153W        W 5413   0.423  23.526  12.440
40154W        W 5414  38.880  33.824  14.449
40155W        W 5415  35.463  40.298  11.796
40156W        W 5416  28.223  24.810   0.885
40157W        W 5417   7.189  11.666  10.623
40158W        W 5418  22.242  30.733   0.243
40159W        W 5419  32.010   7.919  11.574
40160W        W 5420  30.656  13.840   1.120
40161W        W 5421  27.569  37.659  10.707
40162W        W 5422  10.955  13.053   2.860
40163W        W 5423  27.689   3.820  12.353
40164W        W 5424  33.040  22.675  10.946
40165W        W 5425  40.610  13.123   5.089
40166W        W 5426   4.380  17.056   4.492
40167W        W 5427   0.258  20.603   4.770
40168W        W 5428  34.644  35.968   1.915
40169W        W 5429  29.509  42.404   0.183
40170W        W 5430  26.119  36.596   2.202
40171W        W 5431  26.521  42.036  12.404
40172W        W 5432  16.169  40.456  12.200
40173W        W 5433   1.662  20.714   4.577
40174W        W 5434   2.271  40.339   3.679
40175W        W 5435   5.465  39.421   1.901
40176W        W 5436  12.093  44.650   9.853
40177W        W 5437   4.205  17.793  12.154
40178W        W 5438  13.783  21.447  12.944
40179W        W 5439  30.723   5.242  11.457
40180W        W 5440  21.441  41.829   3.160
40181W        W 5441   9.429  26.894  12.024
40182W        W 5442  42.962   0.444  12.901
40183W        W 5443  13.510  37.385  14.874
40184W        W 5444  31.127  20.281  11.551
40185W        W 5445   0.577  13.602  12.442
40186W        W 5446  29.473  43.419   3.370
40187W        W 5447  31.997  15.031   2.177
40188W        W 5448  41.871   5.507  13.711
40189W        W 5449  41.919   7.938   0.888
40190W        W 5450  23.690  29.691   2.429
40191W        W 5451   4.797   2.338   0.372
40192W        W 5452  29.001  20.017  11.607
40193W        W 5453  37.348   2.426  12.367
40194W        W 5454  17.836  18.483   0.227
40195W        W 5455   3.870   9.192  14.625
40196W        W 5456  32.160   5.752   3.767
40197W        W 5457  15.180  43.438   3.160
40198W        W 5458  19.724  39.591   2.707
40199W        W 5459   3.663  43.241   3.283
40200W        W 5460   2.928  12.862   0.950
40201W        W 5461  34.289  29.625  12.978
40202W        W 5462   3.119  18.796   3.789
40203W        W 5463  12.904  14.219  13.527
40204W        W 5464  18.293  28.637  12.384
40205W        W 5465  19.517  36.374  13.001
40206W        W 5466  26.034  18.178   3.104
40207W        W 5467   0.902  34.927  11.562
40208W        W 5468  40.786  39.830   3.760
40209W        W 5469   4.720  43.413   1.286
40210W        W 5470  20.113  32.602   0.930
40211W        W 5471  39.517   6.864   0.387
40212W        W 5472   9.158  26.062  11.584
40213W        W 5473  39.332   6.258  11.966
40214W        W 5474  27.894  13.664  13.574
40215W        W 5475  33.067  21.540  14.750
40216W        W 5476   5.660  30.049   0.836
40217W        W 5477  12.180  39.959  10.536
40218W        W 5478  10.796   2.990  10.483
40219W        W 5479  23.170  39.778   4.553
40220W        W 5480  27.044  25.096   0.420
40221W        W 5481   3.952  43.288  12.205
40222W        W 5482  12.651  20.634   2.688
40223W        W 5483  33.990  23.692   2.644
40224W        W 5484  28.256  30.131  11.926
40225W        W 5485  20.288   5.429   2.767
40226W        W 5486  38.989  37.912  10.585
40227W        W 5487  36.644  43.177   1.298
40228W        W 5488   6.832  39.443   2.425
40229W        W 5489  44.399  15.784   4.681
40230W        W 5490   0.629  29.364  11.547
40231W        W 5491  41.708  18.071   0.396
40232W        W 5492  17.017   6.795  12.947
40233W        W 5493  41.053  22.314  11.922
40234W        W 5494  13.625   8.349   5.036
40235W        W 5495   3.279  42.866   2.628
40236W        W 5496  44.082   1.653  13.316
40237W        W 5497  25.218   3.118  13.764
40238W        W 5498  33.358  22.507  13.893
40239W        W 5499  11.786   8.793   4.304
40240W        W 5500  33.348  21.725   1.676
40241W        W 5501  34.996  13.098  13.087
40242W        W 5502   4.149   4.871   3.896
40243W        W 5503   5.408  12.280   1.832
40244W        W 5504  29.900   0.732  12.547
40245W        W 5505   2.672  32.275   1.140
40246W        W 5506  10.358   5.720  11.102
40247W        W 5507   1.024  24.649   2.789
40248W        W 5508  28.746   2.714   0.353
40249W        W 5509  32.991  33.519   1.918
40250W        W 5510  26.652  39.583  10.651
40251W        W 5511  23.636  33.879   4.765
40252W        W 5512   2.477  26.656  12.881
40253W        W 5513  11.473  25.659  10.098
40254W        W 5514   7.923  40.987   4.561
40255W        W 5515  18.816  34.461  12.859
40256W        W 5516  41.049   4.582   3.096
40257W        W 5517  38.756  32.290   0.991
40258W        W 5518  19.571   6.151  12.623
40259W        W 5519  33.009  23.337   1.412
40260W        W 5520  29.327   6.885  13.390
40261W        W 5521  24.996  11.368  13.915
40262W        W 5522  35.375  27.998  14.470
40263W        W 5523  26.234  22.043  13.435
40264W        W 5524   7.317  15.813  14.330
40265W        W 5525   3.877  15.193   3.342
40266W        W 5526  43.501  34.604   1.925
40267W        W 5527   6.353  24.498   1.671
40268W        W 5528  24.196  26.754   3.487
40269W        W 5529  40.363   7.640  13.316
40270W        W 5530  20.836   1.648   4.249
40271W        W 5531   7.751  26.521   1.409
40272W        W 5532   2.877  36.834   2.415
40273W        W 5533  33.973  25.305   0.698
40274W        W 5534  14.269  25.165  13.570
40275W        W 5535  34.945  14.390  11.064
40276W        W 5536  15.214  11.931   3.885
40277W        W 5537  13.066  19.215   2.300
40278W        W 5538  14.273  32.401   1.990
40279W        W 5539  41.269   6.248  14.825
40280W        W 5540  31.466  30.953   0.436
40281W        W 5541  16.112  32.606   3.701
40282W        W 5542  44.556  22.501   4.150
40283W        W 5543  36.757  34.642  13.202
40284W        W 5544   2.118   0.998   4.903
40285W        W 5545   8.732   8.262  13.323
40286W        W 5546   3.291  39.138   2.785
40287W        W 5547   5.312  30.244   0.305
40288W        W 5548  19.076   4.650  12.049
40289W        W 5549  14.873  15.474  12.285
40290W        W 5550   7.275  24.078  12.587
40291W        W 5551   0.245  36.059  12.809
40292W        W 5552  24.965   8.502  11.192
40293W        W 5553  26.266  36.771   9.953
40294W        W 5554  37.157  16.718   1.219
40295W        W 5555  29.050  36.994  13.603
40296W        W 5556   1.936  10.272   4.097
40297W        W 5557  24.749  27.979  10.474
40298W        W 5558   5.813  17.594  13.039
40299W        W 5559   5.837  15.005   1.684
40300W        W 5560  40.495  30.662  13.326
40301W        W 5561   0.789  39.410   2.271
40302W        W 5562  24.977  28.042  11.637
40303W        W 5563  40.598  39.751  14.783
40304W        W 5564  24.292  27.966  14.294
40305W        W 5565  17.020   7.620   1.717
40306W        W 5566  43.446  17.755   4.045
40307W        W 5567  19.424  24.969  12.072
40308W        W 5568   4.966  34.753  13.755
40309W        W 5569   1.273  31.050  10.465
40310W        W 5570  10.730  25.696   2.635
40311W        W 5571  32.049  27.482   2.579
40312W        W 5572  20.971  14.843  12.984
40313W        W 5573  38.867  40.336  11.514
40314W        W 5574  23.090  13.803   2.213
40315W        W 5575  20.695  41.635  14.220
40316W        W 5576  38.238   0.930   2.577
40317W        W 5577  19.244   5.592   1.326
40318W        W 5578  33.071   7.160  11.566
40319W        W 5579  20.215  24.532  14.473
40320W        W 5580  10.520   2.747  14.753
40321W        W 5581  43.019  43.604   1.005
40322W        W 5582  37.522  30.005  13.340
40323W        W 5583  10.203  23.125  11.849
40324W        W 5584  30.869  24.569   2.906
40325W        W 5585   8.209  43.356  13.330
40326W        W 5586  16.583  29.513   2.772
40327W        W 5587  14.612  13.572   0.706
40328W        W 5588  44.449  21.638  12.586
40329W        W 5589  30.724  20.247   2.262
40330W        W 5590  44.489   9.733   4.681
40331W        W 5591  35.068  13.528  13.473
40332W        W 5592  23.232  16.189  12.485
40333W        W 5593  42.350  37.600  14.035
40334W        W 5594   1.745  17.712   3.192
40335W        W 5595  23.566  12.122  13.038
40336W        W 5596  40.728   0.460  14.805
40337W        W 5597  39.725  40.548  14.795
40338W        W 5598  22.294  41.684  14.863
40339W        W 5599  36.589  22.679  11.152
40340W        W 5600   7.464  41.032  13.899
40341W        W 5601  38.438  17.193   1.889
40342W        W 5602  27.210  37.369  14.503
40343W        W 5603   9.383   3.306  13.090
40344W        W 5604  30.935  31.017   3.346
40345W        W 5605   1.575  28.535   1.025
40346W        W 5606   3.157  33.379   3.356
40347W        W 5607  33.095   2.843   4.809
40348W        W 5608  33.151  23.769  12.853
40349W        W 5609  10.814  19.069  13.350
40350W        W 5610  34.658  20.246  14.949
40351W        W 5611  30.540  30.398   3.544
40352W        W 5612  41.475  13.410   1.363
40353W        W 5613   9.808  27.877   2.697
40354W        W 5614   6.711  26.637  13.180
40355W        W 5615  40.954  42.228   1.378
40356W        W 5616  22.955  15.849   9.408
40357W        W 5617  42.649  18.409  13.358
40358W        W 5618   3.605  12.172  10.732
40359W        W 5619   8.658  41.718  11.046
40360W        W 5620  34.964  17.498  13.729
40361W        W 5621  42.893   9.947   3.627
40362W        W 5622  42.820  20.674  13.521
40363W        W 5623  15.001  28.943   3.878
40364W        W 5624  19.205  14.628  11.459
40365W        W 5625  42.703  34.792   4.124
40366W        W 5626  18.679   6.939  13.096
40367W        W 5627  16.104  22.661   2.689
40368W        W 5628  16.724  44.620   4.495
40369W        W 5629  17.238  18.105  11.632
40370W        W 5630  34.995   8.615  13.398
40371W        W 5631  25.256  19.048  13.838
40372W        W 5632  16.560  42.846   2.145
40373W        W 5633  28.481  25.152  13.079
40374W        W 5634  39.061  42.115  11.056
40375W        W 5635  26.990  39.277  13.950
40376W        W 5636  32.513  25.200   0.480
40377W        W 5637  13.856  14.427  13.483
40378W        W 5638   2.718   6.525   4.599
40379W        W 5639   6.010  44.371   2.883
40380W        W 5640  29.267   9.174  13.417
40381W        W 5641  13.735  40.054  10.974
40382W        W 5642  27.950  35.998   0.480
40383W        W 5643   9.608  10.230   0.696
40384W        W 5644  12.661  13.435   4.081
40385W        W 5645  29.901   5.156   4.717
40386W        W 5646   2.660  28.718  12.464
40387W        W 5647  10.588   8.365   0.904
40388W        W 5648  34.662  14.780   2.314
40389W        W 5649  26.659  30.630   4.624
40390W        W 5650  29.390  23.558   1.206
40391W        W 5651   9.806  39.910   0.237
40392W        W 5652  14.934   3.422   1.433
40393W        W 5653  24.299  32.704  12.425
40394W        W 5654   9.104  42.834   3.298
40395W        W 5655  43.960  28.570  12.426
40396W        W 5656  13.540  26.661   4.653
40397W        W 5657  36.666  29.092  11.941
40398W        W 5658   4.900  21.745   1.198
40399W        W 5659  37.052  30.957   0.816
40400W        W 5660  26.190  12.263   2.954
40401W        W 5661  13.316   9.888  11.613
40402W        W 5662   7.666  16.609   1.437
40403W        W 5663  17.334  38.555   0.414
40404W        W 5664  30.923  34.263  14.798
40405W        W 5665  25.198  30.571   2.257
40406W        W 5666   9.115  19.505   0.432
40407W        W 5667  27.645  31.145  10.747
40408W        W 5668   8.113  42.017  14.597
40409W        W 5669  33.062  38.167  11.380
40410W        W 5670  37.958  38.802   1.799
40411W        W 5671  16.445  18.481  11.896
40412W        W 5672   3.819   5.445  13.624
40413W        W 5673  21.257  24.964   0.018
40414W        W 5674  36.953  26.281  14.159
40415W        W 5675   2.862  12.670  13.927
40416W        W 5676  32.151   8.862   2.188
40417W        W 5677  16.344  25.508  13.794
40418W        W 5678  33.378  24.429  10.735
40419W        W 5679  20.191   8.924  11.644
40420W        W 5680  11.470  17.990   1.136
40421W        W 5681  21.192   5.538   1.119
40422W        W 5682  41.490  30.708   1.183
40423W        W 5683  16.817  12.672  12.995
40424W        W 5684  19.143  30.650  14.407
40425W        W 5685   6.252  42.406  13.856
40426W        W 5686   7.591  33.939   1.419
40427W        W 5687   9.934   4.895  12.134
40428W        W 5688  38.344  18.624  12.083
40429W        W 5689  21.051  21.070  14.273
40430W        W 5690  19.107   5.051  14.506
40431W        W 5691  41.744  22.843  12.061
40432W        W 5692  19.026  18.979   3.609
40433W        W 5693  44.406  23.884  12.087
40434W        W 5694   5.721   9.903  11.507
40435W        W 5695  34.093  18.724   3.225
40436W        W 5696  44.530  11.866   2.341
40437W        W 5697  41.295  21.644  14.931
40438W        W 5698  16.621  32.539  11.108
40439W        W 5699  36.275  26.754  11.168
40440W        W 5700  30.045  16.760  11.919
40441W        W 5701  29.088  27.184   4.954
40442W        W 5702   1.650  28.625   2.835
40443W        W 5703  28.596   6.274  14.689
40444W        W 5704  14.145  35.940   0.478
40445W        W 5705  24.915   3.199   0.849
40446W        W 5706  44.456  25.501  14.245
40447W        W 5707  18.367  30.306   2.910
40448W        W 5708  30.525  41.962  13.256
40449W        W 5709  14.175  16.597   4.287
40450W        W 5710  31.896  18.491  12.842
40451W        W 5711  28.269  37.309   2.865
40452W        W 5712  38.516  40.444  10.923
40453W        W 5713  33.480  29.232  12.193
40454W        W 5714  17.690  28.783  12.590
40455W        W 5715   0.020  25.831   1.451
40456W        W 5716  35.013  37.657  10.583
40457W        W 5717   7.409  29.629   0.772
40458W        W 5718  35.862  42.329   4.385
40459W        W 5719  33.604  41.010  13.995
40460W        W 5720   8.306  38.503  11.956
40461W        W 5721   2.671  23.208   5.435
40462W        W 5722  14.874  18.528  12.479
40463W        W 5723  29.284  33.536  13.039
40464W        W 5724  17.055  38.033  14.282
40465W        W 5725  13.753  20.559  11.480
40466W        W 5726  31.681  13.231   3.740
40467W        W 5727  26.218  23.255  12.986
40468W        W 5728  40.824  34.568   0.375
40469W        W 5729   1.403   6.142  14.880
40470W        W 5730  23.839  42.823   5.106
40471W        W 5731  20.737  35.399  11.133
40472W        W 5732   8.820   6.488  10.540
40473W        W 5733   9.638  23.111   3.206
40474W        W 5734  15.229  33.488   4.516
40475W        W 5735  27.552  34.086   2.603
40476W        W 5736  28.158  39.975   3.553
40477W        W 5737  37.450  12.883  11.172
40478W        W 5738  18.063  16.303   2.879
40479W        W 5739  36.194   8.586  13.380
40480W        W 5740   9.101  30.758  10.228
40481W        W 5741  11.777   9.264  14.819
40482W        W 5742  18.065  10.307   3.454
40483W        W 5743   8.794  33.492   3.717
40484W        W 5744  14.333  25.569  11.989
40485W        W 5745  14.093   2.380   5.025
40486W        W 5746  39.594  40.356   1.659
40487W        W 5747  23.291   9.688  12.496
40488W        W 5748  14.001  28.404   1.236
40489W        W 5749   0.377  44.984   2.806
40490W        W 5750  12.737  31.417  14.314
40491W        W 5751  41.437  21.784   0.780
40492W        W 5752  24.175  43.440   3.140
40493W        W 5753   3.439  29.192   4.378
40494W        W 5754   0.814  24.612   0.750
40495W        W 5755  40.600  19.488   2.673
40496W        W 5756   7.673   2.769   3.780
40497W        W 5757  27.368  12.678  11.197
40498W        W 5758  10.774  43.317   0.315
40499W        W 5759  40.476  12.354  14.318
40500W        W 5760  36.360  37.643   2.653
40501W        W 5761  11.149  30.141   0.957
40502W        W 5762  11.189  24.399   2.737
40503W        W 5763  21.348   9.891   3.769
40504W        W 5764  12.094  24.705  13.962
40505W        W 5765  11.795  10.379   2.158
40506W        W 5766  30.617   3.665  13.755
40507W        W 5767   1.226  35.016   3.340
40508W        W 5768  39.856  34.614  12.816
40509W        W 5769  20.183  33.134   0.953
40510W        W 5770  33.951  10.764  14.581
40511W        W 5771  38.468  27.560  13.883
40512W        W 5772  38.301  25.215  12.258
40513W        W 5773  14.308  43.414  13.494
40514W        W 5774  23.570  31.321  14.874
40515W        W 5775   4.291  41.523   1.660
40516W        W 5776  20.003   8.663  14.073
40517W        W 5777  30.531  31.697  14.033
40518W        W 5778   6.907  20.714   4.334
40519W        W 5779  11.342  22.112   1.528
40520W        W 5780  37.079  34.952  10.880
40521W        W 5781  36.786  44.057   3.109
40522W        W 5782  31.434  12.764   4.484
40523W        W 5783  21.907  27.716   1.383
40524W        W 5784  37.433  14.227  12.102
40525W        W 5785   9.905   7.384   1.824
40526W        W 5786  15.780  31.129  11.923
40527W        W 5787  44.340  24.410  13.820
40528W        W 5788  35.495  38.290   0.415
40529W        W 5789  11.419  39.927   4.778
40530W        W 5790  13.625   3.330  14.486
40531W        W 5791  39.002   3.872   0.506
40532W        W 5792  18.539  39.966   2.308
40533W        W 5793   6.781  41.500  14.814
40534W        W 5794  19.526  42.456   0.524
40535W        W 5795  39.446  23.896   4.625
40536W        W 5796  33.884  10.942   3.877
40537W        W 5797  39.420  17.982   0.479
40538W        W 5798  18.150   7.706   0.088
40539W        W 5799  18.647  17.310   2.216
40540W        W 5800  20.107  35.370   0.475
40541W        W 5801   0.784   8.624   1.816
40542W        W 5802  37.796  33.936  11.608
40543W        W 5803  22.076   4.497   2.335
40544W        W 5804  31.331  27.513  13.813
40545W        W 5805  22.128  11.324   0.989
40546W        W 5806  24.128  24.455  12.859
40547W        W 5807  41.114   4.726   3.897
40548W        W 5808  43.254  20.898   1.862
40549W        W 5809  31.591  32.692   4.689
40550W        W 5810  38.415  13.668  14.965
40551W        W 5811  13.003   3.507  12.996
40552W        W 5812  21.293  21.704   9.894
40553W        W 5813   4.722  39.929   4.385
40554W        W 5814  40.445   0.409   2.916
40555W        W 5815   6.608  44.607  11.132
40556W        W 5816  41.025  34.061  10.869
40557W        W 5817  23.991  15.573   4.540
40558W        W 5818  11.249  39.462   4.964
40559W        W 5819  18.341   4.998  14.955
40560W        W 5820  40.078  20.588   2.250
40561W        W 5821  17.208  35.953  13.508
40562W        W 5822  39.545   9.182  10.649
40563W        W 5823  42.901  12.082   2.630
40564W        W 5824  28.673  12.666   3.284
40565W        W 5825  18.751  32.427   4.216
40566W        W 5826   9.207  10.177  14.539
40567W        W 5827  38.183  14.791  13.005
40568W        W 5828  13.710  41.816   2.898
40569W        W 5829  17.227  36.469   3.807
40570W        W 5830  19.724  43.911   1.906
40571W        W 5831  33.873  15.717   0.802
40572W        W 5832   3.339  32.937  13.883
40573W        W 5833  16.693  44.477  13.916
40574W        W 5834   8.070  17.580   2.703
40575W        W 5835  12.470  31.839  12.555
40576W        W 5836   7.169  14.862   3.162
40577W        W 5837  14.726   0.491   0.820
40578W        W 5838  44.166  32.274   0.463
40579W        W 5839  22.734  29.921  13.438
40580W        W 5840  38.140   7.280   0.857
40581W        W 5841  14.553  16.391  14.295
40582W        W 5842  16.875   4.185   1.398
40583W        W 5843  11.248  32.897   3.769
40584W        W 5844  34.249  33.735   3.584
40585W        W 5845  40.411   7.225  13.880
40586W        W 5846  30.899   1.619   5.179
40587W        W 5847   7.745  11.233  13.857
40588W        W 5848  41.001  24.030   0.814
40589W        W 5849  39.214  27.635  11.608
40590W        W 5850  20.812  13.728   0.107
40591W        W 5851  18.984  29.244  10.766
40592W        W 5852  19.948  35.285   5.051
40593W        W 5853  37.133  44.442   2.321
40594W        W 5854  39.495  11.663  10.540
40595W        W 5855   3.245  24.552  11.528
40596W        W 5856  35.055  10.444   2.836
40597W        W 5857   0.382  22.117   1.012
40598W        W 5858  38.380   2.876  13.953
40599W        W 5859  37.433  36.395  12.088
40600W        W 5860  34.826  20.466  11.197
40601W        W 5861   3.251  26.565   3.086
40602W        W 5862  37.420  15.126  11.975
40603W        W 5863  12.675   5.452   1.871
40604W        W 5864  40.462  24.036  14.681
40605W        W 5865  21.110   1.526   3.799
40606W        W 5866  26.053   9.482  11.404
40607W        W 5867  39.952   0.539  12.884
40608W        W 5868  28.423  17.965   1.397
40609W        W 5869  20.227   0.201  12.484
40610W        W 5870  34.364  32.730   1.895
40611W        W 5871  23.881  44.034   1.016
40612W        W 5872  25.048  43.283   3.781
40613W        W 5873   6.868  12.629  14.662
40614W        W 5874  19.239  19.668   0.910
40615W        W 5875  16.157  30.890   4.317
40616W        W 5876  11.195  10.756   4.568
40617W        W 5877  10.286  38.856   4.107
40618W        W 5878  38.493  24.399  12.046
40619W        W 5879  31.936  23.094  12.894
40620W        W 5880  21.043  16.266   2.885
40621W        W 5881   5.778  38.806  13.856
40622W        W 5882   1.494  29.107   0.750
40623W        W 5883  16.561   5.314  11.118
40624W        W 5884  22.236  11.746  13.908
40625W        W 5885   1.859  14.060  12.048
40626W        W 5886  16.749  29.496   1.446
40627W        W 5887  35.656   2.390  12.732
40628W        W 5888  22.099   4.979   3.204
40629W        W 5889  33.595   6.692  11.280
40630W        W 5890   2.316   3.206  13.759
40631W        W 5891  40.956  40.802   2.260
40632W        W 5892  19.524  20.561   3.670
40633W        W 5893  44.098  26.250  12.034
40634W        W 5894  17.436  22.949   5.383
40635W        W 5895   2.903  21.262  14.329
40636W        W 5896  37.060  30.757  12.577
40637W        W 5897  34.294   0.890   1.177
40638W        W 5898  10.563  20.481   1.814
40639W        W 5899  11.128  43.457   0.671
40640W        W 5900  29.414  18.767   2.724
40641W        W 5901   2.455  10.599  11.124
40642W        W 5902  34.526  12.317  13.838
40643W        W 5903  14.385  41.611   1.857
40644W        W 5904  26.483  29.004  12.022
40645W        W 5905  41.554  32.384   2.892
40646W        W 5906  17.401  31.085  11.699
40647W        W 5907  11.621  33.110   0.767
40648W        W 5908  11.231   5.865   0.711
40649W        W 5909  15.534  30.582   2.836
40650W        W 5910   5.237  21.983   1.772
40651W        W 5911   5.270  17.787   2.901
40652W        W 5912   3.670   8.636  12.897
40653W        W 5913  14.670  20.757  11.891
40654W        W 5914  24.005  29.699  13.483
40655W        W 5915   8.379  34.637  10.713
40656W        W 5916  27.411  24.215  12.132
40657W        W 5917  39.460   2.151  10.738
40658W        W 5918  20.040  38.531  11.045
40659W        W 5919  16.211  41.863  12.382
40660W        W 5920   8.416  10.378   1.677
40661W        W 5921   3.233  30.729  10.604
40662W        W 5922  19.224  34.604  11.114
40663W        W 5923  44.245  30.989  12.269
40664W        W 5924   4.681   4.885   4.642
40665W        W 5925  40.835   4.113  12.087
40666W        W 5926  36.126  24.218  10.209
40667W        W 5927  31.638  32.900  11.088
40668W        W 5928   0.821   1.836  14.443
40669W        W 5929  29.255  15.770  12.441
40670W        W 5930  38.889  23.163  13.827
40671W        W 5931  11.759   1.934   0.360
40672W        W 5932  26.304  34.782   2.372
40673W        W 5933  15.674   7.711  10.729
40674W        W 5934  15.106  13.224  10.740
40675W        W 5935   6.610  41.345  12.022
40676W        W 5936  31.551  21.226   0.406
40677W        W 5937   7.478  39.442  10.444
40678W        W 5938  14.912  31.866  13.531
40679W        W 5939  13.601  10.250  13.046
40680W        W 5940  22.785   9.670  12.545
40681W        W 5941  25.226   1.921  13.417
40682W        W 5942  19.580  38.578   0.379
40683W        W 5943  26.495  13.143  13.833
40684W        W 5944  14.232   3.370  12.436
40685W        W 5945  38.690  20.119   1.831
40686W        W 5946  38.428  14.221  12.964
40687W        W 5947   1.440  37.986  13.330
40688W        W 5948  35.966  17.473  12.077
40689W        W 5949  22.769   6.959  13.456
40690W        W 5950  25.513  33.393  14.824
40691W        W 5951  12.824  38.936  10.859
40692W        W 5952  42.443  42.075  12.404
40693W        W 5953  27.920  10.777   1.524
40694W        W 5954  26.140  16.814  13.315
40695W        W 5955  29.657  24.155   0.241
40696W        W 5956  42.755   5.349  12.839
40697W        W 5957  23.708  24.789   0.430
40698W        W 5958   0.784  36.802   1.217
40699W        W 5959  14.693   3.664  12.394
40700W        W 5960  30.771  16.770   0.738
40701W        W 5961  43.294  39.510   0.325
40702W        W 5962  14.357   5.929  13.819
40703W        W 5963  33.913  35.069  14.913
40704W        W 5964  36.421  28.030  14.329
40705W        W 5965  27.638  13.772   4.124
40706W        W 5966   8.098  39.026   3.146
40707W        W 5967  36.248  21.507  14.833
40708W        W 5968  36.702  34.880   1.852
40709W        W 5969   7.683   7.486  14.782
40710W        W 5970   0.447   9.892   2.712
40711W        W 5971  15.699  36.965  13.273
40712W        W 5972  29.070  30.659   0.336
40713W        W 5973   6.720  13.147  11.187
40714W        W 5974  35.048  26.430   3.229
40715W        W 5975  25.036  21.365  13.499
40716W        W 5976  35.047   6.809  14.406
40717W        W 5977  27.027   8.823   2.851
40718W        W 5978  40.418  25.411   2.208
40719W        W 5979  13.589  21.176  14.542
40720W        W 5980   9.840  27.027  13.557
40721W        W 5981  36.924   7.899   4.127
40722W        W 5982  37.316   6.950   0.677
40723W        W 5983  32.578  18.733  13.446
40724W        W 5984  21.507  39.811   5.446
40725W        W 5985  13.413  11.804  12.930
40726W        W 5986  36.348  42.343  11.825
40727W        W 5987  16.042  36.575  12.372
40728W        W 5988  43.895   5.845  11.895
40729W        W 5989   6.187  17.656   3.098
40730W        W 5990  37.346  30.446   2.604
40731W        W 5991  29.484   6.104  13.218
40732W        W 5992  22.963   7.098  14.796
40733W        W 5993  23.598   9.063   3.214
40734W        W 5994  13.611  11.679  12.032
40735W        W 5995  32.530   2.333   3.262
40736W        W 5996  25.548  10.295  11.112
40737W        W 5997  10.650   3.788   1.965
40738W        W 5998  16.234   7.158  13.351
40739W        W 5999  25.193  10.062   1.129
40740W        W 6000  19.191  38.881   3.510
40741W        W 6001  25.055  41.601   4.150
40742W        W 6002  10.508  43.042  14.608
40743W        W 6003  35.500  29.643   2.916
40744W        W 6004  44.872  22.664  13.285
40745W        W 6005  42.568   9.920  14.854
40746W        W 6006   1.854  33.207  12.015
40747W        W 6007  39.889  30.096   4.596
40748W        W 6008  21.963  10.997  13.375
40749W        W 6009  42.517  16.830  11.961
40750W        W 6010  30.034  28.721   3.691
40751W        W 6011   2.708   0.073  11.465
40752W        W 6012  21.005  33.412   0.495
40753W        W 6013  36.980   0.013  14.267
40754W        W 6014  10.225  23.071  12.376
40755W        W 6015  40.241   5.953   0.815
40756W        W 6016  25.555  25.609   0.809
40757W        W 6017  40.479   1.985  10.418
40758W        W 6018  38.919  24.640  14.049
40759W        W 6019  25.751  31.855   2.581
40760W        W 6020  37.499  28.007   4.696
40761W        W 6021  26.523  18.065  11.832
40762W        W 6022  20.398  35.899  13.926
40763W        W 6023  43.357  33.213   1.482
40764W        W 6024   5.810  28.130   4.493
40765W        W 6025  14.754  32.859  12.905
40766W        W 6026   6.120  27.911  14.906
40767W        W 6027   8.044  35.625  13.878
40768W        W 6028  37.252  17.583  12.064
40769W        W 6029  39.317  13.628  10.567
40770W        W 6030   8.321   7.498   1.314
40771W        W 6031  25.559  14.143  12.852
40772W        W 6032  18.027  34.961   0.512
40773W        W 6033  22.279  41.603   1.936
40774W        W 6034  33.439   5.404   2.931
40775W        W 6035  40.448  32.118   5.101
40776W        W 6036  43.351   1.794   3.594
40777W        W 6037   3.689  36.364  13.902
40778W        W 6038   6.002  40.548  13.064
40779W        W 6039  38.609  37.672   3.751
40780W        W 6040  33.714  29.371   2.795
40781W        W 6041  35.953  26.530   0.224
40782W        W 6042  29.030  22.264   4.334
40783W        W 6043   8.623  11.634  11.981
40784W        W 6044  22.160  38.557   3.226
40785W        W 6045   2.937   3.852  13.055
40786W        W 6046  17.647   3.828  11.658
40787W        W 6047   4.765  13.258  14.215
40788W        W 6048  31.136  43.928  14.382
40789W        W 6049   9.227  22.560  14.508
40790W        W 6050  17.103  21.800  12.850
40791W        W 6051  36.836   7.761   3.262
40792W        W 6052  14.508  11.430   0.893
40793W        W 6053  14.609  16.196  12.839
40794W        W 6054  34.537  30.406   0.582
40795W        W 6055  17.605   7.329  10.555
40796W        W 6056  20.628  28.889  10.371
40797W        W 6057  17.410   5.752   2.250
40798W        W 6058  25.528  24.789  10.723
40799W        W 6059  15.661   7.623  13.931
40800W        W 6060   7.623  38.478   1.058
40801W        W 6061  10.892  28.594  11.602
40802W        W 6062  31.347  34.601  14.910
40803W        W 6063  20.533  10.880   0.351
40804W        W 6064  29.376  42.409  13.393
40805W        W 6065  15.309  27.589  11.135
40806W        W 6066  25.526   3.886  10.443
40807W        W 6067  29.274   7.357   0.068
40808W        W 6068  42.699  21.500   0.311
40809W        W 6069  22.158  26.488   0.768
40810W        W 6070  29.962  20.840   2.345
40811W        W 6071   0.463  41.849  11.493
40812W        W 6072  29.654   8.471   4.144
40813W        W 6073  40.983  17.725   1.813
40814W        W 6074   5.833  34.816   3.041
40815W        W 6075  34.917  34.951  10.930
40816W        W 6076  20.027  16.146   2.424
40817W        W 6077  20.267   3.291   0.853
40818W        W 6078  12.654   9.905  10.756
40819W        W 6079   9.382  44.564   0.527
40820W        W 6080   1.258   0.780  10.489
40821W        W 6081  29.387  27.185   9.864
40822W        W 6082  40.714   3.813  14.433
40823W        W 6083  23.796   1.852  14.844
40824W        W 6084  26.472  14.100   4.210
40825W        W 6085  29.939  26.233   2.778
40826W        W 6086  32.630  27.331   1.125
40827W        W 6087  10.207  24.572   0.498
40828W        W 6088  33.002  18.188   1.215
40829W        W 6089  36.602  24.082  11.990
40830W        W 6090  36.643  15.027   4.181
40831W        W 6091   8.271  35.561  11.516
40832W        W 6092  19.626  37.559  10.420
40833W        W 6093  44.082  21.227  12.606
40834W        W 6094  28.997   7.323  14.162
40835W        W 6095   2.035  14.812   0.386
40836W        W 6096  21.779  35.378  11.132
40837W        W 6097   1.811  13.370  13.472
40838W        W 6098  18.695  43.011  10.741
40839W        W 6099  30.850  41.279   2.220
40840W        W 6100   9.401   8.544  12.498
40841W        W 6101  25.013   0.916   1.760
40842W        W 6102   4.213  12.304   2.389
40843W        W 6103   7.839  18.966   2.538
40844W        W 6104  12.189  30.993  12.090
40845W        W 6105  36.117  11.034   0.820
40846W        W 6106   7.813  22.805   3.182
40847W        W 6107  23.410  31.536   4.756
40848W        W 6108  42.621  39.952   2.888
40849W        W 6109  27.713  19.384  13.095
40850W        W 6110   4.317  40.741   0.465
40851W        W 6111  34.478  29.463  14.909
40852W        W 6112  30.963  43.997  14.896
40853W        W 6113  17.734   4.207  12.434
40854W        W 6114  13.735  22.313  14.762
40855W        W 6115  40.057   1.244  14.775
40856W        W 6116  11.066  15.107  13.491
40857W        W 6117  20.333   9.899  12.420
40858W        W 6118  18.888  30.002   1.164
40859W        W 6119  31.675  34.648   4.239
40860W        W 6120   0.363  15.640   0.210
40861W        W 6121  18.060  42.794   3.386
40862W        W 6122  43.443  25.072  14.296
40863W        W 6123  40.400  44.428   3.056
40864W        W 6124  17.046   2.009  10.215
40865W        W 6125   4.013  12.781   5.187
40866W        W 6126  32.037  17.231   3.398
40867W        W 6127  42.876  32.878  10.806
40868W        W 6128   7.246   5.392  14.906
40869W        W 6129  22.447  41.042  14.345
40870W        W 6130  43.826   2.662   1.522
40871W        W 6131  19.359   1.403  10.768
40872W        W 6132  43.146  28.034  12.584
40873W        W 6133   0.832   2.340  12.309
40874W        W 6134  41.431  14.773   4.390
40875W        W 6135  32.670  34.597   3.290
40876W        W 6136   2.434   5.830  10.992
40877W        W 6137  29.129   8.512  12.051
40878W        W 6138  28.688  18.646  11.802
40879W        W 6139  31.491  39.886  12.904
40880W        W 6140  25.608  11.951  12.080
40881W        W 6141  18.606  24.767   3.797
40882W        W 6142  16.521  42.424   3.238
40883W        W 6143   2.383  15.862  14.909
40884W        W 6144  14.116  24.388   3.730
40885W        W 6145   8.164  39.885  10.649
40886W        W 6146  35.520  10.433   2.629
40887W        W 6147   7.805  34.976   4.560
40888W        W 6148  28.009  24.469  13.015
40889W        W 6149  37.347  20.478   3.448
40890W        W 6150  32.556  21.024  13.982
40891W        W 6151  24.293  22.297  11.207
40892W        W 6152  21.014  14.066  10.771
40893W        W 6153   6.830  42.533  14.935
40894W        W 6154   7.519  10.177  13.517
40895W        W 6155  43.485  26.592   4.570
40896W        W 6156  30.026  31.181  12.845
40897W        W 6157  21.479  28.860  13.766
40898W        W 6158   2.216  38.508  11.623
40899W        W 6159  41.871   8.241   3.748
40900W        W 6160  38.387  27.029   2.783
40901W        W 6161  36.842  41.905  13.518
40902W        W 6162  38.096  16.555  11.178
40903W        W 6163   1.224  36.793  14.176
40904W        W 6164  20.343  36.203  10.897
40905W        W 6165  24.103  26.721  13.979
40906W        W 6166  10.003  11.311   3.867
40907W        W 6167  38.141  14.197  14.319
40908W        W 6168  13.363  33.798  10.976
40909W        W 6169  44.215  27.044  11.161
40910W        W 6170  42.855  11.116   2.219
40911W        W 6171  28.728  44.015   1.175
40912W        W 6172  26.707  19.532   0.393
40913W        W 6173  15.239   1.075  14.765
40914W        W 6174   1.316  36.312  14.003
40915W        W 6175   9.935  26.179  12.018
40916W        W 6176   4.918  19.685   4.604
40917W        W 6177   9.945  34.467   3.199
40918W        W 6178  26.708   6.908   3.307
40919W        W 6179  17.644  11.780   3.466
40920W        W 6180  38.348  42.384  13.813
40921W        W 6181  32.082  32.062  12.575
40922W        W 6182  43.354   9.787   3.770
40923W        W 6183  39.058  28.232  14.701
40924W        W 6184  32.392  27.073  13.607
40925W        W 6185   8.653  28.438  14.398
40926W        W 6186  41.813  12.081   2.073
40927W        W 6187   3.685  39.412  13.429
40928W        W 6188  20.987  33.901   0.300
40929W        W 6189  19.827  42.811   4.447
40930W        W 6190   2.544  32.196  10.292
40931W        W 6191  28.314   5.389   4.708
40932W        W 6192  35.191  14.703   3.757
40933W        W 6193  34.003  41.562  13.925
40934W        W 6194  36.980  20.174   3.616
40935W        W 6195  37.598   9.136  11.053
40936W        W 6196   3.714  15.347  14.086
40937W        W 6197  30.113   5.829  12.162
40938W        W 6198  24.507  39.503   1.942
40939W        W 6199   2.820  16.011  13.572
40940W        W 6200  44.934   0.039   1.419
40941W        W 6201  39.306  31.611   4.539
40942W        W 6202   8.129  22.942  11.080
40943W        W 6203  27.485  35.414   4.914
40944W        W 6204  25.682  11.304  12.584
40945W        W 6205   4.273  35.301   1.479
40946W        W 6206  10.826  28.726   2.324
40947W        W 6207  38.790   6.800   4.721
40948W        W 6208  39.010  16.993  13.319
40949W        W 6209  32.841  41.693  11.956
40950W        W 6210  26.233  12.229   0.526
40951W        W 6211   4.984  17.540   4.203
40952W        W 6212  24.778  20.269   1.631
40953W        W 6213   1.340  42.905  11.392
40954W        W 6214  24.093  32.944  12.976
40955W        W 6215   8.938  15.226   2.771
40956W        W 6216  38.799  13.699  10.585
40957W        W 6217  40.567  23.574   0.001
40958W        W 6218  23.791  15.114   2.892
40959W        W 6219  26.963  32.605  10.649
40960W        W 6220  17.612   6.515   4.344
40961W        W 6221  36.382  14.321   4.623
40962W        W 6222   7.220  28.905  12.093
40963W        W 6223   6.749  35.065  11.109
40964W        W 6224  23.655  25.380  11.196
40965W        W 6225   5.161  41.790  11.471
40966W        W 6226  23.829  43.806   4.183
40967W        W 6227  38.251  31.971  12.854
40968W        W 6228   9.356   6.218   3.647
40969W        W 6229  28.701  33.367   2.194
40970W        W 6230  30.115  17.201  12.370
40971W        W 6231  16.520  30.603   3.596
40972W        W 6232  18.268  43.041   1.791
40973W        W 6233   6.899   6.812  13.260
40974W        W 6234  44.392  30.475   0.830
40975W        W 6235  24.338   1.477  11.667
40976W        W 6236  44.275  25.611   3.569
40977W        W 6237  27.342  34.692  14.339
40978W        W 6238  17.687  43.918  14.440
40979W        W 6239  11.756   8.755   3.730
40980W        W 6240  17.591   9.751  13.807
40981W        W 6241  33.906   1.854   1.318
40982W        W 6242  29.155   0.656   0.950
40983W        W 6243  29.036   4.218  11.386
40984W        W 6244  19.292  13.003  14.282
40985W        W 6245  38.047  26.899  10.722
40986W        W 6246  36.107  38.882   2.102
40987W        W 6247   2.302  34.616  13.940
40988W        W 6248  13.080   8.644   4.875
40989W        W 6249  17.699  21.486   2.605
40990W        W 6250  42.800  16.125  13.062
40991W        W 6251  42.379  13.644  14.313
40992W        W 6252  12.309  32.637  12.495
40993W        W 6253  18.031  37.214   2.272
40994W        W 6254  23.979  10.201   5.046
40995W        W 6255   9.764  15.626   1.964
40996W        W 6256  32.670   1.832   3.160
40997W        W 6257  27.103   7.404  13.606
40998W        W 6258   6.810  28.224   0.495
40999W        W 6259  38.492  31.101  14.925
41000W        W 6260  23.936  14.379   4.391
41001W        W 6261  38.483  14.086   5.001
41002W        W 6262  15.202  23.642   1.871
41003W        W 6263   5.567   7.927   0.913
41004W        W 6264   8.061   7.244   2.248
41005W        W 6265  41.358   0.044   1.348
41006W        W 6266   5.731   7.364   3.987
41007W        W 6267  41.527  18.174   2.390
41008W        W 6268  15.827  32.495  14.238
41009W        W 6269  28.537  10.528   0.906
41010W        W 6270  43.111  40.355   4.354
41011W        W 6271   0.791   4.651  14.089
41012W        W 6272  31.495   7.340  10.523
41013W        W 6273  15.151   3.551   4.096
41014W        W 6274  33.314  11.372   4.471
41015W        W 6275  36.676  21.745  13.870
41016W        W 6276  33.364  17.063   0.602
41017W        W 6277  18.571  19.018   0.686
41018W        W 6278  28.927   3.620   3.711
41019W        W 6279  31.983  18.455   5.048
41020W        W 6280  19.057  14.168   2.254
41021W        W 6281  26.234  21.971  14.484
41022W        W 6282  39.752  10.285  12.384
41023W        W 6283  21.708  30.622  14.993
41024W        W 6284  11.810  10.656   4.621
41025W        W 6285  31.381  15.087  11.134
41026W        W 6286  31.817  19.377   2.340
41027W        W 6287  30.380  42.489   3.619
41028W        W 6288  29.076   7.725  12.423
41029W        W 6289  25.061  39.959  14.945
41030W        W 6290  40.950  38.094   4.112
41031W        W 6291  10.771  25.466  13.884
41032W        W 6292   2.418   6.203  13.822
41033W        W 6293   8.181  10.218   0.640
41034W        W 6294  31.117  31.589   2.556
41035W        W 6295  44.700   6.968  14.946
41036W        W 6296  20.046  33.749   1.287
41037W        W 6297  26.559   9.181   0.281
41038W        W 6298  24.640   4.139  13.753
41039W        W 6299  29.428  10.584  12.967
41040W        W 6300  11.820   7.707   0.789
41041W        W 6301  17.042  38.941   1.569
41042W        W 6302   8.975  24.769  10.308
41043W        W 6303  22.292  13.410  11.909
41044W        W 6304  15.214  24.671   1.227
41045W        W 6305   6.709  27.488   4.195
41046W        W 6306  36.505  44.509   3.599
41047W        W 6307  28.651  35.591   1.205
41048W        W 6308  14.265   2.703   0.930
41049W        W 6309  41.044  41.557   0.665
41050W        W 6310  29.056  26.436   3.286
41051W        W 6311  28.275   3.433  13.916
41052W        W 6312   7.200   8.868  10.670
41053W        W 6313  40.637  24.068  11.445
41054W        W 6314  43.430  42.029  12.271
41055W        W 6315  28.962   2.308  11.721
41056W        W 6316  32.433  13.687  14.751
41057W        W 6317   5.832  31.880   3.289
41058W        W 6318  12.999   2.272   0.224
41059W        W 6319   8.262  20.545   2.131
41060W        W 6320  20.280  30.120   1.298
41061W        W 6321  14.454  15.325   3.792
41062W        W 6322  38.895  30.498   2.910
41063W        W 6323   4.180  42.518  12.463
41064W        W 6324  23.231  40.392   3.327
41065W        W 6325   6.151  14.475   4.582
41066W        W 6326   2.790  27.439   2.579
41067W        W 6327  20.217  32.516   3.214
41068W        W 6328   3.923  33.473  13.255
41069W        W 6329  14.810  23.503  11.537
41070W        W 6330  30.793  29.499  11.976
41071W        W 6331  24.777  44.281   0.840
41072W        W 6332  15.321  21.312  10.335
41073W        W 6333  28.358   1.849  10.729
41074W        W 6334   4.498  24.057  11.977
41075W        W 6335  30.684  28.411   0.132
41076W        W 6336  23.064  13.835   4.048
41077W        W 6337  32.454  21.313   4.718
41078W        W 6338  15.415  13.306   3.915
41079W        W 6339   8.619  15.761   1.438
41080W        W 6340   7.095   2.273  12.066
41081W        W 6341  19.505  10.578   3.338
41082W        W 6342  44.793  18.303   2.361
41083W        W 6343  36.792  31.557  11.523
41084W        W 6344  39.060  41.529   2.907
41085W        W 6345  18.181  38.325   2.812
41086W        W 6346  12.931  12.107   1.451
41087W        W 6347  20.598  11.892   1.918
41088W        W 6348  28.734  15.367  13.450
41089W        W 6349   3.330  30.577   2.138
41090W        W 6350  20.169  41.401  14.534
41091W        W 6351  17.343  12.126  10.576
41092W        W 6352  26.311  38.619   4.244
41093W        W 6353  24.624  22.794   0.970
41094W        W 6354  36.099  16.676  13.118
41095W        W 6355  44.981  29.186   0.934
41096W        W 6356   9.034   2.311   0.298
41097W        W 6357  32.124  30.457  14.075
41098W        W 6358  13.197  19.208  10.475
41099W        W 6359   0.227  27.470   0.766
41100W        W 6360   2.796  30.070   0.574
41101W        W 6361   0.557  35.136   2.669
41102W        W 6362  35.048  29.142  10.710
41103W        W 6363  39.367   4.454  14.132
41104W        W 6364  39.012  24.922  13.368
41105W        W 6365   5.697  11.255   1.487
41106W        W 6366   0.546   8.489  12.898
41107W        W 6367  29.896  32.468  13.515
41108W        W 6368  28.033  39.758   1.309
41109W        W 6369  34.113  11.712   2.455
41110W        W 6370  30.567   7.288  14.387
41111W        W 6371  42.890  37.334  10.565
41112W        W 6372  26.238  11.615  10.783
41113W        W 6373   2.680  41.310  11.336
41114W        W 6374  28.108  37.995   4.730
41115W        W 6375  38.903  14.295  13.283
41116W        W 6376   6.833   2.494  11.684
41117W        W 6377  33.940  16.307  12.537
41118W        W 6378  18.241  35.910   1.170
41119W        W 6379  16.083  30.510   0.736
41120W        W 6380  31.508  19.144   1.953
41121W        W 6381   8.916  27.246   0.368
41122W        W 6382  14.290  40.819  14.491
41123W        W 6383  31.653  35.551  12.977
41124W        W 6384  39.031   4.430   1.378
41125W        W 6385  44.510  32.038  14.344
41126W        W 6386  31.879  24.990  12.204
41127W        W 6387   7.223  43.852  12.355
41128W        W 6388  15.574  27.721  13.926
41129W        W 6389  30.213  22.632   0.426
41130W        W 6390  26.304  20.734  11.621
41131W        W 6391   4.961  25.174   4.235
41132W        W 6392  26.868  40.325   1.415
41133W        W 6393   5.073  17.726  10.625
41134W        W 6394  32.931  29.473  13.840
41135W        W 6395  15.016  32.379  14.909
41136W        W 6396  36.549  24.610  11.880
41137W        W 6397   0.710  10.788   3.940
41138W        W 6398  33.431  18.688  11.036
41139W        W 6399  19.629  42.340   1.420
41140W        W 6400  43.981   2.775  12.554
41141W        W 6401   4.826  18.538  12.879
41142W        W 6402   1.225  15.873  11.101
41143W        W 6403   1.284  13.231  13.341
41144W        W 6404  12.074  11.972  10.125
41145W        W 6405  18.903   2.845  14.898
41146W        W 6406   1.116  40.876  12.334
41147W        W 6407   4.976  13.677   0.336
41148W        W 6408  17.096   4.187  11.133
41149W        W 6409  22.752  21.968  13.682
41150W        W 6410  21.772  16.891   3.018
41151W        W 6411   7.235  44.264   4.010
41152W        W 6412  28.063  26.560   3.994
41153W        W 6413  40.447  17.142   2.981
41154W        W 6414  26.441   1.680  10.776
41155W        W 6415   3.737   4.857   0.388
41156W        W 6416  44.591  24.968  12.151
41157W        W 6417  21.672   8.615   2.688
41158W        W 6418  40.333  10.516  10.738
41159W        W 6419  22.957   7.763  12.406
41160W        W 6420  14.098  40.934   1.414
41161W        W 6421  38.425  32.993  13.855
41162W        W 6422  10.203  22.002  10.619
41163W        W 6423  41.847  22.103   2.368
41164W        W 6424   9.198  39.980   3.289
41165W        W 6425  41.397  12.254  10.496
41166W        W 6426  30.110  20.326  10.731
41167W        W 6427  40.333  21.993  13.004
41168W        W 6428  31.543  35.043  11.148
41169W        W 6429  39.454   8.411   4.746
41170W        W 6430  39.855  40.491  13.137
41171W        W 6431  11.267  15.610  14.506
41172W        W 6432  32.045  23.791   2.377
41173W        W 6433  17.116  29.411  14.736
41174W        W 6434  30.986  40.612   2.892
41175W        W 6435  35.903  39.311   2.329
41176W        W 6436  17.509  21.790   4.646
41177W        W 6437  28.993  11.577  13.773
41178W        W 6438  28.439  17.336   2.624
41179W        W 6439  12.151  18.690   3.123
41180W        W 6440  40.515  14.228  14.693
41181W        W 6441  44.346  17.749  13.503
41182W        W 6442   2.028  30.498   3.448
41183W        W 6443  26.167   3.649   4.271
41184W        W 6444  27.996  32.778  12.135
41185W        W 6445  14.696   6.671  12.014
41186W        W 6446  20.039   4.216   1.419
41187W        W 6447  28.443   0.280   3.674
41188W        W 6448  11.322   0.220  11.585
41189W        W 6449  11.596  41.786   1.857
41190W        W 6450  26.911  44.731  14.484
41191W        W 6451  18.327  25.247   3.740
41192W        W 6452   5.855  36.515   2.374
41193W        W 6453  36.498  37.046   4.933
41194W        W 6454  19.681  27.064  10.605
41195W        W 6455  26.765  21.069   1.852
41196W        W 6456  35.422  43.345   4.804
41197W        W 6457   7.979  39.890   2.611
41198W        W 6458  43.838  30.526   3.373
41199W        W 6459   5.220   9.648  12.876
41200W        W 6460  44.342   1.397  12.895
41201W        W 6461   1.034  37.560   5.018
41202W        W 6462  42.575  43.591   0.550
41203W        W 6463  37.044  24.458   4.662
41204W        W 6464  33.889  15.104   3.644
41205W        W 6465  22.123  21.222  13.945
41206W        W 6466  20.806  27.324  11.188
41207W        W 6467  36.942  16.054  12.121
41208W        W 6468  10.107   9.695  12.990
41209W        W 6469  21.471  21.176   3.673
41210W        W 6470  26.159  35.685   5.159
41211W        W 6471  18.128  26.909   2.195
41212W        W 6472  23.743  19.559  11.651
41213W        W 6473  35.337   3.015   0.902
41214W        W 6474  17.645  18.725   4.917
41215W        W 6475  14.096  25.557   1.444
41216W        W 6476   0.741  38.036  12.142
41217W        W 6477  35.522  23.207   4.306
41218W        W 6478   7.454  37.122   2.676
41219W        W 6479  23.073  33.824   4.064
41220W        W 6480  14.612  28.115  12.626
41221W        W 6481  29.676  30.471   3.071
41222W        W 6482  35.373  38.411   2.302
41223W        W 6483  10.692  36.398  10.918
41224W        W 6484  29.135  31.580  13.984
41225W        W 6485   2.786   0.929  13.612
41226W        W 6486  31.551  19.175  11.305
41227W        W 6487  23.510  24.381  12.529
41228W        W 6488  34.682  19.010  11.309
41229W        W 6489  25.311  27.696   3.812
41230W        W 6490  25.695  25.057  12.817
41231W        W 6491  20.315  36.334  12.578
41232W        W 6492  33.700  42.726  12.931
41233W        W 6493   5.739   2.110   0.326
41234W        W 6494  30.517  14.774   0.893
41235W        W 6495   3.758  20.565  13.682
41236W        W 6496  14.281  13.273  13.521
41237W        W 6497  41.449  38.876   5.024
41238W        W 6498  29.857  38.549   5.170
41239W        W 6499   3.797   6.894  10.703
41240W        W 6500   5.189  23.063   3.496
41241W        W 6501  10.379  27.129  10.599
41242W        W 6502  37.205  20.544  10.632
41243W        W 6503   1.127  24.392  13.851
41244W        W 6504  32.156  27.920   2.858
41245W        W 6505  18.288  12.308  14.295
41246W        W 6506  26.674  43.793   2.433
41247W        W 6507  12.410  40.041  13.592
41248W        W 6508  12.853  30.518   0.331
41249W        W 6509  29.162  25.036  10.781
41250W        W 6510  42.109   7.121   0.528
41251W        W 6511  10.271  37.943   2.426
41252W        W 6512   7.769  38.937  14.361
41253W        W 6513  28.885  43.861  10.615
41254W        W 6514   1.349   5.848   3.771
41255W        W 6515  10.744  34.806  14.080
41256W        W 6516  37.597   7.897   0.380
41257W        W 6517  32.966  20.685   3.904
41258W        W 6518   2.950  20.096   1.897
41259W        W 6519  39.300  11.269   1.496
41260W        W 6520  12.227  25.906  13.344
41261W        W 6521  28.493  44.373   2.176
41262W        W 6522  14.649  15.033  14.296
41263W        W 6523   6.887  23.218   3.181
41264W        W 6524   3.384   6.895   0.580
41265W        W 6525   4.041  42.811   1.467
41266W        W 6526  40.753   5.161  10.786
41267W        W 6527   6.489  29.648   0.907
41268W        W 6528   6.294  18.664  11.157
41269W        W 6529  32.010  42.293   0.909
41270W        W 6530   7.715  27.737   2.704
41271W        W 6531  44.342  17.605  14.006
41272W        W 6532  24.168  38.957   1.399
41273W        W 6533   8.549  25.999  12.841
41274W        W 6534   0.919  24.035  10.484
41275W        W 6535  17.318   2.410   3.713
41276W        W 6536  38.345  37.317  14.959
41277W        W 6537  10.759   6.610   1.308
41278W        W 6538  22.634  33.946   2.216
41279W        W 6539  16.256  13.374  13.140
41280W        W 6540  29.596  29.684  12.660
41281W        W 6541  23.689  32.593  11.570
41282W        W 6542  25.841  19.467  13.372
41283W        W 6543  35.998  36.939   1.328
41284W        W 6544  31.412  32.400   1.935
41285W        W 6545  10.235  11.773   3.838
41286W        W 6546  32.048  36.431   1.115
41287W        W 6547  34.345   1.344   2.314
41288W        W 6548  41.420  26.928   0.048
41289W        W 6549   0.490  20.719  13.937
41290W        W 6550  17.055   9.720  10.422
41291W        W 6551  29.513  44.881   4.575
41292W        W 6552   1.493  38.700   0.255
41293W        W 6553  42.942  38.286  11.504
41294W        W 6554  33.246  15.159   3.736
41295W        W 6555  29.216  23.469   3.615
41296W        W 6556   0.406  38.722  11.531
41297W        W 6557  26.674   3.350   0.920
41298W        W 6558   6.723  27.499   1.378
41299W        W 6559  39.615  16.314  11.162
41300W        W 6560  26.469   2.501   5.025
41301W        W 6561  26.196   2.019  11.551
41302W        W 6562   9.847  20.286  13.829
41303W        W 6563   6.768  20.254   4.595
41304W        W 6564  30.862  12.729  13.916
41305W        W 6565  20.148  20.244  12.060
41306W        W 6566  13.878  44.268   1.389
41307W        W 6567  25.038  20.532  11.221
41308W        W 6568  37.920   5.794   4.748
41309W        W 6569   1.448  10.839  12.372
41310W        W 6570  21.729   8.798  11.622
41311W        W 6571   3.720  31.494   4.226
41312W        W 6572  27.170  30.848  13.966
41313W        W 6573  14.375  22.534   5.347
41314W        W 6574  20.154   5.750  13.036
41315W        W 6575   2.766   6.480   3.301
41316W        W 6576  23.755  26.728   3.223
41317W        W 6577  23.372  44.887   2.644
41318W        W 6578  30.250  35.967   1.730
41319W        W 6579  21.535  27.620   1.791
41320W        W 6580   7.787  41.252  12.819
41321W        W 6581  14.780  19.660   4.099
41322W        W 6582  43.796  40.438   0.837
41323W        W 6583   6.126   9.208   0.866
41324W        W 6584   1.910  37.368   1.814
41325W        W 6585   6.638  22.655  12.114
41326W        W 6586  25.258  25.367  11.476
41327W        W 6587   8.916  24.197  14.891
41328W        W 6588  19.296  23.882   5.550
41329W        W 6589  28.027   5.883   0.277
41330W        W 6590  26.082  14.248  11.223
41331W        W 6591  23.221  25.677   1.262
41332W        W 6592  32.265  13.239   1.282
41333W        W 6593  13.113  27.589   0.793
41334W        W 6594  28.417  31.029   4.458
41335W        W 6595   6.828  17.050  10.366
41336W        W 6596  14.912  11.852  13.903
41337W        W 6597  21.560   1.238   4.853
41338W        W 6598  13.904  23.811   0.922
41339W        W 6599  14.804  31.575   0.324
41340W        W 6600  27.016  12.372   2.752
41341W        W 6601  18.734   0.894  10.639
41342W        W 6602  36.483  22.689   4.315
41343W        W 6603  16.395   9.303  10.767
41344W        W 6604  36.523   6.614   2.174
41345W        W 6605  41.038  40.555  12.479
41346W        W 6606  10.222  34.373   1.266
41347W        W 6607  31.939   5.310   3.661
41348W        W 6608  22.332  25.272  14.011
41349W        W 6609  43.909  10.232  10.845
41350W        W 6610  25.849  18.757  11.198
41351W        W 6611  43.922  16.022  14.510
41352W        W 6612   6.298  11.372   4.847
41353W        W 6613  29.113  36.578   0.438
41354W        W 6614   7.935  36.450   3.743
41355W        W 6615  32.995  23.264  12.839
41356W        W 6616  40.668   0.252   5.604
41357W        W 6617  39.804  27.327   2.939
41358W        W 6618  18.987   2.323  13.365
41359W        W 6619  24.762  30.487   1.996
41360W        W 6620   2.117   6.401   1.649
41361W        W 6621  15.131  16.200  14.397
41362W        W 6622   5.023   3.262  13.100
41363W        W 6623  42.489   4.919   9.914
41364W        W 6624   9.657  27.439   3.601
41365W        W 6625  40.971  33.648   0.852
41366W        W 6626  25.133  24.926  12.142
41367W        W 6627  20.131  39.574  11.037
41368W        W 6628  42.045  22.579  10.605
41369W        W 6629  39.960  32.491  14.487
41370W        W 6630   4.918  23.272   3.123
41371W        W 6631  12.236   1.215  11.084
41372W        W 6632  10.216  26.706  14.026
41373W        W 6633  25.638  33.438  13.949
41374W        W 6634  11.097  21.566  12.727
41375W        W 6635   5.769  25.399   1.360
41376W        W 6636  28.110  31.545   4.709
41377W        W 6637  25.827  11.163   3.744
41378W        W 6638   9.148  25.553  12.110
41379W        W 6639  43.991   3.851  14.974
41380W        W 6640  27.977  39.239   1.406
41381W        W 6641  36.600  24.896   0.165
41382W        W 6642  35.036  20.097  11.501
41383W        W 6643  41.281  19.664   4.794
41384W        W 6644  21.389  44.792   4.849
41385W        W 6645  42.623  28.080   0.255
41386W        W 6646   8.246   9.013  12.841
41387W        W 6647  13.854  35.156   2.409
41388W        W 6648   6.948  32.817   1.404
41389W        W 6649  27.675   6.257   0.140
41390W        W 6650  24.608  44.117  11.479
41391W        W 6651  34.416   2.467   3.702
41392W        W 6652  22.920   3.967  10.812
41393W        W 6653   6.736  42.938   2.824
41394W        W 6654  27.475  32.903  12.984
41395W        W 6655  15.879  44.468   2.649
41396W        W 6656  19.773  43.933  12.598
41397W        W 6657  12.885  25.059   2.884
41398W        W 6658  11.220  41.435   0.679
41399W        W 6659  40.878  39.431   4.721
41400W        W 6660  12.169  44.038   3.547
41401W        W 6661  35.072   5.972   2.086
41402W        W 6662  30.171  25.971  13.911
41403W        W 6663  18.623  14.201  14.137
41404W        W 6664   7.430  36.849  11.081
41405W        W 6665   6.222   7.928  10.783
41406W        W 6666   2.077  19.587  11.638
41407W        W 6667  38.587  20.304   4.587
41408W        W 6668  42.613  20.020   4.342
41409W        W 6669   1.754  12.582  11.972
41410W        W 6670  38.403  32.041  13.331
41411W        W 6671  24.046  22.565   2.742
41412W        W 6672  30.998  42.943   3.894
41413W        W 6673  35.833  35.518   4.408
41414W        W 6674  21.040  32.679  14.528
41415W        W 6675   6.913  10.516  13.910
41416W        W 6676   7.327  18.637   1.693
41417W        W 6677  23.202  10.586  14.431
41418W        W 6678  12.789  16.883   0.396
41419W        W 6679  32.949  31.455  11.025
41420W        W 6680  14.249  32.662  11.757
41421W        W 6681  41.047  35.401   2.305
41422W        W 6682   1.724   7.958   0.045
41423W        W 6683  44.305  40.511  13.353
41424W        W 6684  13.822  39.709   2.542
41425W        W 6685  43.920  11.057  11.244
41426W        W 6686  14.652  17.760   4.602
41427W        W 6687  19.731   2.098   1.174
41428W        W 6688  39.455  34.571  14.106
41429W        W 6689  33.457  13.133  11.675
41430W        W 6690   1.766  35.007   4.719
41431W        W 6691  25.076  43.112   3.278
41432W        W 6692  30.062  20.652   1.874
41433W        W 6693   7.748  23.271   0.009
41434W        W 6694  18.356  26.627   4.076
41435W        W 6695   9.738  27.031   1.695
41436W        W 6696  44.902   2.693  13.120
41437W        W 6697  15.335  36.482  11.628
41438W        W 6698   1.902  17.780  12.082
41439W        W 6699  31.187  31.912  10.705
41440W        W 6700  14.880   9.161   1.292
41441W        W 6701  27.737  39.997  13.936
41442W        W 6702   0.829   2.380   3.935
41443W        W 6703  30.948  43.711   0.785
41444W        W 6704  29.446   5.871   1.687
41445W        W 6705   6.293  38.829   0.736
41446W        W 6706  27.261  10.927   0.682
41447W        W 6707  36.324  10.844   4.534
41448W        W 6708  42.299  35.576   1.116
41449W        W 6709   8.696   0.727  13.813
41450W        W 6710   1.826  32.799   2.151
41451W        W 6711  25.760  16.558   0.010
41452W        W 6712  30.578  43.391  12.791
41453W        W 6713  41.879   5.873  11.580
41454W        W 6714  18.316  38.784  12.031
41455W        W 6715  34.558  10.218  11.149
41456W        W 6716  25.242  12.442  14.952
41457W        W 6717  38.888  32.928  11.550
41458W        W 6718   3.797   6.861   0.252
41459W        W 6719  24.167  11.798  13.396
41460W        W 6720  18.111  35.495  12.996
41461W        W 6721  44.360  14.688   0.824
41462W        W 6722  31.547  26.746   1.374
41463W        W 6723   5.131  24.649   1.302
41464W        W 6724  41.125  36.427  14.440
41465W        W 6725  22.152  27.527  14.612
41466W        W 6726   9.711  19.221  14.282
41467W        W 6727  31.374  10.635   1.676
41468W        W 6728  40.737  30.580  14.015
41469W        W 6729  30.428  29.998   4.868
41470W        W 6730  25.080   6.436  12.017
41471W        W 6731  21.058  42.001   1.031
41472W        W 6732  27.674  12.602   1.336
41473W        W 6733  31.065  22.645  13.993
41474W        W 6734  42.257  13.346   2.353
41475W        W 6735  43.666  29.512  14.833
41476W        W 6736  10.030  20.294   3.885
41477W        W 6737  17.289  25.965   1.417
41478W        W 6738  20.236  37.046  13.663
41479W        W 6739   4.813  23.520   0.970
41480W        W 6740   5.991  21.156  12.435
41481W        W 6741  25.006  41.428  14.764
41482W        W 6742  22.614  19.765   1.861
41483W        W 6743   6.599  29.724   1.444
41484W        W 6744  35.325  15.342  13.745
41485W        W 6745  35.448  23.933   9.720
41486W        W 6746  27.979  17.554  11.627
41487W        W 6747  41.504  20.325  14.983
41488W        W 6748  23.978   9.028   2.572
41489W        W 6749   5.817  35.889  14.570
41490W        W 6750  41.721  29.832   2.808
41491W        W 6751  38.339   4.849   1.249
41492W        W 6752  10.277  24.631  12.630
41493W        W 6753  44.022  29.665   0.741
41494W        W 6754  19.101  32.911  10.777
41495W        W 6755   5.061   7.935   0.994
41496W        W 6756  25.197  35.638   2.113
41497W        W 6757  42.836  36.686   5.106
41498W        W 6758  36.725  38.392  12.032
41499W        W 6759  33.146   6.396   0.067
41500W        W 6760  44.786   8.876   4.223
41501W        W 6761  13.260  36.277   4.705
41502W        W 6762  20.209  35.773   3.095
41503W        W 6763  24.571  35.102   1.706
41504W        W 6764  26.016  40.818   0.907
41505W        W 6765  21.803  25.521   4.126
41506W        W 6766  41.514   7.395   2.832
41507W        W 6767  12.971  32.073   0.950
41508W        W 6768  17.638  14.860  11.829
41509W        W 6769  28.202   8.361  14.884
41510W        W 6770  21.652   8.866  12.823
41511W        W 6771   6.799  10.756   3.757
41512W        W 6772   8.305   9.484   1.491
41513W        W 6773   2.503  44.283   0.982
41514W        W 6774   5.088  20.365  14.333
41515W        W 6775  29.925  18.097   0.568
41516W        W 6776  41.135  33.534   2.359
41517W        W 6777  12.917  31.957   4.400
41518W        W 6778  32.879  27.139  13.437
41519W        W 6779  33.523   0.559  11.485
41520W        W 6780  35.869   4.606   3.710
41521W        W 6781  40.807  39.079  12.555
41522W        W 6782  14.632  36.083  10.642
41523W        W 6783  17.068   1.385   0.565
41524W        W 6784  18.541  10.314   4.247
41525W        W 6785  37.353  13.160  11.631
41526W        W 6786  15.045   1.053   1.222
41527W        W 6787   6.642   5.315  14.206
41528W        W 6788  22.074  38.301   1.219
41529W        W 6789  17.785  11.061  13.321
41530W        W 6790  23.737  44.515   1.772
41531W        W 6791  17.116   9.306   0.798
41532W        W 6792  27.258   4.661  14.556
41533W        W 6793  36.741  39.868  10.808
41534W        W 6794   2.581  32.597   0.172
41535W        W 6795  17.297   1.983  13.927
41536W        W 6796  26.059  34.610   0.322
41537W        W 6797   2.688  20.017  13.952
41538W        W 6798  26.890  42.199   3.771
41539W        W 6799   4.646  24.898   1.830
41540W        W 6800  18.202  35.585   2.317
41541W        W 6801  16.802   3.069  11.662
41542W        W 6802  34.407  37.048   3.218
41543W        W 6803  24.323  13.326  14.477
41544W        W 6804  19.137  30.840   0.379
41545W        W 6805  16.451  17.110  13.419
41546W        W 6806  26.747  42.884   2.373
41547W        W 6807  28.377  27.588   2.196
41548W        W 6808  25.486   9.429  14.563
41549W        W 6809   5.432   4.530   4.116
41550W        W 6810   1.406  29.463   0.007
41551W        W 6811  16.100  37.435   4.393
41552W        W 6812  21.070   7.687  13.425
41553W        W 6813   3.551   1.477   4.549
41554W        W 6814  41.428  11.339  12.151
41555W        W 6815  37.852  20.106   0.154
41556W        W 6816  39.068  38.866  14.025
41557W        W 6817   8.194  19.891   2.728
41558W        W 6818  44.950   5.912   2.697
41559W        W 6819  37.272  23.500   3.706
41560W        W 6820   2.983  22.633  10.778
41561W        W 6821  13.579  41.565  11.537
41562W        W 6822  15.350  43.306   4.483
41563W        W 6823  22.193  43.071  13.368
41564W        W 6824   0.343  16.204   3.855
41565W        W 6825  39.061  21.715  12.443
41566W        W 6826  41.261  20.888  13.558
41567W        W 6827  27.203   8.716  14.314
41568W        W 6828  20.173  16.833   0.016
41569W        W 6829  43.959  41.398  10.934
41570W        W 6830  39.303   1.280   2.671
41571W        W 6831  44.668  16.266  14.842
41572W        W 6832  26.972  39.406   4.626
41573W        W 6833  14.096   4.852  12.370
41574W        W 6834  43.241  16.595   1.401
41575W        W 6835   9.102  16.934   0.067
41576W        W 6836  32.977  16.803   2.252
41577W        W 6837  22.227  25.627  10.674
41578W        W 6838  12.729  29.698   2.254
41579W        W 6839  20.478  43.553   1.287
41580W        W 6840  30.716  38.432   4.582
41581W        W 6841  19.296  18.946   0.367
41582W        W 6842  28.491  35.863  14.788
41583W        W 6843  16.710  22.973  12.971
41584W        W 6844  18.204  34.038  14.502
41585W        W 6845  30.895  41.879   1.330
41586W        W 6846  13.876  17.801   0.128
41587W        W 6847  26.962   2.755  14.652
41588W        W 6848   9.753  15.071  13.333
41589W        W 6849  35.601  24.401  11.908
41590W        W 6850  37.619   0.569   1.156
41591W        W 6851  35.939  17.568  14.804
41592W        W 6852   4.169  42.423   4.799
41593W        W 6853  17.175  11.992  11.039
41594W        W 6854  41.204   0.712  11.777
41595W        W 6855   0.873  32.071  13.041
41596W        W 6856  22.677  40.729  12.965
41597W        W 6857  37.862  36.977  10.889
41598W        W 6858   6.619  35.858  14.947
41599W        W 6859  29.519  30.082   1.353
41600W        W 6860   5.365  29.272   3.331
41601W        W 6861   0.197  24.039  13.343
41602W        W 6862  36.410  27.139   1.290
41603W        W 6863  11.856  21.450   4.884
41604W        W 6864  25.177   9.800  12.877
41605W        W 6865  30.808  12.705  11.568
41606W        W 6866   8.741  37.686   4.997
41607W        W 6867  17.256  14.860   1.093
41608W        W 6868  41.387  14.650   1.871
41609W        W 6869  18.716  22.963   1.725
41610W        W 6870  20.243  41.404   1.799
41611W        W 6871   8.734   3.176  14.406
41612W        W 6872   6.818   8.809  14.432
41613W        W 6873  36.960   5.248  12.209
41614W        W 6874   0.025  16.714   0.954
41615W        W 6875  10.097  20.215   4.487
41616W        W 6876  16.598  42.346   2.343
41617W        W 6877  33.700   9.157   0.227
41618W        W 6878  41.324   3.746   0.272
41619W        W 6879   2.842  34.897   2.026
41620W        W 6880   7.802  44.708  12.140
41621W        W 6881  29.151  25.526   9.889
41622W        W 6882  31.164  38.572   4.893
41623W        W 6883  30.385  26.986   1.775
41624W        W 6884  39.236  36.244  11.910
41625W        W 6885  41.481  33.542   0.093
41626W        W 6886  14.008   1.328  11.562
41627W        W 6887  33.443  23.906  11.665
41628W        W 6888  25.113  32.286   4.673
41629W        W 6889  22.520   0.487   3.722
41630W        W 6890  34.569  23.677   1.357
41631W        W 6891   7.110  24.115  12.109
41632W        W 6892  24.287  43.082  13.539
41633W        W 6893  40.350  26.916  13.552
41634W        W 6894   8.521  11.025   3.298
41635W        W 6895   6.338   0.949  11.075
41636W        W 6896  31.516  37.600   2.496
41637W        W 6897  36.455   2.401  14.546
41638W        W 6898   8.898  15.294   1.424
41639W        W 6899  26.228  25.873  11.086
41640W        W 6900  11.650  40.420   2.069
41641W        W 6901  39.981  36.551  13.384
41642W        W 6902  14.133  40.575  10.751
41643W        W 6903   8.864  39.481   0.326
41644W        W 6904  29.930   5.804   0.364
41645W        W 6905   7.387  11.726   0.579
41646W        W 6906  34.848  41.717  13.477
41647W        W 6907   0.948  35.624   0.845
41648W        W 6908  17.041  14.660   2.572
41649W        W 6909  14.892  18.801  13.359
41650W        W 6910   9.142  15.205   0.984
41651W        W 6911  29.373  32.348  11.150
41652W        W 6912  44.412  23.613   1.400
41653W        W 6913  43.759  11.562   0.527
41654W        W 6914  20.495   3.291   0.355
41655W        W 6915  43.205  42.695   3.815
41656W        W 6916  41.535   6.623  12.700
41657W        W 6917  13.474   0.694  12.874
41658W        W 6918   8.852  43.100  10.784
41659W        W 6919  32.392  37.963   2.218
41660W        W 6920  40.892  16.637  13.544
41661W        W 6921  12.871  17.103  12.622
41662W        W 6922  26.093  31.984   3.368
41663W        W 6923   0.952  13.622  11.861
41664W        W 6924  42.529  39.896  13.407
41665W        W 6925  33.496  13.821  13.920
41666W        W 6926  36.794  29.614   4.068
41667W        W 6927  24.709  22.622   3.230
41668W        W 6928  41.698  23.267  11.701
41669W        W 6929  23.016  27.065   2.875
41670W        W 6930   3.504  30.460   0.028
41671W        W 6931  27.594   8.270   2.840
41672W        W 6932  35.496  31.403   3.241
41673W        W 6933  39.905   2.384  10.838
41674W        W 6934  39.397  41.260  10.694
41675W        W 6935  28.682  40.028  13.545
41676W        W 6936   8.325  33.035  14.985
41677W        W 6937  42.754  12.989  10.684
41678W        W 6938   9.439  22.914   2.319
41679W        W 6939  35.113  14.584   1.339
41680W        W 6940  35.381  35.625   2.852
41681W        W 6941  41.931   7.389  12.141
41682W        W 6942  40.476  33.009   4.614
41683W        W 6943  14.100  44.748   0.732
41684W        W 6944   1.918   4.775   2.603
41685W        W 6945  23.469  33.135  10.692
41686W        W 6946  14.170  35.695  12.716
41687W        W 6947  29.003   0.852  11.689
41688W        W 6948  13.231   2.506   1.002
41689W        W 6949   8.809  18.031  11.840
41690W        W 6950  26.664  31.708   0.287
41691W        W 6951  26.029   2.257   3.406
41692W        W 6952  14.562  31.465  14.851
41693W        W 6953  27.136  36.399   3.259
41694W        W 6954  29.617  20.698   2.701
41695W        W 6955  25.020  29.938   4.653
41696W        W 6956  43.458  31.365   1.273
41697W        W 6957  40.700  10.738  12.465
41698W        W 6958   1.479  27.162  13.592
41699W        W 6959   2.446   7.234   1.850
41700W        W 6960  13.222  43.792   3.530
41701W        W 6961   2.481  22.677  14.299
41702W        W 6962  29.356  26.121  13.409
41703W        W 6963  26.000  32.860   2.386
41704W        W 6964  40.112  23.585  13.494
41705W        W 6965  43.057  14.090   0.710
41706W        W 6966  40.535  34.021  11.126
41707W        W 6967  22.764  13.874  12.651
41708W        W 6968   0.717  44.402  10.656
41709W        W 6969  18.268  37.435   4.238
41710W        W 6970  34.566  10.372  10.269
41711W        W 6971  39.347  11.759  14.419
41712W        W 6972  41.556  43.224  11.064
41713W        W 6973  40.934   9.350  14.353
41714W        W 6974  41.351  26.170   3.420
41715W        W 6975  37.618   1.541  12.901
41716W        W 6976  16.190   8.356  12.855
41717W        W 6977  40.969  22.632  13.029
41718W        W 6978   8.148  29.343  12.019
41719W        W 6979  39.564  17.653  11.668
41720W        W 6980   4.355  19.508   3.766
41721W        W 6981  30.605  22.859  10.777
41722W        W 6982  15.554  22.639  11.214
41723W        W 6983  26.132  35.410   3.136
41724W        W 6984  27.985  11.726   1.529
41725W        W 6985   7.248  19.583   3.126
41726W        W 6986  29.918  36.446   4.654
41727W        W 6987  15.771  20.983   2.149
41728W        W 6988  12.849  15.076  12.079
41729W        W 6989  21.589  34.160   0.341
41730W        W 6990   0.047  14.995   4.475
41731W        W 6991   8.974   2.994  13.022
41732W        W 6992   2.292   6.852   2.767
41733W        W 6993   2.229  15.663   4.635
41734W        W 6994  17.066  10.937   4.559
41735W        W 6995   5.704  38.065   3.145
41736W        W 6996   9.364  29.882   2.328
41737W        W 6997  25.577  33.124   0.248
41738W        W 6998  25.691  43.354   4.346
41739W        W 6999  37.337  42.776   3.902
41740W        W 7000   7.671  27.144   1.828
41741W        W 7001  19.255  39.788  11.504
41742W        W 7002  34.299  16.195  11.975
41743W        W 7003  12.273  23.926  14.517
41744W        W 7004  16.164  33.523  11.110
41745W        W 7005   9.277   5.305   1.762
41746W        W 7006   5.030   4.645  11.778
41747W        W 7007  40.629   4.920   5.085
41748W        W 7008  22.414  35.551   1.651
41749W        W 7009  38.594   5.899   3.954
41750W        W 7010  39.165  11.258  11.450
41751W        W 7011  33.448   2.327   1.688
41752W        W 7012  44.020   2.355   1.140
41753W        W 7013   6.575  29.385  12.605
41754W        W 7014  25.676   2.226   0.770
41755W        W 7015   0.978   9.226  12.061
41756W        W 7016  23.134  10.237  13.658
41757W        W 7017  14.053  10.865  14.296
41758W        W 7018  26.181  27.047   2.123
41759W        W 7019  17.224  26.178   3.864
41760W        W 7020   6.733   0.365   0.805
41761W        W 7021  16.011  24.939   2.218
41762W        W 7022   8.941  34.468   0.025
41763W        W 7023  23.500   0.919  14.815
41764W        W 7024  15.650  23.080   1.619
41765W        W 7025  18.337   7.579   1.991
41766W        W 7026  18.704  37.289  13.885
41767W        W 7027  44.061  37.044   1.811
41768W        W 7028  23.059  22.264   4.579
41769W        W 7029  16.767  44.973  10.625
41770W        W 7030  36.604  23.935  11.080
41771W        W 7031  20.746  15.654   3.705
41772W        W 7032   3.912  17.167   2.760
41773W        W 7033   2.162  41.150  10.594
41774W        W 7034  29.453  42.990   4.239
41775W        W 7035  26.882  23.520  10.499
41776W        W 7036   5.424  28.253  13.928
41777W        W 7037  19.966   1.332   1.505
41778W        W 7038  28.393  14.242   1.554
41779W        W 7039  26.037   3.193  14.121
41780W        W 7040   6.495  41.959  13.776
41781W        W 7041  28.773  31.983   3.661
41782W        W 7042  10.074  27.544  10.540
41783W        W 7043  38.724  19.544   4.189
41784W        W 7044   8.653  33.978   4.556
41785W        W 7045   2.933   9.325   4.579
41786W        W 7046  11.346  22.805  10.729
41787W        W 7047   2.542  26.959   1.376
41788W        W 7048   4.995  25.100  13.502
41789W        W 7049  30.959  36.334  12.926
41790W        W 7050   0.227  31.211   1.498
41791W        W 7051   8.199  39.785  12.889
41792W        W 7052  32.156   5.486   1.366
41793W        W 7053  16.708   0.146   4.623
41794W        W 7054   5.797  15.666   4.337
41795W        W 7055  15.805  40.097  13.417
41796W        W 7056  27.160   8.229  11.482
41797W        W 7057  38.032  28.341  13.176
41798W        W 7058  35.854  40.856   0.462
41799W        W 7059  35.078  29.827  14.179
41800W        W 7060  13.469  16.735   3.193
41801W        W 7061  42.291  37.011   3.415
41802W        W 7062   4.738   5.893  10.686
41803W        W 7063  18.106   3.847  10.551
41804W        W 7064  41.593  42.417   0.715
41805W        W 7065  20.215  22.642  13.945
41806W        W 7066  36.074  34.245  13.876
41807W        W 7067  40.030  23.044   3.145
41808W        W 7068  26.998  27.053  11.597
41809W        W 7069  13.748  43.065  11.568
41810W        W 7070   4.264  44.216  10.886
41811W        W 7071  15.296  44.906   3.148
41812W        W 7072  44.320  42.686  10.350
41813W        W 7073  30.325  11.285   1.429
41814W        W 7074  37.021   4.403  13.892
41815W        W 7075  16.939  13.734  13.239
41816W        W 7076  27.645   6.353  11.067
41817W        W 7077  32.403  23.453   0.679
41818W        W 7078  44.968   4.370  11.075
41819W        W 7079  14.668  23.781  12.121
41820W        W 7080  11.190  29.109   1.722
41821W        W 7081   4.647  37.907   0.492
41822W        W 7082  21.553   0.511  14.850
41823W        W 7083  27.479  13.721   3.129
41824W        W 7084  18.532  41.306  11.168
41825W        W 7085  44.132  24.443   4.161
41826W        W 7086   6.260  23.492   4.580
41827W        W 7087  16.700   9.226  14.897
41828W        W 7088   7.987   3.870   3.242
41829W        W 7089  23.357  29.490  12.074
41830W        W 7090  40.415  24.522   2.840
41831W        W 7091  30.539  23.614  12.572
41832W        W 7092  29.028   2.682  10.403
41833W        W 7093  16.848  16.644   4.601
41834W        W 7094  21.162   1.243   1.691
41835W        W 7095  33.211  37.046  12.043
41836W        W 7096   9.669  40.894   0.729
41837W        W 7097  11.180  38.909   3.598
41838W        W 7098  39.455  10.944  11.132
41839W        W 7099   5.820  21.012   2.676
41840W        W 7100   0.805  33.049   1.729
41841W        W 7101   4.932  41.936  13.754
41842W        W 7102  19.787   1.764   2.859
41843W        W 7103  11.646  24.144  12.479
41844W        W 7104  17.702  37.708  14.874
41845W        W 7105   5.944  28.071  11.839
41846W        W 7106  19.806   2.926   4.188
41847W        W 7107  19.516  40.776   1.843
41848W        W 7108   7.511  44.319   2.806
41849W        W 7109   4.665  33.899  12.603
41850W        W 7110  29.376   3.230  12.814
41851W        W 7111  11.328   4.858   0.743
41852W        W 7112   4.986  29.551  12.143
41853W        W 7113  31.615  11.119  12.480
41854W        W 7114  38.370  17.101  12.356
41855W        W 7115  20.998  34.815   4.720
41856W        W 7116   3.608  28.877  13.883
41857W        W 7117   7.782  13.622   0.761
41858W        W 7118  40.445  18.584   1.847
41859W        W 7119  39.937  22.550   1.267
41860W        W 7120   2.710   2.220  12.408
41861W        W 7121  29.301  28.548  10.751
41862W        W 7122  32.398   0.754  11.952
41863W        W 7123  32.664  43.495   0.221
41864W        W 7124  23.812   6.918   3.233
41865W        W 7125  18.609  14.294   2.476
41866W        W 7126  29.631  26.818   1.250
41867W        W 7127   4.371  10.883   4.523
41868W        W 7128  35.022  28.981  12.579
41869W        W 7129  19.241  28.107   1.462
41870W        W 7130  14.711   3.373  13.034
41871W        W 7131   7.509  32.277   0.741
41872W        W 7132  35.616  12.695   2.851
41873W        W 7133  31.139  42.322   1.029
41874W        W 7134  19.111  34.842   2.369
41875W        W 7135   0.459  20.651   1.484
41876W        W 7136   0.671  38.035  13.994
41877W        W 7137  33.415   0.869   1.783
41878W        W 7138  34.897  10.207  11.551
41879W        W 7139   4.875  33.132  14.059
41880W        W 7140  25.536  25.554  14.909
41881W        W 7141  14.817   4.922  11.549
41882W        W 7142  31.048  30.377  10.787
41883W        W 7143  13.879  38.052  12.925
41884W        W 7144  37.844   4.180  12.872
41885W        W 7145   6.816  36.131   0.381
41886W        W 7146   0.165  21.208  11.483
41887W        W 7147  18.215  30.134  11.688
41888W        W 7148   8.333  28.928  12.933
41889W        W 7149  30.473   6.472   4.364
41890W        W 7150  37.964  43.540   4.122
41891W        W 7151  44.095  14.693  12.463
41892W        W 7152  22.251  23.005   2.083
41893W        W 7153   7.181  23.062  11.177
41894W        W 7154  20.690  10.682  10.606
41895W        W 7155  43.523  37.484  11.658
41896W        W 7156  23.184   4.499   2.393
41897W        W 7157  34.165  26.972  11.078
41898W        W 7158   3.275  31.822   2.806
41899W        W 7159   5.261  12.503  14.846
41900W        W 7160  35.512  28.865  13.236
41901W        W 7161  22.231  22.015  14.878
41902W        W 7162   9.407   2.837  13.320
41903W        W 7163  40.950  22.198  13.386
41904W        W 7164  42.264  14.352   3.293
41905W        W 7165  28.647  36.958  10.264
41906W        W 7166   2.383  35.159   4.233
41907W        W 7167  41.320   6.722   4.198
41908W        W 7168  14.304  41.589  14.450
41909W        W 7169  13.666   5.304   0.703
41910W        W 7170  14.248  21.630  11.652
41911W        W 7171  42.958  22.889  12.334
41912W        W 7172  31.068   3.849  14.899
41913W        W 7173  19.985  38.916   0.339
41914W        W 7174  30.188  28.581  12.996
41915W        W 7175  21.929  42.830  13.765
41916W        W 7176  42.817  12.002   2.126
41917W        W 7177   3.752   7.668  11.947
41918W        W 7178  41.796  25.013   0.037
41919W        W 7179   1.837   3.993  12.068
41920W        W 7180   6.789  29.856   2.761
41921W        W 7181  10.018  18.136   3.369
41922W        W 7182   3.290  38.272   0.914
41923W        W 7183  21.004  40.205   3.521
41924W        W 7184  21.471  14.215   2.974
41925W        W 7185  17.114  28.461   3.341
41926W        W 7186   6.266  24.134  13.943
41927W        W 7187   6.391   2.552  10.040
41928W        W 7188  27.891  38.810  10.789
41929W        W 7189  32.899  36.504   0.688
41930W        W 7190  28.693  37.472   4.776
41931W        W 7191  13.123   4.854  13.625
41932W        W 7192  28.660  22.087  12.885
41933W        W 7193  33.647  31.674   4.623
41934W        W 7194  12.546  38.517   2.855
41935W        W 7195   2.781  12.828   0.115
41936W        W 7196  33.017   3.018  14.172
41937W        W 7197   0.236  14.669  12.233
41938W        W 7198  40.328  18.821  11.173
41939W        W 7199  43.331  18.925  12.943
41940W        W 7200  29.046   1.901   2.921
41941W        W 7201  10.755  17.137  10.851
41942W        W 7202  32.629  42.371  14.438
41943W        W 7203  21.757  21.566   1.538
41944W        W 7204  14.807  42.889  14.929
41945W        W 7205   8.822  42.580  10.776
41946W        W 7206   2.528  21.440   4.597
41947W        W 7207  41.571  43.101  13.889
41948W        W 7208  15.697  37.917   2.689
41949W        W 7209  13.350  18.192  12.020
41950W        W 7210  36.967  41.627   4.506
41951W        W 7211  21.008  14.262  13.830
41952W        W 7212  29.009  26.974   5.428
41953W        W 7213  44.836   3.402   1.800
41954W        W 7214  16.016   0.495   1.269
41955W        W 7215  38.844   9.131   3.700
41956W        W 7216  43.801   6.205  10.618
41957W        W 7217   2.529  41.621   4.220
41958W        W 7218   0.389  15.772   0.708
41959W        W 7219  35.967  20.343  12.474
41960W        W 7220  27.380   3.567  13.869
41961W        W 7221  16.641  41.728  12.047
41962W        W 7222  37.279  38.552  12.861
41963W        W 7223  15.630   9.578   0.505
41964W        W 7224  28.618  23.909   2.860
41965W        W 7225  19.565  37.793   4.576
41966W        W 7226  40.335   9.358  14.830
41967W        W 7227  41.893  40.922  10.973
41968W        W 7228  43.985  33.331   0.408
41969W        W 7229  16.361  27.262   3.187
41970W        W 7230  21.181  12.416  13.977
41971W        W 7231  34.439  41.783   1.913
41972W        W 7232  20.160  26.217  11.483
41973W        W 7233  31.506  42.233   4.420
41974W        W 7234  24.521  23.838   3.719
41975W        W 7235   9.852  29.890   0.046
41976W        W 7236  17.981  31.674   0.909
41977W        W 7237   7.708  40.764   3.730
41978W        W 7238  15.245  41.023   2.126
41979W        W 7239  37.772  12.569   3.589
41980W        W 7240  11.902  19.636  12.133
41981W        W 7241  13.692  31.683   4.735
41982W        W 7242  14.062  10.086  10.923
41983W        W 7243  28.869  31.435   0.046
41984W        W 7244  33.497  19.969   4.781
41985W        W 7245   3.962  39.606  12.973
41986W        W 7246  36.006   9.264   2.610
41987W        W 7247   4.192   1.894  14.032
41988W        W 7248  25.416  16.574  10.142
41989W        W 7249  39.482  39.801   4.359
41990W        W 7250   7.340   4.014   2.271
41991W        W 7251   2.462   5.302  13.211
41992W        W 7252  18.316  15.375  13.417
41993W        W 7253  43.283   1.272   4.894
41994W        W 7254   3.936   4.885  13.120
41995W        W 7255  26.688  30.573   2.325
41996W        W 7256   0.909  18.787  12.923
41997W        W 7257  38.928  14.397  11.416
41998W        W 7258  13.872  38.028  14.257
41999W        W 7259  36.878  42.854  14.868
42000W        W 7260  43.728   3.465   4.626
42001W        W 7261  39.521  15.212   1.374
42002W        W 7262  43.328  24.178   2.522
42003W        W 7263  21.886  33.100   1.334
42004W        W 7264  29.513  26.611  13.563
42005W        W 7265  10.345  25.944  14.568
42006W        W 7266   8.180  23.075   1.917
42007W        W 7267  14.766   6.390  14.471
42008W        W 7268   1.134  19.248  13.008
42009W        W 7269  41.647  22.181   1.869
42010W        W 7270   0.868  43.965  13.546
42011W        W 7271  14.383   9.428   0.064
42012W        W 7272  38.814   3.676   2.325
42013W        W 7273  16.205   9.172  11.568
42014W        W 7274  29.385  42.256   3.640
42015W        W 7275  33.322  37.827  12.217
42016W        W 7276  20.217  30.011  13.868
42017W        W 7277  38.540  33.439   0.370
42018W        W 7278   8.518  41.881  14.286
42019W        W 7279  42.029  37.991   3.187
42020W        W 7280  22.503  19.609   0.722
42021W        W 7281  21.243  30.392  14.385
42022W        W 7282  37.577  14.289   2.142
42023W        W 7283   0.275  27.093  10.535
42024W        W 7284  23.142  44.870  13.431
42025W        W 7285  29.097  19.678   2.618
42026W        W 7286   3.990  14.405   3.927
42027W        W 7287  34.011  12.511  13.942
42028W        W 7288  33.217  18.790  14.769
42029W        W 7289  11.146  15.747  11.170
42030W        W 7290  21.499  13.693   1.764
42031W        W 7291  15.816   1.906   1.892
42032W        W 7292  11.427  23.703   1.721
42033W        W 7293  12.234   8.956   5.597
42034W        W 7294  41.865  18.640  12.941
42035W        W 7295  34.000  32.136  12.781
42036W        W 7296  30.767  35.630   1.099
42037W        W 7297  35.886  23.624  14.365
42038W        W 7298  19.269  40.528  12.051
42039W        W 7299  20.562  18.909   1.429
42040W        W 7300  18.848  18.137  13.894
42041W        W 7301  26.412  17.277   1.506
42042W        W 7302   6.986  44.631   1.387
42043W        W 7303  29.374  32.119   0.426
42044W        W 7304  35.895  11.384  13.873
42045W        W 7305  18.335  21.551   2.019
42046W        W 7306  44.357   7.739   2.627
42047W        W 7307  28.441  39.852   1.652
42048W        W 7308  23.096  30.006  12.098
42049W        W 7309  27.170  30.395  12.130
42050W        W 7310  20.806  23.134   3.209
42051W        W 7311  26.346   6.757  12.341
42052W        W 7312  25.229  33.420   1.122
42053W        W 7313  10.437  10.886   4.130
42054W        W 7314  18.796   2.815  11.557
42055W        W 7315  39.362  24.395  13.986
42056W        W 7316  18.112  25.505  13.272
42057W        W 7317   8.850  36.294  10.597
42058W        W 7318  33.045  17.497  13.071
42059W        W 7319  12.352  35.585  12.203
42060W        W 7320   9.389  33.048   2.093
42061W        W 7321  25.356  43.038   4.095
42062W        W 7322  22.008  40.774  14.452
42063W        W 7323  17.175  19.308  14.303
42064W        W 7324   3.868   6.836  11.583
42065W        W 7325  31.020  10.513  13.792
42066W        W 7326  17.575  40.284   0.842
42067W        W 7327   8.280   8.082   2.553
42068W        W 7328  17.676   0.756  11.078
42069W        W 7329  37.138  30.139   1.386
42070W        W 7330   3.355  42.570   5.059
42071W        W 7331  27.433  43.932   3.782
42072W        W 7332  12.891  20.344   0.438
42073W        W 7333  28.020  10.044   1.698
42074W        W 7334  15.065  10.887  12.406
42075W        W 7335  32.910  16.685  10.696
42076W        W 7336  23.096  22.740   3.718
42077W        W 7337  18.500  44.755   4.487
42078W        W 7338  32.627   8.999  14.434
42079W        W 7339  32.619   3.029  13.075
42080W        W 7340   0.934  44.229   4.497
42081W        W 7341  14.164  23.486  12.052
42082W        W 7342   4.078  23.779   2.324
42083W        W 7343  34.433  23.134   4.125
42084W        W 7344  16.307  19.051   1.329
42085W        W 7345  43.038  16.697  13.833
42086W        W 7346  18.266   2.362  11.977
42087W        W 7347   7.648  30.116   0.729
42088W        W 7348  14.660  41.317  12.902
42089W        W 7349   8.961  33.844   1.784
42090W        W 7350  38.971  11.654   1.405
42091W        W 7351  34.996  26.089   2.872
42092W        W 7352  14.681  31.937  13.078
42093W        W 7353  32.461  12.394  11.167
42094W        W 7354  29.007  15.274   4.392
42095W        W 7355  17.405  23.679   0.191
42096W        W 7356  14.240  12.115   1.400
42097W        W 7357  30.081   7.301   4.150
42098W        W 7358   0.248  10.882   2.731
42099W        W 7359   5.895  36.065   3.305
42100W        W 7360  11.263  16.619   3.151
42101W        W 7361  34.854  32.874  11.577
42102W        W 7362   0.487  40.744   2.766
42103W        W 7363  29.966  12.528  12.007
42104W        W 7364  10.451  31.431  14.819
42105W        W 7365  13.804   9.543   1.817
42106W        W 7366  20.059  31.978  10.609
42107W        W 7367  40.896   3.736  11.174
42108W        W 7368  35.586  25.712   5.222
42109W        W 7369  19.192  24.096  14.027
42110W        W 7370  44.288  40.500   9.971
42111W        W 7371  38.340  39.898  12.190
42112W        W 7372  31.289  43.491   1.313
42113W        W 7373  32.089   8.375  11.192
42114W        W 7374  32.031   7.937   0.996
42115W        W 7375   0.466  38.059   2.562
42116W        W 7376   6.603  29.685  14.362
42117W        W 7377  44.270  25.777   3.071
42118W        W 7378  17.093  27.022  11.081
42119W        W 7379  30.043  34.343  14.562
42120W        W 7380  25.528  13.816   2.317
42121W        W 7381  36.832  17.378   0.263
42122W        W 7382  13.483  40.057   2.284
42123W        W 7383  24.600  41.889   3.218
42124W        W 7384  12.912  34.369   3.225
42125W        W 7385  42.307  29.091   1.703
42126W        W 7386  26.986  12.431   4.891
42127W        W 7387  33.546  38.032   3.772
42128W        W 7388  32.691  26.109   3.202
42129W        W 7389   5.736  42.497   1.048
42130W        W 7390  17.781   1.380   1.423
42131W        W 7391  12.708  12.714   4.630
42132W        W 7392   6.902   3.268   4.273
42133W        W 7393  18.108   8.726   4.183
42134W        W 7394  17.651   1.597   3.811
42135W        W 7395  26.025  19.219   1.387
42136W        W 7396  18.336  43.227  12.145
42137W        W 7397  44.718  16.391   0.702
42138W        W 7398  30.536  40.565  13.153
42139W        W 7399  13.311  41.537  12.596
42140W        W 7400  19.124  44.257  12.264
42141W        W 7401   9.087   3.500  13.892
42142W        W 7402  27.972  10.504  10.736
42143W        W 7403  18.167  21.301   0.702
42144W        W 7404  32.471  31.633  14.951
42145W        W 7405  14.522  20.469  11.477
42146W        W 7406   5.247  34.862   0.975
42147W        W 7407  14.517   9.107   4.104
42148W        W 7408  18.468  34.680  10.199
42149W        W 7409  41.835   8.758  12.448
42150W        W 7410   7.897  34.151   4.149
42151W        W 7411   9.139  22.823   0.930
42152W        W 7412  17.595   3.822   0.330
42153W        W 7413   5.532  25.763  10.395
42154W        W 7414   0.334  40.720  14.582
42155W        W 7415   8.118   2.619   2.842
42156W        W 7416  16.118  37.117  12.891
42157W        W 7417  18.011  17.257   5.039
42158W        W 7418  40.037   9.872   3.199
42159W        W 7419  15.800   6.420   0.875
42160W        W 7420  36.353  39.059   3.907
42161W        W 7421  16.313  42.888  12.600
42162W        W 7422  33.376   3.457  14.907
42163W        W 7423  39.082  18.026  13.383
42164W        W 7424  25.682  37.889  13.418
42165W        W 7425  20.382  32.829   1.315
42166W        W 7426   6.189  12.760   3.830
42167W        W 7427  37.430  23.298  14.094
42168W        W 7428   4.294  12.714   1.149
42169W        W 7429   7.472   3.448   0.467
42170W        W 7430   2.744  29.863   4.914
42171W        W 7431  44.758   5.731   2.257
42172W        W 7432  44.571  30.947   3.626
42173W        W 7433  31.214  10.740   2.347
42174W        W 7434  33.512  29.143   3.361
42175W        W 7435  43.360  13.198   1.720
42176W        W 7436   1.831  42.952  11.523
42177W        W 7437  17.255  23.215  12.056
42178W        W 7438  17.283  13.526  12.009
42179W        W 7439  22.561  16.984   3.808
42180W        W 7440  35.411  31.160  14.921
42181W        W 7441   4.480  37.973   1.464
42182W        W 7442  12.307  33.478  12.819
42183W        W 7443   1.225  14.663   0.044
42184W        W 7444   4.764  36.994   3.826
42185W        W 7445  44.911  38.351   2.162
42186W        W 7446  19.153   8.849  10.664
42187W        W 7447  24.670  11.823  13.543
42188W        W 7448  39.023   5.399  14.959
42189W        W 7449  13.147  20.148   2.278
42190W        W 7450  38.354  42.336   3.158
42191W        W 7451  44.040   7.941  12.379
42192W        W 7452  15.148   7.719  14.442
42193W        W 7453  42.201  29.407   0.318
42194W        W 7454   7.761  25.544   4.972
42195W        W 7455  31.960  13.855  14.450
42196W        W 7456  31.101  40.799   3.725
42197W        W 7457  27.444  39.453   2.323
42198W        W 7458   7.881  29.058   4.350
42199W        W 7459   7.449  41.875   3.501
42200W        W 7460   5.000  17.299   0.402
42201W        W 7461  30.923   2.532  12.865
42202W        W 7462   3.643  36.429   5.314
42203W        W 7463  44.850  38.552  11.524
42204W        W 7464  34.090  26.518  12.115
42205W        W 7465  38.349  18.648  11.168
42206W        W 7466  25.625  44.372  12.954
42207W        W 7467  30.625  34.319   4.159
42208W        W 7468  14.823  41.609   3.204
42209W        W 7469  17.570   1.862   1.366
42210W        W 7470   7.587   9.725  11.970
42211W        W 7471  29.870  18.051  12.875
42212W        W 7472   5.306  17.311  12.111
42213W        W 7473  23.736  36.236  12.973
42214W        W 7474  10.099  24.180   0.824
42215W        W 7475   3.015   5.868  13.468
42216W        W 7476  27.700   0.130   4.131
42217W        W 7477   6.579  16.396   2.925
42218W        W 7478  34.056   2.514   0.753
42219W        W 7479  23.044  29.955   1.942
42220W        W 7480  13.882   3.376   0.501
42221W        W 7481  31.621  31.225   0.861
42222W        W 7482  29.396  28.619  14.799
42223W        W 7483  13.589  10.937   4.586
42224W        W 7484  30.232  26.634  14.577
42225W        W 7485  10.379  27.151   0.326
42226W        W 7486  33.658  36.577   3.971
42227W        W 7487  27.899   8.946   2.383
42228W        W 7488  42.762  11.071   4.883
42229W        W 7489   9.721  39.494  14.531
42230W        W 7490  12.561  30.580   0.764
42231W        W 7491   7.774  22.139   3.757
42232W        W 7492   7.877  34.714   1.097
42233W        W 7493   5.355   7.414  13.342
42234W        W 7494  34.956  14.634   1.865
42235W        W 7495  38.826  24.067   4.715
42236W        W 7496  37.150  20.865  13.713
42237W        W 7497  15.758   1.668  11.132
42238W        W 7498  22.195   3.209  13.054
42239W        W 7499  34.563  28.483   2.637
42240W        W 7500  39.359  28.488   3.410
42241W        W 7501  19.300  19.971   0.494
42242W        W 7502  41.487   5.592  14.294
42243W        W 7503  34.276  26.587   4.977
42244W        W 7504  21.079  33.663  10.636
42245W        W 7505   6.497  18.679  14.940
42246W        W 7506  16.499  21.111  12.137
42247W        W 7507   8.150  15.919   4.117
42248W        W 7508  12.518  43.891   3.895
42249W        W 7509  43.239  11.224   1.470
42250W        W 7510  39.821  40.447   2.123
42251W        W 7511  36.347  32.716   1.789
42252W        W 7512  16.252  20.877  10.938
42253W        W 7513  15.830  44.353   5.010
42254W        W 7514  15.768  33.462   4.593
42255W        W 7515  37.739  15.604   1.225
42256W        W 7516  31.053   2.986   1.305
42257W        W 7517  36.040  24.481   3.325
42258W        W 7518  31.598  27.932   3.672
42259W        W 7519  23.780  29.892   4.473
42260W        W 7520   2.796  14.301  12.679
42261W        W 7521  15.119  17.486   1.911
42262W        W 7522   1.478  44.516  11.109
42263W        W 7523   8.802  14.621  14.255
42264W        W 7524   5.933  36.202   0.567
42265W        W 7525  41.941  30.064   3.197
42266W        W 7526  32.321  28.632  12.582
42267W        W 7527  17.292   4.759   3.565
42268W        W 7528  19.606  43.810   4.566
42269W        W 7529  16.144  25.075  12.058
42270W        W 7530  22.665  41.864   4.527
42271W        W 7531  34.304  21.690  13.201
42272W        W 7532  37.256  21.082   2.347
42273W        W 7533  38.236  15.507  10.096
42274W        W 7534  17.151  37.858  11.072
42275W        W 7535  32.590  40.570   1.841
42276W        W 7536  32.099   0.730  11.526
42277W        W 7537  36.703  30.568   5.060
42278W        W 7538  31.566  15.401   2.240
42279W        W 7539  12.981  36.996   2.009
42280W        W 7540  18.929  42.727   4.279
42281W        W 7541  24.261  44.377   0.862
42282W        W 7542  12.718   6.716  12.063
42283W        W 7543  31.142  34.426   0.367
42284W        W 7544  14.105  43.995   4.588
42285W        W 7545  32.850  31.159  13.682
42286W        W 7546  44.347  13.257   2.560
42287W        W 7547  27.567  34.531  11.373
42288W        W 7548   4.461  39.878   2.763
42289W        W 7549  24.154  13.953   2.261
42290W        W 7550  35.386  26.148   1.634
42291W        W 7551  13.679  26.160  12.161
42292W        W 7552  32.586  14.224  13.919
42293W        W 7553   5.106  37.603  13.389
42294W        W 7554  14.692   7.481  11.122
42295W        W 7555   8.185  18.185  11.565
42296W        W 7556  20.738  43.088   4.095
42297W        W 7557   0.999  14.854   1.288
42298W        W 7558  26.507  23.292  12.064
42299W        W 7559  31.662   8.637  12.875
42300W        W 7560  43.467  18.618  13.351
42301W        W 7561  44.206  20.306  12.512
42302W        W 7562   2.496  36.030   2.091
42303W        W 7563  27.778   5.866  11.803
42304W        W 7564   9.328  40.719  12.570
42305W        W 7565  20.282  44.904  11.132
42306W        W 7566  23.089  20.012  11.923
42307W        W 7567  31.501  26.651   3.134
42308W        W 7568  23.303  21.569  12.942
42309W        W 7569  18.703  24.600  14.569
42310W        W 7570  16.174  35.859   1.525
42311W        W 7571  43.413   3.477  11.087
42312W        W 7572  20.996  23.411   2.012
42313W        W 7573   2.608  40.311   4.104
42314W        W 7574  16.162  10.662  12.474
42315W        W 7575  34.466   4.922  10.085
42316W        W 7576  24.942   1.837   4.128
42317W        W 7577  41.497   1.268  12.920
42318W        W 7578  43.123  12.809  12.603
42319W        W 7579  35.083  39.777   3.217
42320W        W 7580  35.384  12.582  12.037
42321W        W 7581  38.084  21.624  12.539
42322W        W 7582  33.459  21.611   0.467
42323W        W 7583   7.599  12.616   0.858
42324W        W 7584  30.720  13.624   0.280
42325W        W 7585   5.111  31.077  10.294
42326W        W 7586   9.571  41.480  12.301
42327W        W 7587  23.237  43.288  10.722
42328W        W 7588   6.843  40.108   3.078
42329W        W 7589  34.628  30.753  10.809
42330W        W 7590  38.080   2.880   1.609
42331W        W 7591   5.658  42.779  13.569
42332W        W 7592  27.434  31.082   4.477
42333W        W 7593  39.456  27.237  12.972
42334W        W 7594   6.581   3.269  11.086
42335W        W 7595   8.559  35.641   2.848
42336W        W 7596  22.605  19.468  13.050
42337W        W 7597  40.272  17.807   2.378
42338W        W 7598  38.503  26.562   4.405
42339W        W 7599   4.603  31.028   3.123
42340W        W 7600  40.885  29.092   0.939
42341W        W 7601  16.123  36.672  11.050
42342W        W 7602   9.289  26.172   0.557
42343W        W 7603  25.055  22.967  11.450
42344W        W 7604  38.372   5.250   1.617
42345W        W 7605  34.918  37.037   1.320
42346W        W 7606  22.072  42.904   0.726
42347W        W 7607  34.074  42.800  10.816
42348W        W 7608   7.192  29.220  13.422
42349W        W 7609  24.133  11.169   4.197
42350W        W 7610  14.724  44.998   0.931
42351W        W 7611  27.805   4.759  13.033
42352W        W 7612  10.103  43.824   1.541
42353W        W 7613  17.787   1.012  10.642
42354W        W 7614  19.502  19.767   1.773
42355W        W 7615   5.177  41.485   3.284
42356W        W 7616  30.453  34.444   0.988
42357W        W 7617  39.075  38.589  12.501
42358W        W 7618   5.700  19.124   2.299
42359W        W 7619  12.183  10.858   2.415
42360W        W 7620  26.298  16.502  12.911
42361W        W 7621  34.060  32.012  10.042
42362W        W 7622   2.214  18.595  11.634
42363W        W 7623  12.267   7.604  13.510
42364W        W 7624  21.981  14.149   2.861
42365W        W 7625   9.238  42.949   4.655
42366W        W 7626  18.030  16.776   1.035
42367W        W 7627  12.344  12.571   1.819
42368W        W 7628  17.545  32.053   1.881
42369W        W 7629   5.662   1.740   5.127
42370W        W 7630  12.148  17.041  14.923
42371W        W 7631   1.485  37.524  13.528
42372W        W 7632  31.972  26.166  13.384
42373W        W 7633  14.854   6.019  13.789
42374W        W 7634   3.427   9.790  13.507
42375W        W 7635  13.681   2.563  11.205
42376W        W 7636  17.466  37.358   3.414
42377W        W 7637  38.875  10.922   4.499
42378W        W 7638  33.528   8.440  14.222
42379W        W 7639  14.251  10.818  10.714
42380W        W 7640  18.528  43.080  11.684
42381W        W 7641  14.641  41.435   4.768
42382W        W 7642  25.089   3.810  10.803
42383W        W 7643  27.505  11.868   0.724
42384W        W 7644  38.038  42.731   4.733
42385W        W 7645  19.702  16.403   2.785
42386W        W 7646  40.136  43.815   4.913
42387W        W 7647  36.387  31.623  14.464
42388W        W 7648   6.232  44.425   0.685
42389W        W 7649  36.850  37.122   3.197
42390W        W 7650  41.613  25.161   0.904
42391W        W 7651  23.110  44.628  11.658
42392W        W 7652   1.038  21.580  12.537
42393W        W 7653   4.215  10.864   4.033
42394W        W 7654   5.308   0.810  12.378
42395W        W 7655  37.116  21.957  11.588
42396W        W 7656  14.070  21.107  10.812
42397W        W 7657  12.134  21.481  13.305
42398W        W 7658  12.307  13.754   2.870
42399W        W 7659  11.139  22.464   4.272
42400W        W 7660   0.231  42.899  14.617
42401W        W 7661  10.455  24.101  14.362
42402W        W 7662  42.966   5.046  10.106
42403W        W 7663   3.096  30.966  11.027
42404W        W 7664   2.804  42.418   1.587
42405W        W 7665  22.631  12.627  13.922
42406W        W 7666   4.169  26.212   1.261
42407W        W 7667  32.095  15.583  13.989
42408W        W 7668  20.244  33.925   2.225
42409W        W 7669   7.354  25.222  11.240
42410W        W 7670  27.168   5.397   2.016
42411W        W 7671   0.165  17.506   2.663
42412W        W 7672  26.220  40.377   0.316
42413W        W 7673   1.828  21.765  12.979
42414W        W 7674  23.567  44.865  10.363
42415W        W 7675  28.868  17.607   3.262
42416W        W 7676  36.356  24.568   2.850
42417W        W 7677  14.599  30.910  12.498
42418W        W 7678  16.209  11.325   2.945
42419W        W 7679  20.033   6.287  10.819
42420W        W 7680  10.538  29.087  13.940
42421W        W 7681  10.364   1.012  14.450
42422W        W 7682  15.969  43.237  13.502
42423W        W 7683  18.571  43.994   4.038
42424W        W 7684   8.747   7.885   4.218
42425W        W 7685  19.707   8.870   2.923
42426W        W 7686  21.150  44.733  12.262
42427W        W 7687  26.220  28.388   2.656
42428W        W 7688  22.591  12.603  11.975
42429W        W 7689  32.684   5.972   2.204
42430W        W 7690  13.175  40.036   1.069
42431W        W 7691  39.625  36.537  14.540
42432W        W 7692   4.812  22.212  12.859
42433W        W 7693  10.686  27.953  13.884
42434W        W 7694   8.887  20.131  11.554
42435W        W 7695  36.399   9.532   1.819
42436W        W 7696  39.999  11.052   0.932
42437W        W 7697  29.958  37.842  13.480
42438W        W 7698   0.257   3.990  11.908
42439W        W 7699   0.722   6.587   1.846
42440W        W 7700  36.965   3.232   2.222
42441W        W 7701  28.045  11.131   0.330
42442W        W 7702  21.647   9.690   4.136
42443W        W 7703   5.187  14.139   5.037
42444W        W 7704  11.312  44.449   4.617
42445W        W 7705  44.601  34.996  13.514
42446W        W 7706  27.076  32.351  13.991
42447W        W 7707  28.518  25.992   4.528
42448W        W 7708  43.015   5.320  11.878
42449W        W 7709  15.615  15.643   4.018
42450W        W 7710  15.779  31.328   1.200
42451W        W 7711  33.553  20.685   2.181
42452W        W 7712  35.102  36.880  11.187
42453W        W 7713  10.220  41.013  11.124
42454W        W 7714  30.232  18.506   3.867
42455W        W 7715  12.785  34.882   3.315
42456W        W 7716  13.684  30.991   3.182
42457W        W 7717  37.122  30.488   2.109
42458W        W 7718   2.359  30.910  13.992
42459W        W 7719  37.562  21.036   1.921
42460W        W 7720  42.439  25.239   1.875
42461W        W 7721  38.960  41.605   1.916
42462W        W 7722  12.783  34.588   4.394
42463W        W 7723  38.841  15.043   3.586
42464W        W 7724   7.181  35.526   4.091
42465W        W 7725  41.040  30.194   0.318
42466W        W 7726  32.779  30.074   3.119
42467W        W 7727  25.658  17.586   0.256
42468W        W 7728  21.530  26.447   3.257
42469W        W 7729  12.412   6.197   0.893
42470W        W 7730  39.994  34.417  14.966
42471W        W 7731  20.786  33.800   0.812
42472W        W 7732  29.080  29.101  10.679
42473W        W 7733   6.218  44.553   4.232
42474W        W 7734   2.912  13.385   1.300
42475W        W 7735  24.792  15.350   2.787
42476W        W 7736   7.026   8.372  10.780
42477W        W 7737  12.242   6.721   3.405
42478W        W 7738   5.221  17.843   4.548
42479W        W 7739  25.764  28.606  13.506
42480W        W 7740  19.687  39.616  10.730
42481W        W 7741  35.777  27.147  13.002
42482W        W 7742  10.186   7.170   3.082
42483W        W 7743  13.801   0.947  14.908
42484W        W 7744  44.446  20.678   1.184
42485W        W 7745  34.764  26.677  14.772
42486W        W 7746  31.216  41.150   4.094
42487W        W 7747  10.289  34.844  12.547
42488W        W 7748  24.673   1.686   3.719
42489W        W 7749  44.797  30.193  13.010
42490W        W 7750  43.806  24.498  13.918
42491W        W 7751  27.974  14.268  10.661
42492W        W 7752  26.939  22.915  14.817
42493W        W 7753  36.476  31.973  11.533
42494W        W 7754  16.227  35.342   1.474
42495W        W 7755  37.403  41.976   4.547
42496W        W 7756   3.034   2.140  14.064
42497W        W 7757  31.862  38.360   1.744
42498W        W 7758  34.425   7.267  11.570
42499W        W 7759  13.934   4.038  12.579
42500W        W 7760   0.192  33.251  14.770
42501W        W 7761   5.156  23.595  14.005
42502W        W 7762  40.121  20.567   0.053
42503W        W 7763   3.475  13.113  14.934
42504W        W 7764  30.571  40.989  12.398
42505W        W 7765  20.976  25.470  11.164
42506W        W 7766   4.819   1.996   2.296
42507W        W 7767   4.866  11.129  13.485
42508W        W 7768  43.344  13.670   1.357
42509W        W 7769  27.067   3.277   4.259
42510W        W 7770  43.538   8.303   3.290
42511W        W 7771   3.819  19.974   2.805
42512W        W 7772  37.478  16.291   3.696
42513W        W 7773   6.097   8.335  14.763
42514W        W 7774  31.793  39.412   4.178
42515W        W 7775  42.263  26.343  14.511
42516W        W 7776   5.114   2.647  11.052
42517W        W 7777  38.383  10.843  14.166
42518W        W 7778  34.403  30.119   2.287
42519W        W 7779  34.655  28.246  12.338
42520W        W 7780  23.913  17.096   0.728
42521W        W 7781   6.369   5.776  12.060
42522W        W 7782  38.133  30.979   0.859
42523W        W 7783   5.644  16.989   1.809
42524W        W 7784  12.902  27.742  14.929
42525W        W 7785  32.572  38.962  10.552
42526W        W 7786   7.576   4.480   2.661
42527W        W 7787   3.027  38.568   3.804
42528W        W 7788  27.283   1.345   4.239
42529W        W 7789  16.830   4.646   3.325
42530W        W 7790   3.715  25.828   5.246
42531W        W 7791  14.582  21.249  11.917
42532W        W 7792  42.271  21.221   0.756
42533W        W 7793  37.342  29.206   2.087
42534W        W 7794  19.946  19.221  14.415
42535W        W 7795  40.795  41.432  13.541
42536W        W 7796  32.542  35.373  14.525
42537W        W 7797  11.267  38.062  14.055
42538W        W 7798  38.589  33.011  11.966
42539W        W 7799  25.901  22.776   5.004
42540W        W 7800  14.862   2.843  14.283
42541W        W 7801   2.381  42.192  14.033
42542W        W 7802  40.826  37.374  10.994
42543W        W 7803  20.216  26.777   0.990
42544W        W 7804   1.827   3.319  13.973
42545W        W 7805  35.606  30.016  14.007
42546W        W 7806  28.720  18.745  10.614
42547W        W 7807  29.816   2.373  12.036
42548W        W 7808   4.172  19.054  13.915
42549W        W 7809  39.380  28.413   2.357
42550W        W 7810  43.892  43.717  13.800
42551W        W 7811  44.269  34.118   3.680
42552W        W 7812   5.772   0.572   1.254
42553W        W 7813   3.202   2.383  11.943
42554W        W 7814  15.858  13.737   2.320
42555W        W 7815  39.444   5.782   3.361
42556W        W 7816   5.700  37.901   0.364
42557W        W 7817  41.484  41.502   4.345
42558W        W 7818  34.611   5.504  11.009
42559W        W 7819  23.113  28.151  11.158
42560W        W 7820  37.996  38.091   0.200
42561W        W 7821  41.859  27.618   1.256
42562W        W 7822  43.051  43.993   3.646
42563W        W 7823  40.875  28.032   0.972
42564W        W 7824  17.115   7.260   4.235
42565W        W 7825  24.237  33.898   1.725
42566W        W 7826  31.792   5.815   4.751
42567W        W 7827  31.074  35.167   3.058
42568W        W 7828  28.355  22.258  11.601
42569W        W 7829  20.680  10.719  11.576
42570W        W 7830  27.482   3.710  10.869
42571W        W 7831  39.974   1.747   4.656
42572W        W 7832  12.269  15.732   3.785
42573W        W 7833  27.333  14.781   1.477
42574W        W 7834  20.242  21.530  10.575
42575W        W 7835  33.783  30.626  11.134
42576W        W 7836  31.698  10.779   3.117
42577W        W 7837   9.599   6.110   1.349
42578W        W 7838  39.862  44.950  12.016
42579W        W 7839  16.132  42.628   2.349
42580W        W 7840  37.820  27.789  13.272
42581W        W 7841   4.314   2.463   4.873
42582W        W 7842   9.169   3.293  12.625
42583W        W 7843  21.551  44.392  14.517
42584W        W 7844  23.074   9.424  12.112
42585W        W 7845   7.417  38.831   3.671
42586W        W 7846  26.749  30.818   0.241
42587W        W 7847   6.192  14.852   3.291
42588W        W 7848  15.450  34.011  12.130
42589W        W 7849  31.476  25.915   1.774
42590W        W 7850   6.175  23.846   3.224
42591W        W 7851  44.968  12.233  13.553
42592W        W 7852  31.518   3.847  12.840
42593W        W 7853  34.750   5.067   0.960
42594W        W 7854  19.955  28.668  11.114
42595W        W 7855  21.745  22.579  10.503
42596W        W 7856   5.625   0.450   2.216
42597W        W 7857  22.414  38.540   2.380
42598W        W 7858  13.259  43.151   2.053
42599W        W 7859  43.090   5.221   1.805
42600W        W 7860  18.186  22.988   2.406
42601W        W 7861   3.509  18.763  12.114
42602W        W 7862  30.779  10.648  12.988
42603W        W 7863  14.176  29.615  11.961
42604W        W 7864   8.850  40.776  12.376
42605W        W 7865   4.682  41.787   2.789
42606W        W 7866  24.653  16.638  13.370
42607W        W 7867  38.367  11.599  11.692
42608W        W 7868  17.663  34.020  11.540
42609W        W 7869  44.402   9.827   2.767
42610W        W 7870  25.035  10.594  10.595
42611W        W 7871   2.808   6.935  14.834
42612W        W 7872  13.217  34.573  11.098
42613W        W 7873  27.021   0.826  11.975
42614W        W 7874  25.920   5.751   1.737
42615W        W 7875  21.466  21.053  14.614
42616W        W 7876   5.473  18.261   4.748
42617W        W 7877  20.134  11.890  13.583
42618W        W 7878  37.921  17.263  10.679
42619W        W 7879  27.545  36.355   0.677
42620W        W 7880  32.989   4.195   1.406
42621W        W 7881  41.777  19.568   3.532
42622W        W 7882   4.716   2.003   0.795
42623W        W 7883   8.135   2.257   0.174
42624W        W 7884  31.936   4.398   3.615
42625W        W 7885  16.842   7.571  11.085
42626W        W 7886  22.212  41.842   3.310
42627W        W 7887  44.002  40.281  11.236
42628W        W 7888  42.219   8.308  14.872
42629W        W 7889  31.835   0.198  14.556
42630W        W 7890  10.942  26.003  12.120
42631W        W 7891  30.900   7.369   1.437
42632W        W 7892  35.954   5.661  10.510
42633W        W 7893  28.916  20.139   2.733
42634W        W 7894   5.701  21.138   2.175
42635W        W 7895  40.414   1.858   0.852
42636W        W 7896  42.839  29.420   4.136
42637W        W 7897  23.660   9.183   0.858
42638W        W 7898  34.882  36.885  14.322
42639W        W 7899  42.302  38.083   2.718
42640W        W 7900   7.251  14.042  13.844
42641W        W 7901  36.252  12.055  11.065
42642W        W 7902   7.253  43.141  14.455
42643W        W 7903  24.670  15.043   4.231
42644W        W 7904   6.365  10.087  13.311
42645W        W 7905  28.008  36.922   4.595
42646W        W 7906  11.842   8.473   5.092
42647W        W 7907   4.846   0.573  12.440
42648W        W 7908  41.708  27.167   1.473
42649W        W 7909  33.089  35.461   0.330
42650W        W 7910  34.109  30.893   2.823
42651W        W 7911  10.261   3.214   4.579
42652W        W 7912  31.712  40.785  13.277
42653W        W 7913   8.222   5.269   2.871
42654W        W 7914  34.579  10.668  11.399
42655W        W 7915  12.254   5.648   4.499
42656W        W 7916  42.552   5.571  10.650
42657W        W 7917   3.214  22.080  12.992
42658W        W 7918  21.914  25.617  14.918
42659W        W 7919  10.700  32.554  14.293
42660W        W 7920  28.919  22.194  11.639
42661W        W 7921  43.768  36.672  14.448
42662W        W 7922  34.018   6.171   3.874
42663W        W 7923  38.945  15.467   0.175
42664W        W 7924  26.290  31.410   4.014
42665W        W 7925  28.038   6.683  10.980
42666W        W 7926  20.120  15.816  14.978
42667W        W 7927  28.328  34.504  14.334
42668W        W 7928  38.393   2.322   4.895
42669W        W 7929  18.455  34.856   4.501
42670W        W 7930  32.353   9.312   2.357
42671W        W 7931  35.825  13.820  12.081
42672W        W 7932  22.194   6.691   1.472
42673W        W 7933  22.240  14.552  10.877
42674W        W 7934  31.396  25.654   2.219
42675W        W 7935  35.533  13.774   4.038
42676W        W 7936  26.021  24.024   4.163
42677W        W 7937  44.194   7.234  13.581
42678W        W 7938   0.019   5.406   4.734
42679W        W 7939  20.210  43.692  12.471
42680W        W 7940  38.562  19.030  14.053
42681W        W 7941  20.807  36.420   9.771
42682W        W 7942   0.280  19.219  11.161
42683W        W 7943   3.175  32.338   2.779
42684W        W 7944  34.646   1.093  13.974
42685W        W 7945  34.080   4.741   4.237
42686W        W 7946  17.225  16.132   4.506
42687W        W 7947  34.446  44.648   3.708
42688W        W 7948   5.604  28.112   2.710
42689W        W 7949  22.485  36.572  13.432
42690W        W 7950  34.307   7.977   1.835
42691W        W 7951   2.731  11.845   3.928
42692W        W 7952  38.016  14.712   3.838
42693W        W 7953  14.383   8.243  14.001
42694W        W 7954  27.233  21.238  12.589
42695W        W 7955  32.613  38.321  11.666
42696W        W 7956  31.522  42.595   2.813
42697W        W 7957  22.119  14.272  12.416
42698W        W 7958  14.828   5.461   4.600
42699W        W 7959  43.456   4.082   4.044
42700W        W 7960  40.590  29.631   3.658
42701W        W 7961  32.481   6.009   2.774
42702W        W 7962   0.904   6.292  10.634
42703W        W 7963  17.183  16.339   1.419
42704W        W 7964  20.788   7.222  11.863
42705W        W 7965  39.983  36.601   1.281
42706W        W 7966  41.029   4.284  12.549
42707W        W 7967  39.282  10.320   4.214
42708W        W 7968  36.989  36.251   3.803
42709W        W 7969  31.083  41.825  13.889
42710W        W 7970  21.492  32.463   0.809
42711W        W 7971  26.261   2.378   0.792
42712W        W 7972  43.022   5.161  14.357
42713W        W 7973  41.062  16.053  11.962
42714W        W 7974  35.443  33.507   1.008
42715W        W 7975  25.540  44.386   2.119
42716W        W 7976  38.460  20.112  11.678
42717W        W 7977  14.222  29.171   2.887
42718W        W 7978  26.519  33.228   2.298
42719W        W 7979  13.600  20.305  14.632
42720W        W 7980  26.617   8.314   4.291
42721W        W 7981  12.854   6.592  13.462
42722W        W 7982  19.594   0.317   4.687
42723W        W 7983  16.103  15.528   0.911
42724W        W 7984  38.405  32.653   0.937
42725W        W 7985   4.856   7.844  10.622
42726W        W 7986   0.163  11.710  12.571
42727W        W 7987  35.417  35.562  11.913
42728W        W 7988  40.527   4.871  12.093
42729W        W 7989  11.618  20.339   3.815
42730W        W 7990  41.480  26.899   2.215
42731W        W 7991   9.334   5.706   2.769
42732W        W 7992  17.401  22.512   5.095
42733W        W 7993  13.807  13.595  10.696
42734W        W 7994  42.349  15.110   2.212
42735W        W 7995  13.642  18.128   0.447
42736W        W 7996   9.214  20.909  11.221
42737W        W 7997  16.298  44.526  10.704
42738W        W 7998  31.366   2.730   2.190
42739W        W 7999  18.294   0.256   0.298
42740W        W 8000  15.528  26.466   2.997
42741W        W 8001   4.289  14.294  13.315
42742W        W 8002  40.953  18.665   3.123
42743W        W 8003   0.274  38.919  13.729
42744W        W 8004  19.117  14.595   1.951
42745W        W 8005   7.183  20.112   0.373
42746W        W 8006   5.987  13.220   1.613
42747W        W 8007   7.682  24.217   4.529
42748W        W 8008  15.766   8.795   2.742
42749W        W 8009  13.694  25.269  14.471
42750W        W 8010  24.279  12.760  12.810
42751W        W 8011  43.201  25.552   2.299
42752W        W 8012  31.656  42.562  14.428
42753W        W 8013  24.199  44.206  10.100
42754W        W 8014   3.374  13.590   1.161
42755W        W 8015  11.184   7.821   1.907
42756W        W 8016  33.438  25.983   0.912
42757W        W 8017  11.365   9.848  13.884
42758W        W 8018  39.236  43.698   1.340
42759W        W 8019  10.199  40.191  12.704
42760W        W 8020   1.325  33.380   0.452
42761W        W 8021   8.480  16.455  14.286
42762W        W 8022  15.078  29.146   1.359
42763W        W 8023  44.306  27.646  14.271
42764W        W 8024   6.435  14.774  11.416
42765W        W 8025   8.691  39.454  14.816
42766W        W 8026  30.963  37.560  12.528
42767W        W 8027   9.420  19.321   2.762
42768W        W 8028  15.058  30.492   4.832
42769W        W 8029   1.222   0.964  11.921
42770W        W 8030  38.233   8.872  12.730
42771W        W 8031  39.661  36.395   0.929
42772W        W 8032  24.161  21.537   2.832
42773W        W 8033  21.492  21.533  11.641
42774W        W 8034  24.489  22.846  10.214
42775W        W 8035  37.562  28.661  11.752
42776W        W 8036  39.830  34.070  14.625
42777W        W 8037  26.071  32.127   4.272
42778W        W 8038  37.146  33.001  13.323
42779W        W 8039  27.879   4.696  10.035
42780W        W 8040   4.945   0.705   2.756
42781W        W 8041  11.328  44.692  11.564
42782W        W 8042  26.651  26.075   4.894
42783W        W 8043  10.137  38.458   2.821
42784W        W 8044  34.556   3.885  12.526
42785W        W 8045   3.101   7.768  12.375
42786W        W 8046   8.366  10.710  13.531
42787W        W 8047  40.811  11.075   4.097
42788W        W 8048  30.591  44.026   1.238
42789W        W 8049  38.864   7.368   2.103
42790W        W 8050   9.305  11.609  11.156
42791W        W 8051   2.127  11.338   5.090
42792W        W 8052  39.334   4.886  12.863
42793W        W 8053  19.525  24.083  10.657
42794W        W 8054   0.378  16.151   0.345
42795W        W 8055  20.841  16.600  12.037
42796W        W 8056  27.109  28.163   2.846
42797W        W 8057  12.220  19.506   4.710
42798W        W 8058  35.104  16.566   3.504
42799W        W 8059  35.854   4.653  11.962
42800W        W 8060  33.115  18.691   4.683
42801W        W 8061  41.604  20.165   3.285
42802W        W 8062  32.565  20.719  14.439
42803W        W 8063  13.138   9.457   0.389
42804W        W 8064   5.225  39.832  11.619
42805W        W 8065  38.416   7.857  13.885
42806W        W 8066  44.803  27.426  11.158
42807W        W 8067   1.922  40.990  14.114
42808W        W 8068   8.769  25.552  13.996
42809W        W 8069  28.935  10.426  11.757
42810W        W 8070  33.612  41.217  13.500
42811W        W 8071  13.548   4.955   3.092
42812W        W 8072  13.076  14.194   1.737
42813W        W 8073  16.539   2.367  14.939
42814W        W 8074  43.004  22.981   4.162
42815W        W 8075  23.113   4.286   1.891
42816W        W 8076  42.038  43.026  10.735
42817W        W 8077  36.462  31.927   1.421
42818W        W 8078  13.353  26.572  11.063
42819W        W 8079   6.142  18.616  12.144
42820W        W 8080   8.838  10.411  11.114
42821W        W 8081  24.791  21.619  13.908
42822W        W 8082   3.007  42.656  10.860
42823W        W 8083  27.572   0.974   4.066
42824W        W 8084  27.926  33.121  11.063
42825W        W 8085  18.694  33.474   1.431
42826W        W 8086  38.500   3.327  11.793
42827W        W 8087   0.370   5.827  11.714
42828W        W 8088  41.786  22.401   1.413
42829W        W 8089  22.674   8.400  11.584
42830W        W 8090  14.352  19.758  12.409
42831W        W 8091  31.272  29.104  13.543
42832W        W 8092  37.591  38.110   1.143
42833W        W 8093   1.170   1.991  14.050
42834W        W 8094  22.755  33.875  10.673
42835W        W 8095  23.138  31.904  10.149
42836W        W 8096  20.416  42.277   3.657
42837W        W 8097  26.946  15.693   1.520
42838W        W 8098  24.545  15.384   1.315
42839W        W 8099  15.123  19.199  12.818
42840W        W 8100  43.728  12.637  13.947
42841W        W 8101  26.064  38.919   2.393
42842W        W 8102  39.032  24.987   4.198
42843W        W 8103   0.210  34.478   0.122
42844W        W 8104  42.371  42.843   3.169
42845W        W 8105  34.100  11.798   1.083
42846W        W 8106  31.466  36.906  11.582
42847W        W 8107   4.191  27.636   1.790
42848W        W 8108  42.461  22.815   2.676
42849W        W 8109  43.972  40.160  14.270
42850W        W 8110  44.801   4.065  14.865
42851W        W 8111   2.571  29.980  14.115
42852W        W 8112  29.911  30.026  14.381
42853W        W 8113  42.064   0.848  11.187
42854W        W 8114  11.649  16.172  11.467
42855W        W 8115  41.853  10.399  14.370
42856W        W 8116  35.661   7.204  14.074
42857W        W 8117  30.530  19.013  14.906
42858W        W 8118  35.444  30.558   5.033
42859W        W 8119  39.801  12.271   2.366
42860W        W 8120  11.251  32.066  12.908
42861W        W 8121  20.707  33.108  11.644
42862W        W 8122  17.752  14.616   3.288
42863W        W 8123  42.358   2.288   0.280
42864W        W 8124  40.408  20.665   4.205
42865W        W 8125   0.584  36.323   1.225
42866W        W 8126   7.947  38.930  14.874
42867W        W 8127  44.958  42.123   1.236
42868W        W 8128  10.937  38.519  13.771
42869W        W 8129  35.855  15.145  11.579
42870W        W 8130  10.840  26.624  12.936
42871W        W 8131  33.275  19.330   3.694
42872W        W 8132  32.531  26.973  11.719
42873W        W 8133   4.550  12.408  11.095
42874W        W 8134  23.158  22.156   3.071
42875W        W 8135  10.879  22.487   0.251
42876W        W 8136  41.365  40.777  14.081
42877W        W 8137  11.787  26.125  12.144
42878W        W 8138  37.918  30.484   0.908
42879W        W 8139  25.212  40.588   3.369
42880W        W 8140   7.245   6.610   3.258
42881W        W 8141   3.405  19.580   3.365
42882W        W 8142   3.293  35.412   1.319
42883W        W 8143   1.834   5.542  12.097
42884W        W 8144   4.796  24.095   2.562
42885W        W 8145  27.157   4.570  11.073
42886W        W 8146  15.613  22.223   3.665
42887W        W 8147  32.301   4.293   4.132
42888W        W 8148   1.727  25.476   3.205
42889W        W 8149  25.940  44.452  12.300
42890W        W 8150  30.715  41.117   4.217
42891W        W 8151   8.506  31.064  12.869
42892W        W 8152  40.012  26.524   1.785
42893W        W 8153  16.139  42.489  14.543
42894W        W 8154  21.605  17.041  14.284
42895W        W 8155  35.884  28.015  11.575
42896W        W 8156  43.815  30.537  14.089
42897W        W 8157  22.577  33.309  11.989
42898W        W 8158  13.885  36.804  10.562
42899W        W 8159  28.568   4.919  12.432
42900W        W 8160   9.895  11.291  13.727
42901W        W 8161  20.572  15.084   4.942
42902W        W 8162  31.639  19.329   2.817
42903W        W 8163   2.850  19.074  10.672
42904W        W 8164   2.139  28.112   1.771
42905W        W 8165  33.405  42.373   3.996
42906W        W 8166  34.653  20.223   3.521
42907W        W 8167  35.571  25.670   1.461
42908W        W 8168  30.161  17.594  13.711
42909W        W 8169   0.261  26.429   1.874
42910W        W 8170   6.956   8.740  13.554
42911W        W 8171   3.869  40.580   3.711
42912W        W 8172  40.142  35.148   4.202
42913W        W 8173  38.103  10.938   2.848
42914W        W 8174  16.390  33.075  11.965
42915W        W 8175  20.866  24.035   0.347
42916W        W 8176  10.368  35.076   0.910
42917W        W 8177  37.030  42.105   1.471
42918W        W 8178  16.929  10.302   1.958
42919W        W 8179  21.962  23.397  10.674
42920W        W 8180   0.688  42.342   0.395
42921W        W 8181  23.219   4.925  11.065
42922W        W 8182   0.872  31.668  11.979
42923W        W 8183  42.940  11.284  12.916
42924W        W 8184  21.999  26.756  14.187
42925W        W 8185  34.873  23.190   2.841
42926W        W 8186  19.673  13.522   4.842
42927W        W 8187  12.215  29.547  12.312
42928W        W 8188  42.741  40.459  14.773
42929W        W 8189   5.736  27.125  13.467
42930W        W 8190   6.696  39.824   4.837
42931W        W 8191  23.582  20.206  11.175
42932W        W 8192  43.646  33.529  10.718
42933W        W 8193  38.028  29.196   4.611
42934W        W 8194  38.859   5.407   2.743
42935W        W 8195  16.862  20.869  12.652
42936W        W 8196   1.709  15.548  12.600
42937W        W 8197  13.656  17.721   1.625
42938W        W 8198  43.969  29.613  11.130
42939W        W 8199  11.415  34.498  12.860
42940W        W 8200  37.419   3.367  10.985
42941W        W 8201  12.161   9.200  12.421
42942W        W 8202  41.387  43.086   1.227
42943W        W 8203   6.710   6.195  10.650
42944W        W 8204  16.552  41.957   1.960
42945W        W 8205   7.841  33.149   0.900
42946W        W 8206   9.303  39.600  12.882
42947W        W 8207  10.248  13.222  14.904
42948W        W 8208   6.104  33.432   1.138
42949W        W 8209  24.503  16.091   2.399
42950W        W 8210  38.493  16.350  14.299
42951W        W 8211  14.802  43.961  11.875
42952W        W 8212  13.912   9.649   2.813
42953W        W 8213  36.974   7.767   2.772
42954W        W 8214  43.269   0.628  14.945
42955W        W 8215  39.173  34.452   3.270
42956W        W 8216  14.978  25.565   1.638
42957W        W 8217  27.423  43.539   2.545
42958W        W 8218  24.147  40.246  13.582
42959W        W 8219  25.666  26.286  12.633
42960W        W 8220  36.459  36.080   1.313
42961W        W 8221  35.308   8.232  13.157
42962W        W 8222   8.692  33.471   4.618
42963W        W 8223   6.758  30.668   5.128
42964W        W 8224  43.394  33.317  11.635
42965W        W 8225  20.065  15.557   1.821
42966W        W 8226  37.097  38.982  14.841
42967W        W 8227  14.706   8.303  13.103
42968W        W 8228  44.500  23.002  14.929
42969W        W 8229  44.189   1.261  13.643
42970W        W 8230  19.038  30.587  10.962
42971W        W 8231  35.204  42.873  14.940
42972W        W 8232   9.305  12.756  12.427
42973W        W 8233  40.355  40.836   3.754
42974W        W 8234  15.271  22.643   4.163
42975W        W 8235  33.935  11.188  12.373
42976W        W 8236  30.153  31.647   4.042
42977W        W 8237  24.661  14.409  10.385
42978W        W 8238  11.373  16.554  13.704
42979W        W 8239  30.655  34.447  12.483
42980W        W 8240  13.829   7.241   2.906
42981W        W 8241   1.376  26.039   3.125
42982W        W 8242  32.573  37.227  11.228
42983W        W 8243  13.128  26.601   0.494
42984W        W 8244  11.444   2.707  11.087
42985W        W 8245  25.086  10.495  13.816
42986W        W 8246  28.185  30.815  14.948
42987W        W 8247  34.238   5.738   3.096
42988W        W 8248  27.384  34.974  10.317
42989W        W 8249   6.286  31.579   2.324
42990W        W 8250   4.091  25.952   1.688
42991W        W 8251   0.250  15.601   4.514
42992W        W 8252  23.510  25.179   4.092
42993W        W 8253   3.452  15.791   2.211
42994W        W 8254   1.387  10.247  12.252
42995W        W 8255   2.502  10.681   0.215
42996W        W 8256  25.023  24.604  10.588
42997W        W 8257  23.457  27.164   3.122
42998W        W 8258   8.897  19.980   3.118
42999W        W 8259  14.345  30.161  13.958
43000W        W 8260  11.284   6.307   3.487
43001W        W 8261  25.530  32.881   1.459
43002W        W 8262   4.500   2.546  10.808
43003W        W 8263  20.792  33.548  11.411
43004W        W 8264  43.874   8.404   3.948
43005W        W 8265   4.400  30.600  10.950
43006W        W 8266  31.398  27.530  12.872
43007W        W 8267  17.522  27.699  11.606
43008W        W 8268  16.974  30.698   4.423
43009W        W 8269  40.724  12.626  13.887
43010W        W 8270  15.115  14.384  13.355
43011W        W 8271  27.668  28.491   4.668
43012W        W 8272  32.014  10.945   0.769
43013W        W 8273  29.389   6.658   3.570
43014W        W 8274  11.275  34.645  10.572
43015W        W 8275  40.260  24.339  11.112
43016W        W 8276  23.738  26.522   3.697
43017W        W 8277  26.080  44.925   3.858
43018W        W 8278  22.158  28.211  13.853
43019W        W 8279   2.678  27.944   3.717
43020W        W 8280  30.779  36.220   0.872
43021W        W 8281  18.524  36.146   3.588
43022W        W 8282  33.412  17.102   2.280
43023W        W 8283  25.253  15.840  11.508
43024W        W 8284  40.747   6.880   4.221
43025W        W 8285  33.939   0.359   1.370
43026W        W 8286  24.167  42.718  13.148
43027W        W 8287  22.181  11.937   3.145
43028W        W 8288  24.143  14.354   1.872
43029W        W 8289  12.152  22.592  14.907
43030W        W 8290   2.983  13.385  12.310
43031W        W 8291  19.710  24.536  10.840
43032W        W 8292  43.479  27.949   1.966
43033W        W 8293  21.992  11.804  14.920
43034W        W 8294  41.943   3.637  11.216
43035W        W 8295  16.037  31.628  11.076
43036W        W 8296  42.747  12.545   1.355
43037W        W 8297  14.123  44.941  10.758
43038W        W 8298  33.685   3.482  14.081
43039W        W 8299   8.448  39.026  14.958
43040W        W 8300  32.343  15.004   3.186
43041W        W 8301  20.256  17.771   4.355
43042W        W 8302  11.995  25.807   1.270
43043W        W 8303  16.811  12.440   0.105
43044W        W 8304   0.099  36.506   1.168
43045W        W 8305  39.165  29.006  11.948
43046W        W 8306  43.569   5.521   4.396
43047W        W 8307  39.366  29.459   4.354
43048W        W 8308  28.694   9.638   1.014
43049W        W 8309  26.510   7.948  10.507
43050W        W 8310  13.739  25.503  10.464
43051W        W 8311  11.162  12.229   3.127
43052W        W 8312   9.858  27.933  13.949
43053W        W 8313   9.689  22.605  11.258
43054W        W 8314   1.786   4.936   0.809
43055W        W 8315  16.787  31.708  13.900
43056W        W 8316  34.412  39.353   2.481
43057W        W 8317  41.984  14.491  12.488
43058W        W 8318  40.848   1.718   3.768
43059W        W 8319  33.799  16.078  12.063
43060W        W 8320  14.363  39.996   0.092
43061W        W 8321  16.561  40.766  11.986
43062W        W 8322  26.245  41.570   1.892
43063W        W 8323   8.302  34.405   1.230
43064W        W 8324   3.742  33.113   4.909
43065W        W 8325  42.964  14.213   4.044
43066W        W 8326  25.469  42.890  11.615
43067W        W 8327  28.455  27.660  13.127
43068W        W 8328  19.802  37.497   3.595
43069W        W 8329   1.423  32.030  12.807
43070W        W 8330  35.709   0.955   3.563
43071W        W 8331  20.304  15.768   1.386
43072W        W 8332  33.129  31.356   3.257
43073W        W 8333  20.781   3.297   0.801
43074W        W 8334  38.787  35.365   3.263
43075W        W 8335  22.119  19.480  10.656
43076W        W 8336  22.697  25.590   4.217
43077W        W 8337  17.087  33.995   1.196
43078W        W 8338  34.872  23.004   2.350
43079W        W 8339  40.100  19.089   1.141
43080W        W 8340   4.280   1.205   2.337
43081W        W 8341  17.124  35.946   0.269
43082W        W 8342  28.543  31.680  12.592
43083W        W 8343  26.421  25.072   2.243
43084W        W 8344   7.787   1.119   4.092
43085W        W 8345  36.662  15.863   2.354
43086W        W 8346  35.368   7.141  10.615
43087W        W 8347  32.607   4.170  14.612
43088W        W 8348  31.226   5.183  13.470
43089W        W 8349  40.821   0.944  14.994
43090W        W 8350  15.607  32.688   3.732
43091W        W 8351  14.548  13.278  14.776
43092W        W 8352  14.224   8.328  12.881
43093W        W 8353  42.024  29.573   1.724
43094W        W 8354  17.549  35.471   3.768
43095W        W 8355  31.240  11.367   0.325
43096W        W 8356  21.781  33.871   4.568
43097W        W 8357  33.707  16.257  13.016
43098W        W 8358  22.481   3.677   3.860
43099W        W 8359  11.626  38.350  11.657
43100W        W 8360  39.726  40.837   1.505
43101W        W 8361   1.905  34.431   0.732
43102W        W 8362  18.201   4.291  13.949
43103W        W 8363  22.634  31.182  12.134
43104W        W 8364   8.448  33.408   4.138
43105W        W 8365   8.658  23.483   3.245
43106W        W 8366  31.339  30.714   4.594
43107W        W 8367  17.531  17.787  13.838
43108W        W 8368  13.891  17.930  14.623
43109W        W 8369  11.650   1.902   3.754
43110W        W 8370  35.568  43.489  11.868
43111W        W 8371  35.374  43.860  11.149
43112W        W 8372   7.017   4.939   0.014
43113W        W 8373  43.979  41.463  11.449
43114W        W 8374  29.664  31.157   1.314
43115W        W 8375  21.792  22.656   0.323
43116W        W 8376  12.672   2.260  12.371
43117W        W 8377  23.782  28.139  10.391
43118W        W 8378  40.135   9.227   1.419
43119W        W 8379  29.054  14.868   1.671
43120W        W 8380  12.026  23.517   3.183
43121W        W 8381  38.871  18.108  14.861
43122W        W 8382   6.335  31.652   3.247
43123W        W 8383   4.968  34.286  10.458
43124W        W 8384  32.029  29.171   1.852
43125W        W 8385   2.885  13.363  10.172
43126W        W 8386  23.155  16.183   1.106
43127W        W 8387  26.980  39.077  14.431
43128W        W 8388  28.097  17.491   1.772
43129W        W 8389  15.160  33.080   3.207
43130W        W 8390  26.661   4.843   3.119
43131W        W 8391  10.581  21.203  11.201
43132W        W 8392  12.207   2.304   0.844
43133W        W 8393  19.437   2.438   0.364
43134W        W 8394   3.586   2.461  14.798
43135W        W 8395   1.015   6.281  11.633
43136W        W 8396  39.593  38.393   0.768
43137W        W 8397  44.031  36.977   3.633
43138W        W 8398  42.880  20.185   2.527
43139W        W 8399   4.909  18.597  11.854
43140W        W 8400  22.520   7.262  13.112
43141W        W 8401   4.868  17.070   3.755
43142W        W 8402  31.476  42.476   3.615
43143W        W 8403  41.461  23.164   3.341
43144W        W 8404  34.196  26.363  10.640
43145W        W 8405  44.044  31.036  13.364
43146W        W 8406  40.975  35.625  13.622
43147W        W 8407  35.870  40.585  12.231
43148W        W 8408   1.039  40.183   0.675
43149W        W 8409  32.888  42.096  11.639
43150W        W 8410  24.233  13.974  12.147
43151W        W 8411  23.419  31.693   0.246
43152W        W 8412  34.576  20.347  13.059
43153W        W 8413   6.748  21.647   0.185
43154W        W 8414  13.622  33.353  12.051
43155W        W 8415  28.308  14.635   1.220
43156W        W 8416   1.873  12.997  10.111
43157W        W 8417   1.582  23.241   9.803
43158W        W 8418  19.538   0.760  12.892
43159W        W 8419  13.565  15.634  10.832
43160W        W 8420  29.194   6.024  14.020
43161W        W 8421  31.946   1.861   4.545
43162W        W 8422  19.411  29.843   0.432
43163W        W 8423  17.337  28.145   2.830
43164W        W 8424   5.921  38.132   1.842
43165W        W 8425  44.322  16.318   1.114
43166W        W 8426  13.595  37.329  11.235
43167W        W 8427  29.903  17.200   0.778
43168W        W 8428  19.685  32.180  11.993
43169W        W 8429  27.041  38.409   3.650
43170W        W 8430  11.878  11.900  14.469
43171W        W 8431   2.268  31.377   3.626
43172W        W 8432  35.395   0.173   2.726
43173W        W 8433   6.234  23.111  10.414
43174W        W 8434  11.980  20.725  14.885
43175W        W 8435  13.804  15.800   4.517
43176W        W 8436  33.966  13.038  13.821
43177W        W 8437  38.094  41.517  13.393
43178W        W 8438   6.646  21.542   3.370
43179W        W 8439   9.594  17.180  14.997
43180W        W 8440  44.040  12.214  13.385
43181W        W 8441  14.353   3.333  13.889
43182W        W 8442  26.619  23.780  14.046
43183W        W 8443  11.117  30.817  14.751
43184W        W 8444  33.361  10.771  11.974
43185W        W 8445  17.009  14.169   3.299
43186W        W 8446  31.977  17.748  12.386
43187W        W 8447  21.253   1.718   2.606
43188W        W 8448   7.842   8.335  13.776
43189W        W 8449  28.762  11.570  11.096
43190W        W 8450   0.339  37.154   2.310
43191W        W 8451  30.374  29.970   0.205
43192W        W 8452  18.509  32.587  12.069
43193W        W 8453  33.882  11.375   1.363
43194W        W 8454   5.444   0.769   2.592
43195W        W 8455  35.064  32.189   3.227
43196W        W 8456  11.634  27.461   2.654
43197W        W 8457  24.010  31.854  12.804
43198W        W 8458  41.562  32.641  11.546
43199W        W 8459  12.205  42.699   0.451
43200W        W 8460   4.906  39.936  11.234
43201W        W 8461  41.551  40.523   1.878
43202W        W 8462   5.676  20.992  12.816
43203W        W 8463   8.368  36.069  12.779
43204W        W 8464  41.919  26.265  13.898
43205W        W 8465  29.022  11.522  12.889
43206W        W 8466  13.561  15.431   4.850
43207W        W 8467   8.755  14.338  12.933
43208W        W 8468  44.577  25.119  11.645
43209W        W 8469  29.666  44.685   3.724
43210W        W 8470  21.259  35.896   0.907
43211W        W 8471  17.297   6.271   2.402
43212W        W 8472  40.884  34.219   1.702
43213W        W 8473  24.763  28.595   3.789
43214W        W 8474  15.206   0.366  12.541
43215W        W 8475  32.451  23.984  14.352
43216W        W 8476  21.026   9.321  11.156
43217W        W 8477   8.103  28.221   1.704
43218W        W 8478   7.420  38.088   2.339
43219W        W 8479  42.045   2.251  12.029
43220W        W 8480  24.397   9.157  12.105
43221W        W 8481  37.476  36.360  14.383
43222W        W 8482  23.700  33.525  12.450
43223W        W 8483  18.194  15.162   0.841
43224W        W 8484  42.873  19.636   3.410
43225W        W 8485  28.197   9.549   4.173
43226W        W 8486   1.811  32.987  13.919
43227W        W 8487  27.616  38.118   4.946
43228W        W 8488  26.991   3.747  10.725
43229W        W 8489   3.261  11.441  14.410
43230W        W 8490  42.865  15.809  14.085
43231W        W 8491  44.931  39.884   3.165
43232W        W 8492  11.476   3.725  13.113
43233W        W 8493  28.885  33.158  12.907
43234W        W 8494  18.100  44.291  13.510
43235W        W 8495  15.883   9.788   4.811
43236W        W 8496  34.359  33.052  11.581
43237W        W 8497  10.937  41.923   4.692
43238W        W 8498  10.264   2.652  13.620
43239W        W 8499  29.558  15.338  13.863
43240W        W 8500  21.491  38.071  11.332
43241W        W 8501  22.189   9.404  13.554
43242W        W 8502  20.769   4.653   3.719
43243W        W 8503  16.006  40.072   2.555
43244W        W 8504  36.446   9.768  14.079
43245W        W 8505   7.436  20.036   4.056
43246W        W 8506   5.983  19.637  14.997
43247W        W 8507   2.955  35.800   1.942
43248W        W 8508  17.140  26.528   1.458
43249W        W 8509  38.462   7.285   1.786
43250W        W 8510   8.843   6.013  10.749
43251W        W 8511  18.282   1.995  14.414
43252W        W 8512   4.535   6.129   3.689
43253W        W 8513  14.343  44.980  12.126
43254W        W 8514  22.428  30.156   3.261
43255W        W 8515  42.120  31.646  12.011
43256W        W 8516  34.133  41.860   3.071
43257W        W 8517  15.242  19.588   4.714
43258W        W 8518  38.863  19.988   3.721
43259W        W 8519  34.005  31.169   3.260
43260W        W 8520  15.107  43.288   3.665
43261W        W 8521  31.156  37.365  12.077
43262W        W 8522  14.145  11.558   2.243
43263W        W 8523  25.455  44.184  10.495
43264W        W 8524  13.648   0.931  13.481
43265W        W 8525  12.778  42.940  12.357
43266W        W 8526  28.408  35.747  13.290
43267W        W 8527  17.258  23.425   4.649
43268W        W 8528  42.025  23.228  11.294
43269W        W 8529  17.418  25.510  13.030
43270W        W 8530  35.886  32.471   1.879
43271W        W 8531   6.278  23.433  14.451
43272W        W 8532   2.474  17.352  13.442
43273W        W 8533   1.284   7.360   4.143
43274W        W 8534  28.131  42.098   1.101
43275W        W 8535  24.661   7.842   4.877
43276W        W 8536  27.426  37.399   0.077
43277W        W 8537  13.278  41.803   3.857
43278W        W 8538  42.304  17.214   1.851
43279W        W 8539   6.778  38.306   4.592
43280W        W 8540  34.165  38.754   0.766
43281W        W 8541  42.106  33.311   2.104
43282W        W 8542  36.859  34.386   1.814
43283W        W 8543   1.271  11.754   2.707
43284W        W 8544  10.115  30.815   3.686
43285W        W 8545   4.238  27.446  12.085
43286W        W 8546  38.546  33.828   4.183
43287W        W 8547  27.522  17.662   3.047
43288W        W 8548  17.098   7.835   2.266
43289W        W 8549  40.970  40.959   2.823
43290W        W 8550  15.458  43.287  13.646
43291W        W 8551  10.165  37.164  13.414
43292W        W 8552   7.165   7.414  13.317
43293W        W 8553  29.992  19.534   4.131
43294W        W 8554  23.751  10.183  11.939
43295W        W 8555  24.502   3.763   0.908
43296W        W 8556  18.147  36.509   3.569
43297W        W 8557   6.288   6.663  11.666
43298W        W 8558  13.315  27.617   2.076
43299W        W 8559  42.846  42.984  13.534
43300W        W 8560  40.048  44.002   2.802
43301W        W 8561  20.778  42.197   3.220
43302W        W 8562   6.010  19.795   4.135
43303W        W 8563  34.928  33.860  11.543
43304W        W 8564  44.658  33.593  10.606
43305W        W 8565  19.615  17.750  14.097
43306W        W 8566  39.702  34.498  10.624
43307W        W 8567  11.104  29.983  13.427
43308W        W 8568  35.137  23.303  10.279
43309W        W 8569  23.527  38.950  10.585
43310W        W 8570   6.678  28.025   1.393
43311W        W 8571  15.760  35.618  13.408
43312W        W 8572  35.701   6.198   2.318
43313W        W 8573   5.159  21.518  11.509
43314W        W 8574   4.881  17.719  14.454
43315W        W 8575   2.221  31.289  10.763
43316W        W 8576  13.326  10.807  10.897
43317W        W 8577   6.786   3.077  13.383
43318W        W 8578  19.775   7.848  12.018
43319W        W 8579  21.524  30.429  12.020
43320W        W 8580  17.284   8.788  13.081
43321W        W 8581   9.347  22.401   3.254
43322W        W 8582  29.371  16.209  13.282
43323W        W 8583   4.731   5.349  12.875
43324W        W 8584  10.818  26.677   0.819
43325W        W 8585  13.299  19.657   2.308
43326W        W 8586  19.274  12.589   4.124
43327W        W 8587  33.571  37.429  11.934
43328W        W 8588   5.043  22.425  13.434
43329W        W 8589  40.600  36.481  12.119
43330W        W 8590  11.167  35.932   2.878
43331W        W 8591   5.306  14.320   4.552
43332W        W 8592  10.431  36.716  13.606
43333W        W 8593  10.615  32.696  10.565
43334W        W 8594  19.308  35.459  12.500
43335W        W 8595  31.421  17.979   3.398
43336W        W 8596  14.361  36.538  10.688
43337W        W 8597  37.879  25.623   4.612
43338W        W 8598  25.705  31.967  13.529
43339W        W 8599  18.630  12.176  13.926
43340W        W 8600  32.908  22.749   4.637
43341W        W 8601   6.738  12.152   1.109
43342W        W 8602  19.172  14.202  12.996
43343W        W 8603  16.682  40.921   4.086
43344W        W 8604  31.457  12.693   3.212
43345W        W 8605  17.404  44.463  14.695
43346W        W 8606  10.769  41.834   3.312
43347W        W 8607  24.890  25.689   3.278
43348W        W 8608  11.020  44.728  14.302
43349W        W 8609  31.226  20.603  12.391
43350W        W 8610  40.572   0.694  14.078
43351W        W 8611  24.205  41.108   3.833
43352W        W 8612   0.768  23.727  14.997
43353W        W 8613  41.030  32.348  10.836
43354W        W 8614  10.510  10.447  14.913
43355W        W 8615  39.410  41.343   4.210
43356W        W 8616  25.700  41.247  13.292
43357W        W 8617  26.431  17.201  11.922
43358W        W 8618  32.186  22.108   0.951
43359W        W 8619  21.236  20.159  14.986
43360W        W 8620  29.499  35.824   2.782
43361W        W 8621   4.709  23.093   3.702
43362W        W 8622   6.872  34.244   2.327
43363W        W 8623  28.104  40.310  14.197
43364W        W 8624  36.782   5.689  12.901
43365W        W 8625  19.956  17.793  11.006
43366W        W 8626  24.558  24.583  14.964
43367W        W 8627  30.612  30.695   3.140
43368W        W 8628   4.500  29.378   4.727
43369W        W 8629  14.307  27.584  10.266
43370W        W 8630  34.871   2.048  13.446
43371W        W 8631  15.549  24.696   2.205
43372W        W 8632   1.398  34.822  11.642
43373W        W 8633   9.405  17.021  11.607
43374W        W 8634  38.275  23.102  11.647
43375W        W 8635  30.182  21.559   0.014
43376W        W 8636  15.812  32.406   0.523
43377W        W 8637   9.326  37.923  12.670
43378W        W 8638  14.281  43.509   1.626
43379W        W 8639  25.068  34.350  13.320
43380W        W 8640  43.805   6.274   4.422
43381W        W 8641   9.920   0.502  13.095
43382W        W 8642  24.751  25.924   4.721
43383W        W 8643  17.706   4.665   3.197
43384W        W 8644  30.940  17.677  12.464
43385W        W 8645  23.450   0.678   1.448
43386W        W 8646  39.793   4.987  13.359
43387W        W 8647  15.728  19.309  12.611
43388W        W 8648  24.238  30.956  13.044
43389W        W 8649  28.117  22.864  10.999
43390W        W 8650   1.554  36.580   1.465
43391W        W 8651  44.765  44.333   1.723
43392W        W 8652  21.159  19.615   5.210
43393W        W 8653  27.645  35.155   1.193
43394W        W 8654  12.143  28.948  14.044
43395W        W 8655   8.465   7.802   3.788
43396W        W 8656  21.134   9.322   2.052
43397W        W 8657   7.220  26.429  12.860
43398W        W 8658  36.873  16.694   4.424
43399W        W 8659  31.868  42.814   5.029
43400W        W 8660   0.932  38.620  14.954
43401W        W 8661  39.028  40.537  12.451
43402W        W 8662   8.984  40.779   3.731
43403W        W 8663  14.323  37.206   2.192
43404W        W 8664  34.690  35.113   3.835
43405W        W 8665  31.541  17.313   1.037
43406W        W 8666  41.899  36.951  11.808
43407W        W 8667  43.011  31.162   3.718
43408W        W 8668   9.176  23.363   3.197
43409W        W 8669  24.721  37.936   3.730
43410W        W 8670   0.306  27.447   2.155
43411W        W 8671   5.920  14.753  14.898
43412W        W 8672  39.283  43.749   0.412
43413W        W 8673  19.997  18.489   3.744
43414W        W 8674  33.513  25.521  12.986
43415W        W 8675  17.550   1.742  11.018
43416W        W 8676   7.893  21.585   3.632
43417W        W 8677   5.898  29.563   4.653
43418W        W 8678  41.041  35.270  11.503
43419W        W 8679  17.039   5.404   2.330
43420W        W 8680   4.433  30.688   3.855
43421W        W 8681  22.585   8.167   3.089
43422W        W 8682  10.334  39.386  14.491
43423W        W 8683  29.572  30.173  12.512
43424W        W 8684   7.387  10.934   2.387
43425W        W 8685  23.686   6.649  13.359
43426W        W 8686  17.255   3.931   3.483
43427W        W 8687  36.054   8.289   4.622
43428W        W 8688  17.260  15.597   2.802
43429W        W 8689  20.365  40.522   1.906
43430W        W 8690   7.488   5.320  11.399
43431W        W 8691  39.957   7.982  14.002
43432W        W 8692   6.316  41.260  14.856
43433W        W 8693  30.478  28.708  14.752
43434W        W 8694   2.374  30.541   4.634
43435W        W 8695  24.237  22.592  12.918
43436W        W 8696  23.961  33.367   0.053
43437W        W 8697  10.284  44.389   1.464
43438W        W 8698  42.912  18.782  11.863
43439W        W 8699   4.712   7.043   3.918
43440W        W 8700  18.601  18.033   0.748
43441W        W 8701  12.880   2.944  12.128
43442W        W 8702  28.659  25.713  12.923
43443W        W 8703  44.790   3.689   3.729
43444W        W 8704  28.644  29.110  10.939
43445W        W 8705  11.184  40.556   1.875
43446W        W 8706  27.192  11.113  12.536
43447W        W 8707  11.185   9.801  14.401
43448W        W 8708  32.565  30.079   4.113
43449W        W 8709   4.244  39.407   2.838
43450W        W 8710  37.370  31.662  12.401
43451W        W 8711  40.374  31.233  11.570
43452W        W 8712  26.930  22.245   1.365
43453W        W 8713  14.905  20.959  12.687
43454W        W 8714  42.404  15.737  12.085
43455W        W 8715  29.539  10.889   4.609
43456W        W 8716   3.927   6.564  12.023
43457W        W 8717   9.722  27.469  14.791
43458W        W 8718  24.150   3.299   3.083
43459W        W 8719  39.425  11.099  10.637
43460W        W 8720  11.601  15.031  13.452
43461W        W 8721   3.220  17.019   3.836
43462W        W 8722  24.911  35.186   0.742
43463W        W 8723  33.544  23.465   3.623
43464W        W 8724  32.372  20.707   1.412
43465W        W 8725   2.993  23.025   4.674
43466W        W 8726  32.918  19.384   4.137
43467W        W 8727  35.450  10.795   1.314
43468W        W 8728  33.490  10.463   5.074
43469W        W 8729  37.657  24.651  11.043
43470W        W 8730  38.877  17.269   0.420
43471W        W 8731   0.299  37.984  14.384
43472W        W 8732  25.986  12.937   1.760
43473W        W 8733  14.129  17.686  12.512
43474W        W 8734   0.372  39.070   3.594
43475W        W 8735  43.246  18.570   2.762
43476W        W 8736  22.593  15.154   3.801
43477W        W 8737  26.304  14.054  12.123
43478W        W 8738   8.214  14.228  10.881
43479W        W 8739  19.242  10.642   2.868
43480W        W 8740  26.032  40.464  12.926
43481W        W 8741  28.428   3.277  10.677
43482W        W 8742  19.280  27.175  14.782
43483W        W 8743  18.213   8.612   1.928
43484W        W 8744  11.604  13.679  13.606
43485W        W 8745  37.029   5.819   1.416
43486W        W 8746  43.700  32.958  13.472
43487W        W 8747  32.542  38.490   2.774
43488W        W 8748   6.729  20.781  14.867
43489W        W 8749  26.696  39.192   9.875
43490W        W 8750  41.890  38.410  13.839
43491W        W 8751  26.125  36.829   3.576
43492W        W 8752   3.292  35.970  12.710
43493W        W 8753   0.478   3.028  14.398
43494W        W 8754  36.375  36.023  12.480
43495W        W 8755   7.121  42.865  13.474
43496W        W 8756   2.341  15.731   1.236
43497W        W 8757  35.617   7.006   2.677
43498W        W 8758  29.368  15.185  10.965
43499W        W 8759  10.940  19.243   0.254
43500W        W 8760  32.869  15.275  10.926
43501W        W 8761  31.652   0.800  13.864
43502W        W 8762  41.449  41.211  14.414
43503W        W 8763   7.817  35.010   3.681
43504W        W 8764  16.310  23.469  14.085
43505W        W 8765  11.509  29.981   0.462
43506W        W 8766  37.504  30.633  14.249
43507W        W 8767  42.375  41.527   0.835
43508W        W 8768  16.845   4.612  13.972
43509W        W 8769  44.905  33.430  11.517
43510W        W 8770  18.562  19.108  14.219
43511W        W 8771  30.103  11.685  10.961
43512W        W 8772   1.341   8.697  11.111
43513W        W 8773  26.815  17.173  12.282
43514W        W 8774   2.013  23.097  10.301
43515W        W 8775  26.433   6.221  13.042
43516W        W 8776  27.613  19.610   4.199
43517W        W 8777   8.783   9.370   1.299
43518W        W 8778   1.332   9.229   1.252
43519W        W 8779  35.289  38.283  14.473
43520W        W 8780  18.634   2.751   2.968
43521W        W 8781   6.388  23.082  11.917
43522W        W 8782  29.738  31.988  13.023
43523W        W 8783  38.636  12.218   0.262
43524W        W 8784   7.927   9.730   0.283
43525W        W 8785  23.067  34.864  12.650
43526W        W 8786   7.351   1.415   4.204
43527W        W 8787  32.121  38.941   5.031
43528W        W 8788   5.417  16.484   1.850
43529W        W 8789  19.565   5.680   4.512
43530W        W 8790  29.900  20.792   0.126
43531W        W 8791  39.020  17.795   1.676
43532W        W 8792   1.264  31.451  11.638
43533W        W 8793  43.584   3.403  14.339
43534W        W 8794  38.540  44.369  11.098
43535W        W 8795  11.898   6.791  13.613
43536W        W 8796  30.381  43.359  11.063
43537W        W 8797  12.241  34.880   1.829
43538W        W 8798  18.074  44.512   2.758
43539W        W 8799  34.401  25.969   0.739
43540W        W 8800  35.542  14.648   4.613
43541W        W 8801  19.613  27.204  12.026
43542W        W 8802  31.044  34.110   4.417
43543W        W 8803  12.143  27.568  14.277
43544W        W 8804  25.450   4.624  11.787
43545W        W 8805  44.967  43.751   3.615
43546W        W 8806  29.532  33.647  11.079
43547W        W 8807  22.124  42.926  12.888
43548W        W 8808   5.423  42.815   3.377
43549W        W 8809   4.645  37.851   4.639
43550W        W 8810  40.521   2.825  11.383
43551W        W 8811   4.085  16.549   2.336
43552W        W 8812  33.433   7.500  11.666
43553W        W 8813  35.490   9.051   3.201
43554W        W 8814  38.738  24.970   0.154
43555W        W 8815   4.897  38.035  11.718
43556W        W 8816  34.035  23.466   4.191
43557W        W 8817  36.085  23.170   1.368
43558W        W 8818   8.942   1.960  14.818
43559W        W 8819  41.243  23.545   3.084
43560W        W 8820  42.838  21.728  14.831
43561W        W 8821  12.146  22.393   1.326
43562W        W 8822  20.286   9.629   3.650
43563W        W 8823  28.828  33.369  12.134
43564W        W 8824  21.256   7.712   1.819
43565W        W 8825  18.548  41.732  13.507
43566W        W 8826  37.690   3.769   4.010
43567W        W 8827  38.945  26.363   4.565
43568W        W 8828  39.302   7.319   0.159
43569W        W 8829  16.770  17.383   3.537
43570W        W 8830  32.469  23.626   1.295
43571W        W 8831  42.799  37.535  13.044
43572W        W 8832  25.906  21.387   3.662
43573W        W 8833  24.977  34.528   1.864
43574W        W 8834  12.316  41.019  13.573
43575W        W 8835  31.949  16.677  12.376
43576W        W 8836   4.817  14.115  14.559
43577W        W 8837   4.126  14.271  11.980
43578W        W 8838  17.126  43.025   4.248
43579W        W 8839   6.650   9.268  13.325
43580W        W 8840  21.205  31.578   3.222
43581W        W 8841  37.652  39.002  14.177
43582W        W 8842  44.392  23.682   3.803
43583W        W 8843  39.793   4.985   1.724
43584W        W 8844  27.176   9.336   1.619
43585W        W 8845  22.042   9.231   2.796
43586W        W 8846  31.636  32.729   1.010
43587W        W 8847  17.706  29.871   1.700
43588W        W 8848   4.875  20.351  11.555
43589W        W 8849  23.254   0.847   3.811
43590W        W 8850  26.151   0.862   4.342
43591W        W 8851   6.230  30.381  10.518
43592W        W 8852  22.439  23.555   1.821
43593W        W 8853   2.310   2.363   0.721
43594W        W 8854  43.888  38.194  12.639
43595W        W 8855  12.067  34.491  14.998
43596W        W 8856  21.245  33.176  11.498
43597W        W 8857  36.894  32.384   4.413
43598W        W 8858  39.158  35.141   0.954
43599W        W 8859   5.346  19.258  11.984
43600W        W 8860  16.757   6.454   4.464
43601W        W 8861   5.377  20.520   1.903
43602W        W 8862  36.857  44.871   3.701
43603W        W 8863  39.392  10.417  12.026
43604W        W 8864   1.309   4.521  12.816
43605W        W 8865  12.146  25.153  14.983
43606W        W 8866  33.904  12.272   0.704
43607W        W 8867  15.302  29.923  13.307
43608W        W 8868  32.996   8.611  12.388
43609W        W 8869   2.148   6.999  13.553
43610W        W 8870  18.161  16.899   4.108
43611W        W 8871   5.104  37.053   2.174
43612W        W 8872  29.843  11.121   3.385
43613W        W 8873  22.956  14.014  14.862
43614W        W 8874  12.145  16.261  12.632
43615W        W 8875  36.742  23.523  10.762
43616W        W 8876  32.902  25.496   0.717
43617W        W 8877  11.530   0.054  12.001
43618W        W 8878   7.451  18.141   1.770
43619W        W 8879  32.173  38.183   3.660
43620W        W 8880  32.922  25.120   2.872
43621W        W 8881  36.485   2.383  12.124
43622W        W 8882  43.329  40.014   0.314
43623W        W 8883  11.128  19.187   3.942
43624W        W 8884   6.614  22.070  14.308
43625W        W 8885   5.616   2.856   1.318
43626W        W 8886  34.785  37.316  14.001
43627W        W 8887  13.793   4.793  14.925
43628W        W 8888  16.791  15.565   3.145
43629W        W 8889  18.578  16.716   2.283
43630W        W 8890  31.029  15.780   4.133
43631W        W 8891  30.525  33.947  12.373
43632W        W 8892   9.900  24.127  14.366
43633W        W 8893  32.515  28.413   4.553
43634W        W 8894  18.228  34.897   2.862
43635W        W 8895  44.802  20.822  10.686
43636W        W 8896  14.339  13.899  11.348
43637W        W 8897  36.749  30.207   2.888
43638W        W 8898  13.649  32.863   0.925
43639W        W 8899  29.384  33.049  12.810
43640W        W 8900  44.965  23.297   3.262
43641W        W 8901  18.563  17.676   0.373
43642W        W 8902  40.917  34.416  13.583
43643W        W 8903   0.218  39.817  14.738
43644W        W 8904  29.722  26.417  13.135
43645W        W 8905  17.265  18.423   4.701
43646W        W 8906  43.262  38.048  13.872
43647W        W 8907  31.337  27.786   0.009
43648W        W 8908  22.077  21.792   1.200
43649W        W 8909   8.695  26.063  14.708
43650W        W 8910  38.422   1.241  14.824
43651W        W 8911   1.158  14.241  10.649
43652W        W 8912  33.382  40.537  10.613
43653W        W 8913   7.553  15.635  14.756
43654W        W 8914   3.731   4.476   2.146
43655W        W 8915   6.054   1.824   1.866
43656W        W 8916  37.652   9.353   0.019
43657W        W 8917  21.168  17.272  10.666
43658W        W 8918  36.363  22.200  12.578
43659W        W 8919  41.592  29.520  10.531
43660W        W 8920  10.323  43.999  10.191
43661W        W 8921  37.592  15.557   3.169
43662W        W 8922  32.840   6.827   4.099
43663W        W 8923   2.019  20.664  12.909
43664W        W 8924   1.752  32.467   0.765
43665W        W 8925  35.973  24.708  12.911
43666W        W 8926  34.091   0.978  12.443
43667W        W 8927   2.194  16.155   3.885
43668W        W 8928  13.356   9.118  14.448
43669W        W 8929   5.324  39.269  12.625
43670W        W 8930  17.645   9.157  13.029
43671W        W 8931  30.793  16.198  13.582
43672W        W 8932  39.289  38.892  10.644
43673W        W 8933  35.801  13.216   0.323
43674W        W 8934  16.823  43.300  11.955
43675W        W 8935   5.782  33.024  11.568
43676W        W 8936   6.846  32.991   2.872
43677W        W 8937  23.665  20.732   3.585
43678W        W 8938  35.848  41.758  11.126
43679W        W 8939  11.789  26.521  13.942
43680W        W 8940   5.792   3.940  13.006
43681W        W 8941  37.539  13.023  14.026
43682W        W 8942  44.533  30.531   3.976
43683W        W 8943  44.238  43.732   1.238
43684W        W 8944  32.001  22.326   1.424
43685W        W 8945   2.814  19.565   4.006
43686W        W 8946  41.484  13.073  12.598
43687W        W 8947  19.582  29.477   2.215
43688W        W 8948  11.635  13.427   4.027
43689W        W 8949  11.735   9.457   9.753
43690W        W 8950  39.153  12.840  10.061
43691W        W 8951  36.640  34.677   0.843
43692W        W 8952  11.755  19.503  13.839
43693W        W 8953   8.654  15.011   2.367
43694W        W 8954   7.322  38.444  13.477
43695W        W 8955  29.198  12.498   0.392
43696W        W 8956  41.297  33.146  11.484
43697W        W 8957  42.893   4.262   0.873
43698W        W 8958  19.161  17.367   1.367
43699W        W 8959  36.300  12.848   0.768
43700W        W 8960  34.784   0.848   4.481
43701W        W 8961  14.863  16.345  13.292
43702W        W 8962   7.851  27.916   2.246
43703W        W 8963  44.168  43.603   0.521
43704W        W 8964   1.388   9.665   0.731
43705W        W 8965  42.060   3.387  14.486
43706W        W 8966   6.477  29.953  10.614
43707W        W 8967  36.438  11.246   4.833
43708W        W 8968   9.663  44.818  11.973
43709W        W 8969   4.219  11.122  14.345
43710W        W 8970  34.003   9.137  14.031
43711W        W 8971  11.925  13.195  11.059
43712W        W 8972  31.399  14.265   4.678
43713W        W 8973  23.473  37.857   3.274
43714W        W 8974   3.608   7.859   3.047
43715W        W 8975  25.600   9.284  11.264
43716W        W 8976   2.795   8.877   2.263
43717W        W 8977  21.561  41.056  14.625
43718W        W 8978  13.834   7.842   4.878
43719W        W 8979  32.536  33.952   4.814
43720W        W 8980  36.135  17.760  11.679
43721W        W 8981  37.869  41.818   4.623
43722W        W 8982  19.460  37.136   2.411
43723W        W 8983  39.295  17.094  10.642
43724W        W 8984  43.331  12.153  12.155
43725W        W 8985   5.333  27.240   2.340
43726W        W 8986   8.303  28.758   2.319
43727W        W 8987   0.290   5.793  13.849
43728W        W 8988  34.597  43.589   3.865
43729W        W 8989  35.373  13.587  12.133
43730W        W 8990  24.296  17.736   3.266
43731W        W 8991  38.363  15.828   1.768
43732W        W 8992  20.227  37.582   2.784
43733W        W 8993  44.718   2.506  11.460
43734W        W 8994  15.919  16.747   1.448
43735W        W 8995  28.227  36.454   3.783
43736W        W 8996  24.997  25.044  14.460
43737W        W 8997  25.456  25.266  12.395
43738W        W 8998  13.151   9.649   3.204
43739W        W 8999  25.424  31.872  13.970
43740W        W 9000  19.728   6.383   2.339
43741W        W 9001  43.995  26.088   3.519
43742W        W 9002  17.622  11.732   2.757
43743W        W 9003  21.050   8.672   3.845
43744W        W 9004   0.836  37.506   1.613
43745W        W 9005  24.589   9.553   3.787
43746W        W 9006  44.355  19.717  14.111
43747W        W 9007   7.207  42.062   2.665
43748W        W 9008   7.968   5.523  10.760
43749W        W 9009  17.544   1.238   4.638
43750W        W 9010  33.904  39.028   1.741
43751W        W 9011  17.637  31.988  12.369
43752W        W 9012  39.026  16.699  14.724
43753W        W 9013   3.855   6.377   2.066
43754W        W 9014  36.528  42.356   4.632
43755W        W 9015   2.215  39.165   2.363
43756W        W 9016  21.951  20.070   5.290
43757W        W 9017  28.723  29.487  13.008
43758W        W 9018  23.973   2.127   4.232
43759W        W 9019  23.146   2.850   4.614
43760W        W 9020  13.068  24.688  12.856
43761W        W 9021  21.894  28.669  10.705
43762W        W 9022   5.974   9.334   3.687
43763W        W 9023  43.846  20.677   4.539
43764W        W 9024  25.436   9.436   3.402
43765W        W 9025  16.408  22.775  11.599
43766W        W 9026   2.005   5.587  11.175
43767W        W 9027  19.345  26.656   0.491
43768W        W 9028  24.106   9.040   1.145
43769W        W 9029   4.170   9.125   2.306
43770W        W 9030  35.561  24.749   4.264
43771W        W 9031   6.666   6.308   0.848
43772W        W 9032  18.263  17.392  11.264
43773W        W 9033  19.161  35.863   1.469
43774W        W 9034   7.261  18.208   0.396
43775W        W 9035  33.319  29.179   3.851
43776W        W 9036  17.283   7.256  14.291
43777W        W 9037  37.598  19.107  11.594
43778W        W 9038   2.398  21.176  11.655
43779W        W 9039   4.518  23.562  10.391
43780W        W 9040  12.840  39.934   0.045
43781W        W 9041  10.364   0.246  13.287
43782W        W 9042   4.887   5.403  12.351
43783W        W 9043  18.603  20.455   2.683
43784W        W 9044  32.687  33.958   2.621
43785W        W 9045  25.213   7.304   9.619
43786W        W 9046  10.428  19.527  10.112
43787W        W 9047   9.224  23.123   4.059
43788W        W 9048  19.599  30.881  13.509
43789W        W 9049  35.976  22.309  13.357
43790W        W 9050  42.057  21.157  14.890
43791W        W 9051  23.963  13.455   3.894
43792W        W 9052  38.034  30.082  11.230
43793W        W 9053  28.682  39.294  11.492
43794W        W 9054   9.924  17.094   1.392
43795W        W 9055   8.956   0.695   9.945
43796W        W 9056  26.552  15.192   1.467
43797W        W 9057  40.773  34.921   2.168
43798W        W 9058   4.802  27.674   4.070
43799W        W 9059  40.330  33.608  13.380
43800W        W 9060  37.067  32.736  11.101
43801W        W 9061   8.141  39.304  11.594
43802W        W 9062  20.026  34.380  14.363
43803W        W 9063  16.578  12.689   2.637
43804W        W 9064  28.125   4.296  11.040
43805W        W 9065  18.145  26.130   0.492
43806W        W 9066   7.863  24.951   1.548
43807W        W 9067  16.580  21.708  13.848
43808W        W 9068  29.765  43.400   1.314
43809W        W 9069  11.640   2.358  12.613
43810W        W 9070  23.542   6.462   3.204
43811W        W 9071  33.449   8.476  11.606
43812W        W 9072  37.911   4.412  14.758
43813W        W 9073  19.064  27.882   3.849
43814W        W 9074   8.490  43.466   2.874
43815W        W 9075  36.566  35.020   4.239
43816W        W 9076  43.503  43.923  12.749
43817W        W 9077  38.514   4.698   0.264
43818W        W 9078  27.182  41.258  13.573
43819W        W 9079  16.093   0.637   3.961
43820W        W 9080  12.795  39.599  12.903
43821W        W 9081  21.677  22.232   4.494
43822W        W 9082   8.197  20.488  14.807
43823W        W 9083  15.631   2.602  13.620
43824W        W 9084  44.888   5.751   1.305
43825W        W 9085   3.046   0.345   4.059
43826W        W 9086   2.260  32.429  11.943
43827W        W 9087  20.717   7.665   2.620
43828W        W 9088   4.511  32.156  11.817
43829W        W 9089  22.693  35.524  12.304
43830W        W 9090  38.308  19.569   0.335
43831W        W 9091  36.009   6.455   1.357
43832W        W 9092   5.550   2.360  11.586
43833W        W 9093  22.377  16.880  14.753
43834W        W 9094  40.747  15.602   9.460
43835W        W 9095  36.844   8.149   1.250
43836W        W 9096  24.988  28.057   0.914
43837W        W 9097  13.807   2.211  12.958
43838W        W 9098  23.821  38.046   0.921
43839W        W 9099   1.059   8.438  12.087
43840W        W 9100  18.854  33.456   0.944
43841W        W 9101  14.946  40.708   0.002
43842W        W 9102  14.877   5.967   4.548
43843W        W 9103  26.416  12.284  11.017
43844W        W 9104   9.784  36.598  11.165
43845W        W 9105   5.652   7.187   2.550
43846W        W 9106  24.684  29.933  11.971
43847W        W 9107  43.351  42.804   0.767
43848W        W 9108  16.288  16.572  13.594
43849W        W 9109   9.295  42.076   4.069
43850W        W 9110  16.882   9.746   3.741
43851W        W 9111  26.083  15.119   1.191
43852W        W 9112   4.722  19.456   3.374
43853W        W 9113  17.223   1.821   3.109
43854W        W 9114  43.294  38.078  10.517
43855W        W 9115  41.189  12.693  11.670
43856W        W 9116   3.260  24.762  14.457
43857W        W 9117  31.688  41.778  12.534
43858W        W 9118  40.187  42.490  13.520
43859W        W 9119  23.465  28.069   3.585
43860W        W 9120  23.196  37.014  11.879
43861W        W 9121  38.285  26.682  11.182
43862W        W 9122  24.173  29.787   4.118
43863W        W 9123  21.443   1.866  12.279
43864W        W 9124  33.016  16.343   3.883
43865W        W 9125  39.817   9.867   2.724
43866W        W 9126  14.067  33.953   0.883
43867W        W 9127  42.932   7.397   4.550
43868W        W 9128  38.843  21.002  14.747
43869W        W 9129   7.138  11.731  12.909
43870W        W 9130   9.535  13.686  13.911
43871W        W 9131   9.342   4.750   4.256
43872W        W 9132  43.102  17.558   4.390
43873W        W 9133  16.204   4.899   4.595
43874W        W 9134  40.588  24.619   3.325
43875W        W 9135  41.761   1.296  11.894
43876W        W 9136  33.008  11.975   4.231
43877W        W 9137  22.650  32.155   0.734
43878W        W 9138   1.817  10.099  12.537
43879W        W 9139  13.195  18.164   3.260
43880W        W 9140   4.387  22.277  12.457
43881W        W 9141  41.374  20.564  13.966
43882W        W 9142  27.590   5.874   1.685
43883W        W 9143   8.346  39.099   3.591
43884W        W 9144  37.484  14.113  12.619
43885W        W 9145  38.283  31.732   4.675
43886W        W 9146  43.425  31.651   3.349
43887W        W 9147   2.163   1.429   0.277
43888W        W 9148  16.085   3.749  12.358
43889W        W 9149  34.351  28.330   2.195
43890W        W 9150  14.358  12.215   3.412
43891W        W 9151   6.967  34.006  14.610
43892W        W 9152  32.021  32.899   3.183
43893W        W 9153  10.175  13.623  12.940
43894W        W 9154  35.457  43.928  14.126
43895W        W 9155  36.491  13.238  13.184
43896W        W 9156  44.785  14.429  10.162
43897W        W 9157   2.336   0.202   1.365
43898W        W 9158  32.882   0.607   5.003
43899W        W 9159  39.388  14.501  11.165
43900W        W 9160  17.516  33.052   4.575
43901W        W 9161  36.414  19.811  12.842
43902W        W 9162  30.632  19.311   2.424
43903W        W 9163  32.996  29.633   4.637
43904W        W 9164  10.453  29.113  13.013
43905W        W 9165   1.342  10.386   4.720
43906W        W 9166  14.531   4.224  14.007
43907W        W 9167  18.566  26.971  11.660
43908W        W 9168  37.017  39.966   4.716
43909W        W 9169   4.410  36.422   0.407
43910W        W 9170  28.235  24.394  13.498
43911W        W 9171  16.660  37.664   2.424
43912W        W 9172  31.396   0.532  14.234
43913W        W 9173  19.964   6.021  14.916
43914W        W 9174  39.533   9.310  11.178
43915W        W 9175   4.923   9.606  11.236
43916W        W 9176  28.673  37.869   3.131
43917W        W 9177  38.132   8.939   2.305
43918W        W 9178  31.827  38.494  12.281
43919W        W 9179  15.264   6.471   4.036
43920W        W 9180   1.829   1.890  12.985
43921W        W 9181  42.320  22.575   3.125
43922W        W 9182  42.102   5.390  11.562
43923W        W 9183  17.398  40.380  14.776
43924W        W 9184   2.336  22.519  13.347
43925W        W 9185  39.588  24.901   3.377
43926W        W 9186  17.988  30.009   0.409
43927W        W 9187  17.589  10.850   0.801
43928W        W 9188  23.238  11.301   1.186
43929W        W 9189  44.865  13.708   5.403
43930W        W 9190  19.262  25.629   4.170
43931W        W 9191  37.404   3.786  14.973
43932W        W 9192  17.132   9.266   2.335
43933W        W 9193  38.845  26.121  11.521
43934W        W 9194  13.072  14.214   4.133
43935W        W 9195   3.503  29.439  11.540
43936W        W 9196  31.534  41.581  14.392
43937W        W 9197  37.082  21.583   1.677
43938W        W 9198  36.091  13.641   0.331
43939W        W 9199   6.278  11.718  10.166
43940W        W 9200  16.162  11.248   0.254
43941W        W 9201  18.573   9.711  10.725
43942W        W 9202  24.923  15.276  12.427
43943W        W 9203  27.096  35.974   1.376
43944W        W 9204  11.154  23.591  10.988
43945W        W 9205  38.551  23.678   2.615
43946W        W 9206   4.190  29.873  11.153
43947W        W 9207  12.041  40.284  11.130
43948W        W 9208  42.069  29.942  12.106
43949W        W 9209  29.993  12.203  10.758
43950W        W 9210  39.469  15.308  13.275
43951W        W 9211  12.434   5.610   4.025
43952W        W 9212  43.079  37.721   4.044
43953W        W 9213   0.035  36.541   3.295
43954W        W 9214  39.992  27.612   0.801
43955W        W 9215  33.159  41.595   2.242
43956W        W 9216  13.935  42.041  13.344
43957W        W 9217  21.589  44.616  14.041
43958W        W 9218   4.181  29.686   2.716
43959W        W 9219  27.414  29.969  12.359
43960W        W 9220  28.203  31.914   9.868
43961W        W 9221  27.613   9.650   2.912
43962W        W 9222  42.004  40.748  14.911
43963W        W 9223  12.641  29.250  10.976
43964W        W 9224  36.820  28.014  12.140
43965W        W 9225  21.142  40.408  14.505
43966W        W 9226  33.017  42.638   2.355
43967W        W 9227  31.562  18.274  14.529
43968W        W 9228  11.288  42.486  10.363
43969W        W 9229  18.886  28.065   3.417
43970W        W 9230  32.954   6.453  12.816
43971W        W 9231  38.651  31.375   3.980
43972W        W 9232  16.585  16.730   2.467
43973W        W 9233  10.683  40.723  11.157
43974W        W 9234  27.598  15.991  11.361
43975W        W 9235  32.088  32.401  11.630
43976W        W 9236  44.425  26.663   2.851
43977W        W 9237  26.290  37.856   2.626
43978W        W 9238  31.647  23.041   2.307
43979W        W 9239  18.914  42.503   3.415
43980W        W 9240  40.085  32.418   2.720
43981W        W 9241   4.466  14.469  14.679
43982W        W 9242  37.429  34.869   1.269
43983W        W 9243  35.847   0.268  12.530
43984W        W 9244  36.903  24.408   2.429
43985W        W 9245  42.874  13.262  12.637
43986W        W 9246  17.475  26.646   0.447
43987W        W 9247  42.844  30.114   0.728
43988W        W 9248  13.379  32.064  14.536
43989W        W 9249   9.562  39.823   2.755
43990W        W 9250  40.018  39.323  11.135
43991W        W 9251  34.981  20.619   0.083
43992W        W 9252  26.111  35.078  13.882
43993W        W 9253  17.023   1.467  11.881
43994W        W 9254  32.097  11.258  12.591
43995W        W 9255  16.828   3.807  12.029
43996W        W 9256  16.304  14.776   1.481
43997W        W 9257  37.338  25.217  11.904
43998W        W 9258   3.842  24.932  12.157
43999W        W 9259  22.047  28.248   1.909
44000W        W 9260  13.147  36.475  13.631
44001W        W 9261   4.689  10.910  14.301
44002W        W 9262  11.963  35.061   0.794
44003W        W 9263   3.694  24.428   4.290
44004W        W 9264  23.031  44.043   3.805
44005W        W 9265   4.739  18.966  13.156
44006W        W 9266  42.389  37.341   1.851
44007W        W 9267  19.618  34.857  11.643
44008W        W 9268  38.024  32.027   3.787
44009W        W 9269  13.477   6.355  13.359
44010W        W 9270   6.991  22.198   1.796
44011W        W 9271  31.961  43.797   2.174
44012W        W 9272  29.347   5.184   4.704
44013W        W 9273   4.036  27.649   2.289
44014W        W 9274  23.343   2.771   3.727
44015W        W 9275  34.682   0.428  12.974
44016W        W 9276  22.781  43.790   4.167
44017W        W 9277   4.146   9.629   2.189
44018W        W 9278   1.008  42.917  11.950
44019W        W 9279  16.389  18.216   0.944
44020W        W 9280  20.542  43.044  12.087
44021W        W 9281  40.371  33.110   2.128
44022W        W 9282  23.632  34.315   1.269
44023W        W 9283  37.600  35.343   3.765
44024W        W 9284  35.424   7.341  12.827
44025W        W 9285  13.296  22.760   0.300
44026W        W 9286  21.271  38.259  14.763
44027W        W 9287  18.602  23.262  13.882
44028W        W 9288  20.012   3.120   2.141
44029W        W 9289  43.155  27.018   2.832
44030W        W 9290  31.224  20.115   2.269
44031W        W 9291   5.732   1.949  11.852
44032W        W 9292  26.482  30.946   3.850
44033W        W 9293  10.605   3.867   4.632
44034W        W 9294  20.726  34.560  12.842
44035W        W 9295  23.094  12.907  13.903
44036W        W 9296  40.977  26.211  13.946
44037W        W 9297  16.214  44.099  12.845
44038W        W 9298  38.055  12.846   3.255
44039W        W 9299  17.160  11.776   0.211
44040W        W 9300   8.834  20.733   3.729
44041W        W 9301  24.203  35.658   0.352
44042W        W 9302  11.436  42.552  12.072
44043W        W 9303  19.785  33.399  14.552
44044W        W 9304  11.074  17.600   4.033
44045W        W 9305  29.849  29.048   4.671
44046W        W 9306   4.821  29.945  14.726
44047W        W 9307  26.634  44.213   2.796
44048W        W 9308  39.870  27.561  13.683
44049W        W 9309  37.617  36.858  12.258
44050W        W 9310  11.851  18.610  12.882
44051W        W 9311  37.524  29.801   1.387
44052W        W 9312  34.459   6.752   3.153
44053W        W 9313  35.465  25.066   3.831
44054W        W 9314  27.879  12.659  12.074
44055W        W 9315  20.650  15.034   0.434
44056W        W 9316  35.863  12.356  11.191
44057W        W 9317  20.582   2.875   1.014
44058W        W 9318  35.568  19.993   3.164
44059W        W 9319  16.181   5.142   1.348
44060W        W 9320  29.677  11.370  12.816
44061W        W 9321  29.846  41.945   3.312
44062W        W 9322  14.257  33.874   2.913
44063W        W 9323  29.670  18.700   3.195
44064W        W 9324  42.575  25.577  13.414
44065W        W 9325  41.517  17.112  11.633
44066W        W 9326  43.031  34.454  12.043
44067W        W 9327  18.098  39.548  11.753
44068W        W 9328  24.248  32.981  14.857
44069W        W 9329  39.014  19.294  14.020
44070W        W 9330   0.973  30.260   1.731
44071W        W 9331  28.103  20.868  11.022
44072W        W 9332  38.450  11.193   4.624
44073W        W 9333  37.339   4.618  12.029
44074W        W 9334  35.140  15.614  12.842
44075W        W 9335  25.031  33.062   1.480
44076W        W 9336  36.692  36.918  13.145
44077W        W 9337  17.097  36.309  14.726
44078W        W 9338   7.065  24.628  12.398
44079W        W 9339  33.186   6.652   3.733
44080W        W 9340  21.824  12.628  11.546
44081W        W 9341  39.668  34.601  11.603
44082W        W 9342  39.014  41.483  12.983
44083W        W 9343  21.117  24.706  13.484
44084W        W 9344  31.417   9.425   1.352
44085W        W 9345  43.461   5.387  14.023
44086W        W 9346  17.277  13.499   3.865
44087W        W 9347  18.140  30.742   3.157
44088W        W 9348  20.426  34.010  14.484
44089W        W 9349   5.184  38.439  11.543
44090W        W 9350  13.415  40.336  10.111
44091W        W 9351  25.939   4.831  14.822
44092W        W 9352  36.788   9.164  10.877
44093W        W 9353  12.015  29.054   4.202
44094W        W 9354  27.523  19.151   1.481
44095W        W 9355  44.853  40.103  14.931
44096W        W 9356  43.248  23.693   3.349
44097W        W 9357  23.645  32.598   3.424
44098W        W 9358  13.704  44.473   0.930
44099W        W 9359  41.752  28.588   3.249
44100W        W 9360  19.023  17.764  11.605
44101W        W 9361  21.491   4.178  14.853
44102W        W 9362   4.357  18.705   0.325
44103W        W 9363  43.756  32.468   0.193
44104W        W 9364  12.198  25.433  14.461
44105W        W 9365  32.916   3.009   4.281
44106W        W 9366  23.748  33.384   1.465
44107W        W 9367  25.518  15.197  12.482
44108W        W 9368  20.956  40.546   2.636
44109W        W 9369  26.210  19.223  13.069
44110W        W 9370   2.271  20.085  12.912
44111W        W 9371  43.178  38.430   3.454
44112W        W 9372  38.150  17.976   1.380
44113W        W 9373  12.198  14.590   4.545
44114W        W 9374  26.451  33.671   2.033
44115W        W 9375  18.077  35.905  13.920
44116W        W 9376  35.139  12.563  11.576
44117W        W 9377   0.459   6.091   4.225
44118W        W 9378   0.080  37.088   1.846
44119W        W 9379   2.797  26.286  11.203
44120W        W 9380   1.471  34.656   1.691
44121W        W 9381  13.717  41.524  14.316
44122W        W 9382  41.503   4.846   3.610
44123W        W 9383  18.152  43.711  14.333
44124W        W 9384  43.825  21.185   9.966
44125W        W 9385  34.542   8.657   1.335
44126W        W 9386   9.576  13.113  12.139
44127W        W 9387   2.899   0.034   2.752
44128W        W 9388   5.613  33.062  12.045
44129W        W 9389  22.805  29.951  12.548
44130W        W 9390   1.505  14.689  14.339
44131W        W 9391  33.976  12.211   4.329
44132W        W 9392  13.853  39.441  14.234
44133W        W 9393   7.178  37.963   3.631
44134W        W 9394  23.544  17.693   3.098
44135W        W 9395  39.989  43.923   4.292
44136W        W 9396  41.605  17.727   2.647
44137W        W 9397  23.899  11.132  13.913
44138W        W 9398  17.757  11.286   4.855
44139W        W 9399  43.924  37.183  12.481
44140W        W 9400  33.134   5.139  10.578
44141W        W 9401  39.492  35.452  10.612
44142W        W 9402  19.193   0.246   0.269
44143W        W 9403  34.863   0.828   3.183
44144W        W 9404  20.210  19.693  12.907
44145W        W 9405  42.435   2.999   2.230
44146W        W 9406  27.084  37.026  10.573
44147W        W 9407  36.395  24.521  14.283
44148W        W 9408  38.860  41.130  10.238
44149W        W 9409  33.401  43.828   0.201
44150W        W 9410  42.743  30.083   2.729
44151W        W 9411  21.141  39.786  13.323
44152W        W 9412  17.779  26.144  11.621
44153W        W 9413   7.590  20.350  13.001
44154W        W 9414  11.955  21.955  11.578
44155W        W 9415  28.421  13.927  14.290
44156W        W 9416  30.375  44.858   3.294
44157W        W 9417  22.915   9.230   5.836
44158W        W 9418  36.113   3.771   1.234
44159W        W 9419  18.725  36.594   2.653
44160W        W 9420   3.345  31.423   3.432
44161W        W 9421  18.506   8.229   0.730
44162W        W 9422  33.456  37.591  10.940
44163W        W 9423  25.561  24.635  13.926
44164W        W 9424  34.020   4.524   0.642
44165W        W 9425  37.017   2.389  13.109
44166W        W 9426   1.567  34.374   4.290
44167W        W 9427  29.342  44.132   5.137
44168W        W 9428  42.087  34.385   0.834
44169W        W 9429  40.071  10.775   3.124
44170W        W 9430   3.212  16.221  14.916
44171W        W 9431  44.473  28.211   0.424
44172W        W 9432  22.804  19.631  11.602
44173W        W 9433  40.955  12.938  14.938
44174W        W 9434  31.399   1.787   1.709
44175W        W 9435  32.821  25.525  14.240
44176W        W 9436  41.993  41.311  13.700
44177W        W 9437  19.586  35.497  13.803
44178W        W 9438   2.962   1.101   0.770
44179W        W 9439  33.206  20.559  13.376
44180W        W 9440   1.054  23.450   4.960
44181W        W 9441  29.963  44.218   3.721
44182W        W 9442  33.358   5.334   0.703
44183W        W 9443  19.500  10.608  13.359
44184W        W 9444  38.893  41.201   1.602
44185W        W 9445   3.340   4.972  11.949
44186W        W 9446  25.524  11.624   3.422
44187W        W 9447  30.059   7.275  13.375
44188W        W 9448  14.665  14.895   0.185
44189W        W 9449   6.417  28.465   2.750
44190W        W 9450  21.341   8.255   3.876
44191W        W 9451  10.064   8.348   4.975
44192W        W 9452  44.844  27.615   4.120
44193W        W 9453  42.431  32.429   3.083
44194W        W 9454  44.935   0.920   4.906
44195W        W 9455  12.673  16.199   1.286
44196W        W 9456  27.394   9.217  11.594
44197W        W 9457  33.111  19.841  14.741
44198W        W 9458  11.405  26.089   1.692
44199W        W 9459  31.533  35.051  12.015
44200W        W 9460   4.825  19.054   1.300
44201W        W 9461  19.655  18.323   4.572
44202W        W 9462  34.700  37.690  11.318
44203W        W 9463   8.316  35.212   3.727
44204W        W 9464  36.828  10.217  10.660
44205W        W 9465   5.657  39.829   2.180
44206W        W 9466   9.270   5.700  10.618
44207W        W 9467  19.901  39.513  11.591
44208W        W 9468   5.459  27.181  12.932
44209W        W 9469  10.368   0.202  11.586
44210W        W 9470   7.416  40.581   0.300
44211W        W 9471  42.017  18.643   3.111
44212W        W 9472  32.397  21.632  12.253
44213W        W 9473  16.276  31.824  12.324
44214W        W 9474   1.814  40.382   1.307
44215W        W 9475  38.050  18.030  14.777
44216W        W 9476   9.162  22.256  13.043
44217W        W 9477  34.479  41.591  12.540
44218W        W 9478  32.472  42.491   2.885
44219W        W 9479  44.412  27.726  12.282
44220W        W 9480  42.182  11.482   9.824
44221W        W 9481  14.424  40.963   4.716
44222W        W 9482   0.438  19.647   2.185
44223W        W 9483   2.418  39.431  11.487
44224W        W 9484  23.640  34.397   4.649
44225W        W 9485  10.144  44.904   1.523
44226W        W 9486  22.632  23.895  12.422
44227W        W 9487  18.537  42.569   2.522
44228W        W 9488  20.488  35.287   1.103
44229W        W 9489   4.925  38.057  14.167
44230W        W 9490  10.209  32.096  13.952
44231W        W 9491   2.526  29.001   4.470
44232W        W 9492  10.291  40.586   0.417
44233W        W 9493  11.693  14.866  11.015
44234W        W 9494  18.069   2.832  12.086
44235W        W 9495   9.417  35.993   2.275
44236W        W 9496   6.795  37.465  10.677
44237W        W 9497  16.390  38.425  13.842
44238W        W 9498  11.662  22.074  13.336
44239W        W 9499  37.877  28.420   2.258
44240W        W 9500  41.025  23.987   1.729
44241W        W 9501  15.250  40.127   4.110
44242W        W 9502  39.708  17.125  12.967
44243W        W 9503  28.403  26.135  13.517
44244W        W 9504  14.749  12.797   5.096
44245W        W 9505  35.098  33.371   5.058
44246W        W 9506  24.245  19.189  13.978
44247W        W 9507   0.928  30.608   4.873
44248W        W 9508  37.018  24.177  11.235
44249W        W 9509   2.891  41.483   1.918
44250W        W 9510  10.636  30.621   4.724
44251W        W 9511  35.658  17.260   4.193
44252W        W 9512  11.079  14.269   0.022
44253W        W 9513  25.725  11.111   2.726
44254W        W 9514  26.807  29.461   3.636
44255W        W 9515   8.486  15.253  10.715
44256W        W 9516  42.990  44.359  10.942
44257W        W 9517   5.696  41.452   3.279
44258W        W 9518  24.557  13.544  13.771
44259W        W 9519  42.772  39.858  12.370
44260W        W 9520  40.426  42.757   1.491
44261W        W 9521  42.222  40.939   3.771
44262W        W 9522  18.691  32.664  11.061
44263W        W 9523  17.161  34.940   0.804
44264W        W 9524  15.170  43.979   4.439
44265W        W 9525   2.779  27.085   4.045
44266W        W 9526   1.296   9.954  14.390
44267W        W 9527  17.567  26.551   3.878
44268W        W 9528   2.904  11.175   4.605
44269W        W 9529  37.988  24.771   0.295
44270W        W 9530  38.497  40.472   1.173
44271W        W 9531  32.941  28.406   3.766
44272W        W 9532  12.815  14.223   5.059
44273W        W 9533  19.542  38.307  11.057
44274W        W 9534  22.068  20.613   1.671
44275W        W 9535  30.545   7.810   0.054
44276W        W 9536  43.292   4.215   1.237
44277W        W 9537  26.670  22.120   5.101
44278W        W 9538  31.656  34.443  14.016
44279W        W 9539  20.003  35.141   0.915
44280W        W 9540  42.751  31.372   2.284
44281W        W 9541  16.692  29.536  13.373
44282W        W 9542   2.170   5.378   2.838
44283W        W 9543  29.753  35.948   3.214
44284W        W 9544   5.744  42.411  13.927
44285W        W 9545  37.611   9.278   2.437
44286W        W 9546   4.353  24.815  12.423
44287W        W 9547  17.261  39.568  10.697
44288W        W 9548  34.832  19.151  12.524
44289W        W 9549  38.079   0.116  12.306
44290W        W 9550   7.875   3.264   5.062
44291W        W 9551  37.612  21.984  11.634
44292W        W 9552  12.291   7.763   3.196
44293W        W 9553  36.746   9.797  13.046
44294W        W 9554  31.977  32.436   0.692
44295W        W 9555   0.334  30.946  14.854
44296W        W 9556  29.013   5.035  14.939
44297W        W 9557   5.920  24.676  14.832
44298W        W 9558  36.730  18.096   1.166
44299W        W 9559   9.840  17.696   3.125
44300W        W 9560   6.248   2.536   1.307
44301W        W 9561  25.416   5.762  12.572
44302W        W 9562  31.163  38.471  11.035
44303W        W 9563   6.495  25.713   4.736
44304W        W 9564  40.523  29.194  12.484
44305W        W 9565  24.978  15.640   4.711
44306W        W 9566  24.099  17.128   4.162
44307W        W 9567  41.553  19.083  13.072
44308W        W 9568  18.277  33.476  11.077
44309W        W 9569  25.080  29.509   0.553
44310W        W 9570  22.663  28.520   3.160
44311W        W 9571  43.977  21.876   3.597
44312W        W 9572   9.719  19.694   1.789
44313W        W 9573  19.202  25.300   1.831
44314W        W 9574   7.317  42.072   3.970
44315W        W 9575  12.312  29.566   1.942
44316W        W 9576  38.810  22.215   4.433
44317W        W 9577   3.427   6.832  13.056
44318W        W 9578  29.645  41.459  11.009
44319W        W 9579   1.535  37.878   4.203
44320W        W 9580  36.301   8.706   1.643
44321W        W 9581  37.087  34.635   3.462
44322W        W 9582  25.110  38.940  12.121
44323W        W 9583   5.166   8.341  11.677
44324W        W 9584  20.331  32.525   1.877
44325W        W 9585  43.747  23.734  14.500
44326W        W 9586  44.364   2.396   2.376
44327W        W 9587  34.802  42.923   2.168
44328W        W 9588   0.718  40.912   4.619
44329W        W 9589   0.775  40.825   0.509
44330W        W 9590  41.833  43.313   2.212
44331W        W 9591  25.930  19.110  12.365
44332W        W 9592   1.033  20.739   1.701
44333W        W 9593   4.321  41.981   0.877
44334W        W 9594   3.519  12.575  12.471
44335W        W 9595  29.586  37.811   1.893
44336W        W 9596   4.445   0.263   4.121
44337W        W 9597  42.336   7.273   2.261
44338W        W 9598  27.967  38.001   1.737
44339W        W 9599  10.264  29.739  10.482
44340W        W 9600  37.090  11.938  12.046
44341W        W 9601  26.912  41.803  11.581
44342W        W 9602  42.112  11.629   0.022
44343W        W 9603  24.125  41.579  14.254
44344W        W 9604   5.272  30.396   4.850
44345W        W 9605  38.119   5.171   2.065
44346W        W 9606   0.410  33.565  13.945
44347W        W 9607  28.829  23.594  14.326
44348W        W 9608  41.518  34.983  12.499
44349W        W 9609  12.666  16.753   1.840
44350W        W 9610  32.073  11.613  11.828
44351W        W 9611  21.646  18.483   1.352
44352W        W 9612  29.888  21.666   0.460
44353W        W 9613  39.811  32.339   2.294
44354W        W 9614  16.441  38.389   3.128
44355W        W 9615  37.104  24.684   4.148
44356W        W 9616  14.562  42.378   2.717
44357W        W 9617  11.308  23.596  14.910
44358W        W 9618  13.093   8.620  14.334
44359W        W 9619  16.909  27.672  12.380
44360W        W 9620   1.168  15.045   3.590
44361W        W 9621  17.832   6.820   0.049
44362W        W 9622  41.090  23.142   0.846
44363W        W 9623  12.253  27.081  14.436
44364W        W 9624   6.457   7.834   4.498
44365W        W 9625  37.068   9.727  14.338
44366W        W 9626   9.280  37.280   2.685
44367W        W 9627   2.360  37.385   3.708
44368W        W 9628  20.066  24.165   0.012
44369W        W 9629  28.262  39.864  12.424
44370W        W 9630  39.506  30.549  12.856
44371W        W 9631  10.255  34.930   5.002
44372W        W 9632  11.331  18.511  12.852
44373W        W 9633  21.132  43.370  12.575
44374W        W 9634   3.713  12.797  12.041
44375W        W 9635   8.901  44.722  13.961
44376W        W 9636  15.729  42.799  13.262
44377W        W 9637  41.013  37.541  13.410
44378W        W 9638  44.336  22.440  14.062
44379W        W 9639  44.305  29.048   3.581
44380W        W 9640  17.697  35.979  10.428
44381W        W 9641  18.696  39.955  14.703
44382W        W 9642  17.827  35.952   3.296
44383W        W 9643  20.579  30.876   0.073
44384W        W 9644  32.427  32.097  11.049
44385W        W 9645   6.472  20.975  12.445
44386W        W 9646  30.458  16.856  11.546
44387W        W 9647  44.976  36.438  10.949
44388W        W 9648  27.357  27.190   2.788
44389W        W 9649  23.495  19.372  11.232
44390W        W 9650  18.684   9.015  11.967
44391W        W 9651   6.465  32.741   2.203
44392W        W 9652   1.688  31.040  11.964
44393W        W 9653  43.810  28.176   4.618
44394W        W 9654  38.095  32.621  14.527
44395W        W 9655  36.484  32.135   5.064
44396W        W 9656  22.520  12.611   1.649
44397W        W 9657  43.520  29.975  13.513
44398W        W 9658  11.732  18.964  13.763
44399W        W 9659  22.066  22.807   1.427
44400W        W 9660  44.947   6.410  10.949
44401W        W 9661  44.424   2.422  14.392
44402W        W 9662  32.567  39.301  14.295
44403W        W 9663  14.342  21.306  13.477
44404W        W 9664  33.006   7.294  14.783
44405W        W 9665   9.290   2.462  14.243
44406W        W 9666  33.483  44.536  13.286
44407W        W 9667   2.679   4.876  11.626
44408W        W 9668  42.519   4.639  12.985
44409W        W 9669  25.975  29.369   4.710
44410W        W 9670  16.607  37.913  14.009
44411W        W 9671  12.215   6.139   3.577
44412W        W 9672  30.244  26.264  11.650
44413W        W 9673  41.783   0.905   4.111
44414W        W 9674  11.736   7.656   2.664
44415W        W 9675  23.115  15.959  12.036
44416W        W 9676  17.177  29.112   1.648
44417W        W 9677  30.930  42.691  13.960
44418W        W 9678  33.094  43.537   1.135
44419W        W 9679  27.966  42.416  13.774
44420W        W 9680  15.185   0.440   2.293
44421W        W 9681  44.580  22.913   2.428
44422W        W 9682  10.587  11.291   2.686
44423W        W 9683  40.352  23.156  14.765
44424W        W 9684  10.877  25.608  14.841
44425W        W 9685  22.182  37.891   2.401
44426W        W 9686  14.167   4.346  12.211
44427W        W 9687  42.341  23.650  14.573
44428W        W 9688  10.559  37.013   4.579
44429W        W 9689  32.881  20.574  14.035
44430W        W 9690  37.883   1.146   2.131
44431W        W 9691  23.196  34.906   9.818
44432W        W 9692  12.304  43.274   2.778
44433W        W 9693  33.473  33.351  14.363
44434W        W 9694  35.803   9.273  14.414
44435W        W 9695  36.099  38.850   2.606
44436W        W 9696  32.534  20.558  11.584
44437W        W 9697  16.219  40.470   2.886
44438W        W 9698   1.373  37.409   2.446
44439W        W 9699  36.353  35.582  13.105
44440W        W 9700  31.667  16.486   3.225
44441W        W 9701  26.212  14.806   0.663
44442W        W 9702  28.640  15.023   1.398
44443W        W 9703  37.504  30.438   1.210
44444W        W 9704  27.883   1.980  14.758
44445W        W 9705  27.774  28.972  13.941
44446W        W 9706  36.004  11.333   0.401
44447W        W 9707  41.860  14.461  11.968
44448W        W 9708  25.926  23.592   0.869
44449W        W 9709   9.594  39.808   4.447
44450W        W 9710  24.345  35.278  12.469
44451W        W 9711  36.048   2.298   2.365
44452W        W 9712  26.651  41.708  14.926
44453W        W 9713  11.214  31.568  12.051
44454W        W 9714  17.268  32.723   0.345
44455W        W 9715  37.004  44.378   0.994
44456W        W 9716  10.644   4.154   4.203
44457W        W 9717   5.681  41.845  13.392
44458W        W 9718   1.206  41.012   3.860
44459W        W 9719  10.886  19.241   1.384
44460W        W 9720  33.450  33.585   2.615
44461W        W 9721  35.462   5.615  13.721
44462W        W 9722  37.468  26.458   1.324
44463W        W 9723  14.223  20.963   4.633
44464W        W 9724   6.955  38.001   4.111
44465W        W 9725  44.572  23.653   2.885
44466W        W 9726  40.766  25.381  11.581
44467W        W 9727  30.500  10.623  14.400
44468W        W 9728  40.877  16.032   3.654
44469W        W 9729  25.863  20.942  12.499
44470W        W 9730  25.415  36.405   1.792
44471W        W 9731   9.657  12.406   0.711
44472W        W 9732   3.378   8.504  14.819
44473W        W 9733   5.225  22.090  14.868
44474W        W 9734  16.081  16.213   2.700
44475W        W 9735   2.881  28.717   3.251
44476W        W 9736  12.567   4.001   9.741
44477W        W 9737  37.263  14.838  10.962
44478W        W 9738  41.968  34.525  14.548
44479W        W 9739   8.320  43.472   0.243
44480W        W 9740   2.899  20.757  11.139
44481W        W 9741  14.166  24.271   0.890
44482W        W 9742  13.190  16.820   1.848
44483W        W 9743   4.369   9.823  14.496
44484W        W 9744  11.326  14.188   2.328
44485W        W 9745   4.253  43.710  14.524
44486W        W 9746  42.392  28.581  11.708
44487W        W 9747  35.449   1.062  12.389
44488W        W 9748  10.788  36.430  11.407
44489W        W 9749   9.784   8.160  14.196
44490W        W 9750  28.642  42.878  13.231
44491W        W 9751   1.200  33.124   3.853
44492W        W 9752  31.562  31.995  13.050
44493W        W 9753  19.571   1.733   2.373
44494W        W 9754   7.703  12.004   0.943
44495W        W 9755  24.744  23.942   2.298
44496W        W 9756   4.904  19.515  11.184
44497W        W 9757  22.507  18.201  10.197
44498W        W 9758  34.425  42.300   1.908
44499W        W 9759  30.818  44.824  12.850
44500W        W 9760  31.854  13.063  10.827
44501W        W 9761  20.607   0.003  13.820
44502W        W 9762   8.699   5.154  12.895
44503W        W 9763  27.926  16.993  12.848
44504W        W 9764  41.892   8.262  10.772
44505W        W 9765  41.632  16.802   0.827
44506W        W 9766  39.274   3.942  13.980
44507W        W 9767  33.942   4.934  11.143
44508W        W 9768   6.253  39.495  10.698
44509W        W 9769  43.888  43.352  10.628
44510W        W 9770  43.449  27.477  11.439
44511W        W 9771  14.348  42.399  10.815
44512W        W 9772  39.039  33.899   4.324
44513W        W 9773  38.359  41.941  13.510
44514W        W 9774   1.839   1.443   1.138
44515W        W 9775  22.659  43.293  14.439
44516W        W 9776  17.867   4.897  12.657
44517W        W 9777  26.227  24.021   0.853
44518W        W 9778  25.570  43.147   2.716
44519W        W 9779  23.234  24.160   2.101
44520W        W 9780   8.830  28.154   2.788
44521W        W 9781   1.761   3.023   1.762
44522W        W 9782  27.833   9.659   4.553
44523W        W 9783   5.212  39.136   0.823
44524W        W 9784  43.402  42.347   4.153
44525W        W 9785  42.371  42.438   4.982
44526W        W 9786   8.799  33.447   2.806
44527W        W 9787  16.167   5.514   0.413
44528W        W 9788  10.264  25.439   1.874
44529W        W 9789  18.463  19.096  12.412
44530W        W 9790  10.292  12.634  12.163
44531W        W 9791  42.937  39.019   4.586
44532W        W 9792  39.586  35.460   4.621
44533W        W 9793  27.661  34.482   0.380
44534W        W 9794  30.419  36.019   2.238
44535W        W 9795   4.821   8.159  14.685
44536W        W 9796  14.178  35.045  14.919
44537W        W 9797  12.853   2.295  14.546
44538W        W 9798  18.729  12.766  12.521
44539W        W 9799   2.724   8.803  13.909
44540W        W 9800  14.265  27.203  12.946
44541W        W 9801  18.219   5.259  11.529
44542W        W 9802  33.990  12.893   3.890
44543W        W 9803  31.090   4.118  11.957
44544W        W 9804  10.406  25.476   4.551
44545W        W 9805  44.700  44.393   3.014
44546W        W 9806  16.602  19.213  11.926
44547W        W 9807  43.781  22.138  13.063
44548W        W 9808  15.258  17.476  14.825
44549W        W 9809  11.667   7.218  10.338
44550W        W 9810  40.250  28.677   3.574
44551W        W 9811  34.815  31.476  12.902
44552W        W 9812  38.554  32.125  12.440
44553W        W 9813  33.275  42.921   5.223
44554W        W 9814  30.539  21.198  10.658
44555W        W 9815  17.166  22.063   2.143
44556W        W 9816  42.002  34.912   0.870
44557W        W 9817  39.529  28.911   3.151
44558W        W 9818  28.638  18.306  13.997
44559W        W 9819  41.880  26.888  14.842
44560W        W 9820  14.804  44.012  11.368
44561W        W 9821  43.491  30.951   3.639
44562W        W 9822  10.100   1.740  12.509
44563W        W 9823  30.243  14.733  10.751
44564W        W 9824   6.919  17.604   0.367
44565W        W 9825  13.545  21.526  13.380
44566W        W 9826  11.400  27.531   4.411
44567W        W 9827   7.200  43.858   2.720
44568W        W 9828  19.123  39.955  13.007
44569W        W 9829  25.255  31.477  14.417
44570W        W 9830  26.031  16.521  11.520
44571W        W 9831  40.251   4.715   1.758
44572W        W 9832  35.666  16.383   4.269
44573W        W 9833  25.175  39.462   2.635
44574W        W 9834   9.923  38.103  13.781
44575W        W 9835   5.368  35.081   0.068
44576W        W 9836  24.765  22.315  12.513
44577W        W 9837  21.171  38.658   9.830
44578W        W 9838  24.609   2.215   2.632
44579W        W 9839  33.033  39.868  14.999
44580W        W 9840  36.386  30.066   4.556
44581W        W 9841  38.900  20.306  11.444
44582W        W 9842  26.882  43.027  14.097
44583W        W 9843  27.623   8.523  12.830
44584W        W 9844  21.121  25.250  13.442
44585W        W 9845  37.834  16.736  13.877
44586W        W 9846   1.251  31.973  11.824
44587W        W 9847  40.915  26.449   3.779
44588W        W 9848  43.195  32.579  12.939
44589W        W 9849  24.965  27.474  12.480
44590W        W 9850  42.189  16.623   2.293
44591W        W 9851  38.771  33.922   4.807
44592W        W 9852  24.395   8.219  12.026
44593W        W 9853  35.668  22.538   3.601
44594W        W 9854  41.745   6.945   2.689
44595W        W 9855  27.293   6.805  13.729
44596W        W 9856  37.394   8.343   4.927
44597W        W 9857   9.422  29.470  11.713
44598W        W 9858   9.549  32.026  11.199
44599W        W 9859  38.474  30.600  12.909
44600W        W 9860  33.451  10.897   4.179
44601W        W 9861  43.722  31.574   0.315
44602W        W 9862  24.562  30.865  12.589
44603W        W 9863  14.797   3.225  12.064
44604W        W 9864  21.784  21.202  10.764
44605W        W 9865  40.846  28.227  11.078
44606W        W 9866   9.116  27.011  12.840
44607W        W 9867  35.507  40.319  10.270
44608W        W 9868  15.429  22.863   0.694
44609W        W 9869  38.424  37.823  12.173
44610W        W 9870  35.365  40.809   2.250
44611W        W 9871  43.961  11.233   1.785
44612W        W 9872  44.838  11.801  13.850
44613W        W 9873  13.873  21.587  14.348
44614W        W 9874  32.536  23.129   1.167
44615W        W 9875  37.616   3.850  13.628
44616W        W 9876  15.194  32.576  13.027
44617W        W 9877  37.067   2.249   1.380
44618W        W 9878  20.184  42.739  13.621
44619W        W 9879  16.435   2.284  14.013
44620W        W 9880  35.545  30.910   3.283
44621W        W 9881  28.691  22.651  11.663
44622W        W 9882  34.567  14.782  12.978
44623W        W 9883  29.104   8.195  13.399
44624W        W 9884   0.074  13.424   4.592
44625W        W 9885   0.294  38.945  14.235
44626W        W 9886  28.564  25.911   3.658
44627W        W 9887  43.298  14.800  11.987
44628W        W 9888  44.726  38.271   3.674
44629W        W 9889  17.088  10.163   4.119
44630W        W 9890  23.710  39.795   4.191
44631W        W 9891  23.625   2.184   5.087
44632W        W 9892   5.929  14.200  14.980
44633W        W 9893  25.938  43.496  11.098
44634W        W 9894  37.097  34.200   3.151
44635W        W 9895  11.506  23.173   0.148
44636W        W 9896  17.551   5.255   2.356
44637W        W 9897   3.324  40.176  10.089
44638W        W 9898  11.848   7.236  11.390
44639W        W 9899  21.711  41.491  14.404
44640W        W 9900   3.174  36.391   3.685
44641W        W 9901  26.447  19.161  10.731
44642W        W 9902  17.317  26.209  12.500
44643W        W 9903  18.609  36.800  13.848
44644W        W 9904   2.347  28.693  14.450
44645W        W 9905  28.010  38.313  10.768
44646W        W 9906  12.561  26.775   4.588
44647W        W 9907  34.409   9.798   2.731
44648W        W 9908  15.801  23.904  12.514
44649W        W 9909  15.379  31.656  14.494
44650W        W 9910   8.248   5.409   1.798
44651W        W 9911   5.817   1.324   0.551
44652W        W 9912  18.962  32.307  12.011
44653W        W 9913   0.501  33.432  12.165
44654W        W 9914  29.444  20.651  12.785
44655W        W 9915   0.064  44.325   0.811
44656W        W 9916  12.717  27.009  11.539
44657W        W 9917   3.174  12.569  12.857
44658W        W 9918  20.327  18.310   2.867
44659W        W 9919  30.558  30.933   3.690
44660W        W 9920  24.478   5.998   1.383
44661W        W 9921  35.907  35.598  12.091
44662W        W 9922  36.066  28.268   2.768
44663W        W 9923  38.977  31.997   0.064
44664W        W 9924   2.982   5.143   4.454
44665W        W 9925  43.896  12.303   0.264
44666W        W 9926   6.231  35.928  14.228
44667W        W 9927  29.100  41.964   4.363
44668W        W 9928  25.933  29.973  14.520
44669W        W 9929  23.506   2.425  11.122
44670W        W 9930   7.405   8.678  11.104
44671W        W 9931  34.629   9.930  11.925
44672W        W 9932  30.241  27.093  11.437
44673W        W 9933  21.548  14.150  11.592
44674W        W 9934  18.587  11.262   4.118
44675W        W 9935  39.856  40.907  12.078
44676W        W 9936  11.801  13.750   2.743
44677W        W 9937  36.915   6.360   2.967
44678W        W 9938   9.227  44.680   2.002
44679W        W 9939   9.954  25.397  11.482
44680W        W 9940  27.852   4.857  12.105
44681W        W 9941  28.472  15.022  13.824
44682W        W 9942  37.930  29.345  12.885
44683W        W 9943  10.505  41.807  12.937
44684W        W 9944   2.577  15.205  12.330
44685W        W 9945  10.735  44.230   4.445
44686W        W 9946  39.589  18.530   4.367
44687W        W 9947   2.517  13.706   0.379
44688W        W 9948   3.533  22.354   2.234
44689W        W 9949  41.830  27.292  10.390
44690W        W 9950   5.834  24.159  13.631
44691W        W 9951   3.371  30.683   4.651
44692W        W 9952  34.585  30.225   4.228
44693W        W 9953  42.798   4.784   1.778
44694W        W 9954  27.976  28.883  14.429
44695W        W 9955  35.012  43.397  11.867
44696W        W 9956  12.224   3.535  10.638
44697W        W 9957  31.919   5.289  12.643
44698W        W 9958   1.471  25.210   2.353
44699W        W 9959  44.750  30.997   2.845
44700W        W 9960   6.715  33.648  13.772
44701W        W 9961  10.820   7.288  12.581
44702W        W 9962  12.782  11.888  12.410
44703W        W 9963   7.191  21.526  14.925
44704W        W 9964   3.441   3.921  10.936
44705W        W 9965  27.539  29.185   4.101
44706W        W 9966   8.372  18.237   2.265
44707W        W 9967  25.461  25.869   2.239
44708W        W 9968   2.793  20.663  13.382
44709W        W 9969  30.407  40.966  10.666
44710W        W 9970  33.160   5.982   4.599
44711W        W 9971  13.681  22.211  12.089
44712W        W 9972  30.643  36.399   3.474
44713W        W 9973  44.786  30.415  13.791
44714W        W 9974  31.769  26.281   0.501
44715W        W 9975   2.495  37.330   2.793
44716W        W 9976  34.509  26.352   0.372
44717W        W 9977  15.677  36.423   4.953
44718W        W 9978  26.185  11.774   4.942
44719W        W 9979  15.009  23.579   4.571
44720W        W 9980  44.838  37.800   2.831
44721W        W 9981  21.207  27.738  13.063
44722W        W 9982  19.155  10.086   3.582
44723W        W 9983  14.394   6.881   3.034
44724W        W 9984   6.271  17.169  14.333
44725W        W 9985  28.904  43.344  12.096
44726W        W 9986  26.838  15.861  13.505
44727W        W 9987  44.724  15.127  13.815
44728W        W 9988  23.973   6.218  13.260
44729W        W 9989   7.139   7.026  11.377
44730W        W 9990  30.600   4.724   3.120
44731W        W 9991  35.871  10.902  12.433
44732W        W 9992  14.094  25.215   0.764
44733W        W 9993  11.522  34.070  10.510
44734W        W 9994  37.333   5.778   0.027
44735W        W 9995  18.732  42.028   3.285
44736W        W 9996  27.826   9.184   0.268
44737W        W 9997  13.040  25.912   3.266
44738W        W 9998  26.910  26.683   1.324
44739W        W 9999  44.368  42.394   4.298
44740W        W10000  34.952  43.910  14.017
44741W        W10001  38.973   4.649   3.353
44742W        W10002   8.969  39.885  12.582
44743W        W10003  24.135  42.416   4.704
44744W        W10004  36.058   9.302  12.921
44745W        W10005  29.157  23.235   4.093
44746W        W10006  16.570  22.463  12.926
44747W        W10007  25.590  16.764   3.356
44748W        W10008  23.160  32.815  13.150
44749W        W10009  40.022  26.876   3.871
44750W        W10010  42.617  44.137  11.640
44751W        W10011  15.272  17.246   0.426
44752W        W10012  31.457  12.550   1.801
44753W        W10013   2.730   7.347   1.030
44754W        W10014  28.062   1.439  14.379
44755W        W10015  29.214   8.232  12.463
44756W        W10016   2.830  11.717   0.854
44757W        W10017  30.734  16.513  14.463
44758W        W10018   0.019  20.500  13.905
44759W        W10019  13.263  35.820  11.583
44760W        W10020  39.244  37.442   2.715
44761W        W10021  36.871  24.196  10.723
44762W        W10022  36.208  12.784  10.528
44763W        W10023  21.218  41.824   2.306
44764W        W10024  18.530  29.927   4.547
44765W        W10025   1.640  34.956   0.871
44766W        W10026  11.912  34.840  11.537
44767W        W10027  43.429   7.788   0.240
44768W        W10028  40.290  30.667  14.310
44769W        W10029  24.494   5.678   1.797
44770W        W10030  17.067   6.961   3.326
44771W        W10031   4.232  38.008   1.928
44772W        W10032  31.513  33.867   1.885
44773W        W10033  21.752  27.972   4.542
44774W        W10034   2.776  22.549   4.647
44775W        W10035   3.274  36.097  11.197
44776W        W10036   7.888  39.376  14.116
44777W        W10037  43.112  14.336  12.901
44778W        W10038   2.957  21.783  11.126
44779W        W10039  14.663  18.726  12.904
44780W        W10040  26.081   6.591  14.363
44781W        W10041   8.224  43.734  12.510
44782W        W10042  10.953  36.430   1.550
44783W        W10043  14.714  24.746  11.056
44784W        W10044  14.295  19.286  10.993
44785W        W10045  21.230  28.414  14.511
44786W        W10046   7.246  13.662   1.928
44787W        W10047  36.637  21.362   1.865
44788W        W10048  37.896  19.335  12.427
44789W        W10049  30.160  38.694  13.912
44790W        W10050   0.326  12.881   1.727
44791W        W10051   0.261  12.184  13.980
44792W        W10052  31.647  26.625  12.874
44793W        W10053  32.988   1.034   4.097
44794W        W10054  37.486  41.060  11.708
44795W        W10055  44.460  11.831  11.273
44796W        W10056   9.983  24.127  12.025
44797W        W10057  39.913  24.112   3.875
44798W        W10058  30.778  44.285  12.820
44799W        W10059  21.964  22.082  12.970
44800W        W10060   5.754   0.916  12.108
44801W        W10061  30.919  19.211   4.641
44802W        W10062   6.613  43.616   1.899
44803W        W10063   2.805  39.817   2.377
44804W        W10064   7.465  35.238   0.713
44805W        W10065  38.324  18.219  13.892
44806W        W10066  32.550  19.384  10.323
44807W        W10067   6.322  32.949  14.004
44808W        W10068  25.564  11.219  13.076
44809W        W10069  40.491  35.795  11.979
44810W        W10070  21.437   4.296  13.096
44811W        W10071  17.781   4.089  13.574
44812W        W10072  37.777  31.634  14.532
44813W        W10073  29.019  10.617   3.329
44814W        W10074  28.620  18.195   0.775
44815W        W10075  33.877  14.357   5.043
44816W        W10076  13.638   6.778  13.013
44817W        W10077   2.444  43.841  14.400
44818W        W10078  12.128   3.262  11.581
44819W        W10079   7.690  10.589  14.299
44820W        W10080  21.258  10.008   0.923
44821W        W10081  12.878  19.209  11.433
44822W        W10082  44.829  34.981   3.483
44823W        W10083  38.431   1.677   1.138
44824W        W10084  40.003   9.311  11.445
44825W        W10085  22.166   8.375   2.677
44826W        W10086  17.805  11.383   1.755
44827W        W10087   3.386   3.637   0.984
44828W        W10088   1.219  29.218   2.637
44829W        W10089  29.211  27.102  12.963
44830W        W10090   5.732  30.649  13.055
44831W        W10091  14.615   1.696  12.467
44832W        W10092   1.713   1.230  10.984
44833W        W10093  35.422   7.614  11.500
44834W        W10094  26.501  41.968   3.220
44835W        W10095  24.750  39.778   4.156
44836W        W10096  29.294  14.296   4.938
44837W        W10097  27.690  18.568   2.323
44838W        W10098  10.683   3.886  10.939
44839W        W10099   0.932  30.235   0.959
44840W        W10100  17.290  29.614  11.064
44841W        W10101  15.167  18.162  13.100
44842W        W10102  29.388  16.509   3.373
44843W        W10103  15.327  40.003  14.033
44844W        W10104  43.821   2.932   2.429
44845W        W10105  23.619  11.867   4.563
44846W        W10106  39.282  11.764   1.811
44847W        W10107   0.433  12.813   1.231
44848W        W10108  19.991  16.336   1.483
44849W        W10109   1.200  44.355   0.406
44850W        W10110   4.667   2.351   3.612
44851W        W10111  33.594  23.725   4.074
44852W        W10112  24.271  16.306   4.086
44853W        W10113  11.637   9.809  10.738
44854W        W10114  26.617  41.168  11.069
44855W        W10115  38.289   5.172   0.284
44856W        W10116   0.665   1.916  13.948
44857W        W10117  19.679  23.529   1.658
44858W        W10118   7.151  22.792   2.591
44859W        W10119  42.644   3.968   2.149
44860W        W10120  13.411   7.814   3.277
44861W        W10121   0.805  44.834   2.418
44862W        W10122  42.701  30.494  11.545
44863W        W10123   5.966  16.671  14.994
44864W        W10124  18.873  12.114  14.916
44865W        W10125  19.078  12.019  11.539
44866W        W10126  38.508  26.095   3.617
44867W        W10127  39.861   7.786  12.559
44868W        W10128   9.792  22.985   3.718
44869W        W10129  32.949  39.093   2.397
44870W        W10130  10.132  19.715  12.981
44871W        W10131  14.013   1.429   4.846
44872W        W10132   3.286  18.327  10.733
44873W        W10133  20.938  32.165   1.879
44874W        W10134  19.126   4.759   3.357
44875W        W10135   3.839   4.329   0.692
44876W        W10136  21.027  33.581   2.811
44877W        W10137  29.100   0.691  13.081
44878W        W10138  25.925  15.170  14.815
44879W        W10139  39.782  37.599   2.937
44880W        W10140  22.887  30.310   4.535
44881W        W10141  24.612  22.284   9.739
44882W        W10142  23.801  35.000   4.054
44883W        W10143  36.440  25.410   3.807
44884W        W10144  26.709  11.287  12.490
44885W        W10145  29.329  41.935   0.071
44886W        W10146  34.505  10.204   4.559
44887W        W10147  12.335   3.419   3.190
44888W        W10148   6.766   1.106   0.076
44889W        W10149  39.914   1.291  10.698
44890W        W10150  36.430  11.204   1.292
44891W        W10151  12.048  38.384  14.612
44892W        W10152  19.825  10.289  13.063
44893W        W10153  41.763  43.852   0.990
44894W        W10154  31.420   6.666  11.609
44895W        W10155  35.512  26.678  10.568
44896W        W10156  42.527   6.816  11.629
44897W        W10157   4.874  44.482  14.669
44898W        W10158  36.542  42.915  13.036
44899W        W10159  32.074  44.752  14.407
44900W        W10160   8.925  35.454   3.241
44901W        W10161  43.034  14.686  12.426
44902W        W10162   7.842   0.271   2.255
44903W        W10163  18.613   6.229  11.892
44904W        W10164  28.443  29.534  11.669
44905W        W10165  31.349  36.499  11.233
44906W        W10166  10.354   2.034  12.102
44907W        W10167  36.518  44.501   4.529
44908W        W10168  17.697  18.222   4.963
44909W        W10169  18.103  21.696   3.738
44910W        W10170  39.917  34.682   4.075
44911W        W10171  28.598   9.153  10.804
44912W        W10172  30.387  35.150  13.049
44913W        W10173  40.582   1.741   2.848
44914W        W10174  17.716  28.786  10.940
44915W        W10175  17.472  44.908   2.309
44916W        W10176  27.955  32.132  13.967
44917W        W10177  24.312   6.207   3.653
44918W        W10178   2.717  31.115   0.879
44919W        W10179  44.043  14.560  11.780
44920W        W10180  20.311   0.850  14.702
44921W        W10181   7.500   4.814   0.189
44922W        W10182  28.989  38.557   2.817
44923W        W10183  28.529  38.447   1.006
44924W        W10184  37.810  12.200  12.613
44925W        W10185  26.967  23.037  11.876
44926W        W10186  44.988  22.272   1.336
44927W        W10187  33.866  40.788  13.606
44928W        W10188  41.443  43.213   0.292
44929W        W10189  43.503   4.355  10.728
44930W        W10190   7.716   9.712   4.945
44931W        W10191  41.304  23.146   1.328
44932W        W10192  44.942  24.294   0.966
44933W        W10193  35.131  25.667  12.905
44934W        W10194  12.654  12.312  13.854
44935W        W10195  30.057  40.560   0.452
44936W        W10196  33.193   5.176   1.355
44937W        W10197  44.258  35.328  14.415
44938W        W10198  19.906  19.473  13.289
44939W        W10199  31.398  19.478   3.706
44940W        W10200  16.483  17.640   9.642
44941W        W10201   2.463  18.651   1.465
44942W        W10202  12.172   5.258  12.758
44943W        W10203   6.832   3.857   2.383
44944W        W10204  26.491  37.476   1.323
44945W        W10205  12.178  35.430   2.593
44946W        W10206  21.046  33.995   1.216
44947W        W10207  14.373  31.178  10.730
44948W        W10208  37.793   3.317   0.357
44949W        W10209  18.022  26.066   2.417
44950W        W10210  11.376  25.174   2.458
44951W        W10211  35.956  33.416  11.665
44952W        W10212  27.066  15.984   2.898
44953W        W10213  10.946  30.350  11.319
44954W        W10214  27.632   4.604   3.617
44955W        W10215   0.253  23.941   1.857
44956W        W10216  24.555  43.859  10.221
44957W        W10217  39.847  27.094  13.346
44958W        W10218  29.166  36.219   2.721
44959W        W10219  26.446  32.274  13.207
44960W        W10220  14.814  41.716   2.119
44961W        W10221  25.448  26.022   0.493
44962W        W10222  23.971  10.313   0.081
44963W        W10223   7.359  39.594   4.200
44964W        W10224   8.233   5.457  12.029
44965W        W10225  25.938   0.483  11.501
44966W        W10226  12.073   0.177  13.131
44967W        W10227  27.393  44.801   0.751
44968W        W10228   3.218   4.818  10.452
44969W        W10229  18.481  22.008   1.824
44970W        W10230  19.784  39.611  13.970
44971W        W10231  27.139  39.377  14.835
44972W        W10232  15.035  41.358  11.470
44973W        W10233  20.991  34.066  13.561
44974W        W10234  43.249  13.779   4.237
44975W        W10235  15.338  24.080  12.415
44976W        W10236  37.354  22.263  14.851
44977W        W10237  30.593  27.974   2.747
44978W        W10238  34.404  21.977   3.786
44979W        W10239  37.791  37.403   4.719
44980W        W10240  29.628  43.855   3.099
44981W        W10241  13.553   1.718   1.968
44982W        W10242   2.080  15.468  11.159
44983W        W10243  26.274  10.759  11.217
44984W        W10244  29.076  12.608  13.731
44985W        W10245  39.907   3.495   4.139
44986W        W10246  31.039  19.788  12.433
44987W        W10247  27.344  22.136   1.069
44988W        W10248  43.147  17.641  14.500
44989W        W10249  16.092  19.675   3.665
44990W        W10250  13.750  24.712   4.641
44991W        W10251  34.589  29.162   4.239
44992W        W10252  36.670  36.385  14.132
44993W        W10253  30.923  31.358  13.307
44994W        W10254   5.674  26.614   3.176
44995W        W10255  12.196  38.369  14.130
44996W        W10256   0.039  24.504  13.523
44997W        W10257  21.491  26.888   1.329
44998W        W10258  17.227   0.257  10.710
44999W        W10259  22.809  12.776   4.100
45000W        W10260  11.720  41.503  10.114
45001W        W10261   4.944  44.976   4.191
45002W        W10262   9.401  16.090  13.320
45003W        W10263  18.162  14.166  13.861
45004W        W10264   7.212  13.057  13.938
45005W        W10265   3.677   4.247  12.806
45006W        W10266   7.568  42.250  12.382
45007W        W10267   0.549  22.075   3.346
45008W        W10268  39.510  10.416   2.047
45009W        W10269  31.383  20.873  14.001
45010W        W10270  13.618  34.947   4.771
45011W        W10271  34.054  36.919  14.908
45012W        W10272  43.869  18.965  13.761
45013W        W10273  38.871  16.792   2.640
45014W        W10274  43.012  14.023  14.917
45015W        W10275   9.507  28.882  12.931
45016W        W10276  14.675   0.653  13.230
45017W        W10277  39.911  39.381   0.282
45018W        W10278  18.053  24.698  10.434
45019W        W10279  28.329  27.438   3.583
45020W        W10280   8.329  44.766   3.759
45021W        W10281   7.236  41.949  13.310
45022W        W10282   9.404  39.320   2.739
45023W        W10283  16.034  27.576   1.323
45024W        W10284  19.102  24.970   3.240
45025W        W10285  27.680  34.604  12.984
45026W        W10286  42.385   5.150  11.957
45027W        W10287  35.469  17.257  12.077
45028W        W10288  36.165   0.439   2.228
45029W        W10289   6.698  21.129   2.542
45030W        W10290  40.784   5.983  13.973
45031W        W10291  34.694  38.122   0.995
45032W        W10292  29.549  44.396   1.116
45033W        W10293  40.319  24.045  12.513
45034W        W10294  22.506   7.298   2.218
45035W        W10295   6.960  34.738  12.366
45036W        W10296  20.041  40.414  13.472
45037W        W10297   8.074  25.506   2.280
45038W        W10298   0.596  35.907   4.619
45039W        W10299  30.536  30.138   2.516
45040W        W10300  35.211   2.729   1.327
45041W        W10301  31.227   9.628   0.882
45042W        W10302  24.704  21.278   0.809
45043W        W10303  30.483  35.823   0.719
45044W        W10304  34.675  33.384   1.180
45045W        W10305   8.910  33.943   2.732
45046W        W10306  30.506   5.744  11.842
45047W        W10307  27.682  28.595  12.625
45048W        W10308  17.484   9.863  11.462
45049W        W10309  43.475  19.267  13.951
45050W        W10310   0.772  28.905  13.617
45051W        W10311  29.285   5.219   2.892
45052W        W10312  32.906  41.786   1.252
45053W        W10313  35.191  34.589  11.144
45054W        W10314  40.021   5.361  12.424
45055W        W10315  24.113  21.540  13.400
45056W        W10316   8.200  16.137   1.208
45057W        W10317  13.755   5.889   4.470
45058W        W10318  16.993   5.780   2.859
45059W        W10319   6.365  34.375   3.762
45060W        W10320  40.565  13.662   4.600
45061W        W10321  13.752   2.713   3.169
45062W        W10322   0.923   2.744  12.019
45063W        W10323  17.184  36.994   0.244
45064W        W10324  22.026  13.792  14.488
45065W        W10325  37.812  27.017   4.041
45066W        W10326  15.157  35.560   4.685
45067W        W10327  22.892   6.165  12.928
45068W        W10328   7.710  24.480  11.200
45069W        W10329  31.186  23.339  10.750
45070W        W10330  37.107   3.324  13.789
45071W        W10331  13.412  33.396   2.160
45072W        W10332  11.490  17.694  13.156
45073W        W10333  43.062  19.667  12.620
45074W        W10334   8.252  42.172  11.539
45075W        W10335  28.118  42.807  10.651
45076W        W10336  19.018  32.848  13.915
45077W        W10337  19.173  15.343  14.548
45078W        W10338  38.106  19.252  11.539
45079W        W10339  20.344  29.238   2.291
45080W        W10340  11.381  10.458   0.385
45081W        W10341  18.149   0.109   3.622
45082W        W10342   0.196  23.093  13.374
45083W        W10343   6.616  35.574  10.943
45084W        W10344  25.176  16.662  12.602
45085W        W10345  15.823  34.856   2.265
45086W        W10346  18.303   1.995  12.349
45087W        W10347   5.595  12.669   4.663
45088W        W10348  34.992  13.600  11.488
45089W        W10349  15.257  19.735   5.204
45090W        W10350  23.604  43.380   4.412
45091W        W10351  41.762  33.163   1.255
45092W        W10352  28.123  33.102  10.585
45093W        W10353  43.350  19.730   1.009
45094W        W10354  16.093  17.023  14.250
45095W        W10355  30.533  27.778   1.835
45096W        W10356  31.072  16.056   4.578
45097W        W10357  22.428  26.014   0.240
45098W        W10358  13.903  29.464  11.563
45099W        W10359  13.299  38.510   3.326
45100W        W10360   8.415  28.471  14.927
45101W        W10361  43.333  34.223   4.683
45102W        W10362  18.219   2.489   2.780
45103W        W10363  31.903  37.984   0.435
45104W        W10364   6.805  23.090   4.073
45105W        W10365   9.223  37.747   1.808
45106W        W10366  41.827   0.832  14.583
45107W        W10367  11.630  30.336   1.805
45108W        W10368  19.951  24.088  10.365
45109W        W10369  28.698   9.855  13.736
45110W        W10370  43.509  41.480  11.159
45111W        W10371  12.401  19.773   1.389
45112W        W10372  16.292  16.859   0.592
45113W        W10373  15.631  21.014  13.234
45114W        W10374  14.094  24.729  13.765
45115W        W10375  13.514  18.201   2.269
45116W        W10376   8.891  36.112  13.516
45117W        W10377  36.638  34.210   1.035
45118W        W10378  31.974  12.172   2.167
45119W        W10379  13.761   8.268   4.551
45120W        W10380  29.339  12.615   0.901
45121W        W10381   7.276  18.123  14.558
45122W        W10382  29.669  33.931   3.298
45123W        W10383   9.370  11.391  13.811
45124W        W10384  21.019  35.829   1.363
45125W        W10385   6.152  31.429   1.777
45126W        W10386  20.628  28.898  12.911
45127W        W10387  20.958   8.842  14.450
45128W        W10388  25.403  35.391  11.064
45129W        W10389   0.707  20.785   3.537
45130W        W10390  11.300  24.004   1.255
45131W        W10391  40.360   2.288   1.828
45132W        W10392   8.335  31.362   4.021
45133W        W10393   0.824   3.283  11.244
45134W        W10394  19.745  30.404  10.218
45135W        W10395  37.816  25.217  12.096
45136W        W10396   9.604   9.324  10.685
45137W        W10397   8.973  21.649   2.830
45138W        W10398   5.382   4.008   1.764
45139W        W10399  38.857  27.645   1.676
45140W        W10400   2.123  29.756   4.170
45141W        W10401   4.675  39.033  13.845
45142W        W10402  19.233   6.326   1.694
45143W        W10403  17.812  18.022   2.925
45144W        W10404  35.313  29.658  12.893
45145W        W10405  12.147   4.966   3.122
45146W        W10406  12.630  24.756  13.926
45147W        W10407  39.710  25.449  12.857
45148W        W10408   1.435  37.481   1.469
45149W        W10409   3.674  11.418   2.422
45150W        W10410  13.287  33.533  14.485
45151W        W10411  44.343  33.117   1.247
45152W        W10412   5.701  10.266  12.443
45153W        W10413  44.742  28.471  12.935
45154W        W10414  10.239  24.465   3.658
45155W        W10415   1.021   3.252   1.048
45156W        W10416  19.674  32.444   4.458
45157W        W10417  10.486   8.755  12.310
45158W        W10418  16.237   3.878  13.436
45159W        W10419  42.448  22.503   0.241
45160W        W10420  42.561  14.332   1.250
45161W        W10421   6.238  19.515   1.247
45162W        W10422  17.544  44.024  13.035
45163W        W10423  36.481  16.531  10.558
45164W        W10424  38.838  15.820   1.418
45165W        W10425  33.804  35.575  14.291
45166W        W10426   9.680  30.677   1.268
45167W        W10427  35.301  12.233  12.393
45168W        W10428  19.241  22.366   1.324
45169W        W10429  20.115  29.452   3.647
45170W        W10430  38.863  43.251   4.546
45171W        W10431  18.230  14.684   4.259
45172W        W10432  39.898   2.249   3.105
45173W        W10433  23.509  10.102   4.116
45174W        W10434   4.860  27.026   2.333
45175W        W10435  19.029  15.646   1.797
45176W        W10436  22.510   2.023   2.834
45177W        W10437  14.675  18.286   4.853
45178W        W10438   5.021   5.420  11.864
45179W        W10439  32.740   6.855  11.327
45180W        W10440   6.466   1.889   0.895
45181W        W10441   4.869  19.291  11.697
45182W        W10442   7.748  36.001   3.541
45183W        W10443   0.860  29.680  12.490
45184W        W10444  18.536  28.003  14.468
45185W        W10445   2.495  37.454  10.559
45186W        W10446  37.046  16.708  10.516
45187W        W10447  22.436  42.887  13.789
45188W        W10448  29.510  17.421   3.693
45189W        W10449  27.486  30.401  13.830
45190W        W10450  34.435  15.338  10.671
45191W        W10451  23.755  28.877   2.728
45192W        W10452  10.153  34.342  10.784
45193W        W10453  27.887  44.466  11.124
45194W        W10454  44.250  10.309   4.669
45195W        W10455  19.995   6.437  12.568
45196W        W10456   3.289  24.637   3.206
45197W        W10457  21.741  33.858   0.729
45198W        W10458  27.098   5.003   2.361
45199W        W10459  28.099  38.106  11.217
45200W        W10460  44.425   2.383  12.541
45201W        W10461   4.405  39.797   3.790
45202W        W10462  14.107   2.470  13.826
45203W        W10463   6.474  42.395   0.278
45204W        W10464  37.536  11.263  14.582
45205W        W10465  30.947  43.337  12.420
45206W        W10466   6.664   2.567  13.466
45207W        W10467   2.188  19.239   4.389
45208W        W10468  31.633  38.803   4.890
45209W        W10469  27.149  25.130  12.637
45210W        W10470  29.228  18.487   3.132
45211W        W10471   7.714  10.620   0.253
45212W        W10472  20.180  24.535  10.618
45213W        W10473  44.975  27.365   1.228
45214W        W10474  19.489  41.429  13.824
45215W        W10475  37.436  40.837  13.421
45216W        W10476  23.545  30.951   1.498
45217W        W10477   1.791  18.033   0.801
45218W        W10478  28.074  21.179   3.278
45219W        W10479  25.552   2.425   3.225
45220W        W10480   6.781  24.180  13.961
45221W        W10481  38.077  11.349  13.118
45222W        W10482   5.452  22.700   4.281
45223W        W10483   4.435  42.002  13.936
45224W        W10484  18.539   0.937   0.716
45225W        W10485  23.973   0.375   0.767
45226W        W10486  16.728  17.191   9.726
45227W        W10487  10.471  25.457  11.349
45228W        W10488  41.445  43.491  14.831
45229W        W10489  27.132  40.893   0.867
45230W        W10490  43.811  22.929  11.263
45231W        W10491  40.802  41.767   3.208
45232W        W10492  33.454   8.414  14.734
45233W        W10493  37.840  34.489  10.987
45234W        W10494   9.276  41.823   2.161
45235W        W10495  25.243  21.859  13.566
45236W        W10496  17.108  19.085   0.326
45237W        W10497  30.037   4.712  14.405
45238W        W10498  39.012  22.569   2.105
45239W        W10499  10.318   8.144  13.058
45240W        W10500   7.915  33.017   2.805
45241W        W10501  31.626   0.876   1.648
45242W        W10502   5.205  44.322  10.682
45243W        W10503  24.466   0.796  12.623
45244W        W10504  27.395   0.828   1.031
45245W        W10505  30.448   0.698   4.261
45246W        W10506   2.789  43.444   0.575
45247W        W10507   8.659  12.671  12.992
45248W        W10508  40.967  43.930   4.650
45249W        W10509  17.745   7.429  14.105
45250W        W10510  34.752  38.240  12.064
45251W        W10511   1.472  34.311  11.572
45252W        W10512  33.500  43.214   1.227
45253W        W10513  16.578  38.250  12.116
45254W        W10514  10.780  12.599   0.312
45255W        W10515  28.575  14.826   0.244
45256W        W10516   6.368  29.587  14.849
45257W        W10517   9.700   4.999   3.204
45258W        W10518  27.486  39.789  13.448
45259W        W10519  40.458  18.061   1.924
45260W        W10520  13.203  24.114   2.924
45261W        W10521  38.057   4.494   4.592
45262W        W10522   5.176  43.547   0.233
45263W        W10523  12.434  42.438   0.970
45264W        W10524   2.324  31.862   1.885
45265W        W10525  15.602  42.433  14.497
45266W        W10526   7.409   5.351  14.081
45267W        W10527  17.627  22.189  11.577
45268W        W10528  29.500  24.131   2.695
45269W        W10529  24.156   1.847  11.324
45270W        W10530  42.770   8.420  12.923
45271W        W10531  20.740  37.577   2.626
45272W        W10532  12.378  36.929  13.823
45273W        W10533  40.406  10.189  14.120
45274W        W10534   2.372  25.672  11.644
45275W        W10535   9.044  42.858   4.172
45276W        W10536  40.521  21.671  11.603
45277W        W10537   5.520   8.657  10.816
45278W        W10538  31.972  21.307  10.718
45279W        W10539   1.747  42.063   3.369
45280W        W10540   0.154  44.487  10.691
45281W        W10541  13.323  31.170   2.700
45282W        W10542  27.213  36.791  11.987
45283W        W10543  35.333  41.918   3.890
45284W        W10544  26.431   3.408  11.565
45285W        W10545  17.639   0.845   1.511
45286W        W10546  13.363  38.929  13.885
45287W        W10547  15.360  23.705  13.839
45288W        W10548  28.098   5.196  13.780
45289W        W10549  35.315  24.456   0.390
45290W        W10550   9.179  16.827   0.934
45291W        W10551  31.412  31.273  13.534
45292W        W10552   0.285  12.607  10.818
45293W        W10553  15.210  18.532   0.892
45294W        W10554  35.416   2.420  13.653
45295W        W10555   0.804  42.224   3.190
45296W        W10556  26.191  33.408  13.339
45297W        W10557   3.534  13.759  14.366
45298W        W10558  10.401   0.769  13.290
45299W        W10559  12.857   0.249  14.834
45300W        W10560  19.775  17.241  11.662
45301W        W10561  27.299  27.070  11.147
45302W        W10562  17.618  29.164  14.118
45303W        W10563   3.829  28.209  13.265
45304W        W10564   3.840  15.232   2.826
45305W        W10565   2.693  32.106  13.314
45306W        W10566  43.522  14.915  10.157
45307W        W10567  26.482  21.979   3.370
45308W        W10568  38.542  17.308   2.891
45309W        W10569  26.578  37.074  10.687
45310W        W10570  23.561  22.270   4.279
45311W        W10571  26.574  11.549   2.620
45312W        W10572   5.773  41.534  14.807
45313W        W10573   8.776  29.572   0.516
45314W        W10574  20.773  31.133  14.022
45315W        W10575   7.169  31.999  12.447
45316W        W10576  15.059  15.909  13.516
45317W        W10577  35.712   7.326  14.874
45318W        W10578  25.231   5.945  11.137
45319W        W10579  41.023  23.595   4.580
45320W        W10580  42.008  29.046   4.216
45321W        W10581  19.230  43.455  11.545
45322W        W10582   3.958  16.537   3.613
45323W        W10583  23.174   0.001  10.671
45324W        W10584  33.026  24.948  13.474
45325W        W10585   2.763  28.392   2.891
45326W        W10586  43.908  41.749   0.236
45327W        W10587  22.142  11.066  12.898
45328W        W10588  10.585  33.077   0.543
45329W        W10589  33.569  34.137   4.753
45330W        W10590  19.692  18.841  12.385
45331W        W10591  26.140  27.371  10.647
45332W        W10592   9.388  25.744   3.247
45333W        W10593  34.974  43.502   5.051
45334W        W10594  25.152   5.465  12.156
45335W        W10595  27.262  38.458  12.977
45336W        W10596   6.410  19.555   0.285
45337W        W10597   3.141  16.516   4.028
45338W        W10598   3.855  39.630  12.041
45339W        W10599  20.843  20.624   3.333
45340W        W10600  10.155  43.745  13.914
45341W        W10601  20.833   7.678   9.900
45342W        W10602  13.023  36.518  10.702
45343W        W10603  27.575  33.068  14.708
45344W        W10604  40.354  16.890  12.429
45345W        W10605   0.808   1.920  12.604
45346W        W10606  28.952   2.698   1.873
45347W        W10607  36.461  32.432  14.851
45348W        W10608  39.086   9.830   1.578
45349W        W10609  24.198  38.576   4.482
45350W        W10610   6.019  17.662  12.066
45351W        W10611  23.434  41.506  11.452
45352W        W10612  10.682  27.692   5.615
45353W        W10613  26.956  33.316   5.257
45354W        W10614  16.208  28.508   4.115
45355W        W10615  26.280  12.293  11.494
45356W        W10616  40.846  14.050   3.023
45357W        W10617  25.907  34.545   0.816
45358W        W10618  29.561  38.820  10.468
45359W        W10619   4.596  17.613  10.390
45360W        W10620  19.215  18.884   1.312
45361W        W10621  17.220  21.680  13.767
45362W        W10622  30.492  44.386   4.526
45363W        W10623  43.959   7.342   0.722
45364W        W10624  36.046  22.027  12.942
45365W        W10625   8.431  12.165  10.600
45366W        W10626  18.237  27.446   0.240
45367W        W10627   6.475   3.588  13.029
45368W        W10628   4.865   4.273  14.963
45369W        W10629  14.109  31.320   3.296
45370W        W10630  18.960   5.773   0.839
45371W        W10631  34.946  41.107  14.009
45372W        W10632  21.489  15.106   2.591
45373W        W10633  23.550  37.951  12.594
45374W        W10634  35.268   4.316  11.149
45375W        W10635  27.870  20.647   3.263
45376W        W10636  16.722  28.963  11.973
45377W        W10637  14.739  25.118  12.618
45378W        W10638   9.605  26.940  14.853
45379W        W10639  29.810  17.310   2.895
45380W        W10640  41.130   1.929   3.101
45381W        W10641   6.131   4.180   0.451
45382W        W10642   5.632  22.111  11.092
45383W        W10643  18.472   6.218  10.521
45384W        W10644   3.203  37.990   2.178
45385W        W10645  39.364  28.180  12.676
45386W        W10646  43.786   3.063  13.968
45387W        W10647  20.133  43.730   1.646
45388W        W10648  41.854  26.431   1.633
45389W        W10649   6.705  16.307   0.769
45390W        W10650  12.471  43.939  13.638
45391W        W10651  26.573  36.810   4.279
45392W        W10652  15.804  11.095   4.857
45393W        W10653  28.830  12.296  14.192
45394W        W10654  20.638  35.702  10.175
45395W        W10655   9.706  25.390  14.026
45396W        W10656  40.578  44.309  13.900
45397W        W10657   0.261  42.083  13.439
45398W        W10658   6.887  13.322   1.121
45399W        W10659  27.448  35.554  13.272
45400W        W10660  39.532   2.320   0.835
45401W        W10661  41.073   9.704   1.972
45402W        W10662   9.103  27.266  13.821
45403W        W10663  11.060  26.509  13.402
45404W        W10664  28.875  41.770   0.268
45405W        W10665  44.788  16.923   0.515
45406W        W10666  22.359  13.704  12.378
45407W        W10667  27.482  37.237  12.077
45408W        W10668  36.951  26.049   3.830
45409W        W10669  18.747  23.599  12.529
45410W        W10670  20.722  41.121   4.404
45411W        W10671   5.184  24.436   3.622
45412W        W10672  31.102  31.662  12.364
45413W        W10673  21.332  17.131   0.529
45414W        W10674  44.237  22.828   0.354
45415W        W10675   9.766  41.826  13.613
45416W        W10676   1.927  13.304   2.297
45417W        W10677  10.329  13.423  13.422
45418W        W10678  34.500  41.797  14.715
45419W        W10679  43.292  10.618  12.029
45420W        W10680   8.992  44.051  14.199
45421W        W10681  29.455  18.057  10.753
45422W        W10682  25.524  23.695  11.437
45423W        W10683  26.657  16.748   2.890
45424W        W10684  14.745  24.094   4.653
45425W        W10685  44.560  14.335   1.548
45426W        W10686  44.894   8.695   1.565
45427W        W10687   8.395  36.111  10.809
45428W        W10688  12.440  10.118  12.601
45429W        W10689  41.377  39.532  13.152
45430W        W10690  36.485   9.568   0.466
45431W        W10691  21.658   0.379   0.911
45432W        W10692  28.464  14.530  11.351
45433W        W10693  27.484  32.530  14.780
45434W        W10694   5.350  21.093   0.014
45435W        W10695  13.342  44.358   4.753
45436W        W10696   4.891   1.062  12.644
45437W        W10697  18.495  41.006   4.786
45438W        W10698  39.858  20.194   2.560
45439W        W10699  31.524  17.278   4.591
45440W        W10700   1.224  19.660   4.045
45441W        W10701  18.677   0.507   5.099
45442W        W10702  34.615  16.720   4.909
45443W        W10703   0.753  25.096   2.686
45444W        W10704   5.736  11.650  11.949
45445W        W10705  44.568  17.077   5.395
45446W        W10706  30.170  39.746   3.723
45447W        W10707  26.985  43.413   2.790
45448W        W10708   1.241  33.913  14.455
45449W        W10709  36.767  25.023   9.956
45450W        W10710  17.202  40.238   1.999
45451W        W10711  26.165   5.573  12.203
45452W        W10712  13.906  36.361  11.054
45453W        W10713  11.418  31.255  14.653
45454W        W10714  33.369  42.320  11.605
45455W        W10715  30.454  11.813   0.322
45456W        W10716  14.946   9.612   3.736
45457W        W10717  34.755  25.888   5.410
45458W        W10718  35.074  32.312  14.187
45459W        W10719  39.412  22.370  12.328
45460W        W10720  35.870  36.862  13.889
45461W        W10721  11.748   0.464  14.000
45462W        W10722  18.860  23.418   9.686
45463W        W10723  10.481  24.143  11.937
45464W        W10724  40.449  35.133  12.545
45465W        W10725  23.730  40.327   3.559
45466W        W10726   5.614  33.206   0.479
45467W        W10727   4.216  26.112  10.653
45468W        W10728  32.339  20.365  14.791
45469W        W10729  18.054  41.245  14.001
45470W        W10730  35.546  19.251  13.010
45471W        W10731  13.136   5.179  14.355
45472W        W10732  37.517  36.956   4.816
45473W        W10733  35.061  44.728   2.724
45474W        W10734  34.867   9.312  14.811
45475W        W10735   9.435  15.513  13.416
45476W        W10736  29.005  24.294   4.687
45477W        W10737  31.258  39.583   0.272
45478W        W10738  20.355  33.333  13.152
45479W        W10739   5.832  22.280  10.630
45480W        W10740  16.790  42.905  10.702
45481W        W10741  14.569   6.579   0.418
45482W        W10742   6.460  10.713   2.083
45483W        W10743  34.851   8.230   3.165
45484W        W10744  10.228   9.317  13.521
45485W        W10745  25.953  34.331  10.567
45486W        W10746  20.954  34.932  13.395
45487W        W10747  36.541   2.978   3.281
45488W        W10748  12.309  10.502   4.349
45489W        W10749  19.619  21.288   5.085
45490W        W10750  15.760  33.104  10.314
45491W        W10751  17.881  30.125   2.840
45492W        W10752  14.575  32.845   2.928
45493W        W10753  36.386  26.197  14.917
45494W        W10754   1.024   5.745   4.575
45495W        W10755  32.342  21.989   3.682
45496W        W10756  40.805   0.260  13.398
45497W        W10757  22.843  38.931  14.792
45498W        W10758  37.948  43.445  12.454
45499W        W10759  20.073  42.496   1.705
45500W        W10760  16.986  10.647  12.052
45501W        W10761  41.477  34.520  12.972
45502W        W10762   2.972  36.558  14.472
45503W        W10763  13.082  24.992  10.961
45504W        W10764  22.131  29.069  10.913
45505W        W10765  26.122  32.968  11.065
45506W        W10766  18.433  26.964   0.365
45507W        W10767  29.787  26.252   3.717
45508W        W10768  33.571  26.376   0.485
45509W        W10769  30.987  29.868  10.682
45510W        W10770  36.602  12.789   2.766
45511W        W10771  13.279  11.149   3.197
45512W        W10772  18.765  35.599   0.109
45513W        W10773  29.083   7.848  14.191
45514W        W10774  16.405  44.805  13.595
45515W        W10775  11.338  17.673  14.019
45516W        W10776  24.501  37.389   2.422
45517W        W10777  11.897  43.336  11.887
45518W        W10778  27.962   0.010   1.856
45519W        W10779  44.870   7.933  13.006
45520W        W10780  17.517  11.749   0.561
45521W        W10781  26.893   8.564  11.875
45522W        W10782  33.800  22.694   1.806
45523W        W10783  23.993  31.861  10.297
45524W        W10784  36.186  23.228   3.167
45525W        W10785  19.349  21.065  13.604
45526W        W10786  26.889  39.139   0.790
45527W        W10787  19.097  37.983   0.956
45528W        W10788  43.920   5.247   3.029
45529W        W10789  21.756  43.920   4.132
45530W        W10790  17.460  11.357   3.819
45531W        W10791  22.223  44.921   3.337
45532W        W10792  22.243  30.181  13.537
45533W        W10793  39.221   9.713  13.928
45534W        W10794  43.608  26.029  11.153
45535W        W10795  29.362  15.672  11.139
45536W        W10796  39.042   6.170   3.251
45537W        W10797  21.667   2.439  11.575
45538W        W10798  16.459  42.375  11.517
45539W        W10799   1.433   9.756  12.098
45540W        W10800  20.095  41.684  11.232
45541W        W10801   7.691  33.064  13.382
45542W        W10802  40.887  21.815   3.865
45543W        W10803  17.699  31.422  13.886
45544W        W10804   1.063  40.424  12.068
45545W        W10805  36.811  32.449  14.478
45546W        W10806  43.339  16.613  14.799
45547W        W10807   0.286   0.649   0.814
45548W        W10808  42.797   5.243   4.879
45549W        W10809  40.451   3.990   4.082
45550W        W10810  26.416   2.178  14.789
45551W        W10811  15.166  27.390  13.940
45552W        W10812  21.311  32.381  13.462
45553W        W10813  33.628  17.687  13.883
45554W        W10814  17.789   7.833  12.253
45555W        W10815  11.697  24.411  11.946
45556W        W10816  26.371   8.998   1.242
45557W        W10817  20.049  44.150  11.581
45558W        W10818  37.892  29.446  10.675
45559W        W10819  40.896  27.558   1.889
45560W        W10820   2.259  32.567  10.561
45561W        W10821   3.305  15.270  13.732
45562W        W10822  26.454  11.219  11.130
45563W        W10823   3.520  29.486   1.387
45564W        W10824  39.330   4.767  12.341
45565W        W10825  44.308   6.643  14.239
45566W        W10826  20.759  26.622   5.030
45567W        W10827  22.678  21.460   3.634
45568W        W10828  10.195  40.284   4.186
45569W        W10829   9.885  21.304  13.389
45570W        W10830   8.830  30.952  14.268
45571W        W10831   3.248  29.600  12.499
45572W        W10832  25.225   6.845  14.052
45573W        W10833  26.091  39.531  13.001
45574W        W10834   2.326  19.070   0.318
45575W        W10835  42.845   7.473  13.500
45576W        W10836  14.848   9.740  10.912
45577W        W10837  23.678   9.801  14.395
45578W        W10838  13.264  27.511   0.274
45579W        W10839  18.005  44.818   4.119
45580W        W10840   8.293  34.037   2.366
45581W        W10841   6.241  34.931  10.635
45582W        W10842  36.634   0.379   2.417
45583W        W10843   4.899  26.008   1.190
45584W        W10844  36.088  17.566  12.943
45585W        W10845   2.726  14.062   4.676
45586W        W10846   9.106  21.242   4.222
45587W        W10847  31.027  27.446   3.241
45588W        W10848  18.320  41.388  14.965
45589W        W10849  24.692  34.870  11.703
45590W        W10850  11.324  26.044  13.298
45591W        W10851  43.821   3.330  11.419
45592W        W10852  33.914   5.728  11.445
45593W        W10853  16.249  22.854  14.901
45594W        W10854   1.045   4.693   0.003
45595W        W10855  31.699  10.308  12.902
45596W        W10856  33.583   2.463  12.623
45597W        W10857  19.080  26.058   0.880
45598W        W10858  13.132  17.171   3.149
45599W        W10859  27.973  20.324  13.837
45600W        W10860  15.574  40.794  11.163
45601W        W10861  11.201   4.179   2.698
45602W        W10862  42.626  30.002  11.051
45603W        W10863  33.132  42.047   0.329
45604W        W10864  15.365  30.040  11.612
45605W        W10865  37.740  36.462  12.585
45606W        W10866  30.537  34.183  10.538
45607W        W10867  39.928  42.974   0.732
45608W        W10868   6.798  19.777  13.041
45609W        W10869  23.153  15.738  14.766
45610W        W10870  19.524   1.926  13.952
45611W        W10871  34.965  28.445   1.643
45612W        W10872  35.516  16.827  13.933
45613W        W10873  41.348  42.889   0.720
45614W        W10874  23.578   3.479   4.214
45615W        W10875   7.873  40.348  14.378
45616W        W10876  10.591  21.685  10.494
45617W        W10877   2.733   4.451  12.000
45618W        W10878  22.896  38.530   4.428
45619W        W10879  28.781  16.020  14.030
45620W        W10880  33.763   9.795  14.495
45621W        W10881  43.443  11.149  14.470
45622W        W10882  37.853  11.098   3.273
45623W        W10883   5.693  17.819   3.180
45624W        W10884  29.073  30.920  13.270
45625W        W10885  23.116  28.001  13.762
45626W        W10886   9.149   1.942  10.736
45627W        W10887   8.194  44.297   0.252
45628W        W10888   9.258  13.762   2.823
45629W        W10889  39.872  18.019  14.716
45630W        W10890  30.090  37.735   2.062
45631W        W10891   9.509  30.912   3.366
45632W        W10892  33.201  23.742  14.653
45633W        W10893   3.887  24.692  12.617
45634W        W10894  26.717  22.111   4.160
45635W        W10895  13.043  42.913  10.858
45636W        W10896  16.780  43.430   2.883
45637W        W10897  16.640  13.264   3.416
45638W        W10898  23.106  25.773  14.498
45639W        W10899  16.127   9.135   3.835
45640W        W10900  16.995   7.981  11.365
45641W        W10901  28.887  35.235   2.641
45642W        W10902  20.555  42.537   0.288
45643W        W10903  31.440  32.759   2.790
45644W        W10904   7.084  42.991  12.086
45645W        W10905  14.179   7.714   5.655
45646W        W10906  33.404  18.428   2.851
45647W        W10907   1.134  39.049   1.972
45648W        W10908  11.764   1.495   3.465
45649W        W10909   7.461  21.505  14.481
45650W        W10910   6.690  18.701   1.468
45651W        W10911   2.826  14.637  11.994
45652W        W10912  37.370  10.601   5.187
45653W        W10913  35.607  17.133  14.941
45654W        W10914  25.458  37.914   2.337
45655W        W10915   7.713  44.546   0.456
45656W        W10916  35.825  41.234  11.089
45657W        W10917  14.696   2.379  14.521
45658W        W10918  15.487  30.404   3.730
45659W        W10919  18.116  22.237   0.901
45660W        W10920  16.599  31.822   2.093
45661W        W10921  37.023  24.169   4.248
45662W        W10922   9.724  41.832   4.851
45663W        W10923  11.610  43.243  14.895
45664W        W10924  39.527  23.366  14.376
45665W        W10925  14.693   1.503   0.776
45666W        W10926   2.049  19.822   1.841
45667W        W10927  33.119  26.769  13.975
45668W        W10928  44.989  29.941   2.701
45669W        W10929  15.229  43.434  10.682
45670W        W10930  20.453  43.255   2.651
45671W        W10931   1.872  22.433   3.968
45672W        W10932  40.412  18.294   1.401
45673W        W10933  39.878   9.310  12.496
45674W        W10934  23.588  33.129  13.316
45675W        W10935  32.872  31.641  14.060
45676W        W10936   2.317  18.372   1.926
45677W        W10937   5.919  27.274  11.158
45678W        W10938  17.268   2.610   4.180
45679W        W10939  29.079   9.342  14.352
45680W        W10940  16.728  40.456  11.548
45681W        W10941  18.025  42.761  14.419
45682W        W10942  22.664  34.389   4.511
45683W        W10943  18.322  12.555  12.026
45684W        W10944  19.825  27.120   2.825
45685W        W10945  41.396  44.814  12.328
45686W        W10946  12.815  36.446  11.944
45687W        W10947  12.866  37.111   3.837
45688W        W10948  18.524  40.879   0.787
45689W        W10949  35.621  11.396  12.946
45690W        W10950   4.232   5.224   2.302
45691W        W10951  10.933  14.329   0.564
45692W        W10952  29.651  14.917  13.568
45693W        W10953  13.133   6.996   2.142
45694W        W10954   0.446  40.990  13.508
45695W        W10955   4.214  12.768   2.169
45696W        W10956  37.352  27.920  13.533
45697W        W10957  30.819  14.060  11.305
45698W        W10958   1.014   4.470   0.863
45699W        W10959  43.616   0.997  12.253
45700W        W10960  43.565  34.653   3.714
45701W        W10961  10.155  44.045   2.848
45702W        W10962  34.903  38.902   3.674
45703W        W10963  20.600  34.145  14.981
45704W        W10964  29.639  26.689  10.222
45705W        W10965   1.058  21.619   0.971
45706W        W10966   8.210  37.360  13.394
45707W        W10967  14.368  29.095   1.798
45708W        W10968  16.661  28.931  14.503
45709W        W10969  44.469   2.859  12.355
45710W        W10970  21.614  32.414   2.620
45711W        W10971  35.599  20.343   1.422
45712W        W10972  20.341  18.130   1.678
45713W        W10973   8.248  13.823  12.591
45714W        W10974  20.098  25.634   1.153
45715W        W10975  44.799  17.154   4.630
45716W        W10976  32.436  37.295   5.345
45717W        W10977  30.006  25.642  14.803
45718W        W10978  16.277  39.922   1.579
45719W        W10979  15.728   6.192  10.919
45720W        W10980  34.089  10.500  11.158
45721W        W10981  33.466  13.589   2.801
45722W        W10982   4.129   9.798  12.255
45723W        W10983  15.177   0.742   0.764
45724W        W10984  18.668   2.275  14.169
45725W        W10985   5.823  43.842  14.474
45726W        W10986   4.844  31.330   2.364
45727W        W10987  31.046  14.601  13.365
45728W        W10988   5.397  34.423   3.705
45729W        W10989  11.341  19.794  11.472
45730W        W10990  22.967  13.503  13.428
45731W        W10991  24.227  32.518   2.803
45732W        W10992  10.170  16.797   1.737
45733W        W10993  27.172  13.192   3.247
45734W        W10994   2.163  22.290   1.786
45735W        W10995   4.903   6.183   4.046
45736W        W10996  34.471  23.794  13.480
45737W        W10997  34.715  28.103   1.927
45738W        W10998   2.043   5.941   0.874
45739W        W10999  33.565   9.332   0.739
45740W        W11000  16.483   1.462   3.668
45741W        W11001  35.549  41.223   3.272
45742W        W11002  22.516  36.621   1.733
45743W        W11003  37.364  44.835   5.452
45744W        W11004  37.571   1.809  13.543
45745W        W11005  43.353  25.179   4.606
45746W        W11006  33.342  37.555  10.145
45747W        W11007  42.445  29.139  14.330
45748W        W11008  30.688   8.832   4.486
45749W        W11009  19.080   2.454  10.691
45750W        W11010  28.269  41.373   2.778
45751W        W11011  42.752  22.009  13.994
45752W        W11012  43.851   6.329  14.021
45753W        W11013  24.063   7.630   0.136
45754W        W11014  22.820  29.094  14.910
45755W        W11015  34.370  38.997  12.157
45756W        W11016  19.615  31.048   0.385
45757W        W11017  35.613  29.575  12.433
45758W        W11018  19.246  40.290  11.603
45759W        W11019  43.985  23.034  14.009
45760W        W11020  23.080   5.402   2.313
45761W        W11021   6.697  34.088  11.570
45762W        W11022  38.977  44.259   0.469
45763W        W11023  13.104   6.459   1.342
45764W        W11024   5.067  26.475   4.550
45765W        W11025  26.062  39.924   1.166
45766W        W11026   1.652  31.077  14.819
45767W        W11027  36.029  16.317   3.224
45768W        W11028  24.930  24.687  13.381
45769W        W11029   9.416   9.546   4.805
45770W        W11030   1.017  14.070  11.109
45771W        W11031   8.487  31.403   2.628
45772W        W11032  18.798  41.549  13.100
45773W        W11033  30.612   2.157   4.905
45774W        W11034   3.227  21.173   3.191
45775W        W11035  10.782  23.542   4.634
45776W        W11036  10.343   5.221  12.481
45777W        W11037  35.862  18.499  12.025
45778W        W11038  43.704   5.311   0.040
45779W        W11039  10.179  24.624  13.543
45780W        W11040  35.847  33.543   4.171
45781W        W11041   1.508  34.680  14.371
45782W        W11042  24.225  29.646  13.998
45783W        W11043  39.779  37.226  14.033
45784W        W11044  42.740   1.212   3.800
45785W        W11045  19.329  43.457   0.379
45786W        W11046  35.453  29.967   0.880
45787W        W11047  29.686  26.024   0.779
45788W        W11048   1.393   8.909   0.286
45789W        W11049  28.104  40.211  12.797
45790W        W11050   7.847   4.895   5.035
45791W        W11051  20.620  21.962   3.252
45792W        W11052  10.476  25.121   1.508
45793W        W11053  18.029  41.047   1.740
45794W        W11054  31.366   5.934   1.236
45795W        W11055  26.183  34.025   1.684
45796W        W11056   9.987   9.563  12.147
45797W        W11057  11.181  15.686  13.988
45798W        W11058  15.156  31.444  12.451
45799W        W11059  12.827  43.452  12.209
45800W        W11060  38.935  37.567   3.343
45801W        W11061   8.258  40.098   1.347
45802W        W11062  27.571  44.329   0.896
45803W        W11063  24.123  15.863   3.176
45804W        W11064  29.068  11.921   2.373
45805W        W11065  32.846  17.128   1.860
45806W        W11066  18.138  35.330  14.781
45807W        W11067  40.377  39.622   0.241
45808W        W11068   0.740  41.628  12.345
45809W        W11069   2.067   9.053  10.828
45810W        W11070  26.179  18.010  13.954
45811W        W11071  11.702  11.822   0.958
45812W        W11072  23.544  26.640   0.688
45813W        W11073  17.050  23.815  12.839
45814W        W11074  33.401  18.898   2.651
45815W        W11075  10.850  37.479  10.518
45816W        W11076  32.006   5.855   2.848
45817W        W11077   6.049  13.959  14.465
45818W        W11078  29.438  25.631   2.404
45819W        W11079   8.381  25.546   4.637
45820W        W11080  38.330  22.859  12.114
45821W        W11081  37.505  43.189  12.574
45822W        W11082  27.124  29.460  13.636
45823W        W11083  19.584  28.658   1.933
45824W        W11084  22.565  43.089   0.171
45825W        W11085   8.228  19.955  14.907
45826W        W11086   4.008  25.219  13.376
45827W        W11087   2.328  28.140  14.832
45828W        W11088  26.518  22.249   4.601
45829W        W11089  20.773  17.670   4.632
45830W        W11090  37.477  16.565   3.255
45831W        W11091   6.239   2.389   4.608
45832W        W11092  10.457  34.467  13.371
45833W        W11093  24.313   6.905   2.192
45834W        W11094  23.306   2.901   0.244
45835W        W11095  39.954  26.891   2.698
45836W        W11096  29.505   3.466  11.856
45837W        W11097  29.951   0.389  14.378
45838W        W11098  39.595   7.730   0.906
45839W        W11099  30.015  17.664   4.693
45840W        W11100   9.612  36.588   1.252
45841W        W11101  21.281  21.200  13.304
45842W        W11102  44.756  35.422   3.783
45843W        W11103  40.134  16.156  14.235
45844W        W11104  21.497  43.547  14.090
45845W        W11105  17.011  44.029  13.924
45846W        W11106  37.310  31.690   1.818
45847W        W11107  26.634  41.839   4.940
45848W        W11108   7.871  20.670   3.347
45849W        W11109  37.488  32.423  13.736
45850W        W11110  21.123  26.583  13.863
45851W        W11111  41.416  24.234   1.459
45852W        W11112  17.833  24.754   2.280
45853W        W11113  14.284  16.104  13.950
45854W        W11114   6.812  13.698   2.446
45855W        W11115  23.740   6.366   1.821
45856W        W11116   7.665  23.945   1.909
45857W        W11117  30.654  43.123  11.481
45858W        W11118   4.967  26.218   0.704
45859W        W11119  24.566  36.756  14.455
45860W        W11120  26.229  37.120   2.181
45861W        W11121  32.561  12.128   4.437
45862W        W11122  11.925   7.915   4.033
45863W        W11123  34.062   0.216  12.063
45864W        W11124   8.296  32.058   1.325
45865W        W11125   1.847  35.898   1.968
45866W        W11126   3.692  12.701   3.671
45867W        W11127  27.630  18.874  13.091
45868W        W11128  15.200  19.388   4.249
45869W        W11129   3.337  39.604   0.388
45870W        W11130  32.139  11.664   2.130
45871W        W11131  37.266  32.574  11.573
45872W        W11132  28.613  24.574  11.366
45873W        W11133  33.715  21.972   2.738
45874W        W11134  40.081  43.410   1.007
45875W        W11135   7.412  37.003  12.553
45876W        W11136   8.287  33.093  11.409
45877W        W11137  38.038   3.288  12.672
45878W        W11138  44.369   3.244   4.150
45879W        W11139   7.306  29.360   9.827
45880W        W11140  40.381  39.251  10.732
45881W        W11141  16.389  43.759   0.057
45882W        W11142  44.757  40.842  11.168
45883W        W11143  15.256  26.489   0.528
45884W        W11144  21.068  39.402  10.598
45885W        W11145  34.818   2.393   1.069
45886W        W11146  18.309  23.867  12.457
45887W        W11147  43.842   2.420   3.607
45888W        W11148   4.533  35.746  14.639
45889W        W11149  19.640  18.555   4.115
45890W        W11150  38.160  14.889   0.455
45891W        W11151  34.123   4.230   2.184
45892W        W11152  43.929  32.313   4.295
45893W        W11153   0.779  34.834  14.435
45894W        W11154  28.587  37.373   1.890
45895W        W11155   3.460  32.609   0.429
45896W        W11156  36.039  42.443  12.563
45897W        W11157  20.296  21.708   0.895
45898W        W11158  25.329   1.881   0.973
45899W        W11159   9.458  10.630   2.449
45900W        W11160  29.330  34.496  14.498
45901W        W11161  38.886  13.559   0.209
45902W        W11162  38.338  14.132  12.453
45903W        W11163  35.569  22.205   4.650
45904W        W11164  12.722   8.920  14.906
45905W        W11165  13.860  42.102  11.604
45906W        W11166   6.348   5.261   4.305
45907W        W11167   9.624  10.309  13.322
45908W        W11168  11.323   5.438   2.184
45909W        W11169   8.947  14.189  11.542
45910W        W11170  27.399  41.044  13.035
45911W        W11171  13.173   0.408  10.283
45912W        W11172  19.948  37.007   4.736
45913W        W11173  31.484  27.812  11.956
45914W        W11174  35.857  15.414  13.613
45915W        W11175  23.211  15.349  13.082
45916W        W11176  28.355  26.328  10.893
45917W        W11177  18.837  35.461  13.646
45918W        W11178  42.022  42.843  13.875
45919W        W11179  27.757   0.808   3.013
45920W        W11180  42.082  17.068  12.083
45921W        W11181  25.222  17.151  14.418
45922W        W11182   6.302  37.750  10.449
45923W        W11183  31.349  37.044   0.780
45924W        W11184  17.111  27.641  10.735
45925W        W11185  12.420   1.491  10.680
45926W        W11186  38.462  41.253  13.722
45927W        W11187  18.282   7.694   3.264
45928W        W11188  21.049   8.716   0.338
45929W        W11189   2.678  39.835  13.911
45930W        W11190  29.029  37.550   2.430
45931W        W11191  30.691   1.352  11.215
45932W        W11192  33.620  41.282  14.423
45933W        W11193  26.167   2.997  13.295
45934W        W11194   8.861  44.237   5.164
45935W        W11195  19.742  11.303  13.036
45936W        W11196  36.536  30.926   1.235
45937W        W11197  38.263  18.224  11.461
45938W        W11198  11.445  20.224  12.679
45939W        W11199  23.562  17.166   3.053
45940W        W11200  17.847  19.023  11.129
45941W        W11201   0.301   8.642  13.588
45942W        W11202  16.276  41.841  14.951
45943W        W11203  26.912  39.916   1.718
45944W        W11204   0.333   7.152   4.130
45945W        W11205  31.944  28.729  14.507
45946W        W11206   3.931   0.313  11.617
45947W        W11207  40.965  32.350  13.573
45948W        W11208  15.574  18.941   3.676
45949W        W11209   9.756  20.023  12.103
45950W        W11210  28.731  32.521  11.935
45951W        W11211  30.061  32.507   1.131
45952W        W11212  36.448  44.735  14.394
45953W        W11213  18.299  26.205  13.947
45954W        W11214  29.514  24.253   4.512
45955W        W11215   2.460  34.505  10.518
45956W        W11216  40.971  42.486   1.829
45957W        W11217  29.585  13.164   4.614
45958W        W11218   2.483  12.275   4.066
45959W        W11219  13.654  37.966   3.613
45960W        W11220  39.554   4.395  10.295
45961W        W11221  25.588  39.357  14.440
45962W        W11222  20.838  33.992   1.764
45963W        W11223   2.486  27.506  12.878
45964W        W11224  25.106  28.253  12.076
45965W        W11225  21.569  13.078  11.631
45966W        W11226  32.134  10.769   3.880
45967W        W11227  29.628  37.453   4.547
45968W        W11228  14.079  10.779  12.005
45969W        W11229  23.155   7.322  13.391
45970W        W11230  43.447  41.787   2.128
45971W        W11231  27.519  34.970   0.264
45972W        W11232  11.053   7.842  14.283
45973W        W11233  10.941  22.207  11.510
45974W        W11234   3.549  11.959  13.561
45975W        W11235  16.635  23.953  11.540
45976W        W11236  26.329  24.235   2.636
45977W        W11237  16.385  35.657   1.087
45978W        W11238  40.175  23.822   4.635
45979W        W11239  24.048  34.947  13.027
45980W        W11240  28.017  40.784  14.468
45981W        W11241   3.426  27.133  11.206
45982W        W11242  14.889  29.861  11.046
45983W        W11243  41.319  11.073   4.137
45984W        W11244  26.917  20.400  13.991
45985W        W11245  17.019  18.999  12.534
45986W        W11246  11.566  16.417  11.908
45987W        W11247   0.453  38.185   2.071
45988W        W11248  25.087  39.931   2.022
45989W        W11249  31.790  39.446  12.858
45990W        W11250  43.805  40.408  13.422
45991W        W11251   8.830  32.201   0.812
45992W        W11252  23.567  23.052   2.364
45993W        W11253  34.884  27.534   2.434
45994W        W11254  18.613  14.072  12.127
45995W        W11255  42.688   3.191  12.735
45996W        W11256  27.121  11.074   4.532
45997W        W11257  42.654  20.270   0.728
45998W        W11258  28.387  15.623  11.964
45999W        W11259  43.756  21.683  13.299
46000W        W11260  17.646  21.320  12.118
46001W        W11261  24.050   2.736  10.921
46002W        W11262   5.722  32.776   0.211
46003W        W11263  31.065  21.266  13.845
46004W        W11264  37.834  11.202  13.545
46005W        W11265  30.023  21.522   2.949
46006W        W11266  30.103   6.200   4.580
46007W        W11267  14.776  37.959   2.215
46008W        W11268   4.380  39.283   4.553
46009W        W11269  17.673   2.445   4.500
46010W        W11270  12.235  14.899   1.448
46011W        W11271   7.166  24.967  12.981
46012W        W11272  44.772  30.512   2.139
46013W        W11273   2.369  21.934   3.024
46014W        W11274  22.150  27.109   3.659
46015W        W11275  14.820  28.397  10.717
46016W        W11276  16.509   5.000   2.427
46017W        W11277  30.770  22.464  14.433
46018W        W11278  26.337   1.050  12.460
46019W        W11279  32.054  39.719   0.847
46020W        W11280  30.949  17.768   5.016
46021W        W11281   1.825  44.385  13.987
46022W        W11282  22.478  15.052   2.783
46023W        W11283   1.223   7.399  13.060
46024W        W11284  44.218  20.299   3.351
46025W        W11285   3.301  43.709   0.915
46026W        W11286  31.114  12.825   4.080
46027W        W11287  19.488  32.429   1.300
46028W        W11288  35.068  28.460  12.580
46029W        W11289  34.998  31.107  10.652
46030W        W11290  30.976  40.349  10.893
46031W        W11291  23.118  26.052  13.856
46032W        W11292  15.655  38.889   4.243
46033W        W11293  28.550  43.495  10.799
46034W        W11294  31.064   9.982   3.793
46035W        W11295   2.151  16.145   4.401
46036W        W11296  10.345  36.556  14.992
46037W        W11297  33.139  16.007   2.890
46038W        W11298  34.037  26.823   1.068
46039W        W11299  38.562  39.848   2.192
46040W        W11300   2.425   4.005   2.777
46041W        W11301  38.350  44.696   4.102
46042W        W11302  24.664  11.342   4.282
46043W        W11303  15.280   8.011  14.833
46044W        W11304  29.195  25.588  13.648
46045W        W11305  10.598  42.252  14.433
46046W        W11306  30.131   8.702  11.672
46047W        W11307  44.057  15.643   1.460
46048W        W11308  42.613  14.306  13.067
46049W        W11309  20.104  40.219   3.680
46050W        W11310  32.721  20.277  12.949
46051W        W11311  13.357  29.091  14.245
46052W        W11312  13.645  44.107   4.373
46053W        W11313  35.566   9.297  13.434
46054W        W11314  28.404  32.402  11.047
46055W        W11315  28.433   1.594   3.120
46056W        W11316  40.456  27.999   4.232
46057W        W11317  43.783   0.321   0.774
46058W        W11318   8.679  29.492   4.062
46059W        W11319  33.546  43.777  14.698
46060W        W11320   0.521  33.600   4.415
46061W        W11321   1.453   0.380   0.456
46062W        W11322  23.972   3.501   1.770
46063W        W11323  15.532   1.384   2.769
46064W        W11324  36.807  14.211   3.852
46065W        W11325  37.425  11.213   0.954
46066W        W11326  26.432  13.655  12.990
46067W        W11327  32.573   6.172   0.914
46068W        W11328  43.470  11.865   2.670
46069W        W11329  34.613   2.386  12.534
46070W        W11330   5.399  35.631  14.955
46071W        W11331  37.050  27.487  10.383
46072W        W11332  10.365  32.369  12.479
46073W        W11333  33.403  35.524  13.334
46074W        W11334  22.421  12.095  12.037
46075W        W11335   6.387  39.949  11.614
46076W        W11336  41.707  21.612  12.594
46077W        W11337  15.292  12.566  11.902
46078W        W11338  42.460  30.271   1.419
46079W        W11339   9.885  40.886  13.317
46080W        W11340  15.080   2.818   4.569
46081W        W11341  20.514  28.042  14.472
46082W        W11342  31.464  40.538   4.051
46083W        W11343  34.181   7.187   0.791
46084W        W11344  29.560  27.103  13.373
46085W        W11345  36.052   7.681   2.909
46086W        W11346  20.526  23.546   1.670
46087W        W11347  15.115  34.561  11.118
46088W        W11348  25.700  24.063   0.779
46089W        W11349  32.789   2.363   1.199
46090W        W11350   0.335  39.521  13.061
46091W        W11351  35.080  24.007   1.315
46092W        W11352  32.011  17.760  13.796
46093W        W11353  38.052  10.249   0.809
46094W        W11354  23.062  14.336   4.092
46095W        W11355  20.860  13.272   0.427
46096W        W11356   3.668  40.187   1.799
46097W        W11357  42.191   0.737  14.996
46098W        W11358  29.873  21.584  13.573
46099W        W11359  41.789  15.958   5.049
46100W        W11360  44.389   8.696   0.206
46101W        W11361  29.234  41.748  13.883
46102W        W11362  27.717  21.869  14.880
46103W        W11363  36.000  13.578  12.535
46104W        W11364  27.420  24.291  13.919
46105W        W11365  42.373   8.691  13.101
46106W        W11366  38.909   6.868  14.622
46107W        W11367   4.321  21.703  13.328
46108W        W11368   2.768  34.687   0.723
46109W        W11369  22.235  11.654   4.601
46110W        W11370   0.418  32.514  13.379
46111W        W11371  43.291   6.369   3.171
46112W        W11372   0.812  12.855  14.350
46113W        W11373  34.318  41.653  12.049
46114W        W11374  18.158  18.500   1.979
46115W        W11375  19.977   8.145   2.793
46116W        W11376   2.290   9.937   1.727
46117W        W11377  28.420  42.382   3.695
46118W        W11378  18.425  17.819  14.899
46119W        W11379  32.598   2.288   4.224
46120W        W11380  23.566  28.607   1.620
46121W        W11381  32.407   4.273   0.080
46122W        W11382   2.850   6.818  13.921
46123W        W11383  10.111  34.630   2.705
46124W        W11384   5.374   5.604  12.339
46125W        W11385   4.244   3.310  13.678
46126W        W11386  14.812   9.778  12.517
46127W        W11387  29.899  43.212  11.980
46128W        W11388  12.386   6.978   0.490
46129W        W11389  25.059  29.183  10.682
46130W        W11390  21.993  23.273   0.205
46131W        W11391   8.621   1.893   2.313
46132W        W11392  40.408  33.130  14.812
46133W        W11393   1.927  29.871  14.053
46134W        W11394  44.914  11.702  11.779
46135W        W11395  27.399  27.663   1.301
46136W        W11396  32.195  31.243   2.038
46137W        W11397   9.307   9.166   0.190
46138W        W11398   7.395  10.132   4.877
46139W        W11399  35.363  13.604   1.953
46140W        W11400  39.116   0.458  12.955
46141W        W11401  43.746   9.766   5.171
46142W        W11402  43.537  28.618   4.570
46143W        W11403  35.843   6.342   0.475
46144W        W11404   1.428  19.600  14.308
46145W        W11405  22.709  14.426   5.036
46146W        W11406   5.464  32.405  13.859
46147W        W11407  23.078  39.090   4.067
46148W        W11408  29.118   8.958  14.990
46149W        W11409   6.368  19.980  14.826
46150W        W11410   6.868  44.998   3.664
46151W        W11411  40.499   6.249  11.607
46152W        W11412   2.508  11.333   4.136
46153W        W11413  11.265  24.421   3.736
46154W        W11414  11.815  30.093  11.139
46155W        W11415  37.842  19.280   1.063
46156W        W11416  35.227  42.973  11.632
46157W        W11417  20.722   8.682   1.255
46158W        W11418  14.094  36.136   3.274
46159W        W11419   4.464   4.627   0.686
46160W        W11420  41.593  28.743   0.201
46161W        W11421   3.322  16.172  13.464
46162W        W11422  15.824  12.591   4.017
46163W        W11423  40.784  40.135   2.722
46164W        W11424   5.179  36.729   3.104
46165W        W11425   2.801  22.269  13.427
46166W        W11426  34.083  26.111  14.906
46167W        W11427  12.194  14.214   3.783
46168W        W11428  29.215  15.620   4.701
46169W        W11429  35.957  12.364  10.686
46170W        W11430  35.483  30.904  12.121
46171W        W11431  36.399  23.238  14.829
46172W        W11432  24.783  39.895  11.539
46173W        W11433   2.109  11.802  12.243
46174W        W11434  29.901  15.822  14.446
46175W        W11435   7.889  28.459   2.199
46176W        W11436  21.695   0.153   2.366
46177W        W11437  24.783  17.130  13.464
46178W        W11438  32.053  33.968   0.261
46179W        W11439  36.126  43.293  14.047
46180W        W11440  12.337  44.315   4.577
46181W        W11441   1.503  29.660   0.917
46182W        W11442  21.251  24.155   1.274
46183W        W11443  22.102  44.524   4.297
46184W        W11444   2.037  24.960  12.526
46185W        W11445  14.293  28.926  10.808
46186W        W11446  32.978   6.431   4.846
46187W        W11447  20.299  27.013   0.526
46188W        W11448  21.788   4.602  14.001
46189W        W11449  44.824  10.857   0.276
46190W        W11450  19.096  24.618   2.307
46191W        W11451  32.247  43.266   0.490
46192W        W11452  16.571  41.238  14.172
46193W        W11453  29.794  33.404   0.290
46194W        W11454  40.297  20.109   2.275
46195W        W11455   1.949  13.245   2.935
46196W        W11456  43.419  14.278   4.308
46197W        W11457  25.310  31.112   0.330
46198W        W11458  44.243  21.526   4.096
46199W        W11459  30.204  29.700  11.025
46200W        W11460  42.797  10.656  12.335
46201W        W11461  23.487  11.766  10.768
46202W        W11462  34.209   0.213  12.916
46203W        W11463  18.643  22.548  11.128
46204W        W11464  29.447  12.654   2.666
46205W        W11465   1.375  32.463   5.080
46206W        W11466   8.360  10.268   1.126
46207W        W11467  36.845  15.707  14.493
46208W        W11468  21.089   3.010  11.106
46209W        W11469  43.572  12.408  14.461
46210W        W11470  33.015  12.101   1.778
46211W        W11471  32.510  18.774   1.703
46212W        W11472  30.078  23.431   2.728
46213W        W11473  28.075  20.029  12.874
46214W        W11474  35.356  35.628  13.857
46215W        W11475  41.101   6.422   2.608
46216W        W11476  43.896   7.361  14.549
46217W        W11477  23.449  10.238   1.757
46218W        W11478  26.618  11.129  13.956
46219W        W11479  19.070  39.947  10.668
46220W        W11480  19.775  33.464   0.889
46221W        W11481  17.775   9.372  11.059
46222W        W11482  14.767  27.865  14.293
46223W        W11483  29.515  44.788  14.841
46224W        W11484  41.230   1.467  11.008
46225W        W11485  15.255   1.794   2.670
46226W        W11486   4.084  24.104   0.694
46227W        W11487   8.185  23.258  11.482
46228W        W11488  23.056  37.923   2.618
46229W        W11489   4.324  15.158   3.053
46230W        W11490  18.562   1.766  14.888
46231W        W11491  36.907  44.667  12.550
46232W        W11492  38.410  23.631  13.297
46233W        W11493   7.432  25.508   2.838
46234W        W11494  17.191  27.480  14.291
46235W        W11495   7.427  34.041  13.494
46236W        W11496   6.920  22.236   0.943
46237W        W11497  15.525  42.346   4.107
46238W        W11498  13.794  31.406  14.067
46239W        W11499  36.769  20.158  12.948
46240W        W11500  31.391  34.511  11.910
46241W        W11501  30.920  11.380  14.059
46242W        W11502  12.444   9.855  11.228
46243W        W11503   2.723  39.320   2.610
46244W        W11504  21.309  26.651  11.581
46245W        W11505  12.054   4.768   0.477
46246W        W11506  20.269  13.346   4.585
46247W        W11507  23.149  22.514   2.697
46248W        W11508  30.343  29.416  13.457
46249W        W11509  36.144  18.152   1.965
46250W        W11510  18.330   4.923   0.747
46251W        W11511  18.946  29.705  10.328
46252W        W11512  37.852  16.809   0.756
46253W        W11513  33.934  32.583   3.668
46254W        W11514   0.265  31.616   0.475
46255W        W11515  40.897   1.712  10.539
46256W        W11516   6.661  44.875  14.523
46257W        W11517  40.377   3.337   4.346
46258W        W11518  43.279  16.038  13.236
46259W        W11519  33.420  39.551  12.814
46260W        W11520   1.765   5.279  12.545
46261W        W11521  31.848  39.822  12.514
46262W        W11522   3.048   6.378   1.865
46263W        W11523  33.267  24.075  14.020
46264W        W11524  13.825  33.351  13.387
46265W        W11525   8.122   0.316   0.231
46266W        W11526   6.313  31.388  12.434
46267W        W11527  43.113   0.227  11.485
46268W        W11528  15.621  42.481  12.351
46269W        W11529  16.663   4.988  14.283
46270W        W11530  43.343   7.707   1.269
46271W        W11531  40.239   6.872   4.169
46272W        W11532  43.042  42.024   1.391
46273W        W11533  29.596   9.766  13.646
46274W        W11534  39.739  10.754  11.529
46275W        W11535   1.513  27.487   3.668
46276W        W11536   6.389  13.350   0.851
46277W        W11537  21.038  37.955   2.802
46278W        W11538  15.009   4.294   3.653
46279W        W11539  12.710  20.604   3.842
46280W        W11540   4.424  11.340   3.656
46281W        W11541   0.394  22.140  14.417
46282W        W11542   9.855  42.496  13.857
46283W        W11543  32.485   0.797   3.227
46284W        W11544  20.571  22.125  14.094
46285W        W11545   6.479  28.513   3.587
46286W        W11546  15.832   4.648   3.633
46287W        W11547  31.441  21.519  13.277
46288W        W11548  34.607  13.777  13.059
46289W        W11549  32.764  13.214   1.476
46290W        W11550   1.380  20.541   2.020
46291W        W11551  10.185  12.699  14.493
46292W        W11552  22.629  26.754   0.672
46293W        W11553  14.549  36.088  13.992
46294W        W11554  41.058   0.248  11.615
46295W        W11555  22.671  27.209  14.039
46296W        W11556  26.670  14.717   3.689
46297W        W11557  13.697  19.401  10.482
46298W        W11558   9.807   5.989  14.864
46299W        W11559  22.215  40.868  10.640
46300W        W11560   2.867  22.970   1.898
46301W        W11561  30.160  36.816   1.377
46302W        W11562  40.935  33.090  14.974
46303W        W11563  30.188  32.340   2.583
46304W        W11564  37.058  32.613  12.435
46305W        W11565   1.466  38.423  14.054
46306W        W11566   6.220   4.003   1.261
46307W        W11567   4.320   7.769   0.193
46308W        W11568  13.600  27.053   1.450
46309W        W11569  42.462  24.104   3.396
46310W        W11570  28.867  32.406  13.578
46311W        W11571   7.806  11.148   4.436
46312W        W11572   3.269  29.917   1.324
46313W        W11573  44.435   9.155  13.807
46314W        W11574   7.497  30.384  14.858
46315W        W11575  42.200  37.577   2.270
46316W        W11576   6.255  14.254  10.722
46317W        W11577   5.319   7.242   4.906
46318W        W11578  34.454   7.846  10.577
46319W        W11579   7.876  34.913  11.621
46320W        W11580  10.730  11.752   2.887
46321W        W11581  34.860  32.575   1.204
46322W        W11582  44.581  40.465   3.387
46323W        W11583  24.026  37.523   4.546
46324W        W11584  32.919  25.969   0.986
46325W        W11585   7.190   3.465   2.323
46326W        W11586   5.653   9.446  14.128
46327W        W11587  44.441  44.259  12.116
46328W        W11588   8.890  31.993  14.456
46329W        W11589   6.279  20.003   1.859
46330W        W11590  42.967  17.305  10.837
46331W        W11591  42.580   7.318   0.473
46332W        W11592   8.789  14.466  10.716
46333W        W11593  32.005  37.436  13.773
46334W        W11594  43.759  26.651   2.110
46335W        W11595  22.425  38.988   3.257
46336W        W11596  23.160  13.705   4.531
46337W        W11597  31.946  39.225   4.626
46338W        W11598   6.917  42.608   1.204
46339W        W11599  44.602  14.644   2.283
46340W        W11600  28.389  16.329  13.494
46341W        W11601   9.537  26.609  13.502
46342W        W11602  34.183  42.381  13.547
46343W        W11603  24.426  27.125  11.611
46344W        W11604  30.432   5.776  14.474
46345W        W11605  25.014  19.598  14.500
46346W        W11606  12.738  39.450   0.252
46347W        W11607  20.267  32.216  14.948
46348W        W11608  17.098  31.279   4.070
46349W        W11609  40.437  43.729   0.289
46350W        W11610   4.292   2.368   0.439
46351W        W11611  36.980  25.935   2.193
46352W        W11612  43.032   6.569  13.822
46353W        W11613  34.857  31.393  11.436
46354W        W11614  21.023  11.095  10.629
46355W        W11615  16.166  19.718   3.149
46356W        W11616  10.147  13.753   4.263
46357W        W11617  14.511  37.523  11.100
46358W        W11618   9.904  10.344   2.252
46359W        W11619  30.481  43.437   0.874
46360W        W11620  26.944  35.599  13.334
46361W        W11621  29.933  29.680  12.208
46362W        W11622   5.275  24.760   4.047
46363W        W11623  24.728  40.513  13.825
46364W        W11624  25.764  29.849  14.996
46365W        W11625   9.923  16.799   3.171
46366W        W11626  24.332  28.043   3.080
46367W        W11627  18.952  43.312   3.608
46368W        W11628  30.078  37.094  10.667
46369W        W11629   4.323  28.549   1.751
46370W        W11630  14.906  22.126   1.518
46371W        W11631   7.930  43.633   2.328
46372W        W11632   1.295   3.857  12.129
46373W        W11633  28.029  19.236   0.277
46374W        W11634   2.055  11.774  11.018
46375W        W11635   5.264  18.642  12.644
46376W        W11636  24.803   0.551   0.419
46377W        W11637  43.937  16.277   0.765
46378W        W11638  26.088  21.657   1.786
46379W        W11639  31.392   7.391  14.066
46380W        W11640  44.328  37.490   1.940
46381W        W11641  35.435  24.360   1.665
46382W        W11642  14.548  17.799   2.232
46383W        W11643   4.331  32.003  10.853
46384W        W11644  21.204  12.715   1.235
46385W        W11645  19.736  19.782   0.744
46386W        W11646   2.285  14.327  11.912
46387W        W11647  10.791  30.574  13.070
46388W        W11648  24.848  20.779  13.342
46389W        W11649  38.559  24.082  10.715
46390W        W11650   4.342  38.912  10.362
46391W        W11651  18.773  25.045  13.880
46392W        W11652   8.185   8.673  14.845
46393W        W11653  39.391   3.825   3.066
46394W        W11654  22.630  19.850  11.174
46395W        W11655  37.156  41.608  13.802
46396W        W11656  30.912  43.328  11.907
46397W        W11657  16.730   0.973  13.813
46398W        W11658  40.912   1.288  13.517
46399W        W11659   2.411  26.061  12.545
46400W        W11660  27.083  39.868   3.572
46401W        W11661  37.977  27.371   0.732
46402W        W11662  24.423  27.250  13.404
46403W        W11663  41.869  13.117   3.267
46404W        W11664  18.983  43.922  10.754
46405W        W11665  15.753   5.154   4.496
46406W        W11666  27.262  19.604  12.441
46407W        W11667  20.635  34.082  11.176
46408W        W11668   3.246  43.336   2.351
46409W        W11669  34.439   4.514  13.421
46410W        W11670   2.534  25.519   2.885
46411W        W11671  10.359  23.274  14.221
46412W        W11672   7.658  36.389   0.388
46413W        W11673  43.102   8.879   3.736
46414W        W11674  33.071  32.776   2.153
46415W        W11675  23.226  43.876  13.760
46416W        W11676   7.031  40.847   0.076
46417W        W11677   2.039  38.804  11.999
46418W        W11678   9.458   5.320   4.943
46419W        W11679   6.939  32.849   2.390
46420W        W11680  15.856  21.131  14.779
46421W        W11681  38.353  35.936  14.438
46422W        W11682  12.319  12.701  10.343
46423W        W11683   2.952  22.712   4.097
46424W        W11684   9.776  18.540  11.979
46425W        W11685   3.196   1.495   1.619
46426W        W11686   6.805  17.571  11.582
46427W        W11687  12.907  10.427   5.430
46428W        W11688   0.323  36.321   3.715
46429W        W11689  29.368  27.434  14.554
46430W        W11690  21.089   8.287  12.306
46431W        W11691  26.640  41.472   4.139
46432W        W11692  34.422   4.302  11.593
46433W        W11693  36.981   9.848   1.066
46434W        W11694  19.186   3.364   1.778
46435W        W11695  26.580  20.201   2.114
46436W        W11696   5.714  36.253   2.864
46437W        W11697   9.333  44.656   3.704
46438W        W11698  21.722  21.972  12.475
46439W        W11699  30.861  32.600  12.627
46440W        W11700  20.193  27.710   2.412
46441W        W11701  37.743  28.174  11.751
46442W        W11702  36.364  10.987  12.567
46443W        W11703  36.559   7.372  12.630
46444W        W11704  44.868  42.545   3.216
46445W        W11705  34.529  11.850   2.746
46446W        W11706  12.810  10.774  12.981
46447W        W11707  17.611   0.804   3.287
46448W        W11708   2.720  37.929  13.885
46449W        W11709  21.079  23.749  10.762
46450W        W11710  40.016  11.745   1.298
46451W        W11711  31.288  13.589   1.718
46452W        W11712   3.380   2.599   0.817
46453W        W11713  12.674  26.231   3.123
46454W        W11714  43.465   9.734  11.089
46455W        W11715  40.885  23.995  14.988
46456W        W11716   6.225  10.844   2.870
46457W        W11717  32.351   6.126  11.051
46458W        W11718  40.784  41.944   0.392
46459W        W11719  37.958  32.149   0.335
46460W        W11720  26.006  24.661  13.028
46461W        W11721  14.856   3.776   3.726
46462W        W11722  44.346   3.845  13.601
46463W        W11723   4.893  18.651  10.867
46464W        W11724   1.234  10.131  11.716
46465W        W11725  23.605  22.025   0.227
46466W        W11726  19.065  31.508   4.155
46467W        W11727  21.782  34.422  11.577
46468W        W11728  43.701  16.255  14.933
46469W        W11729  41.590  44.505  14.726
46470W        W11730  27.964  41.026  11.229
46471W        W11731  27.072   0.338   4.012
46472W        W11732   2.522  21.097  13.487
46473W        W11733  41.984  44.248  13.985
46474W        W11734  31.835  22.050   3.771
46475W        W11735   9.777   7.333  13.745
46476W        W11736  27.935  14.180  12.473
46477W        W11737  42.090  26.920   3.890
46478W        W11738  40.819  27.723   2.791
46479W        W11739  11.222  11.780   2.229
46480W        W11740   4.175  26.133  14.843
46481W        W11741  30.377  19.785  11.560
46482W        W11742  44.336  34.498   1.365
46483W        W11743   2.803  24.049   1.624
46484W        W11744  39.498  29.327   1.366
46485W        W11745  27.809   5.675  13.116
46486W        W11746   1.435  23.775   5.023
46487W        W11747   7.815  39.408  14.613
46488W        W11748  14.914   8.312  13.995
46489W        W11749   9.365  20.775  10.613
46490W        W11750  39.040  12.406   0.584
46491W        W11751  11.825  23.473   1.945
46492W        W11752   1.716  17.576  11.640
46493W        W11753  44.320  37.786   2.870
46494W        W11754   9.638  22.279   4.263
46495W        W11755  20.216  16.709  12.899
46496W        W11756  41.522  27.456  11.158
46497W        W11757  18.634  24.988  12.491
46498W        W11758  37.387  20.087   1.015
46499W        W11759  30.028   8.882  14.513
46500W        W11760   3.567  26.258   3.774
46501W        W11761  38.864  10.751  10.692
46502W        W11762  19.262   4.799   2.866
46503W        W11763  42.057   8.304  11.555
46504W        W11764   5.495   5.037   3.316
46505W        W11765   5.625  29.671   1.263
46506W        W11766  40.803   4.359   4.047
46507W        W11767  31.533  28.511  14.736
46508W        W11768  39.340  41.882   3.198
46509W        W11769  31.353  40.652   4.867
46510W        W11770  17.335  31.144  11.181
46511W        W11771  42.372  32.782  10.857
46512W        W11772   7.355  18.486   3.124
46513W        W11773  15.228  28.702   1.821
46514W        W11774   6.335  39.122   1.165
46515W        W11775   3.296  11.125  13.621
46516W        W11776   0.307  17.081   0.743
46517W        W11777  44.245  32.109  13.885
46518W        W11778  11.306  13.888   3.587
46519W        W11779   9.281   6.839  14.793
46520W        W11780   2.235  12.504  14.768
46521W        W11781   4.427  33.975   2.075
46522W        W11782  39.288  21.016   3.257
46523W        W11783  36.554  24.577   3.339
46524W        W11784  11.803  25.216   4.434
46525W        W11785   9.210  11.019   4.912
46526W        W11786  37.944   6.208   1.806
46527W        W11787  15.402  28.747   9.808
46528W        W11788   0.648  41.983   4.197
46529W        W11789  12.249  36.590   1.376
46530W        W11790  13.382  22.179  10.745
46531W        W11791  40.439  38.346   1.165
46532W        W11792  43.053  41.339  14.359
46533W        W11793  29.618  33.049   3.248
46534W        W11794  30.669  32.649  13.958
46535W        W11795  15.085  43.534  13.923
46536W        W11796   0.816   3.862   1.658
46537W        W11797  41.418  38.207  13.911
46538W        W11798  36.290  36.579   0.551
46539W        W11799  18.500  38.923  13.368
46540W        W11800  38.294  13.244  14.487
46541W        W11801  34.677  27.664   3.599
46542W        W11802  23.777  21.989  13.434
46543W        W11803  21.278  33.393  14.004
46544W        W11804  27.867  23.136  11.641
46545W        W11805  14.094   4.783   2.596
46546W        W11806  24.571  24.953  14.103
46547W        W11807  42.035  17.247  10.786
46548W        W11808  28.232   3.858  11.528
46549W        W11809   4.228  22.496  13.961
46550W        W11810  14.306   5.975  13.110
46551W        W11811  38.092  20.460   4.519
46552W        W11812  24.725  44.545  13.756
46553W        W11813   2.147   9.692  14.025
46554W        W11814   6.064  30.085   3.186
46555W        W11815  35.914  31.640   0.753
46556W        W11816  21.695  28.479  14.737
46557W        W11817  44.016  22.057  14.410
46558W        W11818  19.466  36.855   4.246
46559W        W11819  36.232  41.881  13.793
46560W        W11820   8.398   5.186   3.791
46561W        W11821  11.284  23.031  14.298
46562W        W11822  37.144  13.621   0.352
46563W        W11823  22.831  20.089   3.576
46564W        W11824  27.920  26.563  14.832
46565W        W11825   0.947  28.983  10.702
46566W        W11826  40.916  20.636   1.719
46567W        W11827  32.042  12.802  12.613
46568W        W11828  10.820  43.092  10.298
46569W        W11829  40.501  17.962  11.562
46570W        W11830  25.585  35.238   4.089
46571W        W11831   1.776  41.181   0.274
46572W        W11832   4.037  11.749   0.239
46573W        W11833  17.771  24.296   1.925
46574W        W11834  16.564  30.572   2.762
46575W        W11835  28.675  43.290  12.549
46576W        W11836  35.517  29.340   3.338
46577W        W11837  31.445  30.809  10.874
46578W        W11838  14.760  30.701   1.379
46579W        W11839  19.171  10.645   1.610
46580W        W11840   7.416  36.318   3.260
46581W        W11841  17.104  35.112  10.639
46582W        W11842  31.702   1.897  14.370
46583W        W11843   0.829  28.853  11.718
46584W        W11844  36.792   4.418   1.727
46585W        W11845  43.324  22.724  11.066
46586W        W11846  30.562   7.348  10.453
46587W        W11847  36.208  37.042  12.964
46588W        W11848  19.716   6.186   1.834
46589W        W11849  24.640   1.742  14.775
46590W        W11850   8.888   4.909  12.430
46591W        W11851   8.224  44.964  11.120
46592W        W11852  13.136  39.878  11.596
46593W        W11853   7.943  35.042   0.708
46594W        W11854  12.644  44.286   0.820
46595W        W11855   6.175  19.493   1.774
46596W        W11856  24.580  40.773  11.587
46597W        W11857  13.859  32.294   5.072
46598W        W11858   0.678  23.024  13.579
46599W        W11859  35.109  12.493   0.366
46600W        W11860  30.946  35.660   3.891
46601W        W11861  21.104  18.787   4.670
46602W        W11862  35.440  16.316   0.184
46603W        W11863   8.869  15.662   0.992
46604W        W11864  21.221  11.259   1.313
46605W        W11865  27.642  18.007  10.501
46606W        W11866  14.772   8.759  13.410
46607W        W11867  34.095  16.220  14.754
46608W        W11868  10.842  38.512   4.063
46609W        W11869   4.237  39.738  14.265
46610W        W11870  25.793  19.753   4.734
46611W        W11871  22.426  34.505   4.066
46612W        W11872  43.071   9.730  10.237
46613W        W11873  34.978   8.898   2.905
46614W        W11874  20.281   9.650   4.526
46615W        W11875  28.749   1.474  11.555
46616W        W11876   4.695  28.448  12.471
46617W        W11877   1.441   9.638   2.239
46618W        W11878  19.062  26.218  11.945
46619W        W11879  29.634  10.934   1.676
46620W        W11880  40.371  26.685  12.782
46621W        W11881  23.694  31.123   3.788
46622W        W11882   0.758  11.793   2.715
46623W        W11883  20.550  17.835   2.536
46624W        W11884  10.349  42.025  12.486
46625W        W11885  42.498  22.595  12.413
46626W        W11886  42.342  28.653  12.705
46627W        W11887  38.577  29.574   2.438
46628W        W11888  22.132  31.839   2.404
46629W        W11889  25.012  37.931  14.553
46630W        W11890  42.472  40.713  10.367
46631W        W11891  30.384  34.402  10.999
46632W        W11892  43.644   5.339  13.504
46633W        W11893  23.024   1.284  13.029
46634W        W11894  25.723   5.924  10.125
46635W        W11895   0.715   4.190   3.680
46636W        W11896   5.304  26.665  12.840
46637W        W11897   9.325  20.243   3.257
46638W        W11898  19.239  23.805   9.717
46639W        W11899  17.236  24.957  12.141
46640W        W11900  25.673  36.943  10.688
46641W        W11901  42.716  19.822   3.856
46642W        W11902  36.887  14.083   0.380
46643W        W11903  37.263   5.308   0.271
46644W        W11904  33.519   2.328   3.205
46645W        W11905  44.014   0.958  11.906
46646W        W11906  17.905  21.755   5.190
46647W        W11907  28.010   2.566  10.704
46648W        W11908  30.332  42.278   1.164
46649W        W11909   0.488  24.057   3.189
46650W        W11910  19.134   9.926  12.591
46651W        W11911  25.175  24.079  10.610
46652W        W11912   0.021   3.227  14.495
46653W        W11913  34.813   5.877  10.664
46654W        W11914  12.471  36.117  14.120
46655W        W11915   7.731  44.330  11.685
46656W        W11916  34.703  15.372  14.900
46657W        W11917   1.303  15.895  10.178
46658W        W11918  24.777  18.702   2.607
46659W        W11919  25.497  32.858  12.376
46660W        W11920   6.581  12.704  12.653
46661W        W11921  35.830  40.841  14.532
46662W        W11922  30.122  34.453   1.919
46663W        W11923   0.030  35.311   4.215
46664W        W11924  43.476  17.921  12.378
46665W        W11925  20.604   8.638   3.600
46666W        W11926   3.782   4.619  14.370
46667W        W11927  31.909  38.857  14.795
46668W        W11928  20.767  34.689  14.803
46669W        W11929  18.056  36.222  11.636
46670W        W11930  25.696  20.276  13.719
46671W        W11931  15.141  16.012   4.807
46672W        W11932  33.902  21.493   2.871
46673W        W11933  14.172  14.270   0.869
46674W        W11934  40.408   1.505  14.290
46675W        W11935  25.754   0.510   4.561
46676W        W11936  13.404   2.912  14.340
46677W        W11937  35.585  19.710   0.799
46678W        W11938  17.225  39.307   2.798
46679W        W11939  19.539  35.475   9.847
46680W        W11940  34.095  43.285   4.714
46681W        W11941  13.900  19.951   1.802
46682W        W11942  11.602   7.688  14.922
46683W        W11943  16.335  40.745   1.345
46684W        W11944  44.412  37.602  11.009
46685W        W11945  42.042   5.729   4.597
46686W        W11946   3.918  43.471   2.717
46687W        W11947  21.185  21.145  11.260
46688W        W11948   2.488  10.201   4.981
46689W        W11949  43.371  32.675   3.096
46690W        W11950  31.205  44.410   4.145
46691W        W11951  36.183  23.714  14.763
46692W        W11952  26.151  38.950   4.697
46693W        W11953  18.275  43.374   2.223
46694W        W11954  13.751  43.244   0.409
46695W        W11955  35.094   4.807  13.849
46696W        W11956  41.800  25.480   0.365
46697W        W11957  11.213  33.997  11.434
46698W        W11958  17.324  33.026   4.101
46699W        W11959  31.070   1.658  11.974
46700W        W11960  21.665  34.767  10.708
46701W        W11961  35.119  20.127   3.338
46702W        W11962  16.070   1.991  14.216
46703W        W11963  19.614  23.833  13.109
46704W        W11964  23.670  21.747   4.221
46705W        W11965   1.195  21.956   2.648
46706W        W11966  11.626  35.340  11.540
46707W        W11967  30.905  15.807  10.201
46708W        W11968  27.411   5.986  12.778
46709W        W11969  15.320  10.908  12.903
46710W        W11970   4.078  21.154  11.971
46711W        W11971  19.686  39.723   1.266
46712W        W11972  29.562   9.614  10.635
46713W        W11973  33.986   3.344  10.435
46714W        W11974  14.845  24.490  11.458
46715W        W11975   6.392  15.530  14.224
46716W        W11976  31.912  12.333  10.147
46717W        W11977  14.238   4.641  13.204
46718W        W11978  12.342  44.592   0.482
46719W        W11979   9.686  43.835   1.921
46720W        W11980  24.766  18.811   0.111
46721W        W11981  31.660  16.476   1.946
46722W        W11982  22.705   8.900   1.767
46723W        W11983   5.405   7.914  13.330
46724W        W11984  12.549  25.557   2.639
46725W        W11985  30.148   2.407   4.117
46726W        W11986   1.549  30.567  11.217
46727W        W11987  24.556  11.729  14.024
46728W        W11988  14.152   7.383   0.401
46729W        W11989  14.688  32.564  10.667
46730W        W11990  29.033  43.809  11.961
46731W        W11991  38.320  31.662  14.462
46732W        W11992  37.254   8.838   4.680
46733W        W11993   0.704   7.033  12.405
46734W        W11994  30.903   4.720  13.448
46735W        W11995  31.029   5.813   4.651
46736W        W11996  25.595  32.669   0.747
46737W        W11997  40.101  26.941  12.378
46738W        W11998   7.479  17.266   0.253
46739W        W11999  19.212  44.727  11.348
46740W        W12000   8.965  15.981   1.839
46741W        W12001   5.154   6.922  13.391
46742W        W12002   7.687  16.552  13.265
46743W        W12003   9.342   0.789   3.682
46744W        W12004   6.395   0.029  12.506
46745W        W12005   4.658  11.865  12.118
46746W        W12006  12.659  37.632   3.251
46747W        W12007  15.899   7.555  13.482
46748W        W12008  25.952  32.245   1.122
46749W        W12009  19.740  19.988  14.884
46750W        W12010  44.847  39.477   4.159
46751W        W12011  42.296  27.696  12.462
46752W        W12012  10.854  18.115  13.473
46753W        W12013   6.244  35.372   1.325
46754W        W12014   2.240  37.882   3.677
46755W        W12015  43.680  43.785   2.157
46756W        W12016  23.555  11.451  11.179
46757W        W12017   0.497   7.337   4.648
46758W        W12018  13.684  27.077   2.497
46759W        W12019  19.111  27.067  10.896
46760W        W12020  35.358   9.852   4.016
46761W        W12021  10.871  31.014   1.876
46762W        W12022  24.070  44.468  10.881
46763W        W12023  30.470   2.632   5.082
46764W        W12024  20.251  32.038  14.439
46765W        W12025  11.951  19.807  13.485
46766W        W12026   7.414   0.236  10.738
46767W        W12027   7.433  22.435   4.518
46768W        W12028  35.926  33.588  11.189
46769W        W12029   0.657  21.277   0.841
46770W        W12030  12.464  31.566   2.818
46771W        W12031  30.468   6.182   0.282
46772W        W12032   5.754  26.772  13.085
46773W        W12033  26.556  43.915  10.132
46774W        W12034   4.324  29.453   0.759
46775W        W12035  13.113  39.054   2.408
46776W        W12036  18.034  22.837   3.692
46777W        W12037  12.363   3.817   0.754
46778W        W12038  28.138  19.089   2.074
46779W        W12039  42.094  20.018   4.246
46780W        W12040  29.910  37.875   4.219
46781W        W12041  35.208  32.201   1.324
46782W        W12042  28.140  33.642  13.000
46783W        W12043  11.362  20.845  10.716
46784W        W12044   2.494  34.407   9.989
46785W        W12045  43.056  19.581   2.894
46786W        W12046  17.987   3.540   4.086
46787W        W12047  27.551   1.815  12.922
46788W        W12048   8.164  24.690  10.951
46789W        W12049  36.048  11.824  12.248
46790W        W12050   0.897  14.337   0.416
46791W        W12051   9.219  15.526   0.149
46792W        W12052  32.870  38.100   0.539
46793W        W12053  30.800   4.202   3.163
46794W        W12054  26.099   4.585   1.372
46795W        W12055  43.867   6.852   4.637
46796W        W12056  27.318   0.744  12.432
46797W        W12057  10.911  33.536  11.488
46798W        W12058  34.548  41.734  11.442
46799W        W12059   7.999   6.798  10.242
46800W        W12060  31.619  21.436  12.747
46801W        W12061  14.445   4.788   4.117
46802W        W12062  34.352  27.490  12.100
46803W        W12063  30.712  40.525   1.274
46804W        W12064   5.176  43.737  11.728
46805W        W12065  17.944   3.904   0.721
46806W        W12066  29.971  30.486  12.594
46807W        W12067   7.076  14.496   3.596
46808W        W12068  41.176  17.059  12.094
46809W        W12069   0.761  22.074   2.891
46810W        W12070  17.702  29.558   0.384
46811W        W12071  23.173  11.506  13.481
46812W        W12072  12.370  25.543   1.517
46813W        W12073  12.724  20.145   3.587
46814W        W12074   3.757  24.569  14.484
46815W        W12075   7.244  44.914   4.773
46816W        W12076  44.391  11.940  14.113
46817W        W12077  43.193  27.190   1.152
46818W        W12078  32.496  14.098  13.419
46819W        W12079   2.756  43.383  11.523
46820W        W12080  31.843  34.348  13.541
46821W        W12081  15.704  31.535   3.039
46822W        W12082  24.756   3.670   2.526
46823W        W12083  28.231  22.817   1.284
46824W        W12084   4.010   0.750  12.959
46825W        W12085  36.257  11.601   1.739
46826W        W12086  22.643  34.977   1.645
46827W        W12087  42.299  33.933  12.054
46828W        W12088  26.516   8.480   1.436
46829W        W12089  22.149  38.290   2.766
46830W        W12090   5.841  13.734   2.324
46831W        W12091  33.135  16.689  11.167
46832W        W12092  12.762  23.948   3.681
46833W        W12093  28.758  21.489  11.020
46834W        W12094   6.777  40.023  13.778
46835W        W12095   5.474  17.053   4.205
46836W        W12096  30.366  37.802  14.807
46837W        W12097  43.974  26.099   4.037
46838W        W12098   5.697   6.289  12.042
46839W        W12099  16.850  30.927   0.883
46840W        W12100  16.062  24.024   3.256
46841W        W12101  35.783  13.772  13.063
46842W        W12102   1.556   8.311  13.001
46843W        W12103  34.563  41.973   4.569
46844W        W12104  10.659  12.652   1.695
46845W        W12105  22.237   3.238   3.634
46846W        W12106  23.277   8.382  13.253
46847W        W12107   9.693  34.959  13.251
46848W        W12108  11.492  26.981  14.816
46849W        W12109  14.756   2.489   0.882
46850W        W12110   4.889  28.518   2.441
46851W        W12111  43.533  44.199   3.692
46852W        W12112   4.350  41.120   0.837
46853W        W12113  25.150  18.405  12.071
46854W        W12114  34.654   0.949  12.937
46855W        W12115  23.687  16.549  12.805
46856W        W12116  42.322  39.835  12.094
46857W        W12117   6.872  16.744   3.238
46858W        W12118  11.737  27.252  14.411
46859W        W12119  10.384   1.693   2.344
46860W        W12120  21.121  16.174  14.028
46861W        W12121  19.520   2.968  13.844
46862W        W12122  43.448  36.139  13.029
46863W        W12123   0.506  38.418   4.141
46864W        W12124   4.790   7.367  11.635
46865W        W12125  21.584  10.764   2.897
46866W        W12126  26.454  27.152  12.479
46867W        W12127  20.876  10.889   4.132
46868W        W12128  14.890  11.112   2.398
46869W        W12129   1.582  24.728  12.536
46870W        W12130  22.165  33.900  13.007
46871W        W12131  30.451   3.275   3.150
46872W        W12132  24.293  22.063  13.443
46873W        W12133  16.360  22.944  14.300
46874W        W12134  30.055  39.419   4.526
46875W        W12135  33.195  35.610  11.536
46876W        W12136   6.433  30.587  10.952
46877W        W12137  10.231  37.639  13.718
46878W        W12138  29.767  33.512   5.106
46879W        W12139  26.447  20.020  12.413
46880W        W12140   1.620  29.613  13.079
46881W        W12141  43.803   5.847  14.300
46882W        W12142  40.476   4.778   3.306
46883W        W12143  44.760  43.340   4.375
46884W        W12144  35.672  39.457  11.275
46885W        W12145  12.705  21.269  13.985
46886W        W12146  20.106  32.065  12.834
46887W        W12147  33.050  41.697   4.624
46888W        W12148  17.589  30.021  12.384
46889W        W12149  13.598  35.065  12.369
46890W        W12150  38.093  40.153   2.276
46891W        W12151  19.711  42.874  10.347
46892W        W12152  33.912   7.351   1.422
46893W        W12153  28.418   3.942   2.265
46894W        W12154   8.227   5.365   0.223
46895W        W12155   0.852  38.218   2.874
46896W        W12156  10.821   8.986  11.164
46897W        W12157  26.512  44.794  11.599
46898W        W12158  21.730  16.339   2.253
46899W        W12159  30.170  44.380   4.140
46900W        W12160  36.859  39.548   4.940
46901W        W12161  21.195  22.305   1.232
46902W        W12162   9.386  12.576   3.881
46903W        W12163   2.347  25.653   1.479
46904W        W12164  30.174  20.728   3.318
46905W        W12165  23.064  12.249  13.026
46906W        W12166  26.986  40.336   4.221
46907W        W12167   4.542  39.518   2.127
46908W        W12168   2.785   8.917  12.859
46909W        W12169   8.148  22.020   3.165
46910W        W12170  29.611   7.738   0.006
46911W        W12171  10.973  28.978  13.011
46912W        W12172  22.517  22.242  12.134
46913W        W12173   8.610  18.389  13.906
46914W        W12174   8.183  40.329  14.952
46915W        W12175  39.405  33.793  11.767
46916W        W12176  25.534  24.081  11.917
46917W        W12177  21.293   2.503  12.016
46918W        W12178  30.241  13.559  11.833
46919W        W12179  42.808  11.866  13.436
46920W        W12180   2.701  25.981  12.123
46921W        W12181   1.840   6.883   4.937
46922W        W12182  10.642  31.308  11.499
46923W        W12183  14.280   1.961   3.202
46924W        W12184  12.351  41.615  12.565
46925W        W12185   1.726  13.382  14.362
46926W        W12186   7.888   8.966  11.149
46927W        W12187  32.875   7.383  11.128
46928W        W12188  41.467  11.021   1.045
46929W        W12189  40.061  37.157   2.906
46930W        W12190  40.518  12.656   4.364
46931W        W12191  14.517  20.496  13.860
46932W        W12192  40.883  30.957  13.562
46933W        W12193  40.382  20.831   1.422
46934W        W12194  24.100   8.767   1.583
46935W        W12195  25.100  38.595   4.214
46936W        W12196  36.330   9.317  14.359
46937W        W12197  20.501  34.016  12.095
46938W        W12198  25.496  27.764  11.053
46939W        W12199  36.051  42.577  13.094
46940W        W12200   2.911  26.018   0.770
46941W        W12201  44.227  26.400  10.010
46942W        W12202   7.668  33.166  10.707
46943W        W12203  10.734   7.028  13.955
46944W        W12204  13.230  20.859   3.791
46945W        W12205  12.736  42.057   0.775
46946W        W12206   7.976  41.832   4.478
46947W        W12207  35.961  20.330  11.591
46948W        W12208   1.305   8.264   0.829
46949W        W12209  44.423  25.274   3.178
46950W        W12210   9.396  14.705  13.424
46951W        W12211  31.865  21.312   1.245
46952W        W12212  34.999  27.984   0.749
46953W        W12213  24.236  26.482  14.431
46954W        W12214   2.862  29.228  13.529
46955W        W12215  23.078  17.569   3.281
46956W        W12216   7.783  22.168   4.796
46957W        W12217  37.851   8.736  13.971
46958W        W12218   6.264  29.980   1.819
46959W        W12219  29.318  36.216  13.931
46960W        W12220  21.100  37.398   4.046
46961W        W12221  22.554  29.415   2.842
46962W        W12222   9.136  33.591  14.783
46963W        W12223  24.457  15.312  13.416
46964W        W12224  32.363   7.593   3.327
46965W        W12225  39.479  31.748   5.015
46966W        W12226  11.897  16.318   0.385
46967W        W12227  16.971  36.502   3.345
46968W        W12228  19.586  24.744   3.238
46969W        W12229  42.929   6.348   4.590
46970W        W12230   6.377  10.521  14.253
46971W        W12231  26.551   3.296   3.908
46972W        W12232  25.518  22.614   3.659
46973W        W12233  44.777  36.878  10.726
46974W        W12234  39.437  27.072   3.500
46975W        W12235  44.878  39.114   3.800
46976W        W12236   9.814  20.963   1.599
46977W        W12237   1.655  12.259  10.623
46978W        W12238   5.627  30.566   4.538
46979W        W12239  43.621  12.169   0.931
46980W        W12240  32.627  38.645  13.925
46981W        W12241  36.938  43.663  11.432
46982W        W12242   5.370  32.115   3.327
46983W        W12243  28.671  39.769   2.620
46984W        W12244  14.549   6.872  12.749
46985W        W12245  21.554  38.863   4.337
46986W        W12246  32.529  10.313   0.983
46987W        W12247  25.633  33.541   4.971
46988W        W12248   1.780  25.193   4.611
46989W        W12249  23.127   0.589  13.805
46990W        W12250  17.714  17.676   3.750
46991W        W12251  31.220  21.768  13.823
46992W        W12252  11.728  44.769  10.316
46993W        W12253  11.175  35.466   4.170
46994W        W12254  25.808  15.531   1.352
46995W        W12255   8.626  16.734  13.403
46996W        W12256  29.692  25.224  12.434
46997W        W12257  14.603  10.746  12.096
46998W        W12258  40.405  33.964   2.349
46999W        W12259  31.888  40.422  11.513
47000W        W12260   2.286  27.044   2.352
47001W        W12261  27.145  17.410  10.274
47002W        W12262  25.022  17.526   2.638
47003W        W12263  19.223  40.465  10.719
47004W        W12264  15.299  27.619   0.683
47005W        W12265  36.581  25.972  12.015
47006W        W12266  30.427  12.092  13.472
47007W        W12267   6.939  33.072   0.918
47008W        W12268  40.835  31.877  13.398
47009W        W12269  16.082  39.858  11.424
47010W        W12270  18.014   1.785   2.272
47011W        W12271  21.671  24.471   1.305
47012W        W12272   3.371  13.829   0.693
47013W        W12273  13.676  23.617   0.269
47014W        W12274   8.317   2.187   1.456
47015W        W12275  30.542   0.331  14.426
47016W        W12276  28.071   3.272   1.780
47017W        W12277  15.928  20.888   4.901
47018W        W12278  23.560  23.841   2.864
47019W        W12279  14.549  22.764  11.060
47020W        W12280  43.535  26.208   0.463
47021W        W12281  21.025  22.818   4.329
47022W        W12282  42.421   0.863   2.283
47023W        W12283  41.403  24.109  12.533
47024W        W12284  15.866  34.702  11.695
47025W        W12285  39.169  19.806   4.135
47026W        W12286   8.972  25.887   1.481
47027W        W12287   6.614  11.145   1.319
47028W        W12288  35.481  21.619   2.254
47029W        W12289  34.434  23.280  10.555
47030W        W12290  44.345   3.337   3.032
47031W        W12291   7.821  17.230   2.124
47032W        W12292  37.867  15.801   0.434
47033W        W12293  31.340  24.436  10.220
47034W        W12294  25.055   1.418  13.497
47035W        W12295  44.630  31.370   5.062
47036W        W12296  36.122   2.616  12.917
47037W        W12297  13.658  17.218   4.974
47038W        W12298  18.316  32.441   3.946
47039W        W12299   0.940  37.561   0.768
47040W        W12300  33.576  34.442  10.696
47041W        W12301   0.880  39.077   3.409
47042W        W12302   5.687  12.149   4.750
47043W        W12303  27.592  14.232   3.844
47044W        W12304  35.162  18.605  10.506
47045W        W12305  41.978  40.533   3.566
47046W        W12306   8.470   2.449  13.084
47047W        W12307  39.239  36.710   0.893
47048W        W12308  28.638   2.903  13.097
47049W        W12309  37.499  38.791   2.737
47050W        W12310   7.904  38.458  13.549
47051W        W12311  23.900   8.554   5.089
47052W        W12312  15.083  42.899   0.483
47053W        W12313  13.327  10.783  12.969
47054W        W12314  30.745  16.151  12.029
47055W        W12315  22.282  11.216  11.000
47056W        W12316  18.711   7.847   1.747
47057W        W12317   6.445  38.519  12.958
47058W        W12318   6.998  30.259  14.926
47059W        W12319   3.955  22.274  12.810
47060W        W12320   1.020  29.341  12.867
47061W        W12321  32.520  17.788  13.097
47062W        W12322  34.279  14.535  12.143
47063W        W12323  21.164  40.409  11.498
47064W        W12324  32.668   7.065  12.153
47065W        W12325  40.156  32.528   1.384
47066W        W12326  19.683  18.180  10.825
47067W        W12327  13.741  19.224   4.742
47068W        W12328   4.251  10.363   3.226
47069W        W12329   6.982  32.081   3.357
47070W        W12330  12.199  37.543   0.024
47071W        W12331  40.302  30.171  14.485
47072W        W12332  25.357  42.004  14.606
47073W        W12333  40.524  31.478   3.303
47074W        W12334  10.913  18.960   1.826
47075W        W12335   2.721  24.729  13.566
47076W        W12336  19.171  21.860   1.349
47077W        W12337  11.456  22.090  11.504
47078W        W12338  35.341   2.805   0.423
47079W        W12339  12.165  37.599   3.370
47080W        W12340  17.595  19.120  10.282
47081W        W12341  25.476  20.922  13.096
47082W        W12342  28.157   3.844   0.044
47083W        W12343  39.021  16.260  14.454
47084W        W12344  21.673  38.148   3.094
47085W        W12345  39.505   1.246   4.108
47086W        W12346  36.326  35.030  13.442
47087W        W12347  15.869  35.464  12.084
47088W        W12348  13.868  37.162  14.032
47089W        W12349  23.727  11.386   0.263
47090W        W12350  26.083  26.617  11.167
47091W        W12351   1.373  33.622   4.891
47092W        W12352  10.009   6.176  12.528
47093W        W12353  11.275  13.816   2.727
47094W        W12354  39.584  13.358   3.199
47095W        W12355  22.557  41.971   0.209
47096W        W12356  30.107   7.422  11.866
47097W        W12357  20.452   4.650  11.073
47098W        W12358  32.699  28.792  14.977
47099W        W12359   2.287  17.819   0.016
47100W        W12360  13.740  31.855   4.201
47101W        W12361  29.522  14.752  11.230
47102W        W12362  42.913  41.814  11.362
47103W        W12363  11.304  36.556  13.054
47104W        W12364  38.595  18.433   2.654
47105W        W12365   0.542  32.018  13.509
47106W        W12366  20.210  35.076   1.851
47107W        W12367  21.960  26.699  10.772
47108W        W12368  28.001   9.979  10.755
47109W        W12369  21.216  10.486   4.209
47110W        W12370  30.885  11.173   1.281
47111W        W12371  13.705  28.993  13.861
47112W        W12372  20.585  26.321  11.176
47113W        W12373  42.917   2.486  12.154
47114W        W12374   1.267  20.129  14.312
47115W        W12375  38.852  32.180  13.723
47116W        W12376  21.258  37.855  13.445
47117W        W12377  44.059  16.971   1.199
47118W        W12378  42.274  15.562  11.419
47119W        W12379  33.923  42.817   4.499
47120W        W12380   5.993  26.069  13.979
47121W        W12381  39.766  36.770  11.073
47122W        W12382   0.340  10.266   0.842
47123W        W12383  41.924   8.246   3.234
47124W        W12384  43.182  17.661  12.021
47125W        W12385  38.833   0.455   5.368
47126W        W12386   5.733  13.658  13.874
47127W        W12387  39.970  16.787   0.474
47128W        W12388  29.678  30.306   2.315
47129W        W12389  15.026  11.689  12.678
47130W        W12390   7.239  23.620   0.411
47131W        W12391  26.043  44.146   1.388
47132W        W12392  29.976  34.695  14.958
47133W        W12393  24.933   6.427  14.271
47134W        W12394  10.169  40.011  12.098
47135W        W12395   1.854  35.795   1.027
47136W        W12396  24.704  33.458  10.717
47137W        W12397  26.144  22.005   2.881
47138W        W12398  21.293  10.142  11.608
47139W        W12399  37.582  37.313   3.379
47140W        W12400   3.017  22.235   2.359
47141W        W12401   1.013  41.762   1.325
47142W        W12402  32.142   7.808  10.529
47143W        W12403   2.650  28.545  14.038
47144W        W12404   2.517  28.147  11.032
47145W        W12405  17.047   5.758  11.083
47146W        W12406  22.715  35.557  12.831
47147W        W12407   2.375  11.137   4.631
47148W        W12408  37.972  15.155   1.270
47149W        W12409   6.918   1.369  11.721
47150W        W12410  41.288  12.362   1.209
47151W        W12411  23.414  25.186   1.250
47152W        W12412  43.305  30.074   1.808
47153W        W12413   1.255  34.953  14.040
47154W        W12414  41.927  27.710   4.153
47155W        W12415  25.017  34.240   0.808
47156W        W12416   9.452   7.705  12.804
47157W        W12417  44.635   6.504  10.122
47158W        W12418  35.969  21.589   4.684
47159W        W12419  34.822  25.639  11.616
47160W        W12420  40.503  13.387  14.319
47161W        W12421  24.624  20.140  11.898
47162W        W12422  18.667  38.561   0.299
47163W        W12423  29.466  44.890   1.923
47164W        W12424  26.555  39.922  10.272
47165W        W12425  20.241  31.517   2.641
47166W        W12426  43.024  34.707  14.790
47167W        W12427   3.281  38.652   2.948
47168W        W12428   7.832  19.459  11.090
47169W        W12429  34.969  28.771   1.255
47170W        W12430  43.934  34.520  11.941
47171W        W12431  19.582  16.137  10.732
47172W        W12432   9.884   2.609   1.277
47173W        W12433  39.524  15.420   0.425
47174W        W12434  29.477   5.294  10.702
47175W        W12435   5.024  39.506  12.213
47176W        W12436  35.078  13.692   4.561
47177W        W12437  40.483  13.168   1.651
47178W        W12438  33.277  39.838   4.112
47179W        W12439  31.417  10.402   3.315
47180W        W12440  10.141  43.224   4.642
47181W        W12441  33.947  36.105   1.427
47182W        W12442  19.577   4.406   4.160
47183W        W12443  37.824  10.814   1.456
47184W        W12444  19.000  13.681   2.479
47185W        W12445   7.354  40.501   4.395
47186W        W12446   1.483   3.632  12.999
47187W        W12447  23.165   7.064  12.003
47188W        W12448  32.894  15.513  13.085
47189W        W12449  31.129  21.460   4.198
47190W        W12450  44.196   1.749  13.824
47191W        W12451  32.672  25.544   1.182
47192W        W12452   5.732   8.683   4.504
47193W        W12453  29.178  14.365   1.793
47194W        W12454   8.854  30.685  10.695
47195W        W12455  32.833  20.717  14.925
47196W        W12456  34.519  44.305  10.982
47197W        W12457  11.296   2.953  12.011
47198W        W12458  33.881  44.738  12.069
47199W        W12459  20.528   6.884  11.569
47200W        W12460  39.393  34.708   4.157
47201W        W12461  17.182  20.516  13.438
47202W        W12462  40.216   0.428   3.350
47203W        W12463  22.977   4.189  13.014
47204W        W12464  21.653  32.040   4.595
47205W        W12465  32.689  43.495   2.749
47206W        W12466  41.922   4.336  10.707
47207W        W12467  17.127  32.566  11.920
47208W        W12468  15.202  44.459   1.416
47209W        W12469  27.560   0.285  12.469
47210W        W12470  44.234  19.658   0.975
47211W        W12471  10.184  41.574   0.431
47212W        W12472   8.123  16.241   4.538
47213W        W12473  20.566  26.935   2.258
47214W        W12474   4.256   5.281   3.572
47215W        W12475  27.498  15.926  11.860
47216W        W12476  23.141  11.857   3.730
47217W        W12477  10.485  18.807  12.613
47218W        W12478  28.958  29.386  13.453
47219W        W12479  19.159   7.247  11.527
47220W        W12480  28.624  29.360  14.909
47221W        W12481  12.616  21.202   0.457
47222W        W12482  13.689  34.659   0.513
47223W        W12483  19.560  32.086   1.686
47224W        W12484  16.190  44.961   3.384
47225W        W12485  17.314  32.672   1.751
47226W        W12486  28.681  30.503   3.611
47227W        W12487  27.039  13.673   2.314
47228W        W12488  37.908  40.248  11.497
47229W        W12489   2.221  20.192   0.982
47230W        W12490  33.360  12.360   4.137
47231W        W12491   1.031  17.634   0.286
47232W        W12492   0.041  33.927  13.901
47233W        W12493   2.210  43.778   4.685
47234W        W12494  12.270  36.868   2.723
47235W        W12495   4.215  20.690   1.710
47236W        W12496  26.520  41.936   0.394
47237W        W12497  26.717  35.028   2.592
47238W        W12498  39.864   6.385   0.503
47239W        W12499  15.592  32.639  11.162
47240W        W12500  30.209  40.759   3.721
47241W        W12501   2.991  25.634   0.270
47242W        W12502  37.226  31.883  14.640
47243W        W12503  29.131   9.959   2.377
47244W        W12504   3.457  13.816   4.192
47245W        W12505  11.161  39.461  11.477
47246W        W12506  21.715  35.008  10.246
47247W        W12507  43.459  14.665  13.721
47248W        W12508   9.698  42.559  11.157
47249W        W12509  28.991  43.956  14.551
47250W        W12510  34.803  24.671   0.376
47251W        W12511  30.204  44.346  10.781
47252W        W12512  38.910  41.227  13.979
47253W        W12513  24.809  27.000   0.276
47254W        W12514   5.188  24.914  12.910
47255W        W12515   0.230  14.208   2.715
47256W        W12516  37.978  18.608  12.979
47257W        W12517  41.849  15.986   2.767
47258W        W12518   2.776  13.731  11.964
47259W        W12519  19.751  15.779   0.357
47260W        W12520  41.528  38.255  10.238
47261W        W12521   8.883  39.319   4.475
47262W        W12522  25.462  23.688  10.476
47263W        W12523  21.205   5.827   5.622
47264W        W12524  44.877  29.667   4.967
47265W        W12525  10.654  17.245   0.195
47266W        W12526  32.703  21.880  14.337
47267W        W12527  43.287  10.774  12.530
47268W        W12528  26.059  41.826   3.455
47269W        W12529  32.494  10.161  10.660
47270W        W12530  11.885  34.977  14.794
47271W        W12531  24.528  38.564   1.530
47272W        W12532  44.714   7.887  13.882
47273W        W12533  35.084   7.173  11.238
47274W        W12534   6.740  27.185   1.842
47275W        W12535  30.026  30.472   4.649
47276W        W12536   9.887  41.904  12.292
47277W        W12537  38.584  17.899   2.648
47278W        W12538  44.883  16.291   4.072
47279W        W12539  16.695  35.324   4.605
47280W        W12540  41.722   3.850  10.790
47281W        W12541  33.059  18.375   3.244
47282W        W12542  23.621  36.097   1.782
47283W        W12543  34.001   8.303   0.548
47284W        W12544  22.552  22.930  11.450
47285W        W12545  16.994  17.076  13.422
47286W        W12546  16.043  39.544   3.755
47287W        W12547  30.820  39.299   2.632
47288W        W12548  20.180  22.290  14.907
47289W        W12549  31.426  28.898  14.404
47290W        W12550  10.225  44.657  11.782
47291W        W12551  12.306  40.839   0.315
47292W        W12552  33.950  36.346  10.580
47293W        W12553  34.170   6.424   2.398
47294W        W12554  28.557  28.926   2.193
47295W        W12555   0.479  37.538   2.672
47296W        W12556  17.151  39.926   1.118
47297W        W12557  25.723   2.242  14.278
47298W        W12558  37.320  42.941  11.914
47299W        W12559  17.177  13.066   4.672
47300W        W12560  40.337  19.735   5.182
47301W        W12561  13.656  30.443  14.259
47302W        W12562  16.955  13.275  14.781
47303W        W12563  30.851  39.611   1.748
47304W        W12564  42.067  37.387  10.731
47305W        W12565  25.079  23.461  11.327
47306W        W12566  19.039  13.739   1.955
47307W        W12567   1.331  29.260   3.174
47308W        W12568  16.280  24.207   2.780
47309W        W12569  19.875  29.914  13.478
47310W        W12570  37.222  12.433  11.967
47311W        W12571  43.876   2.931  10.615
47312W        W12572  19.037  39.348   0.197
47313W        W12573   2.749  14.750  12.472
47314W        W12574   5.234  17.867   3.881
47315W        W12575  14.960   8.844   4.198
47316W        W12576   0.949  43.348  12.305
47317W        W12577  39.213  34.592  10.483
47318W        W12578   5.816  19.047  12.363
47319W        W12579  17.521  23.766   3.186
47320W        W12580  15.130  29.449  13.164
47321W        W12581  26.190  40.516  12.077
47322W        W12582  41.774   7.362   0.204
47323W        W12583  28.271  36.407   2.738
47324W        W12584  18.980  23.873   3.248
47325W        W12585  22.085  23.129  14.453
47326W        W12586  27.415  32.373   0.751
47327W        W12587   1.857  39.075  14.426
47328W        W12588   9.247  19.007   0.525
47329W        W12589   1.412   8.809  12.900
47330W        W12590  20.506  13.703  12.482
47331W        W12591  28.040  22.047  10.563
47332W        W12592  23.508   1.666  11.825
47333W        W12593  16.117  15.015   1.036
47334W        W12594  22.553  42.967   1.664
47335W        W12595  32.756  40.445   4.512
47336W        W12596  33.697  37.440   4.186
47337W        W12597  43.396  13.858   2.833
47338W        W12598  38.398  27.580   1.416
47339W        W12599  35.037   4.374   0.432
47340W        W12600  20.353   5.260   0.774
47341W        W12601  43.831  13.019  13.078
47342W        W12602   6.347  26.460  10.083
47343W        W12603  43.329  31.120  12.198
47344W        W12604   2.825   6.513  10.564
47345W        W12605  21.826  16.876  12.119
47346W        W12606  37.436  37.325  12.093
47347W        W12607  21.794  19.349  11.053
47348W        W12608  28.647  23.575  13.829
47349W        W12609  31.974   6.157  12.083
47350W        W12610  34.894  38.446  13.058
47351W        W12611   2.302   8.373   1.637
47352W        W12612  22.799  32.870  14.920
47353W        W12613  32.494   2.022   0.689
47354W        W12614  34.872  23.006  12.617
47355W        W12615  21.707  11.920  10.606
47356W        W12616  19.577  18.232  14.382
47357W        W12617  17.626  29.957  13.507
47358W        W12618  38.828  36.613   3.159
47359W        W12619   8.916  24.983   1.431
47360W        W12620  28.544  31.900  14.393
47361W        W12621  21.721   0.402   1.909
47362W        W12622  40.916  14.988   2.857
47363W        W12623  26.985  28.782  12.940
47364W        W12624  17.557  40.905   1.897
47365W        W12625  32.125   6.167   4.478
47366W        W12626  16.784  22.184  11.195
47367W        W12627   9.497  21.553  11.498
47368W        W12628   6.710  32.519  12.882
47369W        W12629  42.497  22.176   4.150
47370W        W12630  38.393   3.895   0.708
47371W        W12631  39.784   1.347   2.360
47372W        W12632  28.421  31.687   3.230
47373W        W12633  29.024  22.215   0.945
47374W        W12634  22.699   2.422   0.020
47375W        W12635   3.098   1.722  10.110
47376W        W12636  14.814  31.026   3.978
47377W        W12637  37.492  31.740  11.110
47378W        W12638  37.494  19.608   2.668
47379W        W12639   2.412  15.144   0.309
47380W        W12640   5.200  21.991  13.123
47381W        W12641  44.373  39.006   2.097
47382W        W12642  16.562  38.965  10.796
47383W        W12643  43.630  30.044  11.094
47384W        W12644  34.970   3.343   2.124
47385W        W12645  27.572  35.095   2.678
47386W        W12646  44.497  42.447   1.239
47387W        W12647  18.096   8.660   0.034
47388W        W12648  22.545   9.271   3.700
47389W        W12649  23.977  35.048  11.645
47390W        W12650  44.875  37.784   3.762
47391W        W12651  35.417   7.695   0.827
47392W        W12652  25.469   7.319   2.923
47393W        W12653  15.804  16.295   2.276
47394W        W12654  30.974  29.160   1.776
47395W        W12655   9.677   1.171   0.384
47396W        W12656  35.139  42.078  12.952
47397W        W12657  16.300  25.999   1.664
47398W        W12658   6.346  20.008  13.900
47399W        W12659  37.648  14.225  14.130
47400W        W12660   0.250  28.030   2.794
47401W        W12661   0.494  13.353   3.111
47402W        W12662  39.330   7.670  10.973
47403W        W12663  18.234  16.490  10.280
47404W        W12664  32.398   2.032  11.569
47405W        W12665  33.392   7.324   4.060
47406W        W12666  21.578  36.183   3.140
47407W        W12667  21.556  32.509  13.929
47408W        W12668  26.934  13.929   4.995
47409W        W12669  43.434  43.328   0.879
47410W        W12670  14.058  28.314   0.725
47411W        W12671  39.209   8.651   0.805
47412W        W12672  10.961  17.602   3.411
47413W        W12673  23.279  10.872   2.251
47414W        W12674  28.040  13.789   4.921
47415W        W12675  29.990  22.659   3.362
47416W        W12676   2.183  20.926   3.234
47417W        W12677  41.016  32.212   0.669
47418W        W12678  14.864   9.866   4.490
47419W        W12679  44.514   7.223   4.884
47420W        W12680  17.738  18.102   0.530
47421W        W12681  31.160  25.791   1.232
47422W        W12682  28.930  40.009   1.733
47423W        W12683  26.844   0.259   3.567
47424W        W12684   5.275   4.710  14.353
47425W        W12685  42.528  10.843   0.991
47426W        W12686  30.925  10.070   0.219
47427W        W12687  27.281  25.419  14.489
47428W        W12688  34.513  32.479  14.974
47429W        W12689   7.132  26.684  12.411
47430W        W12690  14.998  33.552   1.309
47431W        W12691  42.953  39.232   2.347
47432W        W12692  39.574  38.036   1.195
47433W        W12693  12.857   2.892  11.573
47434W        W12694  23.642  37.150  14.873
47435W        W12695  38.249  10.890   3.614
47436W        W12696  24.933  44.327  12.611
47437W        W12697  36.933  24.232   1.762
47438W        W12698  40.359   2.002  14.312
47439W        W12699  15.665  25.644   3.215
47440W        W12700  30.394   2.220  14.217
47441W        W12701  10.555  21.213   1.357
47442W        W12702  27.652   2.476  11.991
47443W        W12703  31.911  23.404   0.489
47444W        W12704  13.784  32.736  14.582
47445W        W12705  40.354  41.472  10.756
47446W        W12706  22.469  22.192  12.960
47447W        W12707  25.103   2.384   2.964
47448W        W12708  43.006  40.463  14.322
47449W        W12709   2.533   5.938   4.128
47450W        W12710  39.307  30.784   3.653
47451W        W12711  32.419  17.142   4.049
47452W        W12712   6.310  27.431  10.326
47453W        W12713  19.609  14.682  13.406
47454W        W12714   9.397  30.855   5.094
47455W        W12715   3.391  15.547  11.196
47456W        W12716  21.655  23.278   3.685
47457W        W12717  30.204   9.568   0.916
47458W        W12718  31.356  15.164   2.943
47459W        W12719   6.661  43.707  12.892
47460W        W12720  11.723   5.180   0.468
47461W        W12721  36.714  12.777  10.528
47462W        W12722   2.320   8.887   0.296
47463W        W12723  34.634  11.787   2.235
47464W        W12724  25.949  34.651   1.931
47465W        W12725  20.241  26.494   0.551
47466W        W12726   4.557  13.715  14.323
47467W        W12727  11.364  35.410   1.694
47468W        W12728  35.416  38.043   3.100
47469W        W12729  22.177  13.904  14.975
47470W        W12730  29.287  12.097   3.270
47471W        W12731  36.811  25.019   3.768
47472W        W12732  11.600  36.980  12.958
47473W        W12733  25.824  27.440   3.848
47474W        W12734  38.689  34.457   2.154
47475W        W12735  12.923  13.114   3.269
47476W        W12736  20.612  34.055  10.664
47477W        W12737  43.415   2.662  13.267
47478W        W12738   5.716  18.630   2.710
47479W        W12739  14.013   8.778  12.736
47480W        W12740  12.684  37.914   4.111
47481W        W12741   5.537  10.392   2.681
47482W        W12742  20.517   9.127   1.475
47483W        W12743   3.885   8.604   3.923
47484W        W12744  35.266  14.889  14.020
47485W        W12745   8.453  29.998   3.678
47486W        W12746  28.032  40.009  11.992
47487W        W12747  33.371  37.387   1.669
47488W        W12748  36.958  23.076  13.029
47489W        W12749  18.085  18.406  12.803
47490W        W12750   6.922  20.578   1.296
47491W        W12751   8.035  29.031  13.795
47492W        W12752  16.654  30.229   0.545
47493W        W12753  27.190  33.805  12.813
47494W        W12754  14.873  43.034   3.253
47495W        W12755  29.791   5.489   0.789
47496W        W12756  16.075  16.868  11.125
47497W        W12757  31.426  28.411   3.776
47498W        W12758  26.974   8.759   4.914
47499W        W12759   5.406  21.422   4.653
47500W        W12760  35.674  38.578   1.901
47501W        W12761   8.456  22.645   4.540
47502W        W12762   2.349  29.173  13.575
47503W        W12763  16.850  17.715   2.739
47504W        W12764  17.871  23.197  13.371
47505W        W12765  42.823   5.273  10.977
47506W        W12766  18.643  17.730  13.519
47507W        W12767  22.387  22.540  11.753
47508W        W12768  24.073   4.209  12.099
47509W        W12769  14.526  24.371   1.541
47510W        W12770  30.421  33.754  12.827
47511W        W12771  16.715  31.564   4.908
47512W        W12772  18.384  12.668   3.209
47513W        W12773   8.793  44.792   2.275
47514W        W12774  14.319  36.705   3.832
47515W        W12775  40.101  41.315  11.185
47516W        W12776   9.360  29.359   2.262
47517W        W12777  25.912   6.113  14.398
47518W        W12778  18.598  27.588   1.178
47519W        W12779  34.614  23.232   1.828
47520W        W12780  25.221  17.668   1.595
47521W        W12781  39.792  35.882  13.884
47522W        W12782  18.889   1.351  14.953
47523W        W12783  32.448  36.695  14.873
47524W        W12784  10.327  33.150   9.899
47525W        W12785  19.841  44.995   2.738
47526W        W12786  34.388  42.796   4.243
47527W        W12787  33.984   0.310   0.276
47528W        W12788  16.886  44.686  13.429
47529W        W12789  35.555   4.766   1.021
47530W        W12790  37.801  35.620  14.983
47531W        W12791   4.516   4.233   3.334
47532W        W12792  38.800   9.769  10.603
47533W        W12793  26.551  44.335  10.468
47534W        W12794  42.621   5.357  11.533
47535W        W12795  11.814  24.639  12.430
47536W        W12796   8.468  40.936  10.629
47537W        W12797  23.186  35.715  10.767
47538W        W12798  17.687   3.821   3.720
47539W        W12799  15.977   0.829  11.239
47540W        W12800  40.274  10.986   4.933
47541W        W12801   0.462  35.828   1.823
47542W        W12802  40.755  37.541   1.413
47543W        W12803  21.004  19.058  13.802
47544W        W12804  17.090  25.071   1.388
47545W        W12805  15.648  27.192   2.389
47546W        W12806  26.412  26.621  13.013
47547W        W12807  12.359  30.559  13.444
47548W        W12808  33.198  22.535   1.132
47549W        W12809  38.332  39.417   1.332
47550W        W12810  12.433  28.596   2.384
47551W        W12811  33.958   1.325  13.801
47552W        W12812  22.122  41.710   4.810
47553W        W12813  24.279  40.810  12.098
47554W        W12814  41.845  11.115   2.588
47555W        W12815  14.410  43.733  12.686
47556W        W12816  28.926  42.182  14.817
47557W        W12817  22.486  17.516  14.507
47558W        W12818   3.049  23.953   0.657
47559W        W12819   3.693  27.968  14.410
47560W        W12820  21.988  15.149   2.663
47561W        W12821  15.318  12.096  12.130
47562W        W12822   0.811   7.750   4.655
47563W        W12823  44.957  35.671   1.750
47564W        W12824  11.159  41.758  13.953
47565W        W12825  14.111  10.852   3.573
47566W        W12826  13.827   1.796   2.987
47567W        W12827  33.430  18.975   1.316
47568W        W12828  13.689  19.221  13.534
47569W        W12829   2.743  43.717   2.164
47570W        W12830  32.897  22.612   3.267
47571W        W12831   2.955  30.029  12.551
47572W        W12832  19.086  18.470   3.652
47573W        W12833   7.852  21.175  10.485
47574W        W12834   4.686   4.208  14.015
47575W        W12835  13.295  43.285  10.620
47576W        W12836   0.482  34.474   1.915
47577W        W12837  15.776  22.754   2.295
47578W        W12838   2.543  15.253   4.787
47579W        W12839  19.299  16.423  14.805
47580W        W12840  33.022   8.431   5.025
47581W        W12841  21.274  20.591  10.559
47582W        W12842  42.401  31.456  10.664
47583W        W12843  27.865  15.484   5.146
47584W        W12844   6.420  40.001  12.123
47585W        W12845   9.601  28.045   2.248
47586W        W12846  23.448  40.995  12.358
47587W        W12847   5.668  40.611   1.174
47588W        W12848   1.479  19.529  13.286
47589W        W12849  15.762  29.514   3.371
47590W        W12850   6.602  39.375  11.474
47591W        W12851  34.154  30.575   0.896
47592W        W12852  38.906  23.432  14.674
47593W        W12853  40.851  33.350   3.703
47594W        W12854   9.223  43.334   4.203
47595W        W12855  36.140   5.869  11.534
47596W        W12856  23.060  26.005   0.886
47597W        W12857  19.206  37.792  10.594
47598W        W12858  13.756  12.716   2.227
47599W        W12859  20.067  12.785   2.811
47600W        W12860  28.690   6.368   2.235
47601W        W12861  36.348  33.022   0.540
47602W        W12862  14.107  40.067   2.805
47603W        W12863  24.529  21.227  11.960
47604W        W12864   0.719  25.130  14.952
47605W        W12865  25.495  21.166  11.575
47606W        W12866  35.106  37.499   2.199
47607W        W12867  37.428   5.906  10.148
47608W        W12868  26.112  35.383   4.736
47609W        W12869   0.958  35.581   1.773
47610W        W12870  31.843  43.331   2.382
47611W        W12871  26.144  35.798   3.513
47612W        W12872   5.474   8.811  13.428
47613W        W12873   5.308  20.152   1.201
47614W        W12874  29.646  22.253   1.318
47615W        W12875   6.212  12.385   2.446
47616W        W12876  29.080  15.534  10.708
47617W        W12877  35.370   1.329  11.097
47618W        W12878  17.046   2.849  12.124
47619W        W12879  14.635  33.632  14.467
47620W        W12880  33.785  37.747  14.000
47621W        W12881  36.728  10.784   3.723
47622W        W12882   3.452  24.022   3.900
47623W        W12883  25.111  39.396  13.833
47624W        W12884  24.403  23.720   1.951
47625W        W12885  15.677  40.415   4.645
47626W        W12886  13.135  21.234   0.413
47627W        W12887  30.178   8.954  12.671
47628W        W12888  32.810  21.155   2.270
47629W        W12889  37.550  12.588  11.573
47630W        W12890   8.446  43.895  13.484
47631W        W12891  30.128  11.697  12.558
47632W        W12892  24.646  39.407  11.639
47633W        W12893   2.909   0.473   2.389
47634W        W12894  16.756  17.062   4.935
47635W        W12895  25.699  13.282  12.430
47636W        W12896  35.129  12.695   1.409
47637W        W12897  44.379  42.337  14.840
47638W        W12898  38.418   4.132  11.458
47639W        W12899  36.156  33.370   4.554
47640W        W12900  42.753  11.330  13.411
47641W        W12901  22.666  25.084   4.416
47642W        W12902  23.506   2.702   2.121
47643W        W12903  18.291  34.520  13.980
47644W        W12904  39.294  18.115  11.612
47645W        W12905  35.641  37.445   2.298
47646W        W12906   9.390  19.474  12.102
47647W        W12907  23.621  11.058   3.594
47648W        W12908  21.679   4.009  11.996
47649W        W12909  18.721  29.381   2.838
47650W        W12910  10.717  13.303   3.259
47651W        W12911   1.849  14.935  13.517
47652W        W12912  29.205  37.987   2.257
47653W        W12913   4.777  14.478  13.290
47654W        W12914  21.395  42.385  11.927
47655W        W12915  31.943  40.859   4.146
47656W        W12916  30.939  37.515   1.305
47657W        W12917  22.073  10.577   2.958
47658W        W12918  44.010  40.394  12.946
47659W        W12919  37.616  18.362   1.860
47660W        W12920   2.424  16.617  12.888
47661W        W12921   9.277  10.497  13.647
47662W        W12922  25.057   2.004   0.004
47663W        W12923  44.764  20.652  14.315
47664W        W12924  37.351   5.030  14.388
47665W        W12925   3.550   9.910  12.549
47666W        W12926  17.028  36.538  11.134
47667W        W12927  13.446  44.484  13.052
47668W        W12928  29.004  28.060   4.843
47669W        W12929  13.164  32.404   2.299
47670W        W12930  35.102  25.839   1.333
47671W        W12931  21.362  43.419  12.080
47672W        W12932  43.775  30.936  14.863
47673W        W12933  31.025  15.062  13.646
47674W        W12934  13.223   3.359  10.730
47675W        W12935  14.579  21.013  13.100
47676W        W12936  34.090  15.661   3.702
47677W        W12937  20.407  22.081  11.894
47678W        W12938  31.112  44.809  12.430
47679W        W12939   3.149  30.173   4.775
47680W        W12940  21.990  36.069   3.442
47681W        W12941  18.624  17.853  12.419
47682W        W12942  16.337  37.027   4.653
47683W        W12943  14.173  12.468  14.262
47684W        W12944  28.002   1.876   3.127
47685W        W12945  12.053  13.714   4.653
47686W        W12946  42.942  35.420  14.014
47687W        W12947   2.174  44.856   2.664
47688W        W12948  16.563  27.964   4.665
47689W        W12949   1.851  43.625   0.073
47690W        W12950  30.063   0.298  10.461
47691W        W12951  43.998  18.595   0.509
47692W        W12952  30.471   2.651  11.164
47693W        W12953   0.421  40.843   0.899
47694W        W12954  40.111   1.964   4.193
47695W        W12955  18.664  19.883  11.915
47696W        W12956   7.407   2.741   3.324
47697W        W12957   9.356  25.945   4.559
47698W        W12958  16.939  41.625   3.781
47699W        W12959  27.276  25.162   3.454
47700W        W12960  14.159   1.438   1.921
47701W        W12961  25.137   6.371   1.775
47702W        W12962  41.109  27.519   4.521
47703W        W12963  29.177  43.888   4.276
47704W        W12964  13.869   3.535  14.088
47705W        W12965  42.354  27.740   1.347
47706W        W12966  30.035  32.445  13.005
47707W        W12967  23.586  30.495   1.240
47708W        W12968  36.169  19.873   2.205
47709W        W12969  37.115  27.380   2.681
47710W        W12970  43.973  41.514   4.946
47711W        W12971  35.608   0.587  13.152
47712W        W12972  37.405   7.264  13.139
47713W        W12973  11.051  40.488  11.978
47714W        W12974   1.839  31.959   4.661
47715W        W12975  37.669  41.803  12.907
47716W        W12976  30.660  42.833  13.551
47717W        W12977   2.341  29.523  13.977
47718W        W12978   9.133  32.695   4.449
47719W        W12979  10.650  42.024   2.291
47720W        W12980  30.568  19.547  12.487
47721W        W12981   6.809  12.801  14.169
47722W        W12982  18.230  12.592  12.953
47723W        W12983  31.212  13.536   3.781
47724W        W12984  14.856  41.526  10.248
47725W        W12985  21.022  35.881  12.599
47726W        W12986  11.603  12.309   1.777
47727W        W12987   1.245  25.114  14.843
47728W        W12988  42.755  22.488   5.094
47729W        W12989  43.415  29.127   4.618
47730W        W12990  18.006   1.901  11.904
47731W        W12991  25.705  41.889  13.984
47732W        W12992   0.025  30.579   1.669
47733W        W12993  41.454  33.583   4.249
47734W        W12994  19.128  31.344  12.053
47735W        W12995  39.950   0.845   2.218
47736W        W12996  21.006   1.081   4.652
47737W        W12997   8.959  34.522  13.994
47738W        W12998  36.879  31.398   1.832
47739W        W12999  44.928  27.155  12.500
47740W        W13000   5.765  16.048  13.911
47741W        W13001  35.400  34.924  13.156
47742W        W13002  10.633  33.049  12.121
47743W        W13003   0.858  27.895  14.043
47744W        W13004   5.517  43.777  13.492
47745W        W13005   2.544  12.742  13.546
47746W        W13006  26.718  11.240   3.275
47747W        W13007  11.614  35.473   0.837
47748W        W13008   9.166  15.301   4.500
47749W        W13009   1.738  20.209   1.208
47750W        W13010   3.969  27.505  11.192
47751W        W13011  42.997   3.794  14.735
47752W        W13012  34.907  10.899  11.965
47753W        W13013   5.051  22.797   2.246
47754W        W13014   3.672  17.214  12.055
47755W        W13015  43.807  16.689   3.411
47756W        W13016  44.266  32.491  14.423
47757W        W13017  24.209  24.035  10.578
47758W        W13018   7.465  33.005   3.645
47759W        W13019   7.260   3.771   2.747
47760W        W13020  14.348   1.331   3.933
47761W        W13021  33.028   9.245   4.617
47762W        W13022   1.992   9.222   0.535
47763W        W13023  26.478  32.995  12.121
47764W        W13024   3.899  17.363  14.324
47765W        W13025   3.832  31.558  14.863
47766W        W13026  41.334  33.587  11.241
47767W        W13027  35.956  12.178  14.876
47768W        W13028  28.305  12.827   2.363
47769W        W13029  10.268  21.963   4.090
47770W        W13030  17.018  25.028   3.257
47771W        W13031   4.376  24.224  14.034
47772W        W13032   5.425  25.392  12.934
47773W        W13033  16.985  26.406   5.159
47774W        W13034  25.963  39.779  13.680
47775W        W13035  32.452  28.613  14.547
47776W        W13036   8.865  30.933   5.059
47777W        W13037  19.313  15.075   3.871
47778W        W13038   0.443  25.448  12.084
47779W        W13039  43.488   6.160  13.464
47780W        W13040  40.331   7.758  12.792
47781W        W13041  35.961  19.288   3.059
47782W        W13042  17.535  34.576  14.716
47783W        W13043  15.897  43.372   1.816
47784W        W13044   1.004  31.806  13.472
47785W        W13045  31.162   8.618  13.068
47786W        W13046  25.473  44.955  10.966
47787W        W13047   5.944   6.752  14.911
47788W        W13048  26.030  14.835   4.386
47789W        W13049   6.935  42.272  11.572
47790W        W13050  39.583  26.496  13.411
47791W        W13051  33.882  14.168  12.064
47792W        W13052  15.829   8.137   4.390
47793W        W13053  35.038   0.366   1.235
47794W        W13054  17.545  25.170   2.391
47795W        W13055  17.657  16.796   0.214
47796W        W13056  40.993  19.560  14.950
47797W        W13057  35.459  33.427   3.241
47798W        W13058   0.968  30.578   2.198
47799W        W13059  37.056  17.270  10.450
47800W        W13060  13.231   8.756  10.521
47801W        W13061   3.337  31.225  12.311
47802W        W13062  42.806  14.230   2.178
47803W        W13063  33.576  14.284  11.624
47804W        W13064   4.711  39.556  10.913
47805W        W13065   6.768  44.124   1.410
47806W        W13066  31.542  17.116  12.058
47807W        W13067  43.799  39.544  13.057
47808W        W13068  22.105  24.681  12.472
47809W        W13069   2.307  36.473   0.053
47810W        W13070  13.707  25.023  10.686
47811W        W13071  33.393  26.400  14.289
47812W        W13072  23.682   5.265  12.173
47813W        W13073   1.014  24.926  13.554
47814W        W13074   9.873  27.757   0.221
47815W        W13075  31.926  44.063   3.759
47816W        W13076  33.928  16.632   0.317
47817W        W13077  18.517  27.612  14.854
47818W        W13078  38.017  20.855  11.461
47819W        W13079  37.017  10.058  14.752
47820W        W13080  37.484  14.196  11.529
47821W        W13081   4.679  34.405  13.468
47822W        W13082   1.721  42.948  13.153
47823W        W13083  30.448   4.316   2.784
47824W        W13084  13.652  17.252   3.233
47825W        W13085  38.456  15.843  12.822
47826W        W13086  31.438   0.302   2.922
47827W        W13087  19.644  27.610  13.467
47828W        W13088  10.278  32.596  13.852
47829W        W13089  18.652  14.952   4.067
47830W        W13090  17.700  10.661   0.329
47831W        W13091   9.826  11.328  14.246
47832W        W13092  32.620   3.058   3.768
47833W        W13093   6.862  12.855   1.329
47834W        W13094  22.510  14.630   4.124
47835W        W13095  40.822   9.219  13.105
47836W        W13096   6.904  15.291   3.133
47837W        W13097  31.584  37.650  12.138
47838W        W13098  29.734   5.569  11.402
47839W        W13099  17.557  37.163   4.589
47840W        W13100  37.126   6.296   4.613
47841W        W13101   1.406  11.374   0.172
47842W        W13102  37.496  30.934  14.838
47843W        W13103  10.018  34.702   2.082
47844W        W13104  34.624  26.588   1.364
47845W        W13105  43.288  25.976  10.773
47846W        W13106  44.673  35.550  13.426
47847W        W13107  44.618  11.420  12.567
47848W        W13108   2.817  35.440  11.505
47849W        W13109  10.359  29.439   1.694
47850W        W13110  30.436  36.767  10.433
47851W        W13111  19.095  43.835  13.306
47852W        W13112   8.202   1.296   4.474
47853W        W13113  37.237  33.659   5.117
47854W        W13114  34.392  17.131   4.664
47855W        W13115  25.825  27.696  13.001
47856W        W13116   7.306  37.044  13.471
47857W        W13117  43.224  20.686   0.308
47858W        W13118  11.516  44.006   3.078
47859W        W13119   4.935  41.856   4.143
47860W        W13120  33.882  44.400   0.930
47861W        W13121  25.980  20.109   4.347
47862W        W13122  37.489   3.740   4.483
47863W        W13123   2.282   7.804  13.955
47864W        W13124  36.985  44.220   0.499
47865W        W13125  13.685  34.892  14.947
47866W        W13126  33.816   5.993   0.313
47867W        W13127  43.797  42.784  11.490
47868W        W13128   5.977  18.697   2.244
47869W        W13129  22.069  42.272   1.387
47870W        W13130  43.403   2.398  14.130
47871W        W13131  16.511  11.105  13.891
47872W        W13132   9.945  33.463  11.055
47873W        W13133  14.617  37.335   0.326
47874W        W13134  12.611   9.817   5.005
47875W        W13135  17.299  42.107   3.125
47876W        W13136  40.910  17.201   0.811
47877W        W13137  20.249   4.114   2.319
47878W        W13138   0.046  24.961  11.502
47879W        W13139   7.702  10.338  12.554
47880W        W13140  13.825  11.891   1.176
47881W        W13141   0.293  30.393  11.533
47882W        W13142  20.551   3.915  13.975
47883W        W13143  44.460  26.927  11.601
47884W        W13144  37.858  13.042   4.555
47885W        W13145   3.249  35.792  14.871
47886W        W13146   0.028  28.915  12.906
47887W        W13147  32.356  41.974  14.847
47888W        W13148  38.796  12.590   3.693
47889W        W13149  40.277  22.833   1.611
47890W        W13150   5.936  37.488   0.589
47891W        W13151  34.412  15.052   4.372
47892W        W13152  28.949   0.964   2.414
47893W        W13153  16.011  42.544   0.468
47894W        W13154  29.559  29.171  12.640
47895W        W13155  42.515   3.944   0.641
47896W        W13156  44.807   6.320   1.859
47897W        W13157  20.025  39.547   1.690
47898W        W13158  41.517  35.224  11.375
47899W        W13159   6.661  25.148   0.004
47900W        W13160  42.461  23.501  11.468
47901W        W13161  20.656   9.472  12.450
47902W        W13162  32.167  15.701  12.567
47903W        W13163  12.194  32.409   3.647
47904W        W13164  13.087  36.885  11.917
47905W        W13165  11.698  32.453  12.073
47906W        W13166  27.005  42.257   4.295
47907W        W13167   6.816  34.865   2.709
47908W        W13168   4.878  28.072   3.322
47909W        W13169  28.361  16.256  11.593
47910W        W13170   9.258   8.146   0.599
47911W        W13171  41.849  29.360  11.569
47912W        W13172  27.030  39.084   0.291
47913W        W13173   9.228  43.383  11.023
47914W        W13174  30.044  28.886   2.310
47915W        W13175   0.267  31.711   1.411
47916W        W13176   4.061  43.682  10.946
47917W        W13177  25.985  39.013  11.640
47918W        W13178  10.857  35.851   0.976
47919W        W13179  10.694  10.564  12.606
47920W        W13180  17.064  37.920   1.623
47921W        W13181   2.795  43.108  10.752
47922W        W13182  35.021  40.717   4.867
47923W        W13183   0.951  24.988   3.188
47924W        W13184  44.456   1.985  13.411
47925W        W13185  26.030  28.877  10.589
47926W        W13186  28.540  13.770   1.373
47927W        W13187   6.754  24.243  12.531
47928W        W13188  40.523  22.983  14.322
47929W        W13189  14.353  30.246  12.574
47930W        W13190   6.161  15.341  14.981
47931W        W13191  38.775   4.699  13.561
47932W        W13192  22.680  35.745  13.970
47933W        W13193  43.082  29.123  12.928
47934W        W13194  42.490  40.415  14.336
47935W        W13195  28.533   9.270   3.383
47936W        W13196  39.793  27.520   1.276
47937W        W13197  20.697  44.547  10.995
47938W        W13198  14.376  29.576   1.560
47939W        W13199  24.202  43.353   1.585
47940W        W13200  35.884  41.789  13.378
47941W        W13201  16.301  27.627   3.558
47942W        W13202   1.760  18.822  13.690
47943W        W13203   4.676   9.318  13.460
47944W        W13204  18.065  27.052  13.371
47945W        W13205  40.902  29.097  13.977
47946W        W13206  27.506  25.486  12.528
47947W        W13207  23.891  31.487   0.258
47948W        W13208  27.091  33.415  10.241
47949W        W13209  19.119   2.841   1.711
47950W        W13210  44.370   6.007   1.335
47951W        W13211  31.047  36.844   2.225
47952W        W13212  15.614  18.002   2.753
47953W        W13213  19.274  19.169  13.419
47954W        W13214  33.488  16.611   1.798
47955W        W13215  13.963   3.250   3.999
47956W        W13216  13.417  24.531   4.173
47957W        W13217  18.764  27.306  12.479
47958W        W13218  20.245   4.151  13.588
47959W        W13219  20.952   9.077  14.923
47960W        W13220  34.401  14.278  12.992
47961W        W13221  25.738   9.998  10.718
47962W        W13222  31.549  25.860   2.693
47963W        W13223  24.696   8.054  11.061
47964W        W13224  26.975  10.199   1.903
47965W        W13225  17.712  36.657   4.595
47966W        W13226  39.497  32.605  14.814
47967W        W13227   6.494  10.640   4.178
47968W        W13228   9.287  31.901   3.051
47969W        W13229  26.480   0.044  13.359
47970W        W13230  30.609  20.217   1.410
47971W        W13231  24.092   9.939  14.728
47972W        W13232  31.925  38.550  11.775
47973W        W13233  44.286  37.335   3.368
47974W        W13234   8.135   5.460  14.706
47975W        W13235  12.401  15.140   2.724
47976W        W13236  43.492  12.733   1.920
47977W        W13237  32.386  27.784  11.913
47978W        W13238  22.175  23.903  11.525
47979W        W13239  17.061  17.617  11.547
47980W        W13240  41.282   7.291  14.010
47981W        W13241   2.949  34.442  10.655
47982W        W13242  27.621  36.415   3.030
47983W        W13243  14.725  36.394   4.558
47984W        W13244  41.423  44.225   4.603
47985W        W13245   5.837  20.803   1.802
47986W        W13246  42.855  15.235  14.245
47987W        W13247  33.376  33.861  14.353
47988W        W13248  36.405  33.622  13.461
47989W        W13249   1.714  27.514  10.989
47990W        W13250  34.479  32.881   4.119
47991W        W13251  41.735  35.473  12.682
47992W        W13252  22.787  42.022  12.569
47993W        W13253  21.072  40.697   3.662
47994W        W13254   0.787  39.832   2.573
47995W        W13255  37.326  42.862  13.354
47996W        W13256  18.679  14.255  13.636
47997W        W13257  23.257  39.096  14.314
47998W        W13258  25.628  35.297   3.204
47999W        W13259  12.317   4.435   2.276
48000W        W13260   1.373  34.309   1.335
48001W        W13261   7.239   9.852  10.728
48002W        W13262  30.640  15.822  12.395
48003W        W13263   7.740  15.807  11.560
48004W        W13264  17.680  33.392   0.020
48005W        W13265  35.582  42.640   3.200
48006W        W13266   2.261   8.408   4.701
48007W        W13267  13.991  31.142   0.328
48008W        W13268  38.348  29.490   1.943
48009W        W13269  40.364  18.838   3.234
48010W        W13270   4.742   5.739   0.219
48011W        W13271  21.282   4.198   0.817
48012W        W13272   1.966   4.759  14.859
48013W        W13273  38.389  36.084   3.721
48014W        W13274   8.487  18.232   3.062
48015W        W13275  28.145  24.216  14.258
48016W        W13276  19.689  39.838  11.201
48017W        W13277  26.970   4.889  14.930
48018W        W13278  11.523  17.575   1.866
48019W        W13279  13.200  22.976  14.025
48020W        W13280  17.049  15.580  12.413
48021W        W13281   1.990   9.723   0.363
48022W        W13282  17.445  41.051   2.395
48023W        W13283  24.214  23.098  11.516
48024W        W13284   8.819  42.575  14.506
48025W        W13285  37.460  35.043   3.380
48026W        W13286  41.078  23.497  14.960
48027W        W13287  42.848  26.890   3.991
48028W        W13288  38.655  11.176  11.608
48029W        W13289  19.234   3.973   2.440
48030W        W13290  23.035  43.409  13.132
48031W        W13291  43.556  25.583  14.366
48032W        W13292   4.913  44.112  14.305
48033W        W13293  18.143  30.517  14.796
48034W        W13294   6.431  40.812   4.161
48035W        W13295  40.510  27.112  13.058
48036W        W13296  28.930   3.323  12.534
48037W        W13297  43.047   7.881  14.314
48038W        W13298  19.014  29.014   1.305
48039W        W13299  31.022   1.414   4.410
48040W        W13300   2.550  21.684   0.176
48041W        W13301   5.634   8.902  11.639
48042W        W13302  21.542  29.677  11.544
48043W        W13303  30.604   6.163   4.749
48044W        W13304   2.861   3.542   0.912
48045W        W13305  33.986  27.491   2.915
48046W        W13306  25.951  42.115  11.344
48047W        W13307   0.351  16.146   2.736
48048W        W13308  44.899  14.367   3.608
48049W        W13309  22.621  30.859   1.336
48050W        W13310  14.726  32.368   2.772
48051W        W13311  16.301  11.163  12.481
48052W        W13312  40.950  38.442  13.908
48053W        W13313   4.032  34.370   2.353
48054W        W13314  18.589  37.926  11.100
48055W        W13315   8.732  31.486  14.362
48056W        W13316   6.226  40.368   1.876
48057W        W13317  29.461  11.282  11.973
48058W        W13318   1.013  31.336   4.704
48059W        W13319  20.611  30.013   4.657
48060W        W13320  10.088  42.235  13.464
48061W        W13321  37.629  40.571  13.931
48062W        W13322  31.424  42.077   0.655
48063W        W13323  39.209  24.694   1.717
48064W        W13324   6.740   5.960  11.131
48065W        W13325  18.126  15.101  13.028
48066W        W13326  11.319  44.801   0.590
48067W        W13327   7.606  14.257   4.626
48068W        W13328   9.817  29.430  11.057
48069W        W13329  32.205  16.785   2.710
48070W        W13330  28.259  35.977  13.764
48071W        W13331  13.328  17.250  12.444
48072W        W13332   1.738  42.602   0.375
48073W        W13333   5.022  35.297  11.530
48074W        W13334  38.292  40.572   1.652
48075W        W13335   1.325  30.121   9.547
48076W        W13336  31.077  12.602  11.150
48077W        W13337  31.937  25.219  14.484
48078W        W13338  31.774  42.787   1.179
48079W        W13339  42.399  26.639  12.536
48080W        W13340  29.413  35.629  14.860
48081W        W13341   1.561  14.619   1.389
48082W        W13342  42.334  34.656  12.458
48083W        W13343  31.104  38.025   0.342
48084W        W13344   1.351  30.922   2.280
48085W        W13345   2.283  15.261  12.798
48086W        W13346  41.468  24.924   2.183
48087W        W13347  21.547   3.336  14.421
48088W        W13348   2.385  17.628   3.962
48089W        W13349  40.005   6.407   4.189
48090W        W13350  27.473  14.485   2.807
48091W        W13351  38.906  17.724   4.277
48092W        W13352   3.326  32.977   4.595
48093W        W13353  44.128  41.222   2.283
48094W        W13354  36.026  12.725   0.321
48095W        W13355   5.128  26.761  14.792
48096W        W13356   7.266  28.068  14.870
48097W        W13357  17.105  14.532   3.657
48098W        W13358   4.909  32.401  13.083
48099W        W13359   6.831  22.617   3.825
48100W        W13360  33.960   3.345   2.149
48101W        W13361  24.215  42.727  10.873
48102W        W13362  23.732  41.064  15.000
48103W        W13363   3.393   4.147  12.349
48104W        W13364  30.434  19.775  14.414
48105W        W13365   5.354  34.871  10.773
48106W        W13366   7.954   6.363  12.558
48107W        W13367  18.812  44.337   2.224
48108W        W13368  19.759  11.560  11.063
48109W        W13369  38.499  13.280   0.478
48110W        W13370  38.163  33.777   2.422
48111W        W13371  35.858  40.075   1.750
48112W        W13372   4.436  33.849   1.142
48113W        W13373   0.662  32.409  14.316
48114W        W13374  18.038   3.456  14.452
48115W        W13375  10.691  25.479   1.171
48116W        W13376  15.242  11.106   0.505
48117W        W13377   4.839  35.496   3.580
48118W        W13378  32.965  35.554  10.538
48119W        W13379  28.473  18.244  11.568
48120W        W13380  22.914  39.512  14.402
48121W        W13381  38.535   1.751  10.313
48122W        W13382  22.014  37.031   3.167
48123W        W13383  13.694  24.908   1.978
48124W        W13384   6.831  39.787  11.352
48125W        W13385  10.142  20.224  12.972
48126W        W13386   3.347  13.190   2.404
48127W        W13387  35.107  38.760  14.133
48128W        W13388  11.169  37.055   0.744
48129W        W13389   5.431  37.553  10.646
48130W        W13390  22.319   1.379  12.410
48131W        W13391  14.937  26.643  10.242
48132W        W13392  36.590  44.512  11.136
48133W        W13393   2.938  18.592  12.981
48134W        W13394  14.109  11.545   2.771
48135W        W13395   1.914  33.007   1.690
48136W        W13396  36.460  15.921   0.349
48137W        W13397  33.376  27.073  12.998
48138W        W13398  37.786  43.872   0.895
48139W        W13399  28.136  16.649   4.396
48140W        W13400   9.535   8.735   3.428
48141W        W13401  37.884  23.507   0.932
48142W        W13402  15.046  38.426  14.882
48143W        W13403  28.532  41.935  10.697
48144W        W13404  44.946  16.283  14.413
48145W        W13405  26.136  34.363  13.813
48146W        W13406  29.096  32.863  13.746
48147W        W13407  36.454  15.287  11.459
48148W        W13408   4.266   9.714  13.132
48149W        W13409  10.841  44.201  12.483
48150W        W13410   4.529   3.700   3.453
48151W        W13411  34.167  21.266   4.123
48152W        W13412  18.125  11.873  12.531
48153W        W13413  38.302   3.458  10.936
48154W        W13414  31.847   4.506   5.144
48155W        W13415  21.531  16.466  10.748
48156W        W13416  20.106   7.983  10.127
48157W        W13417  20.860  17.157  14.010
48158W        W13418  20.576  28.993   4.588
48159W        W13419   4.837  22.282  10.886
48160W        W13420  41.889  36.013  14.875
48161W        W13421  17.779   3.606  14.898
48162W        W13422  43.722  40.079  10.602
48163W        W13423   6.315  14.094   2.732
48164W        W13424  27.496  11.602  12.789
48165W        W13425  33.380  23.278   0.831
48166W        W13426  15.205  13.959   3.299
48167W        W13427  12.179  20.129  14.803
48168W        W13428  42.882  23.462  14.043
48169W        W13429  40.292  34.831  12.992
48170W        W13430  25.147   8.335   1.188
48171W        W13431  21.296  37.856   4.236
48172W        W13432  20.680  16.613  14.259
48173W        W13433  32.031  28.969   2.862
48174W        W13434   6.108  22.786  14.993
48175W        W13435  22.155  25.542   0.390
48176W        W13436  18.837  28.701  12.757
48177W        W13437   6.464  26.346  10.555
48178W        W13438   1.886  44.482  13.464
48179W        W13439   7.156  14.992   1.719
48180W        W13440  41.080  33.172   1.016
48181W        W13441  31.386   1.442  13.893
48182W        W13442   6.467  23.587  11.701
48183W        W13443  23.174  33.148  14.094
48184W        W13444  35.365  13.593   1.416
48185W        W13445  38.588   6.201   3.019
48186W        W13446   1.394  14.217   0.231
48187W        W13447  13.207  38.023  13.414
48188W        W13448  17.294   7.417  14.789
48189W        W13449  10.188  14.165  11.083
48190W        W13450   8.123  25.017  14.762
48191W        W13451  26.461  23.860   3.755
48192W        W13452   0.874  17.423  13.606
48193W        W13453   9.073  21.512  14.396
48194W        W13454  37.169  14.015   2.336
48195W        W13455  40.534  12.548   0.225
48196W        W13456  32.276  17.030   1.325
48197W        W13457  16.092  10.202  11.110
48198W        W13458  38.588  39.341  12.890
48199W        W13459  34.870  32.433  12.860
48200W        W13460  36.487  19.880  11.535
48201W        W13461  30.684  41.777   2.323
48202W        W13462  33.437  30.935   1.509
48203W        W13463  15.666  21.574   0.015
48204W        W13464   3.861  26.245   4.953
48205W        W13465   7.242  11.093   3.283
48206W        W13466   9.446  36.315  11.436
48207W        W13467  30.443  20.635   4.110
48208W        W13468   9.113  41.459  14.771
48209W        W13469  31.558  22.310   3.200
48210W        W13470  35.403  17.320   3.731
48211W        W13471   7.166   6.525  11.470
48212W        W13472  15.224  28.615  14.554
48213W        W13473  27.435  18.279  12.001
48214W        W13474  18.478  17.041  11.955
48215W        W13475   3.777  31.395   1.482
48216W        W13476  27.939   7.911  10.564
48217W        W13477  34.132  30.119  12.909
48218W        W13478   0.956  12.910  12.398
48219W        W13479  33.549   8.697   5.092
48220W        W13480  26.010   2.321  11.013
48221W        W13481  22.209  41.975   0.992
48222W        W13482  20.783  31.821   3.697
48223W        W13483  26.118  41.787  12.589
48224W        W13484   3.265  41.230   0.760
48225W        W13485  12.566   3.404   4.927
48226W        W13486  21.953  43.822  14.925
48227W        W13487  29.106   5.151  11.595
48228W        W13488   7.209  16.072   1.402
48229W        W13489  23.264   2.485   1.177
48230W        W13490  24.028   2.748  12.910
48231W        W13491   9.134  14.670  13.874
48232W        W13492  37.040  12.853  13.823
48233W        W13493  26.698  41.870   2.287
48234W        W13494  36.825  27.010  11.565
48235W        W13495   5.674  37.250  12.058
48236W        W13496  22.334  17.701  12.168
48237W        W13497  26.777  28.865  11.618
48238W        W13498  38.957  17.423  11.936
48239W        W13499  19.675  22.632   1.534
48240W        W13500  41.289  20.524   1.300
48241W        W13501   3.772  17.637  11.491
48242W        W13502  20.889  34.378   2.755
48243W        W13503  12.682  22.715  14.073
48244W        W13504  11.290  14.371   1.449
48245W        W13505  31.629  30.647  11.708
48246W        W13506  35.091   6.389  14.755
48247W        W13507  20.417  31.042   2.690
48248W        W13508   1.272  36.998  11.482
48249W        W13509  34.258  34.131   1.744
48250W        W13510  21.703  26.246   0.734
48251W        W13511   6.105   4.530  13.122
48252W        W13512   7.150  24.515   1.219
48253W        W13513  16.449  30.324  11.829
48254W        W13514   8.739  35.828  11.974
48255W        W13515   7.652  38.866  13.312
48256W        W13516   3.882   3.934   0.058
48257W        W13517  23.149  18.253  14.807
48258W        W13518  26.312   2.724  10.900
48259W        W13519  44.398   2.452   3.803
48260W        W13520  33.822  32.550  12.099
48261W        W13521  26.569   4.506   1.214
48262W        W13522  41.857  10.200   1.649
48263W        W13523   8.509  15.994  11.386
48264W        W13524   8.434   4.271  13.879
48265W        W13525  29.489  43.898   2.610
48266W        W13526  44.004  26.946   3.996
48267W        W13527  15.742   1.750   2.409
48268W        W13528  22.795   3.676   2.623
48269W        W13529  21.725  23.065  13.965
48270W        W13530  25.216  27.707   1.907
48271W        W13531  27.124  26.032  13.103
48272W        W13532  17.086  23.689   1.858
48273W        W13533  28.526   4.843  14.859
48274W        W13534   5.550  30.915  12.638
48275W        W13535   6.428  24.053   2.384
48276W        W13536  33.097  18.030   1.722
48277W        W13537  23.539  11.515   2.848
48278W        W13538  24.760  28.526  11.752
48279W        W13539  12.851  28.888   1.686
48280W        W13540   3.864  11.851  11.116
48281W        W13541  24.063   5.285  13.050
48282W        W13542  30.439  24.379   3.681
48283W        W13543  27.597  10.152  10.492
48284W        W13544   0.915  32.191  10.518
48285W        W13545  42.105  25.123  11.644
48286W        W13546   6.758  21.028  11.784
48287W        W13547   8.830   2.228   3.781
48288W        W13548  24.550  14.061  10.002
48289W        W13549  11.112  30.554  14.277
48290W        W13550  28.903  15.835   0.348
48291W        W13551  37.642  28.224   0.878
48292W        W13552  21.144  26.934   0.815
48293W        W13553  18.619  35.089   3.630
48294W        W13554  39.791  23.606  12.524
48295W        W13555  31.045  37.572  14.382
48296W        W13556  40.699   4.998   1.806
48297W        W13557   3.369  32.209  12.558
48298W        W13558  17.101  17.026   3.716
48299W        W13559  31.922  13.344   3.319
48300W        W13560  31.509  38.556  13.252
48301W        W13561  10.308  11.232   0.775
48302W        W13562   6.883  17.720  13.894
48303W        W13563  37.077  16.192  14.542
48304W        W13564  13.675  38.779  13.442
48305W        W13565  18.748   3.184  12.419
48306W        W13566  18.355   6.659   1.172
48307W        W13567   5.754  12.796  12.521
48308W        W13568   8.611  25.554  12.080
48309W        W13569  42.192  28.231  12.373
48310W        W13570  13.802  13.426  13.384
48311W        W13571  26.596  36.944   1.443
48312W        W13572   3.483  34.663   0.265
48313W        W13573  39.865  40.844  11.246
48314W        W13574  14.261   3.054  10.657
48315W        W13575  32.613   8.496  14.317
48316W        W13576  39.500  31.066  11.597
48317W        W13577  41.600  30.759  11.563
48318W        W13578  28.926  36.150   3.782
48319W        W13579   0.431  31.389  12.098
48320W        W13580  39.457  19.046   2.563
48321W        W13581  34.443   1.816   2.058
48322W        W13582  39.323   5.742   1.657
48323W        W13583  41.684  16.782   2.309
48324W        W13584  23.363  37.263   1.833
48325W        W13585  40.613  14.777   3.688
48326W        W13586   2.780  44.419  13.479
48327W        W13587   8.646  22.708  12.317
48328W        W13588  27.118  37.856  13.841
48329W        W13589   4.848  41.948  14.267
48330W        W13590  23.072  34.110   0.659
48331W        W13591  42.920  43.214   4.558
48332W        W13592  39.443  25.103   0.850
48333W        W13593  12.140   0.186  11.003
48334W        W13594  32.215  16.563  12.903
48335W        W13595  35.490  32.569   0.471
48336W        W13596   1.777   6.876   3.407
48337W        W13597  20.648  19.647  13.820
48338W        W13598   4.437   7.167   2.200
48339W        W13599  41.273   0.858   4.198
48340W        W13600  26.119   1.193   2.381
48341W        W13601   6.564  40.442  13.293
48342W        W13602  17.158  16.129   1.907
48343W        W13603  13.657  35.069  10.667
48344W        W13604   6.160  26.115   9.752
48345W        W13605   5.784   4.378   1.913
48346W        W13606  22.109  29.839  13.959
48347W        W13607  36.553  19.899  14.066
48348W        W13608  23.473  17.722   0.402
48349W        W13609  14.747  16.835   4.591
48350W        W13610  15.112   3.185   2.702
48351W        W13611  38.890   5.357   3.950
48352W        W13612  23.381  28.478  13.819
48353W        W13613  32.852   9.315  13.017
48354W        W13614  14.266  18.072   3.202
48355W        W13615  24.829  40.331   0.277
48356W        W13616  35.259   8.126  12.645
48357W        W13617  25.957  40.771   0.089
48358W        W13618   7.743   0.035  12.530
48359W        W13619  29.977  34.903   3.147
48360W        W13620  33.942  35.836  12.502
48361W        W13621  12.327   1.548  11.947
48362W        W13622  41.522  13.982   0.527
48363W        W13623  39.987  21.604   4.600
48364W        W13624  27.232  19.779   1.280
48365W        W13625  25.266  18.687  14.991
48366W        W13626  20.180   1.903   3.650
48367W        W13627   6.238  33.434  13.773
48368W        W13628  23.023   8.443   3.816
48369W        W13629  32.617  16.334  13.798
48370W        W13630  23.430  31.394  14.016
48371W        W13631  28.095  39.820  14.765
48372W        W13632   3.411  30.616  13.397
48373W        W13633  21.558   8.161  11.905
48374W        W13634  18.303  21.259  13.401
48375W        W13635  36.596   9.515  11.592
48376W        W13636  30.803  34.610  10.766
48377W        W13637  38.696  42.282   0.856
48378W        W13638  28.039  33.502  11.459
48379W        W13639  19.422  30.205  14.805
48380W        W13640  16.048   6.468   1.357
48381W        W13641  44.379  44.773   3.233
48382W        W13642  28.822  14.817  11.655
48383W        W13643  14.703  13.898   3.156
48384W        W13644   3.737  32.480  14.363
48385W        W13645  31.370   8.373  12.063
48386W        W13646  28.444  25.005  11.134
48387W        W13647   6.997  28.923   2.487
48388W        W13648   4.860   6.770   1.968
48389W        W13649  12.637  24.407   3.894
48390W        W13650  31.171  14.278   4.218
48391W        W13651  43.328   0.107  14.824
48392W        W13652  36.195  38.171   2.693
48393W        W13653   9.419  10.888  13.945
48394W        W13654  31.546  14.619   4.263
48395W        W13655  13.095   2.161  10.621
48396W        W13656  28.215  28.224  11.452
48397W        W13657  29.585  13.898   2.737
48398W        W13658  31.756  41.346  13.972
48399W        W13659  21.548  27.525  12.765
48400W        W13660  29.879  40.978   3.430
48401W        W13661   1.503  16.687  14.827
48402W        W13662  13.106   4.332   3.561
48403W        W13663  16.688  41.828   1.415
48404W        W13664   9.191  31.587  11.756
48405W        W13665   2.994  11.779  11.325
48406W        W13666  35.399  13.316   3.143
48407W        W13667   4.292  16.730   0.531
48408W        W13668  39.091   0.934  10.181
48409W        W13669  22.071   2.230   2.617
48410W        W13670  10.325  40.713  13.603
48411W        W13671  41.828  31.985  11.055
48412W        W13672  40.498  37.377   0.422
48413W        W13673  12.314   5.982  11.076
48414W        W13674  42.354  42.057   0.803
48415W        W13675  17.661  32.084   0.934
48416W        W13676   8.717  30.005  12.266
48417W        W13677  33.876  16.289   4.856
48418W        W13678  15.723   1.239  13.855
48419W        W13679  32.913  43.953   0.228
48420W        W13680  39.407   4.520  11.410
48421W        W13681   8.360  37.837   4.124
48422W        W13682  35.063  15.634  11.977
48423W        W13683  43.667  28.142  12.564
48424W        W13684  38.835   2.782  12.213
48425W        W13685  27.944  11.675   2.423
48426W        W13686  33.356  20.902   1.175
48427W        W13687  10.300  12.183   2.239
48428W        W13688   8.395  43.387  10.671
48429W        W13689  40.012  38.815  11.105
48430W        W13690   6.480  18.165  14.892
48431W        W13691   3.475  11.938  11.499
48432W        W13692  20.930   6.729  11.896
48433W        W13693  24.052  19.157  12.965
48434W        W13694  43.767  19.094   3.241
48435W        W13695  44.511   1.987  10.697
48436W        W13696   5.736  29.093  12.020
48437W        W13697  44.568  40.377   0.257
48438W        W13698  14.945  39.303   4.614
48439W        W13699  27.960  41.854  14.755
48440W        W13700  18.639  10.653  14.352
48441W        W13701   8.617  27.250   2.896
48442W        W13702  21.140  19.568  13.987
48443W        W13703  36.668  33.588  14.864
48444W        W13704  42.815   0.504   2.342
48445W        W13705  15.295  34.083   4.193
48446W        W13706  43.861  34.058  14.309
48447W        W13707  19.879   6.914  11.153
48448W        W13708  33.107  40.752  12.839
48449W        W13709  43.429  34.327  14.291
48450W        W13710  33.331  21.503   4.402
48451W        W13711  13.980  39.939  12.955
48452W        W13712   6.802  43.513  14.908
48453W        W13713  30.409  29.869  12.000
48454W        W13714  33.853  22.174  12.926
48455W        W13715   8.276  38.515   3.182
48456W        W13716  42.303  34.287   1.807
48457W        W13717  12.357  35.184  12.945
48458W        W13718   0.217  33.923  13.022
48459W        W13719  41.975  33.328   0.767
48460W        W13720  24.622  13.642   4.684
48461W        W13721   4.758  17.337   3.291
48462W        W13722  34.533  21.107   2.874
48463W        W13723  39.400  37.600   2.112
48464W        W13724  30.661  19.324  11.721
48465W        W13725  36.271   5.569   0.398
48466W        W13726  29.864  26.731   3.583
48467W        W13727   0.355  35.525  13.062
48468W        W13728  20.523  23.461  12.026
48469W        W13729   5.330  13.091   0.959
48470W        W13730  36.605  43.323  14.347
48471W        W13731  40.227  40.423  13.541
48472W        W13732  13.735  21.465   1.891
48473W        W13733  16.649  27.064  11.380
48474W        W13734  20.144   9.635   2.807
48475W        W13735  24.027  23.983   1.727
48476W        W13736  33.559  21.669   4.862
48477W        W13737  12.243  38.067  14.983
48478W        W13738  19.125  24.629   4.703
48479W        W13739  35.179  34.438   0.880
48480W        W13740  12.987  37.358   2.972
48481W        W13741  36.626  44.478   2.190
48482W        W13742  39.959  15.471   1.511
48483W        W13743  37.108  35.050   4.230
48484W        W13744  18.204   8.938  11.707
48485W        W13745   4.234  35.718   1.182
48486W        W13746  34.395  36.788  13.258
48487W        W13747  36.275  15.330  10.062
48488W        W13748  15.757  43.970  11.677
48489W        W13749  16.808  36.888   2.971
48490W        W13750   0.326  23.311   0.688
48491W        W13751  41.536  16.291   0.917
48492W        W13752  28.932  18.313   2.140
48493W        W13753  16.217  18.587   4.649
48494W        W13754  41.191  38.447   3.673
48495W        W13755  34.059  11.292  10.981
48496W        W13756  17.616  31.323   1.449
48497W        W13757  37.527  26.535   4.136
48498W        W13758  34.815  32.307   2.246
48499W        W13759  39.600  42.918  11.154
48500W        W13760   6.399   0.208  10.534
48501W        W13761  36.145  24.659  14.963
48502W        W13762  16.883  32.986  11.138
48503W        W13763  12.944  39.546   4.600
48504W        W13764  33.529  14.373  13.544
48505W        W13765  14.535  10.747   4.455
48506W        W13766   7.829  32.279   1.404
48507W        W13767  40.970  32.420   4.152
48508W        W13768  21.992  11.130   2.746
48509W        W13769  15.660  38.277   4.174
48510W        W13770  17.190  20.239   1.934
48511W        W13771  33.954  24.635  12.573
48512W        W13772  12.574   5.652  13.779
48513W        W13773  24.936  26.149   4.294
48514W        W13774  24.454  34.783  12.652
48515W        W13775  28.146   4.772  14.490
48516W        W13776  25.261  16.126   2.767
48517W        W13777  40.521  15.945   4.802
48518W        W13778   3.467  41.519   2.657
48519W        W13779  43.748  39.141   1.226
48520W        W13780  14.619  16.260   3.095
48521W        W13781  43.518  18.279  11.119
48522W        W13782  19.690   6.476   1.398
48523W        W13783   9.796  24.710   1.855
48524W        W13784  33.922  34.076   0.343
48525W        W13785  33.437  37.894   4.256
48526W        W13786  28.225  26.015  12.935
48527W        W13787   9.807  35.597   1.642
48528W        W13788  42.397  38.428   2.351
48529W        W13789   4.346  31.041   1.635
48530W        W13790   6.635  20.747   0.363
48531W        W13791   2.225  34.839   1.404
48532W        W13792   0.521  22.037  13.402
48533W        W13793  35.085  17.599  12.860
48534W        W13794  35.658  35.002   1.634
48535W        W13795  32.065   2.255  10.446
48536W        W13796  34.414  15.360  13.842
48537W        W13797   5.702   8.382  11.613
48538W        W13798   7.957   1.738   0.047
48539W        W13799  40.927   3.736   2.263
48540W        W13800  14.456  28.940  12.596
48541W        W13801  43.540   4.290   3.584
48542W        W13802  35.944  28.254  12.035
48543W        W13803  27.984  21.771  11.016
48544W        W13804   9.872   7.867  13.114
48545W        W13805  42.348  43.250   1.465
48546W        W13806  35.842  16.052  14.017
48547W        W13807  32.941   1.021  12.922
48548W        W13808  27.660  13.141   1.239
48549W        W13809  10.411  39.009  12.510
48550W        W13810  29.546  42.095  13.015
48551W        W13811  13.480  15.382   4.340
48552W        W13812  43.915  32.113  14.345
48553W        W13813  25.285  29.084   4.606
48554W        W13814   6.464  37.162  11.231
48555W        W13815   4.543   5.542   0.660
48556W        W13816   3.295  44.650   3.912
48557W        W13817  33.499  23.194  14.525
48558W        W13818  13.311  36.882  14.900
48559W        W13819   4.167   0.258   3.079
48560W        W13820  33.098  23.533  11.575
48561W        W13821  26.118  19.021   2.720
48562W        W13822  42.432  33.413   0.505
48563W        W13823  17.724   8.710   0.408
48564W        W13824   9.282  36.960  13.410
48565W        W13825  41.818  37.107   3.244
48566W        W13826   1.634  43.321  11.209
48567W        W13827  19.222   0.505  10.689
48568W        W13828  44.238  32.448  14.975
48569W        W13829  30.604  36.024   0.241
48570W        W13830   0.322  16.248   1.803
48571W        W13831   5.165   2.051   1.877
48572W        W13832   0.967  32.005   2.529
48573W        W13833   0.227  19.710   4.177
48574W        W13834   9.832  26.901  12.687
48575W        W13835  35.765  38.952  10.379
48576W        W13836  32.458  19.212   4.404
48577W        W13837   7.381  29.340   1.217
48578W        W13838  43.553   9.665   0.591
48579W        W13839  35.523  21.308   0.792
48580W        W13840  33.556  12.256   1.855
48581W        W13841  41.518  43.391   1.702
48582W        W13842  20.987  27.488  12.630
48583W        W13843  19.949   3.459   4.184
48584W        W13844   5.404  32.654  10.924
48585W        W13845  44.275  38.501   1.518
48586W        W13846  12.926  34.590  11.498
48587W        W13847  11.625  42.531  11.602
48588W        W13848  40.745  30.162   1.263
48589W        W13849  43.115  31.550  11.210
48590W        W13850  42.275  21.191   4.290
48591W        W13851   2.535   4.217   2.313
48592W        W13852  19.201   6.031   4.208
48593W        W13853  40.414  18.503   2.848
48594W        W13854  13.293  41.815   4.844
48595W        W13855  27.859  31.294  11.956
48596W        W13856  23.562  24.706   0.969
48597W        W13857  44.211  30.159   1.804
48598W        W13858  16.636  30.979  14.319
48599W        W13859  10.625  31.808  13.985
48600W        W13860  26.524  35.062  10.078
48601W        W13861  17.186   0.971  13.555
48602W        W13862  39.480  30.085  12.567
48603W        W13863  16.117  20.571   2.160
48604W        W13864  28.928  36.275  13.032
48605W        W13865  16.563   7.799   2.356
48606W        W13866   6.748   8.190   1.447
48607W        W13867  37.036  20.179   0.589
48608W        W13868  42.215   2.297   1.448
48609W        W13869  35.559  29.243  10.530
48610W        W13870  21.401  31.912   1.816
48611W        W13871  29.437  29.105   0.393
48612W        W13872   2.045  23.726   3.609
48613W        W13873  36.013  35.855   1.489
48614W        W13874  22.784  34.196   2.652
48615W        W13875  36.417  31.572  14.972
48616W        W13876  33.099  34.426   0.397
48617W        W13877  26.970  13.428   3.688
48618W        W13878  10.607  22.799  12.975
48619W        W13879  14.241   7.769  10.619
48620W        W13880  35.959  29.129  13.177
48621W        W13881  12.720  26.431  11.482
48622W        W13882   5.308   5.922   4.207
48623W        W13883  35.416  36.447   0.794
48624W        W13884  25.224  22.893  13.751
48625W        W13885   2.046  40.267  11.102
48626W        W13886  41.552  26.623  12.318
48627W        W13887  23.300  29.102   1.265
48628W        W13888   8.960  40.099   2.848
48629W        W13889  36.789  23.045  10.569
48630W        W13890   1.775   3.547   1.706
48631W        W13891  18.370  14.684   4.793
48632W        W13892  28.126  27.477  11.974
48633W        W13893   4.919   3.321   0.485
48634W        W13894  32.809   5.185  13.387
48635W        W13895   0.714  18.505  14.288
48636W        W13896   1.980  36.167  14.331
48637W        W13897  17.283  10.772  12.483
48638W        W13898  12.635  27.113   3.479
48639W        W13899  14.969   6.875   0.240
48640W        W13900  39.763  41.865   0.312
48641W        W13901  17.077  22.308  12.841
48642W        W13902  22.115  42.561  13.323
48643W        W13903  35.620  30.354  12.772
48644W        W13904  36.258   4.359  12.181
48645W        W13905  30.922   4.767   5.009
48646W        W13906  12.837  12.154  12.860
48647W        W13907  43.407   6.328  12.364
48648W        W13908  27.576  17.205   3.709
48649W        W13909  38.208  42.823   3.422
48650W        W13910  32.149  20.129   0.578
48651W        W13911   9.670  44.855   0.231
48652W        W13912  20.840  41.186   9.988
48653W        W13913  11.672  42.002  13.044
48654W        W13914  42.766   7.607   3.229
48655W        W13915  42.978  16.291  14.591
48656W        W13916  25.511  20.579   2.782
48657W        W13917  14.599   0.695  12.531
48658W        W13918  33.885  36.539  13.591
48659W        W13919  30.984   7.610   0.303
48660W        W13920  42.253   6.912   2.638
48661W        W13921  44.237   0.551  10.298
48662W        W13922  28.735  29.501   2.767
48663W        W13923  42.009  32.109  12.948
48664W        W13924   5.714  10.847   2.861
48665W        W13925  43.591  38.974   2.891
48666W        W13926  25.854  15.203   0.736
48667W        W13927   3.259   4.852   4.125
48668W        W13928  35.747  12.743  13.045
48669W        W13929   5.623  27.825   4.910
48670W        W13930   8.828  23.574  13.072
48671W        W13931  24.473  23.831   0.943
48672W        W13932   5.345   1.836   0.019
48673W        W13933  13.854  15.046  12.212
48674W        W13934  19.506   0.586  11.110
48675W        W13935   0.732  10.474  10.658
48676W        W13936  20.422  33.280  13.970
48677W        W13937  17.253   6.752  12.086
48678W        W13938  13.108   9.615  12.000
48679W        W13939  11.825  25.181   2.730
48680W        W13940   3.255   7.319  10.777
48681W        W13941  32.377  12.381  14.362
48682W        W13942  10.269   7.834  13.486
48683W        W13943  13.763  13.667   4.702
48684W        W13944  33.801  36.461   3.217
48685W        W13945  33.478   1.777   3.610
48686W        W13946  34.880   4.440  13.103
48687W        W13947  30.256  38.509   4.812
48688W        W13948  15.813  44.002  12.551
48689W        W13949  36.342  22.691  13.356
48690W        W13950  16.802  28.153   4.216
48691W        W13951  25.273  40.875  12.000
48692W        W13952  19.677  13.106  12.355
48693W        W13953  30.196  11.386  14.495
48694W        W13954  20.763  40.737   4.785
48695W        W13955   3.384   5.220   2.540
48696W        W13956   9.954  10.680   4.193
48697W        W13957   8.606  10.872   0.362
48698W        W13958  24.484   8.710  14.441
48699W        W13959   8.865   8.294   3.154
48700W        W13960   5.381   6.412   4.072
48701W        W13961  15.791  41.497   1.794
48702W        W13962  20.584  18.203   2.159
48703W        W13963  34.375   2.933  14.419
48704W        W13964   4.820  15.551   0.528
48705W        W13965  33.219  19.242   0.856
48706W        W13966  39.613  37.547  11.495
48707W        W13967  33.410  21.989  13.877
48708W        W13968   4.883  36.287  10.790
48709W        W13969  31.935  25.390  13.970
48710W        W13970  10.848  25.174  11.109
48711W        W13971  18.948  14.147  12.517
48712W        W13972   1.846   9.790  13.444
48713W        W13973  29.038   3.243  13.866
48714W        W13974   6.298  14.729  13.011
48715W        W13975  38.577  16.708   0.111
48716W        W13976  14.334  37.545   3.198
48717W        W13977  35.363  36.969  11.624
48718W        W13978   3.216   2.748  14.337
48719W        W13979  37.093   4.223   2.140
48720W        W13980  38.061  40.416  12.987
48721W        W13981   1.194  10.898   0.132
48722W        W13982  25.294  21.428  13.050
48723W        W13983   7.498  41.070   0.160
48724W        W13984  24.238   5.193   2.686
48725W        W13985  34.613  38.037   2.816
48726W        W13986  12.725  10.419   1.677
48727W        W13987  11.939   1.207  12.030
48728W        W13988  10.063  21.496   4.074
48729W        W13989  24.455  34.436  11.047
48730W        W13990  23.040   9.309  10.736
48731W        W13991   7.668  42.261   1.738
48732W        W13992  43.388  20.312  12.895
48733W        W13993   3.079  19.659   1.641
48734W        W13994  37.582  13.190   1.026
48735W        W13995  41.499  27.719  11.589
48736W        W13996  27.529  31.043  14.273
48737W        W13997  12.757  13.608  11.607
48738W        W13998  22.137  13.244  12.362
48739W        W13999  24.570  12.109  11.351
48740W        W14000  12.938  11.209   4.908
48741W        W14001  14.432  11.070  10.281
48742W        W14002  12.760  30.554   2.748
48743W        W14003  38.373   2.817  14.839
48744W        W14004  42.794   3.322  13.566
48745W        W14005  23.612  36.894   0.326
48746W        W14006  44.924  37.005  14.299
48747W        W14007  16.140  27.190  12.632
48748W        W14008  38.781  32.487  10.816
48749W        W14009  22.770   9.271  11.185
48750W        W14010  31.149  37.532   3.336
48751W        W14011  34.614  19.145  10.810
48752W        W14012  42.446   3.000   3.698
48753W        W14013  23.361  40.257   0.557
48754W        W14014  40.512  41.000   0.207
48755W        W14015  13.709  16.068  14.765
48756W        W14016  26.165   9.741  10.960
48757W        W14017  25.235  32.154  13.542
48758W        W14018  25.266  40.493  13.835
48759W        W14019  34.374  15.782   0.880
48760W        W14020  33.639  13.615  12.546
48761W        W14021  20.088   3.450   2.895
48762W        W14022  10.612  34.073   4.783
48763W        W14023  25.526  40.243  11.927
48764W        W14024  37.513  39.523   3.256
48765W        W14025  31.135  17.949   4.134
48766W        W14026  35.894  13.173   2.404
48767W        W14027  42.743  31.424  14.438
48768W        W14028  28.639  17.031   1.258
48769W        W14029   0.312  34.144  14.760
48770W        W14030  29.094  25.127   1.070
48771W        W14031  12.029  30.641   1.695
48772W        W14032  38.355  16.745   4.962
48773W        W14033  22.144  12.589  13.154
48774W        W14034  11.333  19.282  11.572
48775W        W14035  21.624  12.173   0.028
48776W        W14036  42.049  28.056  14.405
48777W        W14037  26.874  13.518  12.766
48778W        W14038  15.190   6.935  13.368
48779W        W14039  32.849  19.465  11.140
48780W        W14040   1.936   6.912   0.907
48781W        W14041  34.387  22.256  14.756
48782W        W14042  10.273  20.229  12.000
48783W        W14043  14.744   6.326   0.909
48784W        W14044  37.855   4.759  12.115
48785W        W14045  11.577  21.966   2.116
48786W        W14046  40.390  18.097   0.905
48787W        W14047   4.924   5.974  13.630
48788W        W14048  42.811  14.940   4.606
48789W        W14049  21.967  12.878   0.794
48790W        W14050  44.207  39.476   0.304
48791W        W14051  22.617   8.138   3.603
48792W        W14052   6.246  39.115  13.814
48793W        W14053  25.568  31.757  13.054
48794W        W14054  39.779  31.007   1.392
48795W        W14055  11.094   6.303  12.873
48796W        W14056  14.105  38.459  10.725
48797W        W14057  13.640   6.648   0.408
48798W        W14058  19.019  24.084  10.757
48799W        W14059  17.598   5.658   0.711
48800W        W14060  32.757  33.450   0.533
48801W        W14061  43.702  21.177  13.965
48802W        W14062  14.286  15.715   4.093
48803W        W14063  11.341  24.536  12.632
48804W        W14064   3.424  34.544  12.616
48805W        W14065  17.638  41.398   4.734
48806W        W14066   4.348  22.720  13.436
48807W        W14067  21.489  14.844  13.010
48808W        W14068  22.179  35.476   0.427
48809W        W14069  43.912  16.533   0.304
48810W        W14070  25.629  13.741  11.537
48811W        W14071  34.654   6.224   2.280
48812W        W14072  43.753  15.516  14.449
48813W        W14073  27.007  31.197   2.787
48814W        W14074   2.629  33.086   1.826
48815W        W14075  18.712  38.869  11.682
48816W        W14076  39.324  16.851   3.867
48817W        W14077  32.575   1.709   0.279
48818W        W14078  17.116  35.086  10.104
48819W        W14079  30.179  25.043   2.341
48820W        W14080   7.456   9.259   4.984
48821W        W14081  21.628   3.843  12.849
48822W        W14082  17.537  26.684  14.940
48823W        W14083  22.415  28.027   0.558
48824W        W14084  16.069  14.554   0.446
48825W        W14085  26.134  33.411   0.316
48826W        W14086  10.656  40.290   4.613
48827W        W14087  11.103  15.587   3.315
48828W        W14088   0.783  31.148   2.037
48829W        W14089  42.933  43.450  11.143
48830W        W14090   1.857  15.089   2.649
48831W        W14091  15.878   2.405   0.461
48832W        W14092  10.898  44.930  13.797
48833W        W14093  34.094   8.634  13.318
48834W        W14094  29.746   3.961  11.999
48835W        W14095   0.491  13.529   2.319
48836W        W14096  10.552  13.796   3.218
48837W        W14097  34.088  37.445   3.319
48838W        W14098  16.228   0.823   0.925
48839W        W14099   8.261   2.705   1.417
48840W        W14100   8.636  35.429   4.113
48841W        W14101  19.778  44.798  14.380
48842W        W14102  25.729  43.361   1.661
48843W        W14103  11.338  20.500   2.601
48844W        W14104  38.441   6.704   2.893
48845W        W14105  19.680  20.701  11.498
48846W        W14106   7.170  43.521  14.043
48847W        W14107  25.580  22.276   4.244
48848W        W14108  41.521  23.102  11.252
48849W        W14109  26.044  12.255  13.590
48850W        W14110  36.266   5.920   2.577
48851W        W14111  14.675  23.778   4.250
48852W        W14112  22.006  11.860   3.791
48853W        W14113  34.314  19.771  11.351
48854W        W14114   1.754  10.372  14.430
48855W        W14115   7.305  31.006  11.993
48856W        W14116  35.807  25.991   0.230
48857W        W14117  41.377  28.852   4.521
48858W        W14118  14.346  44.889  11.637
48859W        W14119  19.730  26.521  11.420
48860W        W14120  33.631  23.793  14.967
48861W        W14121  16.057  28.051   2.377
48862W        W14122   8.885   8.910  14.991
48863W        W14123   2.352  10.684   2.211
48864W        W14124  38.568  18.092  13.469
48865W        W14125  17.330  13.449  14.478
48866W        W14126  43.484  23.648   4.427
48867W        W14127  11.255  40.312   2.356
48868W        W14128  32.650  15.394  14.916
48869W        W14129  35.478  39.909  12.595
48870W        W14130  22.766  26.121  14.858
48871W        W14131  31.463  20.090   4.506
48872W        W14132  23.668  17.573  13.501
48873W        W14133   3.306  34.398   3.328
48874W        W14134  29.135  33.045   1.452
48875W        W14135  24.777  26.149   2.859
48876W        W14136  12.752  41.762  12.920
48877W        W14137   6.716  21.704  13.916
48878W        W14138  15.366  42.779   4.433
48879W        W14139   6.406  37.186   3.909
48880W        W14140   9.958  33.804   0.809
48881W        W14141   3.778  26.783  11.566
48882W        W14142  16.343  32.312   3.303
48883W        W14143   3.294  18.191   1.509
48884W        W14144  20.152  33.610   1.780
48885W        W14145  33.382  14.839   0.896
48886W        W14146  23.395   3.614   2.405
48887W        W14147  41.756   9.969   4.211
48888W        W14148  10.767  21.757   1.857
48889W        W14149  27.883  32.993   4.101
48890W        W14150  18.094  34.851   4.878
48891W        W14151  16.616  34.878   0.011
48892W        W14152  24.738   4.909   0.270
48893W        W14153  29.336  36.792   1.835
48894W        W14154  24.087  33.622   4.683
48895W        W14155   5.479  37.485  13.005
48896W        W14156  11.465  25.036  12.528
48897W        W14157   4.079  19.005   2.942
48898W        W14158   6.239   6.796  14.441
48899W        W14159  29.173  23.643  13.900
48900W        W14160  35.112  39.038   2.749
48901W        W14161   7.767   1.507   3.749
48902W        W14162   9.715  44.864   2.269
48903W        W14163   7.265   3.750  13.660
48904W        W14164   5.303  24.102  13.869
48905W        W14165   2.546   2.764   1.004
48906W        W14166  21.959  21.108   1.695
48907W        W14167  34.565  25.651  12.083
48908W        W14168  42.498  28.055   3.396
48909W        W14169  11.033  42.972   4.105
48910W        W14170  24.699  39.549   2.819
48911W        W14171  20.137  29.950  12.497
48912W        W14172  19.042  37.674  13.134
48913W        W14173  41.383   3.125   1.961
48914W        W14174  39.562   8.889   2.421
48915W        W14175  30.043  16.553   2.099
48916W        W14176  33.098   7.952  13.975
48917W        W14177   3.770   7.655  13.872
48918W        W14178  17.406  39.482  12.921
48919W        W14179  39.305  42.014   0.002
48920W        W14180   0.505  38.572   2.750
48921W        W14181  16.536  18.848   3.626
48922W        W14182  43.239  28.480   4.047
48923W        W14183  44.482  31.353  13.182
48924W        W14184   8.351  34.368  11.151
48925W        W14185  27.951  44.311   1.276
48926W        W14186   2.767  30.386  12.931
48927W        W14187   3.412  40.817  14.955
48928W        W14188  31.217  20.428   4.204
48929W        W14189  37.094  34.981  13.007
48930W        W14190  30.871  30.515  12.735
48931W        W14191  31.442  32.198   2.819
48932W        W14192  10.206  36.073  10.622
48933W        W14193  22.053  12.582   0.393
48934W        W14194  31.176   6.167   3.281
48935W        W14195  17.938  12.259  14.777
48936W        W14196  43.570  23.042  14.330
48937W        W14197  32.917  31.886  14.542
48938W        W14198  31.902   4.553   2.821
48939W        W14199   2.802  37.400   1.497
48940W        W14200  16.675  40.289   2.194
48941W        W14201  43.476  10.255  11.143
48942W        W14202  34.142  30.504   4.193
48943W        W14203  37.839  40.899  13.042
48944W        W14204  23.702   7.627   2.362
48945W        W14205  18.538  21.195   0.293
48946W        W14206   0.869   0.537  13.649
48947W        W14207   5.483  25.183  14.458
48948W        W14208   3.195  33.410   1.208
48949W        W14209  33.058  41.829   1.756
48950W        W14210  34.921   0.376  12.519
48951W        W14211   1.508   7.200   4.622
48952W        W14212   9.200  18.337   3.509
48953W        W14213  44.393   8.410  10.688
48954W        W14214  39.822  13.852  10.564
48955W        W14215  18.316  29.247   2.315
48956W        W14216   0.820  35.389   3.672
48957W        W14217   7.225   6.801  14.095
48958W        W14218  18.174   7.795  13.051
48959W        W14219  31.161  12.727   2.792
48960W        W14220  13.727  32.864  11.216
48961W        W14221  20.724  25.408   1.216
48962W        W14222  37.112   4.175   4.913
48963W        W14223  29.691  33.048   4.902
48964W        W14224  18.181   5.403   3.107
48965W        W14225   3.473  16.502  11.971
48966W        W14226  10.665  21.611  14.004
48967W        W14227  10.843  43.230  14.234
48968W        W14228  29.995  23.930   0.891
48969W        W14229  28.450  44.494   4.513
48970W        W14230  38.869  30.597   0.396
48971W        W14231  34.664  39.323   3.829
48972W        W14232  13.793  44.528  10.656
48973W        W14233  25.665  38.333  12.085
48974W        W14234  20.276  25.120   0.218
48975W        W14235  12.165  44.347  11.692
48976W        W14236  41.027  18.030  13.855
48977W        W14237  16.089  39.098   3.291
48978W        W14238  26.056  13.921   3.965
48979W        W14239  21.971  10.836  12.005
48980W        W14240  21.623  20.765  12.936
48981W        W14241   1.171  43.197   4.159
48982W        W14242   3.732  42.599   1.043
48983W        W14243  44.418   3.442  10.617
48984W        W14244   5.859  34.449  14.416
48985W        W14245  15.382  22.519   3.189
48986W        W14246  15.599  44.470  11.658
48987W        W14247   2.622  15.768   5.001
48988W        W14248   4.804  26.655   3.721
48989W        W14249  12.529  17.672   1.922
48990W        W14250  18.571  16.077  10.417
48991W        W14251  44.706   3.486  13.605
48992W        W14252  23.606  27.547  11.069
48993W        W14253  19.107  22.852   1.226
48994W        W14254  22.331   1.403   5.416
48995W        W14255   1.313  35.722  13.389
48996W        W14256   9.825   3.510  14.943
48997W        W14257  18.865  33.046   0.631
48998W        W14258   2.726   3.322   3.472
48999W        W14259  44.423  33.138   1.796
49000W        W14260  39.630  38.511  10.734
49001W        W14261  19.306  33.713   0.847
49002W        W14262  19.602  22.106   3.964
49003W        W14263  13.410  44.111  12.396
49004W        W14264  20.342  41.422   5.015
49005W        W14265   6.209  23.939  14.440
49006W        W14266  44.908  25.955  13.247
49007W        W14267  36.231  32.804   2.705
49008W        W14268  18.965  10.424   3.271
49009W        W14269  35.364  24.525   3.842
49010W        W14270  40.672  25.415   2.639
49011W        W14271   0.915  15.738  11.979
49012W        W14272   6.648  39.921   2.428
49013W        W14273  41.759  26.623   2.707
49014W        W14274  36.167  17.673  10.292
49015W        W14275  14.890  35.623  14.833
49016W        W14276   5.020  20.122   0.749
49017W        W14277   8.908  34.685   0.991
49018W        W14278   1.759   2.779  13.061
49019W        W14279  35.457  32.379  11.974
49020W        W14280  13.768   7.333  12.828
49021W        W14281  41.243  25.228  11.410
49022W        W14282   0.405  31.508   1.894
49023W        W14283   7.296  42.227  11.003
49024W        W14284   1.256  10.602  11.915
49025W        W14285  33.532  42.833   9.991
49026W        W14286  43.003  19.660   4.243
49027W        W14287  11.543  38.381   2.801
49028W        W14288  40.965  13.178  12.564
49029W        W14289  40.520  17.207   5.087
49030W        W14290   1.458  40.334  13.864
49031W        W14291  43.079  21.985  12.569
49032W        W14292  12.604   1.013   3.821
49033W        W14293  19.699  15.487   4.590
49034W        W14294  19.348  26.202  12.370
49035W        W14295   3.624  14.722  11.625
49036W        W14296  44.434  39.656   4.398
49037W        W14297  42.859  21.002   1.449
49038W        W14298  44.545   4.649   1.906
49039W        W14299  26.011  24.534   4.239
49040W        W14300   2.866  30.987  14.014
49041W        W14301  43.874  16.600   9.576
49042W        W14302  35.055   0.475   2.236
49043W        W14303   8.255  25.185   2.646
49044W        W14304   6.213  33.540  12.793
49045W        W14305   9.874  19.305  11.441
49046W        W14306  10.285  16.058   4.076
49047W        W14307  40.824   4.501   1.759
49048W        W14308  44.742   9.934  11.064
49049W        W14309  30.703  10.905   0.727
49050W        W14310  30.956  27.166   2.793
49051W        W14311  28.325  40.874   3.939
49052W        W14312  17.335  17.611   1.873
49053W        W14313   9.380  27.244  14.453
49054W        W14314  19.082  19.580  12.607
49055W        W14315  32.672   5.873   3.692
49056W        W14316  12.870  21.530  10.491
49057W        W14317   9.400  40.448   3.158
49058W        W14318   8.270   9.321   3.802
49059W        W14319  29.531   2.927   0.048
49060W        W14320  17.693  43.409  13.795
49061W        W14321  31.922  36.744  13.001
49062W        W14322  29.065  10.789   0.808
49063W        W14323   5.707   4.149   2.836
49064W        W14324  29.043  33.524   1.814
49065W        W14325  41.712  38.078  11.107
49066W        W14326  24.283  31.739   4.317
49067W        W14327  34.664  23.953  11.979
49068W        W14328   5.918  28.026  13.983
49069W        W14329   3.146  18.233   4.321
49070W        W14330  15.733  30.617   2.357
49071W        W14331  11.625  25.048   0.909
49072W        W14332  39.473  34.086  13.339
49073W        W14333   2.061  26.511   2.251
49074W        W14334  24.143  28.156  13.759
49075W        W14335  15.280   9.701  13.718
49076W        W14336  25.865   6.878  12.536
49077W        W14337   9.863  11.212  12.325
49078W        W14338  44.246  24.432   2.265
49079W        W14339  30.064  13.525   3.747
49080W        W14340  17.602  21.956   2.843
49081W        W14341   7.120  18.190   2.181
49082W        W14342   2.601  44.604   2.398
49083W        W14343  26.689  23.042  12.892
49084W        W14344  30.356  15.804  11.947
49085W        W14345  16.850  20.706  12.170
49086W        W14346   2.764   8.699  13.370
49087W        W14347  35.009  12.214   3.396
49088W        W14348  17.363   7.247  11.997
49089W        W14349  28.476  19.126  12.550
49090W        W14350  18.477  18.311   2.348
49091W        W14351  18.606  14.893  13.064
49092W        W14352  38.139   6.300   2.801
49093W        W14353  30.073  36.654   0.478
49094W        W14354  27.481  17.181   0.350
49095W        W14355   7.611  26.380   9.883
49096W        W14356  39.844   5.294   2.844
49097W        W14357  26.644   8.250  11.557
49098W        W14358  14.712  43.509   3.420
49099W        W14359  35.856  43.037  10.765
49100W        W14360  15.642  19.104  14.299
49101W        W14361  23.062  15.544   2.415
49102W        W14362  25.313   9.913   4.201
49103W        W14363  23.504  13.650   1.800
49104W        W14364  35.371  37.038  14.023
49105W        W14365  32.515  39.968  12.609
49106W        W14366   5.062  42.430   4.314
49107W        W14367  20.128  37.831   2.326
49108W        W14368  35.831  25.144  12.005
49109W        W14369  16.627  17.220  12.456
49110W        W14370  20.562  20.962   3.038
49111W        W14371  32.198  38.377  10.929
49112W        W14372   6.322  32.945   1.178
49113W        W14373  21.281  24.010   4.064
49114W        W14374  33.958  27.215   4.652
49115W        W14375  30.354   9.951   2.595
49116W        W14376  27.828   0.608   4.355
49117W        W14377  37.881  25.855  10.565
49118W        W14378   0.674  15.262   3.052
49119W        W14379  41.837   7.379   2.153
49120W        W14380  30.182   2.132   2.673
49121W        W14381   1.373  36.334   2.805
49122W        W14382  41.288  37.924   3.725
49123W        W14383   8.810   4.225   3.711
49124W        W14384   4.718  36.903  14.456
49125W        W14385  21.131   4.026   2.156
49126W        W14386  10.560  15.355  11.492
49127W        W14387   4.202  37.704  14.901
49128W        W14388   2.799  29.527  12.288
49129W        W14389  32.851   7.407   2.828
49130W        W14390  12.358  24.420  13.539
49131W        W14391  20.647   3.579  12.485
49132W        W14392  28.234  29.641  12.602
49133W        W14393  13.672  21.197  14.042
49134W        W14394  38.592  34.575  12.481
49135W        W14395  37.865  40.819   0.351
49136W        W14396  35.668  33.163  12.458
49137W        W14397   9.584   0.745  14.809
49138W        W14398  29.440  29.465  13.595
49139W        W14399  13.274  30.751  13.969
49140W        W14400  27.615   6.895   4.594
49141W        W14401  37.825  24.464  13.768
49142W        W14402  16.806  25.109  11.894
49143W        W14403  35.840  36.943  12.538
49144W        W14404  18.994  22.124   1.743
49145W        W14405  36.019  10.646  14.435
49146W        W14406  20.920   5.864   4.135
49147W        W14407  10.678   4.288   0.175
49148W        W14408  27.994   8.215   3.657
49149W        W14409  44.507  19.969  10.581
49150W        W14410  24.309  24.185  11.064
49151W        W14411   5.365  17.278  13.565
49152W        W14412  10.357  24.553  11.515
49153W        W14413   4.308  20.040   0.192
49154W        W14414  18.244  28.429  14.326
49155W        W14415  31.988  11.873   2.814
49156W        W14416  12.040  19.288   2.145
49157W        W14417  12.294  37.275  10.771
49158W        W14418  36.923  37.368  13.059
49159W        W14419  14.470   1.804   1.148
49160W        W14420   7.750  35.956   3.019
49161W        W14421   4.042  41.992   4.108
49162W        W14422  43.779  25.091   3.701
49163W        W14423  27.566  11.833   0.194
49164W        W14424   7.294  28.656  12.547
49165W        W14425  19.985   4.720  14.238
49166W        W14426  24.613  37.110   1.153
49167W        W14427  25.446  15.448   4.893
49168W        W14428   5.679  28.573   3.161
49169W        W14429  40.878  40.922  14.276
49170W        W14430  14.877   3.753   2.288
49171W        W14431  13.860  23.144   4.583
49172W        W14432  12.905  28.757   4.057
49173W        W14433  25.475  29.477  10.563
49174W        W14434  28.517   0.661  14.473
49175W        W14435  35.668  24.984  14.487
49176W        W14436   5.389  38.128  11.953
49177W        W14437  27.998  19.273  12.435
49178W        W14438   5.848   0.276  11.339
49179W        W14439  12.705  11.343   4.446
49180W        W14440   9.154  33.498   4.840
49181W        W14441   9.225  29.095  13.930
49182W        W14442  39.777  30.657  13.954
49183W        W14443   3.303  17.789   4.069
49184W        W14444  24.419  25.046   3.645
49185W        W14445  16.996  42.742  14.464
49186W        W14446  18.248  31.379  12.164
49187W        W14447   3.279  14.344  13.387
49188W        W14448  43.811  44.401  10.716
49189W        W14449  44.796  30.490  11.516
49190W        W14450  17.555  32.959  14.113
49191W        W14451  34.179  24.954   1.798
49192W        W14452  36.625  30.052  14.949
49193W        W14453  15.262  12.933   3.566
49194W        W14454  36.003  19.831  13.369
49195W        W14455  19.204  16.342   2.821
49196W        W14456   6.207  44.845  14.777
49197W        W14457  12.105  25.065  13.118
49198W        W14458   7.218  36.822   0.910
49199W        W14459  10.735  22.342   0.813
49200W        W14460  25.200  17.443  10.262
49201W        W14461  13.711  24.466  13.466
49202W        W14462  25.742  28.579  11.507
49203W        W14463  36.415  21.738   4.869
49204W        W14464  27.326  31.681   4.191
49205W        W14465  18.178  36.983   3.861
49206W        W14466  21.844   2.879  14.464
49207W        W14467  44.207  35.045   2.909
49208W        W14468  11.728  16.568   0.793
49209W        W14469  18.825  41.874   4.586
49210W        W14470  25.417  11.310  10.750
49211W        W14471  26.664  42.055  10.724
49212W        W14472  26.139  17.018   2.367
49213W        W14473  16.702  24.308  14.911
49214W        W14474  26.066  32.543   0.511
49215W        W14475  12.578   4.983   2.780
49216W        W14476  23.495  41.858   1.804
49217W        W14477  18.065  13.833   1.866
49218W        W14478   3.967  25.360   3.814
49219W        W14479   4.646  11.148   4.126
49220W        W14480  33.510  38.453  10.606
49221W        W14481   3.662  17.228  12.905
49222W        W14482   6.220  16.667  14.531
49223W        W14483  12.874  17.646  13.892
49224W        W14484  32.719   1.328   1.818
49225W        W14485  18.323   9.063  10.370
49226W        W14486   1.863  20.213   3.692
49227W        W14487  20.398  25.104  10.569
49228W        W14488  32.619  13.092   5.070
49229W        W14489   7.416  40.727  14.778
49230W        W14490  30.203   6.360   3.142
49231W        W14491  28.353  17.199  13.119
49232W        W14492  41.897  37.805   2.620
49233W        W14493  29.880  15.643  11.074
49234W        W14494   1.443  20.561  13.960
49235W        W14495  12.060  13.687  11.135
49236W        W14496  17.657  36.926   0.060
49237W        W14497   8.733  40.331  13.721
49238W        W14498  33.838  24.524   4.524
49239W        W14499   9.957  26.498   1.896
49240W        W14500  25.369  13.165   0.170
49241W        W14501  39.626  41.514  11.654
49242W        W14502  17.678  39.533   3.073
49243W        W14503   6.221  28.224   4.137
49244W        W14504  12.685  30.375   4.933
49245W        W14505  24.198  40.887   1.292
49246W        W14506  19.202  16.529   0.302
49247W        W14507  36.613  22.475  12.957
49248W        W14508  22.294   4.271   1.381
49249W        W14509  28.079  23.788   1.398
49250W        W14510  15.737  40.515  11.942
49251W        W14511   7.404  31.478   1.240
49252W        W14512  44.939  42.361   2.171
49253W        W14513  44.969  38.215  14.048
49254W        W14514  19.237  40.896   2.809
49255W        W14515  25.469  20.266  11.304
49256W        W14516   3.194  37.780  14.883
49257W        W14517  38.537  17.702  14.793
49258W        W14518  42.345  26.119  12.540
49259W        W14519   4.393  38.545   1.743
49260W        W14520   8.148   4.925   1.317
49261W        W14521  38.237  22.122   1.534
49262W        W14522  20.739  13.233  14.236
49263W        W14523  40.870  44.899   4.323
49264W        W14524  14.809  29.925   3.827
49265W        W14525  29.233  17.504   2.828
49266W        W14526   8.648  18.975  11.102
49267W        W14527  41.354  16.843   4.543
49268W        W14528  43.849  26.582  13.597
49269W        W14529  39.767  32.105   0.279
49270W        W14530  12.535  27.637   5.203
49271W        W14531  21.283  20.618   3.054
49272W        W14532  32.635   4.743   0.183
49273W        W14533  15.670  36.961  11.002
49274W        W14534   8.738  37.259  10.853
49275W        W14535  11.848   1.290   2.268
49276W        W14536   5.972  36.138  10.723
49277W        W14537  28.035   0.788   3.918
49278W        W14538  35.042  22.636   1.003
49279W        W14539  19.359  34.334  14.804
49280W        W14540  17.585  16.760  12.955
49281W        W14541   7.932  36.069   0.777
49282W        W14542   2.085   5.263  10.394
49283W        W14543  34.874  42.614  13.809
49284W        W14544  26.197  40.011  12.756
49285W        W14545  13.568   5.171   0.208
49286W        W14546  33.599  23.989   3.639
49287W        W14547  15.501   3.789  10.841
49288W        W14548   0.286   1.473  11.916
49289W        W14549  17.288   2.696   3.291
49290W        W14550  43.994  39.957  14.732
49291W        W14551  10.841  22.071   3.426
49292W        W14552  18.400  11.231   3.640
49293W        W14553  26.096   3.869  10.664
49294W        W14554  36.757  33.988   0.234
49295W        W14555  27.620  34.444   1.676
49296W        W14556  14.304   7.975  13.246
49297W        W14557  41.379  37.646   0.488
49298W        W14558  35.653  37.822  11.095
49299W        W14559  17.192  15.763  11.480
49300W        W14560  35.594  37.435  11.750
49301W        W14561  18.785  29.440   3.889
49302W        W14562  34.344  37.893  12.136
49303W        W14563  14.172  39.006  10.707
49304W        W14564  24.521  38.770   4.149
49305W        W14565   3.340  17.973   2.497
49306W        W14566  44.913  11.918  14.979
49307W        W14567  31.891  21.691  10.402
49308W        W14568  18.758  17.378   3.178
49309W        W14569   8.322  36.969  12.048
49310W        W14570  34.312  28.944   3.738
49311W        W14571  10.085   4.648   4.560
49312W        W14572  36.072   1.179   0.334
49313W        W14573  24.631   6.631  11.807
49314W        W14574  31.603  44.751   0.204
49315W        W14575   8.403  24.751  13.579
49316W        W14576   0.835  37.356   2.289
49317W        W14577  37.901  33.498  14.735
49318W        W14578   2.085  21.433   4.133
49319W        W14579   0.517  42.310  13.074
49320W        W14580  21.661  14.420  13.328
49321W        W14581  16.362  44.262   2.709
49322W        W14582  27.426  34.340   0.837
49323W        W14583  42.992  42.774   4.285
49324W        W14584  37.994  13.824   4.042
49325W        W14585  24.522  37.792  14.297
49326W        W14586  31.060   0.387   4.178
49327W        W14587  17.409   9.269   3.822
49328W        W14588  10.794  14.095  12.713
49329W        W14589  32.584  40.472   2.741
49330W        W14590   4.858   6.234   1.902
49331W        W14591  31.638  44.548  13.306
49332W        W14592  32.676  30.035  13.000
49333W        W14593  33.468  39.278  13.287
49334W        W14594  43.303   1.138  14.809
49335W        W14595   5.439   1.197  11.427
49336W        W14596   0.146  27.987  14.789
49337W        W14597  16.082  25.475   4.684
49338W        W14598  22.111  43.406   0.920
49339W        W14599  17.472  39.368  11.125
49340W        W14600  20.613  16.218  13.951
49341W        W14601  28.578  12.866  12.677
49342W        W14602  18.217   0.441  12.224
49343W        W14603   9.664  10.359   3.797
49344W        W14604  37.094  29.090  14.067
49345W        W14605  17.161  35.451  14.535
49346W        W14606   6.895  36.014   2.795
49347W        W14607  33.591  37.942  12.652
49348W        W14608  15.322  44.428   1.910
49349W        W14609  42.905  13.167  14.544
49350W        W14610  14.727   7.864  11.468
49351W        W14611  39.349   2.386  12.509
49352W        W14612  17.218  39.078   3.691
49353W        W14613  34.343  43.089   2.303
49354W        W14614  23.145  44.955  14.871
49355W        W14615  32.940   1.468  12.037
49356W        W14616   2.652  41.861   2.792
49357W        W14617  40.893  20.167  12.794
49358W        W14618  41.065  14.228   3.948
49359W        W14619   3.751  27.612  12.040
49360W        W14620   6.119  34.103   4.165
49361W        W14621  24.220  36.966  13.268
49362W        W14622  29.900  15.562   3.765
49363W        W14623   1.600  43.480   5.113
49364W        W14624   3.503  21.762  14.549
49365W        W14625  38.344   5.491   9.751
49366W        W14626  44.865   9.633   2.599
49367W        W14627  33.534  40.340   1.536
49368W        W14628   7.810  32.541  13.860
49369W        W14629  40.707  31.113   1.510
49370W        W14630  44.329  13.325   1.683
49371W        W14631  40.615  17.572   2.743
49372W        W14632  38.325   2.885  12.896
49373W        W14633  29.535  29.221   3.222
49374W        W14634  42.669   6.364   0.777
49375W        W14635  34.912  25.386   3.187
49376W        W14636  31.846   6.435   1.696
49377W        W14637  42.510  18.184  14.880
49378W        W14638  17.603  35.064  14.893
49379W        W14639   1.941  17.329  14.242
49380W        W14640  39.930  35.951   0.967
49381W        W14641  40.035   5.809  13.457
49382W        W14642   2.606   3.758   3.688
49383W        W14643  25.104   8.195  11.584
49384W        W14644  23.530  13.118  14.764
49385W        W14645  38.730  39.545  14.858
49386W        W14646  38.894   9.720   1.111
49387W        W14647  25.143   9.715   2.732
49388W        W14648  40.331  26.186   3.249
49389W        W14649  27.176  32.765  12.584
49390W        W14650  18.294  22.113   3.178
49391W        W14651  22.140  10.782  13.947
49392W        W14652  43.946  29.120   4.555
49393W        W14653  40.315   6.720  12.428
49394W        W14654  15.079  34.777  14.747
49395W        W14655  13.433  31.172  12.872
49396W        W14656  39.331  14.321  11.713
49397W        W14657  37.427   8.625  13.065
49398W        W14658  22.188  33.672  11.534
49399W        W14659  38.841  40.443  13.417
49400W        W14660  29.893  27.414  13.780
49401W        W14661  10.337  26.110  13.442
49402W        W14662   7.370  10.648  10.604
49403W        W14663  29.431  33.107  10.984
49404W        W14664  35.122  23.055   1.873
49405W        W14665   1.037  32.880  10.742
49406W        W14666  29.548   1.726   3.298
49407W        W14667  19.841  20.869   4.816
49408W        W14668  15.542  21.696   3.659
49409W        W14669   3.123   4.251  14.939
49410W        W14670  43.115  42.426   3.349
49411W        W14671  33.615  12.184  10.669
49412W        W14672  33.483  24.748   4.170
49413W        W14673  10.729  30.867   2.850
49414W        W14674  36.599  32.398   3.619
49415W        W14675  11.817  23.498   3.636
49416W        W14676   4.036  34.891  14.531
49417W        W14677   2.173  30.609   0.264
49418W        W14678  20.672  17.698  14.858
49419W        W14679  42.792   3.672  12.484
49420W        W14680   6.904  36.383  12.884
49421W        W14681  27.243  23.121  10.886
49422W        W14682  36.974   2.655   4.135
49423W        W14683  41.367   2.382  13.874
49424W        W14684  14.596  44.261   2.228
49425W        W14685  12.557  33.370   3.103
49426W        W14686   1.458  18.021  12.438
49427W        W14687  20.166  39.902  11.442
49428W        W14688  32.412  26.695  11.045
49429W        W14689   7.497  28.531  14.754
49430W        W14690  37.540  20.050  13.392
49431W        W14691  25.673  23.877   1.254
49432W        W14692  22.032  36.625   0.635
49433W        W14693  28.484  12.264  10.597
49434W        W14694  41.959  42.484   4.616
49435W        W14695  36.529  16.193  12.427
49436W        W14696  14.887  12.799   4.169
49437W        W14697  14.726  38.064  11.168
49438W        W14698  29.026  11.071   4.607
49439W        W14699   0.355  29.052  13.356
49440W        W14700  30.282  16.593   0.721
49441W        W14701  32.052  31.091  11.065
49442W        W14702   6.726  18.537  11.418
49443W        W14703  33.524  37.468   2.154
49444W        W14704   5.741  34.396   3.317
49445W        W14705  19.796  34.559   0.015
49446W        W14706  21.549  32.678  12.788
49447W        W14707  27.892  22.025  11.541
49448W        W14708  42.563  44.429  10.657
49449W        W14709   4.798  13.670  14.822
49450W        W14710  34.132  35.547   2.337
49451W        W14711  21.349  19.529   1.196
49452W        W14712   9.843  19.092   0.994
49453W        W14713   1.143  34.641  12.047
49454W        W14714  40.721  41.424  14.375
49455W        W14715  17.748   2.939  13.020
49456W        W14716  38.617   1.430   0.687
49457W        W14717   2.668   5.901   2.737
49458W        W14718  37.612   5.008   0.560
49459W        W14719  22.137  24.643   0.189
49460W        W14720  23.841  35.120   1.727
49461W        W14721  37.168  24.636  10.465
49462W        W14722  10.075  41.983  11.551
49463W        W14723  10.859  16.960  10.378
49464W        W14724  21.732  19.148  14.351
49465W        W14725   2.799  23.627  10.516
49466W        W14726  35.966  36.687  12.016
49467W        W14727  44.443  37.365  13.533
49468W        W14728  13.487  19.468  12.543
49469W        W14729   6.916  37.032   2.752
49470W        W14730  24.701   0.401   4.829
49471W        W14731  14.707  23.775  12.861
49472W        W14732  13.190  31.163  14.320
49473W        W14733  23.216   9.579  14.231
49474W        W14734  34.875   2.782  12.354
49475W        W14735  25.241  36.433   1.276
49476W        W14736  33.116   6.697   1.305
49477W        W14737  43.000   8.772  14.276
49478W        W14738  44.862  24.295  13.962
49479W        W14739  32.944  11.103   4.768
49480W        W14740   4.874  24.390  13.965
49481W        W14741  16.780   0.331  10.995
49482W        W14742   5.164   3.350  12.609
49483W        W14743  23.291  32.247  13.255
49484W        W14744  10.222  27.620   5.390
49485W        W14745  35.215   1.982   9.619
49486W        W14746  38.323  32.453  10.562
49487W        W14747  30.401  29.081  12.380
49488W        W14748  25.602  15.454   5.379
49489W        W14749  41.507  10.734  13.020
49490W        W14750  28.477  37.673  14.627
49491W        W14751  40.260  39.550   3.418
49492W        W14752  38.071  14.245  13.808
49493W        W14753   4.680  31.947   9.940
49494W        W14754  24.198  23.057   1.916
49495W        W14755   9.156   3.777  12.446
49496W        W14756  33.096  41.369   4.196
49497W        W14757  37.502  21.414   0.684
49498W        W14758  31.145  40.746  12.033
49499W        W14759  27.489  30.375  11.158
49500W        W14760  34.433  22.721  12.592
49501W        W14761  38.408   5.467   3.761
49502W        W14762  30.903  40.871  14.877
49503W        W14763  42.259  29.613   2.183
49504W        W14764  10.139  17.315   0.016
49505W        W14765  12.294  14.183  12.112
49506W        W14766  12.568  10.893   1.750
49507W        W14767  17.553  26.188   0.696
49508W        W14768  13.880  14.307   0.430
49509W        W14769  30.462  13.787   2.459
49510W        W14770   9.416  39.681  12.399
49511W        W14771   4.903   5.768  13.174
49512W        W14772  36.667   9.096   0.379
49513W        W14773   5.401  40.047  13.517
49514W        W14774  37.350  27.415  12.432
49515W        W14775  37.684  11.752   3.791
49516W        W14776  12.019  43.188   4.079
49517W        W14777  29.905  42.008   1.359
49518W        W14778   5.848  10.261   3.872
49519W        W14779  31.647  11.749   2.354
49520W        W14780  17.708  18.585   0.737
49521W        W14781  29.872  26.531  10.656
49522W        W14782  13.124   6.216  13.718
49523W        W14783  29.639  30.175  13.950
49524W        W14784  30.325  41.402  12.543
49525W        W14785  34.836  16.963  13.617
49526W        W14786   4.047  20.141  13.530
49527W        W14787   8.888   1.980   0.767
49528W        W14788  37.616  27.494   4.088
49529W        W14789   4.187   2.902  12.861
49530W        W14790   0.684   3.384   2.849
49531W        W14791  36.904  22.560   1.952
49532W        W14792  34.069  12.242   1.864
49533W        W14793   3.925   7.960  13.480
49534W        W14794  21.815  16.040  10.659
49535W        W14795  28.553  33.363  11.232
49536W        W14796  30.952  42.497  14.906
49537W        W14797  19.584   3.981  10.730
49538W        W14798  33.619  18.529  13.889
49539W        W14799   1.978  23.684  12.955
49540W        W14800  15.029   4.444   1.327
49541W        W14801  44.031  11.846   2.432
49542W        W14802  18.034  26.649   3.665
49543W        W14803  11.748  20.974  14.156
49544W        W14804  19.719  42.691   2.694
49545W        W14805   6.587   9.114  13.854
49546W        W14806  38.941  30.546   3.911
49547W        W14807  41.345  12.240   5.014
49548W        W14808   8.313  17.708   1.390
49549W        W14809  37.412  12.058  10.767
49550W        W14810   8.258  20.613  13.921
49551W        W14811  18.781  25.020   1.846
49552W        W14812  13.778  37.908  12.091
49553W        W14813  43.405  34.302  13.363
49554W        W14814  32.901   0.031  13.022
49555W        W14815  29.571  32.922  11.850
49556W        W14816  25.193  36.280  14.891
49557W        W14817   3.989  31.687  14.369
49558W        W14818  34.569  41.511   2.327
49559W        W14819  29.933  34.884   1.371
49560W        W14820  11.135  19.802  13.916
49561W        W14821  38.895  20.269   4.144
49562W        W14822  13.306  35.905   2.693
49563W        W14823  19.037  26.083   4.034
49564W        W14824  25.689  27.603   1.704
49565W        W14825  25.484  36.439  12.599
49566W        W14826  37.255  28.614   0.892
49567W        W14827  38.555  44.813  14.278
49568W        W14828  30.017  14.599  12.422
49569W        W14829   8.371  36.167   3.874
49570W        W14830  31.621  30.428   2.798
49571W        W14831  11.916   9.358  11.560
49572W        W14832   3.189  13.697   3.758
49573W        W14833  13.484  33.053  12.438
49574W        W14834   9.865  13.178  13.547
49575W        W14835  26.074   6.722   0.066
49576W        W14836  18.015  32.183   1.662
49577W        W14837  11.736  25.589  13.532
49578W        W14838  28.671   9.705   2.463
49579W        W14839   4.861  14.583   0.256
49580W        W14840   4.468  43.016   2.874
49581W        W14841   9.202   1.279  10.747
49582W        W14842   2.401  26.123   0.879
49583W        W14843  26.890  27.201   3.662
49584W        W14844  30.938  38.040   1.701
49585W        W14845   4.127  38.636   2.804
49586W        W14846  41.784  16.753   3.203
49587W        W14847  30.780  24.088  13.040
49588W        W14848  29.651  35.861  11.654
49589W        W14849  18.394  10.384  12.842
49590W        W14850  13.731  34.408  12.021
49591W        W14851  23.516  44.458   0.422
49592W        W14852  33.373  10.202   0.491
49593W        W14853  25.603  29.116   1.182
49594W        W14854  36.039  11.576  11.201
49595W        W14855   0.234  35.547   4.617
49596W        W14856  12.692   9.200   0.333
49597W        W14857   2.212  24.452   4.122
49598W        W14858   6.999  20.715  13.110
49599W        W14859  37.341  15.077  12.989
49600W        W14860  42.906  16.348  12.254
49601W        W14861  38.636   0.187   3.323
49602W        W14862  22.204   2.897   4.501
49603W        W14863  14.200   3.723   0.875
49604W        W14864  38.008  41.311  10.759
49605W        W14865   7.077  40.491  12.486
49606W        W14866  40.772  44.719   0.878
49607W        W14867   1.612  42.201  12.533
49608W        W14868   7.520   1.424   3.299
49609W        W14869  21.294   6.716   3.215
49610W        W14870  27.925  14.129   1.754
49611W        W14871   8.348  43.331  12.829
49612W        W14872  29.218  42.531   4.097
49613W        W14873   6.763   5.872   3.197
49614W        W14874   4.826  31.194  11.059
49615W        W14875  24.117  33.625   3.642
49616W        W14876   5.915  16.536   2.649
49617W        W14877   1.806  24.896   1.235
49618W        W14878  16.980   6.307   1.535
49619W        W14879   0.841  37.568   4.124
49620W        W14880  25.387  15.823   1.437
49621W        W14881  26.234   9.203   4.529
49622W        W14882  26.240  36.300   2.661
49623W        W14883  33.695   8.246  12.020
49624W        W14884  28.132  39.219  13.009
49625W        W14885  11.713  37.286  13.850
49626W        W14886  20.165  39.825   2.909
49627W        W14887  17.874  15.389   0.151
49628W        W14888  41.042  32.089  14.842
49629W        W14889  31.970  27.158   4.768
49630W        W14890  44.267  14.244  12.101
49631W        W14891  37.128  35.151   2.040
49632W        W14892  20.113   9.477  11.758
49633W        W14893  41.920  36.358   4.241
49634W        W14894   8.962  38.228   0.438
49635W        W14895  39.427  21.795   1.819
49636W        W14896  21.524  37.113   1.492
49637W        W14897  34.759  10.694  14.019
49638W        W14898  21.313  20.668   4.101
49639W        W14899  15.738  35.911   5.032
49640W        W14900   3.822  44.419   2.778
49641W        W14901  41.319  26.436  14.966
49642W        W14902  18.826  39.560  12.868
49643W        W14903   0.780  13.272   0.555
49644W        W14904  38.988   3.387  11.934
49645W        W14905  43.543  29.100   3.299
49646W        W14906  39.037  11.276  13.484
49647W        W14907  21.021   4.973  10.305
49648W        W14908  12.558  18.539  13.476
49649W        W14909   7.403  14.347  13.426
49650W        W14910  41.412  31.503   1.158
49651W        W14911  18.123  24.950   5.052
49652W        W14912  29.594  23.250  14.852
49653W        W14913  35.888  11.416  12.505
49654W        W14914   8.223   0.445   1.332
49655W        W14915  14.827  29.005  14.477
49656W        W14916  17.355  30.062  13.070
49657W        W14917   1.915   9.117   3.344
49658W        W14918  39.522  17.167   4.250
49659W        W14919  27.536  40.953  11.561
49660W        W14920   4.900  32.534  11.736
49661W        W14921  25.042   6.204  12.936
49662W        W14922  30.920  19.780   1.341
49663W        W14923  19.764   3.264  14.887
49664W        W14924  37.890   3.524   4.725
49665W        W14925  23.227  27.628   1.787
49666W        W14926   4.773   4.777  10.673
49667W        W14927  17.557  12.806   3.624
49668W        W14928   2.850  28.569   0.419
49669W        W14929   9.796  38.970   2.751
49670W        W14930   5.611  28.649   4.530
49671W        W14931  40.716  12.879  11.587
49672W        W14932   8.714   8.531  10.261
49673W        W14933  25.506  23.608   4.610
49674W        W14934  23.219  11.739  13.024
49675W        W14935  19.981   9.899   1.003
49676W        W14936   2.740  17.692  11.407
49677W        W14937  41.440  24.510  14.377
49678W        W14938  44.845  16.765  11.650
49679W        W14939  18.991  14.724   3.583
49680W        W14940  26.768  36.695  12.658
49681W        W14941   9.998   4.818   1.776
49682W        W14942  44.477  19.974   1.930
49683W        W14943  16.598  20.039   0.883
49684W        W14944  39.136  22.063   2.190
49685W        W14945   1.249   3.369   0.532
49686W        W14946  43.724  17.523   2.225
49687W        W14947  25.688   3.780   1.914
49688W        W14948  20.986  17.698  12.642
49689W        W14949  31.358  34.940  12.577
49690W        W14950  43.578  29.548   1.806
49691W        W14951   3.002   0.845  10.748
49692W        W14952  30.451   9.288  14.597
49693W        W14953  15.665  44.674   1.270
49694W        W14954  34.963  16.816   4.444
49695W        W14955   1.731  20.987  13.809
49696W        W14956   1.504  43.422   0.407
49697W        W14957  26.105   6.229   4.558
49698W        W14958  24.659   1.047  11.691
49699W        W14959  40.329  28.205  14.758
49700W        W14960  26.998  31.911   3.852
49701W        W14961  21.097  13.446   2.163
49702W        W14962  16.814  28.453   0.701
49703W        W14963  35.709  40.043  13.027
49704W        W14964  41.435   1.891   1.339
49705W        W14965  22.961  39.300  13.923
49706W        W14966   6.273   0.445  14.074
49707W        W14967  30.510   6.456  13.949
49708W        W14968  38.114  22.637   0.868
49709W        W14969  28.073  41.342  14.002
49710W        W14970  19.140  13.823   3.679
49711W        W14971  30.132  13.812   4.177
49712W        W14972  33.393  44.979   4.683
49713W        W14973   1.093  21.668  13.420
49714W        W14974  40.467  36.384  13.153
49715W        W14975  26.687  23.167   0.780
49716W        W14976  37.765  12.466   3.080
49717W        W14977  23.356  34.196   1.721
49718W        W14978  39.433  14.111  10.790
49719W        W14979  25.932  12.807  13.464
49720W        W14980  44.714  38.758   2.425
49721W        W14981  37.341   0.568   4.216
49722W        W14982  39.670   2.188   4.013
49723W        W14983  41.279   3.696  13.413
49724W        W14984  18.726   5.304  11.470
49725W        W14985  33.864   7.556   0.936
49726W        W14986  26.048  16.157  12.592
49727W        W14987  11.638  23.868   2.292
49728W        W14988   6.189   6.227  13.813
49729W        W14989  16.092  21.525  12.894
49730W        W14990  23.293  12.696   4.304
49731W        W14991  34.700   2.075  11.235
49732W        W14992  15.898  42.745   4.100
49733W        W14993   5.296  31.288  12.372
49734W        W14994  20.582  19.271   1.048
49735W        W14995  15.207  29.354   2.777
49736W        W14996  29.992  25.653  12.282
49737W        W14997  44.924  34.579  14.386
49738W        W14998  22.723  17.161   1.239
49739W        W14999   2.858  23.277   3.270
49740W        W15000  43.921   3.118  13.015
49741W        W15001  22.951  24.677  13.352
49742W        W15002  40.923  10.346  14.172
49743W        W15003  14.066  24.935   0.304
49744W        W15004  25.721  22.049  10.461
49745W        W15005   0.683  35.787  12.749
49746W        W15006  20.541  33.190   0.463
49747W        W15007  18.240  11.089   1.808
49748W        W15008  26.633   3.129  11.953
49749W        W15009   5.394  10.125  12.017
49750W        W15010  38.827  26.873   0.288
49751W        W15011  22.463  29.499  12.580
49752W        W15012  37.137  16.197   1.853
49753W        W15013  30.367  38.294   2.002
49754W        W15014   9.165  29.918  11.519
49755W        W15015  35.946  34.974   3.577
49756W        W15016  22.573  30.145   0.758
49757W        W15017  39.232   3.819   2.578
49758W        W15018   7.414  17.021   3.697
49759W        W15019  11.042  16.186   0.062
49760W        W15020  41.394   1.460   0.808
49761W        W15021   9.896   5.810   2.175
49762W        W15022  26.651   6.660   1.497
49763W        W15023  39.298  23.630   1.814
49764W        W15024  21.598   4.026   1.842
49765W        W15025  13.317   6.140   4.599
49766W        W15026  25.680  42.443   0.275
49767W        W15027  19.193  32.098   2.042
49768W        W15028  30.247  41.826  12.224
49769W        W15029  10.616  38.502  11.528
49770W        W15030   6.697  20.800   0.859
49771W        W15031  30.207  35.602  13.254
49772W        W15032   4.790  42.165   3.733
49773W        W15033  32.526  11.873  12.003
49774W        W15034  24.277   9.827  13.304
49775W        W15035  18.728   2.410   1.137
49776W        W15036   8.364  37.763  14.930
49777W        W15037  14.693  31.610  10.761
49778W        W15038  37.377  43.194   1.922
49779W        W15039  26.191  36.554   3.135
49780W        W15040  30.872   5.033  11.022
49781W        W15041  13.012  40.488  12.738
49782W        W15042   3.186  10.258  11.620
49783W        W15043   6.698   6.922  14.238
49784W        W15044  21.510  24.780   2.744
49785W        W15045  38.393  17.268  14.489
49786W        W15046  26.910  39.444   2.378
49787W        W15047  35.655  14.268  13.834
49788W        W15048  14.238  16.529   1.438
49789W        W15049  26.478  22.676  10.674
49790W        W15050  14.836  27.507   2.167
49791W        W15051  28.479  14.220  10.466
49792W        W15052  29.935   1.275  12.842
49793W        W15053   4.754   9.860  11.667
49794W        W15054  20.086  22.261  12.788
49795W        W15055  21.687   8.972   1.361
49796W        W15056   0.402   9.710  13.283
49797W        W15057  11.328   5.577   1.688
49798W        W15058  42.387  44.558   4.615
49799W        W15059  29.378  31.075   0.361
49800W        W15060   2.728  27.551   4.263
49801W        W15061  17.319   3.030   1.482
49802W        W15062   4.888   4.335   1.475
49803W        W15063  32.614  12.778   1.216
49804W        W15064  12.100  22.434  14.417
49805W        W15065  42.368  41.845   1.307
49806W        W15066  25.322  24.520   3.585
49807W        W15067  18.659  22.822   3.054
49808W        W15068   2.552  12.334  11.679
49809W        W15069  43.378   2.793  13.763
49810W        W15070  38.425  30.490  13.424
49811W        W15071  35.329  23.444   3.879
49812W        W15072  37.471  30.722  11.169
49813W        W15073  26.145  11.823   2.669
49814W        W15074  15.285  13.741  11.948
49815W        W15075  27.041  12.888   4.628
49816W        W15076  26.575  14.145  14.086
49817W        W15077   9.232  39.656  14.475
49818W        W15078  19.700  40.041  13.625
49819W        W15079  28.198   8.166   2.254
49820W        W15080  34.880   1.350   3.283
49821W        W15081  28.438   1.993   1.710
49822W        W15082  32.284  25.625   3.147
49823W        W15083  23.632  13.274   2.682
49824W        W15084  35.333  30.625  14.919
49825W        W15085  23.996  37.129   5.513
49826W        W15086  39.271  24.292  12.586
49827W        W15087  35.017   2.261  13.950
49828W        W15088  43.286   9.968   5.019
49829W        W15089  31.314  32.539  14.509
49830W        W15090  27.044  34.301  14.498
49831W        W15091  26.517  32.580  14.721
49832W        W15092  30.063  23.472  14.910
49833W        W15093   8.189  18.061  13.868
49834W        W15094   1.367  21.442   1.408
49835W        W15095  25.248  21.551  11.167
49836W        W15096   4.175  23.594   4.608
49837W        W15097  42.358  18.347   1.376
49838W        W15098  32.649  14.855  13.779
49839W        W15099   7.630  25.594  11.928
49840W        W15100  21.670   6.914   0.315
49841W        W15101  35.133  24.438  14.037
49842W        W15102  30.289  11.873  13.934
49843W        W15103   3.980  40.606   1.886
49844W        W15104  30.561  26.993  13.063
49845W        W15105   4.394  28.150  11.608
49846W        W15106  38.867   8.476   2.692
49847W        W15107  37.815  18.927   1.454
49848W        W15108  17.700  31.978   3.884
49849W        W15109  38.880   7.745  11.211
49850W        W15110  11.740  41.591  11.436
49851W        W15111  44.375  10.534   4.216
49852W        W15112  17.673  39.534  13.739
49853W        W15113  43.360  21.249   3.397
49854W        W15114   5.101  43.491  12.964
49855W        W15115   0.837  25.623  12.343
49856W        W15116  26.981  23.497  14.332
49857W        W15117  37.472  19.770  12.563
49858W        W15118  22.499   9.203  12.518
49859W        W15119  25.904  18.727   3.091
49860W        W15120  14.641  27.655   0.209
49861W        W15121   3.539   4.260   4.075
49862W        W15122   1.968  23.004   0.392
49863W        W15123  33.101  17.173  12.025
49864W        W15124   9.317  38.314  13.747
49865W        W15125  14.202  13.797  13.533
49866W        W15126  11.330   9.386   4.132
49867W        W15127  25.224   8.416   3.243
49868W        W15128  13.665  33.814   3.540
49869W        W15129  35.394  31.475   0.959
49870W        W15130  31.965  37.221  11.630
49871W        W15131  40.623  42.490   1.065
49872W        W15132  31.616  19.799  14.506
49873W        W15133  26.246  28.754  14.280
49874W        W15134  23.761  11.575   4.136
49875W        W15135  40.387  28.713   2.165
49876W        W15136  15.117  40.007  11.496
49877W        W15137  20.280   1.446  12.967
49878W        W15138   3.222  20.785  10.555
49879W        W15139  36.152  24.986   3.253
49880W        W15140  29.265  14.121   0.030
49881W        W15141   1.511  18.210   4.591
49882W        W15142  26.116   7.955   0.309
49883W        W15143  21.528   7.446  12.512
49884W        W15144  44.846  23.803   1.144
49885W        W15145   1.004  32.427  11.001
49886W        W15146   1.347  41.875  14.395
49887W        W15147  29.198  35.811  12.978
49888W        W15148  21.293   0.027  11.100
49889W        W15149  12.201  27.446   0.746
49890W        W15150   2.395  25.025   3.562
49891W        W15151   2.757  24.130  10.668
49892W        W15152  39.386  39.283  13.336
49893W        W15153  30.748  13.869  12.294
49894W        W15154  39.934  26.031  10.671
49895W        W15155   8.437  34.205   3.685
49896W        W15156  25.598   3.271  12.104
49897W        W15157  38.868  41.476   4.949
49898W        W15158  14.364  11.887   0.622
49899W        W15159  36.521  41.108   0.748
49900W        W15160  31.822  35.459   2.465
49901W        W15161   3.798  23.653   2.777
49902W        W15162   7.215  14.552  13.860
49903W        W15163  35.553  21.017   4.166
49904W        W15164  43.583  33.011  10.968
49905W        W15165  19.173  19.815   3.100
49906W        W15166  25.696   7.283  12.848
49907W        W15167  44.424  37.667  14.800
49908W        W15168  39.693  40.779   4.551
49909W        W15169  41.973   9.802  13.561
49910W        W15170  18.543  16.525   2.780
49911W        W15171  17.097   0.614  14.532
49912W        W15172  29.606   0.530   1.228
49913W        W15173  11.403   0.812   3.202
49914W        W15174  32.932  31.873   5.022
49915W        W15175  24.068  24.518   4.058
49916W        W15176  42.830  13.554   1.431
49917W        W15177   7.582   8.428  12.323
49918W        W15178  29.849  30.990  12.003
49919W        W15179   7.434  28.701   2.322
49920W        W15180  23.833  44.988  12.253
49921W        W15181  43.179   7.008  13.557
49922W        W15182  39.402   6.413   0.777
49923W        W15183  35.536  30.428   1.539
49924W        W15184   6.250  26.681   2.127
49925W        W15185  34.668  44.406   1.297
49926W        W15186  39.966  15.885   4.661
49927W        W15187   9.806  26.158  13.396
49928W        W15188  20.035  38.590   1.880
49929W        W15189  28.469  24.668  12.880
49930W        W15190  22.157  32.992  10.163
49931W        W15191  17.646  18.333   1.485
49932W        W15192  25.558  31.931   1.244
49933W        W15193  23.217  40.075  11.684
49934W        W15194   2.147  27.779  11.111
49935W        W15195   1.588  12.951   4.471
49936W        W15196  18.803  40.601  12.906
49937W        W15197  42.591  10.306  12.666
49938W        W15198  20.660  29.827  14.115
49939W        W15199  13.068  41.381   5.046
49940W        W15200  28.699  29.979   0.833
49941W        W15201   1.010  14.408  12.499
49942W        W15202   9.394  31.598   2.642
49943W        W15203  15.192  16.616   1.675
49944W        W15204  37.347  40.766   0.268
49945W        W15205   8.680   8.624  14.047
49946W        W15206  40.419  36.050   0.793
49947W        W15207  10.655  26.665   2.576
49948W        W15208   0.282  37.639  12.856
49949W        W15209  39.922  12.779  14.798
49950W        W15210  10.080  35.349   4.115
49951W        W15211  43.741  39.261   0.267
49952W        W15212  33.502  39.084  12.460
49953W        W15213   6.096   9.580  14.452
49954W        W15214  12.902  35.064  11.724
49955W        W15215  30.160   7.293  11.352
49956W        W15216  34.890  24.587  10.596
49957W        W15217  16.545  10.440  10.994
49958W        W15218  31.837   7.773   0.540
49959W        W15219   7.649  36.865  11.548
49960W        W15220  40.962  29.953   0.762
49961W        W15221  21.311  16.699   3.185
49962W        W15222  26.142  18.761  10.609
49963W        W15223  29.863  15.783  12.038
49964W        W15224  41.501   2.891  10.295
49965W        W15225   3.015  41.346  10.477
49966W        W15226  37.346  25.467   0.420
49967W        W15227   7.845  15.715  14.325
49968W        W15228  31.911  43.849   2.692
49969W        W15229  40.272  20.745  13.396
49970W        W15230   9.643   5.808   0.819
49971W        W15231   0.819  28.938   0.452
49972W        W15232  14.751  22.979   3.084
49973W        W15233  28.464  28.244  10.788
49974W        W15234   5.206  11.291   3.226
49975W        W15235   9.787   4.872  12.632
49976W        W15236  23.232  19.296   2.377
49977W        W15237  30.766   5.422  14.342
49978W        W15238  18.114  26.017  13.390
49979W        W15239  23.318  39.072   3.597
49980W        W15240  30.166   1.797   2.243
49981W        W15241  29.375  25.671   0.537
49982W        W15242  43.103  43.436  13.479
49983W        W15243  12.838  18.058  14.243
49984W        W15244  26.105   6.227  13.940
49985W        W15245   1.605  16.021  12.817
49986W        W15246   1.933  35.324   3.751
49987W        W15247  34.021   4.643   0.118
49988W        W15248  12.654  43.332  12.674
49989W        W15249  35.589  22.708   4.492
49990W        W15250   1.946  28.803  10.968
49991W        W15251  23.935  44.723   4.093
49992W        W15252   8.627  29.511  12.027
49993W        W15253  22.276  21.581   2.852
49994W        W15254  22.950  39.952  13.623
49995W        W15255  18.023  22.727  13.535
49996W        W15256   2.623  40.870   4.608
49997W        W15257  29.109   9.670  13.479
49998W        W15258  40.668   9.961  11.467
49999W        W15259  41.034  39.835   0.041
50000W        W15260   8.869  21.071   1.227
50001W        W15261  41.098  44.050   3.723
50002W        W15262  27.783   4.301   0.976
50003W        W15263   8.310  20.658   4.579
50004W        W15264  30.311  28.762  10.765
50005W        W15265  27.488  27.715   3.220
50006W        W15266  27.634  17.687  14.538
50007W        W15267  27.150  30.335  10.761
50008W        W15268   6.858  38.884   3.592
50009W        W15269  28.014  21.639   3.031
50010W        W15270  28.173  39.790  14.246
50011W        W15271  44.324  18.466  14.334
50012W        W15272  12.280   3.929  12.468
50013W        W15273  30.071  23.608   3.810
50014W        W15274  29.472  34.697   4.195
50015W        W15275  30.919   6.811  11.610
50016W        W15276  32.907  42.667  14.786
50017W        W15277  37.831  28.125  11.248
50018W        W15278  28.740  10.201  14.714
50019W        W15279  25.045  41.505   2.756
50020W        W15280  29.944  29.435   4.335
50021W        W15281  38.367  16.617   2.268
50022W        W15282  19.998  10.611   3.648
50023W        W15283  44.734  25.163   2.620
50024W        W15284   7.141  20.198   4.973
50025W        W15285   6.223  12.856   0.691
50026W        W15286   3.374  20.945   0.790
50027W        W15287  41.758  21.662   1.717
50028W        W15288  28.477  35.484  12.494
50029W        W15289   0.393   8.381   4.693
50030W        W15290  20.055  15.585   0.952
50031W        W15291  22.305  34.007   4.645
50032W        W15292  14.597  35.513  12.481
50033W        W15293  13.926   2.505   0.522
50034W        W15294  35.578  33.089   1.264
50035W        W15295  39.701  11.225  10.216
50036W        W15296  28.589  14.083  11.908
50037W        W15297  15.822  19.839  14.778
50038W        W15298  28.498  15.027   3.986
50039W        W15299  11.549  13.152  12.856
50040W        W15300   3.299   2.726   3.283
50041W        W15301   0.314   8.904   1.859
50042W        W15302  35.358  37.190   4.067
50043W        W15303  35.945  34.366   1.471
50044W        W15304  29.561   9.659  13.139
50045W        W15305  15.575  33.605   0.230
50046W        W15306   8.200  39.426   2.699
50047W        W15307  28.746   3.010   3.616
50048W        W15308  27.368  20.446   3.265
50049W        W15309  40.809  14.261  13.920
50050W        W15310  19.319  32.971   0.424
50051W        W15311  11.764   0.344   2.840
50052W        W15312   2.781  19.790   1.185
50053W        W15313  19.803  36.407  14.856
50054W        W15314  33.502  40.054  12.531
50055W        W15315  44.771  44.858  12.880
50056W        W15316  40.333  42.242   3.848
50057W        W15317  37.095  44.085  12.650
50058W        W15318  18.650  38.461  10.893
50059W        W15319  26.504  42.545  12.484
50060W        W15320  20.234  42.773   2.815
50061W        W15321  21.597  34.633   3.313
50062W        W15322  35.585  34.447   3.200
50063W        W15323  28.907  23.695  12.005
50064W        W15324  29.416   8.899   1.718
50065W        W15325  31.146  43.370  11.459
50066W        W15326  19.022  38.661  12.629
50067W        W15327   8.805  24.366  13.625
50068W        W15328  39.567  14.196   4.209
50069W        W15329   8.923   8.834  13.539
50070W        W15330   8.031  16.779  14.283
50071W        W15331  34.070  26.833  10.448
50072W        W15332   7.419  38.338  13.985
50073W        W15333  20.990  30.099   3.282
50074W        W15334  40.673  36.125  14.045
50075W        W15335   7.751  15.618   3.355
50076W        W15336  31.608  23.716  10.564
50077W        W15337   1.765  35.219  10.772
50078W        W15338  14.678  32.711   1.101
50079W        W15339  29.377   8.902   4.277
50080W        W15340  40.872  42.395   4.741
50081W        W15341   8.636  28.209  13.396
50082W        W15342  28.712  43.701  13.723
50083W        W15343  39.355  23.401   5.061
50084W        W15344  18.485  11.268  12.384
50085W        W15345  26.957  14.694   3.192
50086W        W15346  41.911  42.762   2.954
50087W        W15347  41.843  32.388   2.194
50088W        W15348   9.717  19.583   4.576
50089W        W15349   9.290  13.273  11.305
50090W        W15350  34.477  41.082   3.205
50091W        W15351  39.772  20.990   2.365
50092W        W15352  39.129  27.957   2.265
50093W        W15353  12.815  43.417  13.683
50094W        W15354  38.075   9.948   1.361
50095W        W15355  12.881  43.314  13.162
50096W        W15356  37.569  15.860   5.008
50097W        W15357   6.254  21.101   1.707
50098W        W15358  28.189  27.989   0.902
50099W        W15359  20.450  24.025   2.243
50100W        W15360  44.385  39.531  13.924
50101W        W15361   6.255  20.501   1.639
50102W        W15362  22.851  41.028   2.011
50103W        W15363  44.494  20.423  14.689
50104W        W15364  18.238  36.167  13.498
50105W        W15365  44.919  37.447   0.862
50106W        W15366  31.080  16.639  13.324
50107W        W15367  30.934  39.850  11.066
50108W        W15368  24.339  31.602  14.323
50109W        W15369  29.132  14.942   2.179
50110W        W15370  26.122   4.980   4.972
50111W        W15371  22.141  18.640  13.274
50112W        W15372  12.395  29.348   2.400
50113W        W15373  16.624  35.078  10.885
50114W        W15374  42.919  23.988  13.972
50115W        W15375  18.678   4.380   0.759
50116W        W15376  43.085  34.817  11.065
50117W        W15377   9.907  32.440   3.670
50118W        W15378  18.143  18.417   3.650
50119W        W15379  31.098   1.206   4.910
50120W        W15380  19.292  36.630  11.160
50121W        W15381  25.591   1.359   4.122
50122W        W15382  37.558   6.287  14.091
50123W        W15383  35.568  19.783  14.852
50124W        W15384  19.306  17.815  13.025
50125W        W15385   9.114  40.415  14.963
50126W        W15386   6.283  12.121   0.232
50127W        W15387   2.483  34.675  13.468
50128W        W15388  15.356  34.351  12.503
50129W        W15389  32.337  43.988  13.814
50130W        W15390  13.158   3.846   0.258
50131W        W15391  29.034  13.364  13.349
50132W        W15392   0.843   0.322   4.854
50133W        W15393  16.963  33.396  11.520
50134W        W15394  10.801  29.965  13.887
50135W        W15395  21.896  37.280   4.683
50136W        W15396  18.304  11.980   1.117
50137W        W15397  10.854  26.945   2.207
50138W        W15398   8.698  14.693  11.640
50139W        W15399  42.878  30.604  11.039
50140W        W15400   2.669   1.488   0.536
50141W        W15401  13.632  31.039  13.425
50142W        W15402  41.801   7.221  13.554
50143W        W15403  25.035  13.664  13.968
50144W        W15404   4.564  37.172   2.921
50145W        W15405  40.781  17.675  10.750
50146W        W15406  15.680  25.489  14.891
50147W        W15407   2.499   5.325   0.364
50148W        W15408  32.147  26.045   4.306
50149W        W15409  18.687  34.367  12.378
50150W        W15410  21.182  42.990  13.550
50151W        W15411   7.835  27.691  12.879
50152W        W15412  22.242   1.062  12.889
50153W        W15413  12.747   9.305  12.229
50154W        W15414  19.144  32.700  11.258
50155W        W15415  16.178  37.659   0.818
50156W        W15416  39.833  16.951   3.626
50157W        W15417  34.654  22.200   1.779
50158W        W15418   8.829   9.399  10.876
50159W        W15419  19.734  36.391   3.417
50160W        W15420  19.634  25.228  11.213
50161W        W15421  21.263  33.144   2.939
50162W        W15422  26.676  15.605   4.098
50163W        W15423  33.170   6.135   2.193
50164W        W15424  11.196   2.792   4.562
50165W        W15425  35.926  25.701  11.576
50166W        W15426  39.299  35.387   3.283
50167W        W15427  13.822  34.417  13.602
50168W        W15428  40.506  28.210   2.258
50169W        W15429   6.779   4.534   2.337
50170W        W15430  10.770   8.389  12.865
50171W        W15431  37.468  27.445   0.300
50172W        W15432  43.615   4.332  13.465
50173W        W15433  37.198  29.330   1.537
50174W        W15434  41.771   6.385  14.733
50175W        W15435  30.075   3.141   2.727
50176W        W15436  27.461  40.374  10.714
50177W        W15437  14.217  31.615  11.452
50178W        W15438  43.740  21.002   2.792
50179W        W15439  15.705   7.728  14.993
50180W        W15440   3.616  35.706  11.963
50181W        W15441  16.185  23.660  14.941
50182W        W15442  26.665  13.524   0.498
50183W        W15443   9.533  20.428   4.130
50184W        W15444  32.993  17.007  13.510
50185W        W15445  42.533  11.710   1.530
50186W        W15446   7.620  30.442   4.621
50187W        W15447   0.437   7.815   1.957
50188W        W15448   6.683   8.302  13.399
50189W        W15449  25.504  31.948  12.434
50190W        W15450  38.199  25.100  14.464
50191W        W15451  41.495  15.880  11.162
50192W        W15452  37.814  26.166   1.565
50193W        W15453  22.659   9.909   5.041
50194W        W15454  10.078  41.540   4.576
50195W        W15455  29.130  30.377  13.294
50196W        W15456  15.557   3.973  13.802
50197W        W15457   4.935  10.865   2.312
50198W        W15458  33.995   7.644  10.694
50199W        W15459  20.698  17.299  11.443
50200W        W15460  27.843  31.132   0.908
50201W        W15461   2.212  16.103   4.925
50202W        W15462   3.505  20.200  13.397
50203W        W15463  21.121  35.963   3.277
50204W        W15464  32.330  31.758   2.731
50205W        W15465  13.157  22.013   0.812
50206W        W15466  27.896  31.801  11.879
50207W        W15467   7.106  43.529  11.967
50208W        W15468  26.487   4.905  13.427
50209W        W15469   0.283  42.074   2.405
50210W        W15470   2.583  40.906  12.507
50211W        W15471  39.747  40.833  12.574
50212W        W15472  44.273   1.791  12.059
50213W        W15473   3.712  10.696  10.547
50214W        W15474  18.050   1.797  13.682
50215W        W15475  38.357  36.143   4.909
50216W        W15476   0.351  17.533   0.991
50217W        W15477   6.329   0.315  15.000
50218W        W15478   0.557  32.672  12.515
50219W        W15479  32.485  44.773  10.999
50220W        W15480  39.245  41.357   0.829
50221W        W15481  34.391  41.903  13.784
50222W        W15482  44.885  21.929   0.871
50223W        W15483  29.206  38.437   4.681
50224W        W15484  19.768   1.721  10.778
50225W        W15485  25.214  11.356   3.110
50226W        W15486  34.911  18.645   3.723
50227W        W15487  24.622  38.504  11.119
50228W        W15488  41.355  34.665  13.842
50229W        W15489  27.160  23.601   1.732
50230W        W15490  14.628   1.754  13.079
50231W        W15491  15.734  39.793  14.363
50232W        W15492  25.934  32.004  14.750
50233W        W15493  36.394  23.008   0.837
50234W        W15494  19.242   9.604   1.768
50235W        W15495  18.300  13.727   0.840
50236W        W15496   2.308  35.853  12.976
50237W        W15497  25.714  36.861   3.194
50238W        W15498  14.399  27.650  12.711
50239W        W15499  40.677   1.500  10.998
50240W        W15500   4.962  15.193   1.322
50241W        W15501  14.603  11.691   2.708
50242W        W15502  30.046  17.707  13.207
50243W        W15503  29.588  20.538  14.785
50244W        W15504   9.100  44.717  14.442
50245W        W15505  35.958  12.825   4.672
50246W        W15506  17.646  25.689   4.504
50247W        W15507   2.831  44.936  13.350
50248W        W15508  32.991  26.994   0.278
50249W        W15509  30.410   0.810   1.498
50250W        W15510  28.106  38.597   4.003
50251W        W15511  15.529  16.037  11.057
50252W        W15512  12.241  11.857  12.346
50253W        W15513  14.991  16.583  14.087
50254W        W15514   1.520   4.088  14.407
50255W        W15515  15.138   1.368   4.590
50256W        W15516  41.014  20.555   3.206
50257W        W15517   5.687   5.395  12.899
50258W        W15518  11.160  17.683   1.440
50259W        W15519  37.154  33.246  10.965
50260W        W15520  12.633  24.999  11.475
50261W        W15521   0.800  30.067  12.847
50262W        W15522  30.008  34.103  11.340
50263W        W15523  41.351  35.328  13.420
50264W        W15524  37.110  41.903   1.939
50265W        W15525   2.528  25.060  12.438
50266W        W15526   6.184   6.885  12.560
50267W        W15527  36.066  26.362   2.240
50268W        W15528  18.776  18.106   2.731
50269W        W15529  30.574  39.301   4.172
50270W        W15530  27.925  28.435   0.853
50271W        W15531  24.318  31.424  12.821
50272W        W15532   2.213  41.906  13.336
50273W        W15533   1.474  16.085  14.537
50274W        W15534  31.064  35.096  10.800
50275W        W15535  34.619  17.122   4.185
50276W        W15536  12.151   6.466   1.318
50277W        W15537  31.459  35.836  10.785
50278W        W15538  33.926   7.332  14.596
50279W        W15539  19.595  35.028   1.850
50280W        W15540  18.515   9.258   0.710
50281W        W15541  13.213  12.392   3.712
50282W        W15542  38.569  37.875  13.043
50283W        W15543  19.299  33.208   0.874
50284W        W15544  11.053  22.067   0.497
50285W        W15545  20.497  30.682  13.959
50286W        W15546   1.485  16.614   4.144
50287W        W15547   9.161  10.304   0.473
50288W        W15548  44.999  37.313   3.592
50289W        W15549  28.572   6.262   0.711
50290W        W15550   5.362  27.475   2.792
50291W        W15551  34.471  31.669  11.164
50292W        W15552  41.968  23.322  12.139
50293W        W15553  29.740  30.727  10.312
50294W        W15554  11.787  26.816  11.589
50295W        W15555  33.090  23.012  12.364
50296W        W15556   1.817  22.514  11.655
50297W        W15557  15.031  20.964   0.801
50298W        W15558   5.944  15.615  11.149
50299W        W15559   1.816  37.050   4.601
50300W        W15560  40.742  19.867  13.906
50301W        W15561  12.344   1.213  12.331
50302W        W15562  39.627  22.455   0.186
50303W        W15563   5.706   3.338   1.628
50304W        W15564  19.930  40.267   4.727
50305W        W15565  23.178  25.406  10.659
50306W        W15566   0.431  33.580   0.426
50307W        W15567  38.728  28.629   0.488
50308W        W15568  41.104  43.244  11.679
50309W        W15569   3.718  33.117  10.668
50310W        W15570  42.949  23.485  11.292
50311W        W15571  10.694  22.303  12.260
50312W        W15572  42.827  38.039   2.713
50313W        W15573  17.010  24.967  10.326
50314W        W15574  40.335   6.364   4.973
50315W        W15575  35.220   8.438   2.815
50316W        W15576  25.467  38.716  14.554
50317W        W15577  11.964  14.674   3.624
50318W        W15578  15.546  41.313  11.438
50319W        W15579  14.180  25.035  14.479
50320W        W15580  17.794  26.950  10.583
50321W        W15581   5.726   3.985  13.902
50322W        W15582  39.846  11.256  12.186
50323W        W15583   6.213   6.210   0.638
50324W        W15584  20.268  42.849  14.365
50325W        W15585  37.818  18.294  13.882
50326W        W15586  16.316   3.626   0.420
50327W        W15587   7.763   4.678  12.031
50328W        W15588  28.163  31.426   0.572
50329W        W15589  26.972  12.882   5.173
50330W        W15590   7.454   2.754  14.479
50331W        W15591   8.205   9.881  13.920
50332W        W15592   3.631  43.812   3.675
50333W        W15593  24.156  33.340   3.181
50334W        W15594  43.759   4.299   4.396
50335W        W15595  41.333  22.264   0.928
50336W        W15596  38.573  14.846  11.097
50337W        W15597  44.119  39.076  12.872
50338W        W15598  35.678  19.821  11.093
50339W        W15599  36.367  18.769   0.241
50340W        W15600  40.361   2.952  12.320
50341W        W15601  24.327   1.282  12.514
50342W        W15602  25.535  12.118   1.789
50343W        W15603  43.585  33.084   4.898
50344W        W15604  14.575  22.142   3.447
50345W        W15605  39.859   4.424  11.157
50346W        W15606   9.258  30.706  12.001
50347W        W15607  34.890  35.838  11.877
50348W        W15608   1.242  30.161  11.906
50349W        W15609  23.460  27.487   0.409
50350W        W15610  22.010  42.724  14.690
50351W        W15611  22.500  26.565  10.714
50352W        W15612  32.026  16.586  10.563
50353W        W15613  41.036  27.453   2.382
50354W        W15614  14.785  22.760   4.309
50355W        W15615  39.890  19.295  10.581
50356W        W15616  24.106  12.098  10.534
50357W        W15617  38.326  36.237   0.700
50358W        W15618  21.744  35.881   1.738
50359W        W15619  36.921  25.069  10.667
50360W        W15620  38.089  33.059  11.912
50361W        W15621   7.852   7.682   4.208
50362W        W15622  25.022   4.846   0.706
50363W        W15623   4.668  14.843   4.575
50364W        W15624  26.367  23.812  11.245
50365W        W15625  18.849  30.116  12.335
50366W        W15626  25.387  29.635   1.839
50367W        W15627  26.953  43.338  12.487
50368W        W15628  12.786  15.446  14.920
50369W        W15629  30.390   0.363   1.227
50370W        W15630  28.884  30.115   0.337
50371W        W15631  17.517  25.679  11.757
50372W        W15632   0.046  43.521  12.504
50373W        W15633   5.585   0.411  12.199
50374W        W15634   6.841  37.236  13.915
50375W        W15635   4.922  32.588  10.714
50376W        W15636  35.401  43.893   4.189
50377W        W15637  22.243  40.377  11.472
50378W        W15638  41.833  22.982  14.836
50379W        W15639  21.925  39.039   3.384
50380W        W15640  33.942  29.098  13.994
50381W        W15641   8.918  22.388   0.419
50382W        W15642  32.405  27.686   4.048
50383W        W15643  28.044   4.918  10.707
50384W        W15644  16.306   8.313  12.322
50385W        W15645   1.912  38.909  13.362
50386W        W15646  11.552  15.766   4.469
50387W        W15647   1.816  39.939   0.138
50388W        W15648  11.293   7.744   2.899
50389W        W15649   0.514  30.731   2.388
50390W        W15650  33.085  15.256   2.993
50391W        W15651  39.958  12.689  11.166
50392W        W15652  38.807   9.854  11.655
50393W        W15653   9.212  31.558  14.493
50394W        W15654  36.042  25.033  13.310
50395W        W15655  19.569   0.776   4.441
50396W        W15656   8.931  26.967  11.956
50397W        W15657  27.204   9.250  12.487
50398W        W15658   4.650  14.861  12.891
50399W        W15659  15.671  35.048  11.396
50400W        W15660  14.583  13.162  10.875
50401W        W15661   6.422  24.761  14.763
50402W        W15662  17.304  38.489  14.493
50403W        W15663  41.230  30.297   2.755
50404W        W15664  14.438   9.339  14.559
50405W        W15665  35.656  15.292   2.757
50406W        W15666   6.195  12.837  12.996
50407W        W15667  13.577  27.892   2.444
50408W        W15668  41.968  44.241  12.973
50409W        W15669  33.116   9.726  11.160
50410W        W15670   6.793  33.207  14.102
50411W        W15671  40.137   5.280  14.164
50412W        W15672   3.420  22.151   0.078
50413W        W15673   5.776  39.446   2.742
50414W        W15674  25.488  30.245   1.957
50415W        W15675  14.584  25.132   4.494
50416W        W15676  18.274  12.169   4.756
50417W        W15677  35.084  23.759   5.071
50418W        W15678  14.821  20.690   3.257
50419W        W15679  16.691  36.547  12.582
50420W        W15680  23.007  26.662   2.145
50421W        W15681  28.633  23.155   4.072
50422W        W15682  42.462  24.308   1.978
50423W        W15683  23.528   0.503  12.513
50424W        W15684  29.650   8.678  14.205
50425W        W15685  42.737  28.504   4.120
50426W        W15686  20.518  40.622  10.734
50427W        W15687  40.268  39.955  12.628
50428W        W15688  24.704  17.278  12.963
50429W        W15689  19.030  26.576  13.131
50430W        W15690  32.927  19.153   1.272
50431W        W15691   9.278  24.854   9.884
50432W        W15692  40.823  24.733  12.914
50433W        W15693  38.364  25.210   2.216
50434W        W15694  33.721  16.544   1.276
50435W        W15695   4.514  44.453   4.989
50436W        W15696  15.204  40.672  13.897
50437W        W15697  33.830  37.863  12.186
50438W        W15698   9.672  42.973  14.004
50439W        W15699  16.148  39.964  13.022
50440W        W15700   6.303  38.320   0.908
50441W        W15701   2.947  31.873  10.982
50442W        W15702  21.268   1.070  13.366
50443W        W15703  19.218  38.867  11.468
50444W        W15704   6.622  43.746  11.996
50445W        W15705  27.365  41.563  13.186
50446W        W15706   1.209  20.212  14.885
50447W        W15707  34.898   4.377   4.122
50448W        W15708  17.816  14.678  14.731
50449W        W15709  33.072  20.847  14.455
50450W        W15710  25.450   3.513  11.679
50451W        W15711  20.060  31.425  11.473
50452W        W15712   8.484  44.306   4.654
50453W        W15713   3.497  15.611   5.068
50454W        W15714  40.983  44.346  10.527
50455W        W15715   5.341   9.642   0.328
50456W        W15716  29.970   8.182   1.794
50457W        W15717  12.355  12.712   0.827
50458W        W15718  21.006  13.659   1.656
50459W        W15719  26.060  16.682  10.649
50460W        W15720  35.545  17.602  14.439
50461W        W15721  33.404  33.855   3.642
50462W        W15722  35.617  23.246  13.499
50463W        W15723  19.250  39.999   3.406
50464W        W15724  22.072  28.942  14.475
50465W        W15725  14.172  25.031   4.801
50466W        W15726   1.182  40.889   4.857
50467W        W15727  32.070  42.924   2.142
50468W        W15728  43.785   1.555   1.283
50469W        W15729  30.372  44.908  10.993
50470W        W15730  15.232  30.851   3.768
50471W        W15731  19.725  40.288  12.121
50472W        W15732   0.516   8.936   0.979
50473W        W15733  43.390  14.144  13.789
50474W        W15734  42.719   9.608   1.848
50475W        W15735  30.218  18.545  12.102
50476W        W15736  40.791  13.647   0.911
50477W        W15737  24.721  11.318   1.979
50478W        W15738  35.846  42.979  14.329
50479W        W15739  26.162   7.483  12.723
50480W        W15740  36.855  13.392   3.772
50481W        W15741  25.036  10.271   2.923
50482W        W15742  21.127   5.939   2.377
50483W        W15743   1.686  29.200   1.219
50484W        W15744   3.759   8.215  12.629
50485W        W15745   8.713   5.934  13.355
50486W        W15746  28.668  41.232   3.074
50487W        W15747  44.991  14.338  12.539
50488W        W15748   9.820  29.521  10.555
50489W        W15749  27.561  29.630  13.386
50490W        W15750  31.152   2.286   4.390
50491W        W15751  44.600  29.450   2.779
50492W        W15752  39.011   5.879  13.427
50493W        W15753  42.414  31.949  11.725
50494W        W15754  12.368  19.487  13.486
50495W        W15755  29.630  15.170  11.835
50496W        W15756  39.521   9.881   3.148
50497W        W15757  34.869  25.204   2.097
50498W        W15758   1.040  31.978   2.026
50499W        W15759  11.195  35.818  14.401
50500W        W15760  23.811   2.257   3.697
50501W        W15761  13.053  21.859   2.234
50502W        W15762  13.333  30.145   3.170
50503W        W15763  24.028  12.732   4.806
50504W        W15764  10.394   6.424   1.640
50505W        W15765   1.367  33.427  14.317
50506W        W15766  41.060  27.547   0.952
50507W        W15767  34.350   7.322  14.270
50508W        W15768  23.567  17.474   0.857
50509W        W15769   4.363  35.947   2.605
50510W        W15770   3.758  29.048   1.275
50511W        W15771  16.091  38.926  10.573
50512W        W15772  13.084   4.800   3.333
50513W        W15773  21.556  23.716  10.566
50514W        W15774   2.142  38.927  12.898
50515W        W15775   5.681  43.333  14.326
50516W        W15776   7.924  44.172   3.098
50517W        W15777  38.448   5.703   4.783
50518W        W15778   7.735  18.677  12.620
50519W        W15779   6.129  28.275  10.110
50520W        W15780   3.382  40.516  11.991
50521W        W15781  20.698   2.779   4.425
50522W        W15782  14.547   5.924  11.665
50523W        W15783  15.110  36.151  11.991
50524W        W15784  41.025   5.442   2.746
50525W        W15785   9.252  22.134   3.708
50526W        W15786  31.843   3.485   3.749
50527W        W15787   8.216  14.605   3.602
50528W        W15788  40.280  26.749   2.192
50529W        W15789  18.194  28.032  14.922
50530W        W15790  38.421  37.400   3.352
50531W        W15791   9.031  25.408  13.548
50532W        W15792  10.197   8.825   4.792
50533W        W15793  41.596  11.450   1.843
50534W        W15794   8.227   1.949  11.003
50535W        W15795  29.682  26.876  12.933
50536W        W15796  33.345  29.778  13.892
50537W        W15797  15.995  21.066  11.975
50538W        W15798  15.237   0.495   4.073
50539W        W15799  35.900   6.690  11.206
50540W        W15800  42.351  13.697   0.686
50541W        W15801  42.965  13.445   1.926
50542W        W15802  15.066  19.820   0.484
50543W        W15803   2.771  44.018  12.385
50544W        W15804  43.432   2.067   0.879
50545W        W15805  43.973  21.968   4.108
50546W        W15806  35.477  11.965  14.969
50547W        W15807   3.216  19.626  12.565
50548W        W15808  20.420  14.811  11.369
50549W        W15809  44.803  15.387   3.551
50550W        W15810  36.819  39.410   1.214
50551W        W15811  17.165  43.531  13.858
50552W        W15812  31.310  12.190  13.388
50553W        W15813  13.557  20.879   2.169
50554W        W15814  35.239   3.275   4.442
50555W        W15815  33.571  26.489  12.873
50556W        W15816  29.633  44.296  11.570
50557W        W15817  31.133  21.321  12.904
50558W        W15818  20.643   7.392   3.338
50559W        W15819  15.261   7.486  12.086
50560W        W15820  38.171  24.275   1.250
50561W        W15821   0.019  20.873  12.595
50562W        W15822  18.482  29.145  10.785
50563W        W15823  10.425  39.010  11.580
50564W        W15824   0.031  35.898   2.861
50565W        W15825   9.792  44.371   3.632
50566W        W15826  18.597  23.313   3.802
50567W        W15827   1.243  43.090  10.936
50568W        W15828   8.881  42.395  12.635
50569W        W15829  35.241  42.242   3.156
50570W        W15830   9.468   1.360  13.963
50571W        W15831   6.523   7.243  11.080
50572W        W15832  27.559  40.499  13.999
50573W        W15833  17.126  14.802  13.937
50574W        W15834  22.064  42.317  13.796
50575W        W15835  41.339  32.809  12.889
50576W        W15836  27.076  37.565   0.409
50577W        W15837  38.806  22.623   2.615
50578W        W15838  12.080  26.209   2.178
50579W        W15839  26.443  38.482  13.763
50580W        W15840  39.812  24.157   2.275
50581W        W15841  14.359   6.486  13.024
50582W        W15842  28.235  28.952  14.904
50583W        W15843  22.230  16.443  12.657
50584W        W15844  41.008  22.217   2.882
50585W        W15845  34.120  37.959  12.625
50586W        W15846  31.894  23.752   3.261
50587W        W15847  39.129  30.671  11.536
50588W        W15848  38.963  24.653   1.085
50589W        W15849  16.093  25.055  10.250
50590W        W15850  36.935   9.409   2.777
50591W        W15851  12.564  18.175   0.942
50592W        W15852  28.291  15.205  13.182
50593W        W15853   8.908   4.131   0.646
50594W        W15854  35.851  15.785   2.757
50595W        W15855  15.138  26.196   0.970
50596W        W15856  25.630  21.277  13.434
50597W        W15857  33.896   7.186   1.911
50598W        W15858  42.596  12.331   0.808
50599W        W15859  13.062  34.266   2.267
50600W        W15860  14.799  26.903  12.093
50601W        W15861  14.887  31.871  12.599
50602W        W15862  16.696   7.782  11.723
50603W        W15863  28.132  34.682   4.740
50604W        W15864  25.930  10.208   3.791
50605W        W15865  24.151   0.923  13.447
50606W        W15866  41.034   9.182   4.221
50607W        W15867   6.650  42.989  13.332
50608W        W15868  17.009  35.084   0.323
50609W        W15869  33.842  40.576  11.554
50610W        W15870   1.399   3.213   1.432
50611W        W15871  22.757  18.771  11.707
50612W        W15872  35.017  25.705   3.827
50613W        W15873  13.793  23.058   1.641
50614W        W15874  37.408  31.443  10.694
50615W        W15875  41.110   8.794  12.958
50616W        W15876   1.176  28.097  11.078
50617W        W15877   7.591  20.309   2.732
50618W        W15878  43.914  44.074  11.925
50619W        W15879   0.909  31.577   1.735
50620W        W15880  43.182   5.547   4.062
50621W        W15881   6.458  40.621  12.817
50622W        W15882  31.430   5.335   2.812
50623W        W15883  25.298  25.646  10.653
50624W        W15884  29.887  34.753   2.267
50625W        W15885  17.129  16.578  10.318
50626W        W15886  17.819  42.384  13.473
50627W        W15887  20.595  18.771   2.768
50628W        W15888  21.768   6.017  10.466
50629W        W15889  13.129  28.812   2.352
50630W        W15890  18.731  28.332  12.399
50631W        W15891  43.719   6.074   3.229
50632W        W15892  44.272  12.471  13.951
50633W        W15893  43.223   8.209  13.063
50634W        W15894  36.279   8.409   0.783
50635W        W15895  39.563  24.713  10.584
50636W        W15896  41.777   3.387  13.084
50637W        W15897   5.829   3.114  10.359
50638W        W15898   2.888  20.721   2.870
50639W        W15899  35.013  24.572   2.548
50640W        W15900  30.198  23.129  11.874
50641W        W15901  30.037  35.300   0.654
50642W        W15902  10.099  20.720  12.926
50643W        W15903  20.480  23.208  10.142
50644W        W15904  31.694   9.802  13.029
50645W        W15905  30.297  39.313  11.408
50646W        W15906   6.528   5.829   1.929
50647W        W15907  27.696  18.272  13.776
50648W        W15908  20.711  43.922   2.867
50649W        W15909  16.763  43.331   2.229
50650W        W15910  21.503  33.975  12.478
50651W        W15911  11.438  21.102  11.421
50652W        W15912  32.364   9.788  12.531
50653W        W15913   6.116   3.689   0.272
50654W        W15914  19.173  44.457  12.735
50655W        W15915  16.305  43.394  14.249
50656W        W15916  13.423  38.437   3.849
50657W        W15917  27.947   9.689   0.327
50658W        W15918  26.817   4.968   3.806
50659W        W15919  35.507  29.437   0.689
50660W        W15920  10.446  37.173  11.462
50661W        W15921  23.606  24.692   3.846
50662W        W15922  20.520   0.921   0.208
50663W        W15923  19.566  16.255  11.723
50664W        W15924  30.176   1.397  10.471
50665W        W15925  42.904  29.884  13.339
50666W        W15926  39.945  24.734  14.298
50667W        W15927   0.665  31.420   1.277
50668W        W15928  42.943   2.472  11.634
50669W        W15929   0.295   4.743  11.274
50670W        W15930  34.015  19.791   1.535
50671W        W15931  31.482  36.338  14.688
50672W        W15932  13.791   4.718  10.660
50673W        W15933  44.277  11.396   2.543
50674W        W15934  26.457  16.200   1.300
50675W        W15935  16.808  44.499   2.778
50676W        W15936   8.753   7.358  13.795
50677W        W15937  29.118   7.943  12.886
50678W        W15938   5.928  24.927   4.197
50679W        W15939  41.395  23.256   3.838
50680W        W15940  41.036  35.569   1.416
50681W        W15941   2.487   5.797  13.467
50682W        W15942  11.691  11.740   2.481
50683W        W15943   4.015  42.502  11.147
50684W        W15944  14.674  12.276  11.473
50685W        W15945  15.161  14.075   2.791
50686W        W15946  24.426  22.675  10.697
50687W        W15947  38.561  33.642   2.749
50688W        W15948   2.340  19.102   3.387
50689W        W15949  28.835  13.153  14.380
50690W        W15950   4.810   7.195   4.914
50691W        W15951  39.333   6.202   1.964
50692W        W15952   2.466  44.400   3.343
50693W        W15953  41.652  44.772   3.690
50694W        W15954  32.315  24.548   5.142
50695W        W15955  20.143  32.898   4.036
50696W        W15956  24.210   6.657   2.655
50697W        W15957  32.031  22.947  13.876
50698W        W15958  15.592   5.874  11.304
50699W        W15959  30.669  24.361  12.098
50700W        W15960  17.681   3.933   4.224
50701W        W15961  20.397   7.474  13.384
50702W        W15962  12.079  34.275  14.067
50703W        W15963  31.256   8.718   3.573
50704W        W15964  10.775  28.938   2.804
50705W        W15965  42.314  19.032   3.358
50706W        W15966  21.511  35.641   3.257
50707W        W15967  19.287  26.185  12.906
50708W        W15968   0.944  13.021  10.717
50709W        W15969   5.161  33.104   3.556
50710W        W15970  10.396  40.536   3.233
50711W        W15971  26.053  40.389   4.286
50712W        W15972  24.142  23.081  14.783
50713W        W15973  39.139  44.091  11.940
50714W        W15974  35.940   5.196   2.660
50715W        W15975   9.337  21.025  14.417
50716W        W15976   8.254   7.899  12.587
50717W        W15977  14.860  42.867  12.903
50718W        W15978  20.081  21.197   0.815
50719W        W15979   1.449  12.393   5.014
50720W        W15980  20.164  14.714  14.478
50721W        W15981  25.243  23.562   4.150
50722W        W15982  34.174  20.141   3.670
50723W        W15983  36.801  44.354   4.940
50724W        W15984  41.960  22.288  11.588
50725W        W15985  33.549  18.489   0.589
50726W        W15986  29.169  44.099   0.922
50727W        W15987   3.302  18.262   2.930
50728W        W15988  16.691  36.665  10.677
50729W        W15989  42.502  35.360   3.336
50730W        W15990  21.638   2.748   4.412
50731W        W15991  21.136  32.199  12.363
50732W        W15992   6.916  11.604  11.230
50733W        W15993   4.690  21.316  11.533
50734W        W15994  21.338  11.605   3.239
50735W        W15995  31.037  42.354   2.022
50736W        W15996   3.220  33.125  10.539
50737W        W15997  18.839  28.910   3.102
50738W        W15998  40.856  15.210   3.836
50739W        W15999  33.091   2.519  11.921
50740W        W16000  28.079  26.510  13.057
50741W        W16001  20.597  30.149   1.720
50742W        W16002  36.859  25.896  13.219
50743W        W16003   8.683   4.595   5.044
50744W        W16004  10.770  43.752  14.375
50745W        W16005  22.588  17.859   2.306
50746W        W16006   1.951  34.221   3.095
50747W        W16007   4.610   0.790   4.131
50748W        W16008  18.935   3.922   4.175
50749W        W16009  29.001  10.891   3.765
50750W        W16010  11.789  23.255   0.548
50751W        W16011  21.069  16.543  10.165
50752W        W16012  10.140  13.644  11.187
50753W        W16013  26.678  42.535  14.237
50754W        W16014  39.773  13.456  13.027
50755W        W16015  22.618  27.661  13.813
50756W        W16016  37.495  14.138  10.591
50757W        W16017  27.990  17.134   0.465
50758W        W16018  34.410   7.929   3.276
50759W        W16019  21.644  27.212  12.377
50760W        W16020  25.762  40.626  13.915
50761W        W16021  20.109  35.299   2.315
50762W        W16022  40.089   9.580   0.244
50763W        W16023  33.937  29.164   4.653
50764W        W16024  44.087  32.903  10.947
50765W        W16025  17.661  11.505  14.514
50766W        W16026  41.772  28.069   3.815
50767W        W16027   5.273  17.320   2.715
50768W        W16028  44.302  17.717   0.948
50769W        W16029  23.981  37.941   0.452
50770W        W16030  17.611  36.874   2.342
50771W        W16031   4.672  32.304  14.429
50772W        W16032  24.794  10.646   3.227
50773W        W16033  12.336  24.927  13.544
50774W        W16034   3.243  34.399  11.176
50775W        W16035  26.316   1.712  14.979
50776W        W16036  39.499   2.763  11.013
50777W        W16037  19.600  33.149   3.703
50778W        W16038  30.565  22.133   3.097
50779W        W16039  32.532   4.813  10.981
50780W        W16040  18.448  36.963   2.405
50781W        W16041   1.303  43.524  11.987
50782W        W16042  10.807  38.953   4.927
50783W        W16043  33.051  12.096   3.163
50784W        W16044  24.135  30.903   2.629
50785W        W16045   8.274  28.046   0.794
50786W        W16046  22.955  33.935   4.538
50787W        W16047  37.119   6.188   2.527
50788W        W16048   3.940  40.361   4.610
50789W        W16049  40.690  25.161   4.103
50790W        W16050  17.012  17.275  13.944
50791W        W16051   6.399  17.259  11.574
50792W        W16052  21.537  11.352   4.116
50793W        W16053  37.874  35.932   0.961
50794W        W16054  18.256  32.655   2.943
50795W        W16055   5.839  25.041   0.505
50796W        W16056  37.974  41.776  11.651
50797W        W16057  31.469  20.103  12.406
50798W        W16058  35.791  28.581  11.201
50799W        W16059   9.580   5.191   1.334
50800W        W16060  12.216   7.148  14.544
50801W        W16061  15.823  34.437   0.693
50802W        W16062  41.245   4.357   1.503
50803W        W16063  41.463  24.101   3.352
50804W        W16064  22.590  28.206   4.188
50805W        W16065  40.305  11.088  13.409
50806W        W16066  29.652   0.857   2.791
50807W        W16067  37.373  39.779  14.262
50808W        W16068  11.563  41.061   0.426
50809W        W16069  21.778  19.215  14.876
50810W        W16070  19.291  22.071   0.172
50811W        W16071  12.829  27.731  11.015
50812W        W16072  28.551   3.219  13.510
50813W        W16073  24.906   1.003  14.718
50814W        W16074  20.839  41.255   4.940
50815W        W16075   5.161  24.268  14.791
50816W        W16076  40.755  12.172  14.752
50817W        W16077  28.967  16.197   1.983
50818W        W16078  19.740  20.715   1.537
50819W        W16079  26.731  33.018   0.947
50820W        W16080  26.071  32.934   0.119
50821W        W16081  15.455  38.076   4.623
50822W        W16082  13.125  24.204   3.940
50823W        W16083  15.132   1.773   0.769
50824W        W16084  29.441  11.793  14.338
50825W        W16085  26.748  14.064   0.464
50826W        W16086  19.256   1.185  11.719
50827W        W16087  32.677   0.012  14.744
50828W        W16088  31.838  38.358   0.805
50829W        W16089  19.037  30.358  11.917
50830W        W16090  30.073  10.210   0.852
50831W        W16091  26.466   8.869   3.564
50832W        W16092  37.849  14.853  12.125
50833W        W16093  28.470  26.424   3.613
50834W        W16094  11.321  10.256  10.683
50835W        W16095  41.121  31.411  11.914
50836W        W16096  42.033  31.396   4.247
50837W        W16097   2.202  32.919   3.597
50838W        W16098  23.265  37.723  12.980
50839W        W16099  40.420  20.734  13.894
50840W        W16100  40.675  13.363  14.845
50841W        W16101  28.470   6.212   3.652
50842W        W16102  15.080  43.522  12.537
50843W        W16103   3.011   4.735  14.876
50844W        W16104   1.311  38.811   3.303
50845W        W16105  38.924  29.618  12.900
50846W        W16106  39.415  29.657  13.146
50847W        W16107  16.911  37.587  12.675
50848W        W16108  38.905  31.579  10.572
50849W        W16109  16.233   6.940  14.012
50850W        W16110  39.618  14.640   0.365
50851W        W16111  17.103  40.095  11.556
50852W        W16112  28.685  37.099   1.192
50853W        W16113  42.848  28.395   3.220
50854W        W16114   5.886  33.948   1.490
50855W        W16115  11.677  35.443  13.951
50856W        W16116  32.604  21.162   1.759
50857W        W16117  37.045  39.938   0.360
50858W        W16118   1.921  18.330  11.223
50859W        W16119  13.001  31.092  11.062
50860W        W16120  22.802  25.521   9.832
50861W        W16121  17.271  18.174   0.730
50862W        W16122  16.896  32.360  11.524
50863W        W16123   7.705   0.980   0.380
50864W        W16124  21.567  32.887   1.769
50865W        W16125   0.984  41.803   3.855
50866W        W16126  40.528  42.312  13.177
50867W        W16127  24.032  15.359  13.720
50868W        W16128  29.767  41.863  14.816
50869W        W16129  44.270  39.965   0.488
50870W        W16130  42.741  35.537  11.132
50871W        W16131  44.538  21.514   0.813
50872W        W16132  25.338   8.183  14.895
50873W        W16133  43.987  41.852   4.172
50874W        W16134  12.980  19.533  12.447
50875W        W16135  29.191   4.914   2.451
50876W        W16136  14.846  25.068  11.482
50877W        W16137  37.520  41.943   1.480
50878W        W16138  32.997  30.095   3.587
50879W        W16139  20.828   1.473   3.248
50880W        W16140  41.738  44.018  14.956
50881W        W16141  38.377  17.795  13.070
50882W        W16142  17.882  15.586  11.113
50883W        W16143   8.227  39.608  11.133
50884W        W16144  10.636  35.334  11.534
50885W        W16145  18.699  34.870   3.109
50886W        W16146   3.385  34.194  13.027
50887W        W16147   9.201  11.537   4.865
50888W        W16148  16.409  20.697  12.465
50889W        W16149   3.450  40.276  13.967
50890W        W16150  12.405  42.029  11.628
50891W        W16151  44.676  22.197   2.733
50892W        W16152  12.201  13.653   1.870
50893W        W16153  40.289  42.027   0.909
50894W        W16154  13.271  13.076  14.379
50895W        W16155  28.478  35.322  14.943
50896W        W16156  35.472  34.830  11.509
50897W        W16157   2.425  27.853  12.473
50898W        W16158   4.002  20.036   4.447
50899W        W16159  21.612  25.267  11.538
50900W        W16160  16.286  29.765   4.563
50901W        W16161  24.698   2.709   2.805
50902W        W16162  43.302  14.827  12.874
50903W        W16163  13.665  19.117  14.036
50904W        W16164   9.281  44.207  14.591
50905W        W16165  32.693   2.280  12.159
50906W        W16166  44.482  25.038   5.441
50907W        W16167  44.128  29.589   3.653
50908W        W16168  29.571  19.692   2.853
50909W        W16169  13.842  35.413   1.966
50910W        W16170  40.558  19.773   1.833
50911W        W16171  25.146   0.776   1.207
50912W        W16172  24.942  11.070   3.927
50913W        W16173   1.648  13.859   4.071
50914W        W16174  32.898  44.809   4.086
50915W        W16175  13.854  42.343  12.921
50916W        W16176  40.452  44.548   1.571
50917W        W16177   0.440  29.563  12.121
50918W        W16178  31.946   6.826   0.176
50919W        W16179  37.085  17.930   4.228
50920W        W16180  24.205  44.903  12.613
50921W        W16181   9.643  40.043   1.222
50922W        W16182  41.599   2.493  12.945
50923W        W16183   5.153  44.506   4.101
50924W        W16184  21.476  25.064   3.375
50925W        W16185  15.013  20.580  13.793
50926W        W16186  31.472   1.543  10.795
50927W        W16187  28.887   4.168  12.604
50928W        W16188  32.965   5.933   2.633
50929W        W16189  39.148   0.149   2.093
50930W        W16190  19.881  37.932  13.176
50931W        W16191  22.016  34.524  12.584
50932W        W16192   2.891  30.988   4.239
50933W        W16193  18.016  28.523  14.793
50934W        W16194  39.974   6.381  14.127
50935W        W16195  40.322   3.699  12.876
50936W        W16196  41.548  20.017  13.478
50937W        W16197   1.234   1.428  13.633
50938W        W16198  22.575  11.358   2.736
50939W        W16199   6.346  35.550  12.811
50940W        W16200  32.088  25.498   0.360
50941W        W16201  28.435  27.054  12.280
50942W        W16202   6.626  39.009   0.356
50943W        W16203  27.072  28.031  10.797
50944W        W16204   3.155  30.122   2.707
50945W        W16205  29.944  28.212  12.002
50946W        W16206  36.635  17.016  10.575
50947W        W16207  12.983   2.414   1.442
50948W        W16208  15.271  19.045  13.840
50949W        W16209  21.892  39.786   4.605
50950W        W16210  37.525  30.175   4.066
50951W        W16211  12.720  43.953   2.437
50952W        W16212   7.868   8.964   3.721
50953W        W16213  16.914   2.221   4.294
50954W        W16214   7.150  43.647  14.529
50955W        W16215  17.375  25.426  14.865
50956W        W16216  26.668  40.068  12.561
50957W        W16217  41.578  25.712  13.211
50958W        W16218  22.726  26.723  14.283
50959W        W16219   1.238  20.510  12.348
50960W        W16220  28.794  16.762   2.663
50961W        W16221   2.013   9.205  12.130
50962W        W16222  28.566   2.977  11.135
50963W        W16223  23.397  14.368  13.978
50964W        W16224  14.188  25.323  14.944
50965W        W16225  22.213  29.341   4.030
50966W        W16226   3.832   7.813  12.953
50967W        W16227  24.067  37.682   4.067
50968W        W16228  12.091  16.510  14.952
50969W        W16229  43.002  13.246  13.140
50970W        W16230  44.679  37.779  13.935
50971W        W16231  41.051  11.441   9.801
50972W        W16232  21.777  15.280  13.107
50973W        W16233  16.149  44.489   1.427
50974W        W16234  34.523  24.961  11.084
50975W        W16235   9.142  32.676   2.422
50976W        W16236   0.498  34.510   3.865
50977W        W16237   4.424  19.294   1.104
50978W        W16238  27.011   6.385   1.147
50979W        W16239  22.633   3.898   1.432
50980W        W16240   9.101  26.956  13.382
50981W        W16241  36.172  38.194  13.465
50982W        W16242   5.466   7.943  11.441
50983W        W16243  37.343  14.529   1.726
50984W        W16244   0.068  38.798  12.759
50985W        W16245   2.705  14.376   2.923
50986W        W16246  35.413   7.015  13.526
50987W        W16247  41.990   4.307  13.274
50988W        W16248   3.783  10.244  11.659
50989W        W16249  28.751  39.977  11.088
50990W        W16250   6.634  16.765  10.765
50991W        W16251   7.693  28.636  11.225
50992W        W16252  44.848   3.869   4.202
50993W        W16253  17.853   8.600   0.913
50994W        W16254  10.732  36.824  11.737
50995W        W16255  30.529  12.636  14.299
50996W        W16256  20.318  34.103   1.728
50997W        W16257  40.502   9.831   3.987
50998W        W16258  34.008   3.897  14.032
50999W        W16259  18.443  41.010   2.088
51000W        W16260  36.706  40.355  10.612
51001W        W16261  34.571  28.170   1.391
51002W        W16262  40.926  43.764   2.468
51003W        W16263   5.163  30.129  14.345
51004W        W16264  36.820  19.995  12.120
51005W        W16265  30.486  21.623   3.147
51006W        W16266  29.883  17.669   3.284
51007W        W16267  37.984   3.553   0.802
51008W        W16268  12.936  41.079  12.170
51009W        W16269  38.510  15.081  13.305
51010W        W16270  31.933  39.191  11.140
51011W        W16271   0.343  37.575   4.974
51012W        W16272  25.765  11.219   3.227
51013W        W16273   3.374  29.944  11.614
51014W        W16274  30.355  18.986   3.691
51015W        W16275  16.016   7.113  11.503
51016W        W16276  28.553  32.778   2.176
51017W        W16277  39.471  40.046   1.264
51018W        W16278   2.172  26.546  12.496
51019W        W16279   0.274  22.368  13.979
51020W        W16280   2.178   5.944   2.826
51021W        W16281  24.430  20.567  14.792
51022W        W16282  17.573  28.907  14.560
51023W        W16283  44.965  28.205   0.909
51024W        W16284  38.534  26.502  13.411
51025W        W16285  11.698  18.919  11.638
51026W        W16286  30.267  16.092  13.703
51027W        W16287  29.230  24.135   3.157
51028W        W16288  15.675  23.186   2.591
51029W        W16289   2.957  26.680  10.454
51030W        W16290  22.392  38.984   0.732
51031W        W16291   4.833  14.554   5.182
51032W        W16292  43.314  24.758   1.369
51033W        W16293  25.922   3.776   2.398
51034W        W16294  19.238  19.003  11.947
51035W        W16295  25.211  34.391  14.937
51036W        W16296  27.635  22.213  14.531
51037W        W16297  15.646  42.408   4.711
51038W        W16298  27.017  35.039   0.342
51039W        W16299  25.306   8.386   1.672
51040W        W16300   2.033  38.090   1.348
51041W        W16301  43.852  11.914   1.960
51042W        W16302   8.944   3.028   0.726
51043W        W16303  23.484  35.590   0.866
51044W        W16304  23.639  20.466  14.253
51045W        W16305  13.791  40.601   4.150
51046W        W16306  13.844  10.345  12.113
51047W        W16307  35.529  32.089   0.303
51048W        W16308  12.291  26.229  10.405
51049W        W16309  22.485  19.585  14.859
51050W        W16310  11.116  24.002   3.473
51051W        W16311  33.900  26.698   1.855
51052W        W16312  13.237  19.010  13.750
51053W        W16313  23.573  18.527  12.644
51054W        W16314  18.288   1.830  10.605
51055W        W16315  26.689  17.498  13.316
51056W        W16316  30.209  14.857   3.183
51057W        W16317  12.369   2.904   3.219
51058W        W16318  31.410   0.031  14.243
51059W        W16319  24.176  38.447  13.701
51060W        W16320  32.946  35.009  12.303
51061W        W16321  40.795  20.866  11.427
51062W        W16322  24.703  23.342   2.774
51063W        W16323  17.726  12.308   3.560
51064W        W16324  19.219  35.533  11.943
51065W        W16325  41.011  13.054   3.133
51066W        W16326   7.847  15.807   4.523
51067W        W16327  32.192  34.267  13.947
51068W        W16328   4.249  27.932  11.179
51069W        W16329   8.401  41.907  12.948
51070W        W16330   5.748  14.093   3.285
51071W        W16331  34.929  39.795  13.398
51072W        W16332   8.858  30.465   0.967
51073W        W16333  44.373  20.288   1.537
51074W        W16334  42.932  10.656   4.629
51075W        W16335  34.983  11.152  10.533
51076W        W16336  12.280  34.893  12.526
51077W        W16337   5.540  20.153  12.589
51078W        W16338  23.191  24.882  10.656
51079W        W16339  21.753  18.745   3.872
51080W        W16340  44.061  17.216   2.771
51081W        W16341  26.734  10.156  10.250
51082W        W16342   5.513  26.981   2.775
51083W        W16343  23.786  34.443   2.690
51084W        W16344  35.295  25.405  11.127
51085W        W16345  44.949  26.854  12.929
51086W        W16346  28.527  33.582  12.621
51087W        W16347  39.905  24.714   2.205
51088W        W16348  21.438  38.231   2.138
51089W        W16349   0.348  18.530  14.881
51090W        W16350   9.065  41.309   3.849
51091W        W16351  11.282  18.515  10.611
51092W        W16352  34.007  33.545   1.696
51093W        W16353  43.509  35.355   3.288
51094W        W16354  13.749  39.292   1.618
51095W        W16355   1.301   2.448  14.295
51096W        W16356  16.262  32.555   1.467
51097W        W16357  34.512   3.307   3.370
51098W        W16358  33.799  42.061   2.723
51099W        W16359  29.128  19.650   4.162
51100W        W16360  24.962  33.609   2.757
51101W        W16361  30.067  23.951   2.785
51102W        W16362  36.701  41.656  13.011
51103W        W16363  16.870  13.166  11.980
51104W        W16364  32.706  30.544   0.812
51105W        W16365  20.785  41.400   3.568
51106W        W16366  12.096  11.545  14.789
51107W        W16367   4.279   8.835  11.091
51108W        W16368   5.321  32.603  12.029
51109W        W16369  44.042  37.134  14.428
51110W        W16370  11.154  39.947   2.821
51111W        W16371  12.242  28.688  12.929
51112W        W16372   1.876  22.754  13.187
51113W        W16373  16.834  25.003   4.909
51114W        W16374   2.395  35.171   1.834
51115W        W16375  22.787  18.626  14.974
51116W        W16376  30.082  43.787  12.129
51117W        W16377  34.386  12.683   0.981
51118W        W16378   5.339   0.286  13.569
51119W        W16379   4.645   9.555   3.267
51120W        W16380  10.211  36.352  11.074
51121W        W16381  26.756   0.732  11.537
51122W        W16382  40.641   0.888   2.264
51123W        W16383   1.398  24.087   9.726
51124W        W16384  19.793  33.462  11.108
51125W        W16385   9.361  28.633  12.482
51126W        W16386  33.146   6.640  13.917
51127W        W16387  16.292  13.672  12.131
51128W        W16388  15.868  38.432  13.798
51129W        W16389   0.891   2.796  11.115
51130W        W16390  10.783  33.906   3.269
51131W        W16391  41.430  39.855  14.004
51132W        W16392  30.701  21.712  13.861
51133W        W16393  27.351   8.311   1.815
51134W        W16394  13.612  20.991  10.564
51135W        W16395  43.934   3.423  10.393
51136W        W16396  24.713  41.565  10.662
51137W        W16397  32.214  28.649   3.244
51138W        W16398   0.344  37.837  11.337
51139W        W16399   8.810   2.400  11.477
51140W        W16400  10.771   6.629  14.921
51141W        W16401   0.332  17.680  10.761
51142W        W16402  20.496  19.139  13.740
51143W        W16403  14.140   4.132  14.356
51144W        W16404  42.969  29.597   2.766
51145W        W16405   5.441  22.732   3.173
51146W        W16406  35.816  10.337   3.281
51147W        W16407  29.143  34.383  11.511
51148W        W16408  15.053  29.457   3.775
51149W        W16409  22.037  28.464  12.737
51150W        W16410  19.007   5.621  13.762
51151W        W16411  44.576  15.561  13.595
51152W        W16412  16.205  20.081   1.235
51153W        W16413  16.080  36.019  13.422
51154W        W16414  33.815  19.971  10.262
51155W        W16415  41.045  21.145  14.900
51156W        W16416  16.677  29.207  14.953
51157W        W16417  35.361  40.587  12.338
51158W        W16418  18.216  28.680   0.257
51159W        W16419  16.812  16.271   0.601
51160W        W16420  36.443  24.116  12.466
51161W        W16421  13.055  10.781   1.877
51162W        W16422  28.741   5.795  11.646
51163W        W16423  13.861  25.685   3.203
51164W        W16424  29.079  28.073  14.214
51165W        W16425  19.485   5.217  12.662
51166W        W16426   1.790  24.622  11.278
51167W        W16427  14.625  22.470  12.905
51168W        W16428  38.277  30.199  11.662
51169W        W16429  33.474  12.716  14.698
51170W        W16430  32.117  44.787  12.483
51171W        W16431  36.503  20.871   2.690
51172W        W16432   1.334  35.700   5.027
51173W        W16433   7.890  14.530   3.223
51174W        W16434   2.500  20.634  13.812
51175W        W16435  28.416  16.042  11.053
51176W        W16436   5.688  26.192  10.672
51177W        W16437  24.534   0.410   4.311
51178W        W16438  29.177  12.179   1.508
51179W        W16439  21.623  15.678   3.385
51180W        W16440  17.277  27.581  13.390
51181W        W16441   1.466  30.191   0.793
51182W        W16442  26.937  32.879  14.015
51183W        W16443   6.864   9.329   1.816
51184W        W16444  41.387   8.236   3.948
51185W        W16445  35.883  40.337  13.702
51186W        W16446   5.920   3.874  11.935
51187W        W16447   0.399  19.192   3.263
51188W        W16448   9.778  29.716  13.030
51189W        W16449  13.213   5.755  14.476
51190W        W16450  13.161  35.972   1.712
51191W        W16451  18.557  31.486   4.059
51192W        W16452  29.588  28.711   2.062
51193W        W16453  43.420  44.419  12.911
51194W        W16454   3.007  20.469   2.434
51195W        W16455   8.433  40.501  11.408
51196W        W16456  28.262   8.486  12.411
51197W        W16457  23.060   3.255   2.609
51198W        W16458   3.237  19.345   2.912
51199W        W16459  42.055   3.456  11.672
51200W        W16460   6.146  44.331  11.022
51201W        W16461  34.965  41.834  12.507
51202W        W16462  33.320  16.030   2.402
51203W        W16463  22.155  37.304   2.728
51204W        W16464  38.633  39.447   2.570
51205W        W16465  37.979  21.352  13.349
51206W        W16466  31.612  15.829  13.790
51207W        W16467   4.874  30.475  13.550
51208W        W16468  14.237  36.122   4.646
51209W        W16469  36.484   3.940   2.430
51210W        W16470  35.861  21.976   2.404
51211W        W16471  19.356  37.717   1.487
51212W        W16472  13.627   8.689  14.505
51213W        W16473  39.027  14.233  12.782
51214W        W16474  37.998  23.402   4.047
51215W        W16475   1.064  36.573  11.666
51216W        W16476  12.841  38.782   1.262
51217W        W16477   0.668  11.556  14.431
51218W        W16478  36.367   8.416  14.375
51219W        W16479   5.841  40.526  11.591
51220W        W16480   9.660  14.724   1.315
51221W        W16481  30.956  43.358   3.575
51222W        W16482  32.775   8.802   4.530
51223W        W16483  40.320  23.100  10.521
51224W        W16484   7.144  13.536  12.486
51225W        W16485  20.624  22.583   4.540
51226W        W16486  35.534  43.101   3.469
51227W        W16487  29.369  11.108  13.580
51228W        W16488  17.074  32.271  12.852
51229W        W16489  34.010   9.062   0.838
51230W        W16490   6.385  22.156  10.625
51231W        W16491  14.575  37.220   4.011
51232W        W16492  10.668   9.240  12.382
51233W        W16493  25.662  37.334  14.580
51234W        W16494  38.523  40.513   4.133
51235W        W16495  43.899  10.626   3.480
51236W        W16496  39.469  16.320  11.694
51237W        W16497  11.558  25.087  10.630
51238W        W16498  16.673   1.824   1.366
51239W        W16499  39.367  30.108  14.450
51240W        W16500  11.623  39.385  11.085
51241W        W16501  19.710   3.149   3.133
51242W        W16502  11.919   3.034   0.858
51243W        W16503  37.886  23.613  11.381
51244W        W16504  35.015  42.838   0.429
51245W        W16505   9.802  18.291   0.375
51246W        W16506  43.287  39.866   4.944
51247W        W16507  26.118  31.105  13.067
51248W        W16508   2.049  14.341   1.264
51249W        W16509  25.477  25.461  13.760
51250W        W16510  44.731  32.350   2.207
51251W        W16511  12.395  32.086   4.436
51252W        W16512   9.768   6.832  14.614
51253W        W16513  29.032  32.662   2.373
51254W        W16514  20.579  36.770  12.366
51255W        W16515  14.533  25.126   0.389
51256W        W16516  11.210  17.176  11.152
51257W        W16517  23.739  38.595   2.791
51258W        W16518  36.110  37.165   2.711
51259W        W16519  43.602  15.643  13.296
51260W        W16520  19.606  43.386  12.476
51261W        W16521   5.754  34.605   4.619
51262W        W16522  36.509  24.728  12.420
51263W        W16523  37.393  31.537   3.274
51264W        W16524  15.280  44.945  12.098
51265W        W16525  27.436  36.079  13.389
51266W        W16526   2.903  18.336  13.428
51267W        W16527  11.699  10.611   1.676
51268W        W16528   0.222  30.953   4.764
51269W        W16529  34.304  14.181   3.692
51270W        W16530  24.943  18.648  12.891
51271W        W16531  25.585  15.608  13.058
51272W        W16532   3.567   3.227   1.923
51273W        W16533  37.037  38.685  10.853
51274W        W16534  25.640  20.474   3.666
51275W        W16535  40.121   3.482   1.701
51276W        W16536  12.577  43.056  11.031
51277W        W16537  11.304  25.510   3.702
51278W        W16538   3.998  44.777  11.262
51279W        W16539  42.263   4.459   2.201
51280W        W16540  28.738  13.299   2.637
51281W        W16541  25.854  36.374  11.641
51282W        W16542  29.439  15.126  14.795
51283W        W16543  17.138  20.248  13.876
51284W        W16544  31.669  20.736   4.247
51285W        W16545   7.632  28.159   3.818
51286W        W16546   3.814  24.679   0.898
51287W        W16547  18.735  23.485   1.791
51288W        W16548   7.174  32.162  13.377
51289W        W16549  44.829  44.935   0.877
51290W        W16550   9.873  30.576  12.807
51291W        W16551  10.162  43.317   1.664
51292W        W16552   8.388  35.306   0.739
51293W        W16553  44.411   8.161  12.107
51294W        W16554  41.787  26.385  11.920
51295W        W16555  26.737  18.411  12.765
51296W        W16556   4.261  15.177   2.547
51297W        W16557   1.445  23.369  11.560
51298W        W16558  33.798  10.132   0.229
51299W        W16559  14.488  22.194  12.491
51300W        W16560  35.416  11.583  14.612
51301W        W16561  33.509   2.896  14.938
51302W        W16562  27.702  11.903   3.903
51303W        W16563  37.701  43.025   5.534
51304W        W16564  39.552  24.981  12.093
51305W        W16565  11.107  37.701   2.346
51306W        W16566  21.524  21.683   4.924
51307W        W16567  10.928  26.151   0.440
51308W        W16568  28.255  29.614   4.569
51309W        W16569  34.175   5.338  14.564
51310W        W16570  37.337  10.560   1.737
51311W        W16571  40.525  40.296  13.937
51312W        W16572  21.669  29.470  12.145
51313W        W16573  31.567  31.715   0.968
51314W        W16574  30.111  28.848  13.904
51315W        W16575  15.792   5.304   3.013
51316W        W16576  41.232  38.468   2.224
51317W        W16577  16.982  41.998   2.295
51318W        W16578  11.221  20.740   0.405
51319W        W16579   5.770  18.793   3.594
51320W        W16580  34.912  32.836   0.034
51321W        W16581   4.602  19.677   4.190
51322W        W16582  22.554  18.307   5.008
51323W        W16583  22.775  11.799   0.877
51324W        W16584  32.040   0.553  10.246
51325W        W16585  33.659  39.814   2.251
51326W        W16586  32.007   8.616   4.249
51327W        W16587  30.831  17.001  12.805
51328W        W16588  14.751  38.076   1.676
51329W        W16589   2.994  15.822   2.604
51330W        W16590   2.428  35.657  14.338
51331W        W16591  33.417  31.991  13.874
51332W        W16592  28.077  20.583  14.880
51333W        W16593  22.518   3.245  13.473
51334W        W16594   6.305  25.460  12.997
51335W        W16595   7.198  12.408   2.843
51336W        W16596  40.829   5.421   3.308
51337W        W16597   4.473  30.955  11.790
51338W        W16598  20.164  27.453  11.601
51339W        W16599   9.375   8.178  13.898
51340W        W16600  17.372  24.979  13.572
51341W        W16601  40.211  37.460  13.846
51342W        W16602  38.964  26.878   1.210
51343W        W16603  39.437  17.063   0.075
51344W        W16604  27.830  12.843   0.868
51345W        W16605   4.516  18.435  14.081
51346W        W16606  22.494   7.345   0.833
51347W        W16607  35.459  26.572  11.596
51348W        W16608   7.412  32.105   2.814
51349W        W16609  30.477  30.019   3.866
51350W        W16610  21.700  33.661  13.832
51351W        W16611  17.843  30.088   3.720
51352W        W16612  29.971  40.060   0.455
51353W        W16613  33.923  25.020   4.416
51354W        W16614  38.444  28.680  13.073
51355W        W16615  21.675   3.357   3.236
51356W        W16616  14.983  13.101  11.227
51357W        W16617  34.845  31.311   0.334
51358W        W16618  17.885  11.267   3.555
51359W        W16619  25.758  36.417   1.275
51360W        W16620   6.214  26.544   3.106
51361W        W16621  35.526  42.330   3.618
51362W        W16622   9.863  30.039  10.350
51363W        W16623  24.607  38.592  14.974
51364W        W16624  10.247  11.022  11.007
51365W        W16625  17.661  22.211  11.060
51366W        W16626  34.624  42.845  12.861
51367W        W16627  40.876  20.409  13.897
51368W        W16628   4.405   7.400   4.162
51369W        W16629  28.027  12.104   0.214
51370W        W16630  21.337  26.143   4.613
51371W        W16631   7.817  28.622  12.398
51372W        W16632   1.764  38.124  12.964
51373W        W16633   5.442  13.705   2.660
51374W        W16634   5.415   0.058   0.476
51375W        W16635  34.585   0.006   0.843
51376W        W16636  35.127  24.104  14.422
51377W        W16637   8.977  11.862   4.540
51378W        W16638  23.660  10.574   4.290
51379W        W16639  22.670  42.396  14.499
51380W        W16640   5.096   1.205   2.765
51381W        W16641  11.361  20.644  14.906
51382W        W16642  17.858  30.960   4.325
51383W        W16643  24.954  43.947  12.180
51384W        W16644   2.322  42.507   2.265
51385W        W16645   7.593  27.442   1.410
51386W        W16646  39.292  22.664   2.766
51387W        W16647   1.158   1.879   4.546
51388W        W16648  26.154  18.561  13.963
51389W        W16649  17.095  23.129   1.453
51390W        W16650  42.378  30.489  11.133
51391W        W16651  44.706   6.036  13.055
51392W        W16652  20.073  40.825   2.632
51393W        W16653  34.116  41.860  14.348
51394W        W16654  42.911  24.292  11.599
51395W        W16655  32.957  44.551  14.016
51396W        W16656   7.462  41.811   4.395
51397W        W16657   3.283   4.366   2.885
51398W        W16658   4.238  22.262  11.551
51399W        W16659  38.505  19.058  10.573
51400W        W16660   3.423  14.270  11.444
51401W        W16661  21.476  43.993  10.664
51402W        W16662  10.240  24.937   1.931
51403W        W16663  25.390  24.465  13.489
51404W        W16664  43.292  37.607  10.728
51405W        W16665  19.510   6.866  11.510
51406W        W16666  17.778  24.450  10.789
51407W        W16667  27.236  24.944   1.767
51408W        W16668  36.388  44.755  12.522
51409W        W16669   4.958  38.066  11.220
51410W        W16670  10.207  25.562   1.312
51411W        W16671  32.736   3.872  13.177
51412W        W16672  21.323  30.648   0.714
51413W        W16673  13.251  43.652  13.018
51414W        W16674  26.586   5.464   0.309
51415W        W16675   1.209  40.910  12.858
51416W        W16676  33.659   3.549   1.276
51417W        W16677  10.822  16.165   3.205
51418W        W16678  28.989  12.199  12.080
51419W        W16679  11.789  33.019   2.945
51420W        W16680   0.907  31.073   2.529
51421W        W16681   0.341  43.986  13.194
51422W        W16682  34.581  38.840  13.095
51423W        W16683  18.076  16.885   0.521
51424W        W16684  32.014  18.693   1.421
51425W        W16685  35.496   4.309   0.748
51426W        W16686   4.377  41.397  11.276
51427W        W16687   1.914  34.509   2.616
51428W        W16688  30.299   7.597   2.905
51429W        W16689  26.080  34.155  12.107
51430W        W16690  42.389  31.370  14.000
51431W        W16691  31.670  24.488  11.999
51432W        W16692   5.217  23.280   2.239
51433W        W16693  26.253  20.730   0.328
51434W        W16694   8.265   1.495  13.495
51435W        W16695   4.671  23.614   4.487
51436W        W16696  38.353   5.111   2.804
51437W        W16697  28.585  21.294  11.546
51438W        W16698  33.930   9.236  14.607
51439W        W16699  20.106  26.886   3.684
51440W        W16700   5.382   6.666   1.814
51441W        W16701  17.806  34.467  10.650
51442W        W16702   9.403  41.367  10.005
51443W        W16703  31.420   1.953  12.663
51444W        W16704  14.168  44.719  14.739
51445W        W16705  21.217  26.299   5.095
51446W        W16706  13.609   9.356  12.603
51447W        W16707  29.475  42.217  13.870
51448W        W16708  16.631  11.076   1.278
51449W        W16709  30.706  29.206   4.187
51450W        W16710   8.332  15.206  13.891
51451W        W16711  39.252   0.711  14.409
51452W        W16712   2.306  29.144  10.713
51453W        W16713  35.857  34.609   1.918
51454W        W16714  41.675  30.656  12.452
51455W        W16715  29.882  13.330   4.213
51456W        W16716  17.526  22.779   0.506
51457W        W16717  33.893  30.334  12.461
51458W        W16718  29.966  25.499   3.790
51459W        W16719  22.798  44.470  12.594
51460W        W16720  21.608  16.289  12.943
51461W        W16721  24.246  40.093  10.111
51462W        W16722  19.207  23.556  13.307
51463W        W16723   2.812   3.682   3.131
51464W        W16724  42.354  12.799   1.680
51465W        W16725  14.945  22.974   0.847
51466W        W16726  17.646  40.510   4.628
51467W        W16727   6.631  27.998   2.763
51468W        W16728  44.472  26.050   3.748
51469W        W16729  34.258  17.224  11.025
51470W        W16730  17.177  21.485  11.142
51471W        W16731  42.917   0.058   0.379
51472W        W16732  31.702  36.027   1.848
51473W        W16733  33.872  33.962   3.875
51474W        W16734   5.694   5.715   0.222
51475W        W16735  42.766  22.056  13.087
51476W        W16736  12.661  10.337  11.054
51477W        W16737  11.767  23.107  10.608
51478W        W16738  41.864  27.895  12.636
51479W        W16739  38.104   6.780  13.359
51480W        W16740   0.988  43.390  10.580
51481W        W16741   7.781  18.237   4.156
51482W        W16742  34.937  10.841   1.441
51483W        W16743  32.697  29.032  10.664
51484W        W16744  19.481  16.295   1.464
51485W        W16745  14.697  25.319  10.202
51486W        W16746   3.479  23.801  14.249
51487W        W16747  42.880  30.688   4.728
51488W        W16748  31.012  31.627   5.037
51489W        W16749  39.632  20.248   1.593
51490W        W16750  22.358   2.982   5.329
51491W        W16751  33.514  41.984   4.766
51492W        W16752  18.720  20.241  13.297
51493W        W16753  37.746  30.832  10.212
51494W        W16754  15.131  11.141   1.413
51495W        W16755  17.248  21.367   4.476
51496W        W16756  33.336  20.582  11.181
51497W        W16757  11.446  19.695  14.314
51498W        W16758  21.595  32.140  12.628
51499W        W16759   8.166  15.509  11.514
51500W        W16760  31.211  19.164   1.516
51501W        W16761  40.255  30.004  13.021
51502W        W16762  38.522   3.206   4.038
51503W        W16763   5.451  11.299   2.764
51504W        W16764  20.979  44.859   0.427
51505W        W16765  28.559  11.383  14.015
51506W        W16766  14.750   6.841  11.535
51507W        W16767  33.463  38.721   1.757
51508W        W16768  15.279  23.788  11.557
51509W        W16769   7.142  27.955  11.168
51510W        W16770  32.478  32.314   3.718
51511W        W16771  34.328  20.633  11.632
51512W        W16772  40.859  31.406   4.554
51513W        W16773  42.531  23.192  12.622
51514W        W16774  21.163  43.844  11.828
51515W        W16775  17.187  14.563  12.040
51516W        W16776  40.219   5.724   1.522
51517W        W16777  14.918  38.595  11.179
51518W        W16778  25.963  13.859  12.918
51519W        W16779  28.482  28.170   0.389
51520W        W16780   0.211  18.520  11.580
51521W        W16781  21.710  24.962  14.784
51522W        W16782  11.046  41.164   0.269
51523W        W16783  23.223  34.344  10.660
51524W        W16784  12.667  20.940  11.181
51525W        W16785  14.291   6.929  13.987
51526W        W16786  36.002  29.649   2.772
51527W        W16787  38.253   5.933  11.310
51528W        W16788  40.045   8.705   1.348
51529W        W16789  37.452  17.731  13.074
51530W        W16790  23.210  26.505   3.647
51531W        W16791   9.612  11.362  13.287
51532W        W16792  28.348  22.471   3.742
51533W        W16793  37.589  34.076  12.954
51534W        W16794  40.318  29.683   2.368
51535W        W16795   9.194  21.806  13.970
51536W        W16796  12.222  34.790  14.139
51537W        W16797   0.475  21.616   1.175
51538W        W16798  16.389  26.626  12.464
51539W        W16799  20.137  23.631  13.900
51540W        W16800  30.891  12.990  13.458
51541W        W16801  29.496  25.279   9.601
51542W        W16802  28.673   0.346   0.788
51543W        W16803   9.687  36.045   1.352
51544W        W16804  14.235   3.835  12.203
51545W        W16805   1.258  40.945  14.410
51546W        W16806  29.761  33.584   2.084
51547W        W16807  18.231  37.491   4.793
51548W        W16808  44.055   6.841   0.851
51549W        W16809  22.995  27.530   2.269
51550W        W16810  12.899  26.484   2.222
51551W        W16811  42.645   2.862  11.939
51552W        W16812  24.607  11.599  12.122
51553W        W16813  40.020  14.925  12.473
51554W        W16814   7.094   9.658  14.719
51555W        W16815  30.156   1.934  11.998
51556W        W16816  21.278  41.415  13.430
51557W        W16817  12.849  27.774   2.846
51558W        W16818   4.320  24.531   0.839
51559W        W16819  29.559  13.782  14.756
51560W        W16820  25.711   9.561  13.554
51561W        W16821  30.967  18.153   3.159
51562W        W16822  19.615  27.474  10.894
51563W        W16823  16.964  28.087  14.118
51564W        W16824  18.773  37.922  12.127
51565W        W16825  32.027  42.742   2.620
51566W        W16826  11.228  15.869   1.307
51567W        W16827   2.707  14.192  12.164
51568W        W16828  39.368  31.135  14.394
51569W        W16829   1.302  14.932  11.417
51570W        W16830  24.532   7.740   4.391
51571W        W16831  42.425  44.807   3.387
51572W        W16832  19.159  16.621  12.407
51573W        W16833  33.436  27.600   1.720
51574W        W16834   9.115  40.001   0.875
51575W        W16835  41.035  42.970   2.859
51576W        W16836  36.162  27.031   5.487
51577W        W16837  26.983  44.540   1.489
51578W        W16838  16.223  11.469  12.894
51579W        W16839   2.688  10.353  11.632
51580W        W16840  30.365  26.380   0.213
51581W        W16841   8.364   5.374  10.452
51582W        W16842   9.443  39.896  14.876
51583W        W16843   4.261  13.821  11.181
51584W        W16844   8.839   7.451   2.709
51585W        W16845  33.609  12.699  12.520
51586W        W16846  24.961  42.345  12.061
51587W        W16847  44.019  36.482   1.271
51588W        W16848  24.130   0.168  13.045
51589W        W16849  18.065  27.112   3.353
51590W        W16850   4.177  12.300   3.277
51591W        W16851   8.277  44.804  10.638
51592W        W16852  35.146  24.080   2.385
51593W        W16853   0.225   2.012   2.770
51594W        W16854  26.018   9.431  14.566
51595W        W16855  27.405  14.267  10.680
51596W        W16856  37.076  25.714  14.748
51597W        W16857  33.905  39.460  14.199
51598W        W16858  25.466  16.243  13.371
51599W        W16859  11.144   3.739  10.742
51600W        W16860   1.302  13.758   4.432
51601W        W16861   3.896   8.668  12.402
51602W        W16862  37.033  23.291   1.231
51603W        W16863  31.601   7.658  11.386
51604W        W16864  20.075  35.837   2.261
51605W        W16865  30.711  18.781   0.343
51606W        W16866  44.531  33.501  12.075
51607W        W16867  44.858  37.545   5.140
51608W        W16868   5.829   1.904  10.412
51609W        W16869  18.228  33.481   4.555
51610W        W16870  17.222  30.560   2.260
51611W        W16871  18.320  40.868  12.703
51612W        W16872  18.048  18.122   5.409
51613W        W16873   4.606  24.494   0.363
51614W        W16874  39.336  19.307   1.654
51615W        W16875  42.871  28.097  13.026
51616W        W16876  44.444   8.289   1.594
51617W        W16877  27.095  10.278   0.519
51618W        W16878  44.984  16.271   2.213
51619W        W16879  40.341  11.880  14.483
51620W        W16880  11.826  25.318  11.654
51621W        W16881  28.953  29.995   3.269
51622W        W16882   9.748   2.475   4.500
51623W        W16883  28.634   4.867  10.934
51624W        W16884   5.920   4.584   4.754
51625W        W16885  31.395   0.573  13.403
51626W        W16886  42.592  10.678   3.227
51627W        W16887  31.085  32.460   3.090
51628W        W16888  28.554  14.641  10.840
51629W        W16889  11.071  28.681  10.679
51630W        W16890  29.766   2.155   2.336
51631W        W16891  39.085  25.950   1.221
51632W        W16892  21.585  44.209  11.172
51633W        W16893  20.205  17.189  11.393
51634W        W16894  19.040   5.117   4.835
51635W        W16895  29.574  13.614   2.268
51636W        W16896  39.045   5.335  12.830
51637W        W16897  29.354  21.601   0.516
51638W        W16898  35.498   7.651  10.605
51639W        W16899  37.406   4.718  11.073
51640W        W16900  34.964   1.267  11.934
51641W        W16901  14.668  33.840   2.148
51642W        W16902  19.591   9.339  13.954
51643W        W16903  30.185   5.687   3.888
51644W        W16904  21.350   8.285   3.313
51645W        W16905  44.079  26.138   4.579
51646W        W16906  24.657  25.921  12.442
51647W        W16907  14.128  33.357   0.162
51648W        W16908   0.098  42.930   2.797
51649W        W16909   3.460  34.420  10.627
51650W        W16910  22.541  28.058  13.491
51651W        W16911  19.737  11.036  14.973
51652W        W16912  41.178  29.506   0.923
51653W        W16913   3.718   4.096   3.040
51654W        W16914  11.776  43.285  10.499
51655W        W16915  29.057  25.191   3.865
51656W        W16916  10.411  14.005  14.045
51657W        W16917  22.275   9.396  11.108
51658W        W16918  44.938  27.091   1.931
51659W        W16919  33.819  10.292  13.816
51660W        W16920   3.732  44.827   1.585
51661W        W16921  10.368   3.230  10.322
51662W        W16922  34.138   2.811   2.796
51663W        W16923  16.651  26.001   3.177
51664W        W16924   9.636  21.024   0.579
51665W        W16925   6.307  30.644   4.769
51666W        W16926  30.427  10.393  11.106
51667W        W16927  36.436   9.316  13.839
51668W        W16928  15.547  16.275   0.795
51669W        W16929  38.175   1.952  11.097
51670W        W16930  33.219  24.212  13.139
51671W        W16931  38.912  43.959   2.176
51672W        W16932  10.485   3.088  10.897
51673W        W16933  43.549  31.252  10.519
51674W        W16934  23.679   3.324  14.752
51675W        W16935  26.143  30.914  11.239
51676W        W16936  34.937  10.883  12.945
51677W        W16937  36.793  23.840  11.585
51678W        W16938  18.277  37.999  14.064
51679W        W16939  26.136  38.976  10.725
51680W        W16940  39.507  36.630   2.328
51681W        W16941   6.996  24.616  13.790
51682W        W16942  28.421  12.789   4.210
51683W        W16943  43.011  40.028  11.844
51684W        W16944  17.305  37.803   4.522
51685W        W16945  40.355  37.484  14.898
51686W        W16946  16.052  23.962  12.068
51687W        W16947  35.768  41.930   2.322
51688W        W16948  20.128  38.259  10.606
51689W        W16949  29.174  13.617   2.645
51690W        W16950  24.074  26.465  10.754
51691W        W16951   5.787  41.819   0.242
51692W        W16952  19.991  11.768  13.074
51693W        W16953   2.437  35.036   2.354
51694W        W16954   6.444   4.122  14.023
51695W        W16955  37.160  21.371   4.288
51696W        W16956  17.732   2.624  13.437
51697W        W16957  17.222  18.368   1.214
51698W        W16958  34.411  30.453  14.563
51699W        W16959  32.378  12.820  14.811
51700W        W16960   4.510  38.958  13.328
51701W        W16961   6.414  43.987  14.262
51702W        W16962  15.762  25.930   1.122
51703W        W16963  42.375   9.479   1.181
51704W        W16964  14.201  22.986  11.966
51705W        W16965  30.927  25.955  12.069
51706W        W16966   1.161  16.564   3.746
51707W        W16967  10.816   3.317   1.849
51708W        W16968  28.920  44.591  11.113
51709W        W16969  28.018  33.863   2.640
51710W        W16970  17.416  30.435  13.874
51711W        W16971  17.247   6.121  14.127
51712W        W16972  35.972   7.668   4.757
51713W        W16973  13.816  44.392  14.968
51714W        W16974  21.473  20.264   1.325
51715W        W16975   3.413  37.482   5.106
51716W        W16976  30.952  13.993   3.837
51717W        W16977  26.497  19.812  12.903
51718W        W16978  10.125  10.170  11.557
51719W        W16979  32.827   3.062   0.644
51720W        W16980  24.789  20.297   2.177
51721W        W16981  41.040  31.216   1.896
51722W        W16982  37.501  23.074   1.923
51723W        W16983   7.214  13.787  10.693
51724W        W16984  13.723  11.329   2.410
51725W        W16985   8.754  38.085  14.966
51726W        W16986  22.340  21.130  14.761
51727W        W16987  26.225  39.023  13.113
51728W        W16988  29.529  11.276   3.859
51729W        W16989   5.194  25.634  11.558
51730W        W16990  26.873  22.379  12.919
51731W        W16991   1.489  24.111   3.156
51732W        W16992  11.242  38.024   0.902
51733W        W16993  31.267  34.709   0.791
51734W        W16994  10.816  26.017   3.063
51735W        W16995  28.759  26.883  13.109
51736W        W16996  42.915   5.801  13.024
51737W        W16997  43.292  43.029  12.230
51738W        W16998  14.509  38.572  12.151
51739W        W16999  34.602  16.269  13.824
51740W        W17000   3.911  22.561  14.383
51741W        W17001  15.060  37.554   3.320
51742W        W17002  34.735  23.215   9.933
51743W        W17003  30.894  35.803   2.261
51744W        W17004  17.725  22.723   0.993
51745W        W17005  24.550  20.216  13.914
51746W        W17006  27.836  42.845   9.818
51747W        W17007  23.047   3.899   0.705
51748W        W17008  16.747  35.054  13.018
51749W        W17009  44.153  43.286  12.957
51750W        W17010   6.792  10.672   1.394
51751W        W17011  16.043  31.938   2.276
51752W        W17012  36.825  14.332   1.907
51753W        W17013  29.110   6.269  11.045
51754W        W17014  30.647   6.960   2.180
51755W        W17015  11.893  16.537   2.221
51756W        W17016  31.868  36.342   0.628
51757W        W17017  37.102  14.537  11.469
51758W        W17018  31.426  33.286  12.561
51759W        W17019  22.246   3.933   0.234
51760W        W17020  26.714  13.233   4.831
51761W        W17021   5.008  27.999   0.824
51762W        W17022  12.673   5.757  12.342
51763W        W17023  25.707  13.357   0.988
51764W        W17024  19.809  41.026  13.914
51765W        W17025  25.241  29.180   3.158
51766W        W17026   4.371  20.369  11.708
51767W        W17027  20.682  39.268  11.994
51768W        W17028  15.745  22.573   1.386
51769W        W17029  39.788  23.040  12.004
51770W        W17030  41.076  14.699  11.618
51771W        W17031  10.400   0.243  10.699
51772W        W17032  41.372  30.879  10.689
51773W        W17033  42.418  27.902   4.401
51774W        W17034  38.210  19.550   1.301
51775W        W17035  24.972  27.878  11.161
51776W        W17036  37.347  31.409  14.730
51777W        W17037   8.782  44.557   3.637
51778W        W17038  21.737  27.076   1.753
51779W        W17039  27.140  44.797  14.029
51780W        W17040  31.568   6.274  12.969
51781W        W17041   7.277  17.053  12.084
51782W        W17042   8.777  11.693  13.289
51783W        W17043  33.577  33.457  14.869
51784W        W17044  27.683  15.587  10.530
51785W        W17045   9.931  41.004   4.349
51786W        W17046  24.354   2.370   5.063
51787W        W17047   5.796  16.558   3.636
51788W        W17048  32.168  26.542   0.266
51789W        W17049  21.674  13.157   2.508
51790W        W17050   9.363  27.010   0.305
51791W        W17051  41.487  12.930   0.319
51792W        W17052  31.554  38.549  13.763
51793W        W17053  14.924   0.705  14.473
51794W        W17054   1.945   7.279   1.870
51795W        W17055   3.146  16.122   4.387
51796W        W17056   7.152   0.942  11.954
51797W        W17057  22.179  29.679   3.636
51798W        W17058  10.576   0.523  11.968
51799W        W17059  20.306  21.201  10.975
51800W        W17060  17.842  29.090   3.581
51801W        W17061  10.291  25.228   2.360
51802W        W17062  20.005  22.825   0.742
51803W        W17063  43.165  19.718  10.283
51804W        W17064  36.629   0.992  12.122
51805W        W17065  14.792  18.698  11.982
51806W        W17066   3.871  11.389  12.879
51807W        W17067  39.298  34.257   2.808
51808W        W17068  11.917  17.588   4.502
51809W        W17069  12.992  39.896   2.393
51810W        W17070   7.333   4.966  12.116
51811W        W17071   1.431  16.884   2.774
51812W        W17072   2.435  17.261  10.731
51813W        W17073  23.800  37.013   1.954
51814W        W17074  34.823   3.430  11.659
51815W        W17075  26.270  36.318  13.301
51816W        W17076  39.486  44.263   0.436
51817W        W17077  12.491  36.339   3.703
51818W        W17078  11.923   9.783  11.233
51819W        W17079   8.696   3.220   3.349
51820W        W17080  29.644  16.177  10.466
51821W        W17081  16.530  16.391  14.026
51822W        W17082  41.407  24.757  11.505
51823W        W17083  39.817  12.263  11.771
51824W        W17084  27.155   5.446   0.934
51825W        W17085  33.064  22.278  14.408
51826W        W17086  20.992   1.763  14.099
51827W        W17087  39.884   3.244   4.611
51828W        W17088  41.508  42.967  14.823
51829W        W17089  28.744  42.516  11.481
51830W        W17090  23.045  33.429  10.690
51831W        W17091  42.826   0.218  14.894
51832W        W17092  38.591  23.900  11.937
51833W        W17093   3.252   8.389   1.652
51834W        W17094  42.281   4.734   2.637
51835W        W17095  26.461  14.616  11.256
51836W        W17096  35.165  36.929   3.671
51837W        W17097   7.496  42.031   0.276
51838W        W17098  10.985   0.442   3.343
51839W        W17099   0.742  15.898  10.954
51840W        W17100  26.100  23.002  11.226
51841W        W17101   3.177  30.431  11.465
51842W        W17102   0.910  22.804   3.750
51843W        W17103  40.901  40.129   4.188
51844W        W17104  16.963  30.397  11.950
51845W        W17105  21.075  32.387   3.744
51846W        W17106  21.575   6.166  13.942
51847W        W17107  39.744  32.113   5.280
51848W        W17108  12.703  37.452   2.212
51849W        W17109  33.192   9.811   3.532
51850W        W17110   1.690  40.552   4.465
51851W        W17111  41.920  14.554   2.856
51852W        W17112  28.688  39.159   4.901
51853W        W17113  34.170  33.436   1.113
51854W        W17114  11.714  12.280  14.805
51855W        W17115  10.656  18.765  11.683
51856W        W17116  11.008  37.265   4.516
51857W        W17117  10.238   5.357  14.987
51858W        W17118   2.790  41.159   0.520
51859W        W17119  23.947  37.462  13.293
51860W        W17120  14.809  14.273   0.558
51861W        W17121  12.812   6.463   1.774
51862W        W17122  20.079  43.583  14.008
51863W        W17123  25.406  19.969   3.772
51864W        W17124  40.016  16.288   4.320
51865W        W17125  27.012  15.674   4.973
51866W        W17126  28.635  38.986  12.858
51867W        W17127  26.094   4.709   3.141
51868W        W17128  10.383  18.096  11.493
51869W        W17129   1.304  37.283  14.974
51870W        W17130  42.553  15.970  11.175
51871W        W17131  14.640   6.351   1.945
51872W        W17132  17.275  21.812   0.830
51873W        W17133  31.420  43.468  12.520
51874W        W17134  13.239   3.976   3.207
51875W        W17135  10.120  41.299   1.944
51876W        W17136  18.107   3.990   2.881
51877W        W17137   6.464  20.635  13.135
51878W        W17138  33.869   8.302   1.829
51879W        W17139  32.566  11.165  13.526
51880W        W17140  24.717  11.212   1.490
51881W        W17141  31.011  11.292   0.789
51882W        W17142  22.012  22.257  12.105
51883W        W17143  34.895  11.763  13.293
51884W        W17144  41.873  18.141   2.778
51885W        W17145  36.417  30.636  13.084
51886W        W17146  12.317  23.690   3.579
51887W        W17147  39.006   9.219  11.021
51888W        W17148  13.463   0.516  12.032
51889W        W17149  40.857  28.093  13.349
51890W        W17150  25.022  18.556   2.174
51891W        W17151  39.430   8.697   1.955
51892W        W17152  16.286  21.172   1.340
51893W        W17153  36.522  25.166  13.935
51894W        W17154  12.821  25.763   1.662
51895W        W17155  21.403  35.053  11.054
51896W        W17156  11.729  19.335   0.897
51897W        W17157  35.093  26.389  11.176
51898W        W17158  38.888  20.286  11.951
51899W        W17159  39.938  23.023   0.961
51900W        W17160  21.551  38.939   0.265
51901W        W17161   4.127  20.705   3.649
51902W        W17162  42.551  15.591  14.464
51903W        W17163  17.226  19.880   0.168
51904W        W17164  30.914  41.064  14.332
51905W        W17165  13.673  10.759  13.331
51906W        W17166  20.258  40.990   4.112
51907W        W17167  37.471   5.112  12.055
51908W        W17168  30.495  27.059   2.397
51909W        W17169  21.058   2.753  14.922
51910W        W17170   9.809   9.111   3.151
51911W        W17171   3.370  40.159   3.657
51912W        W17172   7.626  14.824   1.497
51913W        W17173   3.651  30.970  14.921
51914W        W17174  20.899  14.619  12.109
51915W        W17175  31.880  38.836   3.182
51916W        W17176  11.840   9.339  12.956
51917W        W17177  40.985   9.913  11.911
51918W        W17178  37.313  26.398   3.699
51919W        W17179  41.884  42.413  11.147
51920W        W17180  21.090   0.784  12.358
51921W        W17181  34.427  23.778  12.559
51922W        W17182  41.814  40.098  12.095
51923W        W17183   1.972  11.301  13.006
51924W        W17184  10.814  12.259   4.214
51925W        W17185  30.898   2.960   3.333
51926W        W17186  19.153  16.702  10.597
51927W        W17187  26.683  41.914  14.400
51928W        W17188  26.425   9.339  12.951
51929W        W17189   3.991  36.788   0.557
51930W        W17190  11.929  20.118  13.073
51931W        W17191  24.310  10.963   0.793
51932W        W17192   4.354  34.077   3.105
51933W        W17193   8.250  22.515   3.196
51934W        W17194  10.727  43.421  12.184
51935W        W17195  35.343  28.494  12.157
51936W        W17196  24.542  31.182  14.905
51937W        W17197  42.243  35.092   1.327
51938W        W17198  25.262   6.757   0.562
51939W        W17199   7.106   3.835   0.364
51940W        W17200  38.238  31.003  13.122
51941W        W17201  11.152  25.689   1.867
51942W        W17202  38.893  21.153   0.710
51943W        W17203  22.102  43.494  13.037
51944W        W17204   0.314  13.720   2.765
51945W        W17205   9.649  11.971   4.596
51946W        W17206   2.598  19.660   9.831
51947W        W17207  44.907  40.538  12.573
51948W        W17208  18.652  29.154  11.283
51949W        W17209   7.097  31.800  14.923
51950W        W17210  43.393  18.534  10.637
51951W        W17211   6.431  34.617   2.374
51952W        W17212   2.288  10.962  10.502
51953W        W17213  44.690  17.242  13.059
51954W        W17214  26.967  40.812   3.926
51955W        W17215  40.298  36.109  11.597
51956W        W17216  43.520  27.561  10.899
51957W        W17217   1.653  31.126  12.893
51958W        W17218  40.540  36.458  13.651
51959W        W17219  16.910  34.332  10.637
51960W        W17220  44.945   0.749  12.305
51961W        W17221  28.122  23.437  13.175
51962W        W17222   9.242  34.871  14.521
51963W        W17223  24.317  39.081   4.586
51964W        W17224  10.191  13.114   4.319
51965W        W17225  37.191  42.425  14.413
51966W        W17226   6.368  29.112   9.852
51967W        W17227  12.490   3.778  10.255
51968W        W17228   6.313  43.246  13.637
51969W        W17229  19.938  38.073   4.293
51970W        W17230  43.855  32.097  12.408
51971W        W17231   9.376  25.960  11.112
51972W        W17232   1.669  31.353  10.682
51973W        W17233  13.828  29.091   1.786
51974W        W17234  18.661  20.081  14.239
51975W        W17235  24.606   8.213  14.568
51976W        W17236   1.056  16.587  13.358
51977W        W17237  43.686  37.131   4.968
51978W        W17238  19.330  18.976  10.412
51979W        W17239  29.231  13.267  11.468
51980W        W17240  10.814   3.175   9.986
51981W        W17241   4.909  24.013   1.186
51982W        W17242   2.202  23.005  13.501
51983W        W17243  13.256  24.577   3.172
51984W        W17244   6.199  11.872   1.504
51985W        W17245  27.273   3.225  10.835
51986W        W17246  34.955  14.313  13.272
51987W        W17247  13.452  38.947   4.188
51988W        W17248  29.150  10.314  14.390
51989W        W17249  15.124  34.619   4.219
51990W        W17250   3.428  40.093  11.011
51991W        W17251  28.694  35.104  13.601
51992W        W17252  12.830  13.112   1.483
51993W        W17253  17.177  36.946   2.617
51994W        W17254  41.796  29.612   3.423
51995W        W17255  31.920   4.772   4.159
51996W        W17256  18.241  35.667  13.472
51997W        W17257   8.717  23.608   1.344
51998W        W17258   2.031  39.882   1.922
51999W        W17259  19.866  28.378   0.476
52000W        W17260   0.336  36.071   2.436
52001W        W17261   8.301   7.218  10.325
52002W        W17262  43.435  11.810   1.322
52003W        W17263  10.645  33.178  12.955
52004W        W17264  11.720  42.441   3.666
52005W        W17265  25.106   0.035  14.967
52006W        W17266  26.419  22.498   1.971
52007W        W17267  35.587  13.659  13.548
52008W        W17268  20.234  38.917   3.543
52009W        W17269  41.859  26.213  12.387
52010W        W17270  21.726   6.980  12.578
52011W        W17271   2.317  19.832  14.252
52012W        W17272   5.275  33.428  13.934
52013W        W17273  23.939   3.147   5.030
52014W        W17274  17.096  34.984  14.829
52015W        W17275   2.182   4.905  14.413
52016W        W17276  12.594   6.811  14.349
52017W        W17277  44.258  34.008  11.370
52018W        W17278  26.949  18.986   0.253
52019W        W17279  43.348  16.771   3.133
52020W        W17280   1.886  30.565   4.449
52021W        W17281  28.996   8.603   1.869
52022W        W17282  39.008   8.285  14.187
52023W        W17283  25.859  12.978  11.171
52024W        W17284  32.177  30.152  13.017
52025W        W17285  44.005  18.653  12.396
52026W        W17286   8.918  36.521  12.554
52027W        W17287  20.717  36.304   3.262
52028W        W17288  36.001  12.276   2.780
52029W        W17289  41.697  26.632   0.363
52030W        W17290  26.458   0.954   2.887
52031W        W17291  13.596  37.120   4.158
52032W        W17292  13.544   6.166   0.182
52033W        W17293  18.929   7.696  13.795
52034W        W17294  31.080  13.500  10.246
52035W        W17295  34.994  13.523  12.809
52036W        W17296  39.054  29.862   0.848
52037W        W17297  28.104  34.209   3.779
52038W        W17298   0.415  21.622   4.518
52039W        W17299  34.373   7.176  14.839
52040W        W17300  10.276  14.596  10.119
52041W        W17301  32.369   1.536  11.597
52042W        W17302  35.837  13.088  12.565
52043W        W17303  18.507  43.459   3.367
52044W        W17304   0.606  37.989   1.611
52045W        W17305  29.726   1.701  13.101
52046W        W17306  36.496   2.793   4.310
52047W        W17307  39.797  27.551   4.665
52048W        W17308  44.240  24.747   4.620
52049W        W17309  42.687   1.836   3.268
52050W        W17310  42.546  29.002   4.143
52051W        W17311  44.319   1.666   0.077
52052W        W17312  43.949  31.999   0.012
52053W        W17313  30.565  39.139  12.120
52054W        W17314  41.899   1.671  11.086
52055W        W17315   6.703  24.152   3.710
52056W        W17316  19.523  31.126  14.440
52057W        W17317  30.943   8.444  13.994
52058W        W17318  30.675  17.560  11.999
52059W        W17319  35.354  44.327  14.424
52060W        W17320   0.814   9.281   1.849
52061W        W17321  43.207  31.873   0.486
52062W        W17322  12.137  38.601  11.908
52063W        W17323  39.735   3.782   2.641
52064W        W17324   8.892  28.029  12.924
52065W        W17325  31.558  43.092   1.878
52066W        W17326   6.159  24.681   4.581
52067W        W17327  23.418   6.405   0.925
52068W        W17328  28.237  44.428   9.934
52069W        W17329  29.630  38.473   3.108
52070W        W17330  43.320  39.626  13.948
52071W        W17331  20.055   2.788  12.494
52072W        W17332  11.700   3.727  13.908
52073W        W17333   6.916  34.366  13.821
52074W        W17334   5.669  34.170   2.865
52075W        W17335  42.732  19.133  12.225
52076W        W17336  20.034  23.146  14.059
52077W        W17337  22.861  42.029  10.617
52078W        W17338  23.138  34.166   1.192
52079W        W17339   1.172  32.908   1.303
52080W        W17340  11.158  31.943  13.946
52081W        W17341  26.681  37.870   1.784
52082W        W17342   6.227   1.993   0.047
52083W        W17343  41.895  39.713   0.890
52084W        W17344   0.106  36.829   3.706
52085W        W17345  26.975  17.268   3.684
52086W        W17346  26.519  22.615  12.609
52087W        W17347  44.895  34.587  12.460
52088W        W17348  21.597   2.752  14.930
52089W        W17349  15.202  20.196  11.523
52090W        W17350   6.213   5.350   1.437
52091W        W17351  34.546  30.941   2.128
52092W        W17352   4.002   2.394   2.736
52093W        W17353   5.748  33.636  14.030
52094W        W17354  29.463  43.317  11.088
52095W        W17355   1.850   0.887  13.153
52096W        W17356  16.300  12.553  13.804
52097W        W17357  42.726  39.858  10.394
52098W        W17358  39.452  21.256   1.890
52099W        W17359  35.527  24.452   9.819
52100W        W17360   9.687  20.632   3.674
52101W        W17361  18.110  37.530  10.611
52102W        W17362  24.499  25.236   0.441
52103W        W17363  19.668  27.486   0.337
52104W        W17364  10.914   4.302   4.605
52105W        W17365  29.689  26.190  13.828
52106W        W17366  39.595  12.829   0.440
52107W        W17367  10.831  16.253   4.086
52108W        W17368   2.691  16.310  14.004
52109W        W17369   4.502  12.701   3.176
52110W        W17370  39.849  17.731   0.517
52111W        W17371  30.555  30.958  13.547
52112W        W17372   3.171  44.726   4.388
52113W        W17373   2.301  32.160   2.930
52114W        W17374  18.370   9.462   2.764
52115W        W17375  42.404  42.468  11.431
52116W        W17376   2.313   8.450  11.581
52117W        W17377   0.185  34.908  12.139
52118W        W17378  32.078   2.870   2.916
52119W        W17379  35.029  18.735   0.296
52120W        W17380   1.061  13.616   3.228
52121W        W17381   8.172  29.473   4.283
52122W        W17382  23.160  35.505  13.903
52123W        W17383  31.260  23.663   5.087
52124W        W17384   3.783  10.186  12.172
52125W        W17385  26.118   4.320   3.511
52126W        W17386  12.096   9.473  10.155
52127W        W17387   2.986  29.679   4.118
52128W        W17388  25.009  23.635  14.445
52129W        W17389  10.344  44.303   4.820
52130W        W17390   9.877  21.641  11.036
52131W        W17391  33.384  38.325  12.965
52132W        W17392   1.754   0.993   1.380
52133W        W17393  24.228   3.885   3.663
52134W        W17394  25.153  16.094  12.583
52135W        W17395  16.192   0.823  10.377
52136W        W17396  20.773  11.307  13.887
52137W        W17397  42.949  21.082  14.463
52138W        W17398  17.902  34.915   3.264
52139W        W17399  26.941  15.087   1.835
52140W        W17400  17.477  17.510   4.984
52141W        W17401  18.333  36.155   0.705
52142W        W17402  25.939  27.510   2.148
52143W        W17403  25.167  13.657   3.701
52144W        W17404  18.540  28.409  14.807
52145W        W17405  25.136   8.708  10.720
52146W        W17406   7.337  34.954   0.305
52147W        W17407  27.595  25.997   2.478
52148W        W17408  21.045  22.187  10.719
52149W        W17409  29.525  42.100   4.115
52150W        W17410  29.476  41.439  14.892
52151W        W17411  17.664  34.973   3.714
52152W        W17412  20.819  17.959  11.165
52153W        W17413   1.236  12.951  14.090
52154W        W17414   2.515  21.798  14.436
52155W        W17415  38.053  13.454  12.350
52156W        W17416  40.355  34.337  10.744
52157W        W17417  31.201  18.749   2.130
52158W        W17418  43.693   8.737   0.697
52159W        W17419  33.995  20.588  12.393
52160W        W17420  11.602   1.964  11.289
52161W        W17421  13.849   1.023  11.116
52162W        W17422   3.643  32.479   0.926
52163W        W17423  42.893   5.221  13.863
52164W        W17424  42.508  13.884   4.950
52165W        W17425   5.049   6.175   3.565
52166W        W17426   5.406  43.465  14.776
52167W        W17427   2.900  43.560  13.708
52168W        W17428  23.641  13.848   2.301
52169W        W17429  10.861  41.145  12.336
52170W        W17430  33.711  25.100   3.310
52171W        W17431  13.636   2.550  12.583
52172W        W17432  40.012  19.945   0.678
52173W        W17433  20.394  26.583   4.032
52174W        W17434  30.271   4.438  13.980
52175W        W17435  42.508   3.282  10.590
52176W        W17436  32.880  23.507  13.316
52177W        W17437  27.730  39.867  12.444
52178W        W17438  40.058  43.718   1.451
52179W        W17439  18.156  24.827   0.805
52180W        W17440  13.116  18.586   2.972
52181W        W17441  32.924  34.047  12.409
52182W        W17442  43.069  30.487   1.015
52183W        W17443  23.780   5.987   5.411
52184W        W17444  30.029   5.184   1.614
52185W        W17445  14.090  19.777  11.060
52186W        W17446   5.720  40.558  12.622
52187W        W17447  28.903  23.918   2.305
52188W        W17448   2.460  40.100  10.816
52189W        W17449  20.495   5.347   9.827
52190W        W17450  25.026   8.793   1.427
52191W        W17451   2.265  11.409  11.940
52192W        W17452  32.088   8.739   0.282
52193W        W17453  37.953   6.804  11.446
52194W        W17454  17.071  28.949  11.079
52195W        W17455  26.491  30.957   0.941
52196W        W17456   5.313  41.793  12.402
52197W        W17457  31.263  10.382   0.483
52198W        W17458   3.621  28.612  14.915
52199W        W17459  28.182   5.453   1.967
52200W        W17460  15.914  18.897  10.285
52201W        W17461  24.492  18.671   2.167
52202W        W17462   7.668  21.757   3.184
52203W        W17463  23.749  44.283  13.589
52204W        W17464  41.778  29.106   1.765
52205W        W17465   5.342   0.308   0.945
52206W        W17466   3.310  23.082   4.250
52207W        W17467  15.255  42.095  12.760
52208W        W17468  40.522  23.670   2.902
52209W        W17469  26.020  16.383   0.431
52210W        W17470  34.524  42.077  12.364
52211W        W17471  37.571  32.678  13.257
52212W        W17472  31.718  14.587  13.880
52213W        W17473  11.609   3.237  12.916
52214W        W17474  37.561   5.273  14.855
52215W        W17475  33.305  30.929  12.306
52216W        W17476  32.852  39.829   2.860
52217W        W17477  23.752  42.849   1.376
52218W        W17478   5.823   4.216  13.437
52219W        W17479  32.210  12.619   4.023
52220W        W17480  12.373  18.600   3.735
52221W        W17481   7.451  15.325  14.185
52222W        W17482   1.583  41.051   4.559
52223W        W17483  43.821  38.607   1.254
52224W        W17484  36.871   7.851   0.835
52225W        W17485   4.201   5.309  12.953
52226W        W17486  35.454  36.205  10.321
52227W        W17487  25.398  18.579  14.314
52228W        W17488  24.960  25.243  13.955
52229W        W17489  27.614  29.293  11.898
52230W        W17490  39.833  44.941  11.105
52231W        W17491  14.525  30.346   3.608
52232W        W17492   5.641   9.673  11.987
52233W        W17493   1.316  35.509  10.756
52234W        W17494  41.770  27.695   0.302
52235W        W17495  14.260  37.620   4.876
52236W        W17496  35.826  32.588  13.000
52237W        W17497   4.426  43.541   3.648
52238W        W17498  20.382  14.744   0.784
52239W        W17499  39.357  28.040   0.074
52240W        W17500  13.810  27.477   2.187
52241W        W17501   2.656  30.453   1.305
52242W        W17502  12.062  23.320  11.154
52243W        W17503  38.857  28.393   4.563
52244W        W17504  12.882  29.085  14.936
52245W        W17505  32.792  30.706  10.103
52246W        W17506   8.945   0.364   2.711
52247W        W17507   0.526  21.554  12.455
52248W        W17508  10.861  12.328  11.062
52249W        W17509  33.487  17.999   0.765
52250W        W17510  17.960  36.150   4.282
52251W        W17511  32.053  16.061  10.675
52252W        W17512  42.197  22.258   3.514
52253W        W17513  12.423  44.766   1.474
52254W        W17514   2.984  10.161  12.942
52255W        W17515  18.641  16.598   4.158
52256W        W17516   1.762  27.914   0.561
52257W        W17517  41.424   9.136   3.240
52258W        W17518  16.030   2.454  11.577
52259W        W17519  44.943   2.267  11.833
52260W        W17520  27.143  31.139  11.519
52261W        W17521  29.579  35.429   3.634
52262W        W17522   0.311  34.436   1.456
52263W        W17523  38.404   9.312  12.982
52264W        W17524   5.402  35.700   4.199
52265W        W17525  38.662  34.968   0.853
52266W        W17526  33.553  11.947   3.177
52267W        W17527  15.927  23.475  12.204
52268W        W17528  38.381  36.936   1.406
52269W        W17529  26.741  25.233  12.950
52270W        W17530  22.214  28.433   2.374
52271W        W17531  37.878  14.241  11.856
52272W        W17532  27.313  21.195   3.663
52273W        W17533   5.722   3.358  14.755
52274W        W17534  42.438  34.828  10.497
52275W        W17535   4.334  40.310   3.739
52276W        W17536  34.879  33.932   4.843
52277W        W17537  44.546  10.943  12.408
52278W        W17538   1.821   8.099  12.581
52279W        W17539  30.780  33.039   2.179
52280W        W17540   1.956  11.154   2.901
52281W        W17541  43.515   5.356   2.678
52282W        W17542  26.579   5.286   1.695
52283W        W17543  42.947  17.605  13.912
52284W        W17544  38.391  41.041  12.628
52285W        W17545  19.220  11.425  10.764
52286W        W17546   0.483  29.742  11.158
52287W        W17547   0.811  13.603   2.769
52288W        W17548   4.601  35.473  11.743
52289W        W17549  44.985  43.536  11.613
52290W        W17550  44.510  39.157   1.625
52291W        W17551  26.465   0.903  11.096
52292W        W17552  23.457   3.456  12.544
52293W        W17553  25.993  21.294   4.542
52294W        W17554   1.703  23.235   1.688
52295W        W17555  28.566  19.617  10.968
52296W        W17556  15.287  19.361   2.937
52297W        W17557  30.518   0.931  10.971
52298W        W17558  31.460  36.525   3.354
52299W        W17559  26.547  25.526   1.822
52300W        W17560  11.765  32.631  12.552
52301W        W17561  30.304  25.557   2.297
52302W        W17562  14.183  10.663   3.083
52303W        W17563  17.054   6.819  14.435
52304W        W17564  14.299  30.470   1.370
52305W        W17565   6.816   2.867   0.768
52306W        W17566  36.639  34.597  14.533
52307W        W17567  24.783  19.186  14.746
52308W        W17568   3.645  31.496   2.577
52309W        W17569  34.970  17.308   0.769
52310W        W17570  38.051  37.542  14.370
52311W        W17571   7.889  13.250  10.703
52312W        W17572  13.757   9.050   1.968
52313W        W17573  41.652  17.668  14.395
52314W        W17574   2.382  24.242   1.306
52315W        W17575  34.789   2.332  13.028
52316W        W17576   8.736   0.045  12.559
52317W        W17577   6.061  35.020   4.613
52318W        W17578   3.740  35.347   4.641
52319W        W17579  31.072  36.135   3.111
52320W        W17580  17.868   4.383  14.502
52321W        W17581  44.932  26.550   0.982
52322W        W17582  25.057   3.752   3.193
52323W        W17583  36.111   5.246   3.143
52324W        W17584  22.705  38.610  11.538
52325W        W17585  42.016   9.300  12.068
52326W        W17586  30.649  34.458  13.841
52327W        W17587  11.796  11.582  11.659
52328W        W17588  30.079  43.937  14.288
52329W        W17589  24.148  27.226  13.957
52330W        W17590  36.811  25.124  11.173
52331W        W17591  42.520  33.805   1.582
52332W        W17592   4.284  24.751   2.195
52333W        W17593  29.940  34.477   0.990
52334W        W17594  44.807  36.235   1.542
52335W        W17595  10.963   3.724  12.989
52336W        W17596  18.724  29.047   4.202
52337W        W17597  13.368  18.164  13.351
52338W        W17598  43.623   7.751   3.597
52339W        W17599  13.229   3.919   1.071
52340W        W17600  29.020  38.345  12.833
52341W        W17601  35.545   6.697   2.275
52342W        W17602  28.698   3.767   3.278
52343W        W17603  34.640  36.399  13.629
52344W        W17604  31.920   7.393  13.877
52345W        W17605  39.386   5.696   4.974
52346W        W17606  31.141   3.487   4.243
52347W        W17607   2.350  13.214   2.622
52348W        W17608   3.900  20.991   3.002
52349W        W17609  37.829   6.907  14.530
52350W        W17610  12.728  35.486   0.264
52351W        W17611  14.209   5.063   1.258
52352W        W17612  38.921   6.968   2.928
52353W        W17613  15.599  21.617  10.663
52354W        W17614   5.422  27.947   1.892
52355W        W17615  27.207   0.493  11.422
52356W        W17616   3.962   4.099  14.303
52357W        W17617  16.635  24.665   0.840
52358W        W17618  38.211   8.770   1.013
52359W        W17619  22.570  38.546  13.541
52360W        W17620   3.970  17.722   2.864
52361W        W17621   9.900   1.490   4.720
52362W        W17622  32.225   4.964   1.374
52363W        W17623  16.383  34.586  11.663
52364W        W17624   6.781   0.375  12.603
52365W        W17625  12.346   2.558  12.092
52366W        W17626   3.012   4.390   4.183
52367W        W17627  20.628  44.691  14.819
52368W        W17628  36.416  23.079  13.951
52369W        W17629  39.022  34.973  12.164
52370W        W17630  20.468  41.331  13.850
52371W        W17631  20.276  16.257  13.550
52372W        W17632   4.644  18.964  14.111
52373W        W17633  19.239   6.194   0.795
52374W        W17634  40.571   1.372   1.670
52375W        W17635  31.506  30.647  13.398
52376W        W17636   2.748  36.082  10.900
52377W        W17637  36.570   3.301   3.694
52378W        W17638  17.091  41.106  10.748
52379W        W17639  11.563   3.203   3.736
52380W        W17640  18.451  11.437   0.249
52381W        W17641  19.691  37.574   2.712
52382W        W17642  15.160  20.243   5.190
52383W        W17643  40.569   2.296  11.604
52384W        W17644  27.500  42.011  14.911
52385W        W17645  29.934  39.530   1.502
52386W        W17646  41.063  40.819  10.443
52387W        W17647  17.202  26.955   4.283
52388W        W17648   8.896  40.474  13.244
52389W        W17649  11.100  21.233   4.499
52390W        W17650  35.263  43.599  13.241
52391W        W17651  24.219  32.594   0.703
52392W        W17652  14.212  15.107  11.858
52393W        W17653  38.745   0.887   0.782
52394W        W17654  14.954  42.529  14.176
52395W        W17655  39.354  25.693  11.430
52396W        W17656  13.873  10.310   4.116
52397W        W17657  43.645  35.610  11.454
52398W        W17658  10.400  34.076   0.860
52399W        W17659  24.287  29.124   0.352
52400W        W17660  33.561  38.566  12.407
52401W        W17661  41.653  25.793  10.682
52402W        W17662   6.475  21.971  13.499
52403W        W17663  18.022  41.366  14.507
52404W        W17664  20.298  16.978   4.053
52405W        W17665  34.641   6.483   2.743
52406W        W17666   9.234  20.438   1.302
52407W        W17667  41.290   8.716   0.805
52408W        W17668  38.885  25.407  14.285
52409W        W17669  37.496   8.753   1.720
52410W        W17670   2.171  28.830  12.584
52411W        W17671  25.620   7.735  12.606
52412W        W17672   6.978  18.315   0.806
52413W        W17673   9.963  44.813  14.823
52414W        W17674   5.308  31.392  13.849
52415W        W17675  34.840  33.842   4.305
52416W        W17676  44.949  33.377  13.764
52417W        W17677  24.587   7.487  11.599
52418W        W17678  41.362  15.645   4.935
52419W        W17679   9.405  11.929  14.722
52420W        W17680  28.156  35.346  10.585
52421W        W17681  27.322  28.489   3.685
52422W        W17682  27.319   9.671  14.318
52423W        W17683   6.893  40.277  14.234
52424W        W17684   5.184  16.356  13.115
52425W        W17685  21.766  24.694  10.721
52426W        W17686  27.682   5.358   1.847
52427W        W17687  19.101  13.217   3.268
52428W        W17688  12.131  27.020   4.224
52429W        W17689  13.671   4.395   3.892
52430W        W17690  21.604   3.364  13.581
52431W        W17691  27.055  23.006  10.402
52432W        W17692   3.804  39.422   1.003
52433W        W17693   2.218   4.820   4.682
52434W        W17694   9.890  25.547   4.612
52435W        W17695  27.648  43.030  10.499
52436W        W17696  42.117  12.362   1.795
52437W        W17697  35.119  15.621  14.567
52438W        W17698  30.481  35.324  11.451
52439W        W17699  36.505  25.120   4.221
52440W        W17700  29.573  40.459  10.249
52441W        W17701  40.832   5.946   3.322
52442W        W17702  44.570  31.026  10.543
52443W        W17703  11.338  33.506  11.238
52444W        W17704  15.015  18.803  10.568
52445W        W17705   1.309  19.107  10.559
52446W        W17706  13.191  43.796  12.045
52447W        W17707  25.617  31.065   4.354
52448W        W17708  29.545  34.981  14.387
52449W        W17709  43.054  43.223  12.642
52450W        W17710  21.182   9.501   4.080
52451W        W17711  29.625  14.745  12.103
52452W        W17712  36.184   0.255   3.242
52453W        W17713  12.589  22.503  11.197
52454W        W17714  36.749  11.158   4.320
52455W        W17715   1.265  18.531  14.425
52456W        W17716  25.645  44.693  10.545
52457W        W17717  24.246   1.109   4.091
52458W        W17718  36.789  39.387  14.899
52459W        W17719  32.198   7.763  14.147
52460W        W17720   6.098  16.725  10.798
52461W        W17721   4.513   8.446   0.550
52462W        W17722  31.562  17.362  10.767
52463W        W17723  43.827   8.274   0.901
52464W        W17724  35.552  29.655   0.223
52465W        W17725  15.630  24.365   1.417
52466W        W17726   0.508  14.221  12.421
52467W        W17727  18.731  10.609   1.281
52468W        W17728  38.483  30.696  14.581
52469W        W17729  15.323  42.872   0.022
52470W        W17730  21.774   1.418   0.289
52471W        W17731  35.963  12.832  13.969
52472W        W17732  22.167  15.890   1.302
52473W        W17733  33.218  39.959   1.319
52474W        W17734  11.008  29.985  11.670
52475W        W17735  41.067  20.066  14.798
52476W        W17736  22.947  40.634   5.007
52477W        W17737  30.731  18.549  14.015
52478W        W17738  43.215  30.343  14.792
52479W        W17739  31.917  30.903  13.918
52480W        W17740   3.397   6.445   4.993
52481W        W17741  35.921  27.477   3.093
52482W        W17742   6.244   4.985   4.727
52483W        W17743  33.771  26.610  10.829
52484W        W17744  12.250  39.585  13.723
52485W        W17745   0.488   9.208   1.444
52486W        W17746  23.138  36.871  12.842
52487W        W17747  44.054  16.865  14.942
52488W        W17748   8.149  42.551   0.769
52489W        W17749  13.927  15.690  11.754
52490W        W17750   9.824  18.326  11.501
52491W        W17751  20.469  13.127   2.776
52492W        W17752  14.776   2.873  13.777
52493W        W17753  25.489  27.166   2.822
52494W        W17754  31.474  40.872   4.422
52495W        W17755  21.934  34.496   2.784
52496W        W17756  35.480  22.281   2.606
52497W        W17757  13.821  39.702   1.301
52498W        W17758  28.058  25.897   2.776
52499W        W17759  19.303   5.814  13.369
52500W        W17760   9.111  14.792   2.573
52501W        W17761  18.626  34.047   2.819
52502W        W17762  30.158  21.185   0.511
52503W        W17763  39.946  33.134   1.842
52504W        W17764  31.581  33.001  14.339
52505W        W17765   5.266  40.498   0.211
52506W        W17766  40.878   7.702   3.415
52507W        W17767  21.049  17.633   3.304
52508W        W17768  14.099   6.757   2.638
52509W        W17769  27.584  33.549   2.717
52510W        W17770  39.472  27.639  12.055
52511W        W17771  30.032   5.704   4.765
52512W        W17772   8.791  39.617  12.985
52513W        W17773  33.043   8.643   3.184
52514W        W17774  35.430  13.858  11.687
52515W        W17775   1.907  17.212  11.030
52516W        W17776  15.775  19.606   1.862
52517W        W17777  28.007  30.626   0.922
52518W        W17778   2.865  40.486   0.718
52519W        W17779  10.088  27.250   3.377
52520W        W17780  12.262  37.039   1.117
52521W        W17781  22.630  23.128  10.614
52522W        W17782  34.463   1.572  11.213
52523W        W17783   5.251   1.599  14.040
52524W        W17784  29.253  40.544   2.297
52525W        W17785  26.707  44.879  12.070
52526W        W17786  39.464  27.522   0.018
52527W        W17787   8.875   9.821  12.440
52528W        W17788  29.855   3.179  12.574
52529W        W17789   2.978  40.954   3.588
52530W        W17790   1.526  26.623  13.872
52531W        W17791   3.904   8.112  12.148
52532W        W17792  43.125  41.893  11.851
52533W        W17793  28.414  31.999   1.711
52534W        W17794  14.284  36.014  13.131
52535W        W17795  30.342  13.197  10.753
52536W        W17796  37.173  14.154  13.896
52537W        W17797  22.689   3.904  14.739
52538W        W17798  38.567  30.073  13.753
52539W        W17799   7.830  38.256   3.236
52540W        W17800  34.117  35.257   2.800
52541W        W17801  43.065  42.930   2.184
52542W        W17802  12.711  14.278   3.698
52543W        W17803   9.848  17.060   4.770
52544W        W17804  39.581   7.291   4.412
52545W        W17805  27.799  15.660  13.879
52546W        W17806  44.727  39.976   1.738
52547W        W17807  28.140  17.585  14.528
52548W        W17808  12.321  40.460   0.857
52549W        W17809   6.323  34.823   2.853
52550W        W17810  28.106  14.295   3.063
52551W        W17811  18.884  25.203   3.656
52552W        W17812  28.997   1.291  11.964
52553W        W17813  12.686  44.361   1.686
52554W        W17814   4.693  41.523  13.982
52555W        W17815  31.540  27.070  12.633
52556W        W17816  15.587  43.501   3.621
52557W        W17817  22.857  13.311   2.206
52558W        W17818  16.194  11.522  13.778
52559W        W17819  40.870  11.511   4.868
52560W        W17820  32.701  27.962  11.557
52561W        W17821  39.351   6.316  13.420
52562W        W17822  32.144  16.427  11.037
52563W        W17823  34.479  18.010  11.666
52564W        W17824  15.072  38.561   2.602
52565W        W17825   1.727  13.343   0.315
52566W        W17826  42.388   7.349  12.475
52567W        W17827  16.775   1.807   3.409
52568W        W17828  13.146  44.956   1.024
52569W        W17829  43.330   0.546   3.320
52570W        W17830  13.192   6.470   2.166
52571W        W17831   5.701  33.886   3.301
52572W        W17832   0.096  21.234  10.590
52573W        W17833  24.742  10.252  11.552
52574W        W17834  33.936  25.631  14.807
52575W        W17835  12.785  42.920   2.140
52576W        W17836  37.568  42.129  14.227
52577W        W17837   5.574  13.719  14.356
52578W        W17838   1.549  10.788  13.541
52579W        W17839   1.970  13.106   4.817
52580W        W17840  42.131  14.981  12.481
52581W        W17841  38.853  16.989   3.656
52582W        W17842  34.858  14.027   2.932
52583W        W17843  20.082  40.103  10.996
52584W        W17844  44.037  33.654   2.776
52585W        W17845  33.517   7.683   1.294
52586W        W17846  12.388   0.877   0.735
52587W        W17847  33.906   6.781   0.547
52588W        W17848  21.129   0.761   1.421
52589W        W17849  18.647  33.731  14.521
52590W        W17850  36.069  18.323  10.581
52591W        W17851   8.499  19.401  11.902
52592W        W17852  35.568  26.163  13.923
52593W        W17853   7.986   6.707   0.816
52594W        W17854  21.098  14.591   3.772
52595W        W17855  41.926   3.028   2.979
52596W        W17856  26.965   6.964   2.808
52597W        W17857  15.660  17.605  12.210
52598W        W17858  27.568  27.942  14.333
52599W        W17859  16.039  26.149   0.695
52600W        W17860  13.636  22.802  14.880
52601W        W17861   0.300  32.594   2.252
52602W        W17862  19.243  40.685   4.143
52603W        W17863  29.052   5.187   2.013
52604W        W17864  37.539  33.632   0.457
52605W        W17865  37.745  38.909   0.345
52606W        W17866   8.230  22.707  14.333
52607W        W17867  36.819  18.902   4.202
52608W        W17868  19.628  33.866   4.979
52609W        W17869   2.005  13.663  13.033
52610W        W17870  17.384  24.654   3.151
52611W        W17871  22.972  39.914   1.326
52612W        W17872  16.877  22.911   2.360
52613W        W17873  14.403  25.344  11.538
52614W        W17874  44.413  13.840  13.980
52615W        W17875  44.144  21.321  11.644
52616W        W17876  30.410  22.194  13.792
52617W        W17877  14.711  34.119   1.717
52618W        W17878  20.725  14.260   3.540
52619W        W17879  30.919  13.300   1.968
52620W        W17880   6.841   2.877   3.392
52621W        W17881   2.913  19.748   3.188
52622W        W17882   1.657  20.430  13.499
52623W        W17883  35.338  27.558   2.188
52624W        W17884  12.648  44.305   4.168
52625W        W17885  30.106  30.693   3.720
52626W        W17886  34.176  31.097  12.073
52627W        W17887  27.267  21.393   1.010
52628W        W17888  44.884   3.324   4.109
52629W        W17889  21.739  29.107   1.353
52630W        W17890  16.237   9.514   2.157
52631W        W17891   4.880  19.045  13.643
52632W        W17892  24.459  44.576   0.424
52633W        W17893  28.383  31.888  13.032
52634W        W17894  25.802  28.604   3.550
52635W        W17895   6.884  42.784  10.722
52636W        W17896  27.565  23.580   4.844
52637W        W17897  18.632  11.439   2.660
52638W        W17898  15.396   4.818  10.232
52639W        W17899  37.774  43.928   3.817
52640W        W17900  17.233   5.734   4.159
52641W        W17901  26.967  37.306   1.316
52642W        W17902  26.104  42.928  10.700
52643W        W17903  17.069  22.199   4.146
52644W        W17904  23.563  26.234  13.013
52645W        W17905  13.378  16.143   3.887
52646W        W17906  12.131   8.230  13.386
52647W        W17907  23.830  18.040   1.444
52648W        W17908  24.114  39.408  14.706
52649W        W17909   0.879   8.678   4.692
52650W        W17910  21.685  17.127   4.243
52651W        W17911  41.006  34.102  12.376
52652W        W17912  18.782  18.602   0.410
52653W        W17913  37.405  36.840  11.784
52654W        W17914  13.516  11.737   0.800
52655W        W17915  12.882   2.982  10.587
52656W        W17916  20.789  16.296  13.453
52657W        W17917  21.998  24.519   0.675
52658W        W17918  15.061  43.501  11.568
52659W        W17919  16.645   4.493  10.562
52660W        W17920  38.004  37.225   3.112
52661W        W17921  26.993  40.713   1.778
52662W        W17922  10.255  36.521   2.597
52663W        W17923  31.863  35.420   2.978
52664W        W17924   0.495  31.689  11.103
52665W        W17925  43.362   3.644   2.749
52666W        W17926   2.205  15.578   2.221
52667W        W17927  27.948   9.183   3.279
52668W        W17928  18.130  13.368  11.637
52669W        W17929  19.807  20.638   3.243
52670W        W17930  41.770  22.883   1.255
52671W        W17931  40.414  22.821   1.100
52672W        W17932  42.929  23.586  12.192
52673W        W17933   8.341  34.048  14.489
52674W        W17934  28.563  19.630  14.231
52675W        W17935  16.237  14.770  11.250
52676W        W17936  27.185  39.017   2.183
52677W        W17937   6.922  12.710   2.252
52678W        W17938  16.295  38.140   0.690
52679W        W17939   4.873  38.921  11.874
52680W        W17940  21.823  30.530  14.482
52681W        W17941  28.005  31.428  14.912
52682W        W17942  18.787  25.636   4.365
52683W        W17943  35.216  25.661   4.302
52684W        W17944  16.809  34.316  11.511
52685W        W17945  20.884   4.378  11.117
52686W        W17946   4.244  20.730   4.542
52687W        W17947  14.864  38.550   3.606
52688W        W17948  23.085  32.364  10.942
52689W        W17949  26.848   4.362  11.516
52690W        W17950  18.546   5.351  13.642
52691W        W17951  40.250  31.068  12.417
52692W        W17952  41.000   5.109  11.233
52693W        W17953  13.121  30.968  13.478
52694W        W17954  18.255  28.728   1.526
52695W        W17955  34.599  37.449  12.254
52696W        W17956  11.728  23.122  11.501
52697W        W17957   4.590  34.777  12.281
52698W        W17958   8.192  30.098   0.751
52699W        W17959  17.876  38.276  14.258
52700W        W17960  30.951   5.900  14.416
52701W        W17961  30.396  20.621  13.367
52702W        W17962   9.542   6.952  10.173
52703W        W17963  10.185   7.870   3.009
52704W        W17964   1.476  22.682   4.150
52705W        W17965  28.092   7.085  12.772
52706W        W17966   4.084  31.891  12.064
52707W        W17967  12.760   3.947   4.142
52708W        W17968  32.844  41.205  10.871
52709W        W17969  13.345  41.851  14.457
52710W        W17970  25.279  16.581   1.711
52711W        W17971  23.372   4.850  11.569
52712W        W17972  16.737  41.629  11.003
52713W        W17973  37.348  17.370   4.509
52714W        W17974  30.360  25.105   4.047
52715W        W17975  38.909  27.203   2.793
52716W        W17976  37.355  15.797  11.235
52717W        W17977  30.937  39.858  12.020
52718W        W17978  16.318  38.535  14.349
52719W        W17979  25.620  23.016   0.679
52720W        W17980  31.751   0.227   0.069
52721W        W17981  27.012   3.055  13.392
52722W        W17982  27.224  14.654   4.974
52723W        W17983  35.869  29.506  11.555
52724W        W17984  11.649  16.334   1.288
52725W        W17985  26.181  16.644  13.801
52726W        W17986  42.681  17.846  12.038
52727W        W17987   7.083  21.125   2.172
52728W        W17988  35.414  33.625  14.350
52729W        W17989  31.297   1.021  14.166
52730W        W17990  39.286  39.523  14.166
52731W        W17991  22.504  42.452  11.256
52732W        W17992  22.435  27.701   1.448
52733W        W17993  18.061  20.446   0.417
52734W        W17994  29.981  36.192   2.447
52735W        W17995  25.067  14.611  12.012
52736W        W17996  44.413  23.414  13.859
52737W        W17997  42.946   9.266  11.459
52738W        W17998   9.449   7.017   1.007
52739W        W17999  39.769  33.490  14.720
52740W        W18000  23.469  37.627  14.871
52741W        W18001  43.342  32.632  14.938
52742W        W18002  23.187  24.215  13.392
52743W        W18003  40.070  38.581  12.423
52744W        W18004   3.008   2.504  12.735
52745W        W18005  34.670   0.492  14.310
52746W        W18006   4.683   0.382   3.265
52747W        W18007   0.930  29.385   4.205
52748W        W18008  17.251   9.811  12.899
52749W        W18009   5.052  11.366  13.065
52750W        W18010  15.597  32.897  11.600
52751W        W18011  42.546  15.272   3.686
52752W        W18012  12.957  14.181   3.257
52753W        W18013  17.146  37.637  13.124
52754W        W18014  26.494  20.649   1.863
52755W        W18015   6.555   4.684  14.851
52756W        W18016  12.834  44.427   2.689
52757W        W18017  44.954   3.008   0.945
52758W        W18018  20.143  26.170   2.365
52759W        W18019  34.990  36.429   2.759
52760W        W18020  39.535  10.487  14.876
52761W        W18021   8.626  33.945   3.246
52762W        W18022  44.864  32.406   1.161
52763W        W18023  18.174  40.297  13.872
52764W        W18024  35.599   4.595  13.895
52765W        W18025   9.378   1.677  14.816
52766W        W18026  41.867   1.954  10.652
52767W        W18027  16.588   4.242  11.602
52768W        W18028  43.900  10.253   5.073
52769W        W18029  32.366  40.972   2.794
52770W        W18030  43.332  10.095  12.833
52771W        W18031   4.982  20.433  12.399
52772W        W18032  16.873   9.506  12.056
52773W        W18033  18.736  39.506  12.327
52774W        W18034  16.026  19.184   9.855
52775W        W18035  26.519  21.220  11.844
52776W        W18036  13.416  21.465  14.960
52777W        W18037  35.053   1.908  14.828
52778W        W18038  44.648  42.951   1.126
52779W        W18039  28.247  40.835   2.288
52780W        W18040  14.997  20.606   2.263
52781W        W18041   6.748   0.867  11.617
52782W        W18042  13.737  36.425   2.133
52783W        W18043  21.023  11.354   4.328
52784W        W18044  29.736  37.052   0.441
52785W        W18045  43.968  22.120   3.146
52786W        W18046  16.012  32.467  14.723
52787W        W18047   5.670   1.255  14.039
52788W        W18048  42.709  41.755   0.479
52789W        W18049  26.206  41.033  12.090
52790W        W18050  35.018  34.218   3.361
52791W        W18051   4.230   6.785   3.738
52792W        W18052   0.075  22.702  12.368
52793W        W18053  19.621  27.106   3.710
52794W        W18054   3.844  39.468   4.631
52795W        W18055  44.899   8.764   3.147
52796W        W18056   1.904   4.637   1.224
52797W        W18057  10.937  35.496   0.298
52798W        W18058  33.006  32.155  14.122
52799W        W18059  41.069   1.702   9.917
52800W        W18060  29.650  12.620  12.530
52801W        W18061  41.832  33.482  11.367
52802W        W18062  31.217  20.418  13.804
52803W        W18063  37.760  26.547  10.065
52804W        W18064  41.529  10.283  12.386
52805W        W18065  11.641   8.018  11.061
52806W        W18066  29.913  39.232  14.938
52807W        W18067  29.453  14.224  11.838
52808W        W18068  13.378   9.921  12.585
52809W        W18069  11.754  32.125   1.713
52810W        W18070  44.327   8.254   0.770
52811W        W18071  13.567  30.159   1.882
52812W        W18072  12.808  23.453   3.531
52813W        W18073   2.882  20.960  11.632
52814W        W18074  18.958  34.707  14.846
52815W        W18075  40.564  43.239   0.213
52816W        W18076  36.326  32.054   0.658
52817W        W18077  10.141  40.713  14.259
52818W        W18078   1.306  27.556  14.356
52819W        W18079  40.697  10.294  12.178
52820W        W18080  39.031   3.856  14.946
52821W        W18081  13.493  14.296   1.366
52822W        W18082  41.100  32.373   2.625
52823W        W18083  43.742   9.847  11.793
52824W        W18084   8.958  25.598   2.710
52825W        W18085  20.837  18.519  13.007
52826W        W18086  26.937  22.498  10.573
52827W        W18087  11.468  34.045  14.919
52828W        W18088   6.995  16.881  14.925
52829W        W18089  44.546  15.122  11.607
52830W        W18090  33.931  10.173   0.733
52831W        W18091  37.880  34.491  12.882
52832W        W18092  24.961   8.542  14.830
52833W        W18093  30.135  19.835  12.481
52834W        W18094  38.795  26.005   4.221
52835W        W18095  10.262  29.772  12.119
52836W        W18096  35.910   7.632   0.725
52837W        W18097  44.901  37.429   2.189
52838W        W18098   4.491  11.853  11.639
52839W        W18099  39.895   6.230  14.610
52840W        W18100  28.663  41.028  10.625
52841W        W18101  23.253  26.059   2.813
52842W        W18102  28.482  23.216  13.494
52843W        W18103  25.129  21.567   2.162
52844W        W18104  41.923   2.390   4.881
52845W        W18105  25.733  36.994  11.325
52846W        W18106  40.752  28.241   2.748
52847W        W18107  31.884  40.484   2.392
52848W        W18108   0.410  37.067   4.826
52849W        W18109   3.175  12.892  12.272
52850W        W18110  33.918  28.155  11.014
52851W        W18111   1.434  30.924   1.441
52852W        W18112  25.459  36.911  14.798
52853W        W18113  26.258  17.344  14.482
52854W        W18114  27.683  11.192  14.529
52855W        W18115  36.876  41.473   1.754
52856W        W18116  35.803   6.126  10.724
52857W        W18117  38.763  36.633  11.093
52858W        W18118  43.479  18.543  11.592
52859W        W18119  30.899   7.238   9.809
52860W        W18120   2.509  12.230   1.679
52861W        W18121  23.475  36.533   2.817
52862W        W18122  28.605  44.938  13.608
52863W        W18123  15.125   5.521  14.916
52864W        W18124  26.500  32.589   0.236
52865W        W18125   2.426  35.717  11.694
52866W        W18126  15.252  23.396   2.338
52867W        W18127  22.129  42.009  11.408
52868W        W18128  29.718   9.852  11.045
52869W        W18129  26.494  37.581  10.586
52870W        W18130   9.063   1.925  12.463
52871W        W18131  18.711  31.101  12.260
52872W        W18132  33.867  17.348   2.156
52873W        W18133  39.279  25.802   4.475
52874W        W18134  36.303   0.025   3.705
52875W        W18135  43.854  38.490  11.375
52876W        W18136  32.222   8.132   4.239
52877W        W18137  37.790   2.096  10.682
52878W        W18138  10.404  28.095   4.033
52879W        W18139  18.691  22.681  12.928
52880W        W18140  12.089  21.196  14.603
52881W        W18141  25.950  36.106   2.230
52882W        W18142  11.213   1.784  10.491
52883W        W18143  17.713   4.717  11.663
52884W        W18144  29.196  43.070   1.229
52885W        W18145  43.066  13.787   2.327
52886W        W18146  38.513   0.280   0.967
52887W        W18147  35.197  24.942   3.129
52888W        W18148  14.632  41.368  14.787
52889W        W18149  38.813  15.981   0.338
52890W        W18150  26.837  24.050   2.622
52891W        W18151   7.980  29.419  11.521
52892W        W18152  31.692   5.789   2.405
52893W        W18153  16.369  11.346  12.006
52894W        W18154  35.839   0.014  10.693
52895W        W18155  31.217  23.947  10.321
52896W        W18156  40.434  28.915  12.078
52897W        W18157  26.311  14.096  13.217
52898W        W18158  10.642  34.479   2.678
52899W        W18159  34.524  22.619  12.103
52900W        W18160  11.235  17.823  11.941
52901W        W18161   7.464  22.525   1.710
52902W        W18162  30.787  33.573   1.424
52903W        W18163  11.926  21.634  10.328
52904W        W18164  43.946  44.909  12.418
52905W        W18165  42.276  33.035   1.699
52906W        W18166  26.856  39.054   3.000
52907W        W18167  16.061  19.544   0.307
52908W        W18168  36.552   3.255   0.941
52909W        W18169  36.439  19.549   1.398
52910W        W18170  30.855   7.425  13.968
52911W        W18171  35.104  28.264   1.183
52912W        W18172  23.741   1.846   2.859
52913W        W18173  24.210  24.654  14.314
52914W        W18174   6.209   9.875  10.735
52915W        W18175  11.596   6.384  12.830
52916W        W18176  34.996  17.150  11.809
52917W        W18177  20.138  30.609  11.010
52918W        W18178  26.454  33.421  11.506
52919W        W18179   3.223  16.736  11.555
52920W        W18180  14.760  10.438   0.853
52921W        W18181  25.632  21.771   3.408
52922W        W18182  40.980  43.315   1.490
52923W        W18183  43.038  18.772  12.443
52924W        W18184  27.386  34.196  12.546
52925W        W18185  23.985  22.175  10.783
52926W        W18186  39.686  10.801  12.420
52927W        W18187  35.537   4.501   3.305
52928W        W18188  24.233  15.792  13.342
52929W        W18189  19.490  28.094  13.343
52930W        W18190  24.701  25.895  11.140
52931W        W18191   8.602   6.307   4.550
52932W        W18192  43.497  26.431  13.278
52933W        W18193  26.937  23.951   4.650
52934W        W18194   5.796  32.560  11.846
52935W        W18195   0.552   7.451   2.342
52936W        W18196  44.986  28.542   3.986
52937W        W18197  14.778  31.498   2.550
52938W        W18198   6.254  38.653  13.435
52939W        W18199  43.112  19.956  14.302
52940W        W18200  22.952  37.581  13.459
52941W        W18201   1.096  39.501  13.563
52942W        W18202  10.643  24.121  12.967
52943W        W18203  23.403   7.193   3.458
52944W        W18204  13.673   1.888   0.955
52945W        W18205  44.455   5.166  10.869
52946W        W18206  31.950  30.042   0.895
52947W        W18207  36.964  35.583  13.580
52948W        W18208  36.922   6.502   3.457
52949W        W18209   7.665  23.008   3.795
52950W        W18210   3.958  28.422  14.460
52951W        W18211  13.779  44.266   0.462
52952W        W18212  16.286  17.332  11.342
52953W        W18213  13.217  34.987  14.611
52954W        W18214  41.560  24.630   0.283
52955W        W18215  32.016  22.404  12.455
52956W        W18216  24.944  11.607  10.714
52957W        W18217  26.497   9.783  10.555
52958W        W18218  40.262  24.367   4.639
52959W        W18219  16.338   9.156  14.427
52960W        W18220   4.238  31.637   1.294
52961W        W18221  15.532   9.253   4.934
52962W        W18222  27.964  25.101  13.799
52963W        W18223   9.283  31.246  10.152
52964W        W18224  30.573  36.802   4.667
52965W        W18225  12.682  30.696  11.000
52966W        W18226  43.972   7.878  11.427
52967W        W18227  32.643  34.341  11.583
52968W        W18228  29.671  17.846  11.195
52969W        W18229   7.177  33.947  10.707
52970W        W18230  18.759  40.664  11.932
52971W        W18231  34.547  43.561   4.740
52972W        W18232   0.594   9.410   4.590
52973W        W18233  20.068  41.395  11.663
52974W        W18234  38.020   9.084  11.369
52975W        W18235  16.503  33.698   1.862
52976W        W18236  36.090  30.595  12.661
52977W        W18237  26.258  22.644   4.124
52978W        W18238  40.445  15.187  12.525
52979W        W18239  42.413  41.059   3.296
52980W        W18240  12.648  34.550   1.946
52981W        W18241  12.053  16.670   1.258
52982W        W18242  26.056  12.413  11.937
52983W        W18243  34.229   4.252  14.799
52984W        W18244  44.101  34.812  13.744
52985W        W18245   1.008  26.995  13.649
52986W        W18246  28.576  17.175  11.538
52987W        W18247  29.852  17.601  14.143
52988W        W18248  26.244  43.342   1.658
52989W        W18249  17.673  41.536   1.482
52990W        W18250  37.350   8.059   1.256
52991W        W18251  18.830  43.397  13.444
52992W        W18252   0.751  22.145  14.051
52993W        W18253  42.293  36.099   1.226
52994W        W18254  43.348  31.017   3.138
52995W        W18255   9.089   9.633  12.870
52996W        W18256  32.810  29.336  11.995
52997W        W18257  30.682   1.464  11.700
52998W        W18258   7.984  29.143  14.884
52999W        W18259  35.589  22.987  11.131
53000W        W18260  44.477  42.217   2.878
53001W        W18261  25.215  29.482  13.947
53002W        W18262  28.495  23.762  13.360
53003W        W18263  25.453  22.236  13.181
53004W        W18264   7.767  27.900   4.951
53005W        W18265  37.868   4.875   3.788
53006W        W18266  10.410  16.988   1.202
53007W        W18267   2.776  23.220  11.153
53008W        W18268  18.550  18.320  12.608
53009W        W18269   8.642  26.736   0.440
53010W        W18270  40.755  18.281  12.518
53011W        W18271  24.250  10.773  11.009
53012W        W18272  17.140   4.656   0.348
53013W        W18273   5.814  30.925   0.800
53014W        W18274  34.563  37.881  14.159
53015W        W18275  39.542  12.200  14.199
53016W        W18276   3.894   5.724  14.930
53017W        W18277  19.728  34.158   3.675
53018W        W18278   0.996  12.371   3.718
53019W        W18279  37.193  29.516  11.246
53020W        W18280   3.467   1.314  12.470
53021W        W18281  12.695  31.028   4.678
53022W        W18282  18.870   1.950   1.872
53023W        W18283  24.877  15.487  14.847
53024W        W18284  33.434   7.255  14.459
53025W        W18285  32.905   1.073   3.439
53026W        W18286  22.161  12.823  14.133
53027W        W18287  27.645  38.592   3.224
53028W        W18288  23.597  33.524  11.537
53029W        W18289  29.770  30.123  10.354
53030W        W18290   6.202  44.929  13.381
53031W        W18291  35.436   5.624  14.982
53032W        W18292  19.756  41.872  13.883
53033W        W18293   8.966  33.325  11.922
53034W        W18294  37.650  22.897   0.311
53035W        W18295  24.066  23.817   0.321
53036W        W18296  31.760  21.903  14.779
53037W        W18297  17.372   8.420  10.562
53038W        W18298  30.125  38.983   2.169
53039W        W18299  19.320  27.518  11.704
53040W        W18300  28.088  35.457   1.843
53041W        W18301   2.559  17.095   1.243
53042W        W18302  22.985  28.596  12.387
53043W        W18303  18.751  11.465  13.285
53044W        W18304  19.233  12.886  14.796
53045W        W18305   1.441  31.554  12.610
53046W        W18306  25.110   8.349   4.117
53047W        W18307  17.042  44.210  13.420
53048W        W18308  12.125  25.609  12.421
53049W        W18309  43.146  20.587   2.269
53050W        W18310  12.215  23.553   4.900
53051W        W18311  17.088  19.641   2.614
53052W        W18312  25.136  43.460  12.463
53053W        W18313  43.860  35.304  11.103
53054W        W18314  13.748  31.869  14.857
53055W        W18315  22.706   0.852  13.006
53056W        W18316  17.083  31.584   2.175
53057W        W18317  21.018  44.344   1.187
53058W        W18318   2.280   3.456  14.203
53059W        W18319  27.234  22.574   4.499
53060W        W18320   7.932  32.430  14.748
53061W        W18321   4.682  12.638   1.487
53062W        W18322  11.823  32.809   4.217
53063W        W18323  42.008  18.041  14.957
53064W        W18324  42.463  39.473   2.709
53065W        W18325  24.605  12.138  14.323
53066W        W18326   8.288  23.048   3.216
53067W        W18327  10.102  43.971  13.003
53068W        W18328  14.615  42.785  10.478
53069W        W18329  42.423  24.725   4.575
53070W        W18330  35.077  44.439   3.175
53071W        W18331  27.165  14.645  12.370
53072W        W18332  38.494  26.242   2.169
53073W        W18333   6.144  14.286   4.095
53074W        W18334  16.317  19.725  13.035
53075W        W18335  21.462  14.230   4.300
53076W        W18336  22.766  29.547  12.985
53077W        W18337  25.501  44.985   0.324
53078W        W18338  24.012   8.951  12.384
53079W        W18339   0.856  26.873   4.758
53080W        W18340  44.788  33.920   1.971
53081W        W18341   4.913  44.832   3.232
53082W        W18342  22.977  42.705  12.581
53083W        W18343  18.624   7.887   0.341
53084W        W18344  31.103  44.488   2.250
53085W        W18345   0.391  12.143   2.783
53086W        W18346  23.778  35.320   0.428
53087W        W18347   6.388  26.237   3.619
53088W        W18348  23.766  30.559   1.764
53089W        W18349   5.398   1.246  12.623
53090W        W18350  13.897  18.243   3.639
53091W        W18351  41.726  31.131   1.379
53092W        W18352  36.073  36.382   1.597
53093W        W18353  18.161   6.454   0.747
53094W        W18354   1.318   7.700   4.546
53095W        W18355  31.324  32.786  12.495
53096W        W18356  37.872  13.289  11.518
53097W        W18357   0.335  39.398  13.980
53098W        W18358  15.183  33.834  13.422
53099W        W18359  20.281  28.730   2.316
53100W        W18360  13.238  25.403  10.669
53101W        W18361  34.141  38.130  14.932
53102W        W18362  13.148  20.526   1.880
53103W        W18363  12.477   2.433   1.317
53104W        W18364   2.019  12.644   4.563
53105W        W18365  42.822  29.113  10.675
53106W        W18366  26.965  10.649  12.469
53107W        W18367  13.567  27.885  11.106
53108W        W18368  33.077  21.030  11.951
53109W        W18369  29.561  43.004  10.656
53110W        W18370  16.223  44.304  12.335
53111W        W18371  42.916  14.406   1.628
53112W        W18372  20.130   9.351   3.238
53113W        W18373  14.262  36.165   3.758
53114W        W18374   3.779  31.012   3.927
53115W        W18375  21.711  14.610  12.545
53116W        W18376  26.175  10.371   2.211
53117W        W18377  22.280  17.565   1.389
53118W        W18378  21.753  44.625   0.454
53119W        W18379   6.349  44.871   3.767
53120W        W18380  39.326  19.789  14.350
53121W        W18381  24.542  15.556   3.284
53122W        W18382   7.754  16.048   3.053
53123W        W18383  34.557  41.690   0.218
53124W        W18384  39.841  21.008  13.514
53125W        W18385  20.037   0.762  10.465
53126W        W18386   0.185  43.620  14.619
53127W        W18387  35.577  37.306   3.622
53128W        W18388  37.772  17.602  12.108
53129W        W18389  12.128  19.464   2.607
53130W        W18390  26.744   1.457  14.184
53131W        W18391  26.071  34.416  14.619
53132W        W18392   7.321  20.698   2.272
53133W        W18393  32.475  35.583  13.995
53134W        W18394  31.390  27.503   0.432
53135W        W18395  20.509   4.426   4.532
53136W        W18396  15.258  39.625  14.410
53137W        W18397  26.218  19.560  12.476
53138W        W18398  31.959  13.573   0.877
53139W        W18399   3.359  17.551   2.193
53140W        W18400  44.459  32.372   3.176
53141W        W18401   4.936  12.050  10.903
53142W        W18402   9.023   4.215  12.999
53143W        W18403  25.447  22.084   3.773
53144W        W18404  17.328  33.622   2.824
53145W        W18405  26.384   0.440  10.172
53146W        W18406  29.099  36.264   4.698
53147W        W18407  33.467  27.801   4.054
53148W        W18408  18.027   4.652   2.211
53149W        W18409   6.184  19.745  11.774
53150W        W18410   4.318  33.593   4.394
53151W        W18411  10.629  40.789  12.031
53152W        W18412  16.329  42.261   2.767
53153W        W18413  23.696  22.539   1.433
53154W        W18414  33.611  31.572   3.262
53155W        W18415  32.211  43.490   1.418
53156W        W18416  15.591  44.863   1.742
53157W        W18417   9.256   7.556  12.319
53158W        W18418  13.279  31.895  10.641
53159W        W18419  22.997  25.972   3.684
53160W        W18420  34.055  16.303  13.415
53161W        W18421  23.150   3.414   0.963
53162W        W18422  17.557   3.369  11.437
53163W        W18423  26.905  36.541  13.960
53164W        W18424  29.341  26.611  10.647
53165W        W18425  12.359  16.601   0.368
53166W        W18426  38.053  44.221  13.937
53167W        W18427  34.291  44.334   2.837
53168W        W18428  38.053   4.285  12.408
53169W        W18429  11.243  39.554   1.727
53170W        W18430  39.412  37.555  11.997
53171W        W18431   5.245  41.891   2.346
53172W        W18432  38.931  23.103  13.322
53173W        W18433  30.697  42.698  14.461
53174W        W18434  12.200  38.865  14.403
53175W        W18435  36.169  18.207   1.461
53176W        W18436   0.896  22.906  14.503
53177W        W18437  42.533  41.078  12.584
53178W        W18438   5.473  26.568   5.417
53179W        W18439  43.332  39.404  11.063
53180W        W18440  23.351  43.403   3.064
53181W        W18441  33.592   5.965   3.631
53182W        W18442  32.080  29.999   3.910
53183W        W18443  30.052  42.726  12.538
53184W        W18444  42.223  38.701   0.116
53185W        W18445  27.661  39.416   3.207
53186W        W18446   3.657  42.084   3.695
53187W        W18447   9.749  19.793  13.997
53188W        W18448  29.002  36.625  13.971
53189W        W18449  24.588  28.788   1.179
53190W        W18450  21.083   7.896   2.279
53191W        W18451  26.555  37.029   3.798
53192W        W18452  30.594  31.718  13.093
53193W        W18453   6.116  15.368  13.556
53194W        W18454  14.115   6.889   1.312
53195W        W18455   2.076  40.958  12.398
53196W        W18456  38.436  29.130  14.886
53197W        W18457  42.849  28.136  13.939
53198W        W18458  28.108  34.455   1.825
53199W        W18459  37.878   6.082  10.318
53200W        W18460  16.445  27.123  10.302
53201W        W18461  17.007  44.323  14.990
53202W        W18462  40.789  38.847   0.512
53203W        W18463   5.211  35.656   1.334
53204W        W18464  33.157  25.198   1.899
53205W        W18465   9.415  33.160   2.595
53206W        W18466  29.221  22.629  11.700
53207W        W18467   0.000   1.838  10.689
53208W        W18468  32.403  17.447  12.351
53209W        W18469  21.854  25.731  11.534
53210W        W18470   2.980  20.788   1.114
53211W        W18471  37.445   7.557   2.706
53212W        W18472  10.341  40.272   2.801
53213W        W18473  40.738  44.136  14.930
53214W        W18474  32.084   5.664  11.046
53215W        W18475   7.921   6.061  10.772
53216W        W18476  17.380  35.884   0.875
53217W        W18477  40.039  28.451   4.548
53218W        W18478  32.441  38.007   4.060
53219W        W18479   1.000  36.647   0.774
53220W        W18480  13.645  11.657   1.979
53221W        W18481  31.385  12.586   3.707
53222W        W18482  25.563  14.082  14.281
53223W        W18483  21.546  22.576   2.389
53224W        W18484  28.808  29.858   2.327
53225W        W18485  34.662  39.444  12.472
53226W        W18486  11.122  30.142   4.594
53227W        W18487  41.986  23.522   0.926
53228W        W18488  20.484   1.121  11.171
53229W        W18489  45.000  24.415   1.836
53230W        W18490  26.274  17.398   1.995
53231W        W18491   1.233  41.870   1.789
53232W        W18492  43.099   4.402   3.853
53233W        W18493   4.455  10.316  14.587
53234W        W18494  11.160  24.657   3.280
53235W        W18495   7.883  29.694   0.528
53236W        W18496   8.436  38.339   4.115
53237W        W18497  29.688  18.527  12.088
53238W        W18498  13.101   0.702  14.737
53239W        W18499  23.433  25.488  12.621
53240W        W18500  27.354  26.174  11.245
53241W        W18501  15.094  32.118  13.935
53242W        W18502  25.806  42.131   3.822
53243W        W18503  28.198   2.514  14.329
53244W        W18504  42.835  40.180   2.367
53245W        W18505  42.914  38.302   2.189
53246W        W18506  13.736  18.472  12.789
53247W        W18507   3.697  41.968   2.848
53248W        W18508  39.152   8.187  11.135
53249W        W18509  19.080  33.088   1.712
53250W        W18510  15.237  26.440   0.005
53251W        W18511  24.059   7.395   1.633
53252W        W18512  22.036  29.560   1.264
53253W        W18513  21.071  41.287   2.315
53254W        W18514  27.460  25.475  13.393
53255W        W18515  28.579  21.675   1.686
53256W        W18516  44.787  23.750  14.023
53257W        W18517  43.384  19.493  14.449
53258W        W18518   3.109  42.155  11.113
53259W        W18519  18.560  12.291  11.144
53260W        W18520  17.078   9.866  13.382
53261W        W18521   0.150   0.274  14.954
53262W        W18522  13.670   3.885   0.063
53263W        W18523  39.327   7.754   4.624
53264W        W18524   0.816  20.152  13.510
53265W        W18525  35.882  18.607   0.185
53266W        W18526  13.098  26.170   4.921
53267W        W18527   8.292  37.492  12.175
53268W        W18528   3.964  15.022   1.345
53269W        W18529  16.985  30.173   0.160
53270W        W18530   1.718  23.224  12.859
53271W        W18531  37.784   0.222   3.613
53272W        W18532  44.672   1.773   1.399
53273W        W18533  33.706  26.057   1.391
53274W        W18534  29.278  35.624   3.260
53275W        W18535  23.163  42.270   1.241
53276W        W18536  39.741   2.240  14.788
53277W        W18537  43.007  36.347   2.311
53278W        W18538  30.533  40.329   4.830
53279W        W18539  30.246   8.647  13.085
53280W        W18540  30.152  37.537   4.539
53281W        W18541   4.910  37.490   1.232
53282W        W18542   3.531  36.992   0.428
53283W        W18543  25.977  24.836   5.079
53284W        W18544  12.085  17.982  11.910
53285W        W18545  43.696   3.959  12.686
53286W        W18546  31.382  40.095   0.209
53287W        W18547   6.165  34.559  14.808
53288W        W18548  28.504  20.233  11.622
53289W        W18549   8.822  35.041   4.563
53290W        W18550   2.435   9.367   0.321
53291W        W18551  24.176  30.052   4.782
53292W        W18552   4.362  27.658   2.706
53293W        W18553  12.741  37.574  10.963
53294W        W18554   4.260  29.060  13.416
53295W        W18555   2.190  32.650   2.931
53296W        W18556  27.495  13.539   1.508
53297W        W18557  14.369  31.101   3.706
53298W        W18558   8.405  10.643   2.181
53299W        W18559   6.536  11.898  13.962
53300W        W18560  34.343   1.043  11.185
53301W        W18561  11.087  14.746   0.244
53302W        W18562  39.787  44.659  11.545
53303W        W18563  11.052  10.814   5.936
53304W        W18564  42.429  30.308   0.396
53305W        W18565  43.835  24.781  14.389
53306W        W18566  31.459  22.276   0.409
53307W        W18567  16.595  24.877   1.318
53308W        W18568  22.493  27.223   0.412
53309W        W18569  14.919  42.420  10.656
53310W        W18570   4.685   8.464   4.910
53311W        W18571  40.968  31.075  11.513
53312W        W18572  11.188   0.729  11.646
53313W        W18573  33.457  10.243   1.895
53314W        W18574  42.787  34.220   3.991
53315W        W18575  12.134  23.617   4.365
53316W        W18576  18.910  27.480  14.582
53317W        W18577  33.581  32.164   3.183
53318W        W18578  17.704   0.979  12.825
53319W        W18579  34.298   7.850  11.102
53320W        W18580  34.008  35.086   0.423
53321W        W18581  23.341  40.777   0.349
53322W        W18582  18.774  35.879  13.320
53323W        W18583  13.291  41.211   2.928
53324W        W18584  20.088  41.919   0.833
53325W        W18585   7.441   8.278  12.808
53326W        W18586  24.660  14.142   4.208
53327W        W18587  31.068  36.597  13.386
53328W        W18588   0.959  27.296  12.672
53329W        W18589  35.849  37.651   2.794
53330W        W18590  40.279  39.978  12.110
53331W        W18591  27.263  28.985  13.864
53332W        W18592  27.430  10.131   2.824
53333W        W18593   3.368  24.154   0.283
53334W        W18594   7.749   7.668  12.898
53335W        W18595  30.903   5.200  14.782
53336W        W18596  43.424  13.241  12.810
53337W        W18597   6.193  22.100   2.279
53338W        W18598   6.887  33.903  11.135
53339W        W18599  25.704  35.535   5.408
53340W        W18600   1.727  21.978   0.421
53341W        W18601  41.987  13.585   1.324
53342W        W18602   3.011  12.097  11.731
53343W        W18603  43.982  11.600  11.121
53344W        W18604   2.936  15.015  14.459
53345W        W18605  43.826  13.584  13.019
53346W        W18606  14.750  35.541  13.845
53347W        W18607  44.741  10.176   4.734
53348W        W18608  26.123   4.455  13.448
53349W        W18609  36.659  24.945  14.390
53350W        W18610  30.852  30.940   4.752
53351W        W18611  25.198  21.122   0.867
53352W        W18612  26.095   8.871   0.798
53353W        W18613  30.368  34.503   2.394
53354W        W18614  25.978  30.544  13.991
53355W        W18615  42.414  24.907  12.071
53356W        W18616   2.048  17.551   1.658
53357W        W18617  29.439  36.526   4.407
53358W        W18618  37.323   4.843   0.965
53359W        W18619   1.924  40.107   0.859
53360W        W18620   3.189  18.035   2.001
53361W        W18621  35.016  36.350  10.570
53362W        W18622  20.147  26.079   1.488
53363W        W18623   3.344   1.814   3.286
53364W        W18624  37.447  31.121   4.072
53365W        W18625  36.613  29.113   4.169
53366W        W18626  31.962  33.609  13.358
53367W        W18627  44.053  12.163  14.433
53368W        W18628  44.032  28.488   0.290
53369W        W18629  25.307   3.794  12.094
53370W        W18630  42.335  43.420   0.112
53371W        W18631  25.327  36.779   3.537
53372W        W18632   9.746  41.981  13.125
53373W        W18633  37.347  25.258  14.812
53374W        W18634  37.287  44.434  14.527
53375W        W18635  32.653  22.863  12.074
53376W        W18636  26.031  27.978   2.913
53377W        W18637  22.834  11.047  12.299
53378W        W18638  12.170  38.904   2.937
53379W        W18639   8.113  14.325  14.734
53380W        W18640  24.309  12.830  11.101
53381W        W18641  40.290  12.675   1.865
53382W        W18642   9.652  32.043   1.846
53383W        W18643   9.575  38.380  14.781
53384W        W18644  38.495  36.876  13.991
53385W        W18645  35.319  18.972   2.260
53386W        W18646  21.801   2.290   3.598
53387W        W18647  21.080  31.621  14.743
53388W        W18648  16.457  13.071  11.141
53389W        W18649  41.024  20.144   0.778
53390W        W18650  30.009  42.859   1.749
53391W        W18651  30.107  38.390  12.326
53392W        W18652   6.228  42.038   3.914
53393W        W18653   3.374  15.362  12.980
53394W        W18654   0.714  20.483  11.675
53395W        W18655  39.625  15.689  12.968
53396W        W18656   3.867  43.472   1.669
53397W        W18657  17.679  12.213   0.732
53398W        W18658   7.163   3.337   0.884
53399W        W18659  25.488   5.156  11.912
53400W        W18660   9.703   3.193  12.184
53401W        W18661   6.765  21.150   3.049
53402W        W18662  16.761  23.201   4.137
53403W        W18663  22.285  19.073  10.960
53404W        W18664  19.297  23.588  14.211
53405W        W18665  39.079  31.510  12.025
53406W        W18666  12.533   3.474  14.457
53407W        W18667  18.673  11.942   2.599
53408W        W18668   1.041  16.722  10.823
53409W        W18669  26.677  31.175  10.623
53410W        W18670  14.178  23.322   0.675
53411W        W18671   0.902  10.190   1.391
53412W        W18672  32.606  39.332  11.591
53413W        W18673  42.808  16.228  11.682
53414W        W18674   0.364  35.027   4.569
53415W        W18675  41.451  14.866   9.717
53416W        W18676  35.215  43.249   2.775
53417W        W18677   2.743   5.424  12.203
53418W        W18678  38.194  29.629  11.036
53419W        W18679  36.563  44.914   3.252
53420W        W18680  38.523   6.367  11.132
53421W        W18681   7.927  14.075  11.292
53422W        W18682  22.306   7.853   0.827
53423W        W18683  40.903  27.201   2.832
53424W        W18684   2.677   2.913   2.023
53425W        W18685  19.093  42.360   0.232
53426W        W18686   4.270  15.336  13.379
53427W        W18687   1.818  26.160  12.137
53428W        W18688  34.671  44.316   0.407
53429W        W18689  15.204  26.906  11.657
53430W        W18690   7.412  26.015   0.697
53431W        W18691  37.290  27.496  14.780
53432W        W18692  30.884  38.916  12.494
53433W        W18693   7.723  32.654   4.067
53434W        W18694  13.648  12.569   1.727
53435W        W18695  28.052  11.665  14.961
53436W        W18696  12.786  18.784   2.320
53437W        W18697  41.925   5.160  11.134
53438W        W18698  24.003  20.100  14.037
53439W        W18699  22.732  35.080   3.152
53440W        W18700  35.371  29.427  14.808
53441W        W18701  23.581  31.957   1.242
53442W        W18702  18.022   2.938  14.407
53443W        W18703  43.825  29.115   3.722
53444W        W18704  27.151   2.326   3.142
53445W        W18705  30.394  44.235  11.996
53446W        W18706  10.702  26.314  12.530
53447W        W18707  32.104   0.926  10.626
53448W        W18708  25.970  32.883   4.579
53449W        W18709  33.388   7.833  12.063
53450W        W18710  16.805  38.455   2.772
53451W        W18711  16.784  10.273   0.782
53452W        W18712  40.179  28.192   0.261
53453W        W18713  22.586  27.654  14.348
53454W        W18714  12.798   2.640  14.932
53455W        W18715   6.688   8.008  12.502
53456W        W18716  10.355  35.973   0.879
53457W        W18717  17.043  33.105  14.067
53458W        W18718  29.592  27.429   2.778
53459W        W18719  23.612  17.813  13.961
53460W        W18720  32.053   1.093   3.783
53461W        W18721  26.968  11.120  10.244
53462W        W18722   1.894  31.776   2.165
53463W        W18723   7.857  22.633  13.036
53464W        W18724  37.566  24.909   4.250
53465W        W18725  41.990   7.801   0.382
53466W        W18726  26.297  39.824   5.025
53467W        W18727   2.428  29.218  14.413
53468W        W18728  29.987  34.174   3.621
53469W        W18729   1.794  40.864   1.596
53470W        W18730  31.099  20.077   0.365
53471W        W18731  27.927  35.907   4.260
53472W        W18732  33.099   6.150   3.898
53473W        W18733   4.258  17.766   1.275
53474W        W18734  22.104  41.243   3.881
53475W        W18735  13.566  25.214  13.070
53476W        W18736   7.398  10.979  12.363
53477W        W18737  23.684   2.556  11.585
53478W        W18738   8.799   3.506  14.818
53479W        W18739  22.102  20.285   1.264
53480W        W18740  27.461  44.229  10.476
53481W        W18741  29.692  12.657  10.735
53482W        W18742  18.715  27.146   1.446
53483W        W18743  38.355  39.366   2.141
53484W        W18744  20.045   8.856  14.581
53485W        W18745  15.412  44.698   0.322
53486W        W18746  15.180  36.509  13.346
53487W        W18747  30.480   8.251  10.973
53488W        W18748  33.909  42.848  13.475
53489W        W18749  16.123  44.066   2.304
53490W        W18750  19.552  20.229   3.049
53491W        W18751   1.946   2.241  14.804
53492W        W18752  43.515  43.470  14.425
53493W        W18753   8.638   8.581   4.951
53494W        W18754  35.253  22.600  11.167
53495W        W18755  20.131  13.665   2.143
53496W        W18756  28.660   6.196  11.356
53497W        W18757  33.779  10.853   0.995
53498W        W18758  21.834  11.848  12.559
53499W        W18759  27.074  26.411   3.262
53500W        W18760  27.492  13.262   3.664
53501W        W18761   8.220   9.748  10.435
53502W        W18762   9.616  31.507  11.467
53503W        W18763   9.929  39.918  14.738
53504W        W18764  33.487  31.634  11.091
53505W        W18765   2.847   6.336  14.135
53506W        W18766  20.557   2.548  14.021
53507W        W18767  34.582   7.298   3.178
53508W        W18768  29.164  34.603   3.433
53509W        W18769  20.705   8.763   1.830
53510W        W18770  35.798   1.550   0.833
53511W        W18771  19.188  11.920  14.548
53512W        W18772  29.986  41.871   4.146
53513W        W18773  23.459  28.565  14.342
53514W        W18774  33.202   8.684  12.897
53515W        W18775  26.185  21.448  14.549
53516W        W18776  20.457  24.899  12.231
53517W        W18777  21.105   2.781  13.041
53518W        W18778  29.645   4.027   3.368
53519W        W18779  41.903  32.668   1.739
53520W        W18780  13.573  17.580  10.622
53521W        W18781   8.075  10.027   1.499
53522W        W18782   3.771   8.742  10.393
53523W        W18783  11.271  27.609   0.252
53524W        W18784  16.252   4.959  13.158
53525W        W18785  31.611  13.713   3.113
53526W        W18786  26.169   1.357  12.072
53527W        W18787  43.101  37.804  12.700
53528W        W18788  40.953  29.723  14.612
53529W        W18789  32.153  38.236   4.553
53530W        W18790  32.530   7.167   1.764
53531W        W18791  21.290  40.820  10.707
53532W        W18792  12.600  35.975  11.991
53533W        W18793   0.902  37.307  13.484
53534W        W18794   8.570  43.312   0.792
53535W        W18795  16.035  29.501   4.220
53536W        W18796  32.067  40.447  11.998
53537W        W18797   2.921  36.396   3.219
53538W        W18798  11.616  16.252  14.954
53539W        W18799  16.241   9.187  10.286
53540W        W18800  13.855  22.249  10.982
53541W        W18801  30.156  30.501  14.403
53542W        W18802  19.981  22.101   2.671
53543W        W18803  10.780  41.021   4.392
53544W        W18804   0.384  41.252   0.533
53545W        W18805  22.917   1.764   4.169
53546W        W18806   9.310  44.757   4.694
53547W        W18807  16.840  14.647  10.456
53548W        W18808  44.254  43.990  14.241
53549W        W18809   4.397  26.661   4.077
53550W        W18810  15.279   7.718   4.651
53551W        W18811  23.048  38.571  13.329
53552W        W18812  25.552  27.009   0.775
53553W        W18813  13.699  32.919   2.913
53554W        W18814  13.857  17.388  11.017
53555W        W18815  17.000  29.932   4.109
53556W        W18816   7.358   2.430   2.290
53557W        W18817   6.712  25.492  13.943
53558W        W18818  11.042  40.395  12.892
53559W        W18819  21.825  11.777   4.262
53560W        W18820  16.228  26.488   1.879
53561W        W18821  41.944  30.273  11.714
53562W        W18822  25.282  32.099  10.721
53563W        W18823  21.914  39.883   2.281
53564W        W18824  30.951  26.385   2.378
53565W        W18825  31.081  10.271   2.887
53566W        W18826   2.171  42.773  13.395
53567W        W18827  13.071   3.842  10.612
53568W        W18828   2.393  39.645  10.581
53569W        W18829  34.099  31.764  12.438
53570W        W18830   8.162  32.493   0.409
53571W        W18831  21.730  33.052  12.482
53572W        W18832  22.564  22.380  11.303
53573W        W18833   5.305  18.774  12.143
53574W        W18834  20.593  32.184   0.371
53575W        W18835  19.983  31.901   1.452
53576W        W18836  42.517  41.021   4.738
53577W        W18837  43.941  31.419   1.739
53578W        W18838   4.420  40.224  14.265
53579W        W18839  32.956   8.436  13.887
53580W        W18840  10.756  12.576  10.608
53581W        W18841  38.238  10.997  12.402
53582W        W18842  36.076  26.925  14.898
53583W        W18843  33.896  32.506   2.048
53584W        W18844  20.186   6.514   3.103
53585W        W18845  42.984   9.141   0.052
53586W        W18846  27.662  25.971   1.979
53587W        W18847  22.975  18.500   0.465
53588W        W18848   8.891  22.177   2.760
53589W        W18849   1.958  41.582   3.379
53590W        W18850  19.031   2.716  12.492
53591W        W18851  21.264   4.648   3.883
53592W        W18852  35.109  24.524   2.040
53593W        W18853  26.726   6.663  12.966
53594W        W18854  27.474  12.786   4.370
53595W        W18855  38.487  41.401   4.142
53596W        W18856  16.129  43.269   2.821
53597W        W18857  11.000  22.786   1.924
53598W        W18858   7.948   8.199   3.338
53599W        W18859  24.090  31.652  13.678
53600W        W18860  35.006   1.805  12.038
53601W        W18861   9.020  17.836   2.624
53602W        W18862  28.066   2.166  12.114
53603W        W18863  40.567  35.276   2.502
53604W        W18864  43.386   0.241   4.690
53605W        W18865  40.003  23.144  12.461
53606W        W18866  37.060  41.830   0.515
53607W        W18867   8.349   9.680  13.478
53608W        W18868  39.221   2.294  10.282
53609W        W18869  20.028   9.847  14.316
53610W        W18870  32.574  22.994   2.607
53611W        W18871  26.586  34.586  12.983
53612W        W18872  42.432  38.636  10.620
53613W        W18873  26.151   5.021  11.638
53614W        W18874  42.926  21.614  13.736
53615W        W18875  41.370  10.579  11.515
53616W        W18876  42.913   5.888  11.678
53617W        W18877  26.677  39.604   0.829
53618W        W18878  37.945   7.388   2.761
53619W        W18879  44.549  33.026  11.914
53620W        W18880   9.859  33.990   1.289
53621W        W18881  40.379  21.947  14.321
53622W        W18882   1.333  10.882  12.927
53623W        W18883   2.773   0.210  14.718
53624W        W18884  10.130  16.265  11.761
53625W        W18885   5.706   6.182   4.427
53626W        W18886  17.218  42.768   2.904
53627W        W18887  42.702  28.658  10.468
53628W        W18888  26.187  39.593   2.862
53629W        W18889  43.561  16.715   1.832
53630W        W18890  38.449  11.881  11.233
53631W        W18891  29.101  13.824  11.130
53632W        W18892  17.424  12.151   2.017
53633W        W18893  19.986  22.782  14.913
53634W        W18894  13.122  17.659   2.928
53635W        W18895  38.555  31.541  12.985
53636W        W18896  11.330  41.460   2.850
53637W        W18897  15.049  37.286   3.773
53638W        W18898  22.629   7.093  13.935
53639W        W18899   4.526  25.998   3.753
53640W        W18900  41.826   9.391  13.111
53641W        W18901   1.363  27.246   1.416
53642W        W18902   0.435  20.565   0.961
53643W        W18903  11.916  35.190  11.123
53644W        W18904  22.947  44.952   0.930
53645W        W18905  29.865  10.833  12.791
53646W        W18906  23.330  30.620  10.663
53647W        W18907  35.114  24.936   1.701
53648W        W18908  31.512  38.374   3.625
53649W        W18909  30.665  14.780   4.489
53650W        W18910   4.810  38.842  12.906
53651W        W18911  44.331  39.834  11.791
53652W        W18912  41.502  24.727  10.564
53653W        W18913  27.425  38.763  14.468
53654W        W18914  39.229  20.658   3.618
53655W        W18915  17.856   6.871   0.601
53656W        W18916  43.544   7.295   0.409
53657W        W18917   4.168  42.799   2.472
53658W        W18918  19.183  38.119  13.981
53659W        W18919  30.234  40.937  12.899
53660W        W18920  18.527  32.164  13.310
53661W        W18921   5.817  32.319  10.892
53662W        W18922  33.045  16.486   2.704
53663W        W18923  14.821  34.493   3.381
53664W        W18924  14.846  19.201  14.899
53665W        W18925  15.090   7.914   1.221
53666W        W18926  28.719  33.088  13.413
53667W        W18927  32.397  22.714   3.270
53668W        W18928  41.784  33.888   1.846
53669W        W18929  41.780  12.825  12.947
53670W        W18930  11.459  42.443   2.296
53671W        W18931  39.315   1.994   1.268
53672W        W18932   3.340   2.306   0.226
53673W        W18933  28.004  27.822  10.109
53674W        W18934  19.034  43.714  14.303
53675W        W18935  15.444  21.704   4.542
53676W        W18936  17.189   0.813   1.908
53677W        W18937   0.909  20.356  13.992
53678W        W18938  37.389  44.295  13.328
53679W        W18939   3.278  35.141   2.187
53680W        W18940   1.475   5.658  14.742
53681W        W18941  14.458  23.026   0.986
53682W        W18942  26.971  41.428   2.240
53683W        W18943  32.637  17.706  11.558
53684W        W18944  44.393  31.622   1.499
53685W        W18945  25.171  39.775  11.011
53686W        W18946  35.022  12.253  13.037
53687W        W18947  27.165  23.520   4.501
53688W        W18948  34.958  41.075  10.688
53689W        W18949  16.551   6.384   1.236
53690W        W18950  27.626  19.842  11.689
53691W        W18951   9.274   9.638   2.414
53692W        W18952  16.354  10.358   0.036
53693W        W18953   3.405  43.982  11.997
53694W        W18954  12.250  12.832   3.799
53695W        W18955  42.437   0.275   3.158
53696W        W18956   8.116  14.081   3.582
53697W        W18957  27.086   4.876   0.829
53698W        W18958  30.452  19.037  13.588
53699W        W18959  24.166  19.583   0.209
53700W        W18960  27.687  41.844   2.441
53701W        W18961  43.902  30.630   1.000
53702W        W18962  31.344  31.031  10.421
53703W        W18963   5.144  21.670  10.700
53704W        W18964  27.212   5.613  13.603
53705W        W18965   2.472  37.388   5.239
53706W        W18966  23.731   4.446  12.402
53707W        W18967   6.835   7.686  12.994
53708W        W18968  29.557   6.054  10.160
53709W        W18969   0.997  25.362   2.215
53710W        W18970  11.827  26.250  14.495
53711W        W18971  10.981  11.452  12.278
53712W        W18972  29.641  22.857  12.659
53713W        W18973   1.340  27.751   3.242
53714W        W18974   9.328  43.255   0.205
53715W        W18975  32.379  41.783   1.240
53716W        W18976   2.445  33.936   3.653
53717W        W18977  22.935  29.068  13.119
53718W        W18978  42.337  17.640   0.008
53719W        W18979  11.580   1.609  11.654
53720W        W18980  21.028  27.176   1.245
53721W        W18981  12.234  22.976  10.801
53722W        W18982  40.032  20.455   0.810
53723W        W18983  44.432  37.894   1.563
53724W        W18984  25.592  26.163  13.678
53725W        W18985  14.089  14.571  14.026
53726W        W18986  26.616  40.280  13.044
53727W        W18987  16.053  26.025  11.040
53728W        W18988  17.337  43.288  12.003
53729W        W18989  10.913  16.741  13.810
53730W        W18990   7.440  34.079  14.838
53731W        W18991  13.702  42.221   0.327
53732W        W18992   8.920  25.955   3.311
53733W        W18993  24.233  12.385  14.585
53734W        W18994  32.430  11.114   1.391
53735W        W18995  35.446   0.496  11.705
53736W        W18996  34.374  30.135  12.460
53737W        W18997   1.709  44.663   2.756
53738W        W18998   9.234   3.241   3.124
53739W        W18999  32.507  13.329  13.001
53740W        W19000  29.494  31.550  11.130
53741W        W19001  25.003  31.895  10.330
53742W        W19002  32.080  19.948   4.123
53743W        W19003  16.912  23.153  13.435
53744W        W19004  34.368  28.164  11.482
53745W        W19005  30.596  19.990  10.364
53746W        W19006   1.905  14.612  13.928
53747W        W19007  21.726   9.722   0.903
53748W        W19008  32.309  41.959   4.179
53749W        W19009  28.660  10.518   2.731
53750W        W19010   4.932   0.237   1.496
53751W        W19011  35.786  20.961   2.412
53752W        W19012  12.555  34.338   4.006
53753W        W19013  20.076  40.873  14.781
53754W        W19014   0.884  33.570   0.701
53755W        W19015  16.589  41.636  12.821
53756W        W19016  23.476  19.699  14.882
53757W        W19017  38.522  13.870   1.856
53758W        W19018  36.173  30.522   3.988
53759W        W19019  24.952  39.507   4.597
53760W        W19020   5.135   7.738   1.860
53761W        W19021  27.418  38.841   0.836
53762W        W19022  31.970   9.198  11.943
53763W        W19023  18.618   7.234   4.399
53764W        W19024  13.789  33.468  12.541
53765W        W19025  41.893   7.407  10.371
53766W        W19026  26.533  24.243   4.098
53767W        W19027  36.451  40.423  12.589
53768W        W19028   2.873  44.562   1.919
53769W        W19029  43.461   2.225   3.874
53770W        W19030  23.208  16.685   1.814
53771W        W19031  33.113  14.040   4.498
53772W        W19032  44.806  14.125  14.764
53773W        W19033   4.217  38.016  12.440
53774W        W19034  40.392  28.637  12.972
53775W        W19035  39.802  37.032   2.118
53776W        W19036  11.743   5.254  12.409
53777W        W19037   0.037  21.792  13.255
53778W        W19038  32.364   1.426  10.607
53779W        W19039  15.599  13.692  11.139
53780W        W19040   4.378  13.074  13.943
53781W        W19041  12.631   8.820   4.615
53782W        W19042  10.891  13.827   0.806
53783W        W19043  22.733  39.410   2.404
53784W        W19044  26.084  41.988  13.077
53785W        W19045  14.171  38.486   4.261
53786W        W19046  28.179  25.873  11.062
53787W        W19047  37.953   9.215  10.405
53788W        W19048  33.055  19.261  10.372
53789W        W19049   5.693   3.316   1.116
53790W        W19050   2.272   7.786   3.647
53791W        W19051  42.508   2.412  13.370
53792W        W19052  10.952  44.705  11.181
53793W        W19053  10.088  30.101   1.769
53794W        W19054  12.254  37.042  12.471
53795W        W19055  39.557  37.880  13.358
53796W        W19056  29.588   4.751  11.469
53797W        W19057  14.602  19.045   4.733
53798W        W19058  42.359  16.051  10.694
53799W        W19059  21.949   0.687  11.077
53800W        W19060  21.118  41.868  14.010
53801W        W19061  13.267  21.143  11.782
53802W        W19062  13.286  14.456   4.579
53803W        W19063  31.389  17.875  11.633
53804W        W19064  22.076   5.163   1.463
53805W        W19065  35.817   8.273  13.162
53806W        W19066  25.791  40.499   3.243
53807W        W19067  30.880  14.349  12.464
53808W        W19068  40.638  17.773   4.529
53809W        W19069  24.077  13.688  14.188
53810W        W19070   6.120  37.057  11.658
53811W        W19071  19.603  24.339  14.815
53812W        W19072  18.172  17.712   1.385
53813W        W19073  22.003  25.678  12.459
53814W        W19074  25.607  13.856   1.240
53815W        W19075   0.925  18.093   2.902
53816W        W19076  13.792  43.238   1.327
53817W        W19077  28.381  40.777   1.362
53818W        W19078  19.583   4.061  11.593
53819W        W19079  26.010  35.138   2.121
53820W        W19080  25.501   9.314   0.465
53821W        W19081   9.745  13.728   1.741
53822W        W19082   6.686   6.892   2.453
53823W        W19083   4.386  12.348  14.453
53824W        W19084  10.230  41.799   3.289
53825W        W19085   8.323   6.006   3.941
53826W        W19086  18.638  17.653  10.593
53827W        W19087  34.370   4.332   5.009
53828W        W19088  43.548  34.401  12.251
53829W        W19089   0.274  17.700   3.127
53830W        W19090  43.487   0.304  11.041
53831W        W19091  33.509  10.711  14.309
53832W        W19092  22.528  17.657  13.611
53833W        W19093  43.753  37.343   3.385
53834W        W19094  34.322  44.777  13.165
53835W        W19095  18.272  35.353  11.414
53836W        W19096  17.950  14.890   0.382
53837W        W19097   1.615   5.553  12.975
53838W        W19098   9.166  39.973  12.057
53839W        W19099   9.091  38.313   1.223
53840W        W19100  13.295  33.157   2.627
53841W        W19101  18.849  37.277   2.580
53842W        W19102  36.400  35.120   0.890
53843W        W19103  34.310  39.529  12.842
53844W        W19104  15.335   8.470  12.498
53845W        W19105  27.759  30.588   1.386
53846W        W19106  17.956   7.913   3.658
53847W        W19107  42.747  40.998  11.647
53848W        W19108  44.323   3.791  11.411
53849W        W19109  38.144  15.120  14.271
53850W        W19110  39.416  38.069   0.395
53851W        W19111  15.270  18.787   0.402
53852W        W19112  28.072   4.954   1.901
53853W        W19113  17.815  13.273   2.798
53854W        W19114  22.768   9.324  13.978
53855W        W19115  35.850  25.901   2.350
53856W        W19116  29.236  29.325  11.134
53857W        W19117   0.784   8.217  11.669
53858W        W19118  21.601  10.207   0.183
53859W        W19119  37.113  23.538  12.819
53860W        W19120  22.702  26.008  13.494
53861W        W19121  43.330  35.278  11.145
53862W        W19122  24.924  11.766  14.477
53863W        W19123  16.206  31.469  14.751
53864W        W19124  23.378  24.144   3.237
53865W        W19125   9.662  20.004  14.794
53866W        W19126  30.902  30.239   4.142
53867W        W19127   9.685  25.365  12.348
53868W        W19128  26.177  16.576   2.682
53869W        W19129  13.226  42.515   0.415
53870W        W19130  31.373  33.043   1.339
53871W        W19131  25.503   0.927   4.838
53872W        W19132   8.870  24.451   4.081
53873W        W19133  26.706  36.801  12.123
53874W        W19134  37.373   7.415   4.581
53875W        W19135   3.140  11.582  12.933
53876W        W19136   6.334  40.338   2.404
53877W        W19137  35.002  22.321  11.549
53878W        W19138  15.737  40.503   2.631
53879W        W19139  10.342  36.454  11.964
53880W        W19140  42.931   2.791   0.009
53881W        W19141  40.421  37.401   1.944
53882W        W19142  40.187   4.932   0.356
53883W        W19143  12.266   7.899  10.259
53884W        W19144  37.847   6.351  12.117
53885W        W19145   5.955  41.869  12.945
53886W        W19146  40.875  15.811   0.335
53887W        W19147   6.318  29.463   1.815
53888W        W19148  33.085   7.654  14.404
53889W        W19149   8.240  24.449  11.957
53890W        W19150  20.723  33.310   0.948
53891W        W19151  15.338  21.394   2.536
53892W        W19152  11.635  39.068   3.809
53893W        W19153  39.605  17.676   2.741
53894W        W19154   5.825  19.553  12.598
53895W        W19155  18.177  42.200  13.805
53896W        W19156  38.722  28.040   1.965
53897W        W19157  44.870  35.591  10.342
53898W        W19158   3.991  25.126   0.730
53899W        W19159   4.899  38.386   1.742
53900W        W19160  23.643  36.866   4.720
53901W        W19161  44.183  38.398  14.567
53902W        W19162  37.396  14.252   1.271
53903W        W19163   0.691  42.008  10.667
53904W        W19164   6.170  23.291  14.936
53905W        W19165  28.394  14.164  10.964
53906W        W19166  14.788  32.489  13.505
53907W        W19167   5.808   3.760   1.908
53908W        W19168   5.186   7.643   3.311
53909W        W19169  35.610  19.337   4.296
53910W        W19170  38.679  22.522   4.823
53911W        W19171  31.023  13.240  13.971
53912W        W19172  18.756   9.623  12.090
53913W        W19173  24.548  14.995  13.818
53914W        W19174  35.613   8.764  11.212
53915W        W19175  43.365  42.290   0.769
53916W        W19176  36.877  26.009   1.065
53917W        W19177  28.679  32.141   3.186
53918W        W19178  22.238   9.102  13.131
53919W        W19179  33.536  29.105  11.018
53920W        W19180  13.164   4.151   4.570
53921W        W19181   0.407  20.092  10.754
53922W        W19182  17.604  25.742   1.793
53923W        W19183  23.497  21.060  14.961
53924W        W19184  42.539   6.248   0.262
53925W        W19185  23.969  29.196  13.430
53926W        W19186  35.665  14.291  11.948
53927W        W19187  13.674  30.071   0.079
53928W        W19188   5.300  11.682   4.154
53929W        W19189  34.482  27.988  13.872
53930W        W19190   9.809  13.256  14.588
53931W        W19191  32.471  13.333   0.802
53932W        W19192   0.807  17.428   4.562
53933W        W19193  27.922  12.293  13.212
53934W        W19194  35.039   0.931  11.512
53935W        W19195   2.894  30.584   0.849
53936W        W19196  31.506   6.772  11.106
53937W        W19197  41.530  28.000   1.425
53938W        W19198  26.072  21.523   5.421
53939W        W19199  36.055  36.132  12.941
53940W        W19200   0.886  38.826  14.454
53941W        W19201  37.958  37.548  12.084
53942W        W19202   9.015  22.296  14.005
53943W        W19203  13.318  28.312  12.882
53944W        W19204  43.187  19.689   1.873
53945W        W19205  34.984  42.860  12.501
53946W        W19206   7.317  14.734   4.026
53947W        W19207  26.166  39.613   4.166
53948W        W19208  42.931  13.920   1.762
53949W        W19209  16.713   8.682   0.091
53950W        W19210  12.787  30.940  10.566
53951W        W19211  17.770  18.716   2.375
53952W        W19212  31.928  16.813  14.016
53953W        W19213   0.864  33.458  11.528
53954W        W19214  19.526  18.989  14.610
53955W        W19215  18.179   4.479  12.417
53956W        W19216   7.669  32.497   0.230
53957W        W19217  24.748  21.662  11.635
53958W        W19218  13.223  39.044  13.398
53959W        W19219  36.145  19.789  10.755
53960W        W19220  31.994  18.986  11.153
53961W        W19221  15.245  38.727  11.579
53962W        W19222   8.612  32.713   4.106
53963W        W19223   0.793  20.457  10.743
53964W        W19224  35.507  41.848  14.905
53965W        W19225   3.873   2.226   0.155
53966W        W19226   8.849  23.814   0.881
53967W        W19227  34.143  29.983   4.109
53968W        W19228  35.675  16.047   0.572
53969W        W19229  23.197  26.835  10.646
53970W        W19230  27.091  30.049   4.508
53971W        W19231  39.891  42.149  13.779
53972W        W19232   3.202  31.768  12.369
53973W        W19233  28.052  26.642  13.909
53974W        W19234  11.658  29.705   3.550
53975W        W19235   8.175  26.216   1.389
53976W        W19236   4.383  37.022  13.409
53977W        W19237  41.804   4.323   4.223
53978W        W19238  29.306  13.328  14.254
53979W        W19239  37.680  13.348  12.010
53980W        W19240  32.619  41.869  12.444
53981W        W19241  24.568  32.333   2.364
53982W        W19242   9.583   5.495   3.160
53983W        W19243   5.826   8.151  14.323
53984W        W19244  32.886  11.504  12.950
53985W        W19245  25.825  17.720  13.309
53986W        W19246  33.820  25.925   2.294
53987W        W19247  27.110  42.947   0.013
53988W        W19248   9.394   1.195  14.942
53989W        W19249  31.905   3.552   2.477
53990W        W19250  31.442  17.124   1.796
53991W        W19251  27.802   1.974   1.086
53992W        W19252  39.281  32.483  11.889
53993W        W19253   9.243  10.344   2.814
53994W        W19254  11.674   5.750  11.641
53995W        W19255  32.167  21.483  14.833
53996W        W19256  38.522  43.279  14.308
53997W        W19257  44.931  19.600  12.393
53998W        W19258  35.490  42.889   0.821
53999W        W19259   7.931  29.931  13.836
54000W        W19260  27.623  37.327   4.614
54001W        W19261  13.629  12.217   4.729
54002W        W19262  38.649  14.107   2.301
54003W        W19263  31.048  37.069  14.963
54004W        W19264  34.484  23.049  12.986
54005W        W19265  27.158   5.729  12.096
54006W        W19266  26.190   5.472   5.065
54007W        W19267  32.357  42.487  13.962
54008W        W19268  44.488   8.979   1.313
54009W        W19269  24.278   3.827  12.373
54010W        W19270  23.537  15.594  10.830
54011W        W19271  23.637  15.545   1.498
54012W        W19272  11.111   3.879   1.734
54013W        W19273  17.206  31.972  10.815
54014W        W19274  28.951  34.372   0.768
54015W        W19275  30.766  10.736   3.132
54016W        W19276  31.006  18.240  11.591
54017W        W19277  13.397  19.230   0.776
54018W        W19278   2.531  12.369   0.211
54019W        W19279  11.900   6.773   0.536
54020W        W19280  29.059  12.090  13.756
54021W        W19281   3.436  22.670  14.827
54022W        W19282   2.387  40.872   2.843
54023W        W19283  16.398  34.151   2.168
54024W        W19284  32.936  23.129  11.181
54025W        W19285  42.532  30.943   2.512
54026W        W19286  25.751  28.225  11.030
54027W        W19287  26.487  17.771   1.351
54028W        W19288  13.953  39.332   4.279
54029W        W19289  37.018  42.083  14.016
54030W        W19290   5.256   5.901   0.013
54031W        W19291  36.204  35.499  14.103
54032W        W19292  37.226  44.068   1.431
54033W        W19293  34.352  23.146  14.931
54034W        W19294  15.788  39.018   2.872
54035W        W19295  41.661  12.567  12.513
54036W        W19296  10.591  16.124   4.522
54037W        W19297  44.744  39.329  11.128
54038W        W19298  15.272  37.099  13.610
54039W        W19299   9.104  25.517  11.195
54040W        W19300  15.284  23.343   0.952
54041W        W19301   8.833  12.765   2.775
54042W        W19302  43.831  38.293   2.321
54043W        W19303   9.697  40.145   4.076
54044W        W19304  22.415  13.124   4.110
54045W        W19305   7.107  24.015  11.187
54046W        W19306  27.988  44.996  12.434
54047W        W19307  16.649  36.846  13.625
54048W        W19308  42.830  27.200   0.776
54049W        W19309   0.936  16.940   4.722
54050W        W19310  35.966   2.186  14.307
54051W        W19311  41.811   0.839  10.718
54052W        W19312  33.011   5.252   3.188
54053W        W19313  43.074  37.576   2.790
54054W        W19314  40.472  35.936  12.915
54055W        W19315  14.093   7.361  10.332
54056W        W19316  22.490   6.625  13.765
54057W        W19317   2.293   7.891  11.498
54058W        W19318  19.132  42.468   1.245
54059W        W19319  24.630  19.056  13.006
54060W        W19320  36.468   0.055  13.991
54061W        W19321   8.297   4.140   4.471
54062W        W19322   4.717   8.962  14.375
54063W        W19323   4.466  41.358  13.544
54064W        W19324  26.083  26.862  10.704
54065W        W19325  19.523  41.594   2.874
54066W        W19326  15.381  43.537  11.981
54067W        W19327  22.964  42.757   1.318
54068W        W19328  19.442   3.482  10.684
54069W        W19329  19.427  27.501   4.103
54070W        W19330   3.760  21.291   4.960
54071W        W19331  40.615  40.433  11.240
54072W        W19332  36.328   8.719  12.552
54073W        W19333  25.184  44.922   0.900
54074W        W19334  37.029  32.036  11.722
54075W        W19335  35.066   3.804   1.922
54076W        W19336   5.738  18.922  13.360
54077W        W19337  40.867  20.146  11.935
54078W        W19338  13.708  41.586  13.377
54079W        W19339   8.274  10.446   3.949
54080W        W19340  18.693  43.848  13.639
54081W        W19341  19.089  17.455  13.380
54082W        W19342   5.668   9.681  13.138
54083W        W19343  43.839  13.174  10.707
54084W        W19344  10.685  42.905   2.235
54085W        W19345  32.218  11.029   0.314
54086W        W19346  31.846   5.362  14.520
54087W        W19347  18.439  41.215   3.880
54088W        W19348  12.305   5.121   0.843
54089W        W19349  34.220  18.123   1.749
54090W        W19350  19.237  28.957  12.424
54091W        W19351   4.252  15.114  13.874
54092W        W19352  28.857  31.761   2.368
54093W        W19353  12.836  44.526  11.062
54094W        W19354  36.836  35.974  13.883
54095W        W19355  41.331  25.576   4.073
54096W        W19356   5.149   9.456   2.358
54097W        W19357  25.318  19.472   3.730
54098W        W19358  23.299   6.320   2.761
54099W        W19359  30.670  17.215  12.376
54100W        W19360  15.229   5.960  10.963
54101W        W19361   5.586   8.184   4.574
54102W        W19362  29.934  25.232  11.039
54103W        W19363  24.224  17.249  10.491
54104W        W19364   9.240  23.043  14.740
54105W        W19365  24.141   0.497  10.599
54106W        W19366   5.416  43.479   1.564
54107W        W19367  17.755   3.443  13.090
54108W        W19368  41.545  39.648   4.557
54109W        W19369  43.960  15.669   1.964
54110W        W19370  18.437  22.766  13.842
54111W        W19371  37.171   7.727  12.020
54112W        W19372   9.213  35.850  12.201
54113W        W19373   9.312   7.140  11.581
54114W        W19374  29.663  38.418   0.499
54115W        W19375  42.399  26.137   3.820
54116W        W19376  22.953  21.028   3.779
54117W        W19377  34.762   5.754   0.415
54118W        W19378  42.043   6.160   2.765
54119W        W19379  17.612   7.406   4.301
54120W        W19380  16.542  29.921   3.179
54121W        W19381   1.985   3.520  13.513
54122W        W19382   8.736  18.348   1.682
54123W        W19383  39.851  42.431   3.833
54124W        W19384   7.822  30.186  11.888
54125W        W19385  23.362   9.787   4.500
54126W        W19386  26.614  38.885   1.581
54127W        W19387  36.118   4.166  14.552
54128W        W19388  14.558  35.066   0.285
54129W        W19389  17.717  11.033  12.429
54130W        W19390   6.003  35.240   1.776
54131W        W19391   0.728   2.856  12.995
54132W        W19392  15.763  13.611   4.199
54133W        W19393  10.181  39.226  11.188
54134W        W19394  22.734   5.294  14.862
54135W        W19395  34.000  20.134  12.650
54136W        W19396  23.518  34.844  11.829
54137W        W19397  24.101  26.722  11.210
54138W        W19398   7.622  31.172   0.885
54139W        W19399   2.910  14.799   1.135
54140W        W19400  40.498  21.256   0.380
54141W        W19401  40.485  25.636   1.317
54142W        W19402   1.563  20.096   3.251
54143W        W19403   2.753   3.514  14.387
54144W        W19404  39.386  20.759  13.532
54145W        W19405  12.010  44.539   3.667
54146W        W19406  37.418  23.737   0.010
54147W        W19407  35.442  13.370  13.108
54148W        W19408  41.010  41.911   2.703
54149W        W19409  28.464   1.923  14.905
54150W        W19410  31.919  36.450   3.150
54151W        W19411  34.638  22.728   0.094
54152W        W19412  43.585   4.783   2.217
54153W        W19413  37.168  35.618  12.530
54154W        W19414   6.025   2.722   4.933
54155W        W19415  22.808  40.108   3.231
54156W        W19416  27.078   7.767   1.288
54157W        W19417   4.415  30.429  13.333
54158W        W19418  10.168   6.676   0.441
54159W        W19419   6.751   2.752   4.398
54160W        W19420  12.367  21.045  11.985
54161W        W19421   2.795  16.045  12.132
54162W        W19422  11.417  29.019  11.017
54163W        W19423  20.073  43.922   3.279
54164W        W19424   5.315  16.092   1.500
54165W        W19425  44.299   6.360   1.787
54166W        W19426  17.804  28.353  12.363
54167W        W19427   6.888  39.109   2.839
54168W        W19428  35.099   1.429  14.620
54169W        W19429  23.406  20.056   4.815
54170W        W19430  44.066  27.919  11.018
54171W        W19431  30.605  18.112  11.225
54172W        W19432  24.807  28.974   4.432
54173W        W19433  14.060   0.214  11.176
54174W        W19434  24.520  26.123  12.894
54175W        W19435  21.099  13.327  13.874
54176W        W19436  42.138  30.995  14.916
54177W        W19437  13.764  43.610   4.390
54178W        W19438  18.030  19.579   0.359
54179W        W19439  33.948   1.218  12.016
54180W        W19440  41.000   1.914   2.096
54181W        W19441  21.189  11.735  14.436
54182W        W19442   3.046  36.365  12.498
54183W        W19443   2.954  34.941  12.016
54184W        W19444  15.161  11.426  11.204
54185W        W19445  38.861  19.758  12.621
54186W        W19446  25.225  15.545   1.873
54187W        W19447  29.108  37.888  12.642
54188W        W19448  39.692  24.623  12.867
54189W        W19449  29.163  23.580  14.939
54190W        W19450  42.798  13.370   4.913
54191W        W19451   0.977  40.234   1.560
54192W        W19452  43.768  20.175  12.187
54193W        W19453  13.238  16.246   3.394
54194W        W19454  39.769  42.070   0.854
54195W        W19455   0.418   6.135   2.814
54196W        W19456  27.005  10.128   4.144
54197W        W19457   9.789  24.959   9.709
54198W        W19458  36.042  21.481  14.361
54199W        W19459  38.858  18.539  12.782
54200W        W19460  37.455  42.254   3.655
54201W        W19461  24.123  17.216  10.999
54202W        W19462  24.120   2.904  14.562
54203W        W19463  43.208  29.124  11.944
54204W        W19464  11.900  23.009  11.971
54205W        W19465  42.934  10.815   1.321
54206W        W19466   0.259  22.853  11.129
54207W        W19467  39.448  19.643  11.796
54208W        W19468  12.727   1.971   1.408
54209W        W19469  39.617  17.552  14.686
54210W        W19470  27.478  27.558   2.446
54211W        W19471  11.835   2.170   5.123
54212W        W19472  30.471   8.800   0.328
54213W        W19473  17.742   7.439  11.045
54214W        W19474  11.622  30.673  14.778
54215W        W19475  17.406  17.760  14.709
54216W        W19476  26.519   4.640   4.074
54217W        W19477  16.606  36.844  11.145
54218W        W19478  30.772  14.630  14.758
54219W        W19479  25.153  43.156   2.386
54220W        W19480  29.373  26.565   3.693
54221W        W19481  24.764  17.629  13.352
54222W        W19482  11.272  35.158  10.329
54223W        W19483  21.231  27.986  13.798
54224W        W19484  17.271  33.520   1.342
54225W        W19485   0.776   5.221   1.783
54226W        W19486  32.448  24.151   4.859
54227W        W19487  13.092  32.775   4.594
54228W        W19488  42.071   9.775  12.285
54229W        W19489  32.098  44.262  12.546
54230W        W19490   5.824  16.749  13.551
54231W        W19491  34.605   0.346  10.485
54232W        W19492  33.388  29.992   4.563
54233W        W19493   3.856  15.219   3.877
54234W        W19494  31.513  35.297   1.857
54235W        W19495  29.439  21.667   4.566
54236W        W19496  24.653   3.406  14.468
54237W        W19497  20.217   5.432  13.485
54238W        W19498   2.662  43.003   1.381
54239W        W19499  24.775  23.662  14.933
54240W        W19500  13.901  37.701  12.539
54241W        W19501  28.710  42.900   4.777
54242W        W19502  24.038  11.261  11.059
54243W        W19503  21.195   4.745   2.866
54244W        W19504  19.257  31.035   0.839
54245W        W19505  31.961  10.433   3.521
54246W        W19506  31.702   7.020   3.635
54247W        W19507  12.530  21.246   2.371
54248W        W19508  22.610  13.615  13.071
54249W        W19509  16.747   3.214  10.745
54250W        W19510  33.375  19.198  13.197
54251W        W19511  41.791  19.197  14.493
54252W        W19512  19.698  32.613   3.991
54253W        W19513  30.578  15.365  11.527
54254W        W19514  21.703  22.670  11.994
54255W        W19515  23.475  30.969  13.510
54256W        W19516  18.679  17.912   4.629
54257W        W19517   1.733  16.409   1.198
54258W        W19518  20.753  22.582  13.903
54259W        W19519   3.349  31.846   0.645
54260W        W19520  42.092  12.300   0.883
54261W        W19521  36.988   0.226   2.767
54262W        W19522  37.087  19.895  14.020
54263W        W19523  24.990  24.252   4.362
54264W        W19524  44.110  20.656  11.013
54265W        W19525  18.192  30.780   4.715
54266W        W19526   0.399  16.319  12.639
54267W        W19527  17.516  42.001   2.356
54268W        W19528  33.161  10.754   2.905
54269W        W19529  10.795  13.542   2.789
54270W        W19530  44.690  37.606   3.292
54271W        W19531   4.903   3.316   3.524
54272W        W19532  41.255  17.645  12.090
54273W        W19533  24.571  34.178  12.799
54274W        W19534  26.269  13.596   3.634
54275W        W19535  20.167   8.815   4.358
54276W        W19536  14.792   5.163  12.862
54277W        W19537   3.554  34.658  14.504
54278W        W19538  23.741  15.127  10.938
54279W        W19539  15.173  12.581   2.263
54280W        W19540  13.234  28.084  11.684
54281W        W19541   3.523  32.121   0.218
54282W        W19542  41.944  32.881   4.172
54283W        W19543  33.982  43.719  10.388
54284W        W19544  38.970   7.323   4.522
54285W        W19545  17.476  43.964   2.366
54286W        W19546  14.654  14.154   4.684
54287W        W19547  13.287  43.046   0.333
54288W        W19548  28.736  37.461  11.447
54289W        W19549  20.274  14.113   3.310
54290W        W19550  11.157  28.497   4.123
54291W        W19551   1.393  33.491   0.963
54292W        W19552  19.879  26.657   4.065
54293W        W19553  22.494  33.025   5.118
54294W        W19554  38.302   3.358   3.097
54295W        W19555  32.904  29.919  14.128
54296W        W19556   0.980  44.431  11.102
54297W        W19557  38.066   3.219   1.204
54298W        W19558   8.093  19.116   3.393
54299W        W19559  26.166  24.892   1.835
54300W        W19560  12.295  32.986  13.092
54301W        W19561  16.361  25.531  12.940
54302W        W19562  27.624  41.339   1.666
54303W        W19563  38.535   4.429   2.266
54304W        W19564  19.926  35.389   5.570
54305W        W19565  27.430  28.222   3.248
54306W        W19566  36.683  42.468   0.831
54307W        W19567  32.548  40.600  10.744
54308W        W19568  19.515  21.742   4.336
54309W        W19569   3.305  42.016   4.607
54310W        W19570  35.299  43.942  13.636
54311W        W19571   2.003   1.791  13.453
54312W        W19572  35.975   4.459   0.997
54313W        W19573  28.959  40.128   2.246
54314W        W19574  32.199  33.340  11.658
54315W        W19575  44.833  19.255  12.764
54316W        W19576  42.110  28.896   0.247
54317W        W19577  21.265  44.875  12.726
54318W        W19578   9.836   0.679   0.286
54319W        W19579  32.187   4.695  13.852
54320W        W19580  25.670  20.381  13.194
54321W        W19581  12.145   9.843  10.786
54322W        W19582  21.708  23.306  11.617
54323W        W19583  30.726  23.876  11.854
54324W        W19584   3.965  13.007   4.019
54325W        W19585  12.331  34.134   3.126
54326W        W19586  23.492  22.778  12.468
54327W        W19587  34.790  34.357  11.472
54328W        W19588  34.054  35.295  13.920
54329W        W19589   1.372   4.783   5.025
54330W        W19590  39.063  38.509   0.833
54331W        W19591   8.171   4.119  11.530
54332W        W19592  22.564   6.387  11.076
54333W        W19593  17.043   4.487  11.557
54334W        W19594  19.767  16.658  14.746
54335W        W19595   7.898  37.098   0.829
54336W        W19596   9.343  31.994  12.038
54337W        W19597  11.370  43.208  14.193
54338W        W19598  36.065  33.323   1.375
54339W        W19599  18.292  40.558  10.748
54340W        W19600   6.966  42.464   2.909
54341W        W19601  41.254  37.495  12.916
54342W        W19602  36.114  24.075  11.087
54343W        W19603  38.405  20.127  10.669
54344W        W19604   4.967  41.471  13.523
54345W        W19605  26.227  15.041  11.864
54346W        W19606   1.116  14.961   9.980
54347W        W19607   8.415   9.584   0.081
54348W        W19608   5.905  22.752   1.813
54349W        W19609  27.252  13.637   1.057
54350W        W19610  23.092  15.981  14.296
54351W        W19611  18.140   0.899  12.519
54352W        W19612  16.827  24.111   0.387
54353W        W19613   0.461  24.263   1.004
54354W        W19614  21.984  34.890  11.107
54355W        W19615  19.620  33.890   2.270
54356W        W19616  13.237  35.134   3.245
54357W        W19617  39.364  20.193   3.804
54358W        W19618  21.308  28.620  11.329
54359W        W19619  39.485  12.700   1.390
54360W        W19620  33.315  43.689   3.199
54361W        W19621  34.219  24.119   2.415
54362W        W19622  44.485  21.998   3.176
54363W        W19623  24.507  43.817   3.641
54364W        W19624  27.617  13.248  13.440
54365W        W19625  28.530  33.099  12.483
54366W        W19626  17.212  42.905   5.048
54367W        W19627  23.991  33.938   1.247
54368W        W19628  41.410  10.946  13.976
54369W        W19629  13.656   4.137   4.342
54370W        W19630   1.477  11.329   1.776
54371W        W19631  10.379   9.351  11.226
54372W        W19632   0.796  15.352   0.374
54373W        W19633  39.523  14.629   1.781
54374W        W19634  19.295  15.090   1.950
54375W        W19635  32.021  11.203   3.604
54376W        W19636   0.923   9.705  12.354
54377W        W19637  44.719  43.285   2.746
54378W        W19638  35.507  40.448  13.340
54379W        W19639  25.708  42.779  12.076
54380W        W19640  13.811  14.080   3.585
54381W        W19641  22.016  16.187   3.787
54382W        W19642  29.208   6.748  11.193
54383W        W19643  38.170  44.440   4.532
54384W        W19644  29.034  43.413   4.118
54385W        W19645   1.682  19.003   1.905
54386W        W19646  16.089  20.751   0.374
54387W        W19647  20.758  21.685   1.845
54388W        W19648   4.811  24.695   3.846
54389W        W19649  34.038   7.861   2.763
54390W        W19650  37.031   3.007  14.794
54391W        W19651   3.543  36.585   0.741
54392W        W19652  31.240  38.046  11.744
54393W        W19653  15.618  14.686   1.877
54394W        W19654   8.870   5.667  12.946
54395W        W19655  41.107   4.824  12.954
54396W        W19656  43.025  40.026   1.198
54397W        W19657  41.006  16.014   4.966
54398W        W19658  26.088  28.208   3.378
54399W        W19659   8.632   9.530  14.007
54400W        W19660  39.868  19.549   1.009
54401W        W19661  43.941   8.220   1.774
54402W        W19662  17.949   3.369  10.513
54403W        W19663   2.962  35.031  13.014
54404W        W19664  22.927  11.991  13.446
54405W        W19665  11.978  29.864   4.257
54406W        W19666  16.201   7.837   0.734
54407W        W19667  21.016   1.017   3.668
54408W        W19668  31.169   0.691   0.947
54409W        W19669  29.451  12.417  11.136
54410W        W19670  44.467   2.407   0.355
54411W        W19671  16.245   9.895   0.215
54412W        W19672  19.586  32.988  12.895
54413W        W19673   8.127   4.494  10.679
54414W        W19674  38.842   4.937  13.102
54415W        W19675  15.671  33.895   2.234
54416W        W19676  32.123  21.049   5.059
54417W        W19677  34.106  28.734  12.826
54418W        W19678  31.117  40.357  10.388
54419W        W19679  15.517  24.236  12.879
54420W        W19680  20.765  41.358  13.428
54421W        W19681  29.447   3.851   0.561
54422W        W19682  10.657  16.533   0.073
54423W        W19683  11.884   9.833  13.982
54424W        W19684  18.726  19.055   1.203
54425W        W19685  36.114  41.104   1.816
54426W        W19686  28.479  34.403  14.858
54427W        W19687  27.066  43.207  13.550
54428W        W19688  35.949   7.633  11.585
54429W        W19689  19.401  44.383   4.061
54430W        W19690  19.233  31.118   2.262
54431W        W19691   3.750  18.096  10.757
54432W        W19692  37.916   7.155   4.538
54433W        W19693  24.322  14.439   2.355
54434W        W19694  11.219  39.079   2.697
54435W        W19695   6.654  15.906   4.466
54436W        W19696  23.323   1.369   0.411
54437W        W19697  19.221  25.967  10.594
54438W        W19698  39.540  24.530  13.428
54439W        W19699   3.599   7.528   2.648
54440W        W19700  27.493   2.931   0.882
54441W        W19701   8.702  37.608   1.860
54442W        W19702  37.465  35.731  13.575
54443W        W19703  18.032  44.076   4.069
54444W        W19704  21.879  31.101   0.231
54445W        W19705   1.358  20.032  13.256
54446W        W19706   7.305  42.514  11.992
54447W        W19707  40.075  11.828  14.922
54448W        W19708  25.617  28.216   3.144
54449W        W19709   7.652  35.495  12.352
54450W        W19710   6.922  23.578  11.930
54451W        W19711  36.045  14.347  10.641
54452W        W19712  18.695  32.156  11.044
54453W        W19713  20.176  33.851  10.434
54454W        W19714  13.682  41.811  12.921
54455W        W19715  38.441   1.719   1.727
54456W        W19716  18.799   3.101   5.033
54457W        W19717  35.089  16.659   1.439
54458W        W19718  22.439  23.495  14.388
54459W        W19719  37.462  28.872  14.657
54460W        W19720  16.615  22.169   4.393
54461W        W19721   2.778  16.784   2.210
54462W        W19722  33.849  37.565  12.964
54463W        W19723  38.358  34.642   4.552
54464W        W19724  43.624  24.742  11.977
54465W        W19725   6.856  35.949  12.121
54466W        W19726   1.251  39.855   2.325
54467W        W19727  30.560  27.618   4.509
54468W        W19728  35.563  19.237   2.670
54469W        W19729   0.582   1.384   3.356
54470W        W19730  40.532  39.232  14.925
54471W        W19731   8.575  28.922   1.179
54472W        W19732  40.580  37.663  14.305
54473W        W19733  15.243   8.767   2.832
54474W        W19734  37.830  13.068   3.694
54475W        W19735  19.024  23.173  10.532
54476W        W19736   5.443  44.790  12.572
54477W        W19737  15.236  39.896  10.663
54478W        W19738  26.197  11.706   0.451
54479W        W19739  29.033   2.876   0.777
54480W        W19740  36.030  28.506   3.241
54481W        W19741  43.407   5.855  10.556
54482W        W19742  38.855  29.133  10.386
54483W        W19743  21.080  25.117  12.547
54484W        W19744   7.474  21.055   0.432
54485W        W19745   8.271  27.470   0.011
54486W        W19746  32.328  43.780   3.950
54487W        W19747  15.718  11.935  10.550
54488W        W19748  22.644  24.193   0.839
54489W        W19749  33.465  18.671   5.071
54490W        W19750  10.583  39.224   1.614
54491W        W19751  12.180   4.161   2.689
54492W        W19752  33.903   2.489   3.629
54493W        W19753  30.636  12.153  11.494
54494W        W19754   2.488  36.873  13.283
54495W        W19755  32.126  13.836   4.835
54496W        W19756  32.770  29.471   0.371
54497W        W19757  19.022  39.094   2.511
54498W        W19758  31.348  20.455   0.035
54499W        W19759  38.917  24.602  12.272
54500W        W19760  44.375  29.678  10.784
54501W        W19761  38.445  43.844  11.186
54502W        W19762  19.679  10.135   1.403
54503W        W19763   0.239  20.806   5.232
54504W        W19764  14.324  38.248  14.189
54505W        W19765   0.236  19.159  13.975
54506W        W19766  33.514  32.153  12.936
54507W        W19767   5.851  16.337  11.522
54508W        W19768   4.729  38.468   4.105
54509W        W19769   4.469  28.471  14.485
54510W        W19770  12.691   4.748  10.820
54511W        W19771  29.195  41.781  12.094
54512W        W19772  33.953  17.534   4.013
54513W        W19773  41.479  34.875  14.718
54514W        W19774   9.699  20.338  10.654
54515W        W19775  15.540  12.236  13.427
54516W        W19776   9.148  37.618   2.335
54517W        W19777  22.499  20.188   2.211
54518W        W19778  28.055  37.596   4.165
54519W        W19779  39.567   3.961   3.546
54520W        W19780  16.335  34.460  13.537
54521W        W19781  36.051  29.503   3.274
54522W        W19782   3.473  35.325   0.824
54523W        W19783  32.490  33.133   3.172
54524W        W19784  27.780   0.155  11.990
54525W        W19785  21.965  27.206   0.380
54526W        W19786  24.657  34.436   0.021
54527W        W19787   8.962  24.221  14.361
54528W        W19788   5.996   9.820  13.994
54529W        W19789  42.608  20.631  10.957
54530W        W19790  11.213  12.342   0.263
54531W        W19791  33.577  18.650  12.456
54532W        W19792  38.464  27.007   4.683
54533W        W19793   4.345  30.112  11.589
54534W        W19794  37.707  10.093  11.064
54535W        W19795  42.485  34.537  14.544
54536W        W19796  33.458   0.843  14.879
54537W        W19797  30.152  41.439  13.037
54538W        W19798   3.718  19.025  13.032
54539W        W19799  29.999  19.239  13.826
54540W        W19800  41.469  17.763  13.071
54541W        W19801  31.056  15.763  13.429
54542W        W19802   8.010   4.433   0.783
54543W        W19803  13.665  41.901   0.755
54544W        W19804  22.770   5.479   1.914
54545W        W19805  30.901  16.623  11.450
54546W        W19806  18.185  13.808  13.458
54547W        W19807   5.831  39.236   4.585
54548W        W19808   5.610  25.018   2.958
54549W        W19809  26.258  10.881   2.962
54550W        W19810   5.290  11.995  14.901
54551W        W19811  11.706   2.839   1.285
54552W        W19812  27.395   8.353  13.453
54553W        W19813  30.058  13.647   2.828
54554W        W19814  35.341  44.040   3.688
54555W        W19815  29.403  23.119   4.736
54556W        W19816  26.969  22.462  10.053
54557W        W19817  29.590   7.896  12.389
54558W        W19818  39.495  36.548   0.441
54559W        W19819  33.870  16.178   0.560
54560W        W19820   7.440  33.569   3.808
54561W        W19821  39.470   5.463   1.224
54562W        W19822  11.939  19.297   4.201
54563W        W19823   1.117   4.030  11.583
54564W        W19824  28.215  34.989  13.409
54565W        W19825  19.210  37.110   3.823
54566W        W19826  40.486   8.523   3.688
54567W        W19827  39.333   7.687  11.518
54568W        W19828  25.973  32.418  13.492
54569W        W19829   0.731   0.372  10.721
54570W        W19830  36.142  35.636   0.597
54571W        W19831  16.575  17.031  11.013
54572W        W19832   9.858  32.397  13.095
54573W        W19833  22.483  32.927  10.556
54574W        W19834  44.427   9.427  10.604
54575W        W19835  36.437  24.128  14.963
54576W        W19836  40.401  32.555   4.839
54577W        W19837  15.180  42.613  12.149
54578W        W19838  30.836  32.380  14.552
54579W        W19839  19.931  38.925  12.309
54580W        W19840  44.752  21.468   4.178
54581W        W19841   2.892  15.544  12.109
54582W        W19842   0.804  13.331  13.547
54583W        W19843  29.329   2.417   1.651
54584W        W19844  44.844  30.637   0.642
54585W        W19845  26.189   3.870  11.644
54586W        W19846  27.515  21.269  13.026
54587W        W19847  24.988  37.221   2.460
54588W        W19848  17.862  14.310   1.930
54589W        W19849  44.575  19.234   4.939
54590W        W19850  12.418  31.363  13.878
54591W        W19851  21.354  15.492  11.830
54592W        W19852  28.911  39.262  13.206
54593W        W19853   7.137   4.499   3.477
54594W        W19854  11.560  42.840  13.348
54595W        W19855  42.840  16.132   2.647
54596W        W19856  22.347  30.639  14.442
54597W        W19857  31.800  23.507   3.931
54598W        W19858  20.179  11.280   2.275
54599W        W19859  23.132   2.773   0.759
54600W        W19860  10.219  17.464   4.217
54601W        W19861  30.068  21.915   1.304
54602W        W19862   2.897   1.960  12.830
54603W        W19863  27.544  16.198   2.216
54604W        W19864  41.621  43.729  11.083
54605W        W19865   0.451  32.568  11.615
54606W        W19866   5.846  18.670   4.865
54607W        W19867  36.381  42.320  10.644
54608W        W19868   1.897  25.472   2.350
54609W        W19869   6.773  14.815   2.378
54610W        W19870   2.892   7.662   1.408
54611W        W19871  15.118  32.828   3.656
54612W        W19872  22.028  17.666  13.550
54613W        W19873  21.073  39.608  13.980
54614W        W19874  30.777  22.070  10.456
54615W        W19875  36.828  42.290   0.357
54616W        W19876  22.769  22.569   1.872
54617W        W19877   2.694  36.501  14.024
54618W        W19878  31.041  35.587  10.620
54619W        W19879  28.488  34.010  12.334
54620W        W19880  39.009  43.366  12.528
54621W        W19881  37.573   1.928   3.145
54622W        W19882  44.994  33.375  14.297
54623W        W19883  38.747  27.995  13.802
54624W        W19884  33.010  34.809   2.271
54625W        W19885  18.209  16.882  13.454
54626W        W19886   3.252   0.735  13.487
54627W        W19887  39.507  44.917   4.829
54628W        W19888  36.840  40.369   4.447
54629W        W19889  19.210   9.318  11.378
54630W        W19890   8.394   5.147  12.450
54631W        W19891  25.196  23.238  10.442
54632W        W19892  10.376  21.618  10.965
54633W        W19893  40.929  40.855  11.352
54634W        W19894  20.429  11.163  11.572
54635W        W19895  10.307  19.358   0.948
54636W        W19896  37.500  40.928   2.918
54637W        W19897  34.592  13.137  14.454
54638W        W19898   1.857  20.115   2.814
54639W        W19899  44.250   7.718  13.796
54640W        W19900  44.531   7.514  11.736
54641W        W19901  43.740   3.368  13.479
54642W        W19902  39.102   9.770   0.270
54643W        W19903   8.363   1.622  12.954
54644W        W19904  15.164  43.039   2.468
54645W        W19905  29.961  11.287   1.896
54646W        W19906   7.480  20.802  11.504
54647W        W19907  25.191  20.544  10.338
54648W        W19908   9.356  29.482  10.747
54649W        W19909   4.606   9.816   2.023
54650W        W19910  16.193  35.791   4.167
54651W        W19911  12.278  23.709  14.973
54652W        W19912  24.395  25.875   3.325
54653W        W19913  23.545  30.951  12.578
54654W        W19914  18.749  10.695  10.584
54655W        W19915   8.839  24.149  10.832
54656W        W19916   8.926  42.846   1.915
54657W        W19917  38.522  22.935  13.081
54658W        W19918  14.322   1.506   3.425
54659W        W19919  16.718  18.564   1.211
54660W        W19920   6.995  40.974  12.034
54661W        W19921   2.585  34.428   3.800
54662W        W19922  33.079  44.780  13.525
54663W        W19923   8.258  29.839   3.219
54664W        W19924  25.066  19.306  10.717
54665W        W19925  41.480  35.164   4.361
54666W        W19926  34.997   7.862   1.470
54667W        W19927  36.080   5.835   1.790
54668W        W19928  37.341  27.135  11.567
54669W        W19929  39.872   2.850  12.503
54670W        W19930   8.284  33.041   2.001
54671W        W19931  29.085  25.676   2.838
54672W        W19932   1.516   9.095   4.679
54673W        W19933  25.739  36.873   5.270
54674W        W19934  34.439  13.073  11.336
54675W        W19935  30.420  15.690   0.461
54676W        W19936   9.770  12.299  14.703
54677W        W19937  43.095  37.815   2.308
54678W        W19938  33.645  37.050   3.772
54679W        W19939   7.840  43.489  10.640
54680W        W19940  34.980  40.082  11.748
54681W        W19941  23.598  34.590   9.938
54682W        W19942  41.821  44.066  13.538
54683W        W19943   1.625  27.565  14.788
54684W        W19944  27.272   0.207   2.193
54685W        W19945  35.656   9.723  12.054
54686W        W19946  38.418  43.167   4.289
54687W        W19947  24.285  14.078  10.629
54688W        W19948   7.875   7.722   2.455
54689W        W19949  43.976   5.260  10.965
54690W        W19950  11.292  12.835   4.832
54691W        W19951  14.649  18.152  13.869
54692W        W19952  30.933   1.043  13.260
54693W        W19953  17.209   4.950   3.107
54694W        W19954  10.378   8.895   1.434
54695W        W19955  37.262  34.234  12.070
54696W        W19956  11.857  19.644   5.062
54697W        W19957  23.567  15.464  14.910
54698W        W19958  32.244  43.966   1.169
54699W        W19959   2.230  26.457   3.142
54700W        W19960   7.608  39.297   4.631
54701W        W19961  14.113  38.613  13.674
54702W        W19962   0.268   0.210   1.806
54703W        W19963  43.446  41.520   0.307
54704W        W19964  42.257  26.692   1.876
54705W        W19965   2.248  40.270  14.937
54706W        W19966  32.105  10.702  14.048
54707W        W19967  13.186  22.611  10.532
54708W        W19968  35.858  40.302   3.285
54709W        W19969  41.405   9.658   2.372
54710W        W19970   5.628  24.555   1.228
54711W        W19971   6.789  13.606   3.369
54712W        W19972   1.133   6.296   3.654
54713W        W19973  21.807  32.862   0.847
54714W        W19974  41.514  36.467   1.738
54715W        W19975  14.173  17.258  13.995
54716W        W19976   1.336  20.482   1.021
54717W        W19977   5.424  23.451   3.764
54718W        W19978  40.860  35.688  14.957
54719W        W19979  24.954   7.700  14.246
54720W        W19980   1.736  40.075   2.301
54721W        W19981  14.294  33.122   1.154
54722W        W19982  21.021  29.460  12.438
54723W        W19983   0.934  35.131   4.158
54724W        W19984  37.054  20.257  12.494
54725W        W19985   0.965  35.609   3.182
54726W        W19986   7.084  15.647   2.788
54727W        W19987   8.786  40.340   5.033
54728W        W19988   1.214  36.967  12.804
54729W        W19989  10.702  40.753   4.867
54730W        W19990   5.461  22.713   3.750
54731W        W19991  38.358  15.227  13.797
54732W        W19992  33.496  21.826   3.713
54733W        W19993  31.108  36.285   2.171
54734W        W19994  12.628  25.972   3.578
54735W        W19995  40.840  15.370  10.831
54736W        W19996   1.904   2.336  11.601
54737W        W19997  42.829   4.207  13.876
54738W        W19998  37.590  12.651  14.375
54739W        W19999  25.746  40.714  11.962
54740W        W20000  43.828  32.020   3.319
54741W        W20001  25.490   9.317   2.894
54742W        W20002  43.437  20.948  14.928
54743W        W20003   8.905  18.767   0.204
54744W        W20004  37.850  36.015  14.300
54745W        W20005  21.967  36.866   1.244
54746W        W20006  30.116  44.970  11.445
54747W        W20007   4.751   4.988  11.525
54748W        W20008   9.541  13.874   1.258
54749W        W20009  13.669  36.123  11.444
54750W        W20010  43.400  16.760   4.206
54751W        W20011  35.167  27.572   4.370
54752W        W20012  29.670  23.977  14.324
54753W        W20013   4.819   1.744  10.727
54754W        W20014  42.717  27.927  12.302
54755W        W20015  34.548   6.590  13.666
54756W        W20016  18.364   2.890  14.867
54757W        W20017  28.463  32.604  12.350
54758W        W20018   6.716  41.220   1.951
54759W        W20019   3.232   8.116   2.076
54760W        W20020  31.962  42.819   1.659
54761W        W20021   3.396  17.356  14.438
54762W        W20022  26.774   1.715   3.635
54763W        W20023  26.714  31.991  11.621
54764W        W20024  22.200   9.934  13.545
54765W        W20025  27.076  19.170  14.791
54766W        W20026  40.727  15.946  12.342
54767W        W20027  38.359  39.448  13.386
54768W        W20028  34.009  43.247  12.181
54769W        W20029  14.112  18.097   2.273
54770W        W20030  16.820   9.622  10.872
54771W        W20031  40.791  20.397   1.260
54772W        W20032  18.691  38.870  14.857
54773W        W20033   7.230   1.257   0.780
54774W        W20034  40.351  27.072   3.082
54775W        W20035   7.712  25.418  13.952
54776W        W20036  31.958   7.350  10.219
54777W        W20037  23.721  34.509  13.344
54778W        W20038  14.775  30.458  14.050
54779W        W20039  33.309  32.522  12.154
54780W        W20040   7.697  19.300   3.034
54781W        W20041  16.577  28.114   2.343
54782W        W20042  26.209   6.264  14.818
54783W        W20043  33.579   1.671   2.100
54784W        W20044  34.420  44.394  10.477
54785W        W20045  44.834  42.827   2.373
54786W        W20046  42.954  11.151  12.387
54787W        W20047  40.137   2.650  14.826
54788W        W20048  18.767  22.041  12.521
54789W        W20049  17.376  27.005   1.393
54790W        W20050  18.109  14.781   1.801
54791W        W20051  22.599  17.087  14.206
54792W        W20052   1.463   6.212   2.205
54793W        W20053   0.948  25.098   0.937
54794W        W20054   6.118  15.612   0.485
54795W        W20055   9.216  12.739   1.850
54796W        W20056  31.612  37.376   4.673
54797W        W20057  27.038  37.500   4.058
54798W        W20058  40.524  41.421  12.476
54799W        W20059  25.162  14.564  11.524
54800W        W20060  40.780  38.338   4.607
54801W        W20061  23.712  10.386   1.328
54802W        W20062  19.816   4.220   0.764
54803W        W20063  25.934  34.433  13.349
54804W        W20064  35.476  28.934  10.928
54805W        W20065   6.326   2.673   4.120
54806W        W20066  15.743  37.760   4.158
54807W        W20067   3.981  26.690   1.249
54808W        W20068  17.056  14.260  12.434
54809W        W20069  21.644  13.347  11.169
54810W        W20070  30.364  12.881  11.216
54811W        W20071  26.972   1.269   1.390
54812W        W20072  41.926  32.591   3.199
54813W        W20073  24.209  31.213   4.327
54814W        W20074  43.314   4.759   1.777
54815W        W20075  34.165  12.649  11.685
54816W        W20076   9.422  38.479   0.816
54817W        W20077   8.025  33.634   3.225
54818W        W20078  13.288  32.586  14.486
54819W        W20079  26.813  25.572  14.334
54820W        W20080  37.351   8.556   2.830
54821W        W20081  18.207   2.676   4.268
54822W        W20082  24.761  39.275  10.465
54823W        W20083  25.940  44.013   3.697
54824W        W20084  18.009  17.812  11.403
54825W        W20085  31.864  12.318  12.568
54826W        W20086  44.271  36.950   1.340
54827W        W20087  13.317  35.432  11.253
54828W        W20088  37.606  21.011  13.490
54829W        W20089   1.563   6.399   0.310
54830W        W20090  33.583  15.633   2.212
54831W        W20091  23.097  27.126   1.924
54832W        W20092  10.606  44.336  11.132
54833W        W20093  38.475  39.444  14.391
54834W        W20094  20.706  23.799  12.444
54835W        W20095   8.572  25.447   2.308
54836W        W20096   6.848  35.420  12.929
54837W        W20097  41.879  21.759  11.596
54838W        W20098  16.324  33.551   2.868
54839W        W20099  26.921  32.168   0.906
54840W        W20100  33.120  23.753   3.750
54841W        W20101  35.619   6.155   1.007
54842W        W20102  11.682  23.698   0.308
54843W        W20103   1.873  26.594  10.140
54844W        W20104  16.143  42.302  11.089
54845W        W20105  36.523  37.020  10.930
54846W        W20106  21.738  29.506   3.465
54847W        W20107   7.176  42.356   4.777
54848W        W20108  38.924  25.495   1.451
54849W        W20109   1.725  10.038   3.687
54850W        W20110  25.289  33.982  12.998
54851W        W20111  40.245  21.742   3.308
54852W        W20112  20.196  39.062   2.035
54853W        W20113  27.412  43.020  12.356
54854W        W20114  12.278  37.856  12.109
54855W        W20115   1.971   9.327  13.656
54856W        W20116  33.528  35.128   4.547
54857W        W20117  21.008   1.776   1.741
54858W        W20118  35.024  35.411  11.622
54859W        W20119   3.856  21.626   1.450
54860W        W20120   6.830  38.170  12.055
54861W        W20121   3.892  37.338  10.487
54862W        W20122  30.971   6.274   4.387
54863W        W20123   6.879  24.103  10.646
54864W        W20124  17.236  15.908  14.889
54865W        W20125  17.443  44.948  14.997
54866W        W20126  12.267  20.347   4.105
54867W        W20127   3.198  43.870   2.906
54868W        W20128  13.337  18.108   2.760
54869W        W20129  15.819   3.487   2.272
54870W        W20130  18.843  42.403  14.301
54871W        W20131   3.714  26.442   3.323
54872W        W20132  23.654   0.624   4.149
54873W        W20133   8.693  43.193   3.992
54874W        W20134   3.071  17.307   0.399
54875W        W20135  29.902   2.155  12.920
54876W        W20136  37.820  33.922   4.637
54877W        W20137   9.809  29.585   2.341
54878W        W20138  39.440  17.070   1.094
54879W        W20139   4.950  12.072   2.799
54880W        W20140  39.484  24.344   4.045
54881W        W20141   9.336  36.650   3.791
54882W        W20142  15.271  41.088  14.724
54883W        W20143  28.543  36.446   3.376
54884W        W20144   1.470  21.105  10.721
54885W        W20145  35.089  42.961   4.973
54886W        W20146  21.081   5.115   3.690
54887W        W20147  28.115  14.318  10.074
54888W        W20148  15.549   3.379  14.849
54889W        W20149  40.990  14.495   2.706
54890W        W20150  37.000  25.323  14.390
54891W        W20151  16.157  41.826  11.865
54892W        W20152   5.262  24.229  10.649
54893W        W20153  18.886  17.555   3.991
54894W        W20154  27.752   9.628  13.817
54895W        W20155  39.934  28.396   2.264
54896W        W20156  12.042  37.227  12.916
54897W        W20157  24.277  22.183  12.561
54898W        W20158  31.111  38.350  12.996
54899W        W20159  40.446  39.783  13.860
54900W        W20160  35.107  33.042  12.049
54901W        W20161  37.053  35.537   1.238
54902W        W20162  18.064  35.386   3.720
54903W        W20163   6.412  23.010  12.418
54904W        W20164  32.066   9.768  12.111
54905W        W20165   5.101  33.083  11.994
54906W        W20166  36.089  16.610   0.466
54907W        W20167   1.526  31.131   0.331
54908W        W20168  42.590  19.296  10.848
54909W        W20169  23.111  35.334  14.884
54910W        W20170   5.692  27.908  14.437
54911W        W20171  14.138  32.549   3.012
54912W        W20172  11.109  40.081   4.349
54913W        W20173  19.021  31.586   2.212
54914W        W20174   1.906  30.577  14.400
54915W        W20175  33.520  41.560   1.864
54916W        W20176   9.667  23.145   0.276
54917W        W20177  25.135  42.313   0.390
54918W        W20178  16.778  30.480  11.461
54919W        W20179  20.530  38.301  13.885
54920W        W20180  32.114  19.493   1.854
54921W        W20181  44.216  32.694   2.853
54922W        W20182  42.267  35.390   0.627
54923W        W20183  44.926  24.064  11.899
54924W        W20184   6.921  25.800  13.521
54925W        W20185  35.416  39.829  11.588
54926W        W20186  43.363  13.325   2.242
54927W        W20187   6.242  30.535   2.732
54928W        W20188  31.603  13.695  13.853
54929W        W20189   7.773  35.738   1.203
54930W        W20190   4.018  35.610  12.409
54931W        W20191   8.782  34.223   4.116
54932W        W20192  30.907  10.220  14.226
54933W        W20193  33.891  10.632   4.741
54934W        W20194  12.252  11.868  10.840
54935W        W20195  21.696   8.400  12.405
54936W        W20196   7.650  27.270   0.928
54937W        W20197   1.389  10.206   0.754
54938W        W20198  10.665  13.768   4.140
54939W        W20199  19.681  22.504  12.519
54940W        W20200  23.035  27.593  14.125
54941W        W20201  19.706  28.813  12.902
54942W        W20202   5.340  16.583   3.335
54943W        W20203  30.894  29.480   3.181
54944W        W20204  24.264   7.517   4.797
54945W        W20205  44.827   9.650  11.468
54946W        W20206  20.786   6.643  13.387
54947W        W20207  17.665  16.631   0.709
54948W        W20208  23.057  20.186  12.877
54949W        W20209  39.708  37.386   2.478
54950W        W20210  26.691  38.837  14.063
54951W        W20211  31.168  24.256  14.269
54952W        W20212  32.496  10.349   3.844
54953W        W20213  12.190  25.173  11.337
54954W        W20214  17.485  19.252  12.473
54955W        W20215  42.548  18.773  14.055
54956W        W20216  17.908   5.125  13.591
54957W        W20217  27.335   8.707  11.576
54958W        W20218  15.529  32.460  13.819
54959W        W20219   9.365  35.601  10.321
54960W        W20220  21.208  25.243   4.494
54961W        W20221  24.153   8.646  12.800
54962W        W20222  42.305   2.653   5.104
54963W        W20223  32.064   3.183  12.993
54964W        W20224  34.164  39.465   3.771
54965W        W20225  35.528  20.523   3.189
54966W        W20226   8.455  29.147  11.677
54967W        W20227  24.016  22.147  13.010
54968W        W20228  16.261  44.599  12.776
54969W        W20229   4.465  33.145  14.384
54970W        W20230  20.574  35.898   4.039
54971W        W20231  17.575  19.650   1.350
54972W        W20232   0.551   8.342  12.110
54973W        W20233  11.700   3.607  11.901
54974W        W20234  37.743   5.362  14.377
54975W        W20235  22.065  12.773   2.737
54976W        W20236   8.007  38.506  14.587
54977W        W20237  38.460  19.038  13.533
54978W        W20238  27.538  39.589   1.372
54979W        W20239  10.055  42.729   3.257
54980W        W20240  25.799   4.389   9.788
54981W        W20241  40.936   4.938   3.469
54982W        W20242  24.428  17.575   1.953
54983W        W20243  27.760  33.428   2.208
54984W        W20244  12.166   2.799  13.780
54985W        W20245  23.044  15.829  12.936
54986W        W20246  41.132  15.932  12.937
54987W        W20247  11.159  20.635  11.719
54988W        W20248  27.567  18.361  13.029
54989W        W20249  11.228  23.568  12.354
54990W        W20250  32.909  21.697   1.394
54991W        W20251  20.844  19.595   2.444
54992W        W20252  28.197   3.729   3.373
54993W        W20253  44.725  31.066   4.633
54994W        W20254  28.019  32.625  10.762
54995W        W20255  34.024  15.729  10.630
54996W        W20256  22.771   6.244   2.780
54997W        W20257   9.421  40.768  10.768
54998W        W20258  29.142   1.999  13.363
54999W        W20259   2.468  36.657  12.043
55000W        W20260  13.572  41.396  14.819
55001W        W20261   8.692  44.005  10.396
55002W        W20262  33.175   6.934  11.097
55003W        W20263  14.827  18.808  14.460
55004W        W20264  39.828  21.575   3.593
55005W        W20265   3.243   2.224   4.559
55006W        W20266  18.906  24.573   1.436
55007W        W20267  27.754  39.081  11.273
55008W        W20268  24.237   1.758   0.152
55009W        W20269   4.461   2.282  14.882
55010W        W20270  36.844  33.814  14.397
55011W        W20271  34.757  38.423   0.349
55012W        W20272  42.726  10.832  14.206
55013W        W20273  33.465  44.976  12.359
55014W        W20274  22.634  22.244  10.812
55015W        W20275  27.098   7.098   2.303
55016W        W20276  17.584  18.086   1.949
55017W        W20277  36.295  19.965  12.039
55018W        W20278  25.541  21.499   2.510
55019W        W20279  33.092  18.087  14.457
55020W        W20280  33.932   5.149   0.014
55021W        W20281  39.923  34.603  14.354
55022W        W20282  18.491  16.520   1.237
55023W        W20283  13.032  30.361   1.657
55024W        W20284  25.032  26.559   0.872
55025W        W20285   6.856   6.394   2.457
55026W        W20286  20.121   0.185  11.600
55027W        W20287  32.034  35.004   2.634
55028W        W20288  21.749  30.207  12.431
55029W        W20289  39.988   7.936   3.240
55030W        W20290  25.737  41.498   1.828
55031W        W20291  27.115   6.796  14.216
55032W        W20292   4.304   5.902  11.506
55033W        W20293   5.275  33.940  13.988
55034W        W20294  40.710  36.775  12.898
55035W        W20295  42.659  15.781   3.695
55036W        W20296  33.555  26.790   3.098
55037W        W20297   7.600  41.116   0.749
55038W        W20298  18.797  14.757  13.523
55039W        W20299  21.756  19.833   1.361
55040W        W20300   5.299  37.393  14.878
55041W        W20301  19.311   5.995  11.335
55042W        W20302  15.158   4.208  11.557
55043W        W20303  41.397  27.438   0.051
55044W        W20304  32.896   4.331  12.947
55045W        W20305  18.739  10.276   2.272
55046W        W20306   4.667  37.007   2.437
55047W        W20307  24.605  33.751  11.544
55048W        W20308  15.713   6.975   2.686
55049W        W20309   6.463  12.885   2.350
55050W        W20310  26.529   8.159   1.870
55051W        W20311  30.193  20.255   2.217
55052W        W20312  33.880  39.931   3.653
55053W        W20313  20.428  17.150  13.083
55054W        W20314  31.847   0.808  13.390
55055W        W20315  32.759  12.741  13.448
55056W        W20316  31.461  31.490  11.484
55057W        W20317  14.775   8.061  10.274
55058W        W20318   7.366   9.275  14.928
55059W        W20319  23.850   6.535   4.943
55060W        W20320   7.990  22.611   1.810
55061W        W20321  33.131  25.086   0.963
55062W        W20322  19.986  25.956   2.802
55063W        W20323  16.327  30.082  13.094
55064W        W20324  28.515  36.441  13.902
55065W        W20325  41.226  44.542   1.563
55066W        W20326  20.341  25.099   3.642
55067W        W20327  12.202  28.058   3.972
55068W        W20328  20.667  18.049  11.969
55069W        W20329   6.619  32.482   4.597
55070W        W20330  42.253  10.913  14.019
55071W        W20331  20.562  37.029   1.022
55072W        W20332  35.388  32.715   1.931
55073W        W20333  11.036   0.318  11.998
55074W        W20334   8.872   1.697   2.759
55075W        W20335  40.296  14.865  12.917
55076W        W20336  41.273  39.571  14.482
55077W        W20337  25.301  30.057   2.395
55078W        W20338  40.029  24.690   1.309
55079W        W20339  26.240  15.638  12.616
55080W        W20340  35.600  44.287  14.869
55081W        W20341  37.897  21.428  14.727
55082W        W20342   6.285  23.133  10.924
55083W        W20343  40.624  41.529   0.930
55084W        W20344   9.903  31.943   5.309
55085W        W20345  25.944  35.513   1.751
55086W        W20346  23.182  33.908  14.756
55087W        W20347   2.013   9.232   4.890
55088W        W20348   7.341  25.669  10.992
55089W        W20349   9.262  24.073   0.664
55090W        W20350  25.949  29.603   2.827
55091W        W20351  19.496  10.381  12.636
55092W        W20352   7.665  41.782  14.136
55093W        W20353  35.009  39.906  11.253
55094W        W20354  33.465   8.874   3.342
55095W        W20355  12.107  32.013   4.014
55096W        W20356  15.748   1.751  14.584
55097W        W20357  37.425  24.722   1.210
55098W        W20358  13.160  43.427   0.860
55099W        W20359  12.329  44.402  13.934
55100W        W20360  43.217  34.913   4.190
55101W        W20361  43.685  10.508  12.914
55102W        W20362  30.110  44.003   3.215
55103W        W20363  10.757  35.224  12.900
55104W        W20364  38.613  41.264  14.740
55105W        W20365  34.190  40.942   3.619
55106W        W20366  23.015  34.625   3.764
55107W        W20367  19.708  27.086  13.438
55108W        W20368  27.498   2.764   3.158
55109W        W20369   4.140   3.879  13.883
55110W        W20370   2.004  27.208   9.807
55111W        W20371  35.156  26.518  12.053
55112W        W20372  26.731  37.187  12.820
55113W        W20373  15.550  12.033   3.028
55114W        W20374  32.904  39.702   3.361
55115W        W20375  26.018  26.589   3.374
55116W        W20376  26.866  32.133  10.819
55117W        W20377  25.615  13.778  12.506
55118W        W20378  12.768   0.170   4.723
55119W        W20379  31.785  27.492  14.835
55120W        W20380   6.735  33.783   1.428
55121W        W20381  30.618  28.256  14.536
55122W        W20382  41.739  18.109  11.021
55123W        W20383   5.845   5.337  12.399
55124W        W20384   8.262  14.893   3.133
55125W        W20385  31.839  32.888  11.612
55126W        W20386  25.913  31.363   2.589
55127W        W20387  17.692  20.062  12.135
55128W        W20388   6.222  35.472  10.628
55129W        W20389   9.198  11.764   1.189
55130W        W20390  10.281  14.907  11.648
55131W        W20391  16.357  31.490  13.727
55132W        W20392  14.574  40.140   3.613
55133W        W20393  42.698  13.232   1.017
55134W        W20394  21.341  30.607  10.675
55135W        W20395  37.481  27.647  11.597
55136W        W20396  25.571  32.212  11.121
55137W        W20397  37.847  39.530   4.605
55138W        W20398  12.507  37.206  14.783
55139W        W20399  19.307  29.336  11.142
55140W        W20400   1.899   8.674  12.785
55141W        W20401  37.188  38.784  14.109
55142W        W20402  31.100  22.829  14.571
55143W        W20403  23.480  25.490   1.672
55144W        W20404  19.049   4.262  13.352
55145W        W20405   5.480  38.864   3.582
55146W        W20406   6.744  21.502  11.626
55147W        W20407   7.740  15.853   3.819
55148W        W20408  26.917  13.948  11.531
55149W        W20409  36.559  28.529   2.541
55150W        W20410  43.458  33.553   1.920
55151W        W20411  22.988  24.407  11.633
55152W        W20412  27.222  22.147  13.228
55153W        W20413   9.604  41.321  14.837
55154W        W20414  35.355  15.175  14.454
55155W        W20415  21.596  31.225   3.167
55156W        W20416  43.316  10.367   2.649
55157W        W20417   8.588  32.017   1.787
55158W        W20418  37.744  25.230   0.171
55159W        W20419  13.191   6.406   0.487
55160W        W20420  35.511   9.594  12.992
55161W        W20421  13.031  37.522   4.102
55162W        W20422   9.831  16.976  12.903
55163W        W20423  32.951  15.524  11.953
55164W        W20424  20.456  17.490   4.991
55165W        W20425  36.810  17.817  14.893
55166W        W20426   5.765  28.467   2.202
55167W        W20427   5.905  18.318   4.468
55168W        W20428  14.332  18.646   0.409
55169W        W20429  13.683  15.088   0.047
55170W        W20430  14.693  26.528  14.823
55171W        W20431  30.717   5.761   2.140
55172W        W20432  44.878  27.473   0.223
55173W        W20433  32.240  13.623   0.419
55174W        W20434  31.139  13.108  11.016
55175W        W20435   8.722  22.565   4.087
55176W        W20436  40.410  33.961   3.381
55177W        W20437   5.266  24.211  12.422
55178W        W20438  40.397  27.666   1.323
55179W        W20439  35.719  10.921   2.638
55180W        W20440   3.231  20.244  10.643
55181W        W20441  25.216  43.336  11.572
55182W        W20442  25.671   2.696   2.795
55183W        W20443  19.657  44.161   4.985
55184W        W20444  14.198  39.102   0.079
55185W        W20445  10.625  13.725   1.238
55186W        W20446   3.246  18.194   0.959
55187W        W20447   2.904   7.863  10.627
55188W        W20448  21.948  22.180  11.155
55189W        W20449   1.033  21.957   0.125
55190W        W20450  25.133  18.272  10.864
55191W        W20451  39.856   7.638   4.729
55192W        W20452  15.743  17.008   4.070
55193W        W20453  44.738  26.099   1.094
55194W        W20454  18.665  12.955   2.830
55195W        W20455  34.339   1.315   0.325
55196W        W20456  36.419   5.734  13.553
55197W        W20457  12.371  28.973  14.922
55198W        W20458  33.530   6.392  14.715
55199W        W20459  11.755  37.858  11.680
55200W        W20460  19.562  14.275   2.233
55201W        W20461  37.842  31.427   0.896
55202W        W20462  42.302  31.862   0.352
55203W        W20463  12.880  21.175  12.135
55204W        W20464   3.621  19.010   0.891
55205W        W20465  27.641  26.871   4.131
55206W        W20466   5.789  37.552  11.043
55207W        W20467  41.751   5.854   3.143
55208W        W20468  16.854  23.526   2.320
55209W        W20469  18.660   1.340   4.428
55210W        W20470   5.241  28.186   1.294
55211W        W20471  35.245  32.817  14.112
55212W        W20472  38.754   1.371   2.738
55213W        W20473  15.785   0.271  13.863
55214W        W20474  29.488   9.418  14.009
55215W        W20475  34.925   0.288   1.742
55216W        W20476   6.469  11.465   1.716
55217W        W20477   1.287  44.915   3.145
55218W        W20478  25.437  15.401  13.998
55219W        W20479   2.260  39.919  13.617
55220W        W20480  40.634  15.806  13.006
55221W        W20481  19.922  30.932   2.714
55222W        W20482  30.716  29.181   1.292
55223W        W20483   1.193  18.320  12.097
55224W        W20484  18.884   4.883  14.988
55225W        W20485   6.308  16.238   1.392
55226W        W20486  34.583  24.659  14.889
55227W        W20487  43.515   5.814  14.771
55228W        W20488   1.547  44.326   0.818
55229W        W20489  10.487  27.215   1.917
55230W        W20490  31.114   0.830   2.712
55231W        W20491  43.457   3.657  11.576
55232W        W20492  29.475   8.309  11.094
55233W        W20493  34.686  29.197   1.323
55234W        W20494  39.543  36.600   3.834
55235W        W20495  32.004  33.566   0.964
55236W        W20496  22.273   6.089  10.286
55237W        W20497   7.904  18.245   2.004
55238W        W20498  37.622   0.121  12.078
55239W        W20499  37.485  19.205  13.604
55240W        W20500  10.223  37.021   2.825
55241W        W20501  14.441  14.156  12.119
55242W        W20502  33.606  34.380  12.627
55243W        W20503  22.178  23.464   0.774
55244W        W20504  17.171  41.283   4.113
55245W        W20505  20.503   1.883  14.958
55246W        W20506  25.775  22.664   3.222
55247W        W20507  10.402  20.237  14.372
55248W        W20508   4.848  32.202   4.457
55249W        W20509   1.972  31.768  10.739
55250W        W20510  16.767   1.943  14.757
55251W        W20511  25.007   3.732  14.815
55252W        W20512   8.469   2.128  11.771
55253W        W20513   5.408  26.212   0.372
55254W        W20514  13.045  43.383  11.090
55255W        W20515  42.929  36.824  10.680
55256W        W20516   9.318   4.732   1.253
55257W        W20517  41.501   0.303   2.694
55258W        W20518  10.359  39.581   0.424
55259W        W20519   2.699  41.289  12.820
55260W        W20520  39.460   6.162   4.771
55261W        W20521  29.034  12.765  10.936
55262W        W20522  20.318  18.122  11.207
55263W        W20523   3.889  25.719  13.296
55264W        W20524  25.253  41.345   1.747
55265W        W20525  23.057  31.836   2.802
55266W        W20526  37.561  30.433  14.736
55267W        W20527   7.210  44.700   0.360
55268W        W20528  14.694  11.599   1.555
55269W        W20529  24.465  44.348   2.251
55270W        W20530  29.453  15.534   4.203
55271W        W20531  18.525  22.802   3.786
55272W        W20532  24.015  27.659   3.291
55273W        W20533  27.046  42.889   2.859
55274W        W20534   4.435  43.498   2.696
55275W        W20535  43.672  15.345   1.661
55276W        W20536  27.645   2.951  12.223
55277W        W20537   3.855   1.672  14.384
55278W        W20538  22.111  13.151  10.924
55279W        W20539  33.028  44.901   1.536
55280W        W20540   2.716  10.256   4.509
55281W        W20541  16.784  16.309  13.588
55282W        W20542  29.678  38.880  14.065
55283W        W20543  39.705   8.825  12.529
55284W        W20544  41.181  10.086  11.451
55285W        W20545  24.165   1.091   0.231
55286W        W20546  14.224  13.964   1.737
55287W        W20547   3.931  19.545   9.990
55288W        W20548  19.887   7.229  11.561
55289W        W20549  35.309  41.400   1.673
55290W        W20550  35.133  16.263  14.744
55291W        W20551  19.962   4.219   3.809
55292W        W20552  32.239  37.006   0.452
55293W        W20553  27.234  29.682   1.007
55294W        W20554  23.186  14.043   3.107
55295W        W20555   2.878  35.405  14.224
55296W        W20556  31.522  17.641   4.223
55297W        W20557   7.241   3.483  14.100
55298W        W20558  34.293  37.533   5.029
55299W        W20559  15.747  38.291  14.284
55300W        W20560   0.819  33.791  11.145
55301W        W20561  17.714   3.311  10.961
55302W        W20562  38.438  11.056  13.322
55303W        W20563  15.106  19.216  11.830
55304W        W20564   6.011  30.197  13.012
55305W        W20565  17.182  24.101   0.002
55306W        W20566  12.840  21.654   0.581
55307W        W20567  12.736  22.791  10.780
55308W        W20568   1.887  23.234   2.873
55309W        W20569   7.205  33.642  14.933
55310W        W20570  18.819   8.918   2.155
55311W        W20571  40.853  42.910   0.877
55312W        W20572  35.452  23.576   0.262
55313W        W20573   1.860  44.257   1.890
55314W        W20574   4.777  32.800   5.087
55315W        W20575  18.727  25.503  12.629
55316W        W20576   0.994  16.248  10.648
55317W        W20577  28.711   0.373  10.753
55318W        W20578  28.936  23.031  13.266
55319W        W20579  23.552  35.077  11.354
55320W        W20580  30.496  28.592   0.635
55321W        W20581  19.848  18.693  14.309
55322W        W20582  12.735  10.117   2.317
55323W        W20583  16.690  13.454  12.365
55324W        W20584   2.434  17.694  14.533
55325W        W20585  32.791  40.874   1.417
55326W        W20586  23.702  34.088  14.916
55327W        W20587  44.940  15.830   3.788
55328W        W20588  33.969   1.541  11.052
55329W        W20589  22.042  13.071  11.411
55330W        W20590  29.947   4.978  14.869
55331W        W20591  19.686  29.688   3.822
55332W        W20592  36.494  29.429  11.589
55333W        W20593   7.484  19.235   0.864
55334W        W20594  12.380  31.342  12.410
55335W        W20595  32.956  36.868  11.149
55336W        W20596  27.546   5.715   2.703
55337W        W20597  23.391   0.277   2.300
55338W        W20598  36.483  24.427  10.995
55339W        W20599  23.030  38.059  12.659
55340W        W20600  21.478   6.433   0.355
55341W        W20601   7.868  16.900  11.972
55342W        W20602  13.873   7.491  14.533
55343W        W20603  31.383  39.693   4.224
55344W        W20604  34.380  22.290   3.372
55345W        W20605  22.650  34.868  10.508
55346W        W20606  15.164  36.405   3.710
55347W        W20607  41.851   9.715  14.901
55348W        W20608  27.012   0.970   0.129
55349W        W20609  19.828  20.944   2.025
55350W        W20610  17.541  36.957  11.189
55351W        W20611  22.224  12.821  13.614
55352W        W20612  19.707  31.846   0.654
55353W        W20613   5.318  32.628  14.299
55354W        W20614  18.543  14.302   5.150
55355W        W20615  19.786  31.625  12.942
55356W        W20616  43.433  43.614  10.668
55357W        W20617  30.682  42.269  11.125
55358W        W20618  35.354   0.768  13.576
55359W        W20619  44.561  32.161  11.148
55360W        W20620  40.508  22.623  11.218
55361W        W20621  17.297  25.110   1.935
55362W        W20622  25.925  37.498   0.020
55363W        W20623  13.410   1.981  12.042
55364W        W20624  43.484  25.115   4.117
55365W        W20625   6.426   0.222  10.010
55366W        W20626  40.871  17.095   3.870
55367W        W20627  11.599   2.215   2.856
55368W        W20628  11.847  35.861   0.601
55369W        W20629   4.115  24.156  14.830
55370W        W20630  43.998   6.276  11.108
55371W        W20631  36.442  32.817  10.769
55372W        W20632   9.693   4.504   4.862
55373W        W20633   9.668  20.466  12.844
55374W        W20634  29.875  34.529  11.084
55375W        W20635   8.615  16.674   2.566
55376W        W20636  31.897   4.045   2.653
55377W        W20637  13.372  32.196  11.451
55378W        W20638  14.819  26.709   0.285
55379W        W20639  21.778  20.408   2.050
55380W        W20640  33.620  39.379   2.885
55381W        W20641  26.972  17.194  12.802
55382W        W20642  34.158  36.791   4.631
55383W        W20643   8.405  38.009   3.187
55384W        W20644  19.403  25.018   2.255
55385W        W20645  27.677  26.560  14.293
55386W        W20646   9.410  12.402  10.717
55387W        W20647  23.599  12.651   1.705
55388W        W20648   1.315   7.655  11.133
55389W        W20649  43.571  39.319  13.542
55390W        W20650  17.741  20.896   1.713
55391W        W20651   6.240  35.209  11.059
55392W        W20652  38.834  42.241   1.388
55393W        W20653   4.418  27.002   3.679
55394W        W20654  31.890  29.887  13.373
55395W        W20655  44.959  21.857  12.638
55396W        W20656  19.263  11.748   4.265
55397W        W20657  25.971   8.921  13.917
55398W        W20658  38.617   8.491  14.988
55399W        W20659  23.692  19.079   1.197
55400W        W20660   9.603   9.594  12.986
55401W        W20661   7.362  10.671   4.904
55402W        W20662  24.989   0.443   4.030
55403W        W20663   1.878   9.118   1.378
55404W        W20664  31.905  31.182   4.038
55405W        W20665  29.455  27.599  14.068
55406W        W20666  41.532  25.594   2.835
55407W        W20667   6.323   8.081   4.050
55408W        W20668  23.213  22.974  14.807
55409W        W20669  24.989  15.300  13.426
55410W        W20670   1.299   0.513  11.651
55411W        W20671  20.768  18.857  11.386
55412W        W20672   4.995  38.942   2.668
55413W        W20673  33.667  37.506  11.392
55414W        W20674  30.948  11.951   4.187
55415W        W20675  22.773  12.784   3.548
55416W        W20676  19.148  30.610   3.845
55417W        W20677  35.138  21.030   0.997
55418W        W20678  26.502  44.771  13.807
55419W        W20679  37.642  42.576   0.487
55420W        W20680  41.974   5.287  12.810
55421W        W20681  14.624  29.369  11.034
55422W        W20682  35.731  31.128   2.842
55423W        W20683  40.280   2.828  13.540
55424W        W20684  14.703  34.452  13.986
55425W        W20685  15.756  28.832   1.805
55426W        W20686  10.807  17.816  11.592
55427W        W20687  10.547   8.376  10.535
55428W        W20688  29.810  33.891   4.321
55429W        W20689  43.371   2.729   3.766
55430W        W20690   9.767  30.400  14.967
55431W        W20691   9.334  16.829  12.959
55432W        W20692  27.928  34.102   2.189
55433W        W20693  36.179  33.736  13.902
55434W        W20694  25.821  19.155   1.867
55435W        W20695  13.763  23.255   3.729
55436W        W20696  38.949  10.670  12.024
55437W        W20697   9.880  30.967   9.899
55438W        W20698  29.860  38.023   2.886
55439W        W20699  40.240  22.016   4.790
55440W        W20700  19.387  10.172  11.762
55441W        W20701  40.784  28.363  14.274
55442W        W20702  34.458   3.343   3.871
55443W        W20703  37.001  17.183   2.675
55444W        W20704  13.403  18.581   0.418
55445W        W20705   0.843  12.319   2.347
55446W        W20706   3.484   2.739   2.086
55447W        W20707  30.147  26.483  12.113
55448W        W20708  25.634  16.896   2.379
55449W        W20709  26.914  19.410   1.478
55450W        W20710  20.664  28.943  14.580
55451W        W20711  10.853  30.945  11.914
55452W        W20712  35.078  29.433   2.654
55453W        W20713  38.109  27.414   4.213
55454W        W20714  20.612  16.167  14.542
55455W        W20715  40.010   1.873  10.684
55456W        W20716  40.320  27.565  12.382
55457W        W20717   1.872  17.311   2.095
55458W        W20718  14.895   6.421  14.996
55459W        W20719  11.853  38.895   1.392
55460W        W20720  30.156  14.558   2.769
55461W        W20721  42.900  31.875  13.400
55462W        W20722  43.553   7.924  10.776
55463W        W20723  11.817  17.219  13.382
55464W        W20724  17.722  30.156   1.253
55465W        W20725  18.299  14.231   2.889
55466W        W20726   1.343   3.340  11.997
55467W        W20727  25.479  28.410  13.891
55468W        W20728   8.145  34.609   2.755
55469W        W20729  31.805  29.241  14.392
55470W        W20730   6.385  20.492   1.139
55471W        W20731  35.921  24.889   9.767
55472W        W20732  26.492  22.202  13.961
55473W        W20733   3.231  20.535  12.442
55474W        W20734  11.674   1.948   4.658
55475W        W20735  22.650  42.054   3.550
55476W        W20736  35.417   4.001   3.214
55477W        W20737  33.888   8.772  14.864
55478W        W20738  36.516   0.767  12.878
55479W        W20739  41.971  37.134   2.142
55480W        W20740   6.790  14.637   1.890
55481W        W20741  32.380   7.906  12.288
55482W        W20742  16.522   9.711  10.457
55483W        W20743  31.651  22.570   2.774
55484W        W20744  22.627  13.591  14.974
55485W        W20745  15.388  21.980  14.320
55486W        W20746  42.292  26.407  12.068
55487W        W20747  38.503  32.627  12.313
55488W        W20748  25.207  42.065  13.836
55489W        W20749  17.181   9.960   0.030
55490W        W20750  39.974  17.164   4.943
55491W        W20751  19.150  12.155   2.613
55492W        W20752  37.059  30.430   4.025
55493W        W20753  31.764  18.786  11.579
55494W        W20754   9.819  13.306   0.604
55495W        W20755  37.475  30.531  13.228
55496W        W20756   0.054  34.076  12.541
55497W        W20757  15.578   6.463  12.140
55498W        W20758  33.301  21.712  13.438
55499W        W20759  23.178  42.643   4.808
55500W        W20760  18.035  39.441  11.240
55501W        W20761  44.369   1.496  10.860
55502W        W20762  44.199  22.100   4.561
55503W        W20763   5.345  18.473   3.543
55504W        W20764  11.408  16.298   2.349
55505W        W20765  27.030  23.436  12.191
55506W        W20766  11.368  15.296  11.034
55507W        W20767  26.759  19.617   3.397
55508W        W20768  24.066  39.401   0.216
55509W        W20769  29.055  35.587   1.902
55510W        W20770  30.086  25.625  11.783
55511W        W20771  14.745   3.270  10.634
55512W        W20772  24.737  20.603   4.581
55513W        W20773  23.214   4.253  13.816
55514W        W20774   3.504  25.694   1.730
55515W        W20775  33.666  39.855   3.166
55516W        W20776  21.336  10.824  12.365
55517W        W20777  20.777   9.927  12.681
55518W        W20778   0.925  21.709  11.169
55519W        W20779  32.852  43.408   0.695
55520W        W20780  41.823  41.978   4.673
55521W        W20781  16.289  22.034  14.625
55522W        W20782  44.973   7.127  12.476
55523W        W20783  11.917  15.290   0.256
55524W        W20784   7.325  18.547  14.186
55525W        W20785  40.321  16.154  10.620
55526W        W20786  20.223  26.678  12.234
55527W        W20787  18.567   9.629  13.889
55528W        W20788  33.801   4.481  10.967
55529W        W20789  44.682   1.875  13.859
55530W        W20790  40.640  26.503  12.377
55531W        W20791   2.862   1.370  12.793
55532W        W20792  32.044  29.069   1.353
55533W        W20793   4.958  18.712   3.193
55534W        W20794  10.541  29.022   0.436
55535W        W20795  39.944   4.403   2.808
55536W        W20796  36.099  44.178   4.538
55537W        W20797  32.437   6.879  13.397
55538W        W20798  12.966   7.180  12.067
55539W        W20799  26.961   6.138   4.484
55540W        W20800  16.436  42.986  12.062
55541W        W20801  12.110  11.633   1.721
55542W        W20802  12.597  21.020   3.054
55543W        W20803  26.022  26.355  10.721
55544W        W20804  16.819  25.891   0.314
55545W        W20805   9.753   1.298   1.748
55546W        W20806  16.455   2.469   4.188
55547W        W20807   0.978  34.814  13.575
55548W        W20808  23.316  23.239   0.261
55549W        W20809   6.354  43.322  11.094
55550W        W20810  33.553  44.363   2.277
55551W        W20811  38.822   2.036   0.069
55552W        W20812  28.045  16.188   2.097
55553W        W20813  36.696  14.780  13.453
55554W        W20814  30.235  25.377   0.447
55555W        W20815  19.174   3.763  11.631
55556W        W20816  10.654   7.481   0.397
55557W        W20817   2.951   5.210   3.893
55558W        W20818  32.251  20.331   2.332
55559W        W20819   6.907   1.383  10.394
55560W        W20820  37.318  27.058  13.582
55561W        W20821  38.293  33.026   3.632
55562W        W20822  16.563  44.270   4.075
55563W        W20823  43.775  22.900   3.691
55564W        W20824  35.122   2.736  14.838
55565W        W20825  40.830  15.012  12.822
55566W        W20826   7.829  41.343   1.206
55567W        W20827  25.030  10.214   4.499
55568W        W20828  33.012  13.659   1.188
55569W        W20829  23.558  16.590  12.301
55570W        W20830   5.688   4.678  11.613
55571W        W20831   5.744  13.682   4.668
55572W        W20832  25.258   2.264  12.223
55573W        W20833   0.638  41.814   2.158
55574W        W20834  34.655  39.929   0.680
55575W        W20835  27.212   2.276   4.462
55576W        W20836  40.322   3.985  12.445
55577W        W20837  18.461   5.434  11.039
55578W        W20838  34.285  37.013  12.435
55579W        W20839  30.798  27.901   1.408
55580W        W20840  17.313  23.616   3.646
55581W        W20841  17.965   8.250  12.881
55582W        W20842   7.722   4.012   2.813
55583W        W20843   2.659  20.774  14.386
55584W        W20844  40.307   4.449  14.763
55585W        W20845  13.366  30.447   0.336
55586W        W20846  23.874   2.462   1.860
55587W        W20847   8.941  38.577   1.658
55588W        W20848  36.027  24.954  12.441
55589W        W20849  23.332  22.744   4.204
55590W        W20850  40.486  23.164   2.746
55591W        W20851  30.723   1.170   1.182
55592W        W20852  17.867  31.526   0.083
55593W        W20853   8.155  27.484   2.809
55594W        W20854  27.965  25.680   2.287
55595W        W20855  29.705  17.687   4.229
55596W        W20856  13.433  32.620   3.271
55597W        W20857  28.963  19.307  10.703
55598W        W20858   4.271  36.867   4.174
55599W        W20859  27.712  39.688  10.627
55600W        W20860  30.149  18.727   4.623
55601W        W20861  34.882  15.086  11.583
55602W        W20862  15.656  33.635   1.754
55603W        W20863  11.752  15.939  11.917
55604W        W20864  12.130  44.947  12.249
55605W        W20865  26.940   6.294  14.299
55606W        W20866  18.280  38.494   0.923
55607W        W20867  40.844  21.154   1.750
55608W        W20868  32.530   7.692   1.009
55609W        W20869  40.255  37.905   5.076
55610W        W20870  13.563  11.757  11.136
55611W        W20871  34.017  17.651   2.582
55612W        W20872  24.722  12.269  13.835
55613W        W20873  10.444  37.368  12.830
55614W        W20874  30.060  44.840   0.529
55615W        W20875   6.416  17.183   2.333
55616W        W20876   9.306  31.674   4.542
55617W        W20877   1.428  27.482   2.792
55618W        W20878  25.141  35.097   3.380
55619W        W20879   5.640  19.944   0.254
55620W        W20880  22.226  21.970  11.527
55621W        W20881  44.318  30.679  11.567
55622W        W20882  34.117  43.936   3.152
55623W        W20883  32.481  11.276   3.374
55624W        W20884  33.134   4.368  13.950
55625W        W20885  40.077  22.234   3.374
55626W        W20886  43.217  10.339   0.349
55627W        W20887  36.092   8.103   2.586
55628W        W20888  11.885  31.185   0.999
55629W        W20889   0.975  22.165   2.170
55630W        W20890  33.980  37.203  11.651
55631W        W20891  23.457  24.689  13.401
55632W        W20892  38.024  38.429   0.817
55633W        W20893   9.280  37.184   0.206
55634W        W20894  24.280  25.989  13.357
55635W        W20895  29.105   6.905   0.336
55636W        W20896  34.307  31.582  12.924
55637W        W20897  40.736  19.136  14.332
55638W        W20898  12.852  22.086  10.724
55639W        W20899  21.547  18.586   0.436
55640W        W20900  20.767  27.065   4.248
55641W        W20901  37.468   1.943   2.286
55642W        W20902   1.174  26.542  13.470
55643W        W20903   3.989   4.377   3.693
55644W        W20904   9.442  35.832   0.306
55645W        W20905   8.133  38.544   4.480
55646W        W20906  38.429   8.375   0.546
55647W        W20907  21.576  44.881  13.609
55648W        W20908  43.373  18.225   0.418
55649W        W20909  23.735   9.666   3.937
55650W        W20910  25.013  12.702  13.572
55651W        W20911  38.881  39.784  12.876
55652W        W20912  16.791   1.135   0.187
55653W        W20913  26.198   1.183   0.032
55654W        W20914  11.310  37.790  13.374
55655W        W20915  39.758  15.031   0.661
55656W        W20916   4.174   6.152   1.165
55657W        W20917  43.833  43.489   3.126
55658W        W20918  15.683   6.911   3.863
55659W        W20919   6.495  29.648  11.038
55660W        W20920  16.350  31.031   1.836
55661W        W20921   9.353  40.573   4.105
55662W        W20922  28.571  37.916   4.497
55663W        W20923  39.774  25.110  11.636
55664W        W20924  12.046  13.686  10.274
55665W        W20925  18.563  24.988   0.336
55666W        W20926  27.978  25.356  13.329
55667W        W20927  10.452  19.226   0.428
55668W        W20928  12.663  23.561   4.029
55669W        W20929  10.982  18.195   1.186
55670W        W20930  38.473  16.904   1.264
55671W        W20931   1.479   1.743   3.563
55672W        W20932   6.408  33.199  14.504
55673W        W20933  40.017   1.960   0.145
55674W        W20934  24.711  17.793   2.958
55675W        W20935   3.535  30.467   2.593
55676W        W20936   9.719  30.992  11.528
55677W        W20937  26.391  17.112  13.634
55678W        W20938  18.875  13.304  14.300
55679W        W20939   5.874  26.225  13.061
55680W        W20940  19.146  28.024  12.448
55681W        W20941  41.171   3.815   3.725
55682W        W20942  32.443  16.708  14.749
55683W        W20943  23.077  20.106  11.124
55684W        W20944  39.883  23.967   0.349
55685W        W20945  42.986  13.696  13.393
55686W        W20946  23.026  37.590  11.640
55687W        W20947  42.031  44.968   4.672
55688W        W20948  34.850  28.179  12.940
55689W        W20949  34.917  39.419   0.357
55690W        W20950  33.650  11.936   2.286
55691W        W20951  21.700  25.671   2.341
55692W        W20952  27.744  24.063   4.124
55693W        W20953  33.909  38.808  10.711
55694W        W20954  29.999  20.395   0.441
55695W        W20955   2.779  42.997   0.843
55696W        W20956  35.610  24.227   4.234
55697W        W20957  19.665  28.188   1.735
55698W        W20958   3.502  41.727   4.988
55699W        W20959  20.823  41.846   0.584
55700W        W20960  44.641  16.762   4.956
55701W        W20961  42.466  14.766   2.909
55702W        W20962   0.336  11.547   1.353
55703W        W20963   2.918  39.392   3.097
55704W        W20964   6.422  33.713  14.503
55705W        W20965  10.467   7.139  12.967
55706W        W20966  10.719  35.571  13.477
55707W        W20967  21.172  33.639   4.131
55708W        W20968   8.780  31.832  13.970
55709W        W20969  23.668   5.019   4.046
55710W        W20970  36.537  43.896   0.448
55711W        W20971  40.951  14.222   0.504
55712W        W20972  18.578  33.992   2.299
55713W        W20973  40.941  11.739   0.039
55714W        W20974   9.907  41.576  11.920
55715W        W20975  41.766  43.544   3.118
55716W        W20976  29.629  23.767  12.508
55717W        W20977  33.123  20.751   2.486
55718W        W20978  41.788  29.611   2.342
55719W        W20979  13.324  29.839  14.780
55720W        W20980  23.454  30.925   4.203
55721W        W20981   6.227  43.691  12.300
55722W        W20982  27.028   9.189  11.181
55723W        W20983  37.990  11.506   0.380
55724W        W20984  23.083  21.321  14.744
55725W        W20985   5.666  30.419   4.045
55726W        W20986   4.354  28.014   4.033
55727W        W20987  40.295  34.990   1.898
55728W        W20988  37.990  25.594  13.446
55729W        W20989  37.899  36.384   1.830
55730W        W20990   5.898   9.971  13.496
55731W        W20991  39.375   6.651  14.727
55732W        W20992  14.159  19.616  10.586
55733W        W20993   5.939   6.367  11.159
55734W        W20994  24.743  41.930  13.251
55735W        W20995  13.727  27.913   3.309
55736W        W20996  40.319  11.855   4.785
55737W        W20997  20.675   4.999  12.611
55738W        W20998  17.595  39.025  13.714
55739W        W20999  42.311  19.775   0.755
55740W        W21000   7.733  23.533   1.521
55741W        W21001   4.867  29.887   2.187
55742W        W21002  14.930  14.208  11.945
55743W        W21003  27.450  24.004   4.536
55744W        W21004  27.258  37.738  11.109
55745W        W21005  36.500  39.952  14.445
55746W        W21006  10.595  18.141  11.962
55747W        W21007  17.789   9.913   3.874
55748W        W21008  19.461  23.155   4.976
55749W        W21009  17.528  35.079   0.422
55750W        W21010  36.776  36.589   4.179
55751W        W21011  33.451  35.902   0.539
55752W        W21012  23.215  36.468   2.341
55753W        W21013  19.841  17.517   1.848
55754W        W21014  10.782  12.292  14.906
55755W        W21015   6.429  23.228   0.391
55756W        W21016   6.874  37.247  12.971
55757W        W21017  13.247  33.364  10.696
55758W        W21018  30.841   4.300   0.028
55759W        W21019  14.503  41.921  14.124
55760W        W21020   5.341   5.772  12.835
55761W        W21021  21.235  17.753  14.740
55762W        W21022  44.365  24.686   0.455
55763W        W21023  17.987  39.526  14.947
55764W        W21024  44.611  12.852  14.814
55765W        W21025  24.792  20.052   3.174
55766W        W21026   3.076  36.068   0.268
55767W        W21027  33.113  10.268  11.158
55768W        W21028  31.745  36.824   0.473
55769W        W21029  34.406   4.165  12.119
55770W        W21030   5.173  38.581  14.443
55771W        W21031   0.592  36.457  11.476
55772W        W21032  39.016  31.191  11.575
55773W        W21033   6.549  40.792   5.069
55774W        W21034   4.956   6.433  13.388
55775W        W21035  40.916  17.026   2.640
55776W        W21036  37.159   3.676   4.068
55777W        W21037  43.533  16.987   1.221
55778W        W21038   8.279  11.952   0.766
55779W        W21039  13.706   3.925  11.101
55780W        W21040   5.852  11.369   0.449
55781W        W21041  33.590  36.477   1.210
55782W        W21042   1.734  22.784  13.697
55783W        W21043  22.486  11.434  12.280
55784W        W21044  27.964  36.026  13.333
55785W        W21045   7.717   5.230   3.698
55786W        W21046   5.710  14.630   0.369
55787W        W21047   7.661  18.978  13.058
55788W        W21048  15.095  32.746   2.783
55789W        W21049   5.170  33.642   1.201
55790W        W21050  44.019   5.742   4.205
55791W        W21051  12.504  44.294  10.736
55792W        W21052  40.090  12.186   3.653
55793W        W21053  37.787  13.831  13.126
55794W        W21054  21.231  11.010  12.843
55795W        W21055   4.365  36.787  12.943
55796W        W21056  23.064  21.117  10.975
55797W        W21057  13.397  37.880  12.946
55798W        W21058  33.854  37.972   1.288
55799W        W21059  26.189  11.915   0.927
55800W        W21060  14.626  16.115  10.762
55801W        W21061   1.250  28.728  11.462
55802W        W21062   8.133  12.646  10.467
55803W        W21063  30.509  12.322  13.019
55804W        W21064  19.592  24.200  11.534
55805W        W21065  37.058  41.856   2.817
55806W        W21066   4.752  23.891  13.883
55807W        W21067  36.383  14.078   0.256
55808W        W21068  36.491   7.187  11.020
55809W        W21069  22.637   9.630  10.819
55810W        W21070  17.470  35.918  14.872
55811W        W21071  28.989  27.556   1.276
55812W        W21072  38.566  22.879  12.576
55813W        W21073   1.304  19.804  11.202
55814W        W21074  40.505  23.139  12.427
55815W        W21075  17.603  19.638  13.600
55816W        W21076   3.088  14.187  11.824
55817W        W21077  33.192  26.527  13.474
55818W        W21078  16.697  32.245   0.716
55819W        W21079  12.112   1.889   3.514
55820W        W21080   1.007  11.811   3.508
55821W        W21081  30.531  10.024  11.462
55822W        W21082   3.598  10.818   2.694
55823W        W21083  23.264   5.477   2.805
55824W        W21084  42.264  44.409   0.363
55825W        W21085  32.631  14.119  12.527
55826W        W21086   5.280  28.205   4.110
55827W        W21087  25.024  31.619  11.941
55828W        W21088  15.413  19.081  14.971
55829W        W21089  30.835  36.997   1.749
55830W        W21090  30.106   4.925  13.031
55831W        W21091  39.381   9.423  14.968
55832W        W21092  31.798  35.527   4.027
55833W        W21093  25.528   8.142   2.362
55834W        W21094  31.492  18.147   0.848
55835W        W21095   6.955  11.903   0.280
55836W        W21096   6.722  23.698   4.448
55837W        W21097   4.067   4.223   4.212
55838W        W21098   5.414   1.649   2.764
55839W        W21099   2.951  21.758   4.202
55840W        W21100  10.197  40.406   3.687
55841W        W21101  38.603  36.620   3.655
55842W        W21102  37.269   1.290  12.449
55843W        W21103  40.843   3.669   1.393
55844W        W21104  14.848  28.538   0.399
55845W        W21105  43.246  40.814   1.628
55846W        W21106  34.928  13.770   2.266
55847W        W21107  15.891  44.514   0.467
55848W        W21108  25.519   0.818  12.042
55849W        W21109  33.397  16.163   1.506
55850W        W21110  14.932   4.640   4.244
55851W        W21111   5.166  15.261  12.520
55852W        W21112  22.169  22.060   4.589
55853W        W21113  40.320  31.562  14.000
55854W        W21114  30.366  36.847   4.199
55855W        W21115  35.539  27.908   3.649
55856W        W21116  29.274  10.921   4.172
55857W        W21117   7.076  27.777   0.264
55858W        W21118  44.758   4.806   4.713
55859W        W21119  39.672  39.342   1.651
55860W        W21120  40.810   5.441  14.759
55861W        W21121  38.104   7.172   5.022
55862W        W21122  42.428  16.741   0.205
55863W        W21123  31.275  25.426   3.246
55864W        W21124  10.260  30.957  11.466
55865W        W21125  13.243  15.421  13.875
55866W        W21126  34.574   9.309   4.525
55867W        W21127  19.767   4.926   1.189
55868W        W21128  24.165   1.516  14.719
55869W        W21129  26.728  32.727   4.098
55870W        W21130  43.788  41.882  12.605
55871W        W21131  35.492  40.280   2.147
55872W        W21132  14.047  34.738  12.451
55873W        W21133   6.160   2.090  12.937
55874W        W21134  27.116   4.400  13.272
55875W        W21135  13.831  27.229  14.494
55876W        W21136  27.243   2.810   1.351
55877W        W21137  25.182  36.629   0.758
55878W        W21138  11.679  16.136   4.926
55879W        W21139  10.689  33.968  13.359
55880W        W21140  28.193  39.443   3.211
55881W        W21141  18.158  16.778   1.525
55882W        W21142  11.958  23.567  11.621
55883W        W21143  16.639   8.430  13.098
55884W        W21144   4.480   5.864   2.731
55885W        W21145  44.164  12.497  14.847
55886W        W21146  20.693  37.759   3.153
55887W        W21147   1.244   5.435  12.553
55888W        W21148   7.231   6.391  11.949
55889W        W21149  30.894  34.430   2.374
55890W        W21150   3.694  31.566   3.086
55891W        W21151   6.865  22.629  11.628
55892W        W21152  35.329  13.831   3.073
55893W        W21153  32.823  37.880  12.363
55894W        W21154  15.838  10.720   1.287
55895W        W21155  11.031  16.709  11.008
55896W        W21156  33.638  16.849  11.100
55897W        W21157  22.206  30.170   2.805
55898W        W21158  32.130  33.525  14.927
55899W        W21159   4.248  41.425  11.780
55900W        W21160  21.365  41.998  14.920
55901W        W21161   1.352  24.546  10.549
55902W        W21162  28.589  18.003   2.352
55903W        W21163  18.863  31.783  13.277
55904W        W21164  36.406  38.339   0.885
55905W        W21165   4.931  38.275   3.173
55906W        W21166  10.794  10.199  10.711
55907W        W21167  23.199   7.565   4.140
55908W        W21168   0.317  28.530  11.674
55909W        W21169  44.346  18.639  14.868
55910W        W21170  40.031  40.889   1.962
55911W        W21171   5.657  24.292  14.591
55912W        W21172  27.962  35.861   1.001
55913W        W21173  18.242  40.048  11.602
55914W        W21174  33.848  24.127  12.629
55915W        W21175  43.520  43.147   2.899
55916W        W21176  36.890  11.267   0.990
55917W        W21177  24.158  15.224   3.312
55918W        W21178   2.803  33.111  10.824
55919W        W21179   3.956  19.148   1.314
55920W        W21180   4.278  29.961  13.112
55921W        W21181  15.280   6.406   4.539
55922W        W21182  23.013  22.272  12.062
55923W        W21183  39.841   6.265  13.254
55924W        W21184  31.626  32.768  14.823
55925W        W21185   2.185  30.024  10.682
55926W        W21186  35.960   3.679  14.736
55927W        W21187  10.779  29.675  14.321
55928W        W21188   9.307  27.937   2.675
55929W        W21189  17.638  28.846   1.755
55930W        W21190  14.013  38.569  13.059
55931W        W21191   7.431   6.962   0.011
55932W        W21192  37.570  41.462   4.210
55933W        W21193   0.392   5.588   4.295
55934W        W21194  34.875   6.019  14.425
55935W        W21195  44.977  21.070  14.508
55936W        W21196   9.154  40.944   0.770
55937W        W21197  20.676  18.531  14.433
55938W        W21198  23.241  34.601  13.568
55939W        W21199  28.654   4.166   0.429
55940W        W21200  30.648  33.562  13.787
55941W        W21201  27.963  12.883   4.511
55942W        W21202   4.042  25.910   0.531
55943W        W21203  30.676  24.086  10.938
55944W        W21204  35.523   4.265   0.237
55945W        W21205  14.098   5.152  14.380
55946W        W21206  14.226  27.242   2.699
55947W        W21207  18.621   9.378   4.177
55948W        W21208  32.583  10.768   4.153
55949W        W21209  33.446  26.197  11.955
55950W        W21210  33.489  15.132   3.296
55951W        W21211  16.768  26.477  12.013
55952W        W21212  27.947  11.620   0.471
55953W        W21213   9.161  40.790  11.670
55954W        W21214  42.094  33.511   1.612
55955W        W21215   2.338  21.652  13.947
55956W        W21216  27.974  29.599  11.282
55957W        W21217   0.582   9.703   2.246
55958W        W21218  43.140  28.286   2.266
55959W        W21219  23.546   0.769   2.363
55960W        W21220  14.044  11.106   0.604
55961W        W21221  31.374  37.854  12.627
55962W        W21222  14.142  34.939   0.577
55963W        W21223  27.232  20.722  11.383
55964W        W21224  42.190  36.572  11.959
55965W        W21225  34.721  32.061   1.374
55966W        W21226  18.994  20.590   2.289
55967W        W21227  30.467  28.682   1.147
55968W        W21228   2.248  22.735   3.807
55969W        W21229  44.047  30.132  14.324
55970W        W21230  34.766  33.903   3.766
55971W        W21231   1.958  15.717  13.057
55972W        W21232  11.563   4.904  11.302
55973W        W21233  29.382  13.347   3.461
55974W        W21234   5.163  23.581   0.303
55975W        W21235  41.555   5.942   1.779
55976W        W21236  35.477  41.437  12.022
55977W        W21237  13.728  30.891   2.624
55978W        W21238   3.079  23.004  13.192
55979W        W21239   4.675  44.279  10.569
55980W        W21240  32.720  13.353  14.443
55981W        W21241  37.963   2.693  13.222
55982W        W21242   8.693  20.800   1.928
55983W        W21243  27.687  33.873   0.815
55984W        W21244   1.719  44.771   4.068
55985W        W21245  34.864   9.700  11.515
55986W        W21246  38.868  21.575   1.027
55987W        W21247  36.008  18.201   4.584
55988W        W21248  25.499  14.027   3.045
55989W        W21249   4.060  26.156  12.647
55990W        W21250   5.651  41.914  11.518
55991W        W21251  18.113  24.169  10.506
55992W        W21252  30.676  13.789   4.256
55993W        W21253  41.039  27.692  11.914
55994W        W21254  17.724   5.449   1.897
55995W        W21255  15.629   5.583  10.856
55996W        W21256  40.775  15.050   0.852
55997W        W21257  12.463  34.870   0.917
55998W        W21258  24.891  17.930   0.645
55999W        W21259  35.075  26.835   1.377
56000W        W21260   0.908  11.769   2.239
56001W        W21261  37.592  21.499   1.678
56002W        W21262  35.449   0.041   0.435
56003W        W21263  17.319  24.101   2.824
56004W        W21264  36.013   4.887   1.792
56005W        W21265  20.192  32.753   4.559
56006W        W21266  16.951   8.490  13.921
56007W        W21267  12.084  16.006  14.937
56008W        W21268  28.945  31.417  12.449
56009W        W21269  14.418  39.518   0.324
56010W        W21270  40.084  27.551   3.328
56011W        W21271  12.569  44.005  14.477
56012W        W21272  11.165   2.827  14.163
56013W        W21273   0.395   0.256  12.419
56014W        W21274  25.167  38.349  14.807
56015W        W21275  34.821  41.312   2.877
56016W        W21276   8.148  37.466   4.516
56017W        W21277  14.129  31.105  11.176
56018W        W21278   9.854  24.704   4.109
56019W        W21279   4.240   6.395  14.266
56020W        W21280  12.748  14.842   1.581
56021W        W21281  32.834  21.378  14.289
56022W        W21282  34.157   0.453  14.246
56023W        W21283  42.316  16.002  11.638
56024W        W21284  38.743   0.783  14.471
56025W        W21285  40.449  19.097   4.167
56026W        W21286  14.695  41.932  14.622
56027W        W21287   9.451  34.291  12.487
56028W        W21288  31.591  21.246   4.337
56029W        W21289  20.726  15.497   4.623
56030W        W21290   4.953  27.985   0.091
56031W        W21291  17.114  16.460   3.296
56032W        W21292   6.418  23.430   4.090
56033W        W21293  42.800  34.603   3.315
56034W        W21294  18.297  19.174   0.114
56035W        W21295  23.099   0.933   1.182
56036W        W21296  37.477  20.239  13.864
56037W        W21297  25.197  19.525  10.267
56038W        W21298   8.478  13.130   2.747
56039W        W21299  20.819  25.934  13.132
56040W        W21300  38.001   4.890   4.278
56041W        W21301  21.357  25.552   3.271
56042W        W21302  24.049  29.947  13.013
56043W        W21303  20.626  27.455   4.592
56044W        W21304  33.126  31.007  13.268
56045W        W21305  41.022  11.440   4.378
56046W        W21306   6.702  31.706  12.541
56047W        W21307  40.278  12.552  11.547
56048W        W21308  42.598  41.404  11.097
56049W        W21309  35.010   7.256  13.107
56050W        W21310  26.329   7.871   2.740
56051W        W21311  24.065  28.480   2.888
56052W        W21312   6.908  15.250  13.434
56053W        W21313   6.621   2.274  13.045
56054W        W21314  38.465  13.561  11.482
56055W        W21315  21.885  18.016   1.242
56056W        W21316  23.449  16.534   0.258
56057W        W21317   3.849  21.515  11.197
56058W        W21318   0.885  32.592   0.249
56059W        W21319  37.863   2.953   3.825
56060W        W21320  27.731  42.431   0.203
56061W        W21321  41.450  32.567   3.413
56062W        W21322  19.978  14.023   0.629
56063W        W21323  18.311  13.343   2.869
56064W        W21324  43.147   0.740  14.055
56065W        W21325  33.986  27.823  11.393
56066W        W21326  43.926  17.322  11.069
56067W        W21327  18.248  28.399  11.470
56068W        W21328  35.010  30.646   0.741
56069W        W21329  26.470  36.581   4.737
56070W        W21330  18.360  18.163  13.763
56071W        W21331   8.849   6.221   1.772
56072W        W21332  16.128  24.780  10.718
56073W        W21333   4.487  38.985   2.699
56074W        W21334  37.567   0.071   3.113
56075W        W21335  21.524  20.327  13.145
56076W        W21336  34.415  43.301  12.879
56077W        W21337  25.537  38.834  11.854
56078W        W21338  15.912  35.901   3.202
56079W        W21339  23.500   3.125   0.696
56080W        W21340   7.385  43.765   3.965
56081W        W21341  10.353  30.635   5.497
56082W        W21342  41.825  21.171   1.453
56083W        W21343  16.862   4.151  14.233
56084W        W21344   7.722  31.544  12.664
56085W        W21345   1.892   1.635  14.292
56086W        W21346  32.393   1.496   2.683
56087W        W21347  26.790  24.137   0.828
56088W        W21348  14.136  25.191   2.581
56089W        W21349   2.726   2.999  13.521
56090W        W21350  28.650   4.380  11.078
56091W        W21351  40.774  33.916   4.740
56092W        W21352  34.086  38.257   4.428
56093W        W21353   5.360  20.789   2.830
56094W        W21354  26.472  18.278  12.323
56095W        W21355  29.106  38.879  12.031
56096W        W21356   4.521  23.182   4.756
56097W        W21357  32.738  16.858  11.572
56098W        W21358  38.404  25.171  10.892
56099W        W21359   2.343   6.206  10.646
56100W        W21360  30.771  22.323  12.153
56101W        W21361  41.795  23.638  14.470
56102W        W21362   9.744  38.943  11.111
56103W        W21363  10.576   0.251   0.381
56104W        W21364   9.482  29.076  12.043
56105W        W21365   4.699   6.427  10.683
56106W        W21366  22.941  36.812  13.305
56107W        W21367  31.709   0.749   0.174
56108W        W21368   1.999   8.639  10.470
56109W        W21369  18.754  31.486   3.225
56110W        W21370  14.145  43.490   3.089
56111W        W21371  10.650   7.617   1.310
56112W        W21372  38.607  19.862  12.134
56113W        W21373  36.061  25.421  14.046
56114W        W21374  35.648  12.852  14.395
56115W        W21375  20.865  24.963  10.330
56116W        W21376  35.956  34.885  10.726
56117W        W21377   3.037  20.957   2.210
56118W        W21378  36.811  39.120  10.699
56119W        W21379  31.493   3.744   2.799
56120W        W21380  38.331   3.629  11.420
56121W        W21381   3.046  12.783  13.460
56122W        W21382  31.022   9.789   1.317
56123W        W21383  28.155  38.836  13.820
56124W        W21384  38.352  31.786   3.176
56125W        W21385  37.645  19.228  14.098
56126W        W21386   5.403   9.148   0.453
56127W        W21387   2.660  19.120   4.204
56128W        W21388  37.430  16.122  10.374
56129W        W21389  31.466   2.046  13.497
56130W        W21390  41.829   5.318   0.711
56131W        W21391  29.837   8.388   2.726
56132W        W21392  38.758  36.521   0.750
56133W        W21393  19.214  22.530   3.909
56134W        W21394  14.033  21.011  13.048
56135W        W21395   8.903  16.081  13.502
56136W        W21396  13.316  23.801   5.007
56137W        W21397  39.498  43.797  13.356
56138W        W21398  12.864  28.396  13.789
56139W        W21399  16.596  32.775  13.129
56140W        W21400  15.598   3.293   1.822
56141W        W21401  17.137   3.477  11.708
56142W        W21402  26.179  33.911  14.737
56143W        W21403  32.329  25.196  11.232
56144W        W21404  29.509   0.767  14.947
56145W        W21405   5.273  29.352  12.522
56146W        W21406  23.074  12.594  14.312
56147W        W21407  10.739  29.149  13.457
56148W        W21408  33.415   6.816   4.153
56149W        W21409   1.243  23.651   3.205
56150W        W21410   2.394  37.792   0.429
56151W        W21411  31.816   7.680  14.503
56152W        W21412  39.318  10.378   3.207
56153W        W21413  15.089  13.598   2.945
56154W        W21414  26.349  34.370  11.484
56155W        W21415  25.727  12.230   0.433
56156W        W21416  26.507   1.291   3.756
56157W        W21417  44.496  33.424  14.033
56158W        W21418  17.597  35.826   4.144
56159W        W21419  33.564  43.113   1.749
56160W        W21420  38.500  34.922   3.363
56161W        W21421  13.126  38.788  12.919
56162W        W21422  14.356  38.580  12.650
56163W        W21423  23.988  24.346   0.282
56164W        W21424  18.596  26.663   3.622
56165W        W21425  22.045  18.192  10.837
56166W        W21426   0.572  44.413   0.837
56167W        W21427  15.225  16.969  14.902
56168W        W21428  13.346   9.811   1.863
56169W        W21429  40.562  44.263   0.738
56170W        W21430   7.552  30.693  11.677
56171W        W21431  20.997  41.649  13.049
56172W        W21432  39.993  42.891  13.784
56173W        W21433  39.524   5.724  10.646
56174W        W21434  22.195   4.410   0.416
56175W        W21435  29.993   0.003   1.875
56176W        W21436  30.151  36.293   3.317
56177W        W21437  27.019  26.925   4.555
56178W        W21438  39.155  25.944   2.305
56179W        W21439   6.291   9.907   1.427
56180W        W21440  34.008   3.919   1.383
56181W        W21441  43.935   0.907   2.673
56182W        W21442   9.632   2.160   1.401
56183W        W21443  14.186  33.484  11.240
56184W        W21444  27.437  35.965   3.191
56185W        W21445   7.980   5.870  14.361
56186W        W21446   4.209  17.266  12.079
56187W        W21447  33.921   1.515   0.863
56188W        W21448  15.083  11.841   1.885
56189W        W21449  11.304  29.938  11.197
56190W        W21450  21.006  35.448   3.275
56191W        W21451   2.602  44.593  13.027
56192W        W21452  18.233  36.866  14.229
56193W        W21453  20.287   9.342   0.275
56194W        W21454  27.907  30.363  14.781
56195W        W21455   8.430  43.505   2.351
56196W        W21456  30.410   4.289  11.567
56197W        W21457  21.654  21.803  14.525
56198W        W21458  13.289   7.190  13.857
56199W        W21459  43.789  35.467   0.884
56200W        W21460  42.609  37.891  12.734
56201W        W21461  17.129  29.121  14.320
56202W        W21462   9.366   8.765   2.112
56203W        W21463  15.133  31.078   1.318
56204W        W21464   4.505   5.436  11.564
56205W        W21465  34.203  39.795   1.418
56206W        W21466  28.123  17.599   4.595
56207W        W21467  44.795  31.961  11.552
56208W        W21468  15.193  13.856  10.500
56209W        W21469   8.671  24.654  10.714
56210W        W21470  35.072  28.987   4.217
56211W        W21471  35.263  14.364  14.137
56212W        W21472   2.274  44.967  11.165
56213W        W21473   2.538   5.612   3.182
56214W        W21474  37.002  36.532  11.557
56215W        W21475   5.685  28.870  13.417
56216W        W21476   0.216  38.948  13.222
56217W        W21477  12.103  20.193  13.776
56218W        W21478  40.785  20.357  11.482
56219W        W21479   8.618  12.357  14.933
56220W        W21480  40.917  18.695   0.329
56221W        W21481   4.859  25.692   0.770
56222W        W21482  37.565  38.341  12.487
56223W        W21483  17.480  26.069  11.205
56224W        W21484  29.609  14.305   0.992
56225W        W21485  20.509  28.096  11.082
56226W        W21486  37.476  16.478  13.536
56227W        W21487  14.538   6.406  13.984
56228W        W21488  25.128  23.324  14.029
56229W        W21489  39.411  26.651  12.936
56230W        W21490  15.469  19.522  10.955
56231W        W21491  25.771  32.621  13.034
56232W        W21492  22.575  34.012   4.181
56233W        W21493  28.939  26.016   0.516
56234W        W21494  25.279  24.994  13.618
56235W        W21495  19.146   9.140   4.854
56236W        W21496  18.069  13.309   1.772
56237W        W21497  44.517  18.032   1.884
56238W        W21498  40.292   4.231   0.881
56239W        W21499   5.291   9.260  13.794
56240W        W21500  12.904  28.947  14.445
56241W        W21501  40.579  42.250   4.325
56242W        W21502  17.427  20.500   3.290
56243W        W21503  40.053  35.300   4.870
56244W        W21504  10.729   6.717  13.523
56245W        W21505   0.467  22.166   2.046
56246W        W21506  14.759  29.218  14.952
56247W        W21507  13.592  34.385   0.060
56248W        W21508  27.970  13.017   2.722
56249W        W21509  15.789  20.414  14.021
56250W        W21510  26.586  27.104  10.672
56251W        W21511  13.317   2.661  14.803
56252W        W21512  16.218  11.144  10.715
56253W        W21513  18.427  11.846   2.134
56254W        W21514   6.476  34.540  11.576
56255W        W21515   4.220  39.421  14.695
56256W        W21516   9.707  23.037  12.991
56257W        W21517  31.015  39.877  10.550
56258W        W21518  39.221  23.653   3.446
56259W        W21519  34.888  38.171  14.826
56260W        W21520  39.142  21.427   1.450
56261W        W21521  21.869  37.767  11.137
56262W        W21522  23.971  22.494  13.395
56263W        W21523  17.758   0.526   4.907
56264W        W21524  36.763  34.986   2.349
56265W        W21525   2.908  10.908  11.066
56266W        W21526  28.075  24.264   2.328
56267W        W21527  27.721  11.391   3.280
56268W        W21528  35.606  40.350  10.800
56269W        W21529  39.494   2.555   3.650
56270W        W21530  21.248  12.467   2.071
56271W        W21531  24.169  39.998   1.419
56272W        W21532   1.822  11.654   9.955
56273W        W21533  19.177  44.919  13.740
56274W        W21534  42.045   9.818   0.900
56275W        W21535  21.717   4.226   0.324
56276W        W21536  15.423   6.469  14.842
56277W        W21537  14.259  17.516   4.934
56278W        W21538  35.769  39.879   0.335
56279W        W21539  13.779   2.659   2.289
56280W        W21540  44.494  44.405  12.968
56281W        W21541  25.581  21.859   0.206
56282W        W21542   9.854  33.511  12.967
56283W        W21543  20.489  30.857  12.616
56284W        W21544  18.148   8.350   1.472
56285W        W21545  24.741  14.539   0.934
56286W        W21546  10.016  14.550  11.983
56287W        W21547  35.627  25.278  11.538
56288W        W21548   6.691  43.938   3.749
56289W        W21549  35.802  24.581   1.377
56290W        W21550  22.114  43.997  12.841
56291W        W21551   9.809   6.973  11.644
56292W        W21552  26.264  27.510  13.280
56293W        W21553  36.176  35.866   3.257
56294W        W21554  44.786  36.558   0.756
56295W        W21555  15.826  32.035   2.751
56296W        W21556  39.880  13.932  12.901
56297W        W21557  12.113  25.727   1.908
56298W        W21558  28.858  43.827  11.474
56299W        W21559   8.294  18.068   4.062
56300W        W21560  33.402  23.594  14.210
56301W        W21561   7.668  13.794   2.726
56302W        W21562  36.256  40.424   5.059
56303W        W21563  36.671  43.808  12.834
56304W        W21564  21.539  25.494   1.363
56305W        W21565  13.295  29.422   1.556
56306W        W21566  29.737  24.986   2.661
56307W        W21567   2.266  29.000   1.712
56308W        W21568  29.170  28.577  11.633
56309W        W21569  27.125  27.933   1.726
56310W        W21570  15.193   4.217  10.684
56311W        W21571  35.907  17.130   3.774
56312W        W21572  21.700   1.195   2.389
56313W        W21573  34.295  12.342   2.790
56314W        W21574  31.385  19.704   2.570
56315W        W21575  29.070  37.595   1.912
56316W        W21576  14.166  39.474  13.107
56317W        W21577  18.654  17.178   0.473
56318W        W21578  19.621  41.833   2.402
56319W        W21579  39.274  11.766  11.392
56320W        W21580   9.622  31.608  10.952
56321W        W21581  39.363  23.724  11.774
56322W        W21582  40.327  33.562   3.028
56323W        W21583  21.570  16.575  13.373
56324W        W21584  19.198  31.422   2.698
56325W        W21585  29.723  23.524   4.854
56326W        W21586  37.138   1.947  11.152
56327W        W21587  15.622  28.524   3.184
56328W        W21588  39.858  39.549   1.204
56329W        W21589  23.708  24.237   3.627
56330W        W21590  44.400   8.108   4.700
56331W        W21591  44.468  16.375  11.746
56332W        W21592  24.952  27.014  14.373
56333W        W21593  25.673  27.245   1.300
56334W        W21594  20.646  10.323  12.376
56335W        W21595  31.054  31.147  11.592
56336W        W21596  12.420  33.113   2.267
56337W        W21597   5.373   9.233   1.951
56338W        W21598  30.056  12.889  12.410
56339W        W21599   0.721  38.035   3.896
56340W        W21600  41.861  41.315   4.651
56341W        W21601   1.297  39.786   1.427
56342W        W21602  16.611  41.523   3.385
56343W        W21603  21.545  16.204  14.831
56344W        W21604  10.271  24.716  14.054
56345W        W21605  19.833  43.397  14.432
56346W        W21606  26.547   3.494   2.797
56347W        W21607  41.377  28.729   2.421
56348W        W21608  11.308  34.432  13.362
56349W        W21609  35.835  36.957  14.823
56350W        W21610  23.044  33.044  11.984
56351W        W21611  19.828  13.380   3.685
56352W        W21612  44.018  13.881   3.173
56353W        W21613  43.840  26.000   0.091
56354W        W21614  20.732  32.469   3.021
56355W        W21615  42.783   1.526  11.960
56356W        W21616  18.263  21.954   2.340
56357W        W21617   4.666  39.056  11.014
56358W        W21618  41.594  33.808  14.044
56359W        W21619  21.284  24.414   0.433
56360W        W21620  15.344  41.684   3.110
56361W        W21621  23.728  29.452  14.949
56362W        W21622  38.000   8.496  11.919
56363W        W21623  20.648  24.951   2.195
56364W        W21624   2.001   9.797  11.364
56365W        W21625  20.302  41.956  14.080
56366W        W21626  11.913  18.848   3.831
56367W        W21627  40.103  25.983   2.791
56368W        W21628  23.957  18.230   2.615
56369W        W21629  43.789  44.820   1.083
56370W        W21630   8.294  30.368  12.020
56371W        W21631  15.513  11.766  12.575
56372W        W21632  30.091  13.395   2.383
56373W        W21633  44.513   5.803  12.643
56374W        W21634  43.392  28.397   1.051
56375W        W21635   5.684  18.311  10.680
56376W        W21636  40.962  17.204  13.387
56377W        W21637   3.843  24.498   3.316
56378W        W21638  16.599   2.022  12.983
56379W        W21639  12.663  26.701   1.691
56380W        W21640  19.649  12.040  14.843
56381W        W21641   8.275  13.891  14.407
56382W        W21642   0.383  24.589  11.592
56383W        W21643  27.386  42.294   3.939
56384W        W21644  35.917  19.555  12.066
56385W        W21645  10.720  10.972   4.554
56386W        W21646  17.734  20.142   1.252
56387W        W21647  22.025   9.356   3.701
56388W        W21648   2.855  18.356   2.245
56389W        W21649   6.705  23.096   4.580
56390W        W21650  29.043   7.632   0.876
56391W        W21651  24.171   0.478   3.421
56392W        W21652  13.645   3.668   4.584
56393W        W21653  31.907   7.778   0.033
56394W        W21654  44.712  28.799  10.273
56395W        W21655   9.779   1.411   0.908
56396W        W21656  13.191  26.462  10.124
56397W        W21657   1.731  17.810   3.706
56398W        W21658  24.100  27.977  11.724
56399W        W21659  40.241   5.166  10.701
56400W        W21660  30.321   0.794  14.387
56401W        W21661  34.328  10.805  14.969
56402W        W21662  34.963  38.480   1.280
56403W        W21663  37.064  37.433  12.524
56404W        W21664   4.808   6.648   0.466
56405W        W21665  20.542  21.469   0.300
56406W        W21666  30.349   7.503  13.953
56407W        W21667  40.235  31.885   0.243
56408W        W21668   1.049  44.894  10.537
56409W        W21669  12.638  28.822  11.265
56410W        W21670   9.645  21.193  11.173
56411W        W21671  24.150  38.954  14.476
56412W        W21672  36.654  10.254   1.277
56413W        W21673  35.330  17.841   2.872
56414W        W21674  25.497   5.188  14.389
56415W        W21675  14.444  13.580   3.825
56416W        W21676  29.601  30.420   0.377
56417W        W21677   6.476  29.967  11.450
56418W        W21678   0.730  31.889   4.047
56419W        W21679  26.539  21.495  13.238
56420W        W21680  22.988   7.834  14.321
56421W        W21681  39.104  31.932   0.875
56422W        W21682  40.430  36.963   2.265
56423W        W21683  28.306  11.497  10.761
56424W        W21684  23.377  38.664   4.281
56425W        W21685  34.841  31.748   2.283
56426W        W21686  29.996  41.791   2.848
56427W        W21687   1.724  29.687   4.478
56428W        W21688  31.489   0.976  13.049
56429W        W21689  25.225   5.992   3.802
56430W        W21690   1.208  21.940   1.697
56431W        W21691  31.545  43.604   1.761
56432W        W21692  26.127  41.762   4.014
56433W        W21693  35.679  34.739  12.194
56434W        W21694   8.875  34.085  12.532
56435W        W21695   1.947  29.941   0.782
56436W        W21696  40.960  36.616  12.457
56437W        W21697  22.110  13.832   3.288
56438W        W21698  29.046  24.987   3.405
56439W        W21699  26.556  42.201   2.754
56440W        W21700   1.315  30.206  12.888
56441W        W21701  24.493  22.145   4.120
56442W        W21702  10.340  39.732  12.523
56443W        W21703   2.320   9.593  12.271
56444W        W21704  12.357  35.699  14.424
56445W        W21705   4.836  27.623   3.550
56446W        W21706  42.093   5.661  11.995
56447W        W21707  27.532  20.324  14.095
56448W        W21708  14.662  37.550  13.810
56449W        W21709  16.172  13.396  14.398
56450W        W21710   4.386  15.777   0.328
56451W        W21711  18.870  32.892   2.154
56452W        W21712   1.764  29.103   1.720
56453W        W21713  26.967  31.918   3.342
56454W        W21714   2.208  23.175  12.984
56455W        W21715  39.737   1.657  14.817
56456W        W21716  29.891  27.038  10.555
56457W        W21717  14.095  34.067   1.385
56458W        W21718  25.389  11.767  10.497
56459W        W21719  24.659  23.913  13.285
56460W        W21720  28.909  19.821   0.844
56461W        W21721  26.853  27.183   2.698
56462W        W21722  10.192  21.210  12.979
56463W        W21723  25.747  28.620   1.316
56464W        W21724  44.292  17.995  13.025
56465W        W21725   8.753  35.174   1.147
56466W        W21726  41.328   8.505  14.498
56467W        W21727  29.902  25.179   4.301
56468W        W21728  27.887  19.298   9.757
56469W        W21729  34.418  17.552   2.907
56470W        W21730  24.051  41.039  13.794
56471W        W21731  37.862  34.661  12.386
56472W        W21732  16.660  37.138   4.271
56473W        W21733  35.451  27.058  14.382
56474W        W21734  31.409  15.893  12.770
56475W        W21735   1.013  44.507  13.278
56476W        W21736  27.735  15.095  11.256
56477W        W21737  37.379   5.423  12.464
56478W        W21738  26.456  43.361   1.190
56479W        W21739  39.061  19.372  11.571
56480W        W21740  20.667  20.303   4.118
56481W        W21741  15.286   4.136   1.660
56482W        W21742  32.082  36.554  14.276
56483W        W21743  41.416   2.400   4.177
56484W        W21744  39.035  39.832   4.112
56485W        W21745  10.190   7.336   1.252
56486W        W21746  11.090  21.706  11.430
56487W        W21747  33.309  39.988   0.426
56488W        W21748  39.848  24.486   0.829
56489W        W21749  25.573  18.782  12.098
56490W        W21750  35.803   7.856  14.877
56491W        W21751  35.909   5.835  13.807
56492W        W21752   0.021  24.813   4.076
56493W        W21753  32.356  36.973  14.449
56494W        W21754   3.327   6.731  14.878
56495W        W21755  24.581  10.737   1.298
56496W        W21756  35.331  21.006  14.516
56497W        W21757  37.812  42.729   3.081
56498W        W21758   9.828  16.807   0.298
56499W        W21759  38.323   8.259  11.594
56500W        W21760   4.995   9.676  13.683
56501W        W21761  22.102   5.502  14.109
56502W        W21762  39.097  24.144  11.916
56503W        W21763   7.295   1.930   4.150
56504W        W21764  38.344  27.159   2.249
56505W        W21765   5.956  34.384   2.224
56506W        W21766  20.485  35.956   4.557
56507W        W21767   6.820   8.139   0.453
56508W        W21768  37.478   5.793   2.441
56509W        W21769  21.205  34.530  13.665
56510W        W21770  19.784  27.682  11.865
56511W        W21771  22.232  39.407   0.092
56512W        W21772  36.184  10.268   4.983
56513W        W21773   5.886   8.091  12.005
56514W        W21774  28.747  38.963   0.300
56515W        W21775   8.871  40.407   3.288
56516W        W21776  13.719  27.960   5.187
56517W        W21777  10.781  29.461   0.241
56518W        W21778  30.073  37.297   0.754
56519W        W21779  18.193   2.146  14.903
56520W        W21780  24.138  20.407  12.472
56521W        W21781  44.452   6.076  11.316
56522W        W21782  34.642  34.495   3.128
56523W        W21783  36.237  41.966   3.251
56524W        W21784   3.769  36.080  14.324
56525W        W21785  39.634  25.067  14.893
56526W        W21786  27.606  34.715  10.835
56527W        W21787  31.348  33.201   4.930
56528W        W21788  20.242  39.006  12.805
56529W        W21789  36.559  32.421  10.402
56530W        W21790  41.491  41.293   1.384
56531W        W21791  32.511  21.243  13.008
56532W        W21792   8.540   2.271   0.492
56533W        W21793  33.038   7.209   1.368
56534W        W21794   6.204  31.194   1.183
56535W        W21795  25.742  12.762   4.391
56536W        W21796   6.723  26.596   4.733
56537W        W21797  37.610  20.746  13.934
56538W        W21798  11.363  12.379  12.007
56539W        W21799   6.877  33.994   1.872
56540W        W21800  10.108  30.178  11.848
56541W        W21801  44.861  35.351  13.873
56542W        W21802  32.636  28.845  12.072
56543W        W21803  42.330  24.647  10.794
56544W        W21804   4.858   7.635   4.094
56545W        W21805  39.832  16.764   4.634
56546W        W21806  26.019  29.403   1.017
56547W        W21807  24.112   4.303  13.676
56548W        W21808  10.468  11.092  11.493
56549W        W21809  41.236  14.627  13.725
56550W        W21810  44.332  14.895  12.028
56551W        W21811   6.402  43.594  11.532
56552W        W21812  28.575   2.998   1.627
56553W        W21813  27.158   1.248  12.401
56554W        W21814  17.758  15.081  11.223
56555W        W21815  12.234  28.754   0.425
56556W        W21816  36.832  21.995   2.676
56557W        W21817  23.443  34.057  13.310
56558W        W21818  10.782   1.791   1.870
56559W        W21819  40.762  12.774  10.760
56560W        W21820  11.185  38.011   1.922
56561W        W21821   8.717  38.149   0.911
56562W        W21822  33.353  39.438   3.330
56563W        W21823  41.408  10.138  14.327
56564W        W21824  19.681  24.488   4.639
56565W        W21825   6.347  39.747  11.141
56566W        W21826   7.274  26.448  10.264
56567W        W21827  31.947   6.915   1.905
56568W        W21828  38.435  22.672   4.379
56569W        W21829  14.751   1.246   3.345
56570W        W21830  29.125  17.786   3.697
56571W        W21831   9.222  43.735   1.500
56572W        W21832  36.160  30.035   1.397
56573W        W21833  22.514  13.313   1.252
56574W        W21834  12.426   9.465  10.576
56575W        W21835  30.607  11.509  12.527
56576W        W21836  16.143  35.459   3.757
56577W        W21837  25.376  18.452   4.027
56578W        W21838  20.277  11.756   4.149
56579W        W21839  31.537  34.330   1.673
56580W        W21840  35.549  39.505   1.780
56581W        W21841  38.059  23.614  12.766
56582W        W21842  32.512   1.241  13.453
56583W        W21843   7.844   9.722  13.335
56584W        W21844  36.862  37.378  13.944
56585W        W21845   6.954  21.730  13.444
56586W        W21846   5.797  14.498   1.691
56587W        W21847   0.217   2.266   3.226
56588W        W21848   3.845  12.327  11.375
56589W        W21849  37.138   5.337   4.570
56590W        W21850   5.823  44.398  11.474
56591W        W21851  40.713  21.743  11.127
56592W        W21852  36.139  37.592  14.473
56593W        W21853  31.732  18.629   4.625
56594W        W21854  13.735  21.229  12.180
56595W        W21855  40.941  35.447   2.833
56596W        W21856   1.789  40.450  10.690
56597W        W21857  37.580  42.936  13.802
56598W        W21858  37.089  10.278   4.602
56599W        W21859  42.881  20.058  11.024
56600W        W21860  31.819   9.791   2.708
56601W        W21861  10.265  41.152  14.487
56602W        W21862   5.199  21.642  13.659
56603W        W21863  11.846  43.701   3.357
56604W        W21864  23.475   7.704  12.654
56605W        W21865  25.123  15.297   1.428
56606W        W21866  16.232  19.072  12.491
56607W        W21867  44.963  19.723   4.966
56608W        W21868   3.583  23.073  13.050
56609W        W21869   9.347  43.428  12.027
56610W        W21870  25.611  29.066   0.149
56611W        W21871  35.913   0.297   2.790
56612W        W21872   2.740   3.950  12.102
56613W        W21873  34.362  28.189  12.741
56614W        W21874  41.892   3.476   4.212
56615W        W21875  10.665  29.821   2.413
56616W        W21876  12.713  22.669  12.518
56617W        W21877   4.673  31.884   4.075
56618W        W21878   0.988  24.183   1.002
56619W        W21879  37.487   1.177  14.837
56620W        W21880  28.461  24.537  13.945
56621W        W21881  13.703   0.296   4.622
56622W        W21882   8.189  36.539   1.325
56623W        W21883  30.526  39.913   3.361
56624W        W21884  13.902  17.699  13.855
56625W        W21885   1.497  31.701   2.692
56626W        W21886  14.690  17.541  12.433
56627W        W21887  16.318  37.538  10.574
56628W        W21888  17.464  13.311  11.141
56629W        W21889   5.235  37.569   4.396
56630W        W21890  31.953   1.205  11.973
56631W        W21891  24.043   2.480  14.292
56632W        W21892  39.903  42.804   3.055
56633W        W21893   7.699  38.259   4.623
56634W        W21894   8.607  10.280  11.582
56635W        W21895  44.847  36.581   1.921
56636W        W21896  29.093  38.812  13.037
56637W        W21897  27.211  17.332  11.336
56638W        W21898  44.740  34.670  10.800
56639W        W21899  14.891  28.477  13.543
56640W        W21900  38.044  28.508  10.970
56641W        W21901  33.964  33.509   4.452
56642W        W21902  30.253  26.110  12.471
56643W        W21903  11.168  43.463  12.949
56644W        W21904   1.839  42.494   0.898
56645W        W21905  44.218  36.038  10.881
56646W        W21906  36.852  41.878  12.391
56647W        W21907  22.518  10.818  11.944
56648W        W21908   6.744  29.113  11.107
56649W        W21909  38.109  28.874   2.780
56650W        W21910  22.003   9.198  11.487
56651W        W21911  43.420  30.551  10.965
56652W        W21912   0.417  39.073   2.624
56653W        W21913  37.085   6.287  11.612
56654W        W21914  34.544  24.402   3.429
56655W        W21915  15.370  26.246   3.815
56656W        W21916  37.060  21.078   1.832
56657W        W21917  43.422  18.610   0.054
56658W        W21918   8.142   6.471   3.778
56659W        W21919  14.223   5.853  11.261
56660W        W21920  41.441  25.597  11.109
56661W        W21921   5.405  38.115  14.472
56662W        W21922  24.033  26.276   3.327
56663W        W21923  13.257  25.621  12.851
56664W        W21924  19.020  43.960   1.283
56665W        W21925  29.710  22.549   0.410
56666W        W21926   2.675  40.101   3.344
56667W        W21927   4.080  42.114  12.145
56668W        W21928  28.429  22.488  14.911
56669W        W21929  36.349  40.310   4.594
56670W        W21930   0.280  18.816   0.357
56671W        W21931  42.347   1.587   4.632
56672W        W21932   0.283  30.958   1.952
56673W        W21933  10.658  10.430   4.527
56674W        W21934  11.129  15.209   2.465
56675W        W21935  34.112  41.295  10.632
56676W        W21936  14.295  39.055   2.925
56677W        W21937  37.847   2.363   3.117
56678W        W21938   1.451  15.373   2.781
56679W        W21939   6.316   0.924   0.321
56680W        W21940   4.851  16.706  12.669
56681W        W21941  39.339  24.145   0.914
56682W        W21942  24.296  30.014  12.474
56683W        W21943  39.916   6.960   2.898
56684W        W21944   6.735   6.302  13.011
56685W        W21945  41.809   6.137   3.619
56686W        W21946  22.260  40.380  10.773
56687W        W21947  20.594  18.653  14.955
56688W        W21948   1.479   7.744  13.374
56689W        W21949  17.121  27.216  11.555
56690W        W21950  22.979  33.400  14.930
56691W        W21951  24.573   2.750   0.808
56692W        W21952   5.875  32.817   4.117
56693W        W21953  34.844  17.747   4.388
56694W        W21954  43.207  30.919   0.719
56695W        W21955  20.465  35.011   0.655
56696W        W21956   0.979  16.827  12.894
56697W        W21957  24.541  31.456   4.689
56698W        W21958  43.475   3.940  13.840
56699W        W21959  27.130  28.599  14.550
56700W        W21960  40.598  11.835   2.382
56701W        W21961   6.402  13.998   1.198
56702W        W21962   4.277  16.168   4.186
56703W        W21963  18.074  43.115   0.883
56704W        W21964   2.531  40.373  11.238
56705W        W21965  14.554  33.032  11.552
56706W        W21966  31.139  33.560   4.607
56707W        W21967  10.742  20.141   0.946
56708W        W21968   1.510  44.474  13.023
56709W        W21969  32.578  24.655   1.313
56710W        W21970  18.730  15.604  14.457
56711W        W21971  33.946  10.788  10.717
56712W        W21972  13.697  44.007   3.630
56713W        W21973  40.769   2.786  12.605
56714W        W21974   4.759   0.314  11.110
56715W        W21975  18.857   3.555  13.622
56716W        W21976  35.877  23.276  14.827
56717W        W21977  13.185  11.309  10.665
56718W        W21978  12.275  21.193  10.966
56719W        W21979  32.659   9.739   2.266
56720W        W21980  26.145  37.755  13.246
56721W        W21981  37.832  35.592  11.964
56722W        W21982  35.473  40.496   2.667
56723W        W21983  30.714  22.719   0.434
56724W        W21984  19.862  31.947  11.089
56725W        W21985   5.145  22.024   3.083
56726W        W21986   5.819  23.553   4.320
56727W        W21987  30.050  21.522   4.770
56728W        W21988  15.313  29.061  14.295
56729W        W21989  21.480   3.715   3.558
56730W        W21990  29.788  11.837   4.068
56731W        W21991  42.991  29.613   0.417
56732W        W21992   9.357  19.206  11.537
56733W        W21993  17.699  27.976   2.290
56734W        W21994   5.972   5.059  13.157
56735W        W21995  10.211  34.019   0.008
56736W        W21996   5.277  24.467  14.282
56737W        W21997  11.584  42.866   1.766
56738W        W21998  31.149  19.932   4.101
56739W        W21999  43.615  32.964   0.277
56740W        W22000   9.245  15.649   2.684
56741W        W22001  38.829  41.696   1.413
56742W        W22002  11.903  32.562  11.015
56743W        W22003  13.048  11.872  14.954
56744W        W22004  10.656  44.291  14.343
56745W        W22005  14.342  20.056   4.859
56746W        W22006  13.562  11.919  14.864
56747W        W22007   5.219  29.514  13.935
56748W        W22008  29.355   0.435   0.301
56749W        W22009  42.862  33.174   4.601
56750W        W22010   9.690   4.375   4.344
56751W        W22011  36.545  18.307   4.262
56752W        W22012  10.897  23.945  13.921
56753W        W22013  18.840  15.060   1.157
56754W        W22014  40.285   6.241  10.653
56755W        W22015  14.300  28.433   0.259
56756W        W22016  35.619  26.915   4.728
56757W        W22017  13.586  31.918  11.056
56758W        W22018   9.741   5.695  11.190
56759W        W22019  32.065  23.892   4.675
56760W        W22020  42.788  28.144  10.996
56761W        W22021  40.144  17.623   0.916
56762W        W22022  34.645   1.368   1.870
56763W        W22023  15.627  43.928   4.178
56764W        W22024  34.100  20.421   4.095
56765W        W22025  31.639   5.528   1.431
56766W        W22026  35.273  40.667  11.481
56767W        W22027  10.212  24.183  13.911
56768W        W22028   5.364   5.964   0.547
56769W        W22029  25.007   1.761  12.933
56770W        W22030   7.055  25.976   4.888
56771W        W22031  21.229  24.248   4.514
56772W        W22032  11.178  12.944  13.183
56773W        W22033   3.181   1.247  13.311
56774W        W22034   6.783  17.200  14.496
56775W        W22035  42.376  13.997   4.443
56776W        W22036  19.600  40.923  12.071
56777W        W22037  30.182  31.212  12.326
56778W        W22038  20.188  33.429  10.741
56779W        W22039   2.384  40.994  13.424
56780W        W22040  11.444  23.955  14.526
56781W        W22041  38.083  21.618   1.550
56782W        W22042  27.562  23.045   2.281
56783W        W22043  11.240  36.550  11.635
56784W        W22044  18.604  43.810  14.558
56785W        W22045  43.715  29.045   2.816
56786W        W22046  26.705  27.771   4.317
56787W        W22047  39.744   4.913  14.335
56788W        W22048  19.679   1.460  11.577
56789W        W22049  21.291  30.586   2.605
56790W        W22050  43.004  29.599  11.049
56791W        W22051   6.156  44.909   1.802
56792W        W22052  34.438  15.779  10.954
56793W        W22053  23.676  25.082  11.598
56794W        W22054   1.825  25.009  13.587
56795W        W22055   4.438  33.676  14.444
56796W        W22056  14.803   4.919   0.732
56797W        W22057  18.569  26.582   4.958
56798W        W22058  14.125   6.533   2.172
56799W        W22059  37.491  33.349   1.361
56800W        W22060   8.296  13.827   4.057
56801W        W22061   0.417   3.009  11.079
56802W        W22062  44.856   8.954  12.790
56803W        W22063  29.768  21.209   2.651
56804W        W22064  21.295  13.091  12.368
56805W        W22065  23.390  30.687   2.364
56806W        W22066  19.812  33.453  10.400
56807W        W22067   5.771  21.046  13.308
56808W        W22068  10.611  23.317  12.101
56809W        W22069  42.873  32.402   2.360
56810W        W22070   5.844  27.714   1.725
56811W        W22071  14.459  34.437   1.274
56812W        W22072  10.814  37.831  11.985
56813W        W22073  21.628  23.484   3.213
56814W        W22074   6.301   3.253  10.170
56815W        W22075  11.721   4.460   0.752
56816W        W22076   5.404  36.618   1.330
56817W        W22077  22.061  41.246  14.692
56818W        W22078  26.161   3.671  11.147
56819W        W22079  32.915  36.314   2.907
56820W        W22080  31.768  26.515   2.669
56821W        W22081  35.884  41.879   0.814
56822W        W22082  31.040   3.763  14.370
56823W        W22083  12.289  15.702   2.298
56824W        W22084  38.667  17.924   3.533
56825W        W22085   6.141   4.945  12.657
56826W        W22086  16.994  22.065   3.635
56827W        W22087  14.234  17.473  12.069
56828W        W22088  28.187  36.083  11.430
56829W        W22089   3.205   9.636  10.588
56830W        W22090  34.418  23.435   0.859
56831W        W22091  23.741  23.566   3.270
56832W        W22092  35.797  28.736  12.185
56833W        W22093  19.006  36.574   1.810
56834W        W22094   7.577  32.218   1.866
56835W        W22095  44.050  20.304  14.929
56836W        W22096  44.792  40.479   1.309
56837W        W22097  17.018   6.315  10.297
56838W        W22098  16.875   0.546   4.354
56839W        W22099  40.447  12.870  14.792
56840W        W22100  21.751   7.343  11.564
56841W        W22101  27.676  40.298  14.470
56842W        W22102  31.649  36.017   3.580
56843W        W22103  24.647  38.603  13.939
56844W        W22104  16.719  41.102  11.120
56845W        W22105  43.504  14.044   3.858
56846W        W22106  12.376   2.296  11.663
56847W        W22107  44.250  38.970  11.951
56848W        W22108  25.920   3.012  12.436
56849W        W22109  26.516   4.759   1.715
56850W        W22110   4.355   8.679   3.172
56851W        W22111  12.263   9.358  13.311
56852W        W22112  20.180  19.149   4.551
56853W        W22113  20.737  21.265   2.174
56854W        W22114  21.203  17.297   4.574
56855W        W22115  40.497  37.949  14.717
56856W        W22116  10.688  30.615  10.938
56857W        W22117  32.499  37.372  11.732
56858W        W22118  10.467   0.627  11.073
56859W        W22119  39.538   8.142   3.357
56860W        W22120  32.320  44.772   3.202
56861W        W22121  37.928  28.837  13.016
56862W        W22122  15.853  33.443   2.432
56863W        W22123  20.473  34.428   1.320
56864W        W22124  22.892  13.564  11.661
56865W        W22125   7.302  31.790  10.602
56866W        W22126  17.243  15.137   1.916
56867W        W22127  42.949  36.053   1.873
56868W        W22128  21.138  43.559   3.657
56869W        W22129   4.857  41.784   5.040
56870W        W22130  19.199   1.027  10.458
56871W        W22131  23.941  41.377   1.294
56872W        W22132  30.079  23.618   1.289
56873W        W22133  25.964  43.130   1.232
56874W        W22134   8.475  21.725   2.774
56875W        W22135  23.168  33.740   2.014
56876W        W22136   0.772  25.288   0.467
56877W        W22137  32.439   7.971  11.311
56878W        W22138  14.290  28.518   3.729
56879W        W22139  17.009  38.331   1.920
56880W        W22140  34.003  44.865   2.626
56881W        W22141  31.421  33.117   4.432
56882W        W22142  35.877  40.135   2.774
56883W        W22143  14.729  32.543  11.606
56884W        W22144  16.545   8.258  11.440
56885W        W22145  15.910   3.653  11.128
56886W        W22146  17.511  42.366  12.411
56887W        W22147  35.554   5.335   3.708
56888W        W22148   9.638   6.098   0.362
56889W        W22149  19.268  18.219  14.845
56890W        W22150   0.506  14.695   0.445
56891W        W22151   3.073   9.814   4.540
56892W        W22152  38.593  11.301  12.112
56893W        W22153   4.692  21.761  13.763
56894W        W22154  42.843   0.334   0.819
56895W        W22155  14.088  28.993   1.323
56896W        W22156  29.651  10.642  10.732
56897W        W22157  21.945  27.446  11.604
56898W        W22158   7.980  27.466   0.499
56899W        W22159  20.488  13.138   0.087
56900W        W22160  11.779   5.735  11.134
56901W        W22161   3.747  43.513   1.162
56902W        W22162  18.360  18.214   0.242
56903W        W22163  24.267  33.950  11.917
56904W        W22164  22.823  17.076  10.629
56905W        W22165  12.604  38.407   4.259
56906W        W22166  21.547  42.912  11.954
56907W        W22167  15.030  38.842  10.736
56908W        W22168   0.500  20.113   1.899
56909W        W22169  19.899  24.966   4.597
56910W        W22170  40.563  22.937   3.733
56911W        W22171   4.576  26.129   1.623
56912W        W22172   0.218  16.246   0.854
56913W        W22173  16.810  36.961   1.736
56914W        W22174  26.521   5.746   4.226
56915W        W22175  11.683   3.866   1.902
56916W        W22176  31.072  30.408  13.790
56917W        W22177  27.939  12.101  14.187
56918W        W22178   3.797   1.372   2.753
56919W        W22179  44.572   8.497   1.150
56920W        W22180  32.412  30.987  11.966
56921W        W22181  23.267   5.347  13.459
56922W        W22182   5.422  25.182  13.877
56923W        W22183   7.697  41.475   4.757
56924W        W22184   5.715  33.095   3.691
56925W        W22185   3.124   8.161   2.578
56926W        W22186  38.404  32.343   4.025
56927W        W22187  28.916  24.431  13.030
56928W        W22188   5.457  24.065   4.564
56929W        W22189  38.774  38.847  12.840
56930W        W22190   6.742  10.554  11.143
56931W        W22191  38.539  18.137  11.026
56932W        W22192  12.783  25.192  10.558
56933W        W22193   2.622   0.033  13.848
56934W        W22194  18.314  44.144   0.856
56935W        W22195  28.759  33.348   3.688
56936W        W22196  34.859  40.065   1.875
56937W        W22197  32.309  35.393   2.338
56938W        W22198   9.615  23.131  11.219
56939W        W22199   2.421  34.121   1.838
56940W        W22200   0.388  22.059  12.434
56941W        W22201  23.392  21.965   3.853
56942W        W22202  18.437  21.147  11.680
56943W        W22203  34.211   5.416   2.244
56944W        W22204  41.907  15.712   0.303
56945W        W22205  43.941  10.891   1.080
56946W        W22206  38.016   5.683   1.696
56947W        W22207  18.156  12.822  14.274
56948W        W22208  17.165   0.529   0.887
56949W        W22209   0.879   8.486  11.159
56950W        W22210  19.220   1.447   4.235
56951W        W22211  44.361  36.911  12.413
56952W        W22212  27.575  19.943   2.410
56953W        W22213  44.788  24.966  12.995
56954W        W22214  12.064  29.541  10.438
56955W        W22215  29.520  41.559   2.843
56956W        W22216  16.864  31.661   0.426
56957W        W22217  23.178  32.735   2.327
56958W        W22218   2.905  17.531  14.407
56959W        W22219  16.434   8.681   4.265
56960W        W22220   7.781   4.950  12.454
56961W        W22221  35.907  15.094   3.157
56962W        W22222  25.010   9.335   3.110
56963W        W22223  12.259  16.577  10.608
56964W        W22224  24.536  26.165  10.718
56965W        W22225   8.633  21.925   0.213
56966W        W22226  12.557  27.193   4.001
56967W        W22227  14.115   6.975  13.081
56968W        W22228   8.341  19.873   1.385
56969W        W22229  18.429  36.812   0.863
56970W        W22230  28.200  40.804  13.959
56971W        W22231   4.376   5.361   1.479
56972W        W22232  36.345  14.221   2.034
56973W        W22233  44.441  12.289   0.828
56974W        W22234  38.770  39.860   0.797
56975W        W22235  41.720  34.360  14.054
56976W        W22236  10.725  12.754  12.906
56977W        W22237  29.746  26.161  11.480
56978W        W22238  38.423  17.588   0.399
56979W        W22239  30.167  19.697  13.244
56980W        W22240  43.733  18.765   0.946
56981W        W22241  10.308  39.595   4.722
56982W        W22242   9.694  27.551  10.897
56983W        W22243  44.211  37.148   4.942
56984W        W22244  14.831   7.963   4.556
56985W        W22245   0.372   0.089   3.408
56986W        W22246  35.571  40.124   0.744
56987W        W22247  17.571  16.297   2.139
56988W        W22248   3.739  30.362   1.891
56989W        W22249  37.101  25.605   3.034
56990W        W22250  18.141  11.873   4.325
56991W        W22251  27.994   1.854   4.100
56992W        W22252   7.424   6.561   0.375
56993W        W22253  17.220   5.610  13.921
56994W        W22254  27.831  17.301   1.284
56995W        W22255  10.090  39.946  13.230
56996W        W22256   9.101  41.658  12.347
56997W        W22257  12.660   9.268   1.197
56998W        W22258  16.752  15.872   2.130
56999W        W22259  16.517  40.024   2.623
57000W        W22260  18.076  35.005  12.609
57001W        W22261  39.397  43.266   4.435
57002W        W22262   8.127  40.473   3.753
57003W        W22263  24.504  24.180   1.677
57004W        W22264   9.179  21.153   2.739
57005W        W22265  31.900  37.837  14.885
57006W        W22266  21.758  43.168   4.707
57007W        W22267  22.204  10.257  13.953
57008W        W22268  31.366   9.254  10.527
57009W        W22269  13.659  31.983   0.823
57010W        W22270  39.936  30.880  13.468
57011W        W22271  30.504  40.284   0.380
57012W        W22272  22.962  22.305   1.400
57013W        W22273  28.286   2.917   0.213
57014W        W22274  32.616   5.409  10.329
57015W        W22275   1.215  13.355  14.482
57016W        W22276  38.250  21.945  12.207
57017W        W22277  37.876  35.519  10.730
57018W        W22278  21.102  42.836   1.274
57019W        W22279  44.302  42.325  13.850
57020W        W22280  20.127   1.780   1.305
57021W        W22281  35.933  39.457  10.462
57022W        W22282  40.780  36.628   2.431
57023W        W22283   7.347  26.871   2.854
57024W        W22284  15.049  42.540   3.189
57025W        W22285   6.212  26.665   9.644
57026W        W22286  41.657  30.831   3.771
57027W        W22287  36.763   4.484  11.052
57028W        W22288  44.798  10.732  10.680
57029W        W22289  35.473   7.999   2.393
57030W        W22290   2.495  44.489  11.144
57031W        W22291   3.422   9.857   2.763
57032W        W22292   7.405  20.111   3.198
57033W        W22293  10.325  22.034   1.856
57034W        W22294  28.378   4.524  10.644
57035W        W22295  13.056  12.701  14.687
57036W        W22296   2.781  11.915  14.941
57037W        W22297  39.714  42.818   3.530
57038W        W22298  31.104  43.070  14.233
57039W        W22299  20.634  31.397  14.977
57040W        W22300  24.249  42.442  14.291
57041W        W22301  25.416  25.026   3.768
57042W        W22302  37.681  34.499  13.378
57043W        W22303  16.440  34.807   4.131
57044W        W22304   1.804  30.062  11.469
57045W        W22305  41.567  21.258  14.747
57046W        W22306  41.258   8.701   1.779
57047W        W22307  34.650  10.466  11.923
57048W        W22308  11.366   2.804  13.061
57049W        W22309  33.616  43.864   2.345
57050W        W22310  30.002  20.264  13.355
57051W        W22311  31.393   6.191   4.071
57052W        W22312  28.064  11.383   4.705
57053W        W22313  27.353   4.394   4.429
57054W        W22314  37.582  36.474   4.582
57055W        W22315   7.389  44.391  12.096
57056W        W22316  44.813  36.267  13.771
57057W        W22317  44.229   2.354  11.484
57058W        W22318  21.966  14.265   4.149
57059W        W22319   6.289  28.312   0.467
57060W        W22320  20.308  19.596   2.388
57061W        W22321  37.089  41.825  11.593
57062W        W22322  22.522  40.741  14.764
57063W        W22323   4.725  23.730  13.344
57064W        W22324  26.988  27.875   3.269
57065W        W22325  36.687   6.132   2.257
57066W        W22326  28.825  27.204   2.722
57067W        W22327  41.679   1.198  11.062
57068W        W22328  44.426  18.125  14.765
57069W        W22329  38.345  36.938   2.433
57070W        W22330  23.054   4.128   4.732
57071W        W22331  32.866  13.130  12.377
57072W        W22332  27.462  39.518  11.221
57073W        W22333   5.648  26.615  14.882
57074W        W22334  38.098  42.619   2.126
57075W        W22335  18.180   3.948   4.360
57076W        W22336  17.864   9.194  12.106
57077W        W22337  18.164  35.914   2.703
57078W        W22338  31.111  11.993   2.282
57079W        W22339  24.624  28.463  10.555
57080W        W22340   1.359  43.728  13.534
57081W        W22341   0.185  22.742   1.225
57082W        W22342  24.602  22.283   0.830
57083W        W22343  43.241  14.801   4.283
57084W        W22344  42.349   2.947  12.405
57085W        W22345   6.657  37.105   0.083
57086W        W22346  23.975   4.784  14.817
57087W        W22347  21.234  39.494   0.378
57088W        W22348  27.505  32.507  10.658
57089W        W22349  10.379  12.348  10.880
57090W        W22350  28.423   0.798   2.447
57091W        W22351   5.426  39.345  10.784
57092W        W22352  24.486   9.621  12.863
57093W        W22353  44.456   5.256  13.907
57094W        W22354  30.548  26.698  11.173
57095W        W22355  30.951  23.091   1.389
57096W        W22356  29.473  24.953   4.129
57097W        W22357   3.871  33.434   3.585
57098W        W22358  42.240  37.509   3.223
57099W        W22359   0.770  43.070  13.953
57100W        W22360  17.077  26.270  14.929
57101W        W22361  11.405  34.858   3.795
57102W        W22362  11.322  20.855  13.906
57103W        W22363  30.621  38.855  11.157
57104W        W22364  34.328  22.936   0.817
57105W        W22365  42.670  22.087   0.719
57106W        W22366  12.638  21.453   3.331
57107W        W22367  10.610  19.653   2.304
57108W        W22368  12.257   5.142  12.263
57109W        W22369   4.709   5.233  10.364
57110W        W22370  31.887  21.485  13.588
57111W        W22371  41.453  25.913   2.435
57112W        W22372  35.952  37.884   2.336
57113W        W22373  15.062   0.386   3.189
57114W        W22374   6.001  31.666  13.855
57115W        W22375  25.931   0.416   2.813
57116W        W22376  12.848   1.651   3.317
57117W        W22377   4.243  23.596  13.444
57118W        W22378  12.144  12.544  14.967
57119W        W22379  43.218  40.774  11.444
57120W        W22380  38.771  35.069  14.057
57121W        W22381  17.348  22.774   3.167
57122W        W22382  10.676  29.955   5.823
57123W        W22383  38.891  43.172   4.041
57124W        W22384  17.791  12.107   1.226
57125W        W22385  21.260   7.264   0.233
57126W        W22386   3.463  42.890  12.106
57127W        W22387  40.047  16.217   0.930
57128W        W22388  44.478   8.145   0.288
57129W        W22389  16.162  28.515   1.774
57130W        W22390  22.006  32.829  11.045
57131W        W22391  19.555   5.678  12.439
57132W        W22392  12.750   7.609  13.321
57133W        W22393   3.416  22.010   3.583
57134W        W22394   8.418  22.951  13.402
57135W        W22395  35.476  28.657   1.205
57136W        W22396  15.319  20.052   0.869
57137W        W22397  40.421   9.336   4.592
57138W        W22398  44.453  18.838   0.350
57139W        W22399   3.925  24.016  13.463
57140W        W22400  10.511  28.490   2.685
57141W        W22401  32.136  28.735  11.941
57142W        W22402  23.137   4.382  11.681
57143W        W22403  17.483  24.495  13.770
57144W        W22404   2.945  10.454   3.353
57145W        W22405  19.646  24.380   2.777
57146W        W22406  36.913  44.911  13.768
57147W        W22407  11.628  15.267   4.679
57148W        W22408  17.180  23.613   2.798
57149W        W22409  18.932  37.506   1.684
57150W        W22410  33.120  36.979   0.622
57151W        W22411  27.039  41.336  11.371
57152W        W22412  21.897   5.825   1.339
57153W        W22413  24.532  31.674   3.791
57154W        W22414  19.611  34.244  12.553
57155W        W22415  26.204  27.062  12.020
57156W        W22416  33.017   8.879   3.652
57157W        W22417  36.984  14.559  11.975
57158W        W22418  24.942  22.195   3.865
57159W        W22419  44.254   4.393  12.599
57160W        W22420  28.949  32.883   2.824
57161W        W22421  20.482  13.206  12.262
57162W        W22422  29.000  33.141   3.263
57163W        W22423  15.721  26.470  14.353
57164W        W22424   5.269  17.320   4.601
57165W        W22425  34.857  25.249   4.604
57166W        W22426  18.115  29.599   3.642
57167W        W22427  18.270  34.444   4.111
57168W        W22428  19.561  24.485  11.968
57169W        W22429  26.191  17.027  11.035
57170W        W22430  43.369  24.603   2.821
57171W        W22431  12.800   4.438  12.119
57172W        W22432  13.307   7.943   0.332
57173W        W22433  40.147  22.653  12.512
57174W        W22434  39.912  13.101   2.823
57175W        W22435  10.413  23.764   3.216
57176W        W22436  17.727  32.633  13.483
57177W        W22437   4.323   9.323  14.384
57178W        W22438  38.468  35.892  13.918
57179W        W22439  31.042  12.391   3.253
57180W        W22440  20.479   6.361   0.245
57181W        W22441  10.710  43.927  11.452
57182W        W22442  13.297  33.560  12.413
57183W        W22443  27.265  28.345  12.941
57184W        W22444  10.325  43.742   4.549
57185W        W22445  37.508  40.389  11.201
57186W        W22446  26.077  40.369   3.738
57187W        W22447  15.835  43.274  14.001
57188W        W22448  29.617  31.538   3.672
57189W        W22449  12.177   7.925   2.717
57190W        W22450   0.724  24.219   2.770
57191W        W22451  43.355  32.855   0.699
57192W        W22452  18.871  14.200  14.597
57193W        W22453  12.766   4.954  12.140
57194W        W22454  13.184  24.506  11.151
57195W        W22455  43.836  17.138   1.652
57196W        W22456  13.093   0.495   3.975
57197W        W22457  27.450  30.945   2.680
57198W        W22458  23.047   3.769   1.749
57199W        W22459  14.737  14.028  11.058
57200W        W22460  25.573  34.579  14.533
57201W        W22461  19.756  21.342   4.594
57202W        W22462   1.958  30.974   1.424
57203W        W22463   4.738   1.867  13.831
57204W        W22464  31.325   2.697   4.131
57205W        W22465  41.763   7.878  12.343
57206W        W22466  24.590   9.051   3.902
57207W        W22467  18.349  28.740   2.242
57208W        W22468  35.994  32.702  13.466
57209W        W22469   7.110  12.082  14.803
57210W        W22470  36.066  12.617  12.651
57211W        W22471  14.173  35.406  11.709
57212W        W22472  23.946  33.109   3.605
57213W        W22473  15.189   3.664   1.860
57214W        W22474   3.315  34.256   1.953
57215W        W22475   2.363  43.247   2.856
57216W        W22476   8.301  18.125   0.534
57217W        W22477   7.802   5.161  12.920
57218W        W22478  19.875   0.401   2.412
57219W        W22479  38.410  25.193  12.759
57220W        W22480  30.034  27.528   4.507
57221W        W22481  27.457   8.902   1.150
57222W        W22482  24.501  24.442   4.498
57223W        W22483  17.528  31.508   1.938
57224W        W22484   7.458  43.486   3.002
57225W        W22485  41.955  19.592  14.795
57226W        W22486  26.161   8.343   0.680
57227W        W22487  28.310  26.904  11.210
57228W        W22488  29.564  10.279   4.679
57229W        W22489   5.997   2.863  14.568
57230W        W22490   5.490  26.469   3.663
57231W        W22491   8.618   1.337   0.390
57232W        W22492   3.665   8.407   1.986
57233W        W22493  32.188  14.741   4.584
57234W        W22494  24.491  31.452  11.125
57235W        W22495  12.705   8.369   2.137
57236W        W22496  22.668  42.352  10.246
57237W        W22497  34.541  16.083  13.344
57238W        W22498  21.336   5.557   3.905
57239W        W22499  43.791   8.243   2.284
57240W        W22500   7.457   4.841   4.665
57241W        W22501  24.126   2.797   1.057
57242W        W22502  34.128  26.248   3.533
57243W        W22503   5.142  23.635   4.682
57244W        W22504  23.012   5.905  14.060
57245W        W22505  29.640   3.832  11.511
57246W        W22506  19.591  26.047   3.606
57247W        W22507  36.657   3.613   4.149
57248W        W22508  23.612  22.253   2.820
57249W        W22509  30.923  41.304  13.506
57250W        W22510  16.732  13.977  14.051
57251W        W22511  40.361  39.096   3.642
57252W        W22512  34.634  22.040  13.401
57253W        W22513  13.891  17.717   3.607
57254W        W22514   5.805  15.261   2.112
57255W        W22515  40.016  41.939  11.999
57256W        W22516  20.682   0.461  12.511
57257W        W22517  38.923  21.013   1.218
57258W        W22518   3.662  17.493  13.865
57259W        W22519  27.893  16.648   3.517
57260W        W22520  44.683  34.491  10.322
57261W        W22521  21.099  27.162   3.868
57262W        W22522  33.577   1.827   3.110
57263W        W22523   9.340  38.445  11.942
57264W        W22524  44.626  19.007   4.461
57265W        W22525  32.560  13.900   2.768
57266W        W22526   5.826  33.104   2.722
57267W        W22527  29.478  34.972   3.217
57268W        W22528   9.569  19.401   3.261
57269W        W22529  40.021  20.541  11.095
57270W        W22530  38.945  19.318  10.702
57271W        W22531  33.533  40.917   0.812
57272W        W22532   5.162  26.622   3.235
57273W        W22533  27.021  18.684   3.607
57274W        W22534  28.246  11.681  11.217
57275W        W22535  12.760  13.014   2.773
57276W        W22536  31.900  21.709  13.106
57277W        W22537  19.493   3.195   2.197
57278W        W22538  11.783  18.533  10.772
57279W        W22539  24.277  41.047   4.364
57280W        W22540  33.225  22.490   0.268
57281W        W22541  18.113  10.339   3.947
57282W        W22542  14.045  28.062  11.165
57283W        W22543   4.702  23.201   5.343
57284W        W22544  30.231  41.578  13.960
57285W        W22545  20.553  41.994   1.006
57286W        W22546  10.790   0.266   1.607
57287W        W22547  16.235  26.030  13.074
57288W        W22548  33.420  12.389   0.979
57289W        W22549  35.580  15.624   3.814
57290W        W22550  14.556  42.909  14.289
57291W        W22551  27.029  44.790   3.306
57292W        W22552  43.903  31.639  10.554
57293W        W22553   8.294  30.849   3.932
57294W        W22554  21.392  30.530   4.980
57295W        W22555  43.846  26.723   0.806
57296W        W22556  24.189   9.446  13.814
57297W        W22557  33.922  30.952  11.529
57298W        W22558  32.318  31.997   1.337
57299W        W22559  24.520  32.543  13.638
57300W        W22560  17.231  10.197   0.513
57301W        W22561  31.986  24.637  14.762
57302W        W22562  15.039  16.161   3.852
57303W        W22563  13.041   4.798   0.586
57304W        W22564  15.056  30.386   0.769
57305W        W22565  40.579  26.588  13.234
57306W        W22566  17.361  40.700   1.455
57307W        W22567  26.041  15.818  10.337
57308W        W22568  21.120  32.642   4.216
57309W        W22569  32.463   5.130   1.815
57310W        W22570   6.687   3.237  12.323
57311W        W22571  16.209   3.472  11.514
57312W        W22572   7.876   7.631   1.930
57313W        W22573  39.019   3.721   1.007
57314W        W22574  16.781  33.523   0.031
57315W        W22575  16.986  33.553   1.784
57316W        W22576  28.689  23.459  11.538
57317W        W22577  42.779   5.728  11.205
57318W        W22578  31.071  28.171  13.333
57319W        W22579   6.721  29.588   4.307
57320W        W22580  42.850   4.696  14.074
57321W        W22581  31.943  17.070   1.949
57322W        W22582  14.247  31.675  10.442
57323W        W22583   8.510  12.763   4.827
57324W        W22584  34.886  23.547  12.535
57325W        W22585   4.209  10.384  11.953
57326W        W22586  31.966  15.003   3.629
57327W        W22587   9.317  20.093   1.700
57328W        W22588  42.248  41.128  11.687
57329W        W22589  33.642  31.940   4.180
57330W        W22590  40.692  39.187   2.711
57331W        W22591  36.559  12.934  11.359
57332W        W22592  16.597  32.808   3.615
57333W        W22593  41.309   0.761   0.395
57334W        W22594  20.452  34.995  11.200
57335W        W22595   8.576  38.082  10.730
57336W        W22596  35.885  20.720   0.263
57337W        W22597  42.540  35.949  13.040
57338W        W22598  40.991  26.113   2.267
57339W        W22599   3.947  19.143  14.564
57340W        W22600  44.443  43.400   4.795
57341W        W22601  39.485  11.452  11.831
57342W        W22602   9.354   5.885  14.592
57343W        W22603  22.714  41.886  12.059
57344W        W22604  40.264  38.905  13.509
57345W        W22605  32.901  15.978   4.247
57346W        W22606  33.444  16.738   0.167
57347W        W22607   9.190  43.641   1.996
57348W        W22608  20.084  39.053  11.046
57349W        W22609  31.917  14.637   1.871
57350W        W22610  11.891  41.024  14.928
57351W        W22611  28.531  41.765   1.847
57352W        W22612  28.630  38.949   4.405
57353W        W22613  16.061  27.874  14.613
57354W        W22614  10.893  14.262   4.134
57355W        W22615  10.238   9.400  14.040
57356W        W22616  44.548  33.898  13.775
57357W        W22617  19.927  39.236  14.897
57358W        W22618  42.866  33.164  11.635
57359W        W22619   8.633  17.532  11.111
57360W        W22620  29.493  23.456  11.195
57361W        W22621  13.780  25.193   3.442
57362W        W22622  12.388  42.855  12.022
57363W        W22623  11.279  29.572  11.803
57364W        W22624   3.453  24.577   3.685
57365W        W22625  25.101  37.907  10.614
57366W        W22626  20.279  16.748   1.522
57367W        W22627   5.516  28.891   0.947
57368W        W22628  44.771  19.228  13.302
57369W        W22629  35.881   9.721   0.916
57370W        W22630  12.876  30.603  11.458
57371W        W22631  11.527  12.155   2.727
57372W        W22632  11.240  14.824  10.692
57373W        W22633  10.425  13.155  14.405
57374W        W22634  36.004  27.425   0.013
57375W        W22635  14.449  14.366   1.317
57376W        W22636  15.717  36.415  11.976
57377W        W22637  15.390  16.160   1.920
57378W        W22638   9.703  41.502   2.197
57379W        W22639  20.676  14.136   1.204
57380W        W22640  39.979  25.470  14.965
57381W        W22641  28.635  13.818  14.761
57382W        W22642  39.787  34.854  14.827
57383W        W22643   6.819   1.354   4.291
57384W        W22644   7.332  40.281  10.685
57385W        W22645  21.703  15.151   4.240
57386W        W22646  25.561  39.838   0.051
57387W        W22647  26.924  28.988   4.538
57388W        W22648  24.586  39.273   2.407
57389W        W22649  31.571  24.850   2.454
57390W        W22650  33.215  16.596   1.314
57391W        W22651   9.228  24.699  11.648
57392W        W22652   3.950  41.043   2.788
57393W        W22653   7.718  39.433   1.446
57394W        W22654  44.340  34.572  14.965
57395W        W22655  22.056  21.997   1.665
57396W        W22656  27.978   5.367  11.982
57397W        W22657  21.148  17.325  14.442
57398W        W22658  36.564  35.089  12.964
57399W        W22659  26.584  12.593   2.912
57400W        W22660  35.082  23.958   0.284
57401W        W22661  26.560   4.920  12.493
57402W        W22662  18.851  38.963   4.205
57403W        W22663  20.262   5.230   4.206
57404W        W22664  10.250  10.753   4.640
57405W        W22665   1.361   0.391   3.374
57406W        W22666  12.783  37.081  10.713
57407W        W22667  43.618  41.077  11.460
57408W        W22668   7.020  44.728  14.870
57409W        W22669  29.167  42.456   0.811
57410W        W22670  38.909  35.856  14.471
57411W        W22671   0.953  23.159  14.022
57412W        W22672  20.530  35.184  12.029
57413W        W22673  43.450  22.495  13.434
57414W        W22674  15.005  14.093  10.074
57415W        W22675   7.941  16.546  11.116
57416W        W22676  27.204  37.820   0.816
57417W        W22677  18.167  21.660   1.131
57418W        W22678  41.393  35.560  13.933
57419W        W22679  39.410   0.846   4.444
57420W        W22680   4.277  25.645  13.997
57421W        W22681   6.330  18.052   4.361
57422W        W22682  40.976   4.799  13.471
57423W        W22683  14.785  12.767   0.396
57424W        W22684  10.299  38.541   4.631
57425W        W22685  28.246  15.451  13.628
57426W        W22686  21.227  20.073  13.942
57427W        W22687   8.334   6.235  13.521
57428W        W22688  41.947  28.851   2.320
57429W        W22689   2.871  33.641  14.356
57430W        W22690  14.000  12.876   2.678
57431W        W22691   1.873  16.592   4.491
57432W        W22692   4.192  22.616   1.695
57433W        W22693  15.794  20.231  13.538
57434W        W22694  33.963  29.671  11.067
57435W        W22695  31.004  41.599  14.372
57436W        W22696  10.654  29.072  11.473
57437W        W22697  15.077   1.255   0.261
57438W        W22698  22.264  22.051   2.629
57439W        W22699  37.102  18.245   1.951
57440W        W22700  24.056   4.741   3.109
57441W        W22701  34.098  24.425  13.068
57442W        W22702   2.045  22.886  14.488
57443W        W22703   4.836  20.255  14.770
57444W        W22704  33.864  42.310  10.760
57445W        W22705  16.231  18.324  14.528
57446W        W22706   0.506  20.537   2.854
57447W        W22707  29.052  23.501   4.539
57448W        W22708  13.720  29.997   4.101
57449W        W22709   7.171  32.500   0.426
57450W        W22710   3.171  17.122   2.387
57451W        W22711  37.545  37.775  14.327
57452W        W22712  28.290  17.192   0.887
57453W        W22713  13.534  14.835  13.392
57454W        W22714  23.146  28.623  11.414
57455W        W22715  21.229  14.237   0.663
57456W        W22716  26.066   9.129  11.052
57457W        W22717  19.183  17.589  12.094
57458W        W22718   2.737  29.590   0.374
57459W        W22719  43.416  26.304   1.410
57460W        W22720  10.618  29.663   5.123
57461W        W22721  21.253  29.905  12.246
57462W        W22722  32.118   6.369  14.904
57463W        W22723  30.198  17.534   0.520
57464W        W22724  33.516  38.874  11.546
57465W        W22725   5.967   7.879  13.425
57466W        W22726   5.925  19.771   3.355
57467W        W22727  25.013  11.221  11.051
57468W        W22728  31.896  20.723   2.346
57469W        W22729  36.980  33.259   3.308
57470W        W22730  25.059   7.755   2.233
57471W        W22731  35.449  19.767  12.084
57472W        W22732  41.874  12.326  12.934
57473W        W22733  42.313  32.444   3.576
57474W        W22734  25.671   7.143  13.922
57475W        W22735  10.781  31.968   1.458
57476W        W22736  40.857  21.314   3.969
57477W        W22737  25.725   3.166  13.546
57478W        W22738  26.516  25.296   0.914
57479W        W22739  36.784  42.549  13.899
57480W        W22740  25.952  22.687  12.411
57481W        W22741  32.498  34.124   4.326
57482W        W22742  19.411   0.330   3.323
57483W        W22743  22.567  41.563   1.062
57484W        W22744  23.659  11.317   4.568
57485W        W22745  19.361   0.221  12.302
57486W        W22746  21.805   0.150   3.150
57487W        W22747  17.312  37.514   4.977
57488W        W22748  10.137   6.400  14.977
57489W        W22749  10.447   8.830  13.334
57490W        W22750  40.572  17.824  14.072
57491W        W22751  22.195  30.592  11.629
57492W        W22752  32.991  19.719  13.770
57493W        W22753  14.241  10.320   1.649
57494W        W22754   9.400  23.032  13.402
57495W        W22755  42.045   0.954   0.495
57496W        W22756  34.999  10.243  14.790
57497W        W22757  30.079   1.881  10.686
57498W        W22758  38.358  15.149   3.837
57499W        W22759  12.067  27.585  10.562
57500W        W22760  33.105   9.069   0.681
57501W        W22761  11.199   9.632   2.810
57502W        W22762  38.796  16.900   2.134
57503W        W22763  20.818  30.475   3.930
57504W        W22764  43.099  33.544   1.191
57505W        W22765   7.961  34.512  13.827
57506W        W22766  12.104   0.124   1.246
57507W        W22767  42.856  15.728  13.383
57508W        W22768  43.383  10.717   5.430
57509W        W22769   6.698  34.664   4.095
57510W        W22770  27.178  19.252  14.296
57511W        W22771  13.709  43.451   1.797
57512W        W22772  42.358  37.035   4.920
57513W        W22773  39.382   9.707   4.044
57514W        W22774   3.973   6.245   0.661
57515W        W22775  33.310  31.084  13.973
57516W        W22776  31.680   8.089   2.210
57517W        W22777  22.634  15.788   2.185
57518W        W22778  40.996  35.268   4.571
57519W        W22779  25.756  33.138   3.715
57520W        W22780  28.186   8.693  14.061
57521W        W22781  29.844  25.546   0.717
57522W        W22782  23.365   0.157   3.246
57523W        W22783  33.989  41.081  11.560
57524W        W22784  19.626  28.248  11.541
57525W        W22785  33.831  24.138  13.975
57526W        W22786  23.229  29.444  10.833
57527W        W22787   2.171  38.662   4.943
57528W        W22788  20.654  39.796  12.052
57529W        W22789   7.819  44.208  13.005
57530W        W22790  36.874   8.421  14.496
57531W        W22791   0.968  44.486   4.042
57532W        W22792   4.623  42.796  13.635
57533W        W22793  22.672  38.429   3.331
57534W        W22794  21.653   7.400   3.824
57535W        W22795  15.839  15.758   1.349
57536W        W22796  44.005  18.300   0.932
57537W        W22797  11.086  23.454   2.670
57538W        W22798  39.812  14.145  11.134
57539W        W22799  10.495   8.633   3.645
57540W        W22800  20.238   2.512  11.164
57541W        W22801  36.851  16.458   2.189
57542W        W22802  28.740  13.103   1.217
57543W        W22803   1.963   8.892   0.921
57544W        W22804  33.859  22.311  13.871
57545W        W22805  28.211   4.388   0.279
57546W        W22806  12.707  21.056  10.687
57547W        W22807   2.676  28.460   3.658
57548W        W22808  40.433  10.282   1.907
57549W        W22809  25.820  19.791  13.800
57550W        W22810  13.853   1.415   4.064
57551W        W22811   5.196  41.543   1.907
57552W        W22812   6.683  35.690  10.436
57553W        W22813   9.202  40.047   4.139
57554W        W22814  42.405  44.589  11.570
57555W        W22815  36.131   0.939   3.103
57556W        W22816  36.885  18.137   4.674
57557W        W22817   8.992  17.104  13.304
57558W        W22818  12.315  22.674   2.182
57559W        W22819  43.976  26.106  13.052
57560W        W22820  32.405   0.473   1.451
57561W        W22821  36.867   3.375  10.270
57562W        W22822  34.772  30.468  12.590
57563W        W22823  14.034   6.920   4.655
57564W        W22824  35.651  23.748  14.817
57565W        W22825  20.046  31.915  12.336
57566W        W22826  22.010  12.953   4.510
57567W        W22827  29.455   7.291  13.042
57568W        W22828  30.113  16.226  14.187
57569W        W22829  26.672   3.828   3.173
57570W        W22830   2.562   0.318   3.693
57571W        W22831  31.391  35.852  11.636
57572W        W22832  28.306  11.970   1.190
57573W        W22833  17.207   6.323  14.600
57574W        W22834   8.613   7.917  11.566
57575W        W22835   1.443  11.365  12.781
57576W        W22836  38.032  30.221   4.073
57577W        W22837  11.788  20.736   4.315
57578W        W22838  16.054  41.324   0.814
57579W        W22839  39.884   5.779  14.856
57580W        W22840  29.183  40.494   3.230
57581W        W22841  38.098  16.097  14.040
57582W        W22842  30.569   9.641   2.229
57583W        W22843  36.125  11.816   4.076
57584W        W22844  33.322  10.975   0.788
57585W        W22845  31.457  40.512   2.695
57586W        W22846  29.071   8.311  13.911
57587W        W22847  32.419  11.987  14.724
57588W        W22848  12.577   8.647  14.491
57589W        W22849   1.317  35.322  11.641
57590W        W22850   0.433  34.439  14.361
57591W        W22851  29.326  34.551   2.929
57592W        W22852   9.193  39.777   1.344
57593W        W22853  12.845   1.861  13.267
57594W        W22854  17.490  19.103   2.608
57595W        W22855  21.620  33.422   4.838
57596W        W22856  18.894   0.277   3.320
57597W        W22857  19.484  13.510   2.786
57598W        W22858   8.857  43.290  12.957
57599W        W22859  41.506  14.293   3.686
57600W        W22860  18.365  44.255  14.423
57601W        W22861   9.241  36.598  13.021
57602W        W22862  34.962  24.661  11.562
57603W        W22863  12.088   1.287   1.813
57604W        W22864  21.760  35.887   0.937
57605W        W22865   2.360   6.923   5.030
57606W        W22866   2.001   9.600   3.610
57607W        W22867   6.084  16.744   4.041
57608W        W22868  12.594  12.249   2.881
57609W        W22869  18.231   3.298  12.405
57610W        W22870   8.838  20.549  11.255
57611W        W22871  13.886  41.783  11.201
57612W        W22872  18.380  14.259   1.933
57613W        W22873  29.548  10.899   0.258
57614W        W22874  16.743  27.035   4.071
57615W        W22875  33.136  20.085  14.118
57616W        W22876  31.433  13.206   3.132
57617W        W22877  38.088  15.180  12.445
57618W        W22878  34.985  23.290   4.253
57619W        W22879   7.868   5.718   0.156
57620W        W22880   3.219   0.512  14.842
57621W        W22881   9.330  38.518   4.190
57622W        W22882   9.711   2.518  11.583
57623W        W22883  12.054   8.635  14.596
57624W        W22884   6.448  11.395  13.850
57625W        W22885  17.793  18.542  14.468
57626W        W22886   9.137  24.027  13.866
57627W        W22887   6.219  41.112   1.818
57628W        W22888  30.853  16.596  10.859
57629W        W22889  43.048  35.576   0.388
57630W        W22890  16.917  40.041   4.037
57631W        W22891  44.936  39.556  11.551
57632W        W22892   1.323  39.238   1.524
57633W        W22893  38.958   5.176   2.302
57634W        W22894  23.236  36.963  14.042
57635W        W22895  44.492   6.808  10.536
57636W        W22896  21.815  26.135   2.476
57637W        W22897   1.521  25.582  14.843
57638W        W22898  35.917  20.269  10.744
57639W        W22899  21.780  28.706  11.564
57640W        W22900  44.833  20.274   2.177
57641W        W22901  10.701  21.963  13.610
57642W        W22902  32.892  21.212   1.179
57643W        W22903  10.422   9.265   4.232
57644W        W22904   7.311  40.332   3.340
57645W        W22905  31.241  39.828   4.729
57646W        W22906  26.498   8.837  11.007
57647W        W22907  24.394  11.695  10.368
57648W        W22908  37.463  18.698  12.874
57649W        W22909  38.035  25.273   4.242
57650W        W22910  20.763  23.829   3.850
57651W        W22911  40.272  18.014   0.388
57652W        W22912  40.457  12.090  10.702
57653W        W22913  26.570  39.803   1.347
57654W        W22914  22.736  31.932   1.312
57655W        W22915   5.888  43.774   4.159
57656W        W22916  36.065  19.479   0.704
57657W        W22917  17.102   3.430   1.809
57658W        W22918  26.469  22.804   4.561
57659W        W22919  27.999  30.401  11.563
57660W        W22920  39.587  20.613   2.018
57661W        W22921  43.864  30.997   3.071
57662W        W22922  23.387   4.175  10.712
57663W        W22923  26.114  12.996  14.689
57664W        W22924   9.899  30.423  10.690
57665W        W22925   1.720  39.801   3.154
57666W        W22926  30.190   8.169  14.895
57667W        W22927  27.430   8.249  14.357
57668W        W22928   5.578  23.966   0.857
57669W        W22929   1.468  22.145   4.068
57670W        W22930  37.595   8.505   1.249
57671W        W22931   7.109  33.497   1.932
57672W        W22932  36.485   9.248   3.879
57673W        W22933   4.662  37.794   3.306
57674W        W22934  32.484   0.771  12.883
57675W        W22935  24.989  31.270  13.423
57676W        W22936  24.271  31.730  11.512
57677W        W22937  13.838  28.419   4.005
57678W        W22938   0.786  30.650   2.820
57679W        W22939   8.649  35.320  13.071
57680W        W22940  10.335  33.630   4.619
57681W        W22941  16.268  13.871  13.013
57682W        W22942  30.506  36.357  11.642
57683W        W22943  30.669  14.323   4.205
57684W        W22944  24.928  23.726  10.283
57685W        W22945  41.824  34.950   2.740
57686W        W22946  13.343  42.708  12.757
57687W        W22947   2.165  16.395   3.417
57688W        W22948   5.465   5.766   4.665
57689W        W22949  33.978  23.058  13.148
57690W        W22950   6.833  13.551  12.071
57691W        W22951  13.809  19.893   0.546
57692W        W22952   4.702   0.922  13.625
57693W        W22953  22.554  16.203  11.098
57694W        W22954  31.993   2.347  14.355
57695W        W22955  11.720   9.332   0.335
57696W        W22956  38.567  31.489  12.050
57697W        W22957  24.258  21.587  14.747
57698W        W22958   5.272  43.994   2.360
57699W        W22959   2.421  27.179   2.833
57700W        W22960  12.698  33.378   4.289
57701W        W22961  43.944  44.803   0.128
57702W        W22962  24.662   7.431  12.449
57703W        W22963  16.979  11.823   4.604
57704W        W22964  30.482  10.317  14.908
57705W        W22965  10.250  34.634   0.350
57706W        W22966  44.009  37.950  11.024
57707W        W22967  32.500  19.673   4.116
57708W        W22968  44.268  30.872  14.008
57709W        W22969  39.071  24.957   5.060
57710W        W22970   9.911  28.164  14.841
57711W        W22971  32.942  16.082  11.874
57712W        W22972  24.472  15.521   2.339
57713W        W22973   5.938   3.749  14.426
57714W        W22974  36.054   1.211  14.809
57715W        W22975   8.670  41.780  14.800
57716W        W22976  35.902  14.694   1.777
57717W        W22977   2.345  16.411  11.093
57718W        W22978  33.980  37.659  14.930
57719W        W22979   8.243  16.234   2.902
57720W        W22980  44.468  40.636  14.361
57721W        W22981  38.337  37.894   4.122
57722W        W22982  11.269  19.496  10.691
57723W        W22983  20.118  39.824  10.562
57724W        W22984  41.545   7.606   4.480
57725W        W22985  13.722  24.794   3.822
57726W        W22986  18.296  42.234   1.245
57727W        W22987  23.680  34.558  14.718
57728W        W22988  41.440  23.729  13.992
57729W        W22989  32.142  27.483   1.151
57730W        W22990  39.923  29.488   0.452
57731W        W22991   7.738   8.312   1.327
57732W        W22992   7.366  29.393  12.169
57733W        W22993  42.940  15.271   1.479
57734W        W22994  38.544   6.082  12.513
57735W        W22995   7.814  28.565  13.370
57736W        W22996  17.119  25.891   2.968
57737W        W22997  25.917  33.950   3.337
57738W        W22998  20.014   9.717   0.525
57739W        W22999  12.607  24.119   0.626
57740W        W23000  34.190  21.894   1.900
57741W        W23001  10.911   1.906  12.902
57742W        W23002  23.464   0.437   2.784
57743W        W23003  28.351  41.724  11.149
57744W        W23004  27.938   1.878   1.590
57745W        W23005  21.917  23.194  12.086
57746W        W23006  35.418   7.670  12.413
57747W        W23007  29.137  15.767   0.818
57748W        W23008  31.852  33.898  13.822
57749W        W23009  44.293  41.420  13.840
57750W        W23010  17.324  26.714  10.667
57751W        W23011   2.875  13.410  12.814
57752W        W23012  34.513  35.403  11.510
57753W        W23013  38.931   4.490  14.520
57754W        W23014  11.849  42.255   3.158
57755W        W23015   6.181  13.940   4.693
57756W        W23016  21.879   7.840   1.178
57757W        W23017  30.410   8.794   2.295
57758W        W23018   6.360  13.882   2.250
57759W        W23019  16.415  22.146   0.401
57760W        W23020  42.319   3.386  14.930
57761W        W23021   0.528  27.094  14.536
57762W        W23022  19.324   2.878  11.575
57763W        W23023  31.980  18.391  14.240
57764W        W23024  28.524  38.559   0.094
57765W        W23025  39.341  43.004   2.363
57766W        W23026  40.949  21.851  12.409
57767W        W23027  21.116   8.000  10.189
57768W        W23028   2.493   1.899  14.943
57769W        W23029   6.126  20.171  14.390
57770W        W23030  41.827  14.739  10.572
57771W        W23031  28.509   8.717   1.727
57772W        W23032  40.826  30.558   4.365
57773W        W23033  26.428  36.800  13.041
57774W        W23034  11.298  13.089  14.700
57775W        W23035   3.747  13.733   1.503
57776W        W23036  26.919   3.245  11.551
57777W        W23037  26.719   4.358   5.064
57778W        W23038   9.721  22.066   0.827
57779W        W23039  14.603   3.862   0.452
57780W        W23040  12.651  40.086  12.768
57781W        W23041  24.440   0.261   1.002
57782W        W23042   3.330  14.213   2.207
57783W        W23043   3.184  32.329   0.761
57784W        W23044  20.148   9.413  12.517
57785W        W23045  19.644  33.409   4.659
57786W        W23046  43.058  34.608   3.780
57787W        W23047  35.089  42.378  14.744
57788W        W23048  11.616  27.060  12.934
57789W        W23049  12.685  39.499  13.456
57790W        W23050  42.453   3.521  11.065
57791W        W23051  28.456  35.134   2.348
57792W        W23052   2.755  26.783  14.875
57793W        W23053   9.680  10.723   1.472
57794W        W23054  29.890   2.804   4.449
57795W        W23055  38.311   8.163   4.199
57796W        W23056  22.672   9.318   4.694
57797W        W23057  44.263  42.975  12.580
57798W        W23058  30.950  30.508   1.198
57799W        W23059  18.467  41.725   1.426
57800W        W23060  15.117   0.743   1.662
57801W        W23061   6.835  35.350   1.248
57802W        W23062  26.684   9.872  12.009
57803W        W23063   4.356   2.898   0.475
57804W        W23064  33.586  17.824  11.876
57805W        W23065  37.607  41.157  14.943
57806W        W23066  42.739  23.645   3.259
57807W        W23067   3.531  10.733   0.493
57808W        W23068  39.492  41.478  13.256
57809W        W23069  16.306   8.859   4.742
57810W        W23070  18.559   2.325  11.526
57811W        W23071  24.210  38.488  14.223
57812W        W23072  27.968  35.404  12.417
57813W        W23073  34.568  41.304   3.686
57814W        W23074   8.172  15.603   3.706
57815W        W23075   1.392  22.943   1.370
57816W        W23076  40.710   6.292  10.310
57817W        W23077  39.301  27.142   0.415
57818W        W23078  10.184  11.390   1.612
57819W        W23079   9.802  20.114   1.474
57820W        W23080  13.691   9.099   3.812
57821W        W23081   5.011  37.457   9.850
57822W        W23082  24.219  17.537  13.398
57823W        W23083  16.408  44.766  12.119
57824W        W23084   6.100  30.928  12.832
57825W        W23085  41.462  38.728  13.835
57826W        W23086  25.234  10.985  14.834
57827W        W23087  25.564  21.816  12.767
57828W        W23088  25.513  23.811   2.841
57829W        W23089  11.097  24.073  12.502
57830W        W23090  39.040  28.695  10.669
57831W        W23091  13.741  25.643   0.747
57832W        W23092  33.576  17.766   3.733
57833W        W23093   2.766  22.239   4.248
57834W        W23094  27.330   3.063  11.324
57835W        W23095  31.711  17.596  11.962
57836W        W23096  26.233  33.418  11.974
57837W        W23097  38.994  35.550  13.968
57838W        W23098  11.830  10.181   3.145
57839W        W23099  38.018  33.431   0.445
57840W        W23100  26.495  29.815  10.657
57841W        W23101   5.217  13.361  14.941
57842W        W23102   1.383   4.399   4.663
57843W        W23103  31.547   7.104  14.995
57844W        W23104  26.745  14.225   4.621
57845W        W23105  10.363  10.130  12.858
57846W        W23106  22.609  36.009  12.559
57847W        W23107  15.131  26.831  12.805
57848W        W23108  40.857  15.500   4.886
57849W        W23109   0.040   8.313   2.379
57850W        W23110   1.846  20.676   0.310
57851W        W23111  29.200  21.178  11.076
57852W        W23112  18.205   8.535   3.714
57853W        W23113  35.036  22.983   0.398
57854W        W23114  32.337  34.796   3.823
57855W        W23115  35.152  32.281   4.145
57856W        W23116   1.718  17.011  10.589
57857W        W23117   7.144  32.603   3.674
57858W        W23118  16.103  36.154  14.841
57859W        W23119  39.807   8.729   3.596
57860W        W23120  37.227   8.334  13.526
57861W        W23121  30.956   4.404  14.042
57862W        W23122  16.289  28.356  10.400
57863W        W23123   6.138  22.196  11.074
57864W        W23124   3.544  13.206  11.003
57865W        W23125  29.852  39.927   1.827
57866W        W23126  40.099  22.692  14.288
57867W        W23127  13.747  37.959   1.721
57868W        W23128   1.656   9.603   4.893
57869W        W23129  12.162  39.386  11.186
57870W        W23130  30.008  26.741   0.870
57871W        W23131  32.512  27.667  12.425
57872W        W23132  27.651   3.023  11.720
57873W        W23133  25.706   8.480   4.500
57874W        W23134  18.843   6.306   3.270
57875W        W23135  40.598  13.227   3.396
57876W        W23136  38.514   8.403  12.039
57877W        W23137  41.476  41.581   0.942
57878W        W23138  10.352  36.155  11.536
57879W        W23139   5.486   3.773  12.650
57880W        W23140  12.490   3.547  12.987
57881W        W23141   4.649  28.540  10.732
57882W        W23142  30.877   3.650  11.002
57883W        W23143  27.143  10.688  14.711
57884W        W23144  20.508  37.647   4.630
57885W        W23145  23.999  42.829  10.371
57886W        W23146   4.859  41.577   1.423
57887W        W23147  22.226  16.390  11.454
57888W        W23148   5.751  11.840  14.327
57889W        W23149  42.803  30.102  12.813
57890W        W23150   6.657  25.865   2.305
57891W        W23151  25.641  14.596  14.355
57892W        W23152  39.945  22.163   0.469
57893W        W23153  23.653  14.145   1.873
57894W        W23154   6.379   8.557   0.307
57895W        W23155  18.083   4.446  11.903
57896W        W23156  30.617  10.707  13.501
57897W        W23157  44.458  23.641   1.923
57898W        W23158  24.074  24.488   1.684
57899W        W23159   4.773  23.686  14.946
57900W        W23160  22.107   1.475  13.577
57901W        W23161  36.701  18.823  12.615
57902W        W23162  29.540  31.024  13.498
57903W        W23163  41.159  28.937  11.686
57904W        W23164  32.327  20.540  13.999
57905W        W23165   4.352  26.480   5.058
57906W        W23166  12.888   9.664   0.889
57907W        W23167  10.432  42.839  14.150
57908W        W23168   3.210  10.128   2.306
57909W        W23169   7.713  21.524   4.127
57910W        W23170  44.980  36.601  11.871
57911W        W23171  42.537  21.992   0.239
57912W        W23172   5.289  29.629   4.140
57913W        W23173  25.956  34.331   4.621
57914W        W23174   9.007  25.661   9.844
57915W        W23175  35.297  10.438   3.485
57916W        W23176  10.659  33.159   1.908
57917W        W23177  23.522  44.940   0.224
57918W        W23178   4.181  22.108  14.340
57919W        W23179   1.874  15.223  14.498
57920W        W23180  15.026  16.787   3.266
57921W        W23181  32.227   4.896   4.571
57922W        W23182  31.659   4.747  10.671
57923W        W23183  18.745  35.516  11.748
57924W        W23184  34.375  14.354  13.879
57925W        W23185  38.024  44.158  14.859
57926W        W23186   6.231  29.516  11.477
57927W        W23187  17.852   4.811  10.697
57928W        W23188  28.525  17.294   4.739
57929W        W23189  40.268  33.623  12.383
57930W        W23190   8.172  35.450   0.301
57931W        W23191  16.336  16.512  10.812
57932W        W23192  20.497  21.712  13.279
57933W        W23193  30.362  14.220  12.221
57934W        W23194  13.356  30.989   3.607
57935W        W23195  38.754  30.965   2.721
57936W        W23196  23.989  20.825  14.525
57937W        W23197  43.893  24.615  14.863
57938W        W23198  36.126  17.057  14.986
57939W        W23199  11.590  24.819   0.431
57940W        W23200  22.702  18.988  14.381
57941W        W23201  36.434  34.947  10.091
57942W        W23202  11.740  23.639  12.444
57943W        W23203  22.575  36.389   3.112
57944W        W23204  29.854   2.666   0.367
57945W        W23205  22.997   8.387   4.718
57946W        W23206   1.519   6.156   2.716
57947W        W23207   8.328  17.532   4.112
57948W        W23208   1.846  29.022  10.505
57949W        W23209  31.194  10.796  12.491
57950W        W23210  39.383  37.832  13.874
57951W        W23211  39.180  42.022   1.746
57952W        W23212   6.200   5.418  12.863
57953W        W23213  13.217   5.408   1.354
57954W        W23214  39.301  14.800   3.594
57955W        W23215  26.592  35.089   9.562
57956W        W23216   8.348  30.525  10.635
57957W        W23217  17.045  44.731   1.828
57958W        W23218  17.190  38.126  13.274
57959W        W23219   5.310  19.882  14.283
57960W        W23220  43.699  44.871  12.859
57961W        W23221  41.747  24.340   4.559
57962W        W23222  35.465  11.809  14.096
57963W        W23223  44.970  26.656   4.199
57964W        W23224   5.190  36.945   3.555
57965W        W23225  40.518  27.400  13.638
57966W        W23226  41.482  27.170  14.589
57967W        W23227  40.530  36.874   3.734
57968W        W23228   4.327  44.985  12.238
57969W        W23229  42.120   5.917  12.449
57970W        W23230  24.996  21.529   4.527
57971W        W23231   8.809  38.897  14.328
57972W        W23232   7.024  41.572   2.843
57973W        W23233   5.857  24.162  13.113
57974W        W23234  34.669  30.809   0.255
57975W        W23235  29.427  26.837   4.754
57976W        W23236  42.089  34.627   2.374
57977W        W23237  33.490  33.357   3.889
57978W        W23238  34.981   3.309  11.184
57979W        W23239  39.062  17.286   4.018
57980W        W23240  41.040   2.428   0.730
57981W        W23241   7.496  39.090   4.171
57982W        W23242  16.280  10.455  13.181
57983W        W23243   9.804  12.744  12.871
57984W        W23244  41.529  27.479  12.085
57985W        W23245  42.481  10.133   2.921
57986W        W23246  35.058  41.613   2.077
57987W        W23247  11.422  39.560   2.618
57988W        W23248  23.023  31.725   2.271
57989W        W23249  11.280  14.938   1.221
57990W        W23250  16.099   4.427  14.475
57991W        W23251   0.031  37.857  14.911
57992W        W23252  39.425  44.466  12.162
57993W        W23253  28.278  35.436  13.679
57994W        W23254  23.068  29.584   1.163
57995W        W23255  20.230  37.612   3.321
57996W        W23256   3.901  19.771   3.311
57997W        W23257  13.240  27.079   4.785
57998W        W23258  22.113  31.894  13.905
57999W        W23259  28.267  19.598  10.567
58000W        W23260  24.977   1.771   2.171
58001W        W23261   7.543  11.629  12.608
58002W        W23262  20.205  42.588  14.874
58003W        W23263  16.389  36.005   1.998
58004W        W23264  28.748  44.330  13.065
58005W        W23265  40.212  30.111  12.078
58006W        W23266  27.172  30.374   2.306
58007W        W23267   8.905  39.402   3.464
58008W        W23268  31.947  29.430   3.112
58009W        W23269  22.116  38.837   0.273
58010W        W23270  33.092  17.820  14.946
58011W        W23271   5.776  40.618   1.700
58012W        W23272  39.099   7.693   0.579
58013W        W23273  33.765  24.150   2.712
58014W        W23274   1.814  21.964  12.507
58015W        W23275  19.683  28.708  12.402
58016W        W23276  22.973  17.961   4.941
58017W        W23277  16.353  14.694  13.261
58018W        W23278  43.924   1.370  11.616
58019W        W23279  38.496  13.829   3.948
58020W        W23280   7.979   2.199   5.000
58021W        W23281  38.697  18.767   5.101
58022W        W23282  41.066  22.963   1.749
58023W        W23283  30.861  37.220   0.888
58024W        W23284  37.052  28.483   3.745
58025W        W23285  30.057  37.440  12.055
58026W        W23286  38.315  28.078   3.171
58027W        W23287  13.331  38.246  11.118
58028W        W23288  25.577  28.189   4.861
58029W        W23289   1.850  24.401   1.275
58030W        W23290  37.399  27.306   3.164
58031W        W23291  24.823   2.375  11.592
58032W        W23292  27.048  35.850  14.464
58033W        W23293  30.131  16.398  12.839
58034W        W23294  29.416  23.263  13.504
58035W        W23295  11.084  21.682   2.253
58036W        W23296  35.090  16.908   4.936
58037W        W23297  24.942  10.746   2.741
58038W        W23298  28.941  42.181  13.878
58039W        W23299  19.629  44.496  13.331
58040W        W23300  25.007  24.687   2.699
58041W        W23301  12.761  25.185  14.232
58042W        W23302  31.074  34.993  13.578
58043W        W23303   2.035   2.363  12.947
58044W        W23304   3.947  26.398   2.349
58045W        W23305  44.441  14.798  10.033
58046W        W23306  41.380  10.245  11.906
58047W        W23307   4.179  33.415  11.960
58048W        W23308  20.126  42.221  11.442
58049W        W23309  18.075  24.779   3.783
58050W        W23310   2.847  43.078  13.810
58051W        W23311  23.454   0.348  13.500
58052W        W23312   6.764  15.811   1.695
58053W        W23313  28.998  39.413   1.258
58054W        W23314  22.005   6.123   4.940
58055W        W23315  18.903  41.431  10.795
58056W        W23316  16.849  27.484  11.139
58057W        W23317   2.871  11.928  10.872
58058W        W23318  20.439  20.575   0.880
58059W        W23319  38.024   5.457   3.043
58060W        W23320  17.201   4.778  13.495
58061W        W23321   0.981  39.938  13.223
58062W        W23322  13.169  24.250  13.112
58063W        W23323  25.211  25.281   1.783
58064W        W23324  44.651   0.445   2.766
58065W        W23325   0.347  40.354   0.805
58066W        W23326  25.577  37.828   3.254
58067W        W23327  35.442  17.981  10.801
58068W        W23328   1.918  36.393  12.095
58069W        W23329  25.596   4.551   0.344
58070W        W23330  42.202  43.056   1.923
58071W        W23331  15.934  37.873  13.342
58072W        W23332  21.353   5.199   0.712
58073W        W23333  11.862   5.316  11.428
58074W        W23334  32.751   3.842  12.654
58075W        W23335  10.191  18.982   4.100
58076W        W23336   1.756  26.057  11.236
58077W        W23337  16.689  36.963  14.122
58078W        W23338   7.178  30.557   3.824
58079W        W23339   4.067  16.577  13.950
58080W        W23340  41.899   2.069  13.862
58081W        W23341   4.942  29.432   1.980
58082W        W23342  35.062  37.985  12.881
58083W        W23343  34.493  42.560   2.350
58084W        W23344   5.945  44.105   2.011
58085W        W23345   0.073  25.221   1.269
58086W        W23346  33.942   4.331  11.902
58087W        W23347  39.930  36.426   3.505
58088W        W23348  29.135  40.261  13.450
58089W        W23349  27.449   4.534  13.970
58090W        W23350  32.925   4.685   9.841
58091W        W23351   8.113  25.627  12.117
58092W        W23352  11.985  29.873  10.017
58093W        W23353  10.394   2.867   2.871
58094W        W23354  10.816  38.349   0.259
58095W        W23355   0.937   2.790  13.454
58096W        W23356  35.084  24.991  12.517
58097W        W23357  32.132  17.124  14.849
58098W        W23358  22.360  33.476  10.071
58099W        W23359  35.199  15.332   0.005
58100W        W23360  33.612   9.671   3.835
58101W        W23361  26.590  30.488   0.614
58102W        W23362   1.021   1.946   3.648
58103W        W23363  22.650   6.403   4.311
58104W        W23364  24.177  14.808   1.595
58105W        W23365  15.863  21.776   2.338
58106W        W23366   4.264  29.209  14.853
58107W        W23367   4.294  35.889   3.695
58108W        W23368  29.029   3.958   2.226
58109W        W23369   9.282   7.927   4.939
58110W        W23370  15.346   8.324   3.583
58111W        W23371  35.564  33.001  13.291
58112W        W23372  43.461   9.561   1.111
58113W        W23373  26.207  16.390   1.717
58114W        W23374  38.074  42.869   1.677
58115W        W23375  29.514   2.876   4.819
58116W        W23376  11.828  29.204  11.303
58117W        W23377  22.001  44.505   3.098
58118W        W23378  37.553  25.697  14.983
58119W        W23379  14.098  12.009   0.163
58120W        W23380   1.839  10.420   0.962
58121W        W23381   0.998  16.700   4.255
58122W        W23382  35.822  11.486   0.846
58123W        W23383  40.546  20.455  13.068
58124W        W23384  27.264  23.783  12.855
58125W        W23385  35.563  31.356  12.601
58126W        W23386  40.031  35.557  10.693
58127W        W23387  38.855  19.584   0.795
58128W        W23388  41.305  12.761   0.864
58129W        W23389  25.024  27.927   4.189
58130W        W23390  27.451  17.248  14.830
58131W        W23391  41.464   2.968   4.383
58132W        W23392  14.333  30.945   0.680
58133W        W23393  34.054  32.087  12.043
58134W        W23394  24.986  22.088  14.907
58135W        W23395   5.493  11.616   0.176
58136W        W23396   9.911  37.356  14.004
58137W        W23397  15.657  37.104  10.505
58138W        W23398  24.033   5.674   2.917
58139W        W23399  37.134   7.735   3.667
58140W        W23400  13.720   3.198  10.691
58141W        W23401  33.474  23.221   1.724
58142W        W23402  35.797   8.148   0.843
58143W        W23403  20.052  27.914   1.964
58144W        W23404  15.672  19.780   3.297
58145W        W23405  28.593  38.096  10.984
58146W        W23406   9.719   3.405   1.809
58147W        W23407  33.631  30.812   5.065
58148W        W23408  12.783  25.258   1.744
58149W        W23409  38.092   6.014   1.309
58150W        W23410  25.022  40.228  13.465
58151W        W23411  24.101  38.713  11.113
58152W        W23412  33.614  22.149  13.412
58153W        W23413  14.376  39.069  13.823
58154W        W23414  21.614   5.784   2.083
58155W        W23415   1.556  14.082   1.357
58156W        W23416  15.663  40.315  10.469
58157W        W23417  10.901  37.072   3.612
58158W        W23418  34.804  13.133  12.524
58159W        W23419  19.850  33.416   2.319
58160W        W23420  36.074  16.870   4.192
58161W        W23421  41.492  22.661  13.063
58162W        W23422  38.169  23.197  12.479
58163W        W23423  32.225  25.435   4.452
58164W        W23424   9.279  28.149   3.144
58165W        W23425  32.431   0.141   2.363
58166W        W23426  19.095  21.624  12.005
58167W        W23427  16.676  24.499  13.488
58168W        W23428  29.762  27.349  12.740
58169W        W23429  42.417  32.323  12.688
58170W        W23430  27.613   1.502  14.085
58171W        W23431  30.661   2.954  12.017
58172W        W23432  21.731  12.141   1.551
58173W        W23433  11.672  17.287  14.924
58174W        W23434   5.396  22.550   1.183
58175W        W23435  32.797  20.348   2.719
58176W        W23436   8.161  15.437  13.444
58177W        W23437  18.963   3.769   1.107
58178W        W23438  11.783  24.890   2.233
58179W        W23439   4.720   3.390   0.983
58180W        W23440   8.417  43.290  13.792
58181W        W23441  38.223  39.950  10.168
58182W        W23442  20.527  31.053  13.086
58183W        W23443   7.120  38.215  11.627
58184W        W23444  22.599  13.827   4.548
58185W        W23445  33.490  42.860   3.703
58186W        W23446  35.462   8.164  10.518
58187W        W23447   4.316  37.676  13.944
58188W        W23448  32.325  32.373  12.951
58189W        W23449  20.624  18.590   4.676
58190W        W23450  41.184  19.697  12.800
58191W        W23451  43.923  15.787   3.441
58192W        W23452  14.373  22.657   4.703
58193W        W23453  15.479   2.287   1.800
58194W        W23454  22.838   0.441  14.215
58195W        W23455  25.926  35.967  13.826
58196W        W23456  37.584  28.138  10.397
58197W        W23457  40.458   8.599  14.341
58198W        W23458  42.286  16.062   0.342
58199W        W23459  36.246  26.092  11.611
58200W        W23460  40.900   5.934   4.632
58201W        W23461  32.836  18.306  14.003
58202W        W23462   7.876  19.646   1.857
58203W        W23463   0.331  41.847  14.280
58204W        W23464   3.099  10.646   1.425
58205W        W23465   4.412   0.269   1.566
58206W        W23466  38.813  16.041  11.875
58207W        W23467  25.101  38.225  13.250
58208W        W23468  16.761  40.043  13.772
58209W        W23469  33.512  31.025   3.169
58210W        W23470  26.424  25.601  13.379
58211W        W23471  41.532  23.704   2.168
58212W        W23472   3.185   2.274  14.544
58213W        W23473   8.808  26.915   3.275
58214W        W23474  30.647  41.372   3.144
58215W        W23475   4.290  40.255  14.971
58216W        W23476  39.008   1.919  14.102
58217W        W23477  19.580  27.763  12.927
58218W        W23478  10.378   6.067   4.019
58219W        W23479  40.755   8.609   3.266
58220W        W23480   4.339  22.006  12.010
58221W        W23481  12.205  13.193  14.266
58222W        W23482  33.629   2.749   2.934
58223W        W23483  34.862  24.670  13.450
58224W        W23484   2.224  30.012  11.214
58225W        W23485  26.127  10.099   0.356
58226W        W23486  28.582  32.790  13.852
58227W        W23487  11.541  32.904  11.199
58228W        W23488  22.906   2.939   3.353
58229W        W23489  10.625  41.525  13.985
58230W        W23490  16.861   0.603   4.901
58231W        W23491  23.324  24.982  14.005
58232W        W23492  32.698  32.064   1.671
58233W        W23493  17.876  33.652  14.291
58234W        W23494  37.384  44.562   1.314
58235W        W23495  18.748  32.659   3.741
58236W        W23496  43.430  22.207   0.344
58237W        W23497   5.861  26.943   1.290
58238W        W23498  43.214  41.897   2.770
58239W        W23499  28.743  24.212   3.272
58240W        W23500  14.827  16.690  12.830
58241W        W23501   1.591  23.167  12.002
58242W        W23502  19.496  25.340   1.410
58243W        W23503  24.597  43.415   3.980
58244W        W23504  18.781   1.722  12.355
58245W        W23505  32.721  15.148   0.369
58246W        W23506  15.317  10.486  12.630
58247W        W23507  17.346  31.879   2.571
58248W        W23508   5.274  41.031   1.906
58249W        W23509  27.925  38.564  10.328
58250W        W23510  21.291  24.494  11.995
58251W        W23511   7.639  44.556   4.117
58252W        W23512   1.246  17.756  13.813
58253W        W23513   4.755  25.028   2.334
58254W        W23514  26.542  21.134   4.124
58255W        W23515  10.364  24.124   1.268
58256W        W23516   0.860  41.552  14.985
58257W        W23517  14.355  30.891   3.157
58258W        W23518  37.068  13.753  13.493
58259W        W23519  38.692  22.842  11.394
58260W        W23520  40.749  33.092  12.524
58261W        W23521  26.393  22.724  14.112
58262W        W23522   0.654  22.507   1.259
58263W        W23523  27.977  19.475  14.801
58264W        W23524  36.592  18.719   0.727
58265W        W23525  18.519   2.704  11.136
58266W        W23526   9.680  21.000  13.002
58267W        W23527  36.066  36.448  12.496
58268W        W23528  29.401   9.095   3.277
58269W        W23529  26.666  25.217  10.682
58270W        W23530  40.275  25.898   4.100
58271W        W23531  34.469   1.552   3.619
58272W        W23532   4.343  25.032  14.489
58273W        W23533  21.660  30.958  11.045
58274W        W23534  12.249  11.074   0.985
58275W        W23535  20.509  12.215   3.177
58276W        W23536  39.588  42.656  12.511
58277W        W23537  19.019  31.978  12.397
58278W        W23538  21.513  38.896  13.273
58279W        W23539  43.129  39.865  12.750
58280W        W23540  12.576  13.825  14.393
58281W        W23541  41.047   9.437   0.160
58282W        W23542   7.493  16.991  13.970
58283W        W23543  15.481   6.744   0.298
58284W        W23544  27.486  17.219  14.310
58285W        W23545   3.669  22.231   4.392
58286W        W23546  19.476  32.281  11.208
58287W        W23547  43.415   8.176   4.658
58288W        W23548  20.269  21.684  14.092
58289W        W23549  16.777   6.845   1.254
58290W        W23550  22.251   1.976  13.479
58291W        W23551   9.761  30.559  11.955
58292W        W23552  44.266  35.826   3.282
58293W        W23553  38.043  37.114   3.601
58294W        W23554   1.413  10.897   1.499
58295W        W23555  25.505  43.778   1.935
58296W        W23556  39.069  20.858  13.976
58297W        W23557  23.306  40.701   1.160
58298W        W23558   3.192   1.315  10.977
58299W        W23559  35.064   5.765  13.427
58300W        W23560   2.693   3.551  12.464
58301W        W23561  20.994  39.762   1.468
58302W        W23562  40.322  32.034   1.207
58303W        W23563  29.646   8.402   3.214
58304W        W23564  10.255  29.578   2.597
58305W        W23565   0.063   3.284  11.936
58306W        W23566   8.091  11.803   2.177
58307W        W23567  39.114  43.481   2.277
58308W        W23568  44.895  12.767   3.250
58309W        W23569  18.093   1.298   0.506
58310W        W23570   7.324   2.278  10.553
58311W        W23571  25.913  17.021   3.668
58312W        W23572  33.836  16.178   3.789
58313W        W23573  31.156  36.723   4.138
58314W        W23574  20.120  32.368   0.467
58315W        W23575  20.306  23.207  13.620
58316W        W23576  15.492   8.737  10.658
58317W        W23577  16.088  14.410   1.143
58318W        W23578  36.805  31.314   4.683
58319W        W23579   7.189   7.874  12.549
58320W        W23580   4.933  28.638  12.034
58321W        W23581  17.356  14.282   1.766
58322W        W23582  30.677  20.228  14.499
58323W        W23583   0.057  40.926   1.281
58324W        W23584   1.457   4.742  13.794
58325W        W23585  10.338  25.315  13.059
58326W        W23586  13.190  34.890   4.506
58327W        W23587  38.426  26.552   3.880
58328W        W23588  40.706  35.080  14.213
58329W        W23589  42.064  10.680   3.253
58330W        W23590   9.171   2.384  11.050
58331W        W23591  36.191   3.059  11.671
58332W        W23592  13.357   6.215  14.706
58333W        W23593  10.866  44.407   4.910
58334W        W23594  30.240  28.226  14.888
58335W        W23595  31.621  42.310   1.235
58336W        W23596  21.212  44.585   3.488
58337W        W23597  43.743  44.021   4.550
58338W        W23598  13.522  43.916  14.998
58339W        W23599  33.079  29.462   2.043
58340W        W23600   8.768   2.369  12.436
58341W        W23601   2.508   0.804  11.010
58342W        W23602  11.773   4.661  14.348
58343W        W23603  43.195  30.494   0.297
58344W        W23604  44.253  30.605  14.440
58345W        W23605  44.479  31.548   4.609
58346W        W23606  38.964  29.750  11.508
58347W        W23607  16.338  31.518   0.331
58348W        W23608   6.777  11.763   0.758
58349W        W23609  12.879   2.166   3.197
58350W        W23610  17.809  38.511  14.718
58351W        W23611  41.760  18.962  10.985
58352W        W23612  31.379  31.239   3.326
58353W        W23613  14.794  15.567  11.194
58354W        W23614  17.501  41.813   1.876
58355W        W23615  20.674  35.491  14.817
58356W        W23616  32.571  22.203   3.234
58357W        W23617  34.866  27.617  12.040
58358W        W23618  41.800  21.710  14.792
58359W        W23619   0.575   0.220  11.955
58360W        W23620  41.245  13.653   1.883
58361W        W23621   7.615  44.482  14.316
58362W        W23622  31.442   3.438   1.664
58363W        W23623   0.969  24.695  11.874
58364W        W23624  38.349  29.346   2.845
58365W        W23625   5.313  14.369   3.137
58366W        W23626  28.529  29.690   0.399
58367W        W23627   8.438   3.195   1.392
58368W        W23628  35.318  38.892   4.617
58369W        W23629  10.629  16.141   0.421
58370W        W23630  20.649  26.833  11.084
58371W        W23631  24.749  28.500  14.952
58372W        W23632   7.677  16.701   2.383
58373W        W23633  21.941  12.978   2.100
58374W        W23634  13.631  21.690  13.888
58375W        W23635  25.950  19.152  10.876
58376W        W23636  23.018  29.469   3.073
58377W        W23637  43.678  39.569   3.544
58378W        W23638  23.441  29.604   1.511
58379W        W23639  28.396  29.179  14.445
58380W        W23640  43.010   2.226  12.594
58381W        W23641   1.213  20.273  10.982
58382W        W23642  29.221  28.647  12.989
58383W        W23643   0.470  13.293  13.976
58384W        W23644  36.244  21.181   2.350
58385W        W23645   3.974  10.857   0.184
58386W        W23646  17.551  19.272   2.099
58387W        W23647  31.033  42.711   1.663
58388W        W23648  16.339  15.552   0.418
58389W        W23649  16.579  10.111  13.947
58390W        W23650  20.051  13.350  12.024
58391W        W23651   4.500  23.635  10.892
58392W        W23652  19.031  29.000   2.619
58393W        W23653  34.218  16.530   1.380
58394W        W23654  21.680  12.824  13.397
58395W        W23655  27.115   8.355   2.651
58396W        W23656   7.326  14.071  14.759
58397W        W23657   3.755   2.692  14.372
58398W        W23658  29.624  41.891  13.473
58399W        W23659   0.213  19.785  11.124
58400W        W23660  24.014   3.239  11.090
58401W        W23661  14.253  36.746   0.699
58402W        W23662  39.724  15.088   0.099
58403W        W23663   7.730  12.438   0.150
58404W        W23664  42.872  21.056  12.099
58405W        W23665  14.652  27.061   2.909
58406W        W23666  18.578  13.180   3.299
58407W        W23667  30.625   9.252   2.572
58408W        W23668  38.489  10.704  12.954
58409W        W23669  20.251  35.836  10.518
58410W        W23670  36.002  27.718  11.181
58411W        W23671  41.737  21.986   3.462
58412W        W23672  36.974  33.919  13.478
58413W        W23673   9.020  10.706  12.032
58414W        W23674  27.956  44.332  11.604
58415W        W23675  15.125  37.694   4.733
58416W        W23676  30.090   9.834   2.168
58417W        W23677  19.253  11.591   1.774
58418W        W23678  29.086  19.654  14.083
58419W        W23679  31.083   9.440   2.399
58420W        W23680   3.740  12.818  11.472
58421W        W23681  17.580   6.654  14.444
58422W        W23682   7.347   5.378   1.928
58423W        W23683  12.750   1.921  12.766
58424W        W23684  37.058  27.677   4.084
58425W        W23685  32.653   6.950   2.687
58426W        W23686   4.742  34.476   0.514
58427W        W23687  43.244   9.618  14.284
58428W        W23688  15.664   0.299   4.831
58429W        W23689  11.992  30.073  11.642
58430W        W23690  31.311  34.929   3.665
58431W        W23691  17.646   5.485   0.224
58432W        W23692   9.939  35.182   1.904
58433W        W23693  40.567  35.364  13.805
58434W        W23694  20.235  35.648  11.001
58435W        W23695  15.823  32.084  12.456
58436W        W23696   6.950  10.371   5.037
58437W        W23697   0.958   3.855   2.987
58438W        W23698   5.320  35.396   3.784
58439W        W23699  36.084  36.424  13.378
58440W        W23700  41.727  17.302  12.943
58441W        W23701  34.030  13.400   3.072
58442W        W23702  16.167   4.506  10.300
58443W        W23703  33.162   0.433  11.151
58444W        W23704  38.052  43.198   1.270
58445W        W23705   2.610  28.988  11.097
58446W        W23706   2.207   2.366  11.014
58447W        W23707  22.955   8.430  10.662
58448W        W23708   3.617  29.100   3.714
58449W        W23709  31.472  29.545  11.533
58450W        W23710  34.151   9.941  13.006
58451W        W23711   6.630  43.296   1.132
58452W        W23712  20.825  25.737   0.804
58453W        W23713   7.147  17.538  11.194
58454W        W23714  42.043   2.286  13.111
58455W        W23715  16.040  13.927  11.286
58456W        W23716   2.275  36.560   1.974
58457W        W23717  22.277  24.119  11.082
58458W        W23718  30.849  23.218   4.086
58459W        W23719   2.663  20.552   4.748
58460W        W23720  15.814  24.234   0.935
58461W        W23721  32.482  44.500  13.833
58462W        W23722  40.868  24.884  11.609
58463W        W23723  32.386  38.313   1.767
58464W        W23724  15.808  25.951  14.305
58465W        W23725   3.203  37.764   4.713
58466W        W23726  14.210  41.116  11.659
58467W        W23727  31.650  16.220   3.769
58468W        W23728   4.408  30.177  13.803
58469W        W23729  30.856   7.914  10.925
58470W        W23730  20.921   0.897   0.549
58471W        W23731  27.570  37.385   0.695
58472W        W23732  17.303   3.729  11.173
58473W        W23733  30.577   5.774   2.651
58474W        W23734  22.765  42.562   3.651
58475W        W23735  23.461  42.290  12.015
58476W        W23736  38.512  17.723   1.769
58477W        W23737  38.931  29.796   5.080
58478W        W23738  17.852  19.542   0.863
58479W        W23739   4.703   7.683  13.870
58480W        W23740   3.988  19.728   2.387
58481W        W23741  12.203   4.613   0.963
58482W        W23742  11.703   3.401   1.666
58483W        W23743   8.341  36.844   0.901
58484W        W23744  44.192  43.904   2.137
58485W        W23745   7.477  25.351   3.697
58486W        W23746  39.519  16.608   0.330
58487W        W23747  40.962  36.987  10.626
58488W        W23748   1.062  19.747  14.663
58489W        W23749  14.948  15.301   3.352
58490W        W23750   8.114  12.772   0.856
58491W        W23751  23.247  12.187   1.658
58492W        W23752  17.983   0.656   3.621
58493W        W23753  26.551  38.994   5.040
58494W        W23754  26.267   1.374   4.214
58495W        W23755   5.961  18.214   0.850
58496W        W23756   5.009  37.930   1.498
58497W        W23757  20.503  11.479   4.546
58498W        W23758  34.943  19.179   0.021
58499W        W23759  33.977  38.562  11.397
58500W        W23760  16.571   3.359   3.112
58501W        W23761  43.824  14.515   0.456
58502W        W23762  19.564  15.826   0.904
58503W        W23763  11.590   6.854   2.909
58504W        W23764  14.308  23.126   0.012
58505W        W23765  25.397  23.636   0.902
58506W        W23766  30.974  21.099  10.930
58507W        W23767  28.658  10.220   2.305
58508W        W23768  29.242  12.306  11.650
58509W        W23769   3.008   8.250   1.203
58510W        W23770  30.395  24.423  13.017
58511W        W23771  16.424  26.608   4.658
58512W        W23772  29.959  40.880   2.935
58513W        W23773  10.758  19.964  11.038
58514W        W23774  20.291   3.321  14.869
58515W        W23775  34.761  26.280   4.144
58516W        W23776  27.468  42.903  13.360
58517W        W23777   8.385  42.882  14.497
58518W        W23778  25.824  27.994  13.697
58519W        W23779  17.851  18.355  10.660
58520W        W23780  41.440  18.119  10.586
58521W        W23781   9.950  37.931  10.998
58522W        W23782  44.761  22.673  12.766
58523W        W23783  18.330  40.569  11.606
58524W        W23784  14.091  19.925   3.607
58525W        W23785  17.738  27.143  14.745
58526W        W23786  22.256  32.370  12.891
58527W        W23787  40.542   5.396  13.874
58528W        W23788  42.060  21.990  12.558
58529W        W23789   0.874  39.331   4.772
58530W        W23790  37.850  26.260   2.777
58531W        W23791  23.171  23.485   0.724
58532W        W23792   4.487  19.760   2.415
58533W        W23793  13.641   9.822   3.207
58534W        W23794  35.026  43.079  13.979
58535W        W23795  22.209  16.112  11.889
58536W        W23796  10.435   5.090   1.775
58537W        W23797  29.909  30.923   0.339
58538W        W23798   8.909   6.384  13.560
58539W        W23799  27.018  17.748   3.167
58540W        W23800   0.434  41.771  12.954
58541W        W23801   2.666  39.371  14.831
58542W        W23802  44.907  32.909   0.032
58543W        W23803  33.055  30.100  11.272
58544W        W23804  16.366  21.612   2.298
58545W        W23805  25.508  30.006  11.643
58546W        W23806  14.724  24.762   3.169
58547W        W23807  30.430  41.495   2.693
58548W        W23808   4.202  24.921   4.545
58549W        W23809   7.728  19.661  11.944
58550W        W23810   1.064  10.858   1.133
58551W        W23811  39.368  20.551  11.508
58552W        W23812  21.595  19.082   9.738
58553W        W23813  16.757  38.206  11.018
58554W        W23814  14.718  19.524   4.597
58555W        W23815  10.170  44.082   1.979
58556W        W23816  21.693   2.735   0.900
58557W        W23817  41.009  31.125  14.034
58558W        W23818  24.164   5.274  11.201
58559W        W23819  32.485  35.418  10.406
58560W        W23820  38.949   1.971  10.588
58561W        W23821  30.617  39.449   3.656
58562W        W23822   3.026  21.259   4.152
58563W        W23823  19.670  37.954   1.178
58564W        W23824  42.834  37.071   4.750
58565W        W23825  35.533   3.759   0.061
58566W        W23826   4.754  10.692   0.823
58567W        W23827  42.274   2.710   3.212
58568W        W23828   5.398  11.252   4.564
58569W        W23829   0.051  34.467   3.637
58570W        W23830  25.645  30.541  10.156
58571W        W23831  26.039  18.872   0.415
58572W        W23832  40.278  29.908   2.825
58573W        W23833  18.389   4.386  14.453
58574W        W23834   2.754   6.445   1.044
58575W        W23835   5.685  36.213   1.966
58576W        W23836  23.967  18.702   2.331
58577W        W23837  26.405  39.623   2.392
58578W        W23838  11.404  18.661  11.966
58579W        W23839  16.550  38.769  12.094
58580W        W23840  27.599  17.564   9.762
58581W        W23841  15.263  16.649   2.807
58582W        W23842  36.918  15.551  12.164
58583W        W23843  24.426  28.573  12.145
58584W        W23844  34.458  40.554  12.329
58585W        W23845  18.651  15.760  13.235
58586W        W23846   3.706  36.522   3.734
58587W        W23847  17.680  33.812   1.349
58588W        W23848  20.142   6.509  14.849
58589W        W23849  28.088   6.051   0.773
58590W        W23850  15.129  44.730   0.764
58591W        W23851  11.666   3.255   4.987
58592W        W23852  19.850  35.089   3.656
58593W        W23853   1.268  43.741   2.906
58594W        W23854   2.764  29.115   1.754
58595W        W23855  26.170  27.902   4.850
58596W        W23856  16.584   8.618   0.593
58597W        W23857  25.052  24.008  12.187
58598W        W23858  37.451  14.222  13.155
58599W        W23859  21.716  27.540  14.894
58600W        W23860  19.001  35.070  11.019
58601W        W23861  29.103  38.140   1.072
58602W        W23862  40.592   0.397   2.437
58603W        W23863  39.827  28.036   3.245
58604W        W23864  34.014  42.372   2.325
58605W        W23865  43.802  21.197  11.257
58606W        W23866  19.494  15.787  13.881
58607W        W23867  36.435  39.545   3.629
58608W        W23868  22.763  21.213   0.636
58609W        W23869  40.409  26.864  11.966
58610W        W23870   8.900  30.024   4.156
58611W        W23871  40.729   6.101  11.159
58612W        W23872  21.428  19.669   0.691
58613W        W23873   9.393   5.713   0.082
58614W        W23874   9.289   6.227  10.614
58615W        W23875  20.970   0.297  14.100
58616W        W23876  37.443  22.559  14.416
58617W        W23877  34.626  33.633  14.288
58618W        W23878   4.184  12.749   4.696
58619W        W23879  37.314  25.021  11.131
58620W        W23880  30.431  11.119   4.273
58621W        W23881  23.367  39.432  11.173
58622W        W23882  17.182  34.431   0.909
58623W        W23883  19.460   0.740   5.372
58624W        W23884   1.345  32.040   3.327
58625W        W23885   8.444  10.615  10.688
58626W        W23886  19.669  21.486  12.587
58627W        W23887  13.866  38.877   4.486
58628W        W23888  42.096   3.408   3.733
58629W        W23889  43.767  34.578  10.610
58630W        W23890  42.519  14.103  14.531
58631W        W23891   7.167  17.393   2.771
58632W        W23892  32.025  39.921   3.105
58633W        W23893  22.548  21.599  14.875
58634W        W23894  17.175  23.107  10.729
58635W        W23895  16.211   2.958   3.102
58636W        W23896  37.101   6.840  13.251
58637W        W23897  14.106  24.172   2.968
58638W        W23898  29.687  24.724   0.970
58639W        W23899   6.433  31.650   1.405
58640W        W23900   5.592  16.837  10.621
58641W        W23901   6.832  36.370  14.906
58642W        W23902   7.626  26.957   3.263
58643W        W23903   5.266   1.270  13.642
58644W        W23904  22.504   9.563  12.153
58645W        W23905  39.676  16.655   0.875
58646W        W23906  31.684  33.532   4.682
58647W        W23907  35.069   5.350  12.580
58648W        W23908  14.713  18.741   3.983
58649W        W23909  42.932   8.129   1.847
58650W        W23910  19.018   5.018   4.302
58651W        W23911  21.278  36.401  14.582
58652W        W23912   0.689  31.712  10.557
58653W        W23913  37.454  15.579  12.888
58654W        W23914  42.505  30.051   3.649
58655W        W23915  38.070   5.897   3.861
58656W        W23916  38.363  19.361   0.834
58657W        W23917  25.662  26.740   0.218
58658W        W23918   5.217  32.981  10.556
58659W        W23919  19.745  31.196   3.839
58660W        W23920  17.657  18.487   5.399
58661W        W23921  41.929  37.280   2.638
58662W        W23922  27.072  33.105  10.678
58663W        W23923  23.158  23.522  13.901
58664W        W23924  16.149  27.194  12.120
58665W        W23925   0.851  36.605  12.134
58666W        W23926  34.672  16.424   1.638
58667W        W23927  27.684  38.952   2.276
58668W        W23928  34.677   7.054   1.868
58669W        W23929   8.782   8.376  10.745
58670W        W23930  15.781  44.393  10.817
58671W        W23931  30.628  19.626  13.482
58672W        W23932  16.759  21.989   1.814
58673W        W23933  15.722   7.088   1.607
58674W        W23934  24.477   7.015   1.673
58675W        W23935  12.088  44.286   0.811
58676W        W23936  10.289  11.330   3.085
58677W        W23937   3.371  33.657  13.050
58678W        W23938   8.157  42.910  14.051
58679W        W23939   8.816   5.713  11.184
58680W        W23940  13.634  13.175   4.908
58681W        W23941   0.978  24.082   3.255
58682W        W23942   7.389  39.098   2.243
58683W        W23943   1.839  35.326  13.772
58684W        W23944  39.721  43.334  13.926
58685W        W23945   1.434  26.143  13.292
58686W        W23946   3.434  22.105   1.751
58687W        W23947  24.565  29.590   2.450
58688W        W23948  22.483  24.296  11.559
58689W        W23949   1.965  39.101   4.739
58690W        W23950  15.593  11.341   1.047
58691W        W23951  37.413   8.092   3.922
58692W        W23952  37.320  10.186   4.146
58693W        W23953  21.486  23.209  12.937
58694W        W23954   3.388  25.836  12.117
58695W        W23955  26.632  15.751   4.607
58696W        W23956  10.683  16.326  14.066
58697W        W23957  25.017  39.575  10.083
58698W        W23958  34.640  26.062   4.932
58699W        W23959  31.947   0.103   4.071
58700W        W23960   6.274  23.052   4.890
58701W        W23961  30.050  34.650  12.113
58702W        W23962  39.485  39.805   3.213
58703W        W23963  32.016  26.610   3.132
58704W        W23964  11.059   4.589  12.671
58705W        W23965  30.490  10.183   2.144
58706W        W23966  28.217  22.604   2.841
58707W        W23967  15.044  21.736  11.200
58708W        W23968   0.453  44.668   1.746
58709W        W23969  43.297   8.912  13.389
58710W        W23970  30.869  39.368  13.102
58711W        W23971   0.540  31.243  10.682
58712W        W23972  19.430  36.110   3.728
58713W        W23973  24.576  43.336  14.824
58714W        W23974  25.499  22.568   0.400
58715W        W23975  24.579   5.401  13.076
58716W        W23976   8.778   2.381   2.340
58717W        W23977   5.020  11.221  10.697
58718W        W23978  22.100  43.826  12.349
58719W        W23979  17.118  29.957   0.605
58720W        W23980   2.967   6.730  11.036
58721W        W23981  25.619  38.020  11.464
58722W        W23982  41.806  35.452   0.863
58723W        W23983  12.714  34.547  11.000
58724W        W23984   5.883  25.205  14.122
58725W        W23985  39.989   8.685   2.195
58726W        W23986  12.232   3.112  12.900
58727W        W23987  43.799  39.859   4.755
58728W        W23988  16.041  33.401   3.285
58729W        W23989  16.639  39.565  11.019
58730W        W23990  44.474   7.011  11.652
58731W        W23991  32.550   5.886   1.348
58732W        W23992   3.799  27.883   0.316
58733W        W23993   6.709  42.339   3.346
58734W        W23994  44.724  42.937   0.564
58735W        W23995  17.255  37.671   3.752
58736W        W23996  16.697   0.477  13.787
58737W        W23997  26.865  18.106   2.599
58738W        W23998  27.019  40.347   3.727
58739W        W23999  18.028  38.098  14.967
58740W        W24000  24.541  37.819   4.228
58741W        W24001  21.014  22.939  14.994
58742W        W24002   0.978   9.710  11.357
58743W        W24003  44.392  16.352  11.043
58744W        W24004   8.680  42.491   4.580
58745W        W24005  29.780  33.407  11.922
58746W        W24006   9.660   9.257   1.205
58747W        W24007  19.619   9.115   1.325
58748W        W24008  13.086  11.893  13.326
58749W        W24009  13.366  11.194  12.074
58750W        W24010  19.282  13.780   4.596
58751W        W24011  21.488  18.783  12.051
58752W        W24012   7.246  37.332  11.104
58753W        W24013  11.467  27.533   4.980
58754W        W24014  13.895  42.537   1.761
58755W        W24015  23.640  27.382  14.915
58756W        W24016   8.555  28.145  12.538
58757W        W24017   9.910  11.914  12.450
58758W        W24018   1.733  43.454  11.706
58759W        W24019  15.256   1.874  13.177
58760W        W24020  39.414  27.074   2.686
58761W        W24021  38.662  29.037  11.875
58762W        W24022  31.958   0.571   3.757
58763W        W24023   0.209   4.365  12.433
58764W        W24024  30.231  15.534  12.404
58765W        W24025  43.182  29.127   2.912
58766W        W24026  26.758  42.393   0.444
58767W        W24027  20.699  41.796   0.072
58768W        W24028  36.963  15.286  11.715
58769W        W24029  35.556  24.763  12.271
58770W        W24030  10.152   9.162  14.955
58771W        W24031  12.207   6.789   2.873
58772W        W24032  12.279   7.954   0.492
58773W        W24033  38.346  24.509   3.936
58774W        W24034  32.973  14.528  10.857
58775W        W24035  20.210  18.476   0.817
58776W        W24036   9.759  42.045   2.364
58777W        W24037  33.930  32.058   3.741
58778W        W24038  35.468  40.263   4.080
58779W        W24039   6.711   9.593  12.900
58780W        W24040  19.677  23.044   1.855
58781W        W24041  28.181  23.472   3.657
58782W        W24042  17.441  27.955  14.332
58783W        W24043   7.831  33.920  14.548
58784W        W24044   2.684  42.339   3.581
58785W        W24045  38.623  26.484  12.454
58786W        W24046  38.321  38.634   4.587
58787W        W24047  42.661  14.659  14.053
58788W        W24048  42.287  35.284  10.742
58789W        W24049  10.233   1.796  11.647
58790W        W24050  25.540  36.255   0.836
58791W        W24051  29.523  44.835  10.433
58792W        W24052  43.381  35.137   3.752
58793W        W24053   3.221  33.370  12.017
58794W        W24054  31.168  32.918   0.844
58795W        W24055  31.586  36.080  12.103
58796W        W24056  32.377  43.910   3.459
58797W        W24057  34.429  25.135  12.189
58798W        W24058  38.788  28.857   2.213
58799W        W24059  31.091  44.642   0.008
58800W        W24060   6.482  33.590   0.799
58801W        W24061  36.010   6.839  13.970
58802W        W24062  10.084  25.554   5.554
58803W        W24063   9.669  22.525   1.291
58804W        W24064  21.435  12.863   0.770
58805W        W24065   7.385   5.906   1.420
58806W        W24066  38.346  28.612  14.880
58807W        W24067   9.236  15.989   5.127
58808W        W24068   4.383   2.776  11.848
58809W        W24069  35.327  18.572  14.343
58810W        W24070  23.553  21.177   3.796
58811W        W24071  35.762   3.886   1.711
58812W        W24072  12.304  18.148   1.835
58813W        W24073  18.495  14.591   3.752
58814W        W24074  30.641  32.625  12.117
58815W        W24075  28.537  34.891   2.810
58816W        W24076  42.802  16.258   1.738
58817W        W24077  24.486  40.293  11.418
58818W        W24078  28.162  26.637   3.018
58819W        W24079   3.704   7.892  10.951
58820W        W24080   0.918   3.711  13.896
58821W        W24081   0.712  34.473  14.819
58822W        W24082   3.520   7.194  10.354
58823W        W24083  31.382  35.453   3.718
58824W        W24084  25.503  38.899  13.492
58825W        W24085   1.684  39.867   4.132
58826W        W24086   5.862   0.279   0.256
58827W        W24087   9.858   0.847  12.426
58828W        W24088  32.040  23.490  11.663
58829W        W24089   0.028   9.829   0.988
58830W        W24090  23.374  13.739  11.631
58831W        W24091  43.402  43.395  11.890
58832W        W24092  27.083   2.794   4.444
58833W        W24093  18.225  13.686   3.615
58834W        W24094  24.630  13.237  11.073
58835W        W24095  24.589  28.431   4.804
58836W        W24096   9.578  18.438  14.832
58837W        W24097  31.317   7.673   1.433
58838W        W24098   6.236  27.101   9.929
58839W        W24099   2.236   9.760  12.769
58840W        W24100  40.275  13.669   0.921
58841W        W24101  15.673  29.909   4.896
58842W        W24102  41.907  25.414   3.755
58843W        W24103  13.160  37.031  13.507
58844W        W24104  33.727  24.674  12.029
58845W        W24105  20.004  35.995   1.282
58846W        W24106   6.824  34.503   1.721
58847W        W24107  42.801  11.278   3.215
58848W        W24108  42.328  17.559   3.206
58849W        W24109   1.785  31.428   4.969
58850W        W24110  17.562  10.416   3.385
58851W        W24111  15.824   0.348  14.379
58852W        W24112  21.712  22.304   1.917
58853W        W24113  21.696   6.885   2.286
58854W        W24114   6.122  23.557  13.968
58855W        W24115  12.627  41.577   2.371
58856W        W24116  33.498  14.802  11.524
58857W        W24117   4.216  42.015   2.848
58858W        W24118  36.943   3.734  13.049
58859W        W24119  28.668  24.742  13.383
58860W        W24120  19.713   6.252  14.061
58861W        W24121  41.929  32.700   2.637
58862W        W24122  12.634  41.789  10.931
58863W        W24123  17.036  40.071   2.489
58864W        W24124  16.829   6.453  11.995
58865W        W24125  41.053  13.212   1.675
58866W        W24126  18.825  42.868  12.582
58867W        W24127  31.424  11.646  10.658
58868W        W24128  30.480  33.133  14.959
58869W        W24129  33.366   7.255   2.728
58870W        W24130   2.513  34.661   4.248
58871W        W24131  14.594  10.853  12.597
58872W        W24132  26.814   9.811   9.859
58873W        W24133  14.385  18.368  12.534
58874W        W24134  17.771  40.804  11.507
58875W        W24135  18.899   6.858  14.331
58876W        W24136  41.541  43.372   0.788
58877W        W24137  10.892  25.280  11.620
58878W        W24138   7.437  35.419   1.638
58879W        W24139  31.141  38.468  12.467
58880W        W24140  43.347  11.822   2.172
58881W        W24141   1.012  20.073  11.545
58882W        W24142   4.889  21.191   3.365
58883W        W24143  18.660  36.073   2.744
58884W        W24144  23.265   7.898   2.459
58885W        W24145  33.319  15.327   1.367
58886W        W24146  13.770   0.048   4.140
58887W        W24147  25.576  26.082  13.109
58888W        W24148  34.535   2.310   0.646
58889W        W24149   4.517  34.393  10.674
58890W        W24150  22.534   1.699  14.737
58891W        W24151  31.707   4.299  14.576
58892W        W24152  44.912  35.609  12.486
58893W        W24153   3.782  30.640  14.376
58894W        W24154  33.667   6.876  12.191
58895W        W24155   9.139   7.717  10.269
58896W        W24156  24.797   7.180   2.175
58897W        W24157   8.836   9.174   3.097
58898W        W24158  28.434   5.617   3.363
58899W        W24159  32.702  17.745   3.809
58900W        W24160  23.542  29.044  14.677
58901W        W24161   1.033  15.726   2.819
58902W        W24162   7.868  10.131   4.673
58903W        W24163  30.515  18.562   2.784
58904W        W24164  36.119  18.601   2.228
58905W        W24165  16.316  24.914   1.791
58906W        W24166  11.656  27.243   9.752
58907W        W24167  23.038  13.016  12.499
58908W        W24168  43.470  30.786  12.572
58909W        W24169   0.479  35.601   3.336
58910W        W24170  40.650   5.477   0.648
58911W        W24171  27.737  42.118   3.343
58912W        W24172  23.592  23.843   0.942
58913W        W24173  12.729  11.671   0.319
58914W        W24174  22.223   4.397  12.609
58915W        W24175  40.306  32.069  11.075
58916W        W24176   7.195   5.286   4.687
58917W        W24177  24.125  41.612  10.646
58918W        W24178  19.679  39.005   3.348
58919W        W24179  33.616  44.000  10.612
58920W        W24180  12.188  40.520   3.226
58921W        W24181  27.867   3.869   0.467
58922W        W24182  31.217   4.821  13.869
58923W        W24183  18.120  31.066  13.920
58924W        W24184  18.553   3.917  13.855
58925W        W24185  38.116   6.181   4.427
58926W        W24186  31.567  17.668  11.209
58927W        W24187  43.967   0.870  11.406
58928W        W24188  28.580  19.160   1.220
58929W        W24189  14.413  43.919  10.720
58930W        W24190   2.720  17.605  11.888
58931W        W24191  26.494  16.498   3.332
58932W        W24192  12.254  41.745   2.716
58933W        W24193  44.135  36.068  11.380
58934W        W24194  33.837  44.725   3.659
58935W        W24195  43.811  25.977   1.402
58936W        W24196  14.258  31.358   1.875
58937W        W24197  24.621  43.857   2.201
58938W        W24198   8.338  24.465   3.253
58939W        W24199  25.167  32.904  14.991
58940W        W24200  19.803  36.927  11.881
58941W        W24201   2.503  22.076   2.245
58942W        W24202  25.722   2.688  13.369
58943W        W24203  39.048  23.118   2.705
58944W        W24204  15.564  25.100  11.071
58945W        W24205   2.294  41.410  12.444
58946W        W24206  40.421  29.476   3.166
58947W        W24207  44.814  41.117  10.729
58948W        W24208  22.187  13.266  14.405
58949W        W24209  42.471  11.154  10.155
58950W        W24210  44.198  35.465   4.623
58951W        W24211  40.837  38.555   3.306
58952W        W24212  25.255  39.602   4.187
58953W        W24213  18.883  22.628   3.485
58954W        W24214   5.624  17.647  13.910
58955W        W24215  41.477  40.731   2.352
58956W        W24216  38.769  14.682   2.266
58957W        W24217  41.861  33.594   4.646
58958W        W24218  40.932  23.192  12.166
58959W        W24219  21.794  26.463   4.056
58960W        W24220  29.527  38.736   4.375
58961W        W24221  14.614  15.203   4.745
58962W        W24222  19.487  18.641  13.336
58963W        W24223  33.964  42.446   1.692
58964W        W24224  38.323  36.349  11.076
58965W        W24225  41.151  34.545  12.141
58966W        W24226  17.087  37.865   2.175
58967W        W24227  43.793   2.128  11.229
58968W        W24228  23.702  34.375  12.471
58969W        W24229   3.986   9.606  14.979
58970W        W24230  18.264  35.884   4.617
58971W        W24231   6.965  21.150   0.577
58972W        W24232  29.191   7.750   4.481
58973W        W24233  24.186   5.332  12.046
58974W        W24234  38.493  33.575   3.719
58975W        W24235   8.868  22.003  12.050
58976W        W24236  36.778  27.210   0.413
58977W        W24237  32.372  21.188   1.223
58978W        W24238  26.034  11.458   4.581
58979W        W24239  16.406  37.067   3.734
58980W        W24240   0.984  31.546   2.765
58981W        W24241  21.113  33.345  13.063
58982W        W24242   0.243  23.088  12.050
58983W        W24243  34.415  31.617  11.666
58984W        W24244  14.500  35.766  11.467
58985W        W24245  25.239   9.862   3.212
58986W        W24246   8.604  25.426   5.480
58987W        W24247  34.273  16.133   1.955
58988W        W24248   7.711  14.331   2.770
58989W        W24249   6.796   2.347  12.552
58990W        W24250  43.648  41.996  11.820
58991W        W24251   1.652  40.614  14.375
58992W        W24252  33.163  24.246   3.741
58993W        W24253   8.187  26.216  14.036
58994W        W24254  13.374  38.083  14.324
58995W        W24255  35.052  20.939   4.295
58996W        W24256   8.803   7.106   1.181
58997W        W24257  27.098  12.386   1.056
58998W        W24258  33.837  35.899  14.978
58999W        W24259   6.588  11.050  11.151
59000W        W24260   3.960  22.793  12.823
59001W        W24261  38.621  33.385  11.606
59002W        W24262  25.541  39.630  13.978
59003W        W24263  36.533  35.181  11.503
59004W        W24264  16.987  31.475  13.482
59005W        W24265  24.186  31.798   0.565
59006W        W24266  34.501  37.830  14.686
59007W        W24267  29.088  41.467   0.675
59008W        W24268  38.860  38.474   2.852
59009W        W24269  41.986  38.925   3.360
59010W        W24270  19.046  43.288  14.949
59011W        W24271  21.470   9.297  12.546
59012W        W24272  22.815  19.030   1.283
59013W        W24273   1.133  24.303   1.489
59014W        W24274  26.721  23.486   2.885
59015W        W24275   6.235  41.725  12.011
59016W        W24276   5.445  26.527  14.409
59017W        W24277  38.551  13.684   3.447
59018W        W24278  25.215  20.905   5.047
59019W        W24279  20.443   5.160  11.171
59020W        W24280  32.160   6.737  12.974
59021W        W24281  16.791  13.894   2.062
59022W        W24282  36.231  10.606  13.959
59023W        W24283   9.566  13.423   1.027
59024W        W24284   0.989  11.296  13.049
59025W        W24285  39.317  38.397  11.218
59026W        W24286  21.010  41.989   2.783
59027W        W24287  30.676  28.712  14.271
59028W        W24288  28.884  17.026  11.938
59029W        W24289  28.407  40.962  13.019
59030W        W24290  43.777   7.375   3.279
59031W        W24291  44.012  43.484  12.496
59032W        W24292   4.894  10.151   4.259
59033W        W24293  17.230  28.437   4.223
59034W        W24294  32.416  22.565  13.833
59035W        W24295   0.250  44.482  11.591
59036W        W24296  18.516  33.038  13.883
59037W        W24297   9.756  24.587  12.850
59038W        W24298  43.809  16.496   2.262
59039W        W24299  24.670  30.337  12.664
59040W        W24300   9.612  10.412  14.262
59041W        W24301  20.695  31.445   2.915
59042W        W24302   7.396  32.784  11.225
59043W        W24303  40.300  21.194  12.620
59044W        W24304   3.160  35.006   3.542
59045W        W24305  23.106  41.546  10.581
59046W        W24306  29.634  18.265   1.407
59047W        W24307  29.356  20.702   1.333
59048W        W24308  42.054  24.909   1.014
59049W        W24309  13.668  38.959  14.309
59050W        W24310   0.270   3.704   0.756
59051W        W24311   7.645  37.441  13.489
59052W        W24312   2.648  22.463  11.590
59053W        W24313  23.513  22.310  12.170
59054W        W24314  23.280  14.699   0.313
59055W        W24315  11.494  43.342   2.453
59056W        W24316   7.360  44.333  10.223
59057W        W24317  41.356   9.224  10.777
59058W        W24318  12.422  21.436   1.237
59059W        W24319  26.640  42.758  12.040
59060W        W24320  24.169  21.017   2.874
59061W        W24321  10.672  16.620   1.468
59062W        W24322  12.056  41.323  11.050
59063W        W24323  40.549  10.649   4.172
59064W        W24324  27.468  28.783  11.851
59065W        W24325   6.933  27.606  13.688
59066W        W24326  40.403  43.458   4.611
59067W        W24327  27.157  38.932  10.713
59068W        W24328  28.755  28.866  14.948
59069W        W24329  40.050  11.627  11.093
59070W        W24330   9.504  39.212  12.607
59071W        W24331   3.205   3.988  11.851
59072W        W24332  33.613  36.020  14.103
59073W        W24333   6.420  41.584  14.460
59074W        W24334  11.366  19.251  14.021
59075W        W24335  40.397  33.407   2.561
59076W        W24336   9.285   4.405  11.109
59077W        W24337  31.978  28.252  11.844
59078W        W24338  33.821  41.477   0.294
59079W        W24339  23.081  40.901   1.588
59080W        W24340  16.072  34.018  14.386
59081W        W24341  44.843  18.783  10.466
59082W        W24342  32.649   4.821   0.683
59083W        W24343  24.755  40.816   3.178
59084W        W24344  29.264  25.230  14.078
59085W        W24345  35.468  15.878  14.871
59086W        W24346   9.610   1.101   1.290
59087W        W24347  11.789  37.856  14.793
59088W        W24348  22.206  20.494  11.380
59089W        W24349  19.277   7.761  12.083
59090W        W24350  16.989   2.270   3.291
59091W        W24351  15.265  38.923  12.057
59092W        W24352  10.518   6.226  11.620
59093W        W24353  34.493  31.980  10.314
59094W        W24354  19.687  23.881   2.955
59095W        W24355  17.149  13.436  12.858
59096W        W24356  32.453  17.581   4.881
59097W        W24357  26.945  43.334   0.324
59098W        W24358   7.245  32.867   4.119
59099W        W24359  30.409  40.071  11.959
59100W        W24360  14.172  14.840  13.519
59101W        W24361  35.557   9.767   1.352
59102W        W24362  25.618   0.733   3.690
59103W        W24363  32.322   4.001  10.818
59104W        W24364  13.699  22.547  11.387
59105W        W24365  11.993  37.157  14.686
59106W        W24366  41.740  10.204  11.528
59107W        W24367  17.088   1.741   2.089
59108W        W24368  14.485  35.138  12.067
59109W        W24369  42.635  20.623   2.297
59110W        W24370  18.223  28.540  13.811
59111W        W24371  28.511  21.584  13.391
59112W        W24372  15.622  22.757  13.818
59113W        W24373  20.484  13.147  12.769
59114W        W24374  14.371  35.472  13.163
59115W        W24375   8.082  33.044  13.034
59116W        W24376  33.508   0.592  10.345
59117W        W24377  33.052  16.254   3.342
59118W        W24378   9.161   6.261   0.530
59119W        W24379  15.286  19.659   2.034
59120W        W24380  16.728  13.685   2.540
59121W        W24381  34.520  14.121   4.188
59122W        W24382  18.162  43.950  14.835
59123W        W24383  30.942  36.713   0.807
59124W        W24384  37.187  30.996  10.852
59125W        W24385  43.718  12.075  14.827
59126W        W24386  26.400  18.168   3.492
59127W        W24387  25.143   0.756   2.258
59128W        W24388   9.253  44.155   1.851
59129W        W24389  26.691  10.624  13.807
59130W        W24390  32.529   1.801   1.714
59131W        W24391  39.822  23.959   0.892
59132W        W24392  22.057  16.057  14.990
59133W        W24393  32.675  10.759   3.108
59134W        W24394  26.511   1.476   1.276
59135W        W24395  41.623   2.257  13.438
59136W        W24396  22.798  44.557   4.670
59137W        W24397  20.698   7.449   3.937
59138W        W24398   7.248  43.376  13.552
59139W        W24399  28.543  22.720   1.686
59140W        W24400  14.728  26.533  10.743
59141W        W24401   5.657   8.856   2.795
59142W        W24402  11.867  24.188  14.755
59143W        W24403  44.367   3.652   1.747
59144W        W24404  18.794  30.499   4.689
59145W        W24405  26.635   6.966   4.600
59146W        W24406  44.295  10.662  14.755
59147W        W24407  39.866   2.304  12.529
59148W        W24408  24.786  21.710   1.754
59149W        W24409  37.064  21.027   0.982
59150W        W24410  43.754   1.656  14.382
59151W        W24411  14.329   2.137  12.915
59152W        W24412   5.415   9.632   3.661
59153W        W24413  20.022  17.965  13.143
59154W        W24414  32.067   3.928  14.448
59155W        W24415  33.672  16.558   3.185
59156W        W24416  15.656  10.159  10.271
59157W        W24417  30.389   4.748  13.479
59158W        W24418  26.148  29.010   1.930
59159W        W24419  33.501  34.074  13.748
59160W        W24420  16.753   3.366   3.620
59161W        W24421   1.275  29.716  12.156
59162W        W24422  39.688  31.434   1.670
59163W        W24423  20.332  13.370   3.717
59164W        W24424  17.096  29.134   0.255
59165W        W24425  33.497  41.925  12.386
59166W        W24426  18.510  32.095  12.277
59167W        W24427  30.295   9.472   1.767
59168W        W24428  13.783  39.766   3.077
59169W        W24429   4.506   1.001  10.607
59170W        W24430  38.953  18.816  10.699
59171W        W24431  12.036   3.980  11.988
59172W        W24432  16.872  35.928   2.875
59173W        W24433  40.849  42.577  12.884
59174W        W24434  14.983  20.658  11.445
59175W        W24435  11.969  40.483  10.280
59176W        W24436   4.241  37.057   1.150
59177W        W24437  42.661   1.240  11.523
59178W        W24438  10.709   4.003   3.730
59179W        W24439  30.143   9.649  14.998
59180W        W24440   6.739  27.238  10.093
59181W        W24441   1.697  15.789   0.341
59182W        W24442  44.645  22.135  10.055
59183W        W24443  28.060  27.672  13.829
59184W        W24444  43.271  14.974   0.801
59185W        W24445   6.766  18.210   4.144
59186W        W24446  25.315  21.702  10.589
59187W        W24447  14.718  13.622  10.691
59188W        W24448  27.515  15.548  11.044
59189W        W24449  20.259   7.961  14.312
59190W        W24450  41.294   7.854   4.888
59191W        W24451   4.171  11.660   2.801
59192W        W24452  30.425  11.203   2.422
59193W        W24453  37.795  38.598   4.595
59194W        W24454  28.886  42.459  13.445
59195W        W24455  26.465   4.406  12.463
59196W        W24456  37.350  44.656   4.957
59197W        W24457  25.986  35.082  11.840
59198W        W24458   3.844  15.045  14.482
59199W        W24459  11.933  18.342   3.698
59200W        W24460   4.234   4.782  12.187
59201W        W24461   7.733  14.739  11.647
59202W        W24462  31.647  15.647   3.090
59203W        W24463  13.244  17.213  10.793
59204W        W24464  43.300  24.233  13.125
59205W        W24465   7.396  25.912   4.502
59206W        W24466  24.585  35.145  13.570
59207W        W24467  39.486  19.055  14.065
59208W        W24468   8.832   3.837   2.001
59209W        W24469   5.876  32.143  14.759
59210W        W24470  27.108   6.790   4.598
59211W        W24471  35.329  37.637   1.748
59212W        W24472  18.543  43.673   1.380
59213W        W24473  24.593   8.190   2.400
59214W        W24474   4.889  32.831   4.208
59215W        W24475   1.637  30.339  13.957
59216W        W24476  41.822  15.208   2.355
59217W        W24477  16.737  10.110  12.145
59218W        W24478  30.221  42.747   4.321
59219W        W24479  26.115   7.239  10.660
59220W        W24480  40.851  13.147  11.141
59221W        W24481  22.060   8.935  10.623
59222W        W24482   7.249  39.572   1.270
59223W        W24483  14.761  26.415   0.698
59224W        W24484  35.301  27.130  10.709
59225W        W24485  39.383  35.118  11.824
59226W        W24486   7.112   4.734   0.518
59227W        W24487  39.311  11.379  13.052
59228W        W24488  36.019  44.712   1.943
59229W        W24489  14.615   8.549  10.339
59230W        W24490  40.486  30.466   3.090
59231W        W24491  11.213  12.730   3.335
59232W        W24492  32.945   4.280  13.459
59233W        W24493  35.932  24.288  11.531
59234W        W24494   2.152  18.161  13.006
59235W        W24495  29.560  44.240   3.415
59236W        W24496  24.176  41.520   4.137
59237W        W24497  44.031  16.010  11.637
59238W        W24498   1.597  40.842  12.496
59239W        W24499  18.319  35.104  14.309
59240W        W24500   8.176  16.824   2.331
59241W        W24501  11.731  32.266  12.918
59242W        W24502   5.192  42.354   3.447
59243W        W24503  34.441  17.147   0.763
59244W        W24504  30.116  41.354   3.085
59245W        W24505   6.144   1.378   3.314
59246W        W24506  15.580  26.631  12.979
59247W        W24507  22.722  24.707  12.887
59248W        W24508   4.271  36.343   3.413
59249W        W24509   4.814  44.951   4.710
59250W        W24510   3.972   3.830  11.085
59251W        W24511  30.381  22.617   2.998
59252W        W24512   7.519  25.050   1.191
59253W        W24513  34.560  30.456   1.950
59254W        W24514  19.677  11.852  11.509
59255W        W24515   6.820  23.142  11.613
59256W        W24516  13.545  41.923  10.845
59257W        W24517  42.338  43.362   2.382
59258W        W24518   6.121  40.443  13.580
59259W        W24519  27.290   9.975   3.760
59260W        W24520  20.785  31.697   1.971
59261W        W24521  16.045  36.587   4.631
59262W        W24522  10.311  43.221  11.929
59263W        W24523  17.627  29.487  13.283
59264W        W24524  26.190   7.826   0.807
59265W        W24525  38.574  13.705  14.452
59266W        W24526  40.618  23.817   0.492
59267W        W24527  42.548  28.529   0.544
59268W        W24528   1.801  36.209   0.680
59269W        W24529  44.489  27.948   2.076
59270W        W24530  37.554  20.414  12.883
59271W        W24531  36.613   9.702   1.385
59272W        W24532   4.317  10.732  12.870
59273W        W24533  27.450  32.518   2.610
59274W        W24534  43.001   7.324   2.857
59275W        W24535  44.956  37.399   4.120
59276W        W24536   9.970  24.053   3.480
59277W        W24537   6.255  19.124  12.057
59278W        W24538  23.969  34.054  13.520
59279W        W24539  26.543  37.167  13.402
59280W        W24540  40.339  38.582   3.382
59281W        W24541  42.478  11.700  11.682
59282W        W24542  13.512  38.385   1.952
59283W        W24543  36.444   9.307   2.880
59284W        W24544   1.794  15.713   4.341
59285W        W24545  44.400  10.860   2.686
59286W        W24546  30.692  39.076   9.947
59287W        W24547  36.060  37.609   3.735
59288W        W24548  42.271   0.828   4.236
59289W        W24549  27.719   8.616   1.559
59290W        W24550  29.928   3.987  14.898
59291W        W24551  12.636   3.923   2.739
59292W        W24552  32.499  21.276   0.206
59293W        W24553  10.340   2.540  12.158
59294W        W24554   5.087   8.956   1.626
59295W        W24555   8.406  12.841  14.934
59296W        W24556   2.278   6.547  11.068
59297W        W24557  31.076  14.712   0.179
59298W        W24558  13.782  20.630  13.407
59299W        W24559  35.327  19.495   2.250
59300W        W24560  14.722  19.984  11.504
59301W        W24561  24.269   8.171   5.004
59302W        W24562   8.050  23.619  11.109
59303W        W24563   1.851   1.602   1.646
59304W        W24564  11.287  14.702   0.741
59305W        W24565  35.058  13.346  11.057
59306W        W24566  23.971  34.467  11.893
59307W        W24567  37.029   7.791  13.561
59308W        W24568  41.578   5.656   1.296
59309W        W24569  44.016  39.023  12.379
59310W        W24570  36.567  19.366  11.395
59311W        W24571  43.712  36.077  11.692
59312W        W24572   4.919  12.116   1.906
59313W        W24573  29.450  39.463   0.081
59314W        W24574  17.047  35.574   3.790
59315W        W24575  37.950  28.394   4.159
59316W        W24576  24.281  23.550  14.940
59317W        W24577  10.468   6.163   3.014
59318W        W24578   9.421  19.266   1.805
59319W        W24579  17.178  31.459  11.989
59320W        W24580  36.600   9.690   3.214
59321W        W24581   9.604  25.500  11.104
59322W        W24582  10.037   6.265  11.944
59323W        W24583  37.400   0.312  13.370
59324W        W24584  37.551  23.253  14.939
59325W        W24585  17.848  41.536   3.002
59326W        W24586  29.169  40.321  11.063
59327W        W24587  30.084  35.960  12.834
59328W        W24588  14.091  28.949   0.427
59329W        W24589   4.133  18.451   0.713
59330W        W24590  29.053  11.448   3.715
59331W        W24591  28.415   4.407  12.516
59332W        W24592   0.953  29.891  13.601
59333W        W24593  44.544  17.959   4.630
59334W        W24594  18.415  10.821   0.913
59335W        W24595   1.726  29.642   0.401
59336W        W24596  31.012  24.600   0.328
59337W        W24597  43.287   7.433   3.257
59338W        W24598  22.222  41.276  13.758
59339W        W24599  29.903  19.075   1.866
59340W        W24600  24.684  26.427   4.732
59341W        W24601  16.184  26.657  14.607
59342W        W24602  10.408  34.067   2.857
59343W        W24603   9.356  26.457  14.809
59344W        W24604  11.686  34.134   3.841
59345W        W24605  43.736   4.976  14.234
59346W        W24606   8.610  19.608  13.975
59347W        W24607  30.553   7.858   4.501
59348W        W24608  36.734  40.849  11.486
59349W        W24609  12.285  26.686   2.347
59350W        W24610  23.934  34.267   1.906
59351W        W24611  25.772  15.829  13.492
59352W        W24612   4.062   5.053  10.275
59353W        W24613  25.633  10.516  11.997
59354W        W24614  13.731  10.734  10.558
59355W        W24615  17.922  44.490  11.468
59356W        W24616  14.111  31.423  11.903
59357W        W24617   4.955  36.930  13.988
59358W        W24618  11.640  12.695  12.517
59359W        W24619  32.431  38.312  14.534
59360W        W24620  15.077  33.680   0.346
59361W        W24621  30.532  18.657   5.083
59362W        W24622  13.665  10.452  11.217
59363W        W24623  41.275  35.488   0.827
59364W        W24624  36.374  40.810  13.466
59365W        W24625   0.855  37.899  11.254
59366W        W24626  42.752  28.603  13.006
59367W        W24627  39.025  27.199  14.489
59368W        W24628  43.261   1.200   2.759
59369W        W24629  22.593  34.414   2.022
59370W        W24630   3.051  22.606   1.003
59371W        W24631  10.397  24.289   4.528
59372W        W24632  13.187  29.891  11.871
59373W        W24633  10.129   7.322  13.352
59374W        W24634  26.888   3.137  12.495
59375W        W24635  25.796  25.103   0.027
59376W        W24636  31.625   1.265   0.302
59377W        W24637  25.104  35.412   4.060
59378W        W24638  30.858  25.508   2.303
59379W        W24639  17.320  30.071   3.667
59380W        W24640  26.471  33.517  14.500
59381W        W24641  29.466  22.944  11.379
59382W        W24642  34.189  21.022  12.608
59383W        W24643  17.913   1.491  10.761
59384W        W24644   1.971  43.783  14.597
59385W        W24645   9.145  16.187  13.931
59386W        W24646  36.967   4.446   3.163
59387W        W24647  26.312  19.880   3.543
59388W        W24648  16.180  31.839   3.137
59389W        W24649  34.517  18.144  11.167
59390W        W24650  40.398  30.495   3.588
59391W        W24651   9.430   1.544   2.093
59392W        W24652  14.329  22.592   4.159
59393W        W24653   2.682  20.049   4.169
59394W        W24654  40.376  40.443  10.615
59395W        W24655   3.221  12.706  14.770
59396W        W24656  20.111  31.671   4.838
59397W        W24657  22.192  18.879   4.609
59398W        W24658  30.391  23.121   0.344
59399W        W24659  39.326   6.900  14.279
59400W        W24660  21.017  17.119  11.945
59401W        W24661   8.339  42.451   4.964
59402W        W24662  37.838  30.525  11.502
59403W        W24663  11.852   6.399   2.857
59404W        W24664  17.854  17.256   2.193
59405W        W24665  26.587  28.130   3.573
59406W        W24666  31.665  15.809  12.332
59407W        W24667   7.583  30.193  12.477
59408W        W24668  32.760  41.681   0.240
59409W        W24669  33.910  28.585  11.941
59410W        W24670  37.115   8.768  10.770
59411W        W24671  23.712  22.811   1.906
59412W        W24672  14.989  21.701   2.755
59413W        W24673  37.924  34.976  13.488
59414W        W24674   2.761   2.209   2.620
59415W        W24675  41.715  29.607   5.020
59416W        W24676  24.231  27.227   4.559
59417W        W24677  16.323  18.462   4.144
59418W        W24678  38.817  43.282   1.850
59419W        W24679   2.048  24.236   3.699
59420W        W24680  26.448  41.072  13.393
59421W        W24681  41.078  33.761   0.352
59422W        W24682  45.000   0.377   3.167
59423W        W24683  22.564  34.905   4.618
59424W        W24684  22.614  25.212   0.779
59425W        W24685  39.609   2.682   4.138
59426W        W24686  26.735  28.221  13.032
59427W        W24687  31.135  31.054   1.406
59428W        W24688  38.530  30.903   4.143
59429W        W24689  39.854  12.097   4.107
59430W        W24690  25.209  14.691   0.792
59431W        W24691  20.569  25.932   2.167
59432W        W24692  26.550  21.167   1.330
59433W        W24693  36.515  30.964   2.347
59434W        W24694   0.708  24.533   3.178
59435W        W24695  39.496   8.392   3.837
59436W        W24696  18.746  16.942  12.386
59437W        W24697  26.205  17.673  12.019
59438W        W24698  22.003  35.394  13.456
59439W        W24699  12.291  26.039   5.661
59440W        W24700  15.786   4.769  14.269
59441W        W24701  25.079  41.344   3.699
59442W        W24702  18.552   4.727   2.130
59443W        W24703   4.967  40.855  12.977
59444W        W24704  38.068  31.202  13.586
59445W        W24705  40.607  37.371   3.797
59446W        W24706   9.140  14.911  12.475
59447W        W24707  35.347  33.685   4.135
59448W        W24708  30.044   7.088   3.671
59449W        W24709   3.394  14.313   3.566
59450W        W24710  41.519  35.931   0.794
59451W        W24711   3.265  18.548   3.361
59452W        W24712  32.797   3.254   1.420
59453W        W24713  44.939   2.233  12.832
59454W        W24714  17.629   6.943  14.015
59455W        W24715  21.710  17.829  13.981
59456W        W24716  19.904  34.821   2.218
59457W        W24717  18.700  13.320   4.753
59458W        W24718  12.167   2.305  12.526
59459W        W24719   1.408  38.757  13.368
59460W        W24720   3.139  39.478   4.207
59461W        W24721  13.105  15.270  13.381
59462W        W24722  18.042  31.532   3.998
59463W        W24723   5.003  38.931  11.384
59464W        W24724  18.931  14.445  11.906
59465W        W24725  33.380  37.023  10.156
59466W        W24726   2.774  33.150  12.181
59467W        W24727  40.462  10.627  13.844
59468W        W24728  34.421   8.448   4.085
59469W        W24729  26.055  14.199   2.348
59470W        W24730  32.721  36.884   0.281
59471W        W24731  30.615  43.876   3.226
59472W        W24732   3.450  31.553  11.940
59473W        W24733   8.670  39.318   1.246
59474W        W24734  21.703  18.660  11.564
59475W        W24735   6.056   0.501  13.084
59476W        W24736   2.633  24.294   2.824
59477W        W24737   5.862   0.774  11.199
59478W        W24738  15.284  13.667   2.463
59479W        W24739   1.428  15.774   3.202
59480W        W24740  21.477  32.356  14.423
59481W        W24741  20.214  36.037   1.778
59482W        W24742  20.714   1.872  13.604
59483W        W24743  42.113   9.032  12.844
59484W        W24744  42.310  38.945   1.825
59485W        W24745  44.369  27.874  11.800
59486W        W24746   1.148  39.580   1.896
59487W        W24747  10.922  21.584   1.358
59488W        W24748   3.785   5.598  11.128
59489W        W24749  37.310  33.557  14.500
59490W        W24750  36.595  14.152  12.060
59491W        W24751  34.000  36.704  11.527
59492W        W24752   8.150  28.733  12.006
59493W        W24753  10.190  41.329  12.944
59494W        W24754  19.841  15.322  11.230
59495W        W24755   0.122  39.376  13.509
59496W        W24756   1.466  16.920  11.583
59497W        W24757   9.912  23.238   0.728
59498W        W24758  11.419   3.745  14.456
59499W        W24759  29.235  39.601  12.368
59500W        W24760  41.923  17.962   1.288
59501W        W24761  28.165  17.612  10.217
59502W        W24762  13.290  44.274   3.337
59503W        W24763  32.052  42.717  11.653
59504W        W24764   8.320  12.336   4.190
59505W        W24765  27.992  22.123   2.841
59506W        W24766  10.267  10.385   3.278
59507W        W24767  17.772  29.634   1.253
59508W        W24768  41.279  31.500  13.829
59509W        W24769  40.926   9.280   1.613
59510W        W24770  25.109   4.953   1.616
59511W        W24771  21.501  36.082   1.345
59512W        W24772  32.136   5.892   1.021
59513W        W24773  39.200  14.817  11.571
59514W        W24774  12.687  39.070   1.670
59515W        W24775  24.746  24.468   2.321
59516W        W24776  42.647  32.833  11.294
59517W        W24777  12.567  37.686   0.751
59518W        W24778   4.114  19.502   4.229
59519W        W24779  14.104  38.718  10.275
59520W        W24780  25.904  36.497  13.002
59521W        W24781  22.622  24.785  11.557
59522W        W24782  36.161  12.636   1.222
59523W        W24783  26.704  35.449  14.355
59524W        W24784  19.910  33.465  14.039
59525W        W24785   6.216  37.959   0.516
59526W        W24786  32.584  41.969  13.933
59527W        W24787  30.435  19.625   1.279
59528W        W24788  23.149   4.468   4.328
59529W        W24789  14.286  40.608  11.623
59530W        W24790  40.396  32.181  13.440
59531W        W24791   8.690  22.144  11.487
59532W        W24792  21.728  31.742   1.389
59533W        W24793  19.265  14.781  10.445
59534W        W24794  32.912  22.307   1.478
59535W        W24795   8.406  18.660   3.366
59536W        W24796  30.853   7.747   3.204
59537W        W24797  39.887  36.188   0.503
59538W        W24798  22.712   3.426   3.467
59539W        W24799  21.782  39.151  12.909
59540W        W24800   9.065  11.009   2.739
59541W        W24801   5.819  26.203   2.854
59542W        W24802  13.095  16.344   0.939
59543W        W24803  34.068   5.325  13.976
59544W        W24804  12.928  34.162   0.179
59545W        W24805  29.429   4.729   0.066
59546W        W24806   8.945   3.498   4.123
59547W        W24807  39.045  36.347   3.565
59548W        W24808  27.719  23.712   3.736
59549W        W24809  44.627  19.838  11.889
59550W        W24810  28.933  12.907   0.777
59551W        W24811  19.783  15.734   2.249
59552W        W24812  35.843  24.999   4.642
59553W        W24813  33.654  32.143  10.363
59554W        W24814  21.069  25.733   1.431
59555W        W24815  34.303   8.472  12.857
59556W        W24816  39.762   5.132   0.826
59557W        W24817  24.985  36.776  10.762
59558W        W24818  44.405  19.336   2.751
59559W        W24819  30.009  24.824   3.072
59560W        W24820  38.891  22.727   4.121
59561W        W24821  19.202  38.594   2.626
59562W        W24822  38.340  29.116   2.308
59563W        W24823  39.547  10.828   3.102
59564W        W24824  17.321  34.928  14.391
59565W        W24825   8.408  39.879   1.797
59566W        W24826  43.866  33.689  11.579
59567W        W24827   1.283  27.256  10.842
59568W        W24828   4.529   1.950  13.368
59569W        W24829  44.229  34.917   4.348
59570W        W24830  34.145  24.530   2.098
59571W        W24831   8.662  34.736   1.454
59572W        W24832  33.376   8.439  10.717
59573W        W24833  32.645  24.944   3.681
59574W        W24834   6.603  21.595   2.796
59575W        W24835   3.304  10.788   4.124
59576W        W24836  18.262  15.513   3.243
59577W        W24837   8.476  21.221  12.372
59578W        W24838   5.600  33.631  11.972
59579W        W24839  32.520  31.153   1.632
59580W        W24840  37.068  27.976  14.049
59581W        W24841   4.274   1.210   4.189
59582W        W24842  36.492  12.291  10.600
59583W        W24843  11.174   0.907  12.991
59584W        W24844  22.950  39.825  11.283
59585W        W24845   1.250  33.409  12.431
59586W        W24846   8.850  24.321   0.864
59587W        W24847  18.827  37.105  12.946
59588W        W24848  31.441  42.572  12.405
59589W        W24849  29.797  43.085  14.367
59590W        W24850  35.385   9.008   0.746
59591W        W24851   4.697  41.232  12.022
59592W        W24852   6.854  13.212   2.144
59593W        W24853  13.446  24.569  10.716
59594W        W24854  10.315   5.830  11.903
59595W        W24855   1.791  31.458   3.408
59596W        W24856  36.076   8.833  14.495
59597W        W24857   1.703  29.876  14.915
59598W        W24858  41.855   9.878  14.419
59599W        W24859  30.012  27.578  10.601
59600W        W24860  22.170   3.525   3.191
59601W        W24861  32.862  31.541  12.992
59602W        W24862  16.558  44.571  11.606
59603W        W24863  15.923  13.386   1.894
59604W        W24864  13.011  33.723   2.268
59605W        W24865  21.808  35.420   2.889
59606W        W24866   6.491  13.649  14.405
59607W        W24867  30.183  40.923  11.975
59608W        W24868  17.539  18.702  14.873
59609W        W24869  17.041   7.650  12.070
59610W        W24870  32.615   6.850   2.170
59611W        W24871  36.945  29.525   4.563
59612W        W24872   4.819  38.831  12.368
59613W        W24873  28.045  40.907  12.244
59614W        W24874  30.442  18.660   1.336
59615W        W24875  30.956  28.275   3.601
59616W        W24876  42.593  38.510   4.200
59617W        W24877   5.743  33.014  10.663
59618W        W24878  29.427  34.943  10.286
59619W        W24879  19.677  14.702  12.436
59620W        W24880  31.082  33.874  14.481
59621W        W24881  22.525  28.188  14.522
59622W        W24882   1.896   1.931  12.116
59623W        W24883  29.239  32.850  11.416
59624W        W24884  41.707  41.044   3.675
59625W        W24885  20.583  24.074   1.738
59626W        W24886  31.402  14.790  14.764
59627W        W24887  36.743  20.302   1.586
59628W        W24888   2.897  39.377   1.194
59629W        W24889  20.728  29.321  13.230
59630W        W24890  19.614  27.866  11.231
59631W        W24891  13.396   1.177  14.710
59632W        W24892  23.609  36.803   2.385
59633W        W24893  26.151  12.360  13.103
59634W        W24894  25.971   0.358  13.408
59635W        W24895  22.299   9.865   2.245
59636W        W24896  18.197   3.738   2.395
59637W        W24897  24.158   7.225  12.922
59638W        W24898  19.898  37.381   2.278
59639W        W24899  38.974   7.704  12.160
59640W        W24900  18.613  28.463  10.527
59641W        W24901  16.557   7.440  12.130
59642W        W24902  40.975   5.371  12.634
59643W        W24903  38.085   2.393  11.982
59644W        W24904  23.122   5.399   0.194
59645W        W24905   6.751   3.152   4.768
59646W        W24906  23.552  25.567   4.489
59647W        W24907  22.141  19.851  13.901
59648W        W24908  34.901  36.848  13.795
59649W        W24909  27.215  41.919   2.243
59650W        W24910  43.079  21.371   1.771
59651W        W24911  29.011  11.969   3.695
59652W        W24912  37.927  34.643   1.276
59653W        W24913  14.115  23.589   4.573
59654W        W24914   0.795  18.074   3.812
59655W        W24915  21.095  17.585   1.122
59656W        W24916  20.836   9.291  13.350
59657W        W24917  39.858   2.763   1.248
59658W        W24918   7.344  18.313  13.458
59659W        W24919  35.373   3.350   3.407
59660W        W24920  36.309  36.397   4.085
59661W        W24921  16.377   7.392  14.827
59662W        W24922  19.257  37.980   3.196
59663W        W24923  28.111  30.955  13.057
59664W        W24924   5.866  22.737  10.298
59665W        W24925  34.553   6.711   0.297
59666W        W24926  12.141  29.093  12.015
59667W        W24927  21.689  22.530  13.872
59668W        W24928  35.636   3.306  14.269
59669W        W24929   4.887  22.227   4.542
59670W        W24930   6.970  29.684  12.893
59671W        W24931   4.264   3.654   0.968
59672W        W24932  11.587  41.284   2.001
59673W        W24933   8.948  41.618   0.223
59674W        W24934   9.306  35.209  13.533
59675W        W24935   0.931  15.107   1.712
59676W        W24936  10.309   1.971   3.195
59677W        W24937  43.326  43.499   1.419
59678W        W24938  18.779   1.359   1.526
59679W        W24939  25.079  19.227   0.230
59680W        W24940  28.851  15.270  12.429
59681W        W24941  30.732  12.262   0.242
59682W        W24942  13.161  39.762   1.930
59683W        W24943  40.850   5.863  11.588
59684W        W24944   9.072  23.641   2.777
59685W        W24945  27.159  22.977   0.832
59686W        W24946  37.329   6.083   4.185
59687W        W24947  25.747  21.609   1.433
59688W        W24948   1.529  37.033   1.692
59689W        W24949  14.193  11.400  11.557
59690W        W24950   7.732  38.090  14.327
59691W        W24951   1.567  31.073   3.164
59692W        W24952   7.319   6.173  14.263
59693W        W24953  40.081  12.865   0.272
59694W        W24954  38.571  38.583   0.020
59695W        W24955  24.326  30.432  10.628
59696W        W24956  18.482   2.775   4.706
59697W        W24957  33.551   6.330   4.073
59698W        W24958  33.443  22.023   2.307
59699W        W24959  33.900  24.585  10.640
59700W        W24960  42.295  32.581  13.693
59701W        W24961  21.096   8.294   1.299
59702W        W24962  24.107  19.978   3.762
59703W        W24963  17.867   9.480  14.385
59704W        W24964  22.103  44.433   2.591
59705W        W24965   3.350  27.992  13.438
59706W        W24966  16.248  32.166   4.726
59707W        W24967  13.917  24.485   4.192
59708W        W24968   1.886  39.454  10.559
59709W        W24969  15.225  19.552   0.921
59710W        W24970  37.865  17.025  13.059
59711W        W24971   9.601   4.813  11.754
59712W        W24972  35.613  38.424  10.448
59713W        W24973  24.541  39.017   1.784
59714W        W24974  22.124  31.404   1.469
59715W        W24975  35.783  43.853  12.477
59716W        W24976  21.706  44.635   2.288
59717W        W24977  29.082  22.566   2.357
59718W        W24978  43.293  10.803  14.822
59719W        W24979  42.873   7.929   1.251
59720W        W24980  10.456  24.296  11.102
59721W        W24981  21.617  24.799  14.271
59722W        W24982   0.770  30.584  12.896
59723W        W24983  39.430  32.513  12.478
59724W        W24984  43.285  18.208  10.222
59725W        W24985  25.248  29.408   1.384
59726W        W24986  42.823  20.606   3.818
59727W        W24987   0.063  19.478  14.951
59728W        W24988  38.403  11.730  14.521
59729W        W24989  32.585  13.418   3.676
59730W        W24990  41.962   6.780  12.966
59731W        W24991  40.413  36.531  11.269
59732W        W24992  41.353  13.270  11.186
59733W        W24993  30.732  38.852   4.949
59734W        W24994  22.728   5.454  13.451
59735W        W24995  14.491  25.087  14.047
59736W        W24996  10.657  22.943  13.904
59737W        W24997  32.948  15.146  12.333
59738W        W24998  36.997  17.685   2.846
59739W        W24999  39.672  34.480   3.168
59740W        W25000  27.419  33.163   3.212
59741W        W25001  21.537  20.992   2.762
59742W        W25002   1.200  15.225   0.757
59743W        W25003  15.248  11.058  11.559
59744W        W25004  12.823   7.539  12.403
59745W        W25005  29.531   9.326  11.075
59746W        W25006   0.024  25.668   2.410
59747W        W25007   9.199   6.914   4.055
59748W        W25008  14.689  24.267   3.232
59749W        W25009  38.516  14.748   1.760
59750W        W25010  19.419  42.932  14.789
59751W        W25011  29.546  18.620  10.755
59752W        W25012  40.271  38.547  14.368
59753W        W25013  21.979   8.252   0.722
59754W        W25014  43.550  11.734   3.184
59755W        W25015  36.048  31.129  12.642
59756W        W25016  38.230  35.166   3.804
59757W        W25017   1.934  20.513  11.605
59758W        W25018  44.050   1.286   0.894
59759W        W25019   6.721   0.048   1.212
59760W        W25020  16.119  42.439   4.498
59761W        W25021  27.398  42.990  13.875
59762W        W25022  12.605  39.512   4.195
59763W        W25023  30.634  21.119  12.508
59764W        W25024  35.080   4.339  14.093
59765W        W25025   4.778  13.204   0.240
59766W        W25026  17.557  22.175  13.019
59767W        W25027  43.910  25.084  10.276
59768W        W25028  12.795  38.916  11.369
59769W        W25029  13.918   7.216   3.925
59770W        W25030  35.797  14.231  11.084
59771W        W25031  16.296  32.876  12.429
59772W        W25032  40.694  21.701   3.029
59773W        W25033   0.404  21.348  14.759
59774W        W25034  25.121  23.985  11.645
59775W        W25035  20.873   7.572   0.404
59776W        W25036  23.639  18.608  13.453
59777W        W25037  43.912  33.658   3.670
59778W        W25038  13.364  43.145  13.060
59779W        W25039  42.831  39.363  14.003
59780W        W25040   4.785  40.896   0.685
59781W        W25041  15.824  22.934  14.271
59782W        W25042  43.730  22.786   4.539
59783W        W25043   3.261  10.352   1.826
59784W        W25044  33.518  24.610   2.734
59785W        W25045  22.832  26.795  11.681
59786W        W25046  32.464  28.909   1.909
59787W        W25047   2.881  44.729   3.223
59788W        W25048  25.533  40.892   1.837
59789W        W25049  40.381   4.493   2.309
59790W        W25050  34.005   5.200   4.610
59791W        W25051   0.245   7.613   4.320
59792W        W25052  18.150  35.836   0.339
59793W        W25053   0.994  30.184  12.400
59794W        W25054  12.326  27.166   5.229
59795W        W25055  16.543  22.765   0.934
59796W        W25056  28.968  37.926  13.177
59797W        W25057   0.182  35.644  13.541
59798W        W25058  21.970  39.399   2.074
59799W        W25059   8.471  22.982  11.908
59800W        W25060  21.352  35.555  12.345
59801W        W25061  43.956  19.643   2.606
59802W        W25062   4.518  27.164   2.717
59803W        W25063   6.379  25.507   4.230
59804W        W25064   0.015  28.103  14.294
59805W        W25065  17.111  37.164  12.929
59806W        W25066  34.899  25.438  14.367
59807W        W25067  24.971  24.028   5.060
59808W        W25068  15.901  39.483  12.983
59809W        W25069  40.448  10.934  14.849
59810W        W25070  31.084  25.584   1.747
59811W        W25071  20.753   5.396  10.814
59812W        W25072  22.821  22.645  14.735
59813W        W25073   0.189  30.707  11.938
59814W        W25074  11.802  22.259   1.742
59815W        W25075  43.478  18.304   0.949
59816W        W25076  41.978  24.060   3.189
59817W        W25077  10.770  20.956   3.551
59818W        W25078  21.756  11.313  12.009
59819W        W25079  17.534  14.359  14.415
59820W        W25080  37.938   2.718   1.125
59821W        W25081  19.660   6.640  14.986
59822W        W25082   7.919  39.439  10.721
59823W        W25083  35.806  14.515   2.663
59824W        W25084   3.709  32.018   4.109
59825W        W25085  27.269   2.249  12.270
59826W        W25086   3.483  14.322   4.056
59827W        W25087  12.883   2.719  12.606
59828W        W25088  17.057  40.047  10.672
59829W        W25089  27.171  35.942   3.619
59830W        W25090  39.871  34.985  11.925
59831W        W25091  38.427  42.238   2.206
59832W        W25092   0.509  30.555  13.376
59833W        W25093  40.373   7.047   1.713
59834W        W25094  41.279  21.311  13.872
59835W        W25095   7.270  19.591  11.081
59836W        W25096  39.567  38.717  14.084
59837W        W25097  37.697  38.030  14.783
59838W        W25098  27.624   1.688   0.089
59839W        W25099  38.440  13.145  14.968
59840W        W25100  10.070  13.654   3.350
59841W        W25101   3.870  27.753  13.049
59842W        W25102   6.339   7.362  14.355
59843W        W25103  33.967  10.732   3.322
59844W        W25104  35.599  16.777   1.599
59845W        W25105  21.149  31.594   2.699
59846W        W25106  40.920   1.763   4.540
59847W        W25107   2.006  16.848  14.828
59848W        W25108  28.941  21.743  13.639
59849W        W25109  26.989  18.480   0.330
59850W        W25110   3.324  37.292  11.128
59851W        W25111   8.190  26.126   2.739
59852W        W25112   7.827   2.467   1.663
59853W        W25113  34.347  37.050  14.244
59854W        W25114  22.988  29.426   1.691
59855W        W25115  36.952  43.015   3.566
59856W        W25116  41.239  32.706  11.158
59857W        W25117  25.713  14.699   1.409
59858W        W25118  35.578  34.044   1.221
59859W        W25119  40.477   4.684  10.761
59860W        W25120   4.896  43.291  14.859
59861W        W25121  31.946  22.381  14.775
59862W        W25122  10.122  31.582  13.879
59863W        W25123  28.115  41.250  12.632
59864W        W25124   4.210  22.062  10.717
59865W        W25125  10.822  25.151  13.361
59866W        W25126  22.296  37.133  12.449
59867W        W25127   9.350   1.690  11.553
59868W        W25128   0.274  25.189   0.317
59869W        W25129  22.398  18.073   1.334
59870W        W25130  26.653  21.031  13.428
59871W        W25131   8.210  15.677   0.499
59872W        W25132  44.258  11.224  12.868
59873W        W25133  13.212   3.410  11.582
59874W        W25134  13.057  14.034  14.480
59875W        W25135  10.347  12.303   3.902
59876W        W25136  32.490   7.370  14.965
59877W        W25137  23.789  38.693  12.386
59878W        W25138  38.459  29.989  13.248
59879W        W25139   7.403  12.827   2.188
59880W        W25140  15.124  25.578  14.315
59881W        W25141   6.301   1.802  10.664
59882W        W25142  26.578  15.090   0.374
59883W        W25143  12.642  29.063  11.747
59884W        W25144  17.546   1.231  11.861
59885W        W25145  17.119   7.637   2.801
59886W        W25146   1.671   9.559   3.184
59887W        W25147  32.560  21.760  13.702
59888W        W25148   5.091  23.266   9.800
59889W        W25149  34.080  25.656   0.320
59890W        W25150  12.132  30.509  12.956
59891W        W25151   7.249   4.625  14.285
59892W        W25152  40.051   0.396   0.956
59893W        W25153  14.783   2.328  11.552
59894W        W25154  36.836  12.810   0.704
59895W        W25155  40.268  13.204  13.880
59896W        W25156  39.042  11.734   2.271
59897W        W25157  11.620  35.438  14.897
59898W        W25158  35.503  31.916   3.271
59899W        W25159   2.787  16.007   1.897
59900W        W25160  33.077  40.397  13.847
59901W        W25161  19.753  31.040  11.399
59902W        W25162  15.691   6.162   3.162
59903W        W25163  41.492  41.690  14.200
59904W        W25164   6.913   8.195  12.923
59905W        W25165   3.818  21.104   3.513
59906W        W25166  18.619  16.638   1.755
59907W        W25167  22.461  24.753   2.624
59908W        W25168   2.261   2.865  10.971
59909W        W25169   1.208   2.302  13.331
59910W        W25170  26.136  37.534  14.547
59911W        W25171  16.560  22.111   0.893
59912W        W25172  33.920   2.747   0.278
59913W        W25173   2.199  10.166   4.534
59914W        W25174   8.717   1.531  12.580
59915W        W25175  25.467  29.972  10.756
59916W        W25176  28.401  13.428  14.486
59917W        W25177  13.123  17.985  12.940
59918W        W25178  44.459  32.863  14.742
59919W        W25179   1.918  36.407  13.326
59920W        W25180  29.993  12.319  13.666
59921W        W25181  16.613   4.496  14.524
59922W        W25182  16.673  28.463  11.545
59923W        W25183  24.702  32.822   0.731
59924W        W25184  30.092  13.145  14.920
59925W        W25185  12.069  37.871  14.069
59926W        W25186  15.034   6.003   4.051
59927W        W25187  41.037  30.919   4.695
59928W        W25188  26.061  43.823  14.938
59929W        W25189   0.732  39.280   1.744
59930W        W25190  23.631  34.575  10.467
59931W        W25191  37.208   0.730  12.548
59932W        W25192  42.662   9.063   1.427
59933W        W25193  15.219  35.372   3.793
59934W        W25194   3.240   5.468  12.055
59935W        W25195   3.298   2.335   5.094
59936W        W25196  10.852   4.579   5.041
59937W        W25197   9.425  11.555   2.473
59938W        W25198  19.122  30.805  12.146
59939W        W25199  15.575  22.716   2.763
59940W        W25200   9.447  43.119  12.433
59941W        W25201  41.417  40.296  11.807
59942W        W25202   4.446   0.943   0.349
59943W        W25203  27.580  20.792   1.884
59944W        W25204  33.984  11.891   3.927
59945W        W25205  18.190  21.098  14.823
59946W        W25206  25.544  14.628   4.363
59947W        W25207   1.025  10.957   3.080
59948W        W25208  38.486  38.452   2.453
59949W        W25209  10.558   1.222  11.158
59950W        W25210  25.630  10.708  13.009
59951W        W25211  23.816   1.475   3.238
59952W        W25212  27.007  37.838  13.329
59953W        W25213  22.585  35.932  14.448
59954W        W25214  13.904   0.403  10.719
59955W        W25215  15.633  40.306   3.627
59956W        W25216  40.950  31.602   1.553
59957W        W25217   4.022  34.370   3.701
59958W        W25218  40.790  37.074   4.167
59959W        W25219  25.231  33.567  13.302
59960W        W25220  39.931  18.677   0.445
59961W        W25221  37.377  12.795   4.584
59962W        W25222  39.994   8.693   0.062
59963W        W25223   4.324   0.001  11.725
59964W        W25224  26.892  33.114   3.200
59965W        W25225  19.769  44.932  12.466
59966W        W25226  41.653  37.166  12.861
59967W        W25227  11.167  29.185   1.219
59968W        W25228  41.563  39.835   1.281
59969W        W25229  12.804  44.287  14.838
59970W        W25230  13.034  19.561   0.965
59971W        W25231   2.343  42.238   1.832
59972W        W25232  31.510  27.102  14.147
59973W        W25233   8.888  15.898  11.691
59974W        W25234  40.506  14.106   0.763
59975W        W25235  25.652  19.216   2.871
59976W        W25236  33.094  29.119  14.889
59977W        W25237   4.156  29.898  14.448
59978W        W25238   2.324  36.016   3.555
59979W        W25239   6.744  15.760   3.204
59980W        W25240  21.831  27.076   4.533
59981W        W25241  36.548  14.071   3.253
59982W        W25242  13.233  22.479  14.871
59983W        W25243  33.080  37.285   2.903
59984W        W25244  41.366   5.731   4.745
59985W        W25245   5.843  26.692   1.794
59986W        W25246  16.775  24.940  14.262
59987W        W25247  10.816  22.135  14.539
59988W        W25248   6.029  42.427   2.320
59989W        W25249  22.170   6.426   4.044
59990W        W25250   6.779  23.100   2.676
59991W        W25251  28.464   8.888  12.657
59992W        W25252   8.830  23.174   2.864
59993W        W25253   1.356   0.833   3.111
59994W        W25254  31.655  28.002  12.445
59995W        W25255  15.198  37.628  14.456
59996W        W25256  17.601  43.913  13.911
59997W        W25257  19.624   5.973   1.294
59998W        W25258   1.735  23.673  13.674
59999W        W25259  24.192  14.763   3.072
60000W        W25260  21.246  44.499  13.080
60001W        W25261  14.632   1.689   0.296
60002W        W25262  12.128  33.767  14.164
60003W        W25263  41.109  44.506  14.890
60004W        W25264  35.397  39.323   2.251
60005W        W25265  16.166  44.079  10.932
60006W        W25266  10.732  40.100  12.580
60007W        W25267  43.284  38.917  13.432
60008W        W25268  26.497  28.654  12.817
60009W        W25269  27.562  37.962   2.482
60010W        W25270  20.757   0.171   2.398
60011W        W25271  26.157  30.903   2.593
60012W        W25272   8.817  41.238   0.522
60013W        W25273   1.516  25.607   2.739
60014W        W25274  11.753  42.740  10.516
60015W        W25275  43.341  41.951  13.955
60016W        W25276  10.725  15.057   4.666
60017W        W25277   6.744  30.324   4.765
60018W        W25278  16.209   2.473   1.432
60019W        W25279  12.710   9.456  11.021
60020W        W25280  27.176  42.437   1.960
60021W        W25281  14.383  35.523  14.884
60022W        W25282  10.712  21.591   0.439
60023W        W25283  14.846  13.616   4.564
60024W        W25284  24.745   4.160  11.806
60025W        W25285   9.287  17.753   2.194
60026W        W25286  19.889  17.605   4.013
60027W        W25287   5.321   7.675  12.862
60028W        W25288  28.047  18.501   4.347
60029W        W25289   0.003  36.714   4.571
60030W        W25290  13.231  14.857   2.899
60031W        W25291  35.125  27.563   3.848
60032W        W25292  44.801  12.329   2.259
60033W        W25293   4.732  12.204  12.830
60034W        W25294  11.771   6.919   3.366
60035W        W25295   5.810   3.846  11.431
60036W        W25296  17.696  20.454   0.817
60037W        W25297  27.556  27.939   2.770
60038W        W25298   1.371  32.385   4.230
60039W        W25299   0.486  22.964   4.143
60040W        W25300   8.398  24.676   4.116
60041W        W25301  32.506  15.096   2.149
60042W        W25302   5.137  39.766  10.757
60043W        W25303  23.577  34.772  10.940
60044W        W25304  36.563  13.167  14.876
60045W        W25305   4.489  35.798  12.124
60046W        W25306  30.621  27.140   0.387
60047W        W25307  20.189  12.890  11.053
60048W        W25308  39.039  16.232  13.465
60049W        W25309  14.357  19.039   0.854
60050W        W25310  38.458  36.558   2.785
60051W        W25311   8.291  10.072   4.956
60052W        W25312   0.359  25.008  12.387
60053W        W25313  15.658  34.295  12.914
60054W        W25314   2.250  34.095   2.692
60055W        W25315   3.271   3.424  14.067
60056W        W25316   6.030  11.063   0.907
60057W        W25317  33.485  23.334  10.794
60058W        W25318   1.967  12.220   4.009
60059W        W25319  33.485   8.724  11.141
60060W        W25320  39.381  26.145  13.083
60061W        W25321  18.107  22.224   4.477
60062W        W25322  33.006  14.532  14.007
60063W        W25323  20.031  22.151  14.058
60064W        W25324   9.005  22.623   3.636
60065W        W25325   4.950  35.485  12.582
60066W        W25326   3.888  18.122   5.187
60067W        W25327  16.569  26.504   3.746
60068W        W25328  33.368  14.243   3.276
60069W        W25329  18.599  13.867   2.172
60070W        W25330   9.955  11.115   4.998
60071W        W25331  25.114  15.388  12.904
60072W        W25332  14.700  18.202  14.883
60073W        W25333   9.194   5.202   4.521
60074W        W25334   3.510  34.853   3.166
60075W        W25335  42.235  43.921  14.296
60076W        W25336  37.558  24.205  14.120
60077W        W25337  13.598  26.471  10.614
60078W        W25338  24.334  20.297   0.893
60079W        W25339  36.073  44.766   5.254
60080W        W25340  19.596  24.332  13.126
60081W        W25341  39.458  34.259   4.416
60082W        W25342   3.500  37.508  14.419
60083W        W25343  18.060  25.202   4.189
60084W        W25344  13.337   0.890   1.637
60085W        W25345   1.874  17.067  12.137
60086W        W25346  14.677   4.129  10.750
60087W        W25347  41.420   0.947   0.895
60088W        W25348  24.061  35.339  14.937
60089W        W25349   1.998  43.800   1.395
60090W        W25350  23.871   3.866  11.537
60091W        W25351  40.523  40.439  12.659
60092W        W25352  12.932   1.630  10.735
60093W        W25353  18.850  24.327   2.660
60094W        W25354  22.137  37.797   3.723
60095W        W25355  18.661   5.460  13.118
60096W        W25356   9.603  33.682  10.710
60097W        W25357  15.634  24.273  11.987
60098W        W25358  29.856  25.725   2.053
60099W        W25359  15.059   6.444  13.996
60100W        W25360   7.347  28.738  14.152
60101W        W25361  21.265  18.194  12.753
60102W        W25362   8.494  25.593   9.961
60103W        W25363  25.718  43.377   4.894
60104W        W25364   5.884  25.536  13.719
60105W        W25365  18.650  41.530   2.645
60106W        W25366  23.814  30.530  10.472
60107W        W25367  36.001  18.757   3.148
60108W        W25368  37.329  37.879   4.413
60109W        W25369   7.356  33.172  14.706
60110W        W25370  20.624  38.371   0.941
60111W        W25371  17.072  15.438   2.312
60112W        W25372   2.258  12.320  13.408
60113W        W25373  25.181  16.086   1.844
60114W        W25374  43.266  15.277  13.454
60115W        W25375  19.630   8.808   1.757
60116W        W25376  22.008  25.749  13.339
60117W        W25377  34.577   1.235  11.599
60118W        W25378  33.370  29.893  11.614
60119W        W25379  15.088  36.152  12.983
60120W        W25380  18.342  13.774   3.131
60121W        W25381  23.823  24.924  14.123
60122W        W25382  20.793  35.120  12.921
60123W        W25383  34.634  13.344   3.705
60124W        W25384  18.654   3.901  13.336
60125W        W25385   5.799   2.715  13.514
60126W        W25386  33.395  42.454   5.013
60127W        W25387  27.541  12.760   3.331
60128W        W25388  18.730  25.996  14.919
60129W        W25389  43.894  14.905   3.208
60130W        W25390  12.332  12.349   3.671
60131W        W25391  29.041  32.979  12.422
60132W        W25392  22.065   6.686  12.347
60133W        W25393  31.003  12.266   4.602
60134W        W25394  26.226  17.099   4.156
60135W        W25395   8.664  13.339  11.981
60136W        W25396   1.020  20.211   3.338
60137W        W25397  20.673  40.638   4.247
60138W        W25398   1.290  33.054  13.936
60139W        W25399  32.618  40.529  12.033
60140W        W25400   2.828  41.647   1.405
60141W        W25401  37.236  32.608   4.762
60142W        W25402  30.949  14.546   2.221
60143W        W25403   0.721  18.069  13.003
60144W        W25404  38.323  40.161   0.775
60145W        W25405   4.980  22.762  10.700
60146W        W25406   1.156  23.094  13.394
60147W        W25407   9.232  11.107   3.879
60148W        W25408   4.794  34.494   0.008
60149W        W25409  38.814  40.753  11.855
60150W        W25410  36.844   0.158  10.742
60151W        W25411  28.261   6.068  13.018
60152W        W25412  21.161  30.534   2.114
60153W        W25413  24.173  29.835  11.990
60154W        W25414  32.360  15.303   4.270
60155W        W25415  12.404  23.884  12.090
60156W        W25416  10.783  16.403  14.587
60157W        W25417   8.523   4.573   0.856
60158W        W25418  30.957   0.247   3.163
60159W        W25419  13.741  35.398  14.038
60160W        W25420  36.274   3.249   4.119
60161W        W25421   2.644  29.800  14.596
60162W        W25422  44.066   3.032  12.069
60163W        W25423  18.899  29.925  13.796
60164W        W25424  24.214  34.359   1.453
60165W        W25425  12.605  31.019  13.506
60166W        W25426  12.655  24.526   0.314
60167W        W25427   7.573   8.021   0.889
60168W        W25428  44.032  37.583  11.739
60169W        W25429  16.852  21.030   0.841
60170W        W25430   4.062   0.913   2.768
60171W        W25431  18.901  31.856   2.903
60172W        W25432  23.222  37.986   4.923
60173W        W25433   2.717  24.632   1.184
60174W        W25434   9.883  29.838   4.024
60175W        W25435  16.759  37.532  14.933
60176W        W25436  33.413  10.442   0.953
60177W        W25437   8.777   3.924  13.731
60178W        W25438  23.673  35.997  11.394
60179W        W25439   7.876  20.172  14.010
60180W        W25440  10.148   3.721   1.378
60181W        W25441  14.173   0.271  13.436
60182W        W25442   4.461   4.886  13.146
60183W        W25443  14.222  36.605  13.069
60184W        W25444   7.898  26.629   3.563
60185W        W25445  39.380  16.662  12.796
60186W        W25446  29.755   6.384   3.817
60187W        W25447  32.119   8.365  14.928
60188W        W25448  40.348  20.293  12.049
60189W        W25449  37.950  20.121  12.079
60190W        W25450   8.447  25.659   2.764
60191W        W25451  25.829   1.389  13.860
60192W        W25452  37.693   0.184  14.712
60193W        W25453  44.631   1.883   0.448
60194W        W25454  21.944  43.443   4.090
60195W        W25455  28.850  18.375  11.232
60196W        W25456  24.124  12.387   3.812
60197W        W25457  29.450  28.451  13.417
60198W        W25458  16.706  42.853  11.613
60199W        W25459  40.274  23.688   0.932
60200W        W25460  20.031  12.793   1.947
60201W        W25461  25.426  12.200  10.777
60202W        W25462  16.371  16.312   2.265
60203W        W25463  34.970  34.855   2.637
60204W        W25464   1.890  29.555  11.399
60205W        W25465  30.112  20.720  14.085
60206W        W25466  31.799  30.440  12.523
60207W        W25467   6.374  15.014   4.580
60208W        W25468  14.685  30.016   4.807
60209W        W25469  16.762   5.873   1.380
60210W        W25470  15.581  30.387  11.916
60211W        W25471  13.161  12.725   1.815
60212W        W25472   5.253  40.040   0.438
60213W        W25473  15.742  41.331   3.346
60214W        W25474  19.490  17.151  12.069
60215W        W25475   9.311   5.210  10.076
60216W        W25476  33.034  38.326   2.908
60217W        W25477  25.406  23.242  11.713
60218W        W25478   1.459  33.025   2.450
60219W        W25479  23.782  31.025  11.257
60220W        W25480  18.686   7.737  12.831
60221W        W25481  38.255  20.715   3.661
60222W        W25482   5.925  37.316   3.686
60223W        W25483  44.912   2.304  14.558
60224W        W25484  12.162  42.797  11.142
60225W        W25485  21.151   2.815  13.582
60226W        W25486  27.405  25.136  12.096
60227W        W25487  37.999  33.442   3.658
60228W        W25488  33.996   2.002  13.409
60229W        W25489  44.605  16.786  11.195
60230W        W25490  44.823   5.412  11.155
60231W        W25491  36.452   4.471   4.080
60232W        W25492  33.771   4.699   4.686
60233W        W25493  27.423   4.827   0.311
60234W        W25494   2.838  33.037  13.167
60235W        W25495  36.086   4.849   4.094
60236W        W25496  40.639  22.657  13.441
60237W        W25497   9.690  26.892   3.605
60238W        W25498  34.665  37.773   0.633
60239W        W25499  36.769  29.892  11.655
60240W        W25500  39.320  10.377   3.722
60241W        W25501  13.316  21.662   3.175
60242W        W25502  19.185  18.329   4.263
60243W        W25503   6.181   6.181  10.682
60244W        W25504  13.727  25.307   1.184
60245W        W25505  39.313  14.328   3.784
60246W        W25506   7.079  34.820   0.732
60247W        W25507  11.936   1.070   4.123
60248W        W25508  38.007  42.088  12.572
60249W        W25509   3.620   7.361   0.493
60250W        W25510   7.285  15.818   3.218
60251W        W25511  44.650   6.814   1.796
60252W        W25512  30.828  28.853  10.776
60253W        W25513  21.493  29.454  11.085
60254W        W25514  36.001  28.113   2.247
60255W        W25515  15.089  22.830   0.319
60256W        W25516  23.381   7.006   9.901
60257W        W25517   9.806  32.886   3.855
60258W        W25518  11.076   5.349  10.610
60259W        W25519  37.720  17.098  12.199
60260W        W25520  39.217  39.651  14.895
60261W        W25521  39.880   8.298  14.712
60262W        W25522  11.303  31.340   1.835
60263W        W25523   5.377  12.595   0.747
60264W        W25524   1.976  30.592   3.950
60265W        W25525  35.342  23.822   0.745
60266W        W25526  10.976  24.139  14.406
60267W        W25527  23.117  23.014  13.825
60268W        W25528  28.653   5.146  12.886
60269W        W25529  30.554  43.030  14.939
60270W        W25530  37.541   2.159   1.698
60271W        W25531   3.674  11.962   3.708
60272W        W25532  27.433  43.937  14.028
60273W        W25533   0.996  24.035   5.013
60274W        W25534  23.689  39.128  14.634
60275W        W25535  36.086  16.791   3.440
60276W        W25536  40.896  35.384  13.177
60277W        W25537  30.502  31.162   1.911
60278W        W25538  32.711  36.106   4.724
60279W        W25539  18.226  43.025  13.425
60280W        W25540   9.654  30.658  11.094
60281W        W25541  29.468  20.530  10.791
60282W        W25542  40.904   1.980   1.060
60283W        W25543  44.502  42.528  12.463
60284W        W25544  41.890  22.113  10.746
60285W        W25545  16.151  44.419  13.840
60286W        W25546   7.883  31.529   3.185
60287W        W25547   3.452  30.871   0.385
60288W        W25548  38.706  33.327   4.163
60289W        W25549   8.403  28.151  11.654
60290W        W25550   1.865  19.728  12.093
60291W        W25551  35.331  14.133   0.456
60292W        W25552  22.536  11.788  10.324
60293W        W25553  25.409   3.743   2.371
60294W        W25554  21.906  38.947  12.420
60295W        W25555  27.651   3.978  10.478
60296W        W25556   5.871  18.416   3.968
60297W        W25557   3.784  40.346  14.914
60298W        W25558  28.682  13.053  13.568
60299W        W25559  24.639  40.780   0.468
60300W        W25560  23.498  21.004  14.430
60301W        W25561  27.361  42.591  11.530
60302W        W25562  18.695  21.682   5.472
60303W        W25563  29.565  10.224   2.230
60304W        W25564  17.224  18.775  14.468
60305W        W25565  31.394  32.960   0.252
60306W        W25566   4.873   8.582   3.238
60307W        W25567  22.612   0.339  13.764
60308W        W25568  41.973  32.523  10.608
60309W        W25569  12.709  31.065   2.781
60310W        W25570  18.759  33.336   3.374
60311W        W25571  33.170  21.630   2.147
60312W        W25572   4.805  34.395   4.188
60313W        W25573   6.206  16.386   0.897
60314W        W25574  38.100  28.118  12.101
60315W        W25575  21.721  20.784   4.406
60316W        W25576  31.903  34.042   0.758
60317W        W25577  11.908  31.139  14.725
60318W        W25578  12.120   5.309  10.569
60319W        W25579  42.551  22.655  10.596
60320W        W25580  20.298  34.422  13.118
60321W        W25581   6.874  32.955  14.549
60322W        W25582   4.391  19.182  13.448
60323W        W25583  14.713  22.684  13.360
60324W        W25584  32.278  25.164  12.529
60325W        W25585  11.154  12.796   2.309
60326W        W25586  36.333  22.035   0.794
60327W        W25587  43.557  22.191   2.250
60328W        W25588  36.512  15.859   4.563
60329W        W25589  42.784  36.830  13.937
60330W        W25590  31.467  44.430   3.231
60331W        W25591  21.692  15.285   1.666
60332W        W25592  37.772  34.983  10.291
60333W        W25593  35.114  25.063   0.288
60334W        W25594  33.455  20.730   1.663
60335W        W25595  37.542  13.038   4.154
60336W        W25596  30.696  17.507  14.943
60337W        W25597  44.776  14.356  11.199
60338W        W25598  13.316  41.560   1.363
60339W        W25599  21.515   9.178  11.925
60340W        W25600  31.830  24.930  12.706
60341W        W25601  20.685  40.844   0.324
60342W        W25602  44.776   7.666   0.738
60343W        W25603   8.648  36.912  11.632
60344W        W25604   5.874  39.358   2.255
60345W        W25605  21.714  14.309  14.317
60346W        W25606  20.135  33.023  10.436
60347W        W25607  19.730  27.238  14.526
60348W        W25608  28.630  26.069   2.288
60349W        W25609  11.632  39.877   0.865
60350W        W25610  11.877  41.764   4.390
60351W        W25611  19.097  41.412  14.520
60352W        W25612  43.444  16.040   4.612
60353W        W25613  38.900  12.841  11.590
60354W        W25614  41.988  21.747   2.725
60355W        W25615  15.261  10.714  10.609
60356W        W25616  26.120  23.569  13.942
60357W        W25617  32.187   4.886   0.384
60358W        W25618  19.228   3.730   4.540
60359W        W25619  23.607  36.474  11.159
60360W        W25620   3.945  32.308   2.337
60361W        W25621  18.149  19.929  11.966
60362W        W25622   6.034  28.734   1.512
60363W        W25623  33.957  28.574   2.982
60364W        W25624  41.393   5.133  12.437
60365W        W25625  28.563   2.768  10.665
60366W        W25626  11.273  38.581   4.361
60367W        W25627  21.067   3.462  12.205
60368W        W25628   6.406  28.725  10.900
60369W        W25629   3.380  17.116   0.853
60370W        W25630   2.483  37.466  12.506
60371W        W25631   4.168  43.813   1.935
60372W        W25632  23.570   9.954  11.037
60373W        W25633   1.476  35.053  12.086
60374W        W25634  15.144  39.326  14.808
60375W        W25635  17.121  36.964  13.813
60376W        W25636  31.525   7.188   2.195
60377W        W25637  20.556   8.691   5.101
60378W        W25638  43.913  22.547  12.317
60379W        W25639  28.969   8.103  11.170
60380W        W25640  26.539  18.053   3.018
60381W        W25641  27.260  26.948  12.083
60382W        W25642  22.930  26.079   0.351
60383W        W25643  15.774  41.412   4.938
60384W        W25644   1.591  24.137   1.650
60385W        W25645  33.171  43.270   2.772
60386W        W25646  12.035  40.450  13.030
60387W        W25647  27.281   0.275   0.511
60388W        W25648  40.577   1.230   2.776
60389W        W25649  32.960  42.376  10.692
60390W        W25650  32.494  43.902   4.437
60391W        W25651  20.111  34.765  11.466
60392W        W25652  26.672  40.186   4.941
60393W        W25653  36.497  17.585  12.592
60394W        W25654   3.248   3.781  13.681
60395W        W25655  43.552   6.808   4.204
60396W        W25656  38.557  24.748   4.352
60397W        W25657  26.977   5.825  14.880
60398W        W25658  24.757  11.193   2.926
60399W        W25659   3.779  10.846  11.034
60400W        W25660   4.420  16.804   3.810
60401W        W25661  33.371  31.681   2.816
60402W        W25662  21.420  39.200  11.116
60403W        W25663   4.085  31.381   0.851
60404W        W25664   1.828  27.921  10.666
60405W        W25665  33.153  36.611   0.229
60406W        W25666  40.628  18.277   3.239
60407W        W25667   1.369  41.776  11.533
60408W        W25668  30.005   9.850  12.435
60409W        W25669  40.972  38.025   2.365
60410W        W25670  12.242  14.881  12.914
60411W        W25671  15.999  13.906   1.065
60412W        W25672  13.115  41.772   0.954
60413W        W25673   4.863  29.881   1.659
60414W        W25674   7.557  31.127  12.940
60415W        W25675   5.907  28.492  12.147
60416W        W25676  29.847  29.958   0.294
60417W        W25677   8.592  42.283   3.761
60418W        W25678  34.999  25.134   3.622
60419W        W25679   0.802  43.301   1.441
60420W        W25680  34.476   7.964  13.030
60421W        W25681  40.386  22.428   4.538
60422W        W25682  25.002  20.548   2.687
60423W        W25683  28.120  36.450  12.194
60424W        W25684  43.089   1.977   4.130
60425W        W25685   4.819  29.964   0.259
60426W        W25686  32.572  39.172   1.543
60427W        W25687   3.878  11.444   3.643
60428W        W25688  24.415   7.073   4.585
60429W        W25689  42.686  26.049  14.438
60430W        W25690  36.007   2.854   0.326
60431W        W25691  18.778  44.553  14.240
60432W        W25692  12.289  38.603   3.316
60433W        W25693  22.952  26.595  14.749
60434W        W25694  32.573   3.291   4.546
60435W        W25695  15.412  18.183  14.384
60436W        W25696  36.372  18.499  13.580
60437W        W25697  18.397   8.305  10.504
60438W        W25698   7.831  19.909  12.859
60439W        W25699   5.744  40.279   3.802
60440W        W25700  28.435   4.400   3.638
60441W        W25701  26.490  22.056   1.686
60442W        W25702  23.397  38.248  12.995
60443W        W25703   4.957  14.123   0.052
60444W        W25704  27.440  27.047   3.691
60445W        W25705  21.045  39.546  11.079
60446W        W25706  31.208   5.303   4.294
60447W        W25707  18.732  29.071   4.715
60448W        W25708  29.950  20.728  13.587
60449W        W25709  37.397  18.730   2.654
60450W        W25710  40.963   2.165  10.158
60451W        W25711  43.041  12.514   1.778
60452W        W25712   0.305  29.673   2.257
60453W        W25713  40.411  41.756   3.671
60454W        W25714  13.455  18.039  14.261
60455W        W25715  34.306  42.917   1.112
60456W        W25716  34.462  15.983  11.539
60457W        W25717   8.689  37.550   3.850
60458W        W25718  26.172  25.642   3.644
60459W        W25719   8.963  44.426   4.496
60460W        W25720   3.080   8.694   4.147
60461W        W25721  44.430  20.243  14.153
60462W        W25722  21.586  28.674  12.866
60463W        W25723   1.885  32.666  12.898
60464W        W25724  42.256  26.699  11.077
60465W        W25725  31.611   6.796   1.366
60466W        W25726  43.456  14.548   3.878
60467W        W25727  27.489  31.486   2.657
60468W        W25728  30.116   1.517   4.687
60469W        W25729  44.925   7.171   0.843
60470W        W25730  13.029  43.337   4.901
60471W        W25731  10.581   8.508  11.855
60472W        W25732  17.626  21.198  12.693
60473W        W25733   0.830   1.396  11.631
60474W        W25734  23.289  23.307  13.436
60475W        W25735  43.455  18.095   2.714
60476W        W25736  31.446   6.791   1.867
60477W        W25737   5.216   0.296   1.921
60478W        W25738  15.605  20.174  14.450
60479W        W25739   4.915  12.024  10.394
60480W        W25740  12.765  26.214  11.967
60481W        W25741  39.414  33.483   1.311
60482W        W25742  12.687  30.940  12.329
60483W        W25743   0.089  29.516  11.422
60484W        W25744  29.132  19.584  12.088
60485W        W25745   4.998  10.292   2.730
60486W        W25746  28.016   5.949   2.789
60487W        W25747  17.831  44.901  12.834
60488W        W25748  38.767  42.704   4.234
60489W        W25749   9.713  35.171   0.789
60490W        W25750  37.718  43.676  13.082
60491W        W25751  34.609   2.798  12.913
60492W        W25752  13.733  21.055   3.787
60493W        W25753  17.484  17.102  10.987
60494W        W25754  31.674  30.136  12.952
60495W        W25755  11.693  36.671   0.314
60496W        W25756  34.008   1.900   4.289
60497W        W25757  13.371   3.918  11.505
60498W        W25758   8.000   2.250   0.665
60499W        W25759   1.797  36.010  14.802
60500W        W25760  35.575   1.029  13.991
60501W        W25761  35.190  37.474   1.271
60502W        W25762  26.130   8.936   2.297
60503W        W25763  18.088  25.756  10.511
60504W        W25764  43.750   4.361   0.996
60505W        W25765  33.616  36.589   4.498
60506W        W25766  23.435   3.677  12.067
60507W        W25767  31.631  17.613  13.477
60508W        W25768  42.585  21.567   1.407
60509W        W25769  44.411   8.451   3.791
60510W        W25770  27.603   6.243   0.671
60511W        W25771  13.064  33.155   0.919
60512W        W25772  24.143  35.496  13.993
60513W        W25773  27.450  10.322  11.979
60514W        W25774  40.940  37.144  12.497
60515W        W25775   8.193  30.572   2.035
60516W        W25776   6.924  44.883   0.753
60517W        W25777  34.689  39.002  14.871
60518W        W25778  12.221  28.985  11.040
60519W        W25779  20.190  40.014   1.904
60520W        W25780  14.652   9.403   2.635
60521W        W25781  11.582  10.204  14.773
60522W        W25782   2.760  11.873  12.565
60523W        W25783   9.121  31.185   4.606
60524W        W25784  19.374  41.874  12.561
60525W        W25785  31.516  37.698   0.283
60526W        W25786   6.043  26.090  12.499
60527W        W25787  26.508  40.601   0.957
60528W        W25788  44.172   1.889   1.311
60529W        W25789  13.868  19.767   4.053
60530W        W25790  22.194  26.320   4.699
60531W        W25791  37.614   0.613  12.984
60532W        W25792  13.211   2.016  11.576
60533W        W25793  38.075  26.427  13.114
60534W        W25794   6.031  26.050  11.565
60535W        W25795  36.602  34.102  14.752
60536W        W25796  25.230  12.358  13.904
60537W        W25797  43.642  37.179   1.491
60538W        W25798  33.406   3.914  13.953
60539W        W25799  21.520  29.464   4.478
60540W        W25800  42.238  43.904  13.285
60541W        W25801  33.959  23.247  12.136
60542W        W25802  14.251  23.164   1.444
60543W        W25803  18.105  23.173  13.837
60544W        W25804  32.637  38.847  11.464
60545W        W25805   4.360  18.577  11.604
60546W        W25806  25.013  12.189  13.421
60547W        W25807  10.966   3.343  12.144
60548W        W25808  35.878   1.353  12.378
60549W        W25809  28.157   7.588   4.733
60550W        W25810  34.377  34.746   0.581
60551W        W25811  37.937  25.017  12.570
60552W        W25812   3.387   9.346   2.777
60553W        W25813  22.010  42.060   1.839
60554W        W25814  22.573  15.543   2.641
60555W        W25815  32.377  42.377  13.009
60556W        W25816  40.965  27.045   0.858
60557W        W25817  33.511   7.216  12.656
60558W        W25818   9.312  30.486  13.735
60559W        W25819  36.379  37.806  12.611
60560W        W25820  18.547  42.279   4.982
60561W        W25821   1.693   7.238  12.865
60562W        W25822   1.371  35.501   3.463
60563W        W25823  42.183  44.462   1.773
60564W        W25824  26.192  25.559   2.809
60565W        W25825  44.064  30.215  12.511
60566W        W25826  15.474  21.061  10.761
60567W        W25827  33.453  22.698   4.078
60568W        W25828  23.580   8.734   2.794
60569W        W25829  23.035   4.517  14.207
60570W        W25830  11.012  33.157  12.474
60571W        W25831  30.956  23.665   3.862
60572W        W25832  18.068  13.114   3.285
60573W        W25833  10.243  29.757   2.104
60574W        W25834  12.260   1.855  14.004
60575W        W25835  17.161  43.902  14.515
60576W        W25836   2.758   6.449  14.638
60577W        W25837  13.843  26.572   2.213
60578W        W25838   0.151   0.006  10.654
60579W        W25839  18.559   7.246  12.676
60580W        W25840   5.398  25.922   2.795
60581W        W25841  23.249  17.299  12.912
60582W        W25842  19.466  41.786   1.688
60583W        W25843   5.661   0.048   1.884
60584W        W25844   8.353  12.588   1.292
60585W        W25845  29.611  24.667   2.265
60586W        W25846  37.480  33.216  10.542
60587W        W25847  44.225   5.399   0.054
60588W        W25848   2.245  38.026  11.388
60589W        W25849  23.901  38.849   0.486
60590W        W25850   8.829   2.297   4.597
60591W        W25851  23.792  32.155  10.693
60592W        W25852   6.340  13.402  12.155
60593W        W25853  11.297  26.033   2.753
60594W        W25854  33.747  29.696   0.265
60595W        W25855  32.478  16.096  12.573
60596W        W25856  11.151  29.082  11.652
60597W        W25857   9.887  32.464  10.991
60598W        W25858   1.333   1.878  12.829
60599W        W25859  28.498   0.936   4.247
60600W        W25860  20.110  21.943  11.461
60601W        W25861  38.058  15.353   3.009
60602W        W25862  41.372  31.674   3.845
60603W        W25863  30.166  34.309   0.553
60604W        W25864  11.315  40.068   1.822
60605W        W25865   7.431  36.536  13.600
60606W        W25866  32.002  41.073  10.926
60607W        W25867  18.752  25.910  14.146
60608W        W25868   7.295  20.186   2.297
60609W        W25869  19.536   4.824  11.914
60610W        W25870   0.973   1.021  13.834
60611W        W25871  37.467  44.137  10.928
60612W        W25872   2.169  20.187   2.383
60613W        W25873  23.654  39.475   3.778
60614W        W25874   9.788  11.895  13.385
60615W        W25875  42.742  13.375  14.031
60616W        W25876  19.566  30.528   3.536
60617W        W25877  17.195  42.999   3.357
60618W        W25878  28.669  32.480   1.739
60619W        W25879  31.680  23.855   5.377
60620W        W25880   5.455  15.574  13.817
60621W        W25881  42.022   2.624   0.511
60622W        W25882  21.600   6.477  12.518
60623W        W25883  29.024  23.593   0.448
60624W        W25884  39.747   5.860   1.391
60625W        W25885  17.516  28.706   4.548
60626W        W25886   6.499  36.404   3.518
60627W        W25887  15.104  35.352   2.893
60628W        W25888  43.941   9.504   1.985
60629W        W25889  30.850   6.315  11.383
60630W        W25890   9.779  23.056  14.779
60631W        W25891  42.295  25.518  13.825
60632W        W25892   9.235   1.258   1.691
60633W        W25893  21.541  16.737  10.264
60634W        W25894  39.400  19.547  10.511
60635W        W25895  20.114  31.428  12.501
60636W        W25896   4.181   3.456   2.691
60637W        W25897  44.956  18.580  13.535
60638W        W25898  39.910  16.523  14.527
60639W        W25899  41.046   0.796   1.306
60640W        W25900  31.602  26.168  12.611
60641W        W25901   6.210  35.640   3.269
60642W        W25902  12.642  44.903   1.919
60643W        W25903  39.999  41.850   1.333
60644W        W25904   8.861  38.109   1.889
60645W        W25905   5.517  30.003  11.679
60646W        W25906  13.017   8.262  13.868
60647W        W25907  44.815  25.091   9.860
60648W        W25908  15.823  43.534   4.524
60649W        W25909   6.170  25.205   3.810
60650W        W25910  26.753   6.289   2.253
60651W        W25911  33.909   9.963  12.055
60652W        W25912   5.485  39.861   2.687
60653W        W25913  31.175  13.747  10.709
60654W        W25914  19.183  31.373   0.471
60655W        W25915  42.480  26.651   3.689
60656W        W25916  23.401  30.438   3.261
60657W        W25917  29.073  31.078  13.764
60658W        W25918  16.223  28.106   1.365
60659W        W25919  16.076   2.753   2.221
60660W        W25920  34.846  10.621   4.579
60661W        W25921  16.270   8.740  12.008
60662W        W25922  19.069  37.107  11.213
60663W        W25923   8.493   8.820   0.315
60664W        W25924  11.315  15.744   0.802
60665W        W25925  21.478  40.472  11.933
60666W        W25926   4.724  28.057  11.021
60667W        W25927   0.344  42.912   2.141
60668W        W25928  38.890  16.649  14.135
60669W        W25929  34.335  11.109   4.097
60670W        W25930  20.641  37.290  12.258
60671W        W25931   1.442   0.351   1.363
60672W        W25932  12.638  37.721  14.830
60673W        W25933   0.204  16.567  13.248
60674W        W25934  21.658  31.419   2.688
60675W        W25935  43.976  37.967   4.655
60676W        W25936   2.902  19.943   3.670
60677W        W25937   8.462  35.040  12.377
60678W        W25938  37.021  15.495   2.423
60679W        W25939  17.973  19.191   2.403
60680W        W25940  39.843  37.236   5.147
60681W        W25941  14.618  17.932  11.472
60682W        W25942  28.944  21.512   2.810
60683W        W25943   8.096  35.913  13.434
60684W        W25944  30.131  39.999   4.670
60685W        W25945  29.617  30.451  14.417
60686W        W25946  39.795  44.954   3.448
60687W        W25947  28.551  42.492   0.059
60688W        W25948  26.226  27.778   3.607
60689W        W25949  22.185  17.809  10.099
60690W        W25950  10.646  30.467   9.852
60691W        W25951  20.600  11.067   1.290
60692W        W25952  22.202  10.417   1.196
60693W        W25953   0.730   7.416  12.044
60694W        W25954  33.899  30.623  14.745
60695W        W25955   6.792  29.418   9.909
60696W        W25956   3.864  13.129   2.780
60697W        W25957  34.502  22.754  10.676
60698W        W25958  33.172  37.456   4.178
60699W        W25959  39.454  35.806   3.034
60700W        W25960   1.991  22.067   2.218
60701W        W25961  19.822  40.093   4.086
60702W        W25962   8.921  12.874  13.790
60703W        W25963  43.322  28.021  13.681
60704W        W25964  35.367  36.671   4.113
60705W        W25965  11.413  37.556   1.922
60706W        W25966   8.068  27.249  10.570
60707W        W25967   5.329  14.361  13.147
60708W        W25968  18.645  11.758  12.410
60709W        W25969   7.099  14.151  11.035
60710W        W25970  36.381  18.592   1.781
60711W        W25971   6.993   8.337  14.752
60712W        W25972  25.624   0.844   4.192
60713W        W25973  21.255  43.751  11.047
60714W        W25974   7.588  11.082  13.335
60715W        W25975  30.458  23.513  12.074
60716W        W25976  34.158   4.911   0.999
60717W        W25977  33.012  37.079  13.805
60718W        W25978  43.438  29.472  12.752
60719W        W25979   2.758  17.834   2.223
60720W        W25980  30.303  10.829  10.343
60721W        W25981  36.304  16.284  13.867
60722W        W25982  14.578   3.519   0.044
60723W        W25983  11.832  20.757  11.438
60724W        W25984  29.368   4.974   4.196
60725W        W25985  39.760  38.439  13.037
60726W        W25986  27.591  14.647  10.978
60727W        W25987   8.458  15.587  11.096
60728W        W25988  42.916   3.894   3.239
60729W        W25989  26.048   5.717   4.604
60730W        W25990   5.281  14.373   4.050
60731W        W25991   2.272  39.771   1.052
60732W        W25992  16.732   2.519   0.767
60733W        W25993  13.531   1.178  11.488
60734W        W25994  43.806  18.959   2.253
60735W        W25995  11.326  38.777   3.115
60736W        W25996  11.164  23.479   0.398
60737W        W25997  29.414  18.743   1.366
60738W        W25998   5.305  32.490   0.219
60739W        W25999   9.847  44.268   4.138
60740W        W26000  38.041  43.565   2.272
60741W        W26001  24.124  33.844  11.002
60742W        W26002  27.272  12.849  13.367
60743W        W26003  44.182  23.101  13.490
60744W        W26004  33.545  24.682  14.824
60745W        W26005  38.498  16.140  11.445
60746W        W26006  42.400  36.547   4.186
60747W        W26007  40.804  41.094   3.861
60748W        W26008  30.455   9.614   4.038
60749W        W26009  15.753   9.398   1.283
60750W        W26010  36.516  15.134   1.563
60751W        W26011   6.305   5.357  10.372
60752W        W26012  32.838  24.683  14.220
60753W        W26013  15.234  21.777   0.248
60754W        W26014  16.831  35.617   3.318
60755W        W26015   5.376  35.831   1.796
60756W        W26016   6.186  21.653   3.131
60757W        W26017  38.847   6.253  12.064
60758W        W26018  40.863  39.314  13.043
60759W        W26019  38.178  26.505   1.847
60760W        W26020  39.855  31.029  11.965
60761W        W26021  30.420  21.927   1.748
60762W        W26022  37.589  39.546  11.821
60763W        W26023  44.469  19.623  12.704
60764W        W26024  19.481   0.833   0.774
60765W        W26025  33.116  30.071   4.092
60766W        W26026  25.059   9.238  14.283
60767W        W26027   8.948  12.172  10.554
60768W        W26028   0.666  21.846   2.439
60769W        W26029  37.752  13.794  14.965
60770W        W26030  33.411  33.992  10.472
60771W        W26031  11.206  34.519   2.249
60772W        W26032  32.405  19.752  11.231
60773W        W26033  40.097  10.843   1.750
60774W        W26034  42.503  12.786  14.698
60775W        W26035   5.796  22.546   2.305
60776W        W26036  23.230  19.511  11.854
60777W        W26037  43.983  43.353   2.234
60778W        W26038  20.945  39.324   2.747
60779W        W26039  12.126  43.049   5.038
60780W        W26040  19.971  40.094   0.375
60781W        W26041  32.545   8.433   0.243
60782W        W26042  36.751  26.668  13.900
60783W        W26043  16.557  31.966  10.675
60784W        W26044  27.065  28.059   3.742
60785W        W26045  14.789  30.172  12.885
60786W        W26046  25.310  44.937  11.935
60787W        W26047  35.833  33.719  12.073
60788W        W26048  39.450  26.274   4.644
60789W        W26049  41.382  35.827  14.918
60790W        W26050  10.738  19.075   0.893
60791W        W26051  21.798  26.606  11.669
60792W        W26052   0.283   3.215  10.575
60793W        W26053  31.527  29.933   2.788
60794W        W26054  12.750  13.294   2.328
60795W        W26055   1.730  19.632   3.138
60796W        W26056  26.042  44.800  13.575
60797W        W26057   2.627  40.022   0.770
60798W        W26058  18.806  34.330  11.568
60799W        W26059  26.293  18.659  12.630
60800W        W26060   2.790   9.865   3.257
60801W        W26061   9.295  20.852   3.920
60802W        W26062   0.234   6.156  10.577
60803W        W26063  34.591  44.054   0.849
60804W        W26064  23.170   6.613  12.966
60805W        W26065  15.109  33.133  14.037
60806W        W26066  36.886   4.556   0.817
60807W        W26067  18.780  15.006  11.976
60808W        W26068  35.632   8.540   3.096
60809W        W26069  34.430  36.993  11.527
60810W        W26070  35.556   1.935  12.915
60811W        W26071  21.990  26.214  12.458
60812W        W26072   1.742  32.166  11.998
60813W        W26073  39.380  43.023   0.755
60814W        W26074   8.903  36.960  13.924
60815W        W26075  13.349   9.295   1.739
60816W        W26076   2.965   1.354  10.489
60817W        W26077  18.270  30.258  10.774
60818W        W26078  15.568  29.541  14.338
60819W        W26079  12.653  13.633   0.511
60820W        W26080  25.583  14.533  10.412
60821W        W26081  25.152   2.317   0.723
60822W        W26082  12.315  36.814  11.139
60823W        W26083   2.281   0.774   4.473
60824W        W26084  16.140  41.339  14.987
60825W        W26085  39.927  13.917  12.371
60826W        W26086  12.651   6.199   1.344
60827W        W26087  10.888  42.178   0.308
60828W        W26088  28.709  30.939   4.894
60829W        W26089  31.531  29.065   3.070
60830W        W26090  30.512   5.928   1.628
60831W        W26091  21.746  20.228  13.591
60832W        W26092  26.997   5.575  11.082
60833W        W26093  40.015   7.319   2.573
60834W        W26094  21.483   7.940  12.387
60835W        W26095  35.585   2.892  13.934
60836W        W26096  26.177  29.424  13.185
60837W        W26097  38.442  23.037   0.339
60838W        W26098  19.578  10.882   3.824
60839W        W26099  13.633  39.440   0.644
60840W        W26100  33.483  25.192  13.546
60841W        W26101  13.790  35.599   1.281
60842W        W26102  30.997  27.966  14.334
60843W        W26103  18.577  11.543  11.947
60844W        W26104  25.619  11.270   0.863
60845W        W26105  42.299  33.209  14.158
60846W        W26106  21.248  19.332  14.431
60847W        W26107  21.511  15.174   1.191
60848W        W26108  15.671  29.235  10.673
60849W        W26109  44.965   3.548  14.903
60850W        W26110  30.090  34.799   0.489
60851W        W26111   9.132  29.095  12.419
60852W        W26112   3.185  39.813  13.983
60853W        W26113  11.591  17.643  10.596
60854W        W26114  32.710   2.042   2.651
60855W        W26115  39.938  32.384  12.569
60856W        W26116   2.839  41.909   3.283
60857W        W26117  25.995  33.613  14.321
60858W        W26118  31.475  27.203   3.112
60859W        W26119   8.293  18.527   1.827
60860W        W26120  40.082  32.205   3.724
60861W        W26121   9.920  40.920  13.834
60862W        W26122  14.324   3.299   1.605
60863W        W26123  28.168  25.547   3.673
60864W        W26124  39.496  28.542  11.145
60865W        W26125  25.780  16.631  12.985
60866W        W26126   6.496  23.478  12.211
60867W        W26127  11.586   4.966  14.762
60868W        W26128  34.884  11.704  11.806
60869W        W26129  43.932  10.639   3.975
60870W        W26130  26.912  41.036  13.179
60871W        W26131   9.745   8.206  14.716
60872W        W26132  14.610   9.612   4.115
60873W        W26133  32.127   5.013  11.627
60874W        W26134  37.283   9.822   0.259
60875W        W26135   8.482  28.126   4.438
60876W        W26136  39.912  41.378  14.742
60877W        W26137   2.860  19.222   1.815
60878W        W26138  43.465  29.137   2.391
60879W        W26139  34.096  32.017   0.288
60880W        W26140  26.228  15.309  11.043
60881W        W26141  35.060  19.181   1.862
60882W        W26142  11.031   3.166   4.181
60883W        W26143  37.693  36.375  13.923
60884W        W26144  27.604   6.803   1.382
60885W        W26145  20.106  18.663  10.526
60886W        W26146  22.180  39.039  14.342
60887W        W26147   8.376  38.564  11.036
60888W        W26148  22.473  15.659   5.089
60889W        W26149  25.471  39.571   4.661
60890W        W26150  34.595  23.734   1.921
60891W        W26151  28.564  20.591  13.427
60892W        W26152  25.851  22.290  12.754
60893W        W26153  20.678  25.455   2.287
60894W        W26154  31.123  17.147   2.230
60895W        W26155  40.258   7.115  14.410
60896W        W26156  21.577  39.295  10.529
60897W        W26157   8.775   6.123   3.689
60898W        W26158  36.379   3.370  13.609
60899W        W26159  31.427  22.381   5.249
60900W        W26160  27.260   7.748  14.367
60901W        W26161  30.416   8.526  10.538
60902W        W26162  25.796  16.309   4.880
60903W        W26163  25.716  39.882   4.130
60904W        W26164   2.352  28.593  11.256
60905W        W26165  43.373  21.099   1.409
60906W        W26166  25.776  37.854   2.780
60907W        W26167   2.239  38.110   2.370
60908W        W26168  11.796  10.112  12.038
60909W        W26169  24.666   1.328  10.826
60910W        W26170  18.101  25.664  13.776
60911W        W26171   5.454  10.369  10.699
60912W        W26172  11.724  28.902  13.750
60913W        W26173  28.019  39.360  14.522
60914W        W26174   4.412  21.273  12.401
60915W        W26175  28.547  22.692  13.422
60916W        W26176  43.764  10.600   2.596
60917W        W26177  38.640  20.548  10.865
60918W        W26178   2.868  10.364  13.816
60919W        W26179  13.854  26.902  13.282
60920W        W26180  29.561  20.118  10.506
60921W        W26181  36.953   5.019  14.961
60922W        W26182   9.797   6.843   3.126
60923W        W26183  24.208  15.266   4.201
60924W        W26184  15.637  34.599  10.438
60925W        W26185  14.761   6.461   4.624
60926W        W26186  43.350  33.369  10.306
60927W        W26187  31.096  39.273  11.696
60928W        W26188  41.134  29.658  12.115
60929W        W26189  37.329  20.543  11.526
60930W        W26190  43.521   1.694  10.074
60931W        W26191   7.247  14.650   4.525
60932W        W26192  40.990   5.840   0.028
60933W        W26193  35.772  10.578  10.881
60934W        W26194  34.560  35.904  13.496
60935W        W26195  29.460  27.782   0.519
60936W        W26196   2.976  41.719  11.373
60937W        W26197  12.226  23.157   3.555
60938W        W26198   7.159  22.548   2.139
60939W        W26199  13.143  37.445  10.669
60940W        W26200  38.338  40.951   4.375
60941W        W26201   5.486  43.750   4.511
60942W        W26202  13.118  42.232   4.204
60943W        W26203   7.658  17.534  13.345
60944W        W26204  14.491   1.203  12.616
60945W        W26205  37.435  39.854  11.092
60946W        W26206  12.718  27.542   1.249
60947W        W26207  25.291  25.563   0.353
60948W        W26208  44.427  15.706   3.729
60949W        W26209   2.449  30.840  11.651
60950W        W26210  18.511   3.704  12.878
60951W        W26211  43.240  11.561  14.216
60952W        W26212  26.625  33.513   0.519
60953W        W26213  42.443  17.059  14.249
60954W        W26214  17.275   5.676  12.147
60955W        W26215  12.626  38.516  10.608
60956W        W26216  41.899  15.110   3.735
60957W        W26217   6.189   6.772   3.151
60958W        W26218  13.738  12.220  14.457
60959W        W26219  15.241  28.828   2.761
60960W        W26220  44.227  39.995   1.914
60961W        W26221  39.096  33.116   0.762
60962W        W26222  13.747  23.713  11.121
60963W        W26223  40.936   4.078   9.515
60964W        W26224  31.280   7.667   2.316
60965W        W26225   5.243  20.556  10.854
60966W        W26226  12.086  10.819   1.404
60967W        W26227  17.074   4.757  14.452
60968W        W26228   9.976  10.833   2.423
60969W        W26229  42.952   2.673  14.037
60970W        W26230   2.309  26.618  14.222
60971W        W26231  33.590  32.713   3.316
60972W        W26232   9.146  13.840  12.546
60973W        W26233   0.757  36.029  14.913
60974W        W26234   0.260   3.978   3.756
60975W        W26235  35.986  32.415   2.931
60976W        W26236  11.214   1.765   0.260
60977W        W26237  17.244  26.240  11.642
60978W        W26238  27.699  27.050  14.105
60979W        W26239  41.643  14.775   1.432
60980W        W26240  22.796   5.972  10.372
60981W        W26241  22.494  17.755  11.497
60982W        W26242   1.767  33.227   1.240
60983W        W26243   1.833  42.392  11.232
60984W        W26244  39.868  37.846  11.944
60985W        W26245  29.902  24.991   3.817
60986W        W26246  15.634   3.701   2.750
60987W        W26247  15.990   6.169  11.420
60988W        W26248  39.167  33.395  11.521
60989W        W26249  37.871  16.193  10.656
60990W        W26250  35.526  28.921   2.372
60991W        W26251  23.922  31.643   0.978
60992W        W26252  31.705  33.154  13.371
60993W        W26253   5.536  33.397   3.316
60994W        W26254  15.591   5.156   3.512
60995W        W26255   4.125  10.112   0.871
60996W        W26256  26.175  35.672   0.464
60997W        W26257  17.540  28.582  11.950
60998W        W26258  22.660  22.111   0.159
60999W        W26259   7.905  10.845  12.982
61000W        W26260  25.598  17.812   1.225
61001W        W26261  28.434  34.454  13.380
61002W        W26262   2.348  27.399   0.440
61003W        W26263  36.163  32.101  11.113
61004W        W26264   7.785  32.919   2.320
61005W        W26265  19.697  12.578   4.493
61006W        W26266   2.740  21.578  10.704
61007W        W26267   8.763  12.305   0.427
61008W        W26268   9.280   2.019  12.919
61009W        W26269  18.216  23.176   0.978
61010W        W26270  26.411   5.761   1.922
61011W        W26271  24.723  28.130  12.923
61012W        W26272  25.225   1.160  11.569
61013W        W26273   1.354  33.346  11.376
61014W        W26274  21.970  34.388  11.069
61015W        W26275  30.108  19.355  12.300
61016W        W26276  10.867   8.385   3.402
61017W        W26277   3.777  16.727   0.449
61018W        W26278  36.134  24.202   1.298
61019W        W26279  38.040   5.319  12.067
61020W        W26280   1.301   8.188  14.845
61021W        W26281   3.242  13.318  14.367
61022W        W26282  42.868  30.002   1.243
61023W        W26283  39.274  17.531   0.694
61024W        W26284  29.103  17.256  12.349
61025W        W26285  25.540  14.882  11.677
61026W        W26286   6.480  38.545   3.650
61027W        W26287  41.277  28.919   3.489
61028W        W26288  16.974  28.100  13.606
61029W        W26289  10.640  28.173  14.358
61030W        W26290  28.478  40.396   0.931
61031W        W26291  18.862   9.465  12.590
61032W        W26292  15.121  36.534   4.213
61033W        W26293  25.956  21.882   2.420
61034W        W26294  35.468  30.483   0.486
61035W        W26295  38.999   5.423  14.412
61036W        W26296   9.829  25.687   0.779
61037W        W26297  21.340  40.386   1.813
61038W        W26298   5.937   7.308   3.525
61039W        W26299  31.647   9.503  12.210
61040W        W26300  38.420  10.647   0.472
61041W        W26301  26.494  44.492  13.360
61042W        W26302   5.178  14.401  12.091
61043W        W26303  36.787  28.515  11.944
61044W        W26304  39.506  18.961   4.108
61045W        W26305   7.610  34.183   3.274
61046W        W26306  38.014   8.296   0.863
61047W        W26307   4.518  30.301   3.498
61048W        W26308  44.828  18.534   4.640
61049W        W26309  42.998  41.765   4.606
61050W        W26310  44.376  23.589   5.179
61051W        W26311  43.822  26.086  10.138
61052W        W26312   8.241  18.298  14.304
61053W        W26313  23.122  10.251   2.811
61054W        W26314  20.598   5.889   4.989
61055W        W26315  10.398   2.766  11.704
61056W        W26316  43.334  43.810  11.161
61057W        W26317  33.408  12.163   0.483
61058W        W26318  16.847  37.953   0.755
61059W        W26319  20.627  37.997   1.632
61060W        W26320  12.648  39.585   3.298
61061W        W26321  41.412  31.089  11.164
61062W        W26322  30.712  35.858  13.976
61063W        W26323  32.093   1.500   0.468
61064W        W26324  20.141  12.753   1.447
61065W        W26325  31.684  21.353  11.136
61066W        W26326  41.098  39.943  11.613
61067W        W26327  42.973   0.194   4.342
61068W        W26328  27.845   1.212   1.674
61069W        W26329  35.453  36.013   2.313
61070W        W26330  39.884  28.555   3.232
61071W        W26331  42.904   6.517   1.269
61072W        W26332   0.790  20.254  12.570
61073W        W26333  30.453  10.091  14.434
61074W        W26334  42.907  35.287  14.911
61075W        W26335  42.365  44.601  12.090
61076W        W26336   9.276  39.002  11.293
61077W        W26337  32.413  38.309  12.169
61078W        W26338  10.400  16.747  13.854
61079W        W26339  32.485  32.115  14.753
61080W        W26340  35.369  30.557   3.622
61081W        W26341  27.544  12.585   1.871
61082W        W26342   2.290  15.739   3.603
61083W        W26343  27.992  33.540  13.506
61084W        W26344  28.638   1.745   2.121
61085W        W26345  10.657  23.728  11.634
61086W        W26346  11.184  39.753   0.195
61087W        W26347  39.808  12.758  11.655
61088W        W26348  37.774   1.445   3.094
61089W        W26349  19.224  25.029  11.472
61090W        W26350   2.786  21.947  13.904
61091W        W26351  34.536   5.163  10.567
61092W        W26352  30.487  29.649   2.329
61093W        W26353  40.343  34.069  14.933
61094W        W26354  11.020  31.205  13.448
61095W        W26355  31.243   3.042   4.491
61096W        W26356  28.356  21.062  14.966
61097W        W26357  27.225  26.889   3.237
61098W        W26358   6.324   8.633  14.392
61099W        W26359   1.510  33.020   2.970
61100W        W26360   5.682  21.634   0.463
61101W        W26361  13.741   0.767   2.922
61102W        W26362   7.707  27.495   3.193
61103W        W26363  11.225  16.604  14.828
61104W        W26364  43.500   7.516   4.049
61105W        W26365  36.823  13.641   3.212
61106W        W26366  26.997  26.546  13.886
61107W        W26367   8.201   1.438  11.003
61108W        W26368  29.660  14.375  13.355
61109W        W26369  36.512  15.326   0.594
61110W        W26370  11.676  33.938  13.937
61111W        W26371  40.567  40.760   1.832
61112W        W26372  20.772  28.925   3.242
61113W        W26373  23.722  25.093   1.909
61114W        W26374   9.181  30.877   1.140
61115W        W26375  33.676  29.485  12.607
61116W        W26376  11.044  43.199  12.521
61117W        W26377   5.888  20.199  14.877
61118W        W26378   6.414  41.938   3.449
61119W        W26379  15.783  30.658  12.302
61120W        W26380   2.522  37.606   4.179
61121W        W26381   4.406  22.249   3.710
61122W        W26382  40.829   3.800  12.544
61123W        W26383  29.122  15.495  14.977
61124W        W26384  26.522  19.665  10.832
61125W        W26385  19.838  23.975  13.577
61126W        W26386  18.615   7.141   3.896
61127W        W26387  34.188  13.129   4.282
61128W        W26388  39.172   5.708  10.251
61129W        W26389  41.057  18.763  12.497
61130W        W26390  44.212  35.105  11.393
61131W        W26391  25.657   7.469   4.328
61132W        W26392   7.431  32.566  14.754
61133W        W26393  28.736  44.410   0.835
61134W        W26394  35.499   4.745   0.480
61135W        W26395  37.464  25.423  11.412
61136W        W26396  13.987  25.761  12.323
61137W        W26397  40.779  18.249  14.282
61138W        W26398   8.319  40.350   4.217
61139W        W26399   1.368   5.746   0.273
61140W        W26400  20.634  23.790  11.044
61141W        W26401  14.600   3.661  11.867
61142W        W26402   9.268  24.667   4.960
61143W        W26403  13.349  23.213   4.684
61144W        W26404  19.033   4.423   4.286
61145W        W26405   1.418  15.200  14.216
61146W        W26406  40.854  40.277  14.800
61147W        W26407  31.364   0.794  12.051
61148W        W26408  17.305   1.982   4.596
61149W        W26409  15.603  41.560  13.443
61150W        W26410  14.684  17.746  14.508
61151W        W26411  44.520  43.466  12.558
61152W        W26412  34.870   2.512   4.394
61153W        W26413   3.324  30.695   1.646
61154W        W26414   7.984  30.881  11.874
61155W        W26415  15.673  16.148  14.238
61156W        W26416   5.574  42.724  14.332
61157W        W26417   8.788  25.297   1.009
61158W        W26418  38.403  14.301  11.976
61159W        W26419  40.867  10.386  11.705
61160W        W26420  44.782   3.038  14.949
61161W        W26421  36.427  41.769  10.647
61162W        W26422  39.299  21.678  10.707
61163W        W26423  11.928  30.332   4.780
61164W        W26424   0.081  41.342   3.922
61165W        W26425  14.367  20.966   3.759
61166W        W26426  21.330  40.816   1.490
61167W        W26427  16.186   5.986   3.289
61168W        W26428  27.883   4.420  10.596
61169W        W26429   1.715  30.124   4.179
61170W        W26430  36.678  31.617  14.021
61171W        W26431   9.878   6.339  14.497
61172W        W26432  37.128   9.769   3.221
61173W        W26433  30.149  11.654   2.279
61174W        W26434   2.345  21.035  14.837
61175W        W26435  28.890   3.299   4.546
61176W        W26436  32.916  32.275   2.074
61177W        W26437  17.839  43.757   3.696
61178W        W26438  32.450   6.355   4.833
61179W        W26439  28.232   0.336  13.078
61180W        W26440  35.541  44.227   2.292
61181W        W26441  11.447   6.443  10.646
61182W        W26442  19.829  18.609  11.545
61183W        W26443  12.522  31.228   4.139
61184W        W26444  31.008   1.868   4.681
61185W        W26445  28.076  26.252   0.847
61186W        W26446  22.268  42.494   0.965
61187W        W26447   3.960   7.915  14.358
61188W        W26448  23.171   4.851   3.959
61189W        W26449  33.795  13.904   3.056
61190W        W26450  31.664  39.869  14.822
61191W        W26451  14.365  23.095  10.667
61192W        W26452  36.064  37.403  12.596
61193W        W26453  23.732  27.649   3.735
61194W        W26454  36.733  16.576  13.707
61195W        W26455  35.103  38.126   2.660
61196W        W26456  33.365  10.404   4.056
61197W        W26457  27.554  20.736   0.489
61198W        W26458  17.075  34.036   2.650
61199W        W26459  40.808   7.355   0.404
61200W        W26460   8.678  44.037   4.225
61201W        W26461  10.187   6.261   2.594
61202W        W26462   5.398   3.847   2.257
61203W        W26463  26.926  33.664  11.546
61204W        W26464  37.322  12.789  12.864
61205W        W26465  38.531  15.709  11.050
61206W        W26466  23.636  43.704  14.493
61207W        W26467  29.406   1.305  12.824
61208W        W26468   1.905  21.064  11.673
61209W        W26469  32.141   7.817  13.645
61210W        W26470  26.042   3.391   3.829
61211W        W26471  43.885  13.891  12.130
61212W        W26472  13.122   8.321  10.783
61213W        W26473  11.699  11.194  13.880
61214W        W26474   6.876  26.025  13.989
61215W        W26475  30.132  22.507  12.537
61216W        W26476  39.389  42.764   1.883
61217W        W26477  33.092  18.944   1.710
61218W        W26478  16.246  23.534   1.343
61219W        W26479  21.304  22.126   2.216
61220W        W26480  19.820  26.721  11.907
61221W        W26481  31.973  23.951   9.820
61222W        W26482  19.998  10.264  12.577
61223W        W26483  35.502  21.707   4.885
61224W        W26484  13.210  44.954   0.510
61225W        W26485  29.625  23.316   3.887
61226W        W26486  43.470   1.494  12.390
61227W        W26487   1.136   8.208   4.442
61228W        W26488  37.840  42.464  13.884
61229W        W26489   3.777  24.452   0.433
61230W        W26490   2.321  13.847  12.188
61231W        W26491  21.406   3.988   4.933
61232W        W26492   2.844  32.706  14.004
61233W        W26493  40.008  19.154   0.224
61234W        W26494  31.519   9.247  11.053
61235W        W26495  21.299  12.532  11.554
61236W        W26496  38.484  14.336  11.093
61237W        W26497  33.520  31.389   1.800
61238W        W26498  24.221  42.482   3.657
61239W        W26499  12.120  44.819   4.689
61240W        W26500   2.632  23.139  14.475
61241W        W26501  26.004  12.422   0.944
61242W        W26502   8.165  35.954   2.660
61243W        W26503   6.668  12.120  11.186
61244W        W26504  35.307  22.594   0.223
61245W        W26505  10.078   6.291   1.266
61246W        W26506  15.274  15.012   0.710
61247W        W26507  14.945  33.995  10.926
61248W        W26508  31.180  10.673   0.032
61249W        W26509   6.999  35.456   0.735
61250W        W26510  23.193   0.949   4.891
61251W        W26511  37.561  30.005   0.891
61252W        W26512   3.995  38.185   0.039
61253W        W26513  28.116  21.043  11.570
61254W        W26514  25.788  35.906  11.398
61255W        W26515  27.207   4.232  10.651
61256W        W26516   2.856  15.875   4.022
61257W        W26517   3.514   2.832   1.460
61258W        W26518  32.976  12.519  13.032
61259W        W26519  18.237  10.631  10.757
61260W        W26520  30.858  40.056  14.396
61261W        W26521  10.659  12.121  13.901
61262W        W26522   3.692  33.964  13.377
61263W        W26523  34.773  36.146   4.591
61264W        W26524   5.383  14.737  14.119
61265W        W26525  27.785  44.446   3.584
61266W        W26526  27.533  20.447   2.326
61267W        W26527   4.854  33.865   0.828
61268W        W26528  35.072  43.478   4.082
61269W        W26529  27.423   1.688  11.127
61270W        W26530  24.237   8.821  10.973
61271W        W26531  37.467   1.412   2.330
61272W        W26532  32.626  41.552  10.525
61273W        W26533   4.422   6.545   0.864
61274W        W26534  44.392  25.462  10.383
61275W        W26535   9.673  22.030   3.421
61276W        W26536  21.685  12.579   2.373
61277W        W26537  17.714  22.558  14.524
61278W        W26538  36.635   6.049  12.543
61279W        W26539  14.063  41.171  14.198
61280W        W26540  36.629   6.747   0.362
61281W        W26541  19.439  20.312   1.346
61282W        W26542  36.078  14.791  10.361
61283W        W26543  21.776  41.893   2.253
61284W        W26544  37.966  15.263   4.578
61285W        W26545   0.036  41.582  11.612
61286W        W26546  10.386  38.127  14.545
61287W        W26547  33.102  13.528  14.141
61288W        W26548  23.754   7.222   3.823
61289W        W26549  24.697  19.193   2.770
61290W        W26550  18.324  44.810  11.559
61291W        W26551  25.483  24.512   1.723
61292W        W26552   4.802  11.863   1.426
61293W        W26553  20.626  18.611   0.471
61294W        W26554   0.423  26.784   4.450
61295W        W26555  19.786  10.206   0.579
61296W        W26556  34.674  31.970   4.103
61297W        W26557   5.026  28.067  11.429
61298W        W26558  42.533  31.385  12.941
61299W        W26559  19.997   0.819  13.785
61300W        W26560  21.837  41.891  14.743
61301W        W26561   1.765  34.645   1.252
61302W        W26562  25.804  41.137   2.221
61303W        W26563  27.446  29.719   0.498
61304W        W26564   2.432   4.645   0.778
61305W        W26565  15.711  41.087  14.361
61306W        W26566  16.332  11.032  11.591
61307W        W26567   2.810   9.602  12.100
61308W        W26568  17.159  44.876   4.639
61309W        W26569  28.654  38.954  13.920
61310W        W26570  23.817   7.459   3.333
61311W        W26571  18.609   3.621   0.351
61312W        W26572  33.469  19.160   0.028
61313W        W26573  41.558  18.591   1.730
61314W        W26574  11.755  26.545  14.945
61315W        W26575  22.152  21.632  10.120
61316W        W26576  27.112  28.538   0.428
61317W        W26577  31.944   5.335   4.614
61318W        W26578  40.940  44.743   2.381
61319W        W26579  43.331  31.046   4.158
61320W        W26580  29.040  31.938  14.983
61321W        W26581  39.837  42.779  13.306
61322W        W26582  12.487  27.064   2.692
61323W        W26583  23.091  11.169  10.654
61324W        W26584  20.745  13.689  11.095
61325W        W26585  24.115  42.924   1.849
61326W        W26586  44.971  16.505   2.683
61327W        W26587   3.692  42.415  11.995
61328W        W26588   6.236  42.758   4.582
61329W        W26589  38.847   1.843   1.428
61330W        W26590  35.433  35.365   2.398
61331W        W26591   4.243   5.259   0.981
61332W        W26592  44.500   7.951   3.674
61333W        W26593  35.779  22.474   2.208
61334W        W26594  22.952  15.946   0.188
61335W        W26595  37.925   3.952  11.529
61336W        W26596  39.987  36.781   2.539
61337W        W26597  20.527  18.598   1.828
61338W        W26598  40.761  36.389   2.894
61339W        W26599  26.035   1.988  10.625
61340W        W26600  21.470  25.011  11.971
61341W        W26601  22.953  15.576   4.840
61342W        W26602  17.830  24.205  13.500
61343W        W26603  22.144   1.485   3.122
61344W        W26604  39.738  32.343  12.078
61345W        W26605   6.323  34.210  14.442
61346W        W26606  16.270  25.086  14.267
61347W        W26607  44.192   1.267   3.316
61348W        W26608  31.094  24.955   2.627
61349W        W26609  21.888   0.720  14.008
61350W        W26610  22.503   8.364   0.860
61351W        W26611  22.760   5.365  11.890
61352W        W26612  20.150  23.348   0.705
61353W        W26613  35.350  29.917   2.395
61354W        W26614   5.876   3.595   4.927
61355W        W26615  13.581  37.590  13.976
61356W        W26616  34.500  36.386  10.721
61357W        W26617   1.459  17.446   4.012
61358W        W26618  15.555  39.500  12.006
61359W        W26619  36.212  32.912  13.908
61360W        W26620  11.523  43.070   4.066
61361W        W26621  35.311  19.354   1.435
61362W        W26622  28.766   1.689  13.523
61363W        W26623  10.882   4.389  12.205
61364W        W26624   3.976   6.095   4.181
61365W        W26625  27.542  11.888   4.402
61366W        W26626  16.328   5.713  13.825
61367W        W26627   4.329  18.770   4.634
61368W        W26628  10.101  44.353   2.410
61369W        W26629  17.622  27.541   1.992
61370W        W26630   7.237  43.018  13.946
61371W        W26631  13.848  29.031   3.198
61372W        W26632  30.420  14.327  13.566
61373W        W26633   4.693  33.309  13.092
61374W        W26634  39.979  31.484   0.494
61375W        W26635  27.608  16.275   1.647
61376W        W26636  44.979  29.024   4.305
61377W        W26637  26.052  37.332  13.570
61378W        W26638  22.047  29.103   3.611
61379W        W26639  10.823  40.986  14.830
61380W        W26640  43.988  12.529   0.748
61381W        W26641  37.140   1.907  11.670
61382W        W26642  21.713  10.461  11.486
61383W        W26643   5.160  15.144  13.888
61384W        W26644   2.507  41.979   4.622
61385W        W26645  40.495  28.589   0.115
61386W        W26646  24.671  44.786   3.032
61387W        W26647  25.060   4.486   2.560
61388W        W26648  40.824  23.969  13.354
61389W        W26649   3.385   1.648   2.075
61390W        W26650  20.286  35.860  14.443
61391W        W26651   6.702  30.954  10.708
61392W        W26652   9.416  33.600   0.256
61393W        W26653  21.514  11.329  14.416
61394W        W26654  25.494   0.334   4.074
61395W        W26655  31.963  22.894  14.891
61396W        W26656  34.833  21.274   1.366
61397W        W26657  39.399  33.246   2.691
61398W        W26658  39.455  40.634   0.285
61399W        W26659  41.554  42.462  10.687
61400W        W26660  28.894  31.558   3.357
61401W        W26661  42.468  11.085  13.060
61402W        W26662  29.656  36.227  13.528
61403W        W26663  42.103  11.631   1.237
61404W        W26664  31.188  43.301   0.486
61405W        W26665   0.825  21.463  13.008
61406W        W26666  18.565   3.295   4.599
61407W        W26667  11.284   2.326   4.326
61408W        W26668  11.118  14.323   2.765
61409W        W26669   6.662  16.095  11.930
61410W        W26670   7.793  28.592  13.869
61411W        W26671  40.908  14.025   2.516
61412W        W26672  22.748  29.072  11.534
61413W        W26673  31.644  44.475  11.815
61414W        W26674  41.361  32.899   0.218
61415W        W26675  27.429  12.902  12.194
61416W        W26676  12.385  29.117   1.684
61417W        W26677  33.322  38.826  12.021
61418W        W26678   4.288  39.884  12.088
61419W        W26679  39.855   7.891  10.706
61420W        W26680  27.606  22.977   3.176
61421W        W26681  28.990  21.156   2.414
61422W        W26682  39.449  33.093  10.717
61423W        W26683   5.966   5.700  11.581
61424W        W26684   7.822  11.723   3.679
61425W        W26685  32.396   5.271   3.225
61426W        W26686  37.430  24.731  12.838
61427W        W26687  18.253   3.429   0.668
61428W        W26688  37.024  25.232   4.171
61429W        W26689  17.672  28.814   0.809
61430W        W26690  39.905  17.154   0.834
61431W        W26691   6.334  17.668  13.465
61432W        W26692   0.348  34.525  10.988
61433W        W26693  17.223  27.920  11.177
61434W        W26694  10.045   0.190   0.367
61435W        W26695  34.551  29.160   3.320
61436W        W26696   0.918  25.209  14.460
61437W        W26697  39.501  41.386   2.360
61438W        W26698  29.134  19.328   2.221
61439W        W26699  39.007  12.708  14.642
61440W        W26700  24.171   9.397  14.783
61441W        W26701   5.751  34.888   4.191
61442W        W26702  28.905   0.749  13.564
61443W        W26703  17.177  17.052   4.639
61444W        W26704  10.319  25.481   5.084
61445W        W26705  12.404  24.983   0.411
61446W        W26706  24.892   2.327   1.676
61447W        W26707  36.070   3.127   1.813
61448W        W26708  44.535   3.890   4.615
61449W        W26709  14.320  22.737  11.528
61450W        W26710  10.852  25.497   5.014
61451W        W26711  27.915  18.289  12.199
61452W        W26712  40.607   8.607  11.610
61453W        W26713  33.094  43.649  11.665
61454W        W26714   9.112  34.418   2.372
61455W        W26715  24.544  42.631   0.256
61456W        W26716   7.176  41.168  12.927
61457W        W26717  25.683   7.822   0.035
61458W        W26718  16.167  40.407  12.705
61459W        W26719  19.137   8.783   4.033
61460W        W26720  30.982   1.723   0.930
61461W        W26721  11.613  12.144  12.953
61462W        W26722  23.849   0.064   2.798
61463W        W26723  24.132  41.753   0.862
61464W        W26724   6.090   7.798   0.908
61465W        W26725   5.145  39.614   2.295
61466W        W26726   3.754  18.586  10.595
61467W        W26727  42.903  35.141  11.417
61468W        W26728  42.823  13.869  12.913
61469W        W26729  31.452   8.289  10.724
61470W        W26730  40.919  27.444  10.590
61471W        W26731  27.910   3.800   2.336
61472W        W26732  22.788  25.960   1.351
61473W        W26733  29.001   4.411  13.509
61474W        W26734   4.374  30.298   4.694
61475W        W26735   5.233  10.120   4.646
61476W        W26736   7.332  40.944  11.611
61477W        W26737  30.829  24.661   3.479
61478W        W26738  43.336  26.090  14.976
61479W        W26739   4.912  24.089   4.605
61480W        W26740  22.523  17.280   1.750
61481W        W26741  26.977  13.729   3.245
61482W        W26742  28.687  26.012  11.120
61483W        W26743  10.122  35.139   0.457
61484W        W26744  40.713  23.612  12.488
61485W        W26745   9.436  36.810  13.879
61486W        W26746   1.076   0.383   3.828
61487W        W26747   0.955  22.232  11.139
61488W        W26748  24.589  30.985   1.221
61489W        W26749  44.198  28.399  11.146
61490W        W26750  15.553  28.062   2.392
61491W        W26751  41.149  40.540  13.251
61492W        W26752  27.453   5.224  10.576
61493W        W26753  23.237  37.891   1.635
61494W        W26754  24.706  40.874   1.448
61495W        W26755  11.412  27.913  11.894
61496W        W26756  38.654  19.075  11.415
61497W        W26757   5.301  28.711   4.044
61498W        W26758  20.195  24.305   4.809
61499W        W26759  44.905  41.316   1.978
61500W        W26760  18.511   6.268   4.027
61501W        W26761  17.336  17.318   0.001
61502W        W26762  11.240  36.887   4.908
61503W        W26763  18.015  27.975  14.419
61504W        W26764  11.679  24.766   1.324
61505W        W26765  38.181  21.252   4.971
61506W        W26766   5.389  25.425   3.600
61507W        W26767  40.096  17.843   1.378
61508W        W26768  15.780  21.057   1.309
61509W        W26769  28.151  16.170   3.426
61510W        W26770  42.512  23.860  10.942
61511W        W26771  30.872  24.588  12.943
61512W        W26772  23.151  25.934  11.524
61513W        W26773  32.579  36.090   0.700
61514W        W26774  18.527  33.220  13.371
61515W        W26775  18.313  26.101  11.552
61516W        W26776  33.533  34.376  14.480
61517W        W26777  44.336  27.244   3.181
61518W        W26778  20.482  43.322  10.989
61519W        W26779  34.956  16.668  10.626
61520W        W26780   6.325  35.796  12.159
61521W        W26781  44.357   8.356   3.064
61522W        W26782  29.962  15.234  14.707
61523W        W26783   9.760   8.794   3.870
61524W        W26784  21.545  33.234  13.551
61525W        W26785   6.753  21.243   4.208
61526W        W26786  42.176   8.918   5.032
61527W        W26787  39.422   2.938   0.236
61528W        W26788  39.906  22.912   2.124
61529W        W26789  17.242  15.878  14.282
61530W        W26790  37.750  10.805   3.683
61531W        W26791  40.235  40.788  12.938
61532W        W26792  39.586  41.164   1.899
61533W        W26793  27.528   0.974  12.008
61534W        W26794  42.181   7.819   3.810
61535W        W26795  18.761   2.505  11.962
61536W        W26796  26.806   8.259  14.857
61537W        W26797   8.517  39.260   2.273
61538W        W26798  30.379  44.532  10.315
61539W        W26799  20.985  38.365  10.228
61540W        W26800  32.223  27.072   2.316
61541W        W26801  22.113  32.324  10.962
61542W        W26802  41.492   2.997  12.895
61543W        W26803  19.390  36.362   4.184
61544W        W26804  19.915   8.310  13.091
61545W        W26805  30.164  33.023  14.352
61546W        W26806  43.314  23.805  14.785
61547W        W26807  42.835   1.714   3.755
61548W        W26808  36.948  25.742   4.242
61549W        W26809   2.009  24.190   0.713
61550W        W26810   6.227  30.235   2.270
61551W        W26811  27.996  26.237  10.088
61552W        W26812  20.543  15.766   0.940
61553W        W26813   0.562   4.134   4.174
61554W        W26814   8.060  41.028   4.064
61555W        W26815  40.998  37.496   0.850
61556W        W26816  19.088  28.048   2.426
61557W        W26817  14.542  13.216  13.041
61558W        W26818  30.170  31.408  11.841
61559W        W26819  34.491  14.623  14.309
61560W        W26820  21.970  39.433   1.052
61561W        W26821  34.451  35.418  13.346
61562W        W26822   4.788  25.719  12.430
61563W        W26823   5.640  34.884   1.692
61564W        W26824   2.717  26.713   3.067
61565W        W26825  16.751  31.022  13.346
61566W        W26826   7.833  30.272  12.912
61567W        W26827  37.582   1.168  12.040
61568W        W26828   8.189  35.601  12.959
61569W        W26829   5.511   7.329  11.168
61570W        W26830  16.376   4.426  13.389
61571W        W26831  25.002  20.009  11.177
61572W        W26832  35.057   9.137   4.555
61573W        W26833  14.998  35.838  12.407
61574W        W26834  43.804  14.997  12.790
61575W        W26835  18.200  42.043  13.306
61576W        W26836  13.367  43.996   0.668
61577W        W26837  27.130  14.690  11.877
61578W        W26838  33.978   6.639  10.521
61579W        W26839   4.847  31.453  14.538
61580W        W26840  34.052  25.038  11.862
61581W        W26841   9.443  44.216   4.458
61582W        W26842  25.213  44.463  14.910
61583W        W26843   8.911  16.782   9.875
61584W        W26844   0.015  13.852   2.339
61585W        W26845  13.203  25.500   0.898
61586W        W26846   0.080   0.981   2.462
61587W        W26847  38.379  41.994   1.373
61588W        W26848  16.352  44.249   1.883
61589W        W26849   6.982   4.400  12.608
61590W        W26850   0.271  20.637   3.781
61591W        W26851  10.333  28.091   4.548
61592W        W26852  10.753  32.791  13.825
61593W        W26853  20.209  37.049  14.720
61594W        W26854  28.590  26.559  12.274
61595W        W26855   1.014  44.980  14.473
61596W        W26856  14.622   9.700   0.447
61597W        W26857  40.912  17.331   2.222
61598W        W26858  36.767  30.872   0.361
61599W        W26859  20.477   3.061   4.794
61600W        W26860   5.958  32.625   2.214
61601W        W26861  13.357  31.930   3.504
61602W        W26862  14.830  11.958  10.314
61603W        W26863   9.264   1.783   1.654
61604W        W26864  44.344   5.772  14.348
61605W        W26865  42.875  24.814   0.594
61606W        W26866  21.479  14.873  14.423
61607W        W26867  40.362  17.234  14.972
61608W        W26868  39.465  42.268   0.446
61609W        W26869  17.302  17.361   1.416
61610W        W26870   9.429  33.087   4.667
61611W        W26871  24.388  13.094  11.520
61612W        W26872  42.382   3.291  12.017
61613W        W26873  17.182  30.772  13.510
61614W        W26874  37.747  18.042   0.991
61615W        W26875  35.471  12.199  10.899
61616W        W26876  16.766  34.324   4.541
61617W        W26877  21.460  10.295   2.173
61618W        W26878  14.768  16.157   2.109
61619W        W26879  11.946  24.687  14.846
61620W        W26880  36.654  24.623  10.518
61621W        W26881   1.681  38.674  11.627
61622W        W26882  30.948  11.666  11.444
61623W        W26883   4.403  31.525   1.823
61624W        W26884  20.282  25.315   4.519
61625W        W26885  10.778   5.681   4.516
61626W        W26886  11.533   2.949  14.569
61627W        W26887  29.162   7.991  11.997
61628W        W26888  37.851  30.191   0.453
61629W        W26889  29.816  33.597   1.313
61630W        W26890  14.321  22.082   0.829
61631W        W26891  28.653  21.998  14.866
61632W        W26892   2.757  30.006   0.061
61633W        W26893  13.398  32.052   4.516
61634W        W26894  15.957  42.256  11.564
61635W        W26895  39.865  40.779  13.549
61636W        W26896  28.713  26.550  14.413
61637W        W26897  21.506   5.995   4.818
61638W        W26898  24.176  27.167  12.062
61639W        W26899  30.944  19.181   1.970
61640W        W26900  35.628  35.835   1.848
61641W        W26901  24.754  39.743  10.659
61642W        W26902  29.061  36.792   4.643
61643W        W26903  15.569  40.002   4.941
61644W        W26904   5.871  37.993  14.835
61645W        W26905  35.110  11.382  12.951
61646W        W26906  19.966  32.652  12.009
61647W        W26907  27.413   7.372  11.492
61648W        W26908  43.026  36.990  11.917
61649W        W26909  26.053  10.569   1.256
61650W        W26910  14.529  22.219   4.956
61651W        W26911  19.826  26.067  13.907
61652W        W26912  14.829  24.145  12.477
61653W        W26913   8.873  27.735  13.332
61654W        W26914  23.120  16.840   1.296
61655W        W26915  15.384  11.746  10.882
61656W        W26916   2.432  13.154   1.473
61657W        W26917  35.121  31.044  11.743
61658W        W26918  25.316  33.886  14.860
61659W        W26919  35.943  38.977   3.617
61660W        W26920  10.305  38.500  13.829
61661W        W26921  28.856  16.034   2.936
61662W        W26922  33.976  38.452  10.354
61663W        W26923   4.275  21.832   2.362
61664W        W26924  31.318  21.469   2.808
61665W        W26925  29.082  17.695   1.872
61666W        W26926  27.768  42.311  11.501
61667W        W26927   7.677  23.037   1.785
61668W        W26928  42.787  27.587  13.059
61669W        W26929   3.229  39.621  12.638
61670W        W26930  39.027   2.238   0.905
61671W        W26931  28.421  26.413  10.374
61672W        W26932  23.912  40.595   4.552
61673W        W26933   7.294   2.352   2.815
61674W        W26934  44.394   2.154   0.836
61675W        W26935   9.048  11.124   3.314
61676W        W26936  35.850  13.788   0.770
61677W        W26937  18.254   3.990  11.024
61678W        W26938  31.712   6.687  14.729
61679W        W26939  19.634  32.783  11.171
61680W        W26940   6.718  34.018  14.157
61681W        W26941  40.596  19.843   3.052
61682W        W26942   1.431  25.175  13.289
61683W        W26943   7.923  17.217  10.580
61684W        W26944  25.700  11.184   4.301
61685W        W26945   2.239  23.145  11.202
61686W        W26946  43.173  18.344   2.285
61687W        W26947  39.047  26.932   3.213
61688W        W26948   3.940  20.746  11.622
61689W        W26949   6.114  10.310  11.528
61690W        W26950   2.418  42.785   3.133
61691W        W26951   7.113   2.856   2.912
61692W        W26952   6.209  17.627  11.235
61693W        W26953  24.248   6.246   4.541
61694W        W26954   7.336   9.306  11.865
61695W        W26955   4.497  35.048  14.968
61696W        W26956  38.035  24.868  10.570
61697W        W26957   0.774  43.968   0.718
61698W        W26958  27.739   7.848  14.622
61699W        W26959  28.127  11.660  13.939
61700W        W26960  17.638   2.593  10.737
61701W        W26961   9.394  31.382   3.153
61702W        W26962  19.758  14.056  13.055
61703W        W26963  20.011  21.429  11.338
61704W        W26964  25.015  23.443   0.329
61705W        W26965  17.245  34.454   1.960
61706W        W26966   4.962  30.029   4.144
61707W        W26967  12.136  32.384  13.892
61708W        W26968  36.386   0.917  14.435
61709W        W26969   5.413  15.730   3.688
61710W        W26970  29.971  21.925   2.647
61711W        W26971  12.893   7.794  10.059
61712W        W26972  35.050  21.446   2.050
61713W        W26973  12.104   2.920   0.371
61714W        W26974   1.409  13.783  14.921
61715W        W26975  36.873  43.969  11.823
61716W        W26976  19.119  35.547   4.740
61717W        W26977  44.754  25.492  12.991
61718W        W26978  30.323  18.938  11.610
61719W        W26979  17.145  15.361  13.942
61720W        W26980  11.646  23.970  11.646
61721W        W26981  32.930  38.925  14.247
61722W        W26982  12.187  13.638   4.156
61723W        W26983  41.259  19.483   1.327
61724W        W26984   1.836  11.180   1.400
61725W        W26985  37.533  34.100   4.116
61726W        W26986  34.271  26.979  11.995
61727W        W26987  38.039  23.131  12.965
61728W        W26988  43.258  34.471  13.835
61729W        W26989  13.598  22.294   0.715
61730W        W26990  14.729  24.476   1.067
61731W        W26991  34.850  26.751   0.922
61732W        W26992  22.523  24.970   0.325
61733W        W26993  32.262  35.681  14.871
61734W        W26994  41.899  19.412   0.774
61735W        W26995  28.844   1.898   3.873
61736W        W26996  38.047  38.309   4.237
61737W        W26997   9.646  14.537  13.965
61738W        W26998  20.644  30.075   3.670
61739W        W26999  16.844  35.333   2.466
61740W        W27000  17.558  19.111   4.290
61741W        W27001  41.114  32.122  12.496
61742W        W27002  41.547  13.873  13.067
61743W        W27003  31.488  35.828  13.378
61744W        W27004  27.755  30.271   3.999
61745W        W27005  12.694  28.901  13.952
61746W        W27006  37.061   3.930   3.223
61747W        W27007  36.491  39.938   4.971
61748W        W27008  13.863  34.560  14.123
61749W        W27009   9.717   6.936   4.033
61750W        W27010   1.535  30.947  14.294
61751W        W27011  10.933  27.696   3.108
61752W        W27012  34.879  11.789   3.129
61753W        W27013  38.141  13.368   3.133
61754W        W27014  35.471  23.619   2.863
61755W        W27015  42.836  17.013   2.243
61756W        W27016   2.143  30.523   1.211
61757W        W27017   0.760   2.886   3.980
61758W        W27018  25.859  25.056  13.844
61759W        W27019  25.022  33.020  14.028
61760W        W27020   1.118  30.187   5.150
61761W        W27021  40.903  18.264   0.681
61762W        W27022  26.465  39.418   4.712
61763W        W27023  21.300  18.576   5.074
61764W        W27024   4.411  35.412   2.711
61765W        W27025  40.456  29.410  11.896
61766W        W27026  19.118   9.719   0.009
61767W        W27027  25.636  44.672   1.689
61768W        W27028  16.547  31.942  13.504
61769W        W27029  43.260   1.916   1.719
61770W        W27030  22.642   4.369  14.494
61771W        W27031   4.561  21.496   2.686
61772W        W27032  10.648   8.315   0.388
61773W        W27033  10.250  37.964   2.939
61774W        W27034  37.127  14.870   1.340
61775W        W27035  20.362  11.373   0.482
61776W        W27036  32.947  27.270   4.858
61777W        W27037  35.607  22.824  14.821
61778W        W27038  17.695  12.147   3.074
61779W        W27039  23.242  32.007  14.854
61780W        W27040  34.060  10.450   1.166
61781W        W27041  38.509   0.389  11.187
61782W        W27042   4.850   9.286  12.974
61783W        W27043   8.779  41.635   4.745
61784W        W27044  28.000  12.291   3.721
61785W        W27045   8.357  40.405  10.625
61786W        W27046  32.296   9.648  13.402
61787W        W27047  26.348  18.841  11.120
61788W        W27048  41.375  11.908   1.872
61789W        W27049  26.568  40.150   3.607
61790W        W27050  10.774  36.516   2.753
61791W        W27051  17.583   4.810  14.507
61792W        W27052  11.251  32.825  10.773
61793W        W27053  41.167   4.742   0.795
61794W        W27054   2.486  42.583  10.472
61795W        W27055  42.795  38.228  13.694
61796W        W27056  31.479  29.765  12.096
61797W        W27057  22.772  40.761   1.165
61798W        W27058  44.630  29.092   3.952
61799W        W27059  34.602  20.498  14.473
61800W        W27060  16.044  31.417   1.631
61801W        W27061  13.049  27.041  10.663
61802W        W27062  17.525   2.628   1.743
61803W        W27063  32.017  11.417   4.155
61804W        W27064  11.737   9.796   0.536
61805W        W27065  31.169   1.258   3.906
61806W        W27066   5.378   7.981   2.264
61807W        W27067   8.563   5.071   1.024
61808W        W27068  16.157  40.482  13.215
61809W        W27069   4.921  23.593   2.731
61810W        W27070  41.634   5.875  12.088
61811W        W27071   7.279  26.374   2.802
61812W        W27072  36.366  21.599   1.255
61813W        W27073  40.760  12.356  11.612
61814W        W27074  32.470  28.244  11.131
61815W        W27075  25.760   3.396  10.596
61816W        W27076  12.901  25.894  12.544
61817W        W27077  42.874  35.859   2.365
61818W        W27078  11.659   3.797   0.392
61819W        W27079  27.909  17.840  13.556
61820W        W27080  34.082   1.423   2.789
61821W        W27081  26.457  38.486   4.713
61822W        W27082   8.639   4.439  10.693
61823W        W27083   2.786  43.539   1.606
61824W        W27084  19.077  22.894   5.208
61825W        W27085   3.479  38.809   3.779
61826W        W27086  21.068   2.055   4.441
61827W        W27087   0.414   8.797  10.625
61828W        W27088  18.558  25.526   3.362
61829W        W27089  21.174  37.103  10.252
61830W        W27090   3.525   5.872  13.480
61831W        W27091  43.475  12.546  14.965
61832W        W27092   1.758  11.518  11.966
61833W        W27093  29.392   5.256  10.025
61834W        W27094  42.479  25.150   0.473
61835W        W27095  14.495   3.724   1.367
61836W        W27096  30.503   4.651   0.326
61837W        W27097  28.222   9.172  13.441
61838W        W27098   0.403   1.812  14.943
61839W        W27099  14.770  36.329   2.145
61840W        W27100  40.145   7.855   0.979
61841W        W27101  40.856  11.782  10.543
61842W        W27102  33.412  14.845   1.555
61843W        W27103  17.860  17.201  13.032
61844W        W27104  28.519  24.423   2.827
61845W        W27105  27.569  16.523  11.333
61846W        W27106  30.184  32.722  14.784
61847W        W27107  15.570  19.727   9.956
61848W        W27108  32.657   7.921   4.757
61849W        W27109  32.634   8.703   2.290
61850W        W27110   7.173  27.359  11.869
61851W        W27111  24.241   6.504   1.869
61852W        W27112  30.107   9.369  12.358
61853W        W27113   8.804  34.036   2.237
61854W        W27114  32.874  36.950   4.097
61855W        W27115  26.156  15.766   4.281
61856W        W27116  36.011  38.173   1.911
61857W        W27117  37.926  20.757   4.073
61858W        W27118   7.643   6.625  12.879
61859W        W27119  10.182  43.193  13.851
61860W        W27120  43.524  29.024   1.845
61861W        W27121  38.350  19.360  14.429
61862W        W27122  43.489   4.163  11.551
61863W        W27123  38.434  43.169  12.918
61864W        W27124   0.187  24.231   2.792
61865W        W27125   4.221  10.615   1.804
61866W        W27126   3.764  37.116  13.537
61867W        W27127  36.049  15.624   4.020
61868W        W27128  29.525  38.583  14.493
61869W        W27129  21.940  13.324   4.154
61870W        W27130   8.947   7.138   0.298
61871W        W27131  22.521  39.701  10.987
61872W        W27132   4.482  18.768  12.094
61873W        W27133   8.729  25.482   3.188
61874W        W27134  13.211   3.361  12.156
61875W        W27135  42.721  12.872  13.916
61876W        W27136  25.708  24.615  11.179
61877W        W27137  15.052   9.857  12.054
61878W        W27138   9.615  34.275  11.489
61879W        W27139  25.602  21.289   4.178
61880W        W27140   4.401  38.428   3.221
61881W        W27141   0.467  40.356  12.917
61882W        W27142  32.039  44.315  14.092
61883W        W27143  26.951  38.515  10.492
61884W        W27144  24.021  42.885  13.962
61885W        W27145  34.567  34.563  11.042
61886W        W27146  37.040  16.703   1.730
61887W        W27147  34.417  44.539   5.019
61888W        W27148  32.974  40.830  11.812
61889W        W27149  37.528  37.850  12.115
61890W        W27150  41.009   8.197  11.398
61891W        W27151  14.266  13.123  11.816
61892W        W27152  42.265  40.377   2.654
61893W        W27153  36.516   5.753  11.222
61894W        W27154  24.901  29.709   1.568
61895W        W27155  14.874  32.200  12.198
61896W        W27156  30.919  31.880   1.960
61897W        W27157   2.319  14.086   2.127
61898W        W27158   6.718  28.231   1.860
61899W        W27159   0.346  32.583   3.590
61900W        W27160  15.215  21.500  14.207
61901W        W27161  43.756  36.843   3.195
61902W        W27162  42.359  21.063   2.269
61903W        W27163  33.842   8.584   0.962
61904W        W27164  31.876  11.875  11.416
61905W        W27165  43.968  44.496  11.178
61906W        W27166  11.236  29.411  14.282
61907W        W27167  40.786  10.344   3.351
61908W        W27168  14.555   4.280   4.210
61909W        W27169  24.631  35.600   1.235
61910W        W27170   1.380  34.432  12.442
61911W        W27171  10.263  11.619  12.208
61912W        W27172   7.178   0.331   0.321
61913W        W27173  25.033  26.523  12.120
61914W        W27174  43.747  27.301  14.049
61915W        W27175  38.625  20.584  10.325
61916W        W27176   4.296  31.581  13.973
61917W        W27177   5.723  39.013  12.366
61918W        W27178  40.277  29.498   1.724
61919W        W27179  16.989  37.403  11.188
61920W        W27180  21.067  38.722   4.464
61921W        W27181   0.891  28.660   0.908
61922W        W27182  17.206  21.606   2.730
61923W        W27183  19.125  34.390   3.680
61924W        W27184   2.230  29.458   0.369
61925W        W27185  43.395  41.927  11.382
61926W        W27186  43.386  12.356  12.630
61927W        W27187  23.959   5.787  12.939
61928W        W27188  31.935   7.880  12.534
61929W        W27189  24.402  10.992   3.714
61930W        W27190   2.020  15.690  13.949
61931W        W27191  18.574   5.875  13.639
61932W        W27192  29.206  34.598   0.378
61933W        W27193   8.370   7.013  12.596
61934W        W27194  27.168  25.094  13.181
61935W        W27195  15.449  26.114  11.867
61936W        W27196   3.095  44.736  11.634
61937W        W27197  30.489  12.108  10.669
61938W        W27198   9.777  20.755  10.937
61939W        W27199  13.801  37.118  11.654
61940W        W27200   7.821   7.137   4.221
61941W        W27201  25.471  24.668  11.622
61942W        W27202  20.561  26.967   4.717
61943W        W27203   1.479   8.340   2.655
61944W        W27204  33.088  17.276   4.394
61945W        W27205  31.948   7.240  12.985
61946W        W27206  42.770   4.888  11.718
61947W        W27207  12.428  13.255  11.045
61948W        W27208  22.734  18.050  12.867
61949W        W27209  12.987  24.122   0.270
61950W        W27210   1.885  13.476   1.617
61951W        W27211  39.426  24.231  10.398
61952W        W27212  34.313   4.780   4.720
61953W        W27213  39.538   3.701   0.860
61954W        W27214  31.949  38.638   3.662
61955W        W27215  42.041  22.127  13.423
61956W        W27216  34.583  30.010  14.788
61957W        W27217  29.897   5.890   1.922
61958W        W27218  13.845  18.551   1.225
61959W        W27219  10.325  25.097   1.010
61960W        W27220  34.659  35.098  11.883
61961W        W27221  36.532  18.056  10.497
61962W        W27222  24.474  18.765  13.814
61963W        W27223   4.350   1.554  13.663
61964W        W27224  42.500  20.958   3.141
61965W        W27225  26.249  17.520   2.488
61966W        W27226  36.972  40.953   2.840
61967W        W27227  26.693  12.824  14.927
61968W        W27228  23.613  34.831   1.309
61969W        W27229  36.955   4.974  13.276
61970W        W27230  23.518   3.810  13.808
61971W        W27231  38.005  26.135   3.371
61972W        W27232  39.442  15.148   1.878
61973W        W27233  30.693   8.315  14.901
61974W        W27234  10.804  17.231  13.247
61975W        W27235  26.949  37.969  14.355
61976W        W27236   3.730   0.475   2.631
61977W        W27237  16.105   3.373  13.745
61978W        W27238  18.815  43.435   0.487
61979W        W27239  10.746  18.188   4.132
61980W        W27240  35.642  33.588   3.699
61981W        W27241   0.356  10.262  14.341
61982W        W27242  10.371  26.736   2.118
61983W        W27243  18.858  15.892  11.442
61984W        W27244   7.452  21.128   1.798
61985W        W27245  44.199  37.056  12.905
61986W        W27246  37.755  23.692   1.780
61987W        W27247  36.441   4.534   0.489
61988W        W27248   5.801  37.260   2.773
61989W        W27249  13.717  34.055  11.620
61990W        W27250  23.496  19.733   4.435
61991W        W27251  27.975  21.039   0.302
61992W        W27252   7.379  39.394  13.305
61993W        W27253  36.836  39.372  13.513
61994W        W27254  13.757  11.347   3.111
61995W        W27255  15.333   1.970   2.174
61996W        W27256  15.271  20.230  14.068
61997W        W27257  20.266  13.237   1.854
61998W        W27258  35.071  35.405  11.115
61999W        W27259   9.152  39.153  13.119
62000W        W27260   4.756   6.815   2.943
62001W        W27261   1.246  27.665   4.092
62002W        W27262  30.693   5.971  14.870
62003W        W27263   6.319  38.016   4.668
62004W        W27264  10.212  43.433   4.152
62005W        W27265  42.846  10.228   4.916
62006W        W27266  13.596   2.479  13.920
62007W        W27267  30.432  15.597   3.667
62008W        W27268  18.667  16.530  10.652
62009W        W27269  15.561  37.573  10.273
62010W        W27270  11.791  27.658  11.032
62011W        W27271  34.916  39.393   4.329
62012W        W27272   5.244   3.511   1.883
62013W        W27273   5.348  43.093   1.885
62014W        W27274   3.118  44.764   4.913
62015W        W27275  11.094  30.115   2.340
62016W        W27276  17.104  44.372   4.788
62017W        W27277  19.297   7.913  10.716
62018W        W27278  43.962  38.977  11.534
62019W        W27279   8.744  20.001   4.098
62020W        W27280  28.507  19.172  11.629
62021W        W27281  42.836  44.964   2.886
62022W        W27282  32.792   0.744  14.321
62023W        W27283  11.100  28.207   2.295
62024W        W27284  23.753   2.636   0.324
62025W        W27285   9.389  35.316  11.357
62026W        W27286  38.827  21.309   3.245
62027W        W27287  23.720   9.651  14.924
62028W        W27288  17.794  19.567  14.527
62029W        W27289   6.358  22.622  11.692
62030W        W27290   8.078  17.690  10.729
62031W        W27291  42.349  24.691   0.649
62032W        W27292  29.354  44.379  11.973
62033W        W27293   6.258   1.538  14.795
62034W        W27294  28.073  40.025   2.689
62035W        W27295   3.726  37.029  11.278
62036W        W27296   9.805  40.375  11.545
62037W        W27297  44.310  16.934  12.921
62038W        W27298  23.662   0.298  10.636
62039W        W27299   0.468  29.957   0.901
62040W        W27300  34.878   7.502   2.792
62041W        W27301   5.865  15.600   4.920
62042W        W27302  35.488  36.104   4.091
62043W        W27303  39.348  34.185   3.905
62044W        W27304  36.133  18.446  14.763
62045W        W27305  21.517  15.402  14.458
62046W        W27306  12.896  24.665   0.926
62047W        W27307   9.573   0.868  11.991
62048W        W27308  28.164   6.197  11.125
62049W        W27309   9.958  13.832  10.704
62050W        W27310  30.760  44.033  13.988
62051W        W27311  30.036  44.024   1.831
62052W        W27312  29.985  40.035   1.331
62053W        W27313  21.460   6.676  11.125
62054W        W27314  30.716   2.198  11.189
62055W        W27315  29.720  20.104  11.004
62056W        W27316  44.845  15.822  10.515
62057W        W27317  23.040  19.804   1.560
62058W        W27318  27.631  15.512  11.543
62059W        W27319  35.012   4.901   0.329
62060W        W27320   3.402   3.401   1.460
62061W        W27321  10.941  11.160   4.142
62062W        W27322  44.841  21.447  12.906
62063W        W27323  15.759  10.925  10.620
62064W        W27324   2.616  30.881  14.961
62065W        W27325  23.438  37.051   2.817
62066W        W27326  35.522   7.432   4.571
62067W        W27327  29.337   4.866  11.986
62068W        W27328  11.161  39.472  10.905
62069W        W27329  12.477  22.980  14.841
62070W        W27330  34.740  12.634   5.085
62071W        W27331   8.911   2.509   0.770
62072W        W27332   5.644  43.341   0.308
62073W        W27333  36.509  21.151  13.175
62074W        W27334  20.929  43.448   2.742
62075W        W27335  21.623  40.203  10.209
62076W        W27336  38.400  20.678  11.817
62077W        W27337  18.206  37.026   3.345
62078W        W27338  23.463   1.398   2.805
62079W        W27339  44.328  41.008  12.572
62080W        W27340   9.414  12.490  11.978
62081W        W27341  12.279  27.941   3.022
62082W        W27342  40.404  21.575   3.776
62083W        W27343  38.380  14.972  10.610
62084W        W27344  26.654   6.173   1.707
62085W        W27345   3.371   9.568   0.320
62086W        W27346  43.571  10.360  12.436
62087W        W27347  36.073  24.147   2.930
62088W        W27348  20.833   2.858  10.678
62089W        W27349  12.686   0.227  13.878
62090W        W27350  14.391  14.131   2.231
62091W        W27351  24.057  27.484  11.587
62092W        W27352  18.920  36.900   2.222
62093W        W27353  22.541  20.196   3.153
62094W        W27354  42.468  44.280  11.146
62095W        W27355  20.716   3.810  12.954
62096W        W27356  39.292  38.328  13.913
62097W        W27357  15.060  19.671  14.991
62098W        W27358  29.982  18.568  11.656
62099W        W27359  34.570  27.290   3.234
62100W        W27360  32.079  33.399  14.373
62101W        W27361  44.994  22.992  14.409
62102W        W27362  40.248  41.597   3.179
62103W        W27363  20.783  18.316   2.625
62104W        W27364  42.800   6.499  14.866
62105W        W27365  11.403   4.673  13.939
62106W        W27366  21.091  39.508  12.470
62107W        W27367  28.615   8.821  13.148
62108W        W27368  31.676  36.622  12.118
62109W        W27369   3.168  11.897   3.672
62110W        W27370  21.222  14.598  11.662
62111W        W27371   5.369  15.718   1.856
62112W        W27372  20.561  21.308  12.890
62113W        W27373  44.665  11.180   0.989
62114W        W27374  10.751   2.049   4.971
62115W        W27375   2.464  17.230  12.532
62116W        W27376  41.439  20.734   3.979
62117W        W27377  14.341   9.885  13.262
62118W        W27378  24.157  32.529  10.618
62119W        W27379  21.444  28.223   0.956
62120W        W27380   0.455  29.956  14.805
62121W        W27381  10.750   8.388   1.753
62122W        W27382  38.993  27.398  12.688
62123W        W27383  43.592   4.328   1.680
62124W        W27384  39.195  19.928  10.206
62125W        W27385   3.067  13.182   4.038
62126W        W27386   9.100  13.248   0.907
62127W        W27387   8.063  41.522  14.367
62128W        W27388  11.442  26.165   9.884
62129W        W27389  21.927  33.628   5.498
62130W        W27390  28.226  19.705   0.243
62131W        W27391  27.479  42.447  13.602
62132W        W27392  26.997  31.383   3.284
62133W        W27393  42.851  13.002   1.592
62134W        W27394  34.625  10.819   1.890
62135W        W27395  44.832  27.866   1.282
62136W        W27396  29.228  29.164  13.048
62137W        W27397  15.849   8.116   4.892
62138W        W27398  40.382  32.961   1.617
62139W        W27399  42.462   5.101  10.423
62140W        W27400  33.656  35.497   0.311
62141W        W27401  12.375  35.206   0.536
62142W        W27402  11.164  42.089   1.996
62143W        W27403  35.360  15.170   4.693
62144W        W27404  17.118  34.887  11.117
62145W        W27405   6.692  20.167  10.532
62146W        W27406  25.661  40.324   2.723
62147W        W27407   3.437  24.062   2.879
62148W        W27408   5.337  35.444   2.751
62149W        W27409  10.734  40.566   1.628
62150W        W27410  15.900   4.356   4.067
62151W        W27411  15.160  14.162  11.435
62152W        W27412  24.465  41.983  10.803
62153W        W27413   4.533   5.005  14.792
62154W        W27414  17.725   7.814  12.759
62155W        W27415  25.572  22.135  14.069
62156W        W27416  27.419  26.590   1.271
62157W        W27417  36.389  36.372  12.101
62158W        W27418  19.607  36.902   1.012
62159W        W27419   0.936   9.612  14.409
62160W        W27420   9.670  30.485   3.645
62161W        W27421  32.576  22.949   2.109
62162W        W27422  24.041  28.893  10.822
62163W        W27423  20.838  40.900   1.328
62164W        W27424  25.431  13.372   1.419
62165W        W27425   0.806  18.259   0.926
62166W        W27426  21.630   0.701   1.329
62167W        W27427   7.658  17.932   2.891
62168W        W27428   5.181  34.493  13.023
62169W        W27429  20.849  29.757   2.877
62170W        W27430  15.125  15.777   2.140
62171W        W27431  29.928  19.826  14.229
62172W        W27432  29.925  33.898  12.874
62173W        W27433  37.023   8.235   3.594
62174W        W27434  12.356  42.786   4.657
62175W        W27435  35.628  36.533   2.292
62176W        W27436  37.515  39.917   1.671
62177W        W27437  24.055  39.010  10.695
62178W        W27438  25.893  17.178   2.818
62179W        W27439  31.197  10.504   3.755
62180W        W27440   3.207  41.255  11.438
62181W        W27441  23.577  42.443  13.539
62182W        W27442  26.490  15.833   0.793
62183W        W27443  21.750   6.142   3.963
62184W        W27444  21.883   3.291   4.562
62185W        W27445   2.411  18.134   1.346
62186W        W27446  40.272  14.351   5.010
62187W        W27447   2.439  16.838  13.367
62188W        W27448  21.541  31.018   3.632
62189W        W27449  42.926  18.044   2.681
62190W        W27450  40.110   3.467  14.286
62191W        W27451   3.760   0.487  13.429
62192W        W27452  20.704  15.634  11.087
62193W        W27453  41.359  14.260  11.904
62194W        W27454  32.216   5.211   4.142
62195W        W27455  38.953  17.937  11.955
62196W        W27456  33.022  40.424   1.302
62197W        W27457  21.490  20.977   5.427
62198W        W27458  12.257  26.938   0.828
62199W        W27459   7.115  38.833  10.764
62200W        W27460  19.736  23.336   3.171
62201W        W27461  43.439   4.443   3.100
62202W        W27462   4.247   6.652  10.791
62203W        W27463  13.289  43.101   1.242
62204W        W27464   5.267  27.480  10.754
62205W        W27465  29.196   3.868  11.810
62206W        W27466  41.046  22.802  10.457
62207W        W27467  38.637   0.408  10.290
62208W        W27468  22.211  31.846   1.215
62209W        W27469  16.501  10.856  12.094
62210W        W27470   2.831   0.427   1.344
62211W        W27471   9.249  38.657  13.335
62212W        W27472  32.839  38.521  14.816
62213W        W27473  14.369  27.707   4.192
62214W        W27474  22.813  13.530  13.919
62215W        W27475  12.493  14.159  10.770
62216W        W27476   8.625   3.345  12.626
62217W        W27477  12.053  10.238   0.735
62218W        W27478  24.196  13.234  13.563
62219W        W27479   7.843   1.031  14.214
62220W        W27480  18.707  15.837   4.588
62221W        W27481  34.588  42.235  11.456
62222W        W27482   1.445  31.918  14.184
62223W        W27483  43.364   2.979  14.773
62224W        W27484   0.886  32.144  12.215
62225W        W27485  42.929  21.984   3.579
62226W        W27486  16.150  39.784   2.947
62227W        W27487  21.303  18.709   3.256
62228W        W27488  10.293   4.868   2.232
62229W        W27489  17.369  37.417   4.173
62230W        W27490  21.575  42.081  13.884
62231W        W27491  32.808  32.820  10.588
62232W        W27492  12.592  33.051  12.677
62233W        W27493  21.611  22.558   1.426
62234W        W27494  24.747  16.871   0.911
62235W        W27495  35.430   5.525  10.368
62236W        W27496  38.441  30.893   1.261
62237W        W27497   1.314   7.937  12.420
62238W        W27498  41.844  26.267  10.679
62239W        W27499  29.701  29.175   1.378
62240W        W27500  27.451  35.946  11.982
62241W        W27501   0.175   6.726   1.862
62242W        W27502   8.583   7.162  12.130
62243W        W27503  38.797  33.577  14.905
62244W        W27504  30.863   1.498   2.902
62245W        W27505  23.538  40.603  11.095
62246W        W27506  16.404  33.081  14.545
62247W        W27507  30.603  25.994   2.356
62248W        W27508  22.595  38.927  13.204
62249W        W27509  15.998  13.438   2.761
62250W        W27510  37.994  40.875   3.109
62251W        W27511  43.400  42.714  10.750
62252W        W27512   4.736  10.502  12.663
62253W        W27513  43.107  23.465   2.908
62254W        W27514  40.356  12.764  12.974
62255W        W27515   5.336  19.772  11.319
62256W        W27516  42.045  20.910  12.932
62257W        W27517  12.028  21.712   2.187
62258W        W27518  29.592  27.916  14.447
62259W        W27519  10.920   6.233  13.712
62260W        W27520  20.114  30.084   4.513
62261W        W27521   8.991  42.845  10.354
62262W        W27522  23.959   4.260   0.377
62263W        W27523  19.316  26.507   0.979
62264W        W27524  25.117  44.306   3.705
62265W        W27525  37.114   2.378   3.683
62266W        W27526   0.223  38.301  12.628
62267W        W27527  10.170  15.348   3.271
62268W        W27528  21.505  39.431  11.618
62269W        W27529  26.134   7.671  13.321
62270W        W27530   4.851  34.232  13.954
62271W        W27531   6.343  22.198   4.936
62272W        W27532  10.603  26.956   1.263
62273W        W27533  20.668  43.881   3.387
62274W        W27534  18.495  21.568   1.531
62275W        W27535  19.237  35.630   3.368
62276W        W27536  21.591  29.669   0.508
62277W        W27537  44.517  38.852  12.384
62278W        W27538   5.946  19.437  14.116
62279W        W27539  23.007   9.222  12.593
62280W        W27540  41.864  21.606  13.104
62281W        W27541  43.770   4.382  12.437
62282W        W27542  40.861  29.691  11.153
62283W        W27543   1.835  31.491  11.147
62284W        W27544  29.649  19.554   1.786
62285W        W27545   0.273  38.665   4.534
62286W        W27546  26.135  40.577   1.736
62287W        W27547  10.472  11.400   4.108
62288W        W27548  23.562   9.300   2.747
62289W        W27549  26.618   3.436  13.335
62290W        W27550  41.934  17.644  13.273
62291W        W27551  24.668   6.957   1.164
62292W        W27552  30.559  44.071  10.544
62293W        W27553  38.962  22.236  12.489
62294W        W27554  42.956  10.195   0.782
62295W        W27555  17.283  35.078   2.325
62296W        W27556  35.571  44.851   1.718
62297W        W27557  41.918  28.549   0.568
62298W        W27558  14.549  37.570   1.371
62299W        W27559  22.295  40.796  13.907
62300W        W27560   4.432  40.577   3.276
62301W        W27561  14.455   0.964  14.468
62302W        W27562  30.247  15.154  13.233
62303W        W27563  39.959  39.886   0.399
62304W        W27564  16.743  17.068   5.447
62305W        W27565  35.824  18.657   2.673
62306W        W27566  44.334  15.788  10.403
62307W        W27567  44.983  23.226  12.513
62308W        W27568  43.847  35.372  14.790
62309W        W27569  23.343   3.432   1.456
62310W        W27570   2.715   0.957   4.758
62311W        W27571  40.479  37.975  13.348
62312W        W27572  27.103  38.567   3.136
62313W        W27573  34.229  28.046   1.764
62314W        W27574   3.723  23.405   2.303
62315W        W27575  15.397  12.832   4.115
62316W        W27576  25.406  26.264  10.216
62317W        W27577   5.457   1.451  10.600
62318W        W27578  43.747  29.849  12.991
62319W        W27579  36.788  14.471  11.069
62320W        W27580   6.584  36.970  10.759
62321W        W27581  22.251  28.691   1.707
62322W        W27582  18.489  38.818   1.263
62323W        W27583  10.359  33.641  13.006
62324W        W27584  12.710  20.741  12.382
62325W        W27585  41.793  43.495   4.092
62326W        W27586  35.320  24.717   1.265
62327W        W27587  15.665  24.000   4.045
62328W        W27588   4.461   7.064   0.888
62329W        W27589  25.204  16.601   3.054
62330W        W27590  12.968  15.759  13.517
62331W        W27591   1.121  18.980   2.338
62332W        W27592  26.531  30.564  12.811
62333W        W27593  37.483  14.600   4.579
62334W        W27594   8.115   6.453  11.757
62335W        W27595  25.516  33.920   2.986
62336W        W27596   6.905  30.868   0.319
62337W        W27597   0.969  13.615  12.784
62338W        W27598  32.182   8.846  10.380
62339W        W27599  26.448  22.252   1.206
62340W        W27600  24.314  32.081   1.900
62341W        W27601  38.394  18.634   3.486
62342W        W27602  10.398  21.798  14.523
62343W        W27603  39.368  34.470  11.026
62344W        W27604  31.873  11.166  14.010
62345W        W27605  20.736  24.537   0.461
62346W        W27606  19.865  44.369   2.344
62347W        W27607  28.105   1.222   3.595
62348W        W27608  34.358  24.701  13.500
62349W        W27609   1.710  42.937  14.416
62350W        W27610  11.324  35.891   4.444
62351W        W27611  24.887  20.950  14.372
62352W        W27612  10.130  39.404   1.422
62353W        W27613   9.888  43.092   0.270
62354W        W27614  13.243  40.048   3.750
62355W        W27615  12.008   2.868  11.154
62356W        W27616  31.827  22.658  11.598
62357W        W27617  17.417  17.875  10.604
62358W        W27618  23.417  17.541   1.852
62359W        W27619  15.312   5.973   1.390
62360W        W27620   3.206  23.097  14.543
62361W        W27621  21.184  13.059  13.443
62362W        W27622  31.636   6.962  13.858
62363W        W27623  44.192  37.577  13.925
62364W        W27624  34.324   9.956  10.660
62365W        W27625  42.326  26.590   1.381
62366W        W27626  22.010  23.267   1.644
62367W        W27627   0.769  34.257  10.115
62368W        W27628   4.449  22.711   3.952
62369W        W27629   7.497  43.883  11.902
62370W        W27630   6.064  14.318   0.927
62371W        W27631   4.410  33.537   2.400
62372W        W27632   3.629  31.726   3.706
62373W        W27633   4.722   2.344  11.204
62374W        W27634  28.981   7.006  13.772
62375W        W27635   7.349  41.550   3.943
62376W        W27636  35.828  21.997  12.048
62377W        W27637  27.928  24.688  10.590
62378W        W27638  23.434   3.223   4.819
62379W        W27639  13.069  13.697  11.175
62380W        W27640  34.628  21.499   3.816
62381W        W27641  41.853   4.874  14.955
62382W        W27642  26.989  21.263   3.263
62383W        W27643   5.437  33.387  12.425
62384W        W27644  35.358  44.144  12.518
62385W        W27645  24.270  37.499   0.462
62386W        W27646  17.857  12.164  10.616
62387W        W27647  34.468  38.890  13.615
62388W        W27648  33.286  30.070   3.123
62389W        W27649  35.466  18.121  13.471
62390W        W27650  11.723   2.949  13.409
62391W        W27651   3.160  19.249   0.845
62392W        W27652  23.261  26.493   4.173
62393W        W27653  11.840  43.012  11.474
62394W        W27654  18.616   8.348   1.673
62395W        W27655  29.498   0.277  10.697
62396W        W27656  16.272  18.564   2.382
62397W        W27657  19.087  28.950   0.802
62398W        W27658  17.766  20.695   4.147
62399W        W27659  14.355  18.838  13.367
62400W        W27660  21.542  33.589  11.169
62401W        W27661  33.005  39.482  14.025
62402W        W27662   2.754  41.957   1.798
62403W        W27663   0.212  44.803  11.119
62404W        W27664  36.762   6.966  12.360
62405W        W27665  32.877  16.109  13.346
62406W        W27666  30.056  36.662  12.532
62407W        W27667   2.568  31.402  14.031
62408W        W27668   7.788  33.599   0.518
62409W        W27669   5.573  37.059   3.233
62410W        W27670  13.571  32.448  13.108
62411W        W27671  17.859  19.198   1.250
62412W        W27672   3.856   1.505   2.243
62413W        W27673  18.823  19.988   2.749
62414W        W27674  10.590  21.168   4.530
62415W        W27675  22.049  24.261   1.909
62416W        W27676  35.605  19.291  11.211
62417W        W27677  42.083  41.953  12.077
62418W        W27678   7.483   3.664  14.518
62419W        W27679  21.971  15.324   2.128
62420W        W27680  12.808  40.467  14.411
62421W        W27681  28.712  21.560   2.223
62422W        W27682   4.544  39.327  12.092
62423W        W27683   1.435   5.329   4.513
62424W        W27684  28.559  15.865   3.333
62425W        W27685  18.107   0.762   3.129
62426W        W27686  42.570  23.689   4.490
62427W        W27687  15.235  28.129  13.397
62428W        W27688  17.259  13.832  14.082
62429W        W27689   0.384  30.305   2.844
62430W        W27690  26.979  21.686  12.505
62431W        W27691   7.689   0.633   3.921
62432W        W27692  28.423  19.655   1.105
62433W        W27693   6.460  15.014  13.398
62434W        W27694  41.793  32.640   0.360
62435W        W27695  36.460  19.505   3.108
62436W        W27696  23.480   1.017  12.384
62437W        W27697  19.830   3.857  12.392
62438W        W27698  13.066   7.999  12.440
62439W        W27699  19.614  44.447  11.545
62440W        W27700  37.223   2.220  13.542
62441W        W27701   8.258  19.766  13.594
62442W        W27702  17.700  43.038  11.101
62443W        W27703  41.309  22.149   3.763
62444W        W27704   1.528  33.956  14.015
62445W        W27705  33.324  43.457  12.419
62446W        W27706  44.738   4.824  14.135
62447W        W27707  44.865   8.754   2.088
62448W        W27708  26.362  35.034  14.384
62449W        W27709   4.455  17.185  10.640
62450W        W27710  12.399   9.653  12.356
62451W        W27711  11.401  30.076   1.409
62452W        W27712  42.396  11.007   1.944
62453W        W27713   5.716  24.663  11.554
62454W        W27714   6.628  39.000  13.440
62455W        W27715  10.182  29.235  10.314
62456W        W27716  23.402   1.943  10.937
62457W        W27717  42.399   8.270  10.679
62458W        W27718   3.729   7.924  11.496
62459W        W27719   8.202  12.746  12.122
62460W        W27720   7.962  43.860  14.361
62461W        W27721   8.942  43.273   3.020
62462W        W27722   1.841  21.264   0.028
62463W        W27723  23.003   3.271  10.240
62464W        W27724  30.180  27.376  12.349
62465W        W27725   0.657  38.772   1.816
62466W        W27726   6.427   2.238  13.869
62467W        W27727  38.711  17.603   4.728
62468W        W27728  36.332  32.535   4.064
62469W        W27729  26.331   7.449  14.379
62470W        W27730  39.819   5.216   2.284
62471W        W27731  26.100  30.638   0.754
62472W        W27732  43.474  11.078   1.900
62473W        W27733  29.508  40.842  12.651
62474W        W27734  10.202  19.268   4.526
62475W        W27735  21.533  40.730  13.466
62476W        W27736   2.672   7.854   4.420
62477W        W27737   7.315  35.996   1.256
62478W        W27738  36.538  30.426   0.319
62479W        W27739  24.955  19.426   1.835
62480W        W27740  17.792  27.536  13.479
62481W        W27741  32.025   6.436  12.521
62482W        W27742   1.828  14.695  13.070
62483W        W27743  29.405   2.973  11.695
62484W        W27744  13.778  32.989   4.423
62485W        W27745  23.601  28.599   3.137
62486W        W27746  25.728   7.633  10.938
62487W        W27747  40.275   1.956  13.358
62488W        W27748  15.723   8.298   3.926
62489W        W27749  38.375  35.088   4.808
62490W        W27750   9.238  24.046  10.495
62491W        W27751  19.422   7.734   4.471
62492W        W27752   9.863  13.438   4.577
62493W        W27753  26.210  32.602  13.918
62494W        W27754  10.489   5.313  14.262
62495W        W27755   4.485   8.528  14.569
62496W        W27756  42.955   4.294   2.898
62497W        W27757  10.295   9.186   3.315
62498W        W27758  33.244  12.871   4.000
62499W        W27759  43.486   6.999   4.978
62500W        W27760   8.345  23.225   2.723
62501W        W27761  13.312  10.166   3.402
62502W        W27762  41.230   9.848   2.822
62503W        W27763  42.996  20.183   3.550
62504W        W27764  26.622  29.606  13.940
62505W        W27765  33.941  36.392   0.811
62506W        W27766  33.485  19.679   1.734
62507W        W27767   0.265  43.265  13.859
62508W        W27768  39.931  14.090  13.971
62509W        W27769  21.029  17.383   1.813
62510W        W27770  40.631  27.175  11.429
62511W        W27771  15.195   2.454  14.364
62512W        W27772   4.663   1.803   4.178
62513W        W27773  32.106  40.946   2.254
62514W        W27774  13.023  43.554   2.289
62515W        W27775  25.264  30.586   3.659
62516W        W27776   3.314  44.415  10.755
62517W        W27777  20.541   1.264   4.492
62518W        W27778  31.847  15.990   1.483
62519W        W27779   0.344  38.343  12.100
62520W        W27780  10.395  30.557  12.745
62521W        W27781  24.185  12.844   0.839
62522W        W27782  32.388  26.185  11.601
62523W        W27783  16.833  13.332   4.398
62524W        W27784  30.540   0.282   3.950
62525W        W27785  34.149  15.618  11.344
62526W        W27786  32.168   2.757  11.085
62527W        W27787   6.434  44.161   0.260
62528W        W27788  27.407  40.519  12.447
62529W        W27789  42.884  43.259   3.127
62530W        W27790  24.586  25.069  10.781
62531W        W27791   0.209  35.580  10.752
62532W        W27792  38.477   5.946  13.463
62533W        W27793  14.383  32.538  12.564
62534W        W27794   8.665  44.414  14.329
62535W        W27795  19.246  39.708   3.852
62536W        W27796  38.657  43.513  14.760
62537W        W27797  17.374  38.856  11.028
62538W        W27798  31.061  33.912   0.285
62539W        W27799  37.155  11.423  12.020
62540W        W27800  10.870   3.755   2.815
62541W        W27801  20.718  13.202  10.815
62542W        W27802  30.398  42.272  14.465
62543W        W27803  17.277  25.991  12.968
62544W        W27804   6.719  13.062  11.952
62545W        W27805  27.029  19.130  12.603
62546W        W27806  13.881  29.978  11.098
62547W        W27807  18.714  42.232  13.440
62548W        W27808  28.463  19.157  10.735
62549W        W27809  31.911  31.556  11.239
62550W        W27810  29.920  13.044  10.472
62551W        W27811  16.964  12.646   4.922
62552W        W27812  33.570  40.769   5.040
62553W        W27813   0.229  35.012   1.249
62554W        W27814  21.266  29.531  10.522
62555W        W27815  32.112  21.016  11.117
62556W        W27816  13.303   4.247  11.928
62557W        W27817  13.530  30.918   2.146
62558W        W27818  23.487   3.778  14.962
62559W        W27819  39.065  10.207   1.213
62560W        W27820  38.165  42.988  12.520
62561W        W27821   3.736   4.298  11.134
62562W        W27822  31.292  29.994  11.702
62563W        W27823   2.751  37.171   4.326
62564W        W27824  37.309  34.517  13.016
62565W        W27825  37.263  11.804   1.761
62566W        W27826  13.351  17.162  10.287
62567W        W27827   3.339  17.747   1.183
62568W        W27828  30.899  21.220  11.439
62569W        W27829   1.980  43.267  14.712
62570W        W27830  17.779   0.497  10.646
62571W        W27831  30.454  29.780   3.171
62572W        W27832  10.724  15.452   0.707
62573W        W27833  39.393  33.140  14.782
62574W        W27834  21.779  22.099   2.400
62575W        W27835  38.472   0.746  14.912
62576W        W27836  35.706  26.138  11.721
62577W        W27837  44.249   7.757   0.868
62578W        W27838  12.736  33.186  10.797
62579W        W27839  39.780  12.356  10.785
62580W        W27840  17.873  28.042   3.234
62581W        W27841   5.684  27.000  12.481
62582W        W27842   3.339  36.817  13.613
62583W        W27843  33.759  15.475  11.008
62584W        W27844   2.504  23.795   2.571
62585W        W27845  36.144   0.750   2.633
62586W        W27846   5.375  32.311   3.808
62587W        W27847  16.421  24.415   4.414
62588W        W27848  19.174  27.434  13.651
62589W        W27849  23.222   2.436  13.854
62590W        W27850  27.080  19.213   3.826
62591W        W27851  21.261   9.799   2.244
62592W        W27852  16.493   3.704  13.862
62593W        W27853  38.943   4.960   1.393
62594W        W27854  18.191  17.580   2.381
62595W        W27855  10.155   7.224   2.247
62596W        W27856  28.072  26.642   4.506
62597W        W27857  30.139   0.153   2.406
62598W        W27858  34.347   2.312   2.774
62599W        W27859  22.365  43.100  12.074
62600W        W27860  28.172  36.484  14.561
62601W        W27861  41.393  29.268  12.319
62602W        W27862  29.384  18.136  11.989
62603W        W27863  32.111   2.203  12.889
62604W        W27864  30.267   4.377   1.363
62605W        W27865  15.646   7.206   4.722
62606W        W27866  14.140  22.464  13.973
62607W        W27867   3.762  38.934   4.648
62608W        W27868  15.269  10.220   0.013
62609W        W27869  25.568  35.558  14.450
62610W        W27870  21.032  20.367   3.769
62611W        W27871  34.117  32.690   3.208
62612W        W27872   4.430  16.054  11.581
62613W        W27873  15.099  35.107   0.647
62614W        W27874   9.435  26.666  11.189
62615W        W27875  16.315  41.522   1.643
62616W        W27876  25.078  43.203   1.452
62617W        W27877  28.670  42.290   1.839
62618W        W27878  13.822   0.463   0.917
62619W        W27879  40.599   3.296  14.314
62620W        W27880  15.401   6.657   1.772
62621W        W27881  32.088   8.920   5.124
62622W        W27882  36.601  26.662   4.443
62623W        W27883  18.725  42.214  12.062
62624W        W27884  41.224  22.750  12.131
62625W        W27885  33.058  18.299   0.703
62626W        W27886  37.479  15.141   1.086
62627W        W27887  29.561  12.854  13.870
62628W        W27888  15.822   3.223  14.421
62629W        W27889  15.305  25.833  10.532
62630W        W27890  28.970  11.591   4.522
62631W        W27891  13.546  27.634   1.159
62632W        W27892  19.928   0.319  14.383
62633W        W27893  20.508  32.457   4.887
62634W        W27894   5.984  18.620   0.257
62635W        W27895  31.938  13.723   2.293
62636W        W27896  18.335  25.158   2.847
62637W        W27897  31.318  14.366  11.198
62638W        W27898  37.820  33.556   3.201
62639W        W27899   8.114  23.301  10.703
62640W        W27900  19.215  32.674   4.921
62641W        W27901  44.298  16.117   1.609
62642W        W27902  24.161  44.072   4.617
62643W        W27903  33.309   2.418  14.808
62644W        W27904  12.856  11.305   1.647
62645W        W27905   7.829  21.145  13.323
62646W        W27906  38.959  29.007   0.748
62647W        W27907  17.798  34.487   3.843
62648W        W27908  16.150  24.779  11.653
62649W        W27909  32.212  13.392  14.350
62650W        W27910  10.816  17.742   0.323
62651W        W27911  30.045  18.800  12.994
62652W        W27912  42.781   2.390   2.324
62653W        W27913  37.710  20.837   3.583
62654W        W27914  38.212  19.507  12.052
62655W        W27915  16.149  15.823  13.155
62656W        W27916  31.814  12.098  13.050
62657W        W27917  25.595  17.599  13.744
62658W        W27918  23.110  23.313   2.275
62659W        W27919  43.776  15.118   4.612
62660W        W27920  30.937  44.624  11.173
62661W        W27921   7.583  25.636  14.402
62662W        W27922   8.213  33.656   4.552
62663W        W27923  20.025  18.521   1.890
62664W        W27924  30.743  18.510   3.694
62665W        W27925  17.822  17.518   2.762
62666W        W27926  19.257  34.628   4.874
62667W        W27927   1.271  19.040   4.978
62668W        W27928  11.366  19.122   0.007
62669W        W27929  40.892  13.295  10.652
62670W        W27930   9.827  32.919   2.375
62671W        W27931  38.531  10.578  11.055
62672W        W27932  29.955  24.552   3.522
62673W        W27933  43.607  13.237   3.676
62674W        W27934  13.777  26.119   1.470
62675W        W27935  38.975   9.664  14.779
62676W        W27936  17.381  22.960  13.397
62677W        W27937  41.910  41.573   1.221
62678W        W27938  10.675  44.745   4.083
62679W        W27939  28.121  18.740  12.455
62680W        W27940  41.042  16.621  14.994
62681W        W27941   1.330   8.703  14.824
62682W        W27942  12.686  15.803  11.024
62683W        W27943  36.831   3.775   2.792
62684W        W27944   9.615  39.927   0.725
62685W        W27945  19.110   7.911  11.613
62686W        W27946   8.596  18.533  12.973
62687W        W27947   8.262  20.533   1.616
62688W        W27948  11.656  27.991   3.819
62689W        W27949  32.709  35.483   3.584
62690W        W27950  26.415   0.408   1.157
62691W        W27951  17.073  18.458   9.857
62692W        W27952  36.449   7.337   4.545
62693W        W27953  14.618  23.985   1.030
62694W        W27954  41.884  16.673  13.983
62695W        W27955  14.160  42.329   3.524
62696W        W27956  20.862  38.419  13.453
62697W        W27957  24.295   0.555  13.835
62698W        W27958  40.359  15.980  13.427
62699W        W27959   4.850  33.099   4.643
62700W        W27960   9.653  41.589  10.948
62701W        W27961  21.904  14.888   1.312
62702W        W27962  22.993  29.629  11.752
62703W        W27963   9.288   4.808   4.986
62704W        W27964  19.189  37.595   2.839
62705W        W27965   7.414  20.010   1.311
62706W        W27966   7.157  22.941   1.740
62707W        W27967   4.808  33.630   2.052
62708W        W27968   7.158  25.167   0.858
62709W        W27969  41.994  13.034   2.750
62710W        W27970  31.645  35.891   0.469
62711W        W27971  22.594  28.945  11.071
62712W        W27972   9.446  13.697  12.121
62713W        W27973  38.940  37.564   2.309
62714W        W27974  39.286  20.038  12.814
62715W        W27975  18.536  31.952   3.272
62716W        W27976  15.751  25.466   2.720
62717W        W27977   2.412  19.289  13.373
62718W        W27978  12.659  18.590  12.503
62719W        W27979  14.817  13.838   2.329
62720W        W27980  25.814  12.830   4.956
62721W        W27981  30.522   7.829  14.548
62722W        W27982  41.987  29.122  11.124
62723W        W27983  29.394   8.824  11.161
62724W        W27984  16.701   7.618  12.616
62725W        W27985   3.890  27.084  11.977
62726W        W27986   6.661  21.773   0.916
62727W        W27987  23.004  40.735  11.045
62728W        W27988  13.934  29.578   2.637
62729W        W27989   9.906   9.156  12.996
62730W        W27990   2.497  40.772   0.359
62731W        W27991  20.142  14.966  10.968
62732W        W27992  11.083  14.321  10.565
62733W        W27993  19.704   9.353   2.692
62734W        W27994  39.596  20.834  11.111
62735W        W27995  12.803  27.709   4.212
62736W        W27996  11.613  15.847  13.206
62737W        W27997  33.994  40.260   1.303
62738W        W27998  26.038  19.471  11.996
62739W        W27999   9.100  20.730  14.838
62740W        W28000  11.264   3.396  11.713
62741W        W28001  12.132  18.521   0.716
62742W        W28002  10.878  10.270   1.583
62743W        W28003  30.224  18.637   2.349
62744W        W28004  19.013  13.579   0.287
62745W        W28005  29.404  28.952  13.492
62746W        W28006  33.182   8.910   1.445
62747W        W28007  31.598   3.647   3.317
62748W        W28008  18.642  37.240   0.688
62749W        W28009  11.836  28.728  13.278
62750W        W28010   8.187  34.586  12.171
62751W        W28011  33.430  30.511  12.615
62752W        W28012  24.101  23.559  13.478
62753W        W28013  44.036   1.801   4.221
62754W        W28014   2.888  39.506  11.696
62755W        W28015  27.612  31.608  10.515
62756W        W28016  29.485  22.767  13.354
62757W        W28017  12.385   4.478  14.551
62758W        W28018  11.358  21.755  14.208
62759W        W28019  42.531  23.335  10.984
62760W        W28020  14.694  40.422  11.919
62761W        W28021  15.109  22.598  14.861
62762W        W28022   8.104   0.404  12.549
62763W        W28023  24.311  43.394   0.273
62764W        W28024  36.928  13.373   1.222
62765W        W28025   2.083   8.283  13.043
62766W        W28026   2.624   0.406  14.255
62767W        W28027  33.255  40.662   4.620
62768W        W28028   2.837  28.034   5.043
62769W        W28029   1.730  34.424  11.141
62770W        W28030   4.906  25.128  14.434
62771W        W28031  14.314  33.453  12.522
62772W        W28032  25.909  15.284  12.790
62773W        W28033  33.074  22.971   0.466
62774W        W28034  23.600  19.566   2.775
62775W        W28035   7.762   5.458   2.697
62776W        W28036  41.867  26.426   0.817
62777W        W28037  41.758  12.122  11.791
62778W        W28038  41.110  41.970   1.802
62779W        W28039  24.619  37.534   0.838
62780W        W28040  10.106  22.706  13.013
62781W        W28041  11.200   5.725   0.220
62782W        W28042  42.131  21.987  11.198
62783W        W28043  16.762  10.781  11.429
62784W        W28044  43.882   5.362  12.154
62785W        W28045  11.250   0.709   3.692
62786W        W28046  21.149  44.994  11.841
62787W        W28047  27.762  12.124  10.488
62788W        W28048  26.803  38.138   0.838
62789W        W28049  14.221  35.623   1.711
62790W        W28050   1.387   3.199   5.077
62791W        W28051  41.520  28.711  11.419
62792W        W28052  17.658   0.614   1.959
62793W        W28053  40.013  28.166  13.753
62794W        W28054  26.440  23.733   2.468
62795W        W28055  27.133  38.087   0.378
62796W        W28056   3.442  44.283   3.125
62797W        W28057  43.551  11.565   1.751
62798W        W28058  21.699  12.097   1.026
62799W        W28059  19.909  24.847   2.239
62800W        W28060  43.468  26.682  13.933
62801W        W28061  17.578  34.824  11.823
62802W        W28062  15.703  35.872  11.193
62803W        W28063   9.825  12.721  12.365
62804W        W28064  40.198  26.363   4.334
62805W        W28065  11.865  37.960   1.352
62806W        W28066  12.993  22.335  12.909
62807W        W28067   0.757  38.374   4.612
62808W        W28068  10.493  20.000   9.864
62809W        W28069  35.815  42.252  14.007
62810W        W28070   6.441  14.339  14.960
62811W        W28071  39.085  19.070  11.146
62812W        W28072   2.865   9.202  11.782
62813W        W28073  20.147   3.277   3.378
62814W        W28074  19.927   5.863   3.585
62815W        W28075  29.662  16.161  12.799
62816W        W28076  35.041   8.728  12.043
62817W        W28077  37.877  23.967   0.062
62818W        W28078  39.263  21.160   4.208
62819W        W28079  37.941   3.012   4.704
62820W        W28080  43.763   6.410  13.105
62821W        W28081  21.957  20.620  13.311
62822W        W28082   8.355  27.660  12.613
62823W        W28083  25.267   5.212   1.159
62824W        W28084  30.908   8.165  14.427
62825W        W28085  42.986  24.850  14.276
62826W        W28086  41.854  13.772   0.876
62827W        W28087  38.473  42.885   3.853
62828W        W28088  41.618   8.867  11.563
62829W        W28089   9.798  10.809  13.587
62830W        W28090  32.117  20.494   4.271
62831W        W28091   0.703  10.901   0.735
62832W        W28092  44.465  34.057   0.164
62833W        W28093   9.959  19.047  13.514
62834W        W28094  15.023  11.371   2.819
62835W        W28095  33.818  18.076   0.267
62836W        W28096  15.701   0.327   4.297
62837W        W28097  18.090  43.648  10.503
62838W        W28098  10.329  35.470   3.107
62839W        W28099  20.949  32.430   0.654
62840W        W28100  25.657  44.803   4.155
62841W        W28101  42.512  18.169   0.891
62842W        W28102   1.295  29.744  10.655
62843W        W28103  38.343  33.324  14.920
62844W        W28104  26.852  36.423   5.026
62845W        W28105  42.902  12.940  12.155
62846W        W28106  30.025   1.650  12.456
62847W        W28107  43.358  36.365  14.379
62848W        W28108  38.897   9.844  14.313
62849W        W28109  42.266  43.384  13.163
62850W        W28110  22.726  29.537   2.153
62851W        W28111   4.045   3.039  14.096
62852W        W28112  16.743  11.206   3.636
62853W        W28113  15.026  34.179   0.467
62854W        W28114  33.909  20.606  13.930
62855W        W28115   1.508  10.133  10.210
62856W        W28116   6.421  30.341  14.054
62857W        W28117  23.896  16.607  11.691
62858W        W28118  32.885  21.169   4.436
62859W        W28119  26.058  15.830   0.421
62860W        W28120  14.890  39.434   1.722
62861W        W28121  24.014  36.832   5.082
62862W        W28122   7.869   7.856  13.379
62863W        W28123  22.976  31.341   3.065
62864W        W28124  35.835   6.810  14.849
62865W        W28125  22.253  20.142   1.762
62866W        W28126  20.606  26.199   1.704
62867W        W28127  13.231  35.017   0.131
62868W        W28128  26.473   2.684  14.457
62869W        W28129  22.580  17.478   3.648
62870W        W28130  44.813   4.013  13.455
62871W        W28131  44.896  39.026  14.972
62872W        W28132  38.509  30.028   2.726
62873W        W28133  38.519  35.821   0.407
62874W        W28134  18.991   0.069  10.937
62875W        W28135  26.717  40.972   2.201
62876W        W28136  16.215   5.459  12.749
62877W        W28137  26.173   5.309   0.053
62878W        W28138  13.934  24.057   0.460
62879W        W28139  19.173  14.409  13.492
62880W        W28140   9.711  31.887  13.942
62881W        W28141  23.401  41.421   0.406
62882W        W28142  16.398   8.868  13.561
62883W        W28143   4.437  29.603  11.501
62884W        W28144  26.090  42.912  14.886
62885W        W28145  28.486  13.239  14.007
62886W        W28146  26.582  28.657   4.773
62887W        W28147  15.633   5.365   9.631
62888W        W28148  29.100  14.911   0.247
62889W        W28149  18.496  41.516  13.982
62890W        W28150   6.902  34.522  12.860
62891W        W28151  33.355  20.357  14.509
62892W        W28152  13.293  32.709  11.457
62893W        W28153  41.071   3.640  10.256
62894W        W28154   9.148  22.477   1.317
62895W        W28155  30.083  27.029  13.292
62896W        W28156  44.445  16.473  13.138
62897W        W28157  21.180  44.535   1.651
62898W        W28158  41.879  38.516   2.417
62899W        W28159  30.161  24.422   4.766
62900W        W28160  37.769  40.453   2.842
62901W        W28161  25.903  20.057   3.844
62902W        W28162  17.252  43.666   2.966
62903W        W28163  29.090  31.617   3.849
62904W        W28164  36.538  15.252  14.575
62905W        W28165   1.286  39.867  14.057
62906W        W28166   7.553  14.086   1.952
62907W        W28167   8.612  14.241  11.926
62908W        W28168  29.968  41.342  14.730
62909W        W28169  11.745  20.687   0.348
62910W        W28170  11.109  40.637  13.974
62911W        W28171  18.781  23.838   9.994
62912W        W28172  36.626   7.963  14.461
62913W        W28173  38.018  22.687  10.839
62914W        W28174  37.576  37.888  11.224
62915W        W28175  27.445  39.255   0.518
62916W        W28176   4.620  18.080   2.277
62917W        W28177  16.350  22.279  11.472
62918W        W28178  31.974   3.196  10.885
62919W        W28179  38.703  10.858   2.704
62920W        W28180  29.154  26.236  11.242
62921W        W28181  32.625  20.533  13.561
62922W        W28182  34.726  26.751  10.269
62923W        W28183  36.685   7.419  13.831
62924W        W28184  35.915  21.497  12.056
62925W        W28185  34.356  16.796  11.262
62926W        W28186  38.203  14.501  10.688
62927W        W28187  27.990  18.280   2.768
62928W        W28188   1.895  13.367  12.607
62929W        W28189  32.112  19.654  13.465
62930W        W28190  40.354  21.158   4.074
62931W        W28191  33.621  24.002   1.319
62932W        W28192  11.054  30.292   9.549
62933W        W28193   7.397  38.376  12.025
62934W        W28194  16.347  32.599  14.300
62935W        W28195  31.226  15.540   4.563
62936W        W28196  39.063   9.266  11.908
62937W        W28197   0.249  38.175   3.726
62938W        W28198  41.138  31.652   3.061
62939W        W28199  28.981  14.147  14.049
62940W        W28200  19.157  43.260   0.861
62941W        W28201  14.715  17.198  12.929
62942W        W28202  15.268   1.985   3.147
62943W        W28203   5.844   6.221   3.917
62944W        W28204  24.109  14.894  13.410
62945W        W28205  19.433  27.027   4.625
62946W        W28206  39.312  43.740   1.880
62947W        W28207   7.612  25.867   0.259
62948W        W28208   4.871  34.062  13.049
62949W        W28209  38.386  10.683   4.516
62950W        W28210  26.571   6.351   9.732
62951W        W28211   5.881   3.094   0.680
62952W        W28212   4.193  14.140   2.473
62953W        W28213  40.973   5.166  12.107
62954W        W28214  19.828  21.433  10.856
62955W        W28215  30.615  33.495   2.344
62956W        W28216  16.986  40.379  14.496
62957W        W28217  43.069  20.685  11.153
62958W        W28218  42.464  36.962   3.892
62959W        W28219  44.580  41.997   5.011
62960W        W28220  23.597   5.866   2.728
62961W        W28221  19.622  23.237  12.421
62962W        W28222  10.655  20.140  14.825
62963W        W28223  28.988   1.889   4.365
62964W        W28224  43.807  19.811  11.077
62965W        W28225   9.550  26.994  13.131
62966W        W28226   2.742  27.803  11.953
62967W        W28227  34.503   8.506   0.446
62968W        W28228   1.517  33.845   4.365
62969W        W28229   9.449  15.058  14.943
62970W        W28230  36.901   9.641   2.296
62971W        W28231  24.662  44.728  12.465
62972W        W28232  26.185  38.579   2.899
62973W        W28233  40.049  44.960  12.944
62974W        W28234  27.900  32.698  14.509
62975W        W28235  28.640  36.502   4.745
62976W        W28236  15.720  12.758   1.215
62977W        W28237  32.873  38.757   4.628
62978W        W28238  44.417  29.325  12.051
62979W        W28239  41.997  20.764   0.689
62980W        W28240  10.739  12.541  12.432
62981W        W28241  41.249  19.779  11.923
62982W        W28242  27.105  27.968   4.613
62983W        W28243   4.438  23.020  12.846
62984W        W28244  22.547  18.518  14.515
62985W        W28245  15.658   5.769   9.976
62986W        W28246  36.677   2.378   4.599
62987W        W28247  28.109  17.746  11.165
62988W        W28248  36.972   0.301   4.485
62989W        W28249  41.311  36.429  10.751
62990W        W28250   4.641   0.971   1.224
62991W        W28251   3.501   0.076   4.184
62992W        W28252   1.766  31.496   4.430
62993W        W28253  12.122  34.817   2.734
62994W        W28254  28.140  19.802   1.518
62995W        W28255  37.900  24.673   1.402
62996W        W28256  24.240  42.024  13.969
62997W        W28257   2.703  10.416  12.470
62998W        W28258  39.615   5.895  14.303
62999W        W28259  36.628   4.711  13.596
63000W        W28260  36.629  26.830   3.244
63001W        W28261  21.513  16.691  14.662
63002W        W28262   9.943  30.908   5.185
63003W        W28263  28.005   7.210  13.261
63004W        W28264   3.663   7.424   1.900
63005W        W28265  21.717   4.067  10.258
63006W        W28266   4.038  25.247  12.518
63007W        W28267  29.927  42.071   0.273
63008W        W28268   8.843   5.426  12.488
63009W        W28269   7.495  43.617   3.503
63010W        W28270  22.214   3.282  10.693
63011W        W28271  20.641  14.543  14.343
63012W        W28272  16.736  16.434   1.820
63013W        W28273  26.140  20.273  12.960
63014W        W28274  27.869  32.051   2.123
63015W        W28275  38.771  14.596  10.701
63016W        W28276  42.473  31.544  14.915
63017W        W28277   8.320  35.120   4.490
63018W        W28278   0.968  21.133  14.436
63019W        W28279  33.967  39.034   5.037
63020W        W28280   9.087  13.857   4.302
63021W        W28281  27.984   6.403   1.604
63022W        W28282   2.252  34.004   0.831
63023W        W28283  33.005  15.832  14.434
63024W        W28284  38.098  14.323   4.173
63025W        W28285  29.088   1.708   1.720
63026W        W28286  27.352  39.899  10.923
63027W        W28287  43.050   5.380  10.535
63028W        W28288   4.475  34.180  14.322
63029W        W28289  35.273  12.061  14.513
63030W        W28290  26.546  24.485   1.750
63031W        W28291  10.777  15.619   1.189
63032W        W28292  21.573  15.107   0.684
63033W        W28293  43.090   8.592   3.259
63034W        W28294  32.977  18.343  14.917
63035W        W28295  13.634  18.300   4.142
63036W        W28296  26.523  18.167  14.325
63037W        W28297   6.350   7.505   1.273
63038W        W28298  37.421  15.056  14.765
63039W        W28299  21.077   2.339   0.856
63040W        W28300  26.120  43.449  10.609
63041W        W28301   0.124  29.417   2.673
63042W        W28302  35.921  38.124  10.738
63043W        W28303   7.902  18.159  12.527
63044W        W28304  11.563  21.458   2.194
63045W        W28305  27.088   6.386   4.947
63046W        W28306  43.421  35.923   1.176
63047W        W28307  33.476  39.938  14.716
63048W        W28308   5.445  18.186   0.799
63049W        W28309   3.839  36.573   1.576
63050W        W28310   2.722  12.382  10.727
63051W        W28311  25.027  30.980  14.858
63052W        W28312  18.018  40.583   0.779
63053W        W28313   3.339  10.331   3.709
63054W        W28314   0.740  38.407   0.416
63055W        W28315  23.619  18.466  14.760
63056W        W28316  31.291  11.083   4.849
63057W        W28317  38.231  15.581  11.447
63058W        W28318   3.195  43.092  11.164
63059W        W28319  43.555   9.618  10.125
63060W        W28320   1.608  42.770   2.714
63061W        W28321  34.865  34.476  13.328
63062W        W28322  40.790  44.982   3.802
63063W        W28323  33.597   9.028   1.149
63064W        W28324  31.891  25.790   2.309
63065W        W28325  38.005  36.788   2.835
63066W        W28326   3.641  25.739   3.697
63067W        W28327  14.351  36.386   0.341
63068W        W28328  33.432  44.391   3.662
63069W        W28329  25.270  25.153   0.911
63070W        W28330   6.923  29.307   4.724
63071W        W28331  30.079  28.704  12.120
63072W        W28332  13.939  34.184   2.164
63073W        W28333  22.000  35.544   3.396
63074W        W28334  40.756  26.301  12.850
63075W        W28335  23.306  21.859  11.957
63076W        W28336   0.981  37.159   3.685
63077W        W28337  27.953  24.288   0.263
63078W        W28338  11.994  17.145   4.196
63079W        W28339   8.344  31.542   1.266
63080W        W28340   3.683  27.363  10.791
63081W        W28341   3.750  41.623  12.989
63082W        W28342  35.511  10.524  11.679
63083W        W28343  19.936  29.422   1.798
63084W        W28344  31.849  24.796  13.207
63085W        W28345  12.333  22.988   0.343
63086W        W28346  17.528  13.981   4.178
63087W        W28347   5.192  30.489   4.266
63088W        W28348  28.414   4.012   1.425
63089W        W28349   9.377   8.738  14.845
63090W        W28350  28.005  34.132   3.273
63091W        W28351  31.083  19.069  14.547
63092W        W28352   2.849  28.839  13.039
63093W        W28353  18.024  29.049  14.878
63094W        W28354  19.511  44.101  14.896
63095W        W28355  26.108  17.687   2.946
63096W        W28356  34.505  44.336  12.005
63097W        W28357  34.650  31.502  14.310
63098W        W28358  20.282  15.087   2.393
63099W        W28359  27.150   8.357  10.973
63100W        W28360  21.228  15.432   2.278
63101W        W28361  33.905   3.888  14.560
63102W        W28362  15.692  41.950  14.246
63103W        W28363  42.828  25.034   0.093
63104W        W28364  23.259  35.472   0.412
63105W        W28365   4.626  32.633   4.619
63106W        W28366  33.785  33.574   3.423
63107W        W28367   5.407  17.219   2.225
63108W        W28368  26.652  41.092   0.884
63109W        W28369   1.129  34.831   5.166
63110W        W28370  15.669  11.789   4.115
63111W        W28371  18.477  22.753   0.235
63112W        W28372  34.575  15.667   4.391
63113W        W28373   4.115   7.824   3.109
63114W        W28374  33.382  40.042  10.751
63115W        W28375  34.668  18.093  14.560
63116W        W28376  37.814  19.984   2.807
63117W        W28377  23.762   2.987   1.710
63118W        W28378  15.658  36.021   4.055
63119W        W28379  37.504   9.688  11.928
63120W        W28380   3.273  11.847  14.736
63121W        W28381  18.595  43.092  13.772
63122W        W28382  12.416  42.858   4.159
63123W        W28383  43.204  20.986   2.642
63124W        W28384  18.676  21.404  14.029
63125W        W28385  24.611   6.797   2.952
63126W        W28386  36.589  43.366   4.076
63127W        W28387  35.843   7.462  12.144
63128W        W28388  13.401   2.499   0.503
63129W        W28389  15.262  40.908  11.605
63130W        W28390   0.951   5.395  12.101
63131W        W28391  42.347  38.574   2.854
63132W        W28392  13.984   8.750  12.033
63133W        W28393   9.314  38.804  14.029
63134W        W28394  20.835  41.177  12.522
63135W        W28395  44.880  12.025   2.678
63136W        W28396  39.257  26.974  11.309
63137W        W28397  31.164  33.950   1.235
63138W        W28398  26.373  24.699   3.897
63139W        W28399  43.047  14.811   3.193
63140W        W28400  15.609  22.062   3.191
63141W        W28401  39.464   4.445  13.122
63142W        W28402   9.763  11.592  10.585
63143W        W28403  20.934   9.010   5.053
63144W        W28404  38.268   3.086   0.341
63145W        W28405  40.101  33.145   3.804
63146W        W28406  23.604   7.376  14.048
63147W        W28407   9.888  39.336  10.774
63148W        W28408   4.727  28.626   3.293
63149W        W28409  20.272  31.491  10.526
63150W        W28410   8.772  22.370   5.050
63151W        W28411  14.029  28.434  14.825
63152W        W28412  14.671  15.769   1.356
63153W        W28413   4.296  37.485   4.456
63154W        W28414  26.015   2.189  12.908
63155W        W28415   7.975  16.030   2.051
63156W        W28416   8.004  22.244  14.128
63157W        W28417  31.995  34.836  10.496
63158W        W28418   6.047  42.922  14.481
63159W        W28419  22.625  41.117   0.801
63160W        W28420  37.769  25.726   1.822
63161W        W28421  26.780   6.722  13.817
63162W        W28422  25.337  27.555  13.278
63163W        W28423  11.921   7.597  14.514
63164W        W28424  22.238   1.012   1.132
63165W        W28425  25.964  26.950   3.737
63166W        W28426  22.867  43.362   3.219
63167W        W28427  29.024  37.905   4.791
63168W        W28428  39.295  41.068   1.271
63169W        W28429  40.313  19.593   2.267
63170W        W28430  37.498  16.557  10.701
63171W        W28431  38.012   0.387  11.845
63172W        W28432   0.010  12.280  13.034
63173W        W28433  42.430  20.256   3.895
63174W        W28434   4.236  39.298  11.216
63175W        W28435  22.431   3.776  11.840
63176W        W28436  13.154   1.190   4.645
63177W        W28437  39.261  15.735   4.140
63178W        W28438   8.349  10.752   1.284
63179W        W28439  43.908  10.704   0.572
63180W        W28440  28.488  44.777   2.765
63181W        W28441  35.113  12.193   4.405
63182W        W28442   9.153   6.994  11.081
63183W        W28443  26.965   8.749  12.416
63184W        W28444  40.280   3.162  12.787
63185W        W28445  33.819  12.709   1.911
63186W        W28446  41.791  35.494  14.791
63187W        W28447  29.518  15.726  13.028
63188W        W28448  29.050  39.948  14.309
63189W        W28449  14.576  25.134  12.091
63190W        W28450  34.395   1.391  12.974
63191W        W28451  11.654  28.139   0.429
63192W        W28452  22.659   8.898  12.924
63193W        W28453  15.571   9.633  12.034
63194W        W28454  34.442  24.651  11.519
63195W        W28455   9.225  34.868   2.629
63196W        W28456  43.691   1.204  13.613
63197W        W28457  30.691   1.130   4.110
63198W        W28458  33.383  29.025  11.480
63199W        W28459  13.212  17.046  13.012
63200W        W28460  29.425  21.956   4.157
63201W        W28461  33.500  35.008   0.247
63202W        W28462   1.207  41.972  11.041
63203W        W28463   5.731  13.663   1.690
63204W        W28464  25.262  39.089   4.260
63205W        W28465  10.741  21.803  12.414
63206W        W28466   3.291  31.896  13.825
63207W        W28467  31.698  18.850  14.036
63208W        W28468  35.968  19.137   0.294
63209W        W28469  28.254  24.569   3.681
63210W        W28470   2.721  34.072  10.328
63211W        W28471  42.857  30.036  10.581
63212W        W28472  26.764  16.058   3.335
63213W        W28473   6.858  24.653   1.660
63214W        W28474  37.402   3.182   1.881
63215W        W28475  24.245  39.609   4.064
63216W        W28476  24.016  35.506   3.060
63217W        W28477   5.127  39.409  11.191
63218W        W28478  44.811  35.428  14.840
63219W        W28479   1.999  13.797   0.361
63220W        W28480  30.121  29.357  13.916
63221W        W28481  36.124   8.366   3.041
63222W        W28482  22.220   8.673  11.565
63223W        W28483  36.425  32.694   4.555
63224W        W28484   3.947  25.435   0.333
63225W        W28485   8.429   1.422   2.185
63226W        W28486  35.067   7.418  12.136
63227W        W28487  29.035  28.429  12.542
63228W        W28488   8.096   9.479  12.951
63229W        W28489   6.787  11.932  13.501
63230W        W28490  33.784  14.662  12.328
63231W        W28491   2.781  43.725  11.954
63232W        W28492  24.058  38.574   2.356
63233W        W28493  12.314  15.686   1.369
63234W        W28494  19.644  41.116  10.520
63235W        W28495   5.073   0.703   3.533
63236W        W28496   8.201  30.183  14.288
63237W        W28497  26.584   2.554  10.016
63238W        W28498  42.562  25.448   4.198
63239W        W28499   5.864  25.210  12.103
63240W        W28500  28.458  16.866   3.046
63241W        W28501  15.787  29.173   0.033
63242W        W28502  36.626  10.351  11.106
63243W        W28503  39.096  29.612   2.418
63244W        W28504  24.729  36.986  13.463
63245W        W28505  21.063  37.887   3.783
63246W        W28506  36.686  38.422  13.476
63247W        W28507  33.035   7.794   1.116
63248W        W28508  35.833   4.802   2.295
63249W        W28509   0.097  33.108   3.257
63250W        W28510  29.648  38.062  14.436
63251W        W28511  43.489  38.851   0.869
63252W        W28512  29.699  17.320  12.856
63253W        W28513  19.254  14.521   4.587
63254W        W28514  15.246  23.562   3.633
63255W        W28515  15.727  18.247   3.178
63256W        W28516   0.914  29.200   0.889
63257W        W28517  39.598   8.234   2.837
63258W        W28518  30.926  40.768  13.475
63259W        W28519  43.617   6.928   1.688
63260W        W28520  16.165  33.971   3.602
63261W        W28521  35.769   6.653   0.897
63262W        W28522  32.884   7.607   3.317
63263W        W28523  44.412  16.033  13.393
63264W        W28524  33.209   3.516  11.985
63265W        W28525  30.757  26.213  12.502
63266W        W28526  16.976  43.982  10.422
63267W        W28527   1.276  41.467  11.122
63268W        W28528  26.240  21.548   0.051
63269W        W28529   4.722  27.677  13.459
63270W        W28530  29.628  40.456   4.064
63271W        W28531  34.858  20.146  10.579
63272W        W28532  43.567  25.567  13.445
63273W        W28533  12.138   8.433   3.855
63274W        W28534  36.099  17.082  11.088
63275W        W28535  32.624  32.288  10.591
63276W        W28536  33.530  21.325  12.860
63277W        W28537  15.677  20.477   0.472
63278W        W28538   7.869  10.842  12.473
63279W        W28539  32.710  27.738  13.916
63280W        W28540  43.911   9.165   2.828
63281W        W28541  16.870  20.350  12.597
63282W        W28542  25.796  25.909   2.874
63283W        W28543  23.549  31.075  10.783
63284W        W28544  44.054  40.820  14.960
63285W        W28545  31.881  31.707   4.072
63286W        W28546  44.531  30.068  14.813
63287W        W28547  24.905  41.166  13.843
63288W        W28548  29.928  17.818  10.725
63289W        W28549  32.590  33.582   4.426
63290W        W28550  27.965  36.959  13.390
63291W        W28551  31.409  35.103  13.955
63292W        W28552   9.609  10.309  12.458
63293W        W28553  37.786   2.367   5.597
63294W        W28554  32.224  32.961   1.822
63295W        W28555   0.551  17.002   4.373
63296W        W28556  12.491   3.103  11.249
63297W        W28557  16.062  28.212   4.576
63298W        W28558  19.668   5.803   3.136
63299W        W28559  30.626  14.856   1.403
63300W        W28560  18.218  25.547  12.781
63301W        W28561   0.781  34.305  11.138
63302W        W28562  14.286  12.848   4.780
63303W        W28563  11.650  44.796  12.412
63304W        W28564  13.838  38.858   1.318
63305W        W28565  34.506  11.350  13.484
63306W        W28566  18.846  29.388  14.879
63307W        W28567   4.167  33.854  12.466
63308W        W28568  15.986  29.554  13.781
63309W        W28569   3.200  38.957   3.379
63310W        W28570   2.927  34.112   3.562
63311W        W28571  25.754  24.572   2.186
63312W        W28572  19.056   8.147   2.002
63313W        W28573  14.788   6.651   3.259
63314W        W28574  17.264  14.045   0.837
63315W        W28575  41.496   9.375   4.072
63316W        W28576  15.866  33.069  11.156
63317W        W28577  37.351   4.152   4.127
63318W        W28578  15.350  15.191  12.159
63319W        W28579  21.621  30.601   4.516
63320W        W28580  13.604  40.515  13.485
63321W        W28581  40.398  42.088   3.269
63322W        W28582   6.449  32.607  13.594
63323W        W28583  16.284   6.788   0.994
63324W        W28584   8.215  16.209  12.060
63325W        W28585  23.508   1.316  10.723
63326W        W28586  23.932   9.764  11.459
63327W        W28587  39.840  31.533  12.554
63328W        W28588  16.978  28.625   1.181
63329W        W28589  19.680  25.681  10.472
63330W        W28590  40.947  26.522   0.994
63331W        W28591  25.087  14.349   2.864
63332W        W28592  30.660  43.910   4.681
63333W        W28593  17.562  31.561  10.947
63334W        W28594  34.904  31.047  14.869
63335W        W28595  32.518  14.896  12.177
63336W        W28596   2.202  33.364  13.985
63337W        W28597  15.829  37.538  10.728
63338W        W28598  17.600  41.066  10.684
63339W        W28599  26.176  29.653  13.658
63340W        W28600  18.346  13.368   0.451
63341W        W28601  23.633  24.665  10.476
63342W        W28602  12.242  23.150  11.615
63343W        W28603  43.213  44.761  11.705
63344W        W28604  11.367  38.084  11.178
63345W        W28605  44.527  35.090   2.504
63346W        W28606  42.303  33.106  13.665
63347W        W28607  32.309  37.587   1.274
63348W        W28608  36.371   8.787   4.704
63349W        W28609  12.707  32.394   1.791
63350W        W28610  25.632  43.644   2.808
63351W        W28611   9.511  43.865   3.355
63352W        W28612  32.524  14.849   3.639
63353W        W28613   2.883  33.195   0.836
63354W        W28614  31.026  27.672  11.524
63355W        W28615  43.544  33.115  14.797
63356W        W28616  19.582  33.073  14.172
63357W        W28617  35.263   1.994   3.691
63358W        W28618  26.862  14.113   1.821
63359W        W28619  29.428  41.408   2.345
63360W        W28620  33.658  35.966   3.440
63361W        W28621  38.476  37.655   0.348
63362W        W28622   4.154  10.712   2.642
63363W        W28623  30.605  25.164   2.638
63364W        W28624  19.086   0.979   4.458
63365W        W28625   4.443  14.042  13.731
63366W        W28626   8.325   9.811   3.645
63367W        W28627  19.696  36.877  13.938
63368W        W28628   7.693   2.752  11.809
63369W        W28629  28.660  18.802   0.839
63370W        W28630  17.273   7.184   3.762
63371W        W28631   6.317   3.701   2.105
63372W        W28632  12.779  23.844   3.163
63373W        W28633  41.808  29.974  10.626
63374W        W28634  39.458  41.938   4.411
63375W        W28635  21.417   8.246  14.000
63376W        W28636  23.163  40.554  12.451
63377W        W28637  12.585  32.499  13.449
63378W        W28638   6.270  14.945   2.312
63379W        W28639  15.777  12.335  11.943
63380W        W28640   1.887  21.703   2.855
63381W        W28641  42.939  44.976   3.401
63382W        W28642  20.774  13.565   2.797
63383W        W28643  35.291  26.244   9.805
63384W        W28644  34.839  44.318  14.315
63385W        W28645   3.944  13.988   4.246
63386W        W28646  43.012  27.779   2.232
63387W        W28647  28.272  42.967  14.401
63388W        W28648   0.735  16.256  14.026
63389W        W28649  35.184  30.605   4.092
63390W        W28650   5.720  41.007   0.816
63391W        W28651  18.315  15.694  12.060
63392W        W28652  14.039  33.548   3.255
63393W        W28653  35.372   0.553   3.664
63394W        W28654   7.026  38.905   4.072
63395W        W28655  12.332  34.858  13.637
63396W        W28656  32.036  13.595  13.047
63397W        W28657  19.113  10.833   0.317
63398W        W28658  11.706  38.855   2.715
63399W        W28659  33.634  44.131   3.274
63400W        W28660   9.760  11.402  11.052
63401W        W28661  14.051   9.311  12.918
63402W        W28662   3.985  27.491  14.436
63403W        W28663  26.102  22.886  13.396
63404W        W28664  43.288  26.002  13.503
63405W        W28665  43.989  21.599   1.266
63406W        W28666  26.197  14.372  10.748
63407W        W28667  29.189  44.393  14.748
63408W        W28668  26.577  37.817   3.304
63409W        W28669  28.299  42.951  12.435
63410W        W28670  24.139  38.244   1.736
63411W        W28671   6.713   5.452   2.336
63412W        W28672  34.919  43.834  14.540
63413W        W28673  10.088  39.824   2.873
63414W        W28674   0.575   1.201   4.223
63415W        W28675  12.478  19.320   0.343
63416W        W28676  25.950  29.845  10.618
63417W        W28677   6.311  27.685   2.366
63418W        W28678   0.834  22.281   1.680
63419W        W28679  28.932   7.159   2.777
63420W        W28680   4.057   1.347   4.656
63421W        W28681  12.399  21.752  12.527
63422W        W28682   7.778  35.767  11.112
63423W        W28683  28.830  14.034   3.222
63424W        W28684  21.366  14.486   2.147
63425W        W28685  18.079  25.131   0.241
63426W        W28686  33.233  40.857  13.691
63427W        W28687  12.527  38.529  11.564
63428W        W28688   1.763  43.993  11.689
63429W        W28689  37.062  37.795   0.335
63430W        W28690  14.674  21.452  13.935
63431W        W28691  40.652   3.989   4.996
63432W        W28692   0.731  40.799  13.057
63433W        W28693  43.527   9.498  10.618
63434W        W28694  29.723   1.267  11.511
63435W        W28695  30.683  36.842   2.762
63436W        W28696   7.237  12.199   3.299
63437W        W28697  14.612  36.340  12.859
63438W        W28698   6.600  28.139  13.590
63439W        W28699  34.850   4.961  11.954
63440W        W28700   7.193  26.520  11.346
63441W        W28701  37.939  18.556  14.767
63442W        W28702  14.079   8.675   4.665
63443W        W28703  29.151  31.179   2.215
63444W        W28704  16.679  27.849   1.509
63445W        W28705  24.637  39.514   3.722
63446W        W28706   4.077  22.554   4.307
63447W        W28707  40.422  32.628   3.155
63448W        W28708  20.084  12.863  11.917
63449W        W28709  26.479  43.830   1.441
63450W        W28710  18.267  21.975   5.474
63451W        W28711  24.599  15.821   3.766
63452W        W28712  41.936   6.189  11.103
63453W        W28713   4.488  26.070   3.228
63454W        W28714  31.665   8.581   1.468
63455W        W28715  20.017  28.893   3.879
63456W        W28716  12.176  24.220  12.511
63457W        W28717  29.832  21.527   4.248
63458W        W28718  10.490  43.101  13.390
63459W        W28719  13.844  44.343  13.393
63460W        W28720  40.854  39.042   9.944
63461W        W28721  32.582  31.077  11.067
63462W        W28722   5.901   1.435   2.165
63463W        W28723   0.832  16.144   1.691
63464W        W28724   4.709   2.374  12.503
63465W        W28725  10.399   2.661  11.180
63466W        W28726  35.985  17.555   3.487
63467W        W28727  11.476  28.145  14.788
63468W        W28728  14.244  31.594  12.853
63469W        W28729  43.723  40.371   2.874
63470W        W28730  40.725  31.416  10.770
63471W        W28731   5.806  27.422   3.974
63472W        W28732  34.177   9.458  12.889
63473W        W28733  30.573  15.740  10.606
63474W        W28734  37.601  43.337   1.016
63475W        W28735  19.331  41.864  11.623
63476W        W28736  14.778  38.276  12.485
63477W        W28737  10.129  17.828  10.717
63478W        W28738   9.892  24.042   1.385
63479W        W28739   9.235   7.394   1.345
63480W        W28740  16.080  37.705   3.666
63481W        W28741  22.624  10.359   2.836
63482W        W28742  34.127  44.796  10.692
63483W        W28743   1.075   0.810   2.679
63484W        W28744  12.011  41.363  12.928
63485W        W28745   2.767  16.711  11.262
63486W        W28746  11.611   1.582   2.629
63487W        W28747  11.764  21.230   2.730
63488W        W28748  15.956  14.893  11.648
63489W        W28749  19.766   7.792   1.101
63490W        W28750  39.433  26.515  14.964
63491W        W28751  25.088  27.962   1.448
63492W        W28752  25.471  11.391  12.110
63493W        W28753  25.926  37.657   2.325
63494W        W28754   3.781   0.341   4.555
63495W        W28755  28.648  30.471  14.471
63496W        W28756  40.767  24.201  11.917
63497W        W28757  17.642  15.273  13.966
63498W        W28758   6.770  30.089   1.780
63499W        W28759  40.549  42.905  13.798
63500W        W28760   3.795  26.899   1.680
63501W        W28761   7.706  39.955  12.900
63502W        W28762  35.824  25.731   2.830
63503W        W28763  27.858   2.510  12.998
63504W        W28764  30.079  13.947  13.462
63505W        W28765  16.085  29.302  11.557
63506W        W28766  38.893   6.446   1.781
63507W        W28767  39.550  32.169  11.572
63508W        W28768  13.077  27.471  12.913
63509W        W28769  28.518   2.858   2.113
63510W        W28770  23.262  34.447  11.568
63511W        W28771  25.758   7.393  14.522
63512W        W28772  41.239  41.840  13.243
63513W        W28773  30.049  17.062   1.994
63514W        W28774  12.566   3.611  11.163
63515W        W28775   0.802   2.519   1.855
63516W        W28776  44.590   2.953   3.248
63517W        W28777  34.509   5.226   4.516
63518W        W28778  34.440   6.218   4.592
63519W        W28779  29.508  33.438  14.801
63520W        W28780  40.201  36.944   1.785
63521W        W28781  25.965  39.285  13.460
63522W        W28782  32.580  32.628  14.831
63523W        W28783  22.167   0.404   2.221
63524W        W28784  42.896   0.431   4.790
63525W        W28785  35.131  31.066  12.626
63526W        W28786  20.302  42.397   0.778
63527W        W28787  29.648  37.963   0.218
63528W        W28788  26.673   8.862  12.981
63529W        W28789  35.554   8.448   4.526
63530W        W28790  18.716   4.842  13.702
63531W        W28791  24.588  22.637  14.912
63532W        W28792   5.825  18.743   1.428
63533W        W28793  39.319  34.974  10.811
63534W        W28794   4.692  40.491   0.206
63535W        W28795  20.751  43.721  13.078
63536W        W28796  33.253   9.184   2.059
63537W        W28797  21.623  18.592  14.488
63538W        W28798  24.021  13.178  14.956
63539W        W28799  13.866  42.274  11.072
63540W        W28800   5.717  41.520  14.013
63541W        W28801  27.761   0.419   0.332
63542W        W28802  16.261  14.495   4.468
63543W        W28803  19.636  42.946  11.922
63544W        W28804  12.636   4.381   1.873
63545W        W28805  40.011  28.612  14.944
63546W        W28806   9.301  37.969  13.212
63547W        W28807   7.175  26.446   1.948
63548W        W28808  32.776  20.725   3.408
63549W        W28809  32.022  24.250  14.423
63550W        W28810  21.315  35.356   2.858
63551W        W28811   3.892  10.682   4.376
63552W        W28812  16.165  23.118   4.238
63553W        W28813  35.515   1.050  12.904
63554W        W28814  21.625  12.305   0.566
63555W        W28815  33.036   2.075  14.529
63556W        W28816  43.230   4.453   0.354
63557W        W28817  21.789  21.729  10.771
63558W        W28818  39.893  21.458   0.959
63559W        W28819  37.017   2.206   2.301
63560W        W28820  43.337  10.908  13.031
63561W        W28821   5.016   0.481  14.169
63562W        W28822  41.371  29.164  13.756
63563W        W28823  21.102   9.286   4.671
63564W        W28824  13.359  20.088   4.671
63565W        W28825  25.244  37.202  10.577
63566W        W28826   3.268  36.083  11.732
63567W        W28827  20.232   5.931   0.381
63568W        W28828  37.315  16.760  13.911
63569W        W28829  30.622  35.620   1.587
63570W        W28830  15.252  39.432  12.934
63571W        W28831  38.591  30.162  12.074
63572W        W28832   7.974   2.355  13.297
63573W        W28833  15.424  27.829   3.684
63574W        W28834  43.436  14.834  14.698
63575W        W28835  11.608  39.081   0.991
63576W        W28836  10.484  34.448   4.033
63577W        W28837  30.157   2.363   0.993
63578W        W28838  14.750  12.669  11.033
63579W        W28839   3.066  24.402   5.460
63580W        W28840  19.087  26.666  14.570
63581W        W28841   9.199   2.347   1.706
63582W        W28842  40.401  30.459  14.912
63583W        W28843   5.180   0.096  12.103
63584W        W28844  26.585  33.036  10.832
63585W        W28845   2.490  35.685  11.179
63586W        W28846   0.968  33.614   4.069
63587W        W28847  15.682  15.017  12.924
63588W        W28848  20.710  18.069  10.675
63589W        W28849  37.501  13.077   2.428
63590W        W28850   4.826  25.202   3.742
63591W        W28851   0.741  37.082  14.876
63592W        W28852   6.838  37.454   2.109
63593W        W28853  41.239  29.425  10.898
63594W        W28854   9.595  32.567   4.665
63595W        W28855  40.283  36.708   3.262
63596W        W28856  34.546   3.167   2.879
63597W        W28857   0.272  43.405   3.853
63598W        W28858  16.027  43.291  12.405
63599W        W28859   0.677  35.147   3.217
63600W        W28860  33.419  24.741   1.775
63601W        W28861  18.115  23.033   1.474
63602W        W28862  20.089  19.567   1.908
63603W        W28863   0.439  22.737   2.842
63604W        W28864  19.392  16.905   0.008
63605W        W28865  16.077  31.716  13.360
63606W        W28866   2.522  12.556  14.298
63607W        W28867   1.941  30.885  12.529
63608W        W28868  17.760  26.428  12.352
63609W        W28869  30.771   8.048  11.401
63610W        W28870  31.966   1.782  10.159
63611W        W28871  21.673   4.262  14.377
63612W        W28872   7.664   8.859  14.868
63613W        W28873   3.871  13.271   1.184
63614W        W28874   7.003   6.747   2.084
63615W        W28875  42.040  23.812   4.607
63616W        W28876   7.251  23.921   4.520
63617W        W28877  14.242  42.923  10.788
63618W        W28878  41.043  13.702   1.385
63619W        W28879  32.310  23.169   4.514
63620W        W28880  40.748  27.141   4.618
63621W        W28881  17.240   8.923  13.972
63622W        W28882   7.853  13.075   3.146
63623W        W28883  34.322   1.682  10.705
63624W        W28884   3.231  29.249   1.906
63625W        W28885  32.471  26.423   4.481
63626W        W28886   4.187   6.121  11.980
63627W        W28887  26.199  37.396   0.873
63628W        W28888  38.479  14.585  11.545
63629W        W28889  14.606  26.870   0.899
63630W        W28890  25.068   2.286   3.456
63631W        W28891  44.522  38.887   2.980
63632W        W28892   0.379  39.841  10.712
63633W        W28893   1.441  27.979  10.209
63634W        W28894   3.849  29.851   2.015
63635W        W28895   0.384  14.540   3.662
63636W        W28896  35.896  44.993   2.376
63637W        W28897  36.024  44.559   4.197
63638W        W28898  31.505  11.398   1.378
63639W        W28899  36.442  39.223   1.889
63640W        W28900  41.361  15.727  12.514
63641W        W28901  40.674  13.648  13.036
63642W        W28902  11.220  43.357   1.262
63643W        W28903  28.121  29.951   4.188
63644W        W28904  14.588  18.468  11.496
63645W        W28905  15.759   8.635   0.859
63646W        W28906  32.899  12.664  13.936
63647W        W28907  12.879  30.149   0.852
63648W        W28908  30.701  21.715  14.958
63649W        W28909   9.763  32.104   1.330
63650W        W28910  10.281  10.914  10.467
63651W        W28911  42.447  29.157   1.197
63652W        W28912  27.160  37.438  13.018
63653W        W28913   6.455  37.284  12.334
63654W        W28914  10.647   6.572   2.711
63655W        W28915  27.847  21.045   4.510
63656W        W28916  40.822   5.579  11.152
63657W        W28917  20.049  36.364   2.244
63658W        W28918  31.664  15.184  10.715
63659W        W28919  31.338  15.605   2.669
63660W        W28920  24.471  15.312   3.761
63661W        W28921  17.123  23.649  10.673
63662W        W28922  21.489  36.562   0.590
63663W        W28923  11.159  34.357  10.987
63664W        W28924  32.772  15.235   3.409
63665W        W28925  33.387  32.142   4.576
63666W        W28926  28.966  40.519   1.860
63667W        W28927  24.154  18.161   0.418
63668W        W28928  41.855  42.028  10.793
63669W        W28929  16.959  38.529   0.828
63670W        W28930   3.351  21.729   1.355
63671W        W28931  31.305  44.403   2.720
63672W        W28932   6.812  36.471   0.818
63673W        W28933  29.209   1.301  10.685
63674W        W28934   9.359  28.884  14.865
63675W        W28935   3.309  27.780  10.720
63676W        W28936  23.720  17.483  14.987
63677W        W28937  25.736  24.976   3.358
63678W        W28938   0.788   8.653   3.661
63679W        W28939   6.453   0.737   4.648
63680W        W28940  13.540  26.182   2.473
63681W        W28941  13.754   9.097  13.620
63682W        W28942  19.103  18.012   3.868
63683W        W28943  43.740   0.428   2.636
63684W        W28944  28.266  16.696   4.903
63685W        W28945   6.344  15.327  12.999
63686W        W28946   6.901   8.643  11.211
63687W        W28947  36.820   6.300  12.054
63688W        W28948  17.985  32.722   1.496
63689W        W28949  23.226  27.850  13.276
63690W        W28950  36.984  30.367  10.776
63691W        W28951  37.515  30.935   1.336
63692W        W28952  38.591  32.135   4.487
63693W        W28953  27.587   7.469  13.796
63694W        W28954  26.634  36.572  11.369
63695W        W28955   0.282   3.987  13.703
63696W        W28956  24.138   4.682   2.604
63697W        W28957  29.206  37.517  12.981
63698W        W28958  35.151  22.742   5.085
63699W        W28959  19.857  13.874   2.887
63700W        W28960  39.953  28.148   0.713
63701W        W28961  25.530  38.426   0.411
63702W        W28962  14.585  24.184  11.124
63703W        W28963  30.554  33.426   3.795
63704W        W28964   4.247   7.478  14.739
63705W        W28965  21.086  39.824  14.457
63706W        W28966  25.486  24.065  12.872
63707W        W28967  36.892   7.232   0.450
63708W        W28968  13.562  38.678  10.349
63709W        W28969   8.034  28.190  12.617
63710W        W28970  24.577  44.999  13.539
63711W        W28971  32.155  37.405  14.724
63712W        W28972  17.779  39.923   1.863
63713W        W28973   2.791  42.220   4.090
63714W        W28974  13.714  37.867  11.188
63715W        W28975  14.303  26.702  13.096
63716W        W28976  11.741  19.022   1.828
63717W        W28977  40.254  42.994   1.946
63718W        W28978  18.767  38.944  10.671
63719W        W28979   2.715  19.749  13.418
63720W        W28980  33.446  15.664  12.897
63721W        W28981  24.592  28.038   1.254
63722W        W28982  12.715  30.895  14.411
63723W        W28983  21.716   7.476  13.369
63724W        W28984  35.155  11.028   0.959
63725W        W28985  36.070  19.994  14.900
63726W        W28986  11.183   1.272   2.627
63727W        W28987  20.993  12.183  12.478
63728W        W28988  22.213  30.551   0.829
63729W        W28989  12.101  10.901  14.224
63730W        W28990  29.150   4.222  14.345
63731W        W28991  37.420  33.677  10.808
63732W        W28992  23.578  29.942  13.941
63733W        W28993   8.744  29.379   0.971
63734W        W28994   3.223  31.965   1.644
63735W        W28995  15.993   1.974  10.432
63736W        W28996  11.891   4.469  10.418
63737W        W28997  44.217  26.611   1.834
63738W        W28998  19.405   0.959   4.887
63739W        W28999  26.435  30.598  13.788
63740W        W29000  40.907   7.759  12.639
63741W        W29001   7.286   4.395  13.052
63742W        W29002  43.887  35.021   1.136
63743W        W29003  34.692  21.653  14.035
63744W        W29004  14.067   7.932  13.698
63745W        W29005  31.691  11.209  10.510
63746W        W29006   1.528  42.013   2.195
63747W        W29007  33.511  27.617   0.753
63748W        W29008  21.630  19.515  13.357
63749W        W29009  44.485  33.470   4.664
63750W        W29010  18.293  44.984   2.710
63751W        W29011   2.786  14.851   3.978
63752W        W29012  36.745  42.020   4.242
63753W        W29013  44.810  37.032   3.177
63754W        W29014  21.124  36.353   2.922
63755W        W29015   9.128  32.268   3.417
63756W        W29016  44.804  23.705   3.510
63757W        W29017  40.246  40.793  12.415
63758W        W29018  20.091  32.089   5.173
63759W        W29019   5.229  12.390  13.908
63760W        W29020  12.557  14.354  14.311
63761W        W29021  33.461  11.438   2.288
63762W        W29022  11.211  29.073   3.732
63763W        W29023  39.555  41.938  11.094
63764W        W29024   4.317  16.134   2.589
63765W        W29025   8.421  18.949   0.028
63766W        W29026  35.535  42.128  11.803
63767W        W29027  32.165   1.301  12.465
63768W        W29028  34.373  10.558  14.352
63769W        W29029  21.385  11.313   0.313
63770W        W29030  30.866  44.038  12.154
63771W        W29031  37.371  40.372   1.889
63772W        W29032  25.494  24.586   2.646
63773W        W29033   4.210   0.265  11.046
63774W        W29034  11.329   7.452  14.526
63775W        W29035  19.811   4.856  14.723
63776W        W29036  43.200   7.629  11.904
63777W        W29037   8.842  24.106   2.819
63778W        W29038  14.350   0.509  12.099
63779W        W29039  22.239  27.113  14.958
63780W        W29040   7.848  10.643  13.455
63781W        W29041  43.799  36.983  14.918
63782W        W29042  27.059  32.426   3.848
63783W        W29043  21.425  29.127  12.427
63784W        W29044  24.083   3.145   4.080
63785W        W29045   7.598  26.149  12.632
63786W        W29046  42.797  17.120   1.717
63787W        W29047  44.550  32.937   2.441
63788W        W29048   8.893  38.497  14.014
63789W        W29049  13.776  41.745   1.234
63790W        W29050  14.779  23.256   4.159
63791W        W29051  16.348  32.866  13.863
63792W        W29052  25.580  21.017   3.707
63793W        W29053  41.584  10.485   4.145
63794W        W29054   6.217  32.917   3.636
63795W        W29055  22.664  39.616   3.279
63796W        W29056  21.764  24.685   3.733
63797W        W29057  38.851   1.429  13.955
63798W        W29058  37.543  36.919   4.301
63799W        W29059  28.137   0.461   0.929
63800W        W29060  36.931  16.842  11.397
63801W        W29061  30.933  23.772  11.262
63802W        W29062  20.881  32.949   1.301
63803W        W29063  17.740  12.724   0.798
63804W        W29064  10.682  28.145  12.383
63805W        W29065  21.529   7.077   4.214
63806W        W29066  11.338  19.925  10.988
63807W        W29067  39.575  44.438   0.929
63808W        W29068  40.064  28.901   1.282
63809W        W29069  21.767   5.120  12.767
63810W        W29070   1.709  10.900   0.480
63811W        W29071  28.665  31.427   1.439
63812W        W29072   3.290   5.504   3.578
63813W        W29073  36.942   7.738   4.636
63814W        W29074  27.637  42.053   0.914
63815W        W29075  31.072  17.585   4.521
63816W        W29076   7.185  36.481   4.201
63817W        W29077   7.670  13.242   4.014
63818W        W29078  39.642  14.384   2.230
63819W        W29079  16.175  23.598   2.133
63820W        W29080  33.369  44.025  13.345
63821W        W29081  17.221  13.626   2.363
63822W        W29082  27.652  39.542  13.007
63823W        W29083  34.995   0.899  12.540
63824W        W29084   0.622  22.535  12.481
63825W        W29085  11.160   7.204   1.270
63826W        W29086  41.278   7.867  11.076
63827W        W29087  43.449  21.542  11.446
63828W        W29088  36.602   0.883   3.323
63829W        W29089   1.697  27.121  13.058
63830W        W29090  44.007  20.494  13.943
63831W        W29091  12.400  38.582  14.930
63832W        W29092   7.574  17.699   2.016
63833W        W29093   5.828  35.176   3.774
63834W        W29094  34.581  41.014  12.056
63835W        W29095  20.050   0.789   0.409
63836W        W29096  41.739   8.054  11.198
63837W        W29097  42.764  30.331   4.346
63838W        W29098  31.177  17.949   0.291
63839W        W29099   1.249  21.315  13.885
63840W        W29100  21.482  22.263  13.010
63841W        W29101  11.632  42.375  14.953
63842W        W29102   6.196  43.891   3.729
63843W        W29103  25.346  17.905   4.092
63844W        W29104  39.097  37.186   4.620
63845W        W29105  26.743  35.547  10.742
63846W        W29106   6.375  40.567   4.626
63847W        W29107   8.271  37.529   2.247
63848W        W29108  33.608  41.418   3.569
63849W        W29109  11.347  41.913  14.911
63850W        W29110   4.390   3.428   4.621
63851W        W29111  39.794  39.581  10.739
63852W        W29112   6.109   3.223   1.931
63853W        W29113  37.064  15.340   4.176
63854W        W29114   8.069  30.661   1.525
63855W        W29115   3.914  22.096   0.253
63856W        W29116  35.963  32.840   3.278
63857W        W29117  33.710  33.588   0.368
63858W        W29118  22.923  30.888   1.758
63859W        W29119  20.895  21.003  11.645
63860W        W29120  25.180   8.275  12.555
63861W        W29121  42.485  21.062  13.452
63862W        W29122  27.482  10.196  13.044
63863W        W29123  23.169   4.134  14.725
63864W        W29124  26.446   0.324  11.481
63865W        W29125  35.998  31.974   3.171
63866W        W29126  15.332  35.563  12.027
63867W        W29127  15.605  24.761  12.884
63868W        W29128   9.092  24.385   4.546
63869W        W29129  10.729  33.990  11.675
63870W        W29130   0.800   7.660   0.468
63871W        W29131  43.145  11.090  13.998
63872W        W29132  20.820  18.265  13.507
63873W        W29133   7.689  25.914   4.068
63874W        W29134   1.941  16.738  13.097
63875W        W29135  14.788  22.992  11.480
63876W        W29136  14.799  24.002  11.564
63877W        W29137  35.613   7.181   0.831
63878W        W29138   8.253   2.344  14.165
63879W        W29139  22.679  18.046  12.366
63880W        W29140  33.849   5.075   2.310
63881W        W29141  35.537  23.214   1.568
63882W        W29142  27.011  37.568  12.505
63883W        W29143  31.010  19.155   0.055
63884W        W29144   3.714  15.630   3.578
63885W        W29145  41.488   9.342  14.866
63886W        W29146  15.252  39.154  12.510
63887W        W29147  18.192  13.769   4.653
63888W        W29148   9.853  36.513  12.678
63889W        W29149   0.018  38.006   3.294
63890W        W29150   9.116  19.663  11.631
63891W        W29151  26.025  33.364   2.263
63892W        W29152  22.201   1.778   0.771
63893W        W29153  22.988   6.868   0.260
63894W        W29154  27.214  13.900   3.687
63895W        W29155  14.370  20.102   4.024
63896W        W29156  21.998  43.295  11.023
63897W        W29157  33.503  19.532   3.263
63898W        W29158   6.245   7.159   1.677
63899W        W29159  30.403  15.584  11.065
63900W        W29160  29.864  11.155  14.907
63901W        W29161  30.936   8.343  12.367
63902W        W29162  11.175  14.088  14.539
63903W        W29163  14.186  42.355   1.134
63904W        W29164  29.131  36.458   1.461
63905W        W29165  38.102  10.334   2.177
63906W        W29166  21.801  21.680   9.757
63907W        W29167  33.847  13.024  12.845
63908W        W29168   2.341  23.241   3.179
63909W        W29169  37.001  32.208   5.041
63910W        W29170   0.147  18.734   2.304
63911W        W29171   9.354  33.506   4.354
63912W        W29172  21.032  17.391   0.106
63913W        W29173  17.046  11.079  13.941
63914W        W29174  27.083  36.928  14.784
63915W        W29175   7.263  27.854  12.042
63916W        W29176  15.602  35.422   2.897
63917W        W29177  19.649  12.105  13.313
63918W        W29178  18.811  31.817  11.927
63919W        W29179  29.575  21.755   1.377
63920W        W29180  15.709   7.371   0.877
63921W        W29181   6.742   7.500   4.792
63922W        W29182   1.771  18.100  10.777
63923W        W29183  43.049   1.772  13.401
63924W        W29184  11.749  42.033  10.150
63925W        W29185  42.718  42.563   3.890
63926W        W29186  42.206  12.855  13.834
63927W        W29187  34.977  36.446   1.081
63928W        W29188  13.205   1.881   2.334
63929W        W29189   5.886  25.495  10.649
63930W        W29190   8.176  11.173  11.412
63931W        W29191  16.897   0.420  10.359
63932W        W29192   0.110  36.787   2.805
63933W        W29193  23.703   3.997  14.522
63934W        W29194  36.274   3.808  13.865
63935W        W29195  10.636  30.865   4.278
63936W        W29196  35.424  10.781  12.175
63937W        W29197  36.849  27.434   3.112
63938W        W29198   6.641  42.828   3.743
63939W        W29199  42.294  18.669   0.981
63940W        W29200   4.688  10.724   2.757
63941W        W29201  41.465  26.908  14.123
63942W        W29202   6.212  44.969  14.271
63943W        W29203   1.379  40.689  11.599
63944W        W29204  41.840  10.928  14.316
63945W        W29205  38.984  41.832   4.118
63946W        W29206  26.473   3.781  13.904
63947W        W29207  26.458  36.408   1.835
63948W        W29208  43.427  38.958  12.382
63949W        W29209  22.996   2.893   2.219
63950W        W29210   5.571  14.481   0.855
63951W        W29211  24.583  14.129   0.640
63952W        W29212  19.794  40.119  14.135
63953W        W29213  40.788  35.523   3.654
63954W        W29214  23.264   7.972   1.256
63955W        W29215  43.349  42.812  11.247
63956W        W29216  15.064   0.836  12.359
63957W        W29217   1.250   3.530  11.478
63958W        W29218  21.125  18.098  10.355
63959W        W29219  12.764  18.967   3.695
63960W        W29220   3.473  44.294  12.942
63961W        W29221  11.945   6.314  14.870
63962W        W29222  37.446  35.649  10.406
63963W        W29223  28.002  33.462   1.736
63964W        W29224  38.899   8.229   0.758
63965W        W29225  14.333  38.211   2.403
63966W        W29226  23.562  23.319  12.490
63967W        W29227  11.219  34.187   1.320
63968W        W29228  16.885   6.264  12.920
63969W        W29229  10.704  32.343  11.455
63970W        W29230  37.635  24.239   1.300
63971W        W29231  28.501   2.488   1.747
63972W        W29232  26.330  33.692   2.547
63973W        W29233  16.484  22.444   1.709
63974W        W29234  24.539  28.962  10.658
63975W        W29235   9.335  26.070   3.638
63976W        W29236   3.789  22.173  14.726
63977W        W29237  30.610   8.606  11.909
63978W        W29238  26.791  17.740   1.776
63979W        W29239   6.777  29.527  11.437
63980W        W29240  40.758  32.522  11.243
63981W        W29241  11.939  10.294   4.035
63982W        W29242  42.421   7.910   2.800
63983W        W29243  20.974  35.463  14.389
63984W        W29244  15.800  38.367  12.424
63985W        W29245  10.181  30.657  11.053
63986W        W29246   5.704  14.322   3.772
63987W        W29247   4.870  22.272  10.381
63988W        W29248   1.354  37.465  11.117
63989W        W29249   6.106  11.850   4.855
63990W        W29250  10.411  35.476  14.297
63991W        W29251  41.524   1.028   3.201
63992W        W29252  16.226  29.691   0.730
63993W        W29253  20.699  30.943   3.094
63994W        W29254  17.185  34.500  12.075
63995W        W29255  32.701  44.993  13.817
63996W        W29256  32.401  18.443   1.153
63997W        W29257  26.992  12.903   3.659
63998W        W29258  28.677  15.866  10.634
63999W        W29259  36.937  29.015  12.839
64000W        W29260  33.641  18.205   2.417
64001W        W29261  33.850  39.101  12.113
64002W        W29262  33.979   2.342  11.513
64003W        W29263  34.600   3.886   1.686
64004W        W29264   0.670  15.320  13.964
64005W        W29265  23.226  35.970   0.266
64006W        W29266  19.302  29.039   2.157
64007W        W29267  37.103  13.233   3.345
64008W        W29268  36.566  18.217  14.583
64009W        W29269  25.531  32.024   4.914
64010W        W29270   7.792  44.199  13.916
64011W        W29271   1.814  35.723  10.754
64012W        W29272  44.433   4.392   3.900
64013W        W29273  43.280   8.117   2.311
64014W        W29274  18.042  41.096   0.766
64015W        W29275  14.084   9.181  12.422
64016W        W29276   6.069   2.100   5.036
64017W        W29277  12.199   4.998  10.147
64018W        W29278   5.242  38.982   3.130
64019W        W29279  15.220  42.003  14.478
64020W        W29280  13.300  18.501  14.011
64021W        W29281  42.651  23.031  11.388
64022W        W29282   2.806  26.927  14.030
64023W        W29283  20.687  24.727  12.667
64024W        W29284  34.903  28.412  13.409
64025W        W29285  20.832  41.039  10.756
64026W        W29286  44.056   9.386   0.407
64027W        W29287  40.092   7.262   1.294
64028W        W29288  12.112  17.579  10.665
64029W        W29289  34.899  41.456  14.846
64030W        W29290  26.577  11.843   1.261
64031W        W29291  27.541  13.827   2.346
64032W        W29292  27.370  15.213   0.846
64033W        W29293  34.041  18.770   4.640
64034W        W29294  36.975   7.751  14.078
64035W        W29295   1.159  15.041   3.074
64036W        W29296   8.094   9.834  14.764
64037W        W29297  15.602  12.732   0.197
64038W        W29298  19.198  20.187  14.790
64039W        W29299  22.667  11.952  10.800
64040W        W29300  27.416   9.148   3.340
64041W        W29301  27.715  19.628   1.209
64042W        W29302  16.024   9.318  11.116
64043W        W29303  18.031  37.835   2.674
64044W        W29304   8.996  21.236   3.709
64045W        W29305  23.803  12.773   1.219
64046W        W29306   9.706   4.348  14.441
64047W        W29307  34.074   2.434  12.483
64048W        W29308  22.996  18.727  12.881
64049W        W29309  23.590  36.033  12.459
64050W        W29310   7.658  30.839  13.926
64051W        W29311  18.637  20.893  14.318
64052W        W29312  39.857  29.133  13.910
64053W        W29313  43.842  16.488  13.418
64054W        W29314   7.513  24.499  13.871
64055W        W29315   0.703  13.299  14.618
64056W        W29316  38.899  42.863  10.374
64057W        W29317  22.636  40.976   4.751
64058W        W29318  19.965  35.334   3.207
64059W        W29319  33.703  20.162  14.845
64060W        W29320  20.517  38.033   2.729
64061W        W29321  38.644  15.623   0.949
64062W        W29322  27.999  40.389  13.697
64063W        W29323  26.759  23.501  11.635
64064W        W29324   5.314  12.059  13.498
64065W        W29325  10.080   1.255   3.711
64066W        W29326  14.148  30.454  13.030
64067W        W29327  37.347  16.206   1.384
64068W        W29328  16.767  18.546   3.258
64069W        W29329   4.232  16.623   2.837
64070W        W29330  21.235  33.971   2.142
64071W        W29331  36.686  25.481  12.123
64072W        W29332  17.071  31.923  14.273
64073W        W29333  23.710   1.165  11.950
64074W        W29334  26.001  43.231   2.093
64075W        W29335  12.847  44.700   3.937
64076W        W29336   8.558  38.394  12.363
64077W        W29337  10.165   3.190  12.366
64078W        W29338  43.353  10.122  12.007
64079W        W29339  31.556  13.808   1.315
64080W        W29340  34.163  23.143   4.582
64081W        W29341  13.270  15.990  11.281
64082W        W29342  10.131  37.260   0.757
64083W        W29343   3.393  31.754  10.668
64084W        W29344  34.883   4.674  11.091
64085W        W29345  25.195  34.047   2.152
64086W        W29346  29.026  44.704  13.781
64087W        W29347   7.899  36.956   3.903
64088W        W29348  18.426  34.495   1.259
64089W        W29349  22.589  41.982  11.071
64090W        W29350  41.287  19.132  14.389
64091W        W29351  15.251   6.441  12.970
64092W        W29352  23.082   8.023   4.348
64093W        W29353  36.418   9.422   2.344
64094W        W29354   8.721  29.158   0.201
64095W        W29355  35.349   2.335   4.479
64096W        W29356  23.493  30.357   0.243
64097W        W29357   2.836  28.560   5.113
64098W        W29358  38.519  28.189  12.965
64099W        W29359  14.060  42.179   4.062
64100W        W29360  25.118  25.122  10.708
64101W        W29361  17.615  20.831   3.686
64102W        W29362   6.128  17.519  13.955
64103W        W29363  20.689  40.115   1.758
64104W        W29364  27.410   8.665   3.143
64105W        W29365   7.004  15.538  14.004
64106W        W29366  26.409   2.821  12.614
64107W        W29367  38.012  23.098   0.640
64108W        W29368  24.150  11.343  12.484
64109W        W29369   3.391  41.576  11.777
64110W        W29370  27.097  37.233   0.811
64111W        W29371   5.168   3.761   0.529
64112W        W29372  38.168   7.778   3.867
64113W        W29373  21.770  32.095   3.620
64114W        W29374  19.739  21.867  11.125
64115W        W29375  19.699   8.894   4.628
64116W        W29376   6.491  19.993  10.969
64117W        W29377  17.296   4.708  11.970
64118W        W29378  20.150  24.576   4.399
64119W        W29379  25.676  21.123  13.926
64120W        W29380  33.681  37.560   0.356
64121W        W29381  43.133  22.281   3.173
64122W        W29382  35.065  22.827  11.608
64123W        W29383   8.690  30.247   0.401
64124W        W29384  40.775  12.670   0.930
64125W        W29385  13.287  34.567   4.093
64126W        W29386  14.240  32.607  13.741
64127W        W29387   4.289  37.197  14.791
64128W        W29388   7.220  41.451   3.326
64129W        W29389  18.424  44.758  13.378
64130W        W29390  12.324   9.320  11.945
64131W        W29391  12.156  25.460   3.359
64132W        W29392  20.983   2.824  14.075
64133W        W29393  21.710  41.123  10.623
64134W        W29394  42.888  23.186  13.621
64135W        W29395  33.189  18.760  11.563
64136W        W29396  34.140  18.172   2.505
64137W        W29397  20.021   0.791  11.052
64138W        W29398  44.897  39.232   1.276
64139W        W29399  12.688  36.022   4.071
64140W        W29400  38.556   6.214  14.059
64141W        W29401  43.239   9.942  10.684
64142W        W29402  30.969  39.988   4.240
64143W        W29403  23.616  10.497   0.471
64144W        W29404  18.312  33.064   4.215
64145W        W29405  14.193  43.455   1.090
64146W        W29406  34.002  36.455  11.075
64147W        W29407  33.926   1.596   3.798
64148W        W29408  39.911  33.014   4.797
64149W        W29409   8.199   8.416   0.421
64150W        W29410  30.123   2.460   1.536
64151W        W29411  19.782  40.202  13.061
64152W        W29412  10.837  28.155   4.356
64153W        W29413  39.522  30.146  12.058
64154W        W29414   4.694   4.029  12.781
64155W        W29415  12.813  41.405   4.211
64156W        W29416   2.293  31.628  13.578
64157W        W29417  23.665  35.335   1.274
64158W        W29418  41.402  30.936   3.296
64159W        W29419   5.804   5.711  14.683
64160W        W29420  12.445  30.486  12.319
64161W        W29421  19.548   8.805  13.860
64162W        W29422  36.058  26.548  11.751
64163W        W29423   3.823  40.034   0.341
64164W        W29424   8.749   1.212   1.249
64165W        W29425   7.016  17.080  13.128
64166W        W29426  15.201  20.008   5.650
64167W        W29427  14.966  35.291   4.283
64168W        W29428   3.240  19.605   0.228
64169W        W29429  22.101  31.384  12.087
64170W        W29430  30.143  12.268   3.192
64171W        W29431  28.538   7.670   1.515
64172W        W29432  27.214  19.958  13.959
64173W        W29433  10.756  43.731   2.769
64174W        W29434  11.667  32.851  11.751
64175W        W29435  41.275   2.388  11.008
64176W        W29436  40.018  34.822  10.907
64177W        W29437  21.182  20.651  11.433
64178W        W29438  24.346  13.135   0.421
64179W        W29439   7.800   5.933   2.961
64180W        W29440  37.988  11.274  11.586
64181W        W29441   1.424  15.583  13.039
64182W        W29442  43.678   7.836   3.089
64183W        W29443  32.525  44.743   5.149
64184W        W29444  40.083  36.631  12.267
64185W        W29445   3.249  38.338  12.923
64186W        W29446  31.078  18.947   4.218
64187W        W29447  42.379  30.088   0.941
64188W        W29448  22.537  10.092  12.439
64189W        W29449   9.128  44.941   0.276
64190W        W29450  44.886  38.894   0.882
64191W        W29451   7.848  44.319  10.055
64192W        W29452  27.031  17.022  14.180
64193W        W29453  26.979   3.799   1.052
64194W        W29454   2.850  33.254   4.630
64195W        W29455  32.208  25.807  11.243
64196W        W29456  12.018   1.618   3.954
64197W        W29457  21.676   6.672  12.989
64198W        W29458  14.797   2.758   2.703
64199W        W29459  37.979  40.556   0.775
64200W        W29460   9.370  32.462  11.029
64201W        W29461  36.539  11.763   1.322
64202W        W29462  20.206  44.586   1.048
64203W        W29463  16.289  31.179  11.985
64204W        W29464  26.881  44.270   2.338
64205W        W29465  31.778  40.312   4.887
64206W        W29466   9.116  18.626  12.790
64207W        W29467  35.354  41.999  14.045
64208W        W29468  16.064  34.017  13.383
64209W        W29469  28.665  26.481   4.545
64210W        W29470   5.649  34.328  13.287
64211W        W29471  23.267  36.385  12.918
64212W        W29472   1.062  34.809  12.986
64213W        W29473  10.915  35.062   0.010
64214W        W29474  36.483  34.029  11.100
64215W        W29475  12.322  39.520  12.184
64216W        W29476   2.941  21.232  12.546
64217W        W29477  26.993   0.938  11.127
64218W        W29478  29.606  16.990   4.140
64219W        W29479  44.528   8.031  11.638
64220W        W29480  32.825  32.420  13.052
64221W        W29481  42.660  26.275  13.959
64222W        W29482  17.642  32.210   2.841
64223W        W29483  42.989  36.369   1.346
64224W        W29484  19.471  16.293  13.912
64225W        W29485  25.333  15.420   4.402
64226W        W29486  34.843  34.550   0.449
64227W        W29487  12.569  29.554  10.543
64228W        W29488  11.733  42.911   2.271
64229W        W29489  29.681  44.012   4.348
64230W        W29490  14.304  28.672  11.875
64231W        W29491  39.458   5.358  14.178
64232W        W29492  14.234  40.617   1.917
64233W        W29493   3.513  20.956  13.379
64234W        W29494  36.616  15.683  11.755
64235W        W29495   5.170  15.391  13.419
64236W        W29496  42.604  43.039  10.031
64237W        W29497  43.880  35.852  13.053
64238W        W29498  27.305  28.624   2.219
64239W        W29499  13.578  43.602  12.355
64240W        W29500  44.599   4.493  13.452
64241W        W29501  17.896  36.428  10.631
64242W        W29502  38.436   0.443   2.432
64243W        W29503  24.176   8.907  13.753
64244W        W29504   2.810  39.136  13.448
64245W        W29505   6.115  36.451  12.166
64246W        W29506  14.354  38.112  11.527
64247W        W29507  37.450  20.139   4.312
64248W        W29508  28.244   7.281   1.683
64249W        W29509  34.814  38.609   2.761
64250W        W29510  24.518   1.965  12.918
64251W        W29511  37.468   5.721  11.471
64252W        W29512  31.149   8.697  13.584
64253W        W29513   6.809  39.579   1.883
64254W        W29514   1.446  16.543  10.536
64255W        W29515  27.553  11.947  12.423
64256W        W29516  31.976  29.466  11.545
64257W        W29517  30.062  18.117   3.070
64258W        W29518  10.759  22.455  13.758
64259W        W29519   5.229  25.998   4.893
64260W        W29520   7.390  34.116   3.772
64261W        W29521  43.064  21.033  12.589
64262W        W29522  18.524  43.883   2.211
64263W        W29523   9.659   9.861  11.858
64264W        W29524  32.579  44.707  13.362
64265W        W29525  17.527  10.340   3.884
64266W        W29526   2.840  14.864  11.194
64267W        W29527   1.009   0.941  11.442
64268W        W29528  19.283  17.942   0.566
64269W        W29529  39.516  32.213   0.722
64270W        W29530  15.702  20.189  12.575
64271W        W29531   1.386  31.628   3.682
64272W        W29532  27.213  19.208  11.160
64273W        W29533  29.882  42.551  13.866
64274W        W29534  34.520   2.117  13.911
64275W        W29535  28.933  10.892   2.320
64276W        W29536  31.551  25.377   1.802
64277W        W29537  41.019  42.267  10.721
64278W        W29538  34.813  39.920   0.167
64279W        W29539   9.323  23.777  13.020
64280W        W29540  42.342  19.549   3.337
64281W        W29541  13.142  15.313   0.757
64282W        W29542  13.473  17.693  14.797
64283W        W29543  35.913  27.996   3.196
64284W        W29544  30.778  37.016   0.405
64285W        W29545   4.440  19.454  11.486
64286W        W29546  37.015  34.476  10.668
64287W        W29547  42.321  26.100  14.984
64288W        W29548  32.887  22.630  13.633
64289W        W29549  14.166  15.329   0.751
64290W        W29550   8.234  16.836   0.042
64291W        W29551   2.417  30.637  14.429
64292W        W29552  23.193  44.883   4.496
64293W        W29553  12.317  23.414  13.025
64294W        W29554  30.759  23.268  11.062
64295W        W29555  15.720  10.164   3.834
64296W        W29556  37.020  36.096  14.365
64297W        W29557  41.826  19.507  11.968
64298W        W29558  19.085   6.787  13.387
64299W        W29559  24.274  25.657   1.292
64300W        W29560   9.339   3.894  11.068
64301W        W29561   1.918   5.868  14.940
64302W        W29562  41.821  15.565   4.673
64303W        W29563  42.359   9.982   0.473
64304W        W29564  22.279   2.727   9.967
64305W        W29565  12.669  16.643  14.379
64306W        W29566   7.907  41.760  12.818
64307W        W29567  27.207   1.302  14.353
64308W        W29568  32.409  23.635   3.237
64309W        W29569   0.466  26.017   1.668
64310W        W29570  18.918   3.389   4.158
64311W        W29571  16.659  23.431  11.621
64312W        W29572  18.999  23.714  14.619
64313W        W29573   8.111  30.959   1.002
64314W        W29574  29.373   0.907  12.444
64315W        W29575  24.742  17.108   0.392
64316W        W29576  38.368  42.562  11.461
64317W        W29577   9.890  20.131  14.343
64318W        W29578  20.556   8.166   2.729
64319W        W29579   5.242  43.613   4.066
64320W        W29580  40.045  35.611   4.427
64321W        W29581  30.602  31.405   3.879
64322W        W29582  34.110  44.421   2.354
64323W        W29583  28.549  32.451   1.219
64324W        W29584  32.046  23.278   1.466
64325W        W29585  11.053  23.095  12.259
64326W        W29586   4.744  27.623  10.721
64327W        W29587  31.545  37.526   1.980
64328W        W29588   7.897  30.485   3.227
64329W        W29589  40.490   8.864   2.250
64330W        W29590  33.390  39.099   0.316
64331W        W29591  14.784  37.384   4.477
64332W        W29592   1.548   9.407   0.314
64333W        W29593  20.630  13.636  13.422
64334W        W29594   3.503   4.565   1.682
64335W        W29595  21.652  20.500   2.565
64336W        W29596  31.184  24.129   0.183
64337W        W29597   5.650  24.515   4.376
64338W        W29598  39.104  44.174  13.688
64339W        W29599  30.583  42.922   5.133
64340W        W29600  31.561  11.639  12.544
64341W        W29601  18.003  12.215  13.323
64342W        W29602   2.809  23.437   2.197
64343W        W29603  10.212  29.318   5.146
64344W        W29604   0.348   6.178  13.438
64345W        W29605  29.690  13.770   3.400
64346W        W29606  15.282  35.993  14.460
64347W        W29607   5.806  26.838   5.139
64348W        W29608  16.364  11.660  11.132
64349W        W29609  13.599  39.380  11.998
64350W        W29610  28.204  35.181  12.024
64351W        W29611  30.997  12.092  11.098
64352W        W29612  32.943  44.427   1.827
64353W        W29613  42.404  19.069  12.639
64354W        W29614  12.676   9.426  12.750
64355W        W29615   9.704  38.895  13.426
64356W        W29616  19.630  31.905  11.540
64357W        W29617  18.804  29.501   4.421
64358W        W29618   0.875  21.550   2.795
64359W        W29619   9.922  17.150  11.928
64360W        W29620  19.424  39.509   3.348
64361W        W29621  22.700  16.758  12.035
64362W        W29622   4.836  26.692  13.615
64363W        W29623  31.476   9.352   0.509
64364W        W29624  15.566  27.615   3.193
64365W        W29625  25.515  39.081   1.430
64366W        W29626  13.107  36.011  12.025
64367W        W29627  21.732  26.250  10.600
64368W        W29628  26.019  18.695  13.095
64369W        W29629  24.700  29.039  12.992
64370W        W29630  33.196   3.826  12.392
64371W        W29631  34.890   2.792   0.745
64372W        W29632  39.407  40.370  10.662
64373W        W29633  21.979  33.040   4.967
64374W        W29634  42.761  20.601  12.616
64375W        W29635  19.816  31.537  10.771
64376W        W29636  12.210   2.606   1.770
64377W        W29637   1.990  42.869  12.047
64378W        W29638   1.377  10.423   1.241
64379W        W29639   7.325   7.397  10.570
64380W        W29640   2.490  11.442   1.696
64381W        W29641  39.164  39.429   1.703
64382W        W29642   8.252  27.690  10.790
64383W        W29643  41.817  25.371   2.241
64384W        W29644   6.218  31.327  11.582
64385W        W29645  13.589  13.543   0.644
64386W        W29646  41.985  31.041  12.383
64387W        W29647   6.803   7.733   0.111
64388W        W29648  24.699  10.933   2.335
64389W        W29649   7.320  35.492   1.142
64390W        W29650  38.802  13.217  14.392
64391W        W29651  12.706   3.347  13.406
64392W        W29652  40.884  43.395  12.536
64393W        W29653  13.865  17.282   1.874
64394W        W29654  13.311  34.940  13.502
64395W        W29655  19.935  33.870  14.366
64396W        W29656  14.877  20.450   5.583
64397W        W29657   9.470  41.800  12.713
64398W        W29658   6.170  26.295  10.964
64399W        W29659   2.336  26.924   4.313
64400W        W29660  32.679  23.279   0.259
64401W        W29661   0.403   7.451  12.460
64402W        W29662  41.550  26.699  12.832
64403W        W29663  32.036  42.829   0.740
64404W        W29664  10.847  29.462   1.523
64405W        W29665  43.026  40.830  12.662
64406W        W29666  34.843  43.952  13.415
64407W        W29667  29.878  26.730   4.960
64408W        W29668  37.316  38.994   0.646
64409W        W29669  39.404   3.354   2.752
64410W        W29670  42.561   8.323  14.462
64411W        W29671  18.580   8.078   1.233
64412W        W29672  13.071  37.225  11.155
64413W        W29673   0.365  39.849   0.226
64414W        W29674  36.292  39.452  13.543
64415W        W29675  15.094  10.922  11.083
64416W        W29676  36.493  19.116  12.250
64417W        W29677  12.032   7.210   0.803
64418W        W29678   6.061  36.124   4.231
64419W        W29679  38.286  10.883  11.388
64420W        W29680   0.010  17.025  12.060
64421W        W29681  16.474   0.290   1.238
64422W        W29682  25.698  27.259   3.302
64423W        W29683  42.090   9.717   3.342
64424W        W29684  18.803  31.408   1.755
64425W        W29685  36.007  22.050   4.909
64426W        W29686   3.844  26.176  13.567
64427W        W29687  19.588  15.586  12.415
64428W        W29688  21.454  22.414  10.092
64429W        W29689  21.554  18.077   1.649
64430W        W29690  22.217  20.350  14.082
64431W        W29691  14.875   4.935   4.673
64432W        W29692   8.875  24.099   1.431
64433W        W29693   3.914  36.424   2.589
64434W        W29694   9.241  21.134   4.726
64435W        W29695  23.713   1.861  12.263
64436W        W29696   6.211  33.891  10.726
64437W        W29697  14.218  15.117  13.976
64438W        W29698  19.487   2.718  10.517
64439W        W29699  40.257   4.203   4.586
64440W        W29700   8.291  17.333   2.300
64441W        W29701  23.184  31.667  11.522
64442W        W29702  31.762   0.864  14.368
64443W        W29703   9.483  18.007  11.693
64444W        W29704  10.330  23.229  14.756
64445W        W29705  15.780   6.884   1.144
64446W        W29706   0.441  33.448   1.474
64447W        W29707  21.585  37.463  14.217
64448W        W29708  37.886  32.412   1.737
64449W        W29709  23.556   2.428   4.121
64450W        W29710   1.382  20.559   3.411
64451W        W29711  22.182  26.716   4.368
64452W        W29712  42.413  36.148  14.379
64453W        W29713  18.547  20.403   0.693
64454W        W29714  11.207  36.788  14.379
64455W        W29715   6.290  17.773   0.706
64456W        W29716   5.295  28.226   2.309
64457W        W29717  19.548  36.455  10.734
64458W        W29718  33.954  21.426  12.415
64459W        W29719  42.268  16.757  10.733
64460W        W29720  27.238  33.771  14.388
64461W        W29721   8.167  34.071  12.079
64462W        W29722  20.181  39.078  11.881
64463W        W29723   1.192   7.913  12.944
64464W        W29724  22.310  19.087  10.382
64465W        W29725  10.005   8.048   9.782
64466W        W29726  29.526  39.605  13.410
64467W        W29727  22.155  24.733  14.663
64468W        W29728  10.854  12.822  14.779
64469W        W29729   2.268  26.622  14.744
64470W        W29730  18.829  39.058  13.010
64471W        W29731  31.547  16.691   0.339
64472W        W29732  13.121  24.827   9.912
64473W        W29733  41.275  23.195   4.854
64474W        W29734   2.450  27.505   2.195
64475W        W29735  35.955  22.243   1.278
64476W        W29736  14.156   4.533   3.783
64477W        W29737  24.116   4.526   1.680
64478W        W29738  28.396  10.173  11.528
64479W        W29739  27.583  31.660   4.703
64480W        W29740   8.669   7.310   2.138
64481W        W29741  28.020  19.676  11.023
64482W        W29742  38.813   5.792  13.912
64483W        W29743  16.252  18.402   3.224
64484W        W29744  35.471  18.830  13.921
64485W        W29745  24.596  19.321   0.443
64486W        W29746   4.447   9.164   1.865
64487W        W29747   4.437   2.591   1.993
64488W        W29748  26.674  25.044   0.042
64489W        W29749  30.503  18.213   3.362
64490W        W29750  10.923  11.673   4.157
64491W        W29751  32.458   1.301  12.924
64492W        W29752  21.664  38.001  13.054
64493W        W29753   0.445  10.504  11.494
64494W        W29754  31.069  43.391  12.949
64495W        W29755  35.744  22.771   1.336
64496W        W29756  36.484  27.996  13.260
64497W        W29757  39.097  35.910   2.211
64498W        W29758  14.587  19.381   5.503
64499W        W29759  11.022   8.696  12.065
64500W        W29760   9.981  14.717  12.482
64501W        W29761  40.375  36.877  13.272
64502W        W29762   8.947   2.768   4.869
64503W        W29763  25.188   1.367  11.088
64504W        W29764  40.922   8.235  10.821
64505W        W29765  14.900  43.001   4.621
64506W        W29766  36.486  16.998   2.737
64507W        W29767   5.287  30.353  11.970
64508W        W29768  30.054  10.395  14.545
64509W        W29769   4.812  23.980  10.672
64510W        W29770  26.297   4.912   2.185
64511W        W29771  23.739  39.254  12.846
64512W        W29772  10.840  21.248   1.797
64513W        W29773  24.174   4.769   2.114
64514W        W29774  43.841  25.564  13.897
64515W        W29775  28.981  19.163   5.019
64516W        W29776   4.005  37.469   1.725
64517W        W29777  37.585   9.736   1.286
64518W        W29778   7.829  13.586  13.417
64519W        W29779  27.466  21.746   2.782
64520W        W29780   1.354  27.987   3.717
64521W        W29781  17.052  26.735   0.158
64522W        W29782  18.775   1.801  14.419
64523W        W29783  41.490  29.520   1.362
64524W        W29784  42.480  14.285  13.577
64525W        W29785   1.919  21.032  10.479
64526W        W29786  28.195  18.271  13.477
64527W        W29787   0.214   0.532  13.713
64528W        W29788  36.661  31.227   4.180
64529W        W29789   6.230  10.649   4.636
64530W        W29790  24.954  43.707  14.845
64531W        W29791  17.629  18.958   0.315
64532W        W29792  28.317  39.011   5.295
64533W        W29793   0.984  44.992  13.528
64534W        W29794   5.706  40.504  14.840
64535W        W29795  38.768  41.742   0.900
64536W        W29796   8.804  11.663   1.546
64537W        W29797  28.085  14.834  10.966
64538W        W29798   1.962  40.986   1.102
64539W        W29799   6.810  38.938  11.632
64540W        W29800  40.545   6.771  14.069
64541W        W29801   8.318  40.571   4.694
64542W        W29802  36.686  37.628   1.402
64543W        W29803  23.798  44.755   1.319
64544W        W29804   2.819  12.793  11.026
64545W        W29805  14.294  37.371   2.693
64546W        W29806   4.825   4.452   2.453
64547W        W29807  35.978  42.045  11.528
64548W        W29808  31.109  39.596  14.379
64549W        W29809  10.161  26.202  13.912
64550W        W29810  17.658  30.757  14.786
64551W        W29811  26.894  28.248   1.345
64552W        W29812  24.049  23.236  13.871
64553W        W29813  25.553  11.974  13.752
64554W        W29814  36.410  40.711   1.680
64555W        W29815  16.212  36.618   2.335
64556W        W29816  21.272  16.095   1.333
64557W        W29817  31.163   5.871   0.741
64558W        W29818   3.930   5.544  10.157
64559W        W29819  39.278   2.327  11.186
64560W        W29820  38.986  34.060  13.458
64561W        W29821  17.364  11.257  13.528
64562W        W29822  30.498  40.239   4.325
64563W        W29823   5.757   1.253  13.472
64564W        W29824  22.423  34.383  10.263
64565W        W29825  18.579   2.987  10.667
64566W        W29826   5.216  25.235   2.230
64567W        W29827  44.035  22.489  11.391
64568W        W29828  44.842  16.300  13.489
64569W        W29829   0.927  18.793   0.781
64570W        W29830  40.285   8.218   0.456
64571W        W29831  25.479  20.654  13.992
64572W        W29832  38.782  19.819   0.317
64573W        W29833  32.238  11.801   3.309
64574W        W29834  11.125  22.114   4.645
64575W        W29835   3.946  31.885   4.548
64576W        W29836  15.224  38.889   0.077
64577W        W29837  42.480   6.827  10.663
64578W        W29838  12.804  14.810  14.277
64579W        W29839  16.011  37.419  12.058
64580W        W29840   0.253   9.223  13.998
64581W        W29841   3.469  39.945  14.430
64582W        W29842  23.204   3.695  11.143
64583W        W29843  25.268  12.875   4.175
64584W        W29844  17.216  30.056  10.769
64585W        W29845  18.052   8.177  14.786
64586W        W29846  11.380  25.171   1.428
64587W        W29847   1.983  11.397   1.864
64588W        W29848  10.683  33.563  12.369
64589W        W29849  17.400  23.612   2.325
64590W        W29850  37.683   9.828   4.108
64591W        W29851  23.511   5.087   0.377
64592W        W29852  16.637  36.498   1.508
64593W        W29853  10.870  35.896   4.178
64594W        W29854   1.422  21.603  10.903
64595W        W29855   4.484  44.801   4.348
64596W        W29856  40.028  23.466   2.846
64597W        W29857  26.011  13.041  12.022
64598W        W29858  21.285   3.329   0.744
64599W        W29859   3.488  29.143  12.505
64600W        W29860  14.785  22.473  11.523
64601W        W29861  24.687  44.009   1.324
64602W        W29862  11.733  37.495   0.204
64603W        W29863   2.973  40.059   2.921
64604W        W29864  26.776  29.339  10.350
64605W        W29865  36.191  40.988  12.197
64606W        W29866  17.855  34.506  11.526
64607W        W29867  33.140  17.693   4.068
64608W        W29868  19.620  26.056   0.956
64609W        W29869  43.776  33.049   4.184
64610W        W29870  19.836   1.794   4.772
64611W        W29871  16.052  24.119  12.907
64612W        W29872  19.081  23.383  13.808
64613W        W29873  17.663  18.708   3.607
64614W        W29874  22.029   3.799   1.141
64615W        W29875  33.141  42.336  13.491
64616W        W29876  31.162  15.715   1.466
64617W        W29877  19.801  20.934   4.285
64618W        W29878  10.256  13.135  11.203
64619W        W29879   5.850  19.945   4.599
64620W        W29880  37.900   9.719   3.666
64621W        W29881  40.735  12.856   3.919
64622W        W29882  22.943  33.816  13.277
64623W        W29883  11.699   0.520   3.821
64624W        W29884   9.194  25.252   3.212
64625W        W29885   9.884  35.005  12.219
64626W        W29886  18.574   2.220  13.651
64627W        W29887  37.987  10.591   3.234
64628W        W29888   9.722  44.069  13.969
64629W        W29889   6.398  40.288   3.291
64630W        W29890  14.860   4.406  11.153
64631W        W29891   7.399  32.377  12.087
64632W        W29892  33.601   0.434   1.981
64633W        W29893  35.052   7.205   4.530
64634W        W29894   3.344  26.941   0.918
64635W        W29895  25.007  38.835  14.770
64636W        W29896  32.961  44.217  12.563
64637W        W29897  30.481   6.159   1.152
64638W        W29898  18.791   9.196   2.627
64639W        W29899   3.371   4.154   0.864
64640W        W29900  34.419   8.868   2.853
64641W        W29901  11.308  10.600  11.153
64642W        W29902  42.721  44.542  13.393
64643W        W29903  34.004  14.180   2.612
64644W        W29904  19.688  25.075   1.830
64645W        W29905  41.890   0.815   4.615
64646W        W29906  37.407  44.342  10.444
64647W        W29907   1.544  32.167  13.744
64648W        W29908  17.464  26.700  13.968
64649W        W29909   9.210  19.254   2.277
64650W        W29910  26.915  31.497  12.945
64651W        W29911   5.154  36.182   4.087
64652W        W29912  27.582   3.162   0.205
64653W        W29913  44.234  28.973  14.578
64654W        W29914  32.099   2.683  13.362
64655W        W29915  18.701  37.049   3.749
64656W        W29916  44.507   4.479  14.574
64657W        W29917  24.513  15.865   4.618
64658W        W29918  16.345  20.664  11.939
64659W        W29919   3.352  43.859   2.333
64660W        W29920  22.383  15.765   0.825
64661W        W29921  30.003  22.528  14.034
64662W        W29922  28.920  21.349   0.749
64663W        W29923  38.825   3.351  10.945
64664W        W29924  26.567  43.073  13.387
64665W        W29925   3.681  44.430   1.231
64666W        W29926  41.239  10.770  12.565
64667W        W29927  42.336  16.228   4.932
64668W        W29928   2.897  17.875   1.473
64669W        W29929  34.023  41.876  12.446
64670W        W29930  13.274  32.805  12.843
64671W        W29931  22.566  29.397   0.269
64672W        W29932  30.568  29.274   9.880
64673W        W29933  16.043  13.896   1.845
64674W        W29934  20.600  24.004  13.251
64675W        W29935  38.532  21.986  12.651
64676W        W29936  18.378  23.126   3.370
64677W        W29937  20.027  22.318  11.104
64678W        W29938  33.074   1.776   4.830
64679W        W29939  29.475   9.196  12.934
64680W        W29940  40.167  36.517   0.812
64681W        W29941  25.285  25.022   0.057
64682W        W29942   5.687  18.606  12.926
64683W        W29943  40.472  25.351  12.014
64684W        W29944   3.911   0.358   4.003
64685W        W29945  43.307  44.795   3.068
64686W        W29946  22.181  37.801  13.541
64687W        W29947  39.928  19.591   4.794
64688W        W29948  21.093  19.404   0.392
64689W        W29949  38.257  28.856   0.334
64690W        W29950  20.161  17.176   1.267
64691W        W29951   9.891  23.261  13.420
64692W        W29952   8.885  42.939   0.045
64693W        W29953   4.946  29.852  10.651
64694W        W29954   3.467  38.289   3.880
64695W        W29955  19.836  16.570   3.247
64696W        W29956   0.375  39.963   3.390
64697W        W29957  12.975   3.644   1.453
64698W        W29958   7.846  25.758  14.814
64699W        W29959   7.656  16.179   1.095
64700W        W29960   0.705  40.653  11.103
64701W        W29961  21.151  24.253  10.630
64702W        W29962   4.800   1.362  13.862
64703W        W29963  34.791  40.934   1.406
64704W        W29964  33.920  10.864   1.496
64705W        W29965   0.891  27.873   0.406
64706W        W29966  13.185   6.041  12.402
64707W        W29967  14.420  38.325   0.909
64708W        W29968  32.307  43.314   3.705
64709W        W29969  36.480   9.055   1.978
64710W        W29970  41.086  36.095   3.177
64711W        W29971  19.595  23.938   2.453
64712W        W29972  33.348  28.715   3.608
64713W        W29973   0.451  25.550   1.409
64714W        W29974  40.099   9.093   0.405
64715W        W29975  18.479   4.131   0.334
64716W        W29976  23.047  24.000   4.584
64717W        W29977  21.245  14.366   4.777
64718W        W29978   2.542  13.413   5.484
64719W        W29979  12.235  37.336   2.032
64720W        W29980  41.969  31.557   1.560
64721W        W29981   2.032  26.155  10.775
64722W        W29982  42.520   5.402   2.729
64723W        W29983  35.906  38.551   3.927
64724W        W29984  12.411  15.687  11.483
64725W        W29985  34.461  44.220  11.507
64726W        W29986  35.763  43.906  11.525
64727W        W29987  15.610  21.741   2.785
64728W        W29988   4.350  25.113   3.577
64729W        W29989  39.767  23.181   4.149
64730W        W29990   1.804  33.869  12.708
64731W        W29991   2.044  11.285  10.204
64732W        W29992  32.208  27.132  10.358
64733W        W29993  23.969  33.954  12.343
64734W        W29994  40.026  23.279   4.636
64735W        W29995  21.760   8.386  14.416
64736W        W29996  35.289  40.230   4.804
64737W        W29997  31.171  30.085  12.978
64738W        W29998  21.405  36.569  13.358
64739W        W29999  25.717  32.634   3.660
64740W        W30000  27.053   6.843   3.688
64741W        W30001  16.211  39.448   1.369
64742W        W30002  17.705  43.494   2.424
64743W        W30003  33.475   1.406  10.363
64744W        W30004  22.535  12.859   4.549
64745W        W30005  44.268   3.823   5.061
64746W        W30006  15.313  44.018  12.663
64747W        W30007   4.461  13.789   0.385
64748W        W30008  17.290  41.950   3.603
64749W        W30009  26.609  40.350   1.867
64750W        W30010  18.480  32.913   3.358
64751W        W30011  30.992  19.709   0.761
64752W        W30012  19.698  14.052   4.822
64753W        W30013  31.995  17.433  11.091
64754W        W30014  16.724  44.640  10.187
64755W        W30015  21.982  24.913   2.552
64756W        W30016  36.656  23.108  13.476
64757W        W30017  28.766  13.898  12.534
64758W        W30018  43.081  41.371   2.310
64759W        W30019  13.194  12.189  14.575
64760W        W30020   3.587  31.051  10.842
64761W        W30021  27.960  10.175   2.902
64762W        W30022   4.714  20.135   2.112
64763W        W30023   1.423   3.827   0.303
64764W        W30024  37.935  16.587  13.319
64765W        W30025  21.011  23.546  12.136
64766W        W30026   4.911  28.914   3.709
64767W        W30027  44.021  33.965  13.792
64768W        W30028   9.901  12.699   4.163
64769W        W30029  30.237   1.724  12.918
64770W        W30030   6.615  32.052   1.672
64771W        W30031   8.322   1.010   2.484
64772W        W30032  22.090   9.542  11.874
64773W        W30033  18.816  29.197   2.210
64774W        W30034  13.392  17.664  13.877
64775W        W30035  15.856  38.778  14.390
64776W        W30036  43.393   1.583   3.095
64777W        W30037   7.305   7.432  12.785
64778W        W30038  12.633  17.673  13.428
64779W        W30039   3.084  35.530  12.902
64780W        W30040  43.958  29.094  11.219
64781W        W30041  11.275  36.946   1.862
64782W        W30042  13.209  27.205  11.635
64783W        W30043   6.959  11.545  13.827
64784W        W30044  26.167  30.855  14.355
64785W        W30045  31.046  13.604  11.174
64786W        W30046  35.845  22.239  12.525
64787W        W30047  38.467  21.192  13.258
64788W        W30048  11.905  25.292   1.284
64789W        W30049  17.520  16.201  11.382
64790W        W30050   7.657  37.935   0.234
64791W        W30051  16.063  31.414   0.785
64792W        W30052  22.578   2.559   4.515
64793W        W30053  32.119  44.441  12.057
64794W        W30054  24.116  21.121   1.467
64795W        W30055  35.629  44.023  12.948
64796W        W30056  30.814   0.236  12.495
64797W        W30057   3.640  44.424  10.349
64798W        W30058  12.616  23.537  13.484
64799W        W30059  27.656   3.984   0.009
64800W        W30060  23.700  43.788  13.446
64801W        W30061   2.180  12.329  12.006
64802W        W30062  43.888  10.267  12.047
64803W        W30063   6.106  19.025  14.887
64804W        W30064  39.394  20.156  11.838
64805W        W30065   7.590  32.807  12.960
64806W        W30066  12.245  26.093  13.833
64807W        W30067  35.596  25.648  13.875
64808W        W30068  31.946   0.445   0.510
64809W        W30069  28.129  15.319  14.518
64810W        W30070   7.319   0.465   3.146
64811W        W30071  43.230  34.898   3.317
64812W        W30072   4.143  32.026  13.729
64813W        W30073  38.964  39.828  13.906
64814W        W30074  11.741  23.469   4.703
64815W        W30075  38.494  13.800   0.463
64816W        W30076  32.886  19.958  11.126
64817W        W30077   3.678  38.412   2.709
64818W        W30078  44.228  24.638  10.461
64819W        W30079  30.369  33.994  13.798
64820W        W30080  40.585  18.038   4.110
64821W        W30081  11.707  14.270   2.705
64822W        W30082  11.791  11.093   3.732
64823W        W30083  25.954  10.107   2.602
64824W        W30084  25.291  36.928   5.006
64825W        W30085  18.243  25.004  13.833
64826W        W30086  23.981  28.348  14.446
64827W        W30087  19.294  22.246   4.341
64828W        W30088  26.913   8.671  11.288
64829W        W30089   8.806  36.268  13.001
64830W        W30090  12.814  41.630   3.338
64831W        W30091   5.661   8.238  11.086
64832W        W30092  23.245  27.631   0.910
64833W        W30093  38.941   9.148  12.391
64834W        W30094   6.647  17.223   3.343
64835W        W30095   8.916  29.197  10.943
64836W        W30096  32.527   5.286   0.381
64837W        W30097  11.805  22.982  14.217
64838W        W30098  32.046  33.935  14.333
64839W        W30099  22.045  27.322  10.761
64840W        W30100  11.806  14.181   4.661
64841W        W30101   8.192  43.242   1.770
64842W        W30102   2.839   4.062   0.933
64843W        W30103  43.685  19.766   1.759
64844W        W30104  23.614  19.320  12.114
64845W        W30105  40.307  28.682   4.130
64846W        W30106  24.762  25.846  13.275
64847W        W30107  27.031  15.333  12.978
64848W        W30108   7.164  21.667   3.355
64849W        W30109  36.398  11.177   3.589
64850W        W30110  18.983   1.864  13.943
64851W        W30111  13.197  25.186  13.597
64852W        W30112  15.925  27.722  12.399
64853W        W30113  28.428  23.016   0.396
64854W        W30114   2.458  37.003   1.763
64855W        W30115   6.783   7.495  12.534
64856W        W30116   8.049  25.418  14.419
64857W        W30117  32.885  42.517   1.812
64858W        W30118   1.695  21.752   3.798
64859W        W30119  12.636  22.301  13.764
64860W        W30120  28.583   4.323  14.919
64861W        W30121  17.140  33.535  12.061
64862W        W30122  33.571   7.858   2.483
64863W        W30123  33.643  13.653  10.782
64864W        W30124  36.135  12.763   2.106
64865W        W30125  27.504  40.849   1.768
64866W        W30126  29.852   9.199   1.813
64867W        W30127  25.708  33.960   1.467
64868W        W30128  13.428   6.890   3.271
64869W        W30129  41.612  40.440  11.376
64870W        W30130  34.529  35.387  14.910
64871W        W30131  25.847  10.927  14.057
64872W        W30132  16.231   8.635  14.418
64873W        W30133  41.233  38.151   2.789
64874W        W30134  15.336   4.989   0.013
64875W        W30135  38.682  15.307  14.197
64876W        W30136  33.377  44.768  12.828
64877W        W30137  32.430  43.765  12.831
64878W        W30138  40.318  11.135   0.510
64879W        W30139  17.162  34.365  11.089
64880W        W30140  40.075  20.063  14.898
64881W        W30141  35.561  32.431  13.946
64882W        W30142  40.662  37.592   2.377
64883W        W30143   2.809  19.299   0.302
64884W        W30144  24.213  43.229  10.701
64885W        W30145  44.172  26.877  12.060
64886W        W30146  24.295  15.245   2.805
64887W        W30147  36.571   7.430   0.879
64888W        W30148  28.695  16.636  14.360
64889W        W30149  17.792  32.681  10.812
64890W        W30150   4.039  21.616   0.412
64891W        W30151   8.281  41.223  13.516
64892W        W30152   2.756  14.205  10.237
64893W        W30153  38.470   7.979  12.351
64894W        W30154  32.925  11.453   2.505
64895W        W30155  41.078  13.729   0.493
64896W        W30156  24.769  29.431  14.826
64897W        W30157  41.912  40.836  11.464
64898W        W30158  41.995  13.021  11.909
64899W        W30159  21.747  11.265   1.373
64900W        W30160  22.082   0.728   2.620
64901W        W30161  27.005  44.263   3.160
64902W        W30162   2.292  13.530  14.031
64903W        W30163  25.153  40.310   3.854
64904W        W30164  41.796  25.644  13.715
64905W        W30165  19.831  16.568   4.116
64906W        W30166   6.471   8.787  13.446
64907W        W30167   4.362  16.173   3.100
64908W        W30168   0.035  27.170  14.449
64909W        W30169  28.739   7.584  11.651
64910W        W30170  27.639  14.736   0.128
64911W        W30171  15.485  30.427  13.293
64912W        W30172  15.843  23.592   1.708
64913W        W30173  40.539  25.907   2.462
64914W        W30174  19.076   7.153   2.236
64915W        W30175  22.952  27.177  14.510
64916W        W30176  19.242  43.300   2.275
64917W        W30177  41.697   7.808   4.013
64918W        W30178   9.772  12.418   3.551
64919W        W30179   1.496   4.354  10.395
64920W        W30180  44.661   7.269  11.234
64921W        W30181  32.538  32.418  12.474
64922W        W30182  11.271  11.841   0.289
64923W        W30183  19.685  29.359   4.219
64924W        W30184  20.074  33.363   3.780
64925W        W30185   7.248   5.409   1.410
64926W        W30186   6.428  20.562   4.225
64927W        W30187   4.110  31.576   2.794
64928W        W30188   6.694  31.114  14.161
64929W        W30189  17.811  18.252  12.255
64930W        W30190  38.916  37.120  11.049
64931W        W30191  20.232   7.726   2.883
64932W        W30192  26.603  40.782  11.424
64933W        W30193   9.801  17.553   2.193
64934W        W30194  25.200  34.973   4.857
64935W        W30195  18.132  21.161  12.543
64936W        W30196  14.178  35.366   2.734
64937W        W30197  18.123  36.515  12.526
64938W        W30198  31.888  30.181   4.912
64939W        W30199   9.308   1.857   2.521
64940W        W30200  41.438  19.852  11.151
64941W        W30201  31.009  21.194   3.760
64942W        W30202  22.055  33.439   2.512
64943W        W30203  15.103  42.918  10.670
64944W        W30204  25.182  20.711   3.684
64945W        W30205   9.159  30.567   2.635
64946W        W30206  32.535  20.201   4.193
64947W        W30207   7.169  26.691   2.387
64948W        W30208   3.046   2.682   4.769
64949W        W30209  14.358  38.980   4.247
64950W        W30210  20.972   8.529  14.029
64951W        W30211  21.050  42.359  12.316
64952W        W30212   9.075  16.057   1.331
64953W        W30213  17.662  34.329  11.945
64954W        W30214   9.201  25.018  11.071
64955W        W30215  41.268  21.786  14.044
64956W        W30216  18.545  25.264   1.407
64957W        W30217  17.675  24.988  14.950
64958W        W30218  36.846  29.521   1.175
64959W        W30219  41.045  26.618   3.314
64960W        W30220  38.431   9.023   0.626
64961W        W30221  10.710   9.173  13.928
64962W        W30222   1.989  42.134   4.692
64963W        W30223   3.711   2.396  12.127
64964W        W30224  19.853  19.093  10.341
64965W        W30225  25.436  13.887  11.086
64966W        W30226  24.567  28.472   1.605
64967W        W30227  33.135  12.179  13.992
64968W        W30228  39.000   6.558  11.671
64969W        W30229  29.684   0.638  11.008
64970W        W30230  15.663   0.700  10.335
64971W        W30231  21.472  16.531  13.885
64972W        W30232  44.687   2.854  13.829
64973W        W30233  40.703   4.955   0.476
64974W        W30234  14.146  30.717  12.591
64975W        W30235  33.357  33.647   3.122
64976W        W30236  21.525  18.954   1.575
64977W        W30237   1.534  42.501  11.626
64978W        W30238  11.264  41.770  11.293
64979W        W30239   7.635  30.294   5.138
64980W        W30240  17.776  11.921   1.715
64981W        W30241  36.811  34.060  11.481
64982W        W30242  18.560  41.424  14.506
64983W        W30243   2.245  34.959  10.705
64984W        W30244  43.933  10.130   2.833
64985W        W30245   2.483  25.022   0.637
64986W        W30246  29.403  17.549  10.854
64987W        W30247  15.827   8.347   1.323
64988W        W30248  15.953  44.979   2.520
64989W        W30249   1.057   6.411  12.953
64990W        W30250  40.261   9.623  12.410
64991W        W30251   1.854  14.473  12.627
64992W        W30252  26.969   4.118   4.631
64993W        W30253  19.592   3.800   0.557
64994W        W30254  17.826  25.932   1.378
64995W        W30255  35.442   1.502  12.102
64996W        W30256  26.630   9.199  14.758
64997W        W30257  33.963  18.694   3.725
64998W        W30258  42.169   4.775  13.401
64999W        W30259   2.842   2.316   1.410
65000W        W30260   7.109  41.004  11.152
65001W        W30261  41.368  26.318   0.765
65002W        W30262  38.003  13.321  13.353
65003W        W30263  17.175  29.731  13.430
65004W        W30264   8.447  32.475  13.209
65005W        W30265   3.200   0.006  11.213
65006W        W30266  38.086  30.054  10.721
65007W        W30267  14.257  16.058   2.151
65008W        W30268  29.640   6.481  13.983
65009W        W30269  32.862  15.472   4.323
65010W        W30270   5.335  30.031   4.497
65011W        W30271  23.116  39.585  12.143
65012W        W30272  29.133  37.981  13.655
65013W        W30273  34.076   1.376  11.532
65014W        W30274  29.963   8.433  10.767
65015W        W30275   0.892   2.328  11.347
65016W        W30276  27.028   2.293   1.338
65017W        W30277  36.893  17.852  12.372
65018W        W30278  30.997  36.839  12.930
65019W        W30279  32.512   6.270  10.584
65020W        W30280  39.765   6.194  10.644
65021W        W30281  12.589  39.102  11.953
65022W        W30282   4.781  23.076   0.722
65023W        W30283  19.218  19.238  14.939
65024W        W30284  29.297   0.880   1.432
65025W        W30285   6.087   7.652   1.788
65026W        W30286  31.361  10.917   1.249
65027W        W30287  26.753   8.372   3.361
65028W        W30288  23.451  18.814   2.289
65029W        W30289   8.710  43.898  12.532
65030W        W30290   9.912   8.678   1.456
65031W        W30291  42.315  26.974  13.519
65032W        W30292  13.297   7.413   0.267
65033W        W30293  21.298   8.740  12.476
65034W        W30294  12.430  19.509   4.246
65035W        W30295  12.200  20.992  13.103
65036W        W30296  28.508  25.696  11.579
65037W        W30297  33.717  24.064  13.124
65038W        W30298   9.473  27.512   0.956
65039W        W30299  28.519   2.803   4.695
65040W        W30300  33.839  29.508   1.292
65041W        W30301  14.010  35.813  11.172
65042W        W30302  40.518  16.951  13.317
65043W        W30303  31.885  26.718  11.091
65044W        W30304   1.884  42.788   2.252
65045W        W30305  22.581  23.785   2.724
65046W        W30306   8.154  33.641  14.240
65047W        W30307  36.364  28.717   2.028
65048W        W30308  10.390  10.289  13.995
65049W        W30309  11.382  29.560   1.536
65050W        W30310   1.235  35.886   1.218
65051W        W30311  14.785  37.998   1.163
65052W        W30312  36.112  16.127   4.166
65053W        W30313   0.774  28.723   2.630
65054W        W30314  14.488  39.899  12.901
65055W        W30315  37.350  32.528   0.240
65056W        W30316  31.194  14.625  13.858
65057W        W30317   4.077  32.625  13.387
65058W        W30318  27.978   6.432   3.660
65059W        W30319   5.174  31.966   4.117
65060W        W30320  24.123  39.063   5.073
65061W        W30321  38.072  38.986   1.308
65062W        W30322  40.650  19.237   0.359
65063W        W30323  19.721   7.828   1.616
65064W        W30324   2.844  42.971   2.890
65065W        W30325  29.172  17.085  10.611
65066W        W30326  33.061  11.533  11.190
65067W        W30327   6.475   5.746  10.703
65068W        W30328  29.304   9.307   0.326
65069W        W30329   0.652   1.727   4.564
65070W        W30330  41.507  39.999   0.216
65071W        W30331  25.135   6.934   0.087
65072W        W30332  39.996  18.825   2.849
65073W        W30333  10.698   1.548  11.539
65074W        W30334   7.212  31.498   0.421
65075W        W30335   1.923  24.486   1.857
65076W        W30336   9.465  29.692  10.235
65077W        W30337   4.535   0.730  12.835
65078W        W30338  14.042  27.497   3.188
65079W        W30339  33.896  35.590   3.161
65080W        W30340   2.699   2.669  11.120
65081W        W30341  33.363  42.017   9.986
65082W        W30342  26.775  13.206  11.090
65083W        W30343  44.385  38.533   4.727
65084W        W30344  18.705  19.088  11.937
65085W        W30345  16.288  18.636   0.497
65086W        W30346  40.936  30.644   1.374
65087W        W30347  29.289  35.288   4.902
65088W        W30348  27.434   3.874   0.773
65089W        W30349  20.585  27.487   1.288
65090W        W30350  31.154  20.232   3.686
65091W        W30351  14.192  40.608   0.977
65092W        W30352  34.722   3.942  11.787
65093W        W30353  29.556  43.013  13.901
65094W        W30354  12.575  24.471   1.434
65095W        W30355  14.832   9.286   4.471
65096W        W30356  29.604   7.725   0.971
65097W        W30357  43.699   5.172  12.612
65098W        W30358  27.883  38.036  14.508
65099W        W30359   6.484  24.626  13.860
65100W        W30360  18.305  27.547  13.409
65101W        W30361  35.717  32.374   1.374
65102W        W30362  32.651  36.009  12.132
65103W        W30363   4.685  39.493  11.419
65104W        W30364  35.849  24.814  11.555
65105W        W30365  38.836  43.052   2.322
65106W        W30366  41.257  43.520  13.924
65107W        W30367  44.904  31.171  13.488
65108W        W30368  20.794  40.906  13.887
65109W        W30369   8.668  32.371  10.261
65110W        W30370   5.588  24.644   0.251
65111W        W30371  12.085  16.554  11.857
65112W        W30372   0.761  11.048   5.254
65113W        W30373  38.559  15.576   3.633
65114W        W30374  30.445  20.276   4.509
65115W        W30375  25.194   9.377  11.564
65116W        W30376  34.159   9.630   3.185
65117W        W30377   4.266   4.362   1.375
65118W        W30378  39.513  41.941  11.950
65119W        W30379  17.247  35.018  12.142
65120W        W30380  36.266  38.799  10.351
65121W        W30381  44.004   6.636   1.329
65122W        W30382  15.093  19.786  13.751
65123W        W30383  21.080  40.938  14.417
65124W        W30384  11.335   8.608  12.890
65125W        W30385  34.430  23.110  11.934
65126W        W30386  12.124  35.533   0.876
65127W        W30387  28.031  43.811  11.661
65128W        W30388  11.471   4.753  11.783
65129W        W30389  40.237  44.895  11.398
65130W        W30390  14.646  37.570   3.609
65131W        W30391   6.722   1.179   2.008
65132W        W30392  25.185   7.397   1.884
65133W        W30393  23.733  22.527   0.306
65134W        W30394  14.771  42.887   5.137
65135W        W30395  36.954  12.417   2.671
65136W        W30396  31.423   7.453   3.556
65137W        W30397   7.850  16.525   1.917
65138W        W30398  38.111   7.932  14.575
65139W        W30399  28.451  35.302   0.828
65140W        W30400  43.836   4.420   2.722
65141W        W30401   4.308  39.969   1.232
65142W        W30402   3.505  25.166   1.672
65143W        W30403  20.070  41.137  12.107
65144W        W30404  25.271  13.671   2.745
65145W        W30405   5.226   6.292   4.571
65146W        W30406   2.315  19.656   4.080
65147W        W30407  18.745  19.205  13.416
65148W        W30408  11.088  44.812   1.344
65149W        W30409  23.002  31.238  14.288
65150W        W30410  38.306  20.245  13.054
65151W        W30411  36.690  42.808  12.521
65152W        W30412   4.682   2.363   1.188
65153W        W30413  38.925  27.902  12.780
65154W        W30414  10.486   3.471   3.182
65155W        W30415  24.442  20.590  12.038
65156W        W30416   7.893  12.243  12.862
65157W        W30417  29.906  22.061  13.825
65158W        W30418  40.318  13.861  14.256
65159W        W30419   1.304  34.475  13.310
65160W        W30420  32.558  14.419   2.700
65161W        W30421   0.469  27.003   2.401
65162W        W30422   1.453   2.343   1.358
65163W        W30423  32.587  32.663   3.352
65164W        W30424  16.792  37.422  11.673
65165W        W30425  25.162  14.265   4.361
65166W        W30426  30.588  12.282  13.926
65167W        W30427  29.572  36.045   4.596
65168W        W30428  21.842  25.249  13.038
65169W        W30429   3.238  28.518   3.591
65170W        W30430  31.449  41.786   3.238
65171W        W30431   1.807  41.490   0.941
65172W        W30432  44.803  25.240   4.267
65173W        W30433   7.453  43.975   3.162
65174W        W30434   5.952   8.949   4.074
65175W        W30435  36.542  33.339  12.604
65176W        W30436  43.440  25.939   1.023
65177W        W30437  13.646   8.626   4.152
65178W        W30438   3.220  42.480  11.820
65179W        W30439  27.461  31.572   0.031
65180W        W30440  23.611  15.223  14.013
65181W        W30441  39.588  33.215   0.888
65182W        W30442  15.316  31.567   1.216
65183W        W30443  41.705  35.655   3.276
65184W        W30444   2.406  33.354   0.127
65185W        W30445   9.315  26.750   3.183
65186W        W30446  14.797   8.027   2.932
65187W        W30447  31.684  10.767   4.650
65188W        W30448  33.436   8.812   2.817
65189W        W30449  34.538  37.665  10.826
65190W        W30450  39.654  21.046  12.063
65191W        W30451   3.211  44.973  14.992
65192W        W30452  17.766   0.297  11.998
65193W        W30453   1.497   4.432   3.298
65194W        W30454  26.461  31.581  13.867
65195W        W30455  37.672  13.823   2.405
65196W        W30456  21.640  16.005   2.711
65197W        W30457  42.920  33.876  12.628
65198W        W30458   0.498  17.391   1.955
65199W        W30459   3.183  24.432  13.586
65200W        W30460  20.076  33.631   4.829
65201W        W30461  36.037  11.401   3.278
65202W        W30462  37.124   1.923   0.829
65203W        W30463   2.446  44.727   0.729
65204W        W30464  23.438  27.021  13.537
65205W        W30465  28.344  31.168  11.940
65206W        W30466   1.944   2.330   1.545
65207W        W30467  12.595  17.726  11.163
65208W        W30468  24.560  14.669  12.137
65209W        W30469  11.537  10.723  10.690
65210W        W30470   1.828  27.440   0.802
65211W        W30471  25.139  15.882  13.107
65212W        W30472  40.806  38.692  14.379
65213W        W30473  23.602   4.503   4.100
65214W        W30474  36.456  19.278   0.436
65215W        W30475  38.885   6.206   2.260
65216W        W30476  16.819  25.218  12.407
65217W        W30477  10.336  44.935  12.445
65218W        W30478  20.764  38.823  10.098
65219W        W30479  33.077   1.197  14.238
65220W        W30480  37.191  14.671  13.316
65221W        W30481  20.534  16.118  11.247
65222W        W30482  24.475  21.998   1.428
65223W        W30483  28.465   9.706  12.327
65224W        W30484  27.607  43.491   3.539
65225W        W30485   3.970  22.015  11.180
65226W        W30486  29.848  39.562   4.067
65227W        W30487  22.153  27.912  14.255
65228W        W30488  32.521  26.038   2.723
65229W        W30489  25.767   6.682   0.482
65230W        W30490  40.168  20.684  12.321
65231W        W30491  37.485   2.156  11.960
65232W        W30492  22.271  20.060   0.819
65233W        W30493  39.448  16.680   1.450
65234W        W30494  44.013  41.285  12.884
65235W        W30495  25.083  35.830   1.258
65236W        W30496  40.505  36.804   0.405
65237W        W30497   1.801   7.344  13.364
65238W        W30498  35.727  38.371  11.139
65239W        W30499  11.083  44.796  12.031
65240W        W30500   4.756  10.454   4.657
65241W        W30501  37.611  23.316  13.613
65242W        W30502  14.246   7.662  11.557
65243W        W30503  43.040  19.062   0.280
65244W        W30504  17.041  43.993   3.293
65245W        W30505  19.401  32.883   2.260
65246W        W30506   0.017  10.717  12.411
65247W        W30507  18.032  22.266  13.283
65248W        W30508  43.882   0.858   3.199
65249W        W30509  16.025  25.585   3.822
65250W        W30510  40.263  38.357  13.901
65251W        W30511   7.955  24.325   0.748
65252W        W30512  21.065  18.398   0.248
65253W        W30513  10.379  23.062   2.648
65254W        W30514  19.313  25.167  14.866
65255W        W30515  28.450  23.018   2.603
65256W        W30516  21.187  23.981   0.748
65257W        W30517   4.985  14.563   3.673
65258W        W30518  18.541  21.904   0.828
65259W        W30519  24.301  44.876   2.207
65260W        W30520   0.902  12.083  12.099
65261W        W30521  20.547  31.327   4.964
65262W        W30522  25.373  21.739  12.173
65263W        W30523  42.979  26.384  10.676
65264W        W30524  11.136  23.082  14.809
65265W        W30525   1.750  11.745  12.930
65266W        W30526  33.576  19.967   1.288
65267W        W30527  20.679  27.928   2.192
65268W        W30528  12.719  42.262  14.015
65269W        W30529  35.382  24.193  14.901
65270W        W30530  38.091   8.882   3.191
65271W        W30531  18.300  32.083   2.125
65272W        W30532  38.913  34.861   1.298
65273W        W30533  26.022   4.920  13.245
65274W        W30534  17.031   8.747   2.245
65275W        W30535   5.216  29.504  13.033
65276W        W30536  38.990  40.075  10.101
65277W        W30537  11.593  33.808   2.178
65278W        W30538  33.136   1.733  14.156
65279W        W30539  33.411  44.149  11.969
65280W        W30540  42.546   5.795  13.786
65281W        W30541   6.646   1.356  14.008
65282W        W30542  20.991  29.655  11.484
65283W        W30543  22.776   7.647   4.528
65284W        W30544   7.737  22.765  14.933
65285W        W30545  28.248  15.987   2.945
65286W        W30546  44.520  42.895   0.035
65287W        W30547   4.861   2.849  13.300
65288W        W30548  20.082  28.724  12.076
65289W        W30549  33.130  16.293   0.037
65290W        W30550   4.179   8.271   0.928
65291W        W30551  16.178  28.016   0.154
65292W        W30552  31.116   7.287   3.194
65293W        W30553  22.659  12.192   0.007
65294W        W30554  38.336  23.028   1.953
65295W        W30555  42.350  18.207  12.993
65296W        W30556   1.577   8.841   2.614
65297W        W30557  26.095  19.249  14.477
65298W        W30558  40.062  21.532  14.267
65299W        W30559  12.690  12.738  13.096
65300W        W30560  32.824  39.826   1.901
65301W        W30561  33.667  14.906  12.781
65302W        W30562  30.124  24.976  12.571
65303W        W30563  21.708   0.189   1.432
65304W        W30564  41.743  41.929   3.403
65305W        W30565  41.485  19.197   4.673
65306W        W30566   5.430  27.421   1.868
65307W        W30567  32.381   6.400   0.398
65308W        W30568  28.875  23.950  14.738
65309W        W30569  35.831  39.154  10.867
65310W        W30570  32.911   3.304  12.397
65311W        W30571  18.341  10.249  14.842
65312W        W30572  26.662  26.524   2.049
65313W        W30573  36.494  31.697   4.316
65314W        W30574   9.648  10.235  10.539
65315W        W30575  20.590   2.258  11.988
65316W        W30576  44.053  30.130   4.611
65317W        W30577  21.626  33.121  13.056
65318W        W30578  20.756  14.114  12.058
65319W        W30579  43.968  30.585  13.071
65320W        W30580   3.721  27.618   4.196
65321W        W30581  39.366  35.878  14.200
65322W        W30582  33.998  11.768  12.283
65323W        W30583  13.317   7.307  14.728
65324W        W30584   2.845  28.685  11.440
65325W        W30585  38.381   2.308   3.174
65326W        W30586  31.115  22.882  10.990
65327W        W30587   7.420  36.543   3.745
65328W        W30588  37.597  36.062   0.537
65329W        W30589  31.674  27.249   1.262
65330W        W30590  35.558  26.710  13.363
65331W        W30591  11.643  17.978   2.347
65332W        W30592  33.354   9.205  12.055
65333W        W30593  44.933   4.207   1.286
65334W        W30594  24.481   4.837   0.734
65335W        W30595  37.375  24.231  13.577
65336W        W30596  35.880  12.791   1.638
65337W        W30597  13.919  29.370  12.378
65338W        W30598  11.731   4.378   1.792
65339W        W30599  20.765   3.694  14.928
65340W        W30600   5.257   6.395   0.208
65341W        W30601  11.698  20.273  14.893
65342W        W30602  14.776  21.809  10.749
65343W        W30603  16.855  42.311   3.817
65344W        W30604   4.247  24.992  12.933
65345W        W30605   9.257  38.388  12.882
65346W        W30606  13.129   3.256   1.118
65347W        W30607  22.243  38.842   2.777
65348W        W30608  32.799  38.079   2.507
65349W        W30609  40.780   7.847  11.103
65350W        W30610   8.770  30.534  11.964
65351W        W30611  23.468   5.302   0.868
65352W        W30612  24.068  28.615  12.508
65353W        W30613  39.693   1.215   1.847
65354W        W30614  10.088  15.843  10.381
65355W        W30615  38.128  21.756  11.264
65356W        W30616   5.195  20.769   4.970
65357W        W30617  30.123  15.644   0.914
65358W        W30618  35.176  20.747  11.987
65359W        W30619  27.447  22.792  14.959
65360W        W30620  41.844  40.505   1.301
65361W        W30621   5.117  16.960   1.852
65362W        W30622  11.306  16.277   0.903
65363W        W30623  17.155   5.944   3.324
65364W        W30624  31.007  14.702  12.864
65365W        W30625  42.399  37.762  11.883
65366W        W30626  15.147   9.423  12.285
65367W        W30627  19.024  23.018   3.801
65368W        W30628  27.298  40.594   1.321
65369W        W30629  36.930  36.473  12.983
65370W        W30630  21.497   1.933   1.925
65371W        W30631  43.834  36.570   1.783
65372W        W30632  35.519  18.509  11.641
65373W        W30633  28.674   0.879   0.909
65374W        W30634  43.107  25.113   1.002
65375W        W30635  22.679  44.311  10.306
65376W        W30636   3.238  21.699   2.698
65377W        W30637  23.064  40.842   2.445
65378W        W30638   2.931  22.007   1.898
65379W        W30639  19.230  44.846  13.234
65380W        W30640  26.932  16.545   4.164
65381W        W30641  35.878  35.672   2.301
65382W        W30642  43.426  24.332  11.655
65383W        W30643  12.506  41.931  13.398
65384W        W30644  41.304  11.256  10.790
65385W        W30645  37.981  12.752   4.085
65386W        W30646  10.383   6.663  11.874
65387W        W30647  26.791  17.549  10.633
65388W        W30648  43.278  34.411   0.163
65389W        W30649   1.447   9.609   3.704
65390W        W30650  19.259  21.611   0.886
65391W        W30651   5.310  15.222   0.923
65392W        W30652   6.423  27.889  14.027
65393W        W30653  29.937  33.487   3.196
65394W        W30654  18.810  39.798  11.126
65395W        W30655   1.397  44.237   2.786
65396W        W30656  28.865  39.012   1.625
65397W        W30657  26.816  37.009  14.328
65398W        W30658  30.423  18.058  12.092
65399W        W30659  19.769  28.640   1.444
65400W        W30660  26.530   9.916   1.358
65401W        W30661   0.318   6.876  11.633
65402W        W30662   3.293  19.218  11.386
65403W        W30663  26.234  35.604   2.205
65404W        W30664  38.494  26.679  12.918
65405W        W30665  21.627  12.336  13.177
65406W        W30666  24.165  26.181  12.489
65407W        W30667  38.953  31.199   0.273
65408W        W30668   8.827  22.935   0.505
65409W        W30669  17.160  14.846  11.622
65410W        W30670  21.767   9.769  14.931
65411W        W30671  18.726  13.275  13.406
65412W        W30672   0.181  39.383   3.024
65413W        W30673  39.876  16.428   1.349
65414W        W30674  12.650  20.302  12.064
65415W        W30675  34.943   6.124  13.789
65416W        W30676   4.948  12.294   0.720
65417W        W30677   8.366   3.144  11.607
65418W        W30678  15.046  28.006  10.973
65419W        W30679  25.485  26.665  13.789
65420W        W30680   8.407  44.019   2.328
65421W        W30681  16.682  26.165  10.743
65422W        W30682   0.375   9.665   0.180
65423W        W30683  34.838  15.152  14.441
65424W        W30684  26.426  37.544  14.994
65425W        W30685  19.516  25.031  13.419
65426W        W30686  19.056  26.626  14.070
65427W        W30687  19.036   8.473  12.568
65428W        W30688   2.002  40.923  14.605
65429W        W30689  32.862  25.580  14.754
65430W        W30690  35.644  11.866   1.382
65431W        W30691  27.260  42.303   3.428
65432W        W30692  21.247   0.834  10.582
65433W        W30693  41.039  40.287   3.650
65434W        W30694   8.587  12.943   0.971
65435W        W30695   3.170   8.826   3.651
65436W        W30696  27.416  22.754   2.732
65437W        W30697  22.706   0.897   0.860
65438W        W30698   6.212  21.621  12.247
65439W        W30699  30.848  23.676   0.804
65440W        W30700   1.005   9.774   1.953
65441W        W30701  37.762  22.581   5.039
65442W        W30702  23.495   4.363  13.053
65443W        W30703  37.412  28.410  14.425
65444W        W30704  20.997  12.246   4.130
65445W        W30705  31.524   8.117   1.199
65446W        W30706  32.085  29.691   1.807
65447W        W30707  40.835  44.801   3.236
65448W        W30708  10.174  23.608   1.327
65449W        W30709   3.221  35.408  12.107
65450W        W30710  36.134  21.233  10.333
65451W        W30711  38.236  17.806   0.887
65452W        W30712   3.695  38.635  14.938
65453W        W30713  39.763  30.955   3.808
65454W        W30714  16.455  29.974  14.093
65455W        W30715  30.059  29.604   0.945
65456W        W30716  11.801   4.953   0.946
65457W        W30717   4.960  17.712   2.140
65458W        W30718  29.162  42.897  13.492
65459W        W30719  29.283  33.692   1.305
65460W        W30720  29.568   1.840   0.520
65461W        W30721  20.981   2.998   1.323
65462W        W30722  28.014  25.777  11.554
65463W        W30723   1.920  39.348   1.288
65464W        W30724  32.906  33.076   1.025
65465W        W30725   0.797   1.596  10.242
65466W        W30726  37.785  15.528  11.221
65467W        W30727  27.566  22.219  10.649
65468W        W30728  40.299   5.371  14.667
65469W        W30729  12.175  33.674   3.284
65470W        W30730  37.284  39.258   5.059
65471W        W30731  13.774  31.394   2.864
65472W        W30732  30.426  19.309   4.525
65473W        W30733  17.848   0.001  11.477
65474W        W30734  38.760  41.432   3.308
65475W        W30735  42.341  23.831   1.873
65476W        W30736  24.705  39.027   2.868
65477W        W30737  27.592  33.058  10.675
65478W        W30738  42.043  15.069   2.800
65479W        W30739   9.941  32.400  14.826
65480W        W30740  32.481  16.061  11.161
65481W        W30741  28.895  12.715   2.631
65482W        W30742  25.750  41.541   3.163
65483W        W30743  22.262   8.265  14.347
65484W        W30744  11.611  26.175   1.233
65485W        W30745  37.332  42.467  10.629
65486W        W30746   8.646  12.483  12.188
65487W        W30747  28.045  24.742   3.209
65488W        W30748  20.018  10.981   0.395
65489W        W30749  42.263  28.684  14.564
65490W        W30750  19.763  27.000  14.036
65491W        W30751  41.530  44.750  11.018
65492W        W30752   3.941  17.140   0.730
65493W        W30753  34.930  41.827   3.571
65494W        W30754  44.444  31.495   1.981
65495W        W30755  11.148   3.658   0.300
65496W        W30756  29.636  16.100  10.984
65497W        W30757  22.611  21.651   0.392
65498W        W30758  20.562  38.830   1.202
65499W        W30759  28.123  42.560  12.781
65500W        W30760  28.474  37.367  10.545
65501W        W30761   8.749  19.856  11.982
65502W        W30762  11.162   5.811   3.645
65503W        W30763  29.643  24.012   1.283
65504W        W30764  14.058  40.358   2.343
65505W        W30765  32.983  18.162   2.753
65506W        W30766  20.728  33.633  13.349
65507W        W30767  14.219   1.979   2.683
65508W        W30768  27.143  42.730  12.006
65509W        W30769  32.005  30.973  11.599
65510W        W30770  20.746  29.454   3.305
65511W        W30771  11.442   0.290  10.722
65512W        W30772  25.507  19.031  13.373
65513W        W30773  27.208  16.848  11.426
65514W        W30774  15.078   7.852  11.029
65515W        W30775  17.595   9.773   4.768
65516W        W30776  32.081   7.823   5.321
65517W        W30777  29.212  27.026  11.633
65518W        W30778  27.669  38.794   4.174
65519W        W30779  15.327  41.452  11.930
65520W        W30780  38.089  17.038  13.527
65521W        W30781   4.292  15.564  12.497
65522W        W30782   2.995  21.528  12.135
65523W        W30783  38.974  11.304   0.773
65524W        W30784  37.879  41.340   0.365
65525W        W30785  10.205  11.656  14.070
65526W        W30786  43.497  13.883  11.056
65527W        W30787   1.802   5.275  14.883
65528W        W30788   8.862  28.972  11.425
65529W        W30789  18.688  14.743  11.530
65530W        W30790  14.383  26.915  10.636
65531W        W30791   0.231  11.693  14.653
65532W        W30792  24.677  39.668  14.026
65533W        W30793  21.235  20.110   0.869
65534W        W30794  29.088   4.254  12.121
65535W        W30795   5.369  37.903  14.951
65536W        W30796   8.734  34.435  11.532
65537W        W30797  28.957  28.722  12.100
65538W        W30798  21.180  30.559   3.559
65539W        W30799  39.157  26.156   1.704
65540W        W30800  33.614  33.142   2.392
65541W        W30801  20.330  24.553   2.226
65542W        W30802  16.104  22.553  12.051
65543W        W30803  32.797  41.447  11.348
65544W        W30804  26.887  25.450   3.272
65545W        W30805  39.797  36.085  14.390
65546W        W30806  34.532  36.142   2.786
65547W        W30807  15.816  29.701   0.320
65548W        W30808   5.818   3.810   3.389
65549W        W30809  36.665  44.517  13.959
65550W        W30810  24.709  37.866  13.431
65551W        W30811  17.597  12.606  10.533
65552W        W30812  23.298  19.587   3.680
65553W        W30813  16.424  37.148   3.204
65554W        W30814  26.143  37.136   0.361
65555W        W30815  35.959  34.493   4.276
65556W        W30816  38.305  29.007   3.659
65557W        W30817   8.452  36.937  11.137
65558W        W30818  23.511  26.245   3.308
65559W        W30819  24.180  27.230  11.165
65560W        W30820  14.769  24.946   0.863
65561W        W30821  10.695  24.567  14.582
65562W        W30822  26.578  42.805   0.022
65563W        W30823  30.547  31.909   3.827
65564W        W30824   0.759  44.931  13.057
65565W        W30825   7.413   7.870   4.416
65566W        W30826  13.079  30.625   0.796
65567W        W30827  35.021  27.715   1.203
65568W        W30828   9.844   8.733   0.107
65569W        W30829  10.378  36.724  14.164
65570W        W30830  41.424  41.703  10.983
65571W        W30831  33.270   3.814  10.737
65572W        W30832   0.318   6.628  11.207
65573W        W30833  10.156  29.516   3.105
65574W        W30834  27.573   1.429  10.687
65575W        W30835  21.844  21.697  11.288
65576W        W30836  36.755  25.494  13.519
65577W        W30837  16.982   9.696  11.350
65578W        W30838   6.208  15.492  12.489
65579W        W30839  32.373  27.552  12.949
65580W        W30840   7.160  44.013   3.570
65581W        W30841   8.469  37.152   4.751
65582W        W30842  28.930  22.099   0.440
65583W        W30843  30.939   9.570  12.826
65584W        W30844  33.548   8.368   2.225
65585W        W30845  18.294  23.646  13.977
65586W        W30846  36.429  40.436   3.635
65587W        W30847   7.879  28.036  10.767
65588W        W30848  28.146  16.907   1.355
65589W        W30849  44.473   3.378   2.176
65590W        W30850   0.957  43.024  14.876
65591W        W30851  40.100  39.502  14.791
65592W        W30852  18.473   8.986   0.253
65593W        W30853  11.925   9.098   1.712
65594W        W30854  21.720  39.355   4.280
65595W        W30855  28.555  17.985  11.091
65596W        W30856  36.611   9.138  12.363
65597W        W30857  38.209  33.576   1.948
65598W        W30858  42.749  40.992   1.456
65599W        W30859  16.565  17.732  11.489
65600W        W30860  29.430  26.115   1.914
65601W        W30861  25.528   5.984  13.030
65602W        W30862  33.574  28.265   3.344
65603W        W30863  15.049  37.675   1.508
65604W        W30864  23.563   7.649  13.564
65605W        W30865  22.195   7.280   4.025
65606W        W30866  29.578  30.972  14.457
65607W        W30867  22.776   7.361  12.683
65608W        W30868  31.941  11.462   0.731
65609W        W30869   1.810  22.145  12.025
65610W        W30870   3.974  30.348  11.161
65611W        W30871  10.853  26.039  13.554
65612W        W30872   9.299  33.295  12.341
65613W        W30873  10.340  37.051   3.715
65614W        W30874  43.951  41.004  10.577
65615W        W30875  39.286  28.028  11.272
65616W        W30876  35.690  37.417   1.415
65617W        W30877   0.044   4.804   4.279
65618W        W30878  12.653  20.643  10.372
65619W        W30879  13.544  23.154  12.494
65620W        W30880  15.252  34.666   0.216
65621W        W30881  44.488  19.608  14.984
65622W        W30882   5.194  27.942  13.338
65623W        W30883  18.536  34.925   0.079
65624W        W30884  29.853  30.542  11.449
65625W        W30885   1.382   5.729   1.348
65626W        W30886  10.749  12.909  13.862
65627W        W30887   6.369  17.010  12.025
65628W        W30888  16.695  25.781   2.687
65629W        W30889  10.808  35.442  10.507
65630W        W30890  12.156  34.329  13.555
65631W        W30891  39.422   0.308  12.127
65632W        W30892  21.091   1.303   0.801
65633W        W30893   0.573   4.301   1.742
65634W        W30894  42.970  27.244   4.958
65635W        W30895  43.859  40.234   2.388
65636W        W30896  33.624  44.792  14.776
65637W        W30897   3.566  28.890   1.743
65638W        W30898  13.252   7.458  13.415
65639W        W30899  31.680  30.361   9.459
65640W        W30900  30.473  16.257  10.715
65641W        W30901   4.888   2.904  14.299
65642W        W30902  40.241  28.249   3.858
65643W        W30903  10.595  20.225   3.694
65644W        W30904  23.677  17.352  11.692
65645W        W30905   1.353   4.594   1.427
65646W        W30906  21.789  19.390   2.771
65647W        W30907  30.939  29.920   2.238
65648W        W30908  28.437  18.457  10.916
65649W        W30909  17.985  36.622   3.105
65650W        W30910  37.600  28.489  12.229
65651W        W30911  13.694  22.293   3.688
65652W        W30912   6.814  25.610  13.039
65653W        W30913  31.198   6.723   2.364
65654W        W30914  37.997  14.276  13.315
65655W        W30915  38.597  38.618  13.260
65656W        W30916  10.671  44.236   3.925
65657W        W30917  14.773  18.998   0.354
65658W        W30918  32.617   0.372   1.907
65659W        W30919   0.983  17.322   1.679
65660W        W30920  17.167   8.432  14.856
65661W        W30921  26.034  14.820  10.523
65662W        W30922  38.935  34.641   1.748
65663W        W30923  39.510  14.692   1.277
65664W        W30924  22.148  44.893   2.347
65665W        W30925  40.305  32.886  13.020
65666W        W30926  21.615  24.206   4.860
65667W        W30927  15.350   8.287  11.917
65668W        W30928  38.514  26.723   1.492
65669W        W30929  27.180  18.481  13.984
65670W        W30930  24.140  13.258  13.040
65671W        W30931   1.305  15.514  10.595
65672W        W30932  20.260   3.040  12.091
65673W        W30933   0.127  16.750  12.473
65674W        W30934   1.005  26.617   0.779
65675W        W30935  12.029  16.654   4.682
65676W        W30936  13.129  40.500   1.329
65677W        W30937  19.572  27.681  12.352
65678W        W30938  39.371  44.641   3.191
65679W        W30939  22.272  13.302   0.786
65680W        W30940  10.361  13.250   1.289
65681W        W30941   3.165  37.300  12.979
65682W        W30942   5.984  27.034  14.974
65683W        W30943   5.222  39.926  13.993
65684W        W30944  27.566  15.653   2.151
65685W        W30945   3.721   6.021   1.416
65686W        W30946  24.692   3.510  13.035
65687W        W30947  31.096  11.217   2.570
65688W        W30948  39.312  28.472   3.922
65689W        W30949  41.969   6.796  11.981
65690W        W30950   8.726  19.960   5.127
65691W        W30951  13.826  28.728  10.602
65692W        W30952  36.976  14.626  13.886
65693W        W30953  44.799  36.394   3.748
65694W        W30954   1.288  44.236  11.512
65695W        W30955  41.528  36.105  14.482
65696W        W30956  26.755  40.627  13.462
65697W        W30957  16.126  34.541   3.342
65698W        W30958  37.319  26.934   1.241
65699W        W30959  17.245   1.304   2.314
65700W        W30960  11.435  22.960   2.205
65701W        W30961  23.012  30.401  13.886
65702W        W30962  37.888  37.942  12.524
65703W        W30963  30.213  35.794  14.279
65704W        W30964  11.102  36.264   2.422
65705W        W30965   1.522  37.064  11.943
65706W        W30966  42.797  25.409  12.684
65707W        W30967  20.290  11.106  13.847
65708W        W30968  25.740  14.788   4.823
65709W        W30969  13.680  41.440   2.076
65710W        W30970  33.571   2.775   3.887
65711W        W30971  11.821  44.717   2.167
65712W        W30972  30.008  38.907   2.707
65713W        W30973  22.422  15.024   1.291
65714W        W30974  31.441   6.846   4.055
65715W        W30975  10.360   2.125  13.405
65716W        W30976  44.927  28.869  14.771
65717W        W30977  36.023   0.067   4.168
65718W        W30978  32.749   5.199  11.375
65719W        W30979   1.558   1.515  14.648
65720W        W30980  38.270  29.597  13.529
65721W        W30981  36.645  35.660   2.740
65722W        W30982  19.541   9.654  10.651
65723W        W30983  14.170  20.512   2.713
65724W        W30984  43.641  39.692  14.392
65725W        W30985  29.918  28.702   1.149
65726W        W30986  24.795  29.640  11.195
65727W        W30987   4.815  30.857   1.452
65728W        W30988  42.745  37.348  10.062
65729W        W30989  29.585  35.921  12.630
65730W        W30990  16.940   2.400  13.987
65731W        W30991  14.520  32.029   2.379
65732W        W30992  42.463  38.827   3.688
65733W        W30993   8.947  27.068   1.294
65734W        W30994   7.785  22.209  12.403
65735W        W30995  35.619   4.614   1.509
65736W        W30996  36.329  21.866  12.061
65737W        W30997  17.044   2.203   2.326
65738W        W30998  13.756  14.528  12.983
65739W        W30999  16.672   8.069  10.965
65740W        W31000   1.771   0.201   2.713
65741W        W31001  16.854  14.358   0.822
65742W        W31002  11.221  18.017  14.388
65743W        W31003  22.196  41.195   4.941
65744W        W31004  32.764   3.777  10.698
65745W        W31005  36.646  21.319   5.066
65746W        W31006  41.975  13.132   0.459
65747W        W31007  37.040  13.794   4.108
65748W        W31008  13.680  19.701   4.542
65749W        W31009  21.807  21.085  12.593
65750W        W31010  36.839  33.383   4.243
65751W        W31011  39.271   9.640  10.869
65752W        W31012  30.138  19.036   4.173
65753W        W31013  24.725  36.595   1.211
65754W        W31014  13.231  24.697   4.618
65755W        W31015   2.155   6.582   3.193
65756W        W31016   2.620  28.265  12.192
65757W        W31017  19.760  19.014  13.564
65758W        W31018  25.051  19.678   1.006
65759W        W31019  24.036  43.936  11.629
65760W        W31020  27.661  11.030  14.026
65761W        W31021  37.489   3.819  11.237
65762W        W31022  30.458   7.685  12.391
65763W        W31023  24.727   9.729   3.324
65764W        W31024  31.625  12.863  12.915
65765W        W31025   8.195   5.424   1.271
65766W        W31026   7.421  21.951  13.354
65767W        W31027   4.981  14.588  14.754
65768W        W31028   6.731  24.658  10.620
65769W        W31029  39.153  43.474  14.903
65770W        W31030  30.896  28.970   3.177
65771W        W31031   0.030  40.461   3.830
65772W        W31032  12.599  36.319  14.797
65773W        W31033  34.639  19.544   0.782
65774W        W31034  25.392  12.680  12.614
65775W        W31035   3.994  35.662   2.832
65776W        W31036  21.951   9.434   1.418
65777W        W31037   5.916  33.022   3.221
65778W        W31038  32.261  37.401   4.590
65779W        W31039  24.339  36.076  13.510
65780W        W31040  20.197   6.219   5.034
65781W        W31041  44.343  22.807   1.925
65782W        W31042  16.660   3.823   2.815
65783W        W31043  37.112  36.459   2.406
65784W        W31044  25.527   7.265  12.366
65785W        W31045  26.647  23.792  12.084
65786W        W31046  16.661   2.776  12.837
65787W        W31047  13.372  44.599   1.327
65788W        W31048  31.753  21.783  11.466
65789W        W31049   8.306  24.359   4.997
65790W        W31050  41.785  42.873  12.044
65791W        W31051  33.023  28.554   4.554
65792W        W31052  25.635   2.590   4.605
65793W        W31053  24.123  29.513   4.608
65794W        W31054   2.488   2.527   3.985
65795W        W31055  24.039   2.813  11.990
65796W        W31056  42.536  37.369  10.940
65797W        W31057  12.752  15.063  12.984
65798W        W31058  11.767   0.308  12.399
65799W        W31059   2.208  28.998  14.851
65800W        W31060   3.915  18.645   1.168
65801W        W31061   5.372  39.138   2.329
65802W        W31062  28.549  34.022   0.442
65803W        W31063  11.321  12.291   2.235
65804W        W31064  18.249  28.872  11.700
65805W        W31065  34.527   7.648   1.453
65806W        W31066  35.930  18.587  13.818
65807W        W31067   4.293  35.010  11.920
65808W        W31068  43.491  23.393   0.759
65809W        W31069   5.453  18.723   3.987
65810W        W31070  16.216   1.018  13.902
65811W        W31071  16.936  17.071  10.176
65812W        W31072  25.171  16.353  11.606
65813W        W31073  18.560   4.371  13.541
65814W        W31074  26.678  22.310  11.033
65815W        W31075  10.134  38.307   3.303
65816W        W31076  16.381  18.477  11.137
65817W        W31077  10.897  28.863   0.886
65818W        W31078  22.546   1.503  12.887
65819W        W31079   3.692  22.654  11.890
65820W        W31080  12.916  13.076  11.079
65821W        W31081  33.728  33.382   0.870
65822W        W31082  39.301  19.340   0.730
65823W        W31083  39.915   1.988   0.698
65824W        W31084  32.873  29.921   2.346
65825W        W31085   9.553  16.823  13.428
65826W        W31086  42.831  37.611   1.920
65827W        W31087  24.579  10.383  13.905
65828W        W31088  34.328  31.215   0.275
65829W        W31089  13.930  13.145   3.500
65830W        W31090   7.767  41.931  13.300
65831W        W31091  40.314  41.082   0.672
65832W        W31092  37.314  37.013   1.927
65833W        W31093  25.820  36.966   2.433
65834W        W31094  44.866  41.783   4.649
65835W        W31095  34.646   8.226  14.855
65836W        W31096  14.159  44.668   2.706
65837W        W31097  37.644  39.957   4.855
65838W        W31098  16.090  24.600  12.686
65839W        W31099  36.931  14.403   1.409
65840W        W31100   6.239  15.802  13.302
65841W        W31101  44.815   2.829  11.060
65842W        W31102  29.278  14.561   1.307
65843W        W31103  33.816  19.213   3.827
65844W        W31104  29.881   6.901  14.441
65845W        W31105   8.481  22.184  12.372
65846W        W31106  18.566  26.057   1.864
65847W        W31107   5.440  42.386   2.419
65848W        W31108  27.616  25.972   1.474
65849W        W31109  12.217   6.997   2.364
65850W        W31110  44.128   2.024   0.395
65851W        W31111   2.046  11.918   0.470
65852W        W31112  41.447  14.128   1.825
65853W        W31113   1.247  31.426   0.033
65854W        W31114   8.264  31.636  14.495
65855W        W31115  23.739   3.250   0.261
65856W        W31116  26.528   9.721  14.768
65857W        W31117  28.112  16.349   3.901
65858W        W31118  38.051  13.256   0.767
65859W        W31119   4.703  26.283  14.797
65860W        W31120  14.170  41.084  12.377
65861W        W31121  34.993  16.213   1.209
65862W        W31122  26.622  11.615   1.758
65863W        W31123  24.100  40.735  13.367
65864W        W31124  29.934  37.956  12.044
65865W        W31125   4.324  39.791  11.141
65866W        W31126  11.228  11.353   1.858
65867W        W31127   1.841  24.798  11.765
65868W        W31128  39.918  31.716   1.293
65869W        W31129  43.958   8.722  10.560
65870W        W31130   9.642  13.766  14.427
65871W        W31131  24.194  16.607  12.952
65872W        W31132   1.216  30.162   4.009
65873W        W31133   6.283  40.986  10.734
65874W        W31134  41.860  11.039   3.580
65875W        W31135  36.802  41.990   2.363
65876W        W31136  28.960  32.665   3.973
65877W        W31137  37.856   6.743   2.656
65878W        W31138  29.444  34.474   0.868
65879W        W31139  35.500  22.986  13.043
65880W        W31140  15.201  26.823   3.722
65881W        W31141   6.447  24.858  10.263
65882W        W31142  23.254  26.313  11.167
65883W        W31143  22.734  21.765   2.678
65884W        W31144  41.966   3.514   1.802
65885W        W31145   9.740  26.041   3.001
65886W        W31146  21.555  23.791  11.597
65887W        W31147  21.286  40.912  11.654
65888W        W31148  13.096  19.731  14.491
65889W        W31149  38.115  30.573  11.969
65890W        W31150  14.101  16.399  13.587
65891W        W31151   7.780  18.299  14.533
65892W        W31152  18.631  34.374   1.750
65893W        W31153  37.329   8.601  13.964
65894W        W31154  43.989   6.837  11.634
65895W        W31155  22.619  18.618   2.808
65896W        W31156  23.859   3.757   0.487
65897W        W31157  22.616   9.947   0.898
65898W        W31158  37.857  42.572  12.526
65899W        W31159  35.567  31.035  14.443
65900W        W31160  17.548  23.473  12.387
65901W        W31161  14.496   7.919  11.968
65902W        W31162  34.475  23.178   3.210
65903W        W31163  37.370  25.707   4.540
65904W        W31164  29.981   9.401  12.875
65905W        W31165  13.883  11.249  12.013
65906W        W31166  14.339   7.174   9.902
65907W        W31167  13.317  36.116   2.197
65908W        W31168  35.862   6.458   1.880
65909W        W31169  29.527  31.028   4.415
65910W        W31170   9.813  29.078  14.685
65911W        W31171  20.146  17.664  14.785
65912W        W31172  14.590  43.718   0.288
65913W        W31173   2.155   4.867  11.608
65914W        W31174   0.386  15.213  14.898
65915W        W31175  30.172  41.770   2.320
65916W        W31176   8.335  10.222   4.440
65917W        W31177   1.922  37.282  13.377
65918W        W31178  41.293  14.111  13.820
65919W        W31179  35.961  14.115   2.382
65920W        W31180  28.656  16.455  10.915
65921W        W31181  24.613  37.634  12.063
65922W        W31182  31.580   3.761  14.358
65923W        W31183  40.065  22.201  10.756
65924W        W31184  28.422  42.927  11.514
65925W        W31185  20.372  12.769   0.971
65926W        W31186  37.511  43.571   0.569
65927W        W31187   5.783  38.994   0.815
65928W        W31188  18.760  33.560   2.915
65929W        W31189  12.323   9.820   0.820
65930W        W31190   1.972  24.906  14.288
65931W        W31191  19.737  15.173   1.676
65932W        W31192  16.319   8.901  11.128
65933W        W31193  11.270  19.683   3.130
65934W        W31194  44.191   1.441   4.608
65935W        W31195  22.093  38.390  13.753
65936W        W31196  36.200  36.478   1.109
65937W        W31197   6.100   5.347  11.932
65938W        W31198  29.583   8.271  12.043
65939W        W31199   1.324  28.166   0.363
65940W        W31200   0.050  35.095   2.553
65941W        W31201  19.061  13.793   1.450
65942W        W31202  42.326   2.714   4.133
65943W        W31203  34.034   3.388   3.569
65944W        W31204  42.383   4.754  13.866
65945W        W31205  14.259  33.325   1.856
65946W        W31206   1.049  44.345  11.988
65947W        W31207  30.029  12.797   1.809
65948W        W31208  36.452   2.752   1.839
65949W        W31209  16.707  33.016  14.972
65950W        W31210   7.974  35.391   1.603
65951W        W31211  19.343   1.099  14.824
65952W        W31212  13.943  23.008   1.062
65953W        W31213  26.101  36.906  10.949
65954W        W31214   9.353   1.948   3.570
65955W        W31215   6.439  14.671  10.925
65956W        W31216  36.081  39.496   0.424
65957W        W31217  11.622   2.867  13.935
65958W        W31218   2.876   3.850  14.020
65959W        W31219  11.532  40.336  13.847
65960W        W31220  34.283  23.113  13.958
65961W        W31221   0.032   0.184  14.473
65962W        W31222  15.744  41.041  14.898
65963W        W31223  10.976  19.504   5.092
65964W        W31224  28.152   6.497  14.470
65965W        W31225  35.608  24.140  11.136
65966W        W31226  16.668   5.238  12.965
65967W        W31227   1.675  39.554   1.733
65968W        W31228  21.948   7.869  12.648
65969W        W31229   5.242   7.278  10.727
65970W        W31230   2.397  18.330   2.876
65971W        W31231   4.866  37.358   4.735
65972W        W31232  35.875  24.045   1.723
65973W        W31233  28.078  12.544   0.515
65974W        W31234  42.376  20.732   4.081
65975W        W31235   2.007  12.882   3.323
65976W        W31236  33.577  18.568  13.381
65977W        W31237   7.181  32.588   0.980
65978W        W31238   7.877  13.358   0.307
65979W        W31239  33.461   3.731  11.580
65980W        W31240  28.006  13.743   1.417
65981W        W31241  14.160  20.806  11.323
65982W        W31242  42.454  20.295  14.861
65983W        W31243  35.438   6.437   4.532
65984W        W31244  22.117  14.849   2.250
65985W        W31245  21.184  15.000   4.089
65986W        W31246  21.237  34.343   4.616
65987W        W31247  16.740  30.007  10.530
65988W        W31248   4.138  15.616  11.682
65989W        W31249  42.891  21.047   0.505
65990W        W31250  44.524  30.201   2.463
65991W        W31251  40.448  16.210   3.994
65992W        W31252   3.239   5.840  11.660
65993W        W31253  26.865  33.966   0.307
65994W        W31254  18.539   5.881   2.891
65995W        W31255  10.422  23.726  14.002
65996W        W31256  37.196  13.334  13.784
65997W        W31257  40.301  43.765  12.131
65998W        W31258  23.612   0.903   4.574
65999W        W31259  30.994   5.469   2.510
66000W        W31260   3.681  39.807   2.316
66001W        W31261  22.525  13.944  14.563
66002W        W31262  19.303  28.639  13.658
66003W        W31263  44.291  10.941  14.311
66004W        W31264  18.741  21.243  12.109
66005W        W31265  32.810  42.168   4.160
66006W        W31266   4.542  26.179  12.415
66007W        W31267   9.250   4.364   4.622
66008W        W31268  26.401  34.605  10.323
66009W        W31269  14.573  22.601   2.724
66010W        W31270  28.122  37.862   2.250
66011W        W31271  43.870  21.683  13.805
66012W        W31272  35.159   5.408   0.484
66013W        W31273  20.203  44.466   4.363
66014W        W31274  37.625   6.155   2.780
66015W        W31275   3.820  33.614   1.746
66016W        W31276  37.152  14.306   4.266
66017W        W31277  19.419  39.317  11.630
66018W        W31278   6.503  21.313   0.751
66019W        W31279  20.530  37.486  11.741
66020W        W31280  21.367   8.885   2.311
66021W        W31281   6.894  27.309   0.061
66022W        W31282  31.912  23.185  13.404
66023W        W31283  38.053  15.719  10.833
66024W        W31284  19.869   9.748  11.035
66025W        W31285  36.083  44.736   3.344
66026W        W31286  38.305  24.261  12.546
66027W        W31287  21.298   6.907  12.288
66028W        W31288  10.201  29.020  12.554
66029W        W31289  16.459  24.641   4.927
66030W        W31290  41.418  16.318  14.783
66031W        W31291  27.222  34.585   3.306
66032W        W31292  43.832  21.180   4.712
66033W        W31293  34.750   9.759   4.755
66034W        W31294   3.340  36.791  10.419
66035W        W31295  40.869  11.722   1.798
66036W        W31296  10.279  19.094  11.192
66037W        W31297  34.183   2.898  11.101
66038W        W31298  15.805  37.455   2.418
66039W        W31299   9.451  31.173  12.031
66040W        W31300  16.891  44.963  11.589
66041W        W31301  18.084  37.016  10.559
66042W        W31302   3.395  33.617  14.402
66043W        W31303   6.135  28.551   4.556
66044W        W31304  11.329  21.104   1.851
66045W        W31305  33.440  22.494   2.138
66046W        W31306  15.506  15.760   4.496
66047W        W31307   9.228   4.227   2.709
66048W        W31308  43.279  33.843   5.015
66049W        W31309  35.027  26.286   0.028
66050W        W31310  27.843  42.736  12.364
66051W        W31311   0.767  44.293   0.150
66052W        W31312  10.305   1.810   4.868
66053W        W31313  14.189   8.478   1.373
66054W        W31314  23.505  14.206   1.393
66055W        W31315  43.059  35.069   1.658
66056W        W31316  42.892  32.123  12.890
66057W        W31317  29.596  32.467  11.599
66058W        W31318  11.256  27.411  10.997
66059W        W31319   3.862  36.016   5.082
66060W        W31320   5.523  20.197  11.101
66061W        W31321   2.919  33.383   0.355
66062W        W31322  25.451  10.914  12.326
66063W        W31323   9.159  31.570  11.253
66064W        W31324  34.703  40.811   3.610
66065W        W31325  28.277  15.659  12.469
66066W        W31326  19.089  28.408  10.697
66067W        W31327   6.262   7.599   5.010
66068W        W31328   0.598  11.080  14.303
66069W        W31329  29.540  32.347   0.885
66070W        W31330  44.170  31.515   2.389
66071W        W31331  20.287   3.760  14.401
66072W        W31332  12.930  15.793  12.583
66073W        W31333  22.287   3.995  14.352
66074W        W31334  37.091  16.692  14.779
66075W        W31335  21.723  32.054  13.562
66076W        W31336  41.663  31.844   1.930
66077W        W31337  13.852   7.807  10.291
66078W        W31338  14.190  31.572   3.795
66079W        W31339  12.380  23.977   4.022
66080W        W31340  36.498  15.570  10.529
66081W        W31341   4.427  18.531  13.185
66082W        W31342  30.063  26.482  14.093
66083W        W31343  34.474  20.464  10.745
66084W        W31344  41.917  17.266   2.230
66085W        W31345  40.451  36.998  13.751
66086W        W31346  44.970  23.122   4.227
66087W        W31347  28.113  24.742   4.597
66088W        W31348  19.550  43.899   3.175
66089W        W31349   8.590  29.489  14.555
66090W        W31350  22.964  32.806  14.408
66091W        W31351  35.286  17.489  10.871
66092W        W31352  36.094  24.922   1.103
66093W        W31353  13.824  17.959   2.660
66094W        W31354   0.170   9.336  13.010
66095W        W31355  25.284  18.639  12.517
66096W        W31356  19.861  35.060   2.732
66097W        W31357  17.731  42.514  11.080
66098W        W31358  32.903  23.762  14.229
66099W        W31359  10.613  32.634   4.556
66100W        W31360  35.942   5.903   3.349
66101W        W31361  39.258  42.828   4.215
66102W        W31362  11.207   1.760  13.322
66103W        W31363  41.411  23.944  14.961
66104W        W31364  36.394  26.553  12.900
66105W        W31365  38.669   9.951  12.519
66106W        W31366  21.026  40.562   3.148
66107W        W31367  32.198  17.118   4.879
66108W        W31368  20.027   2.917   1.665
66109W        W31369  19.180  16.861  11.445
66110W        W31370  37.658  27.816   3.686
66111W        W31371  11.387   7.264  11.645
66112W        W31372  38.797  41.791  11.716
66113W        W31373  42.940  10.198   3.130
66114W        W31374  11.748  36.569  14.401
66115W        W31375  23.635  28.919  13.691
66116W        W31376  34.020  35.605   1.219
66117W        W31377  28.910  19.058   0.317
66118W        W31378  29.694  25.095  14.761
66119W        W31379  21.489  29.601  12.622
66120W        W31380  37.920  25.333  11.605
66121W        W31381   5.424  14.789   1.471
66122W        W31382   3.258  13.560   1.666
66123W        W31383  21.062   7.225  12.616
66124W        W31384  18.674  19.071   2.673
66125W        W31385   6.412  34.969  13.536
66126W        W31386  11.572  36.966  10.792
66127W        W31387  13.774  32.497  11.590
66128W        W31388   6.309   0.334   3.025
66129W        W31389  40.591  12.180   2.768
66130W        W31390  17.618  33.502   0.924
66131W        W31391  23.734  26.939  12.245
66132W        W31392  33.531  22.999  12.056
66133W        W31393   8.403  35.887   2.193
66134W        W31394  20.535  19.913  14.256
66135W        W31395  32.451  31.395  10.554
66136W        W31396  44.481   4.267  11.253
66137W        W31397  39.786   1.941  13.491
66138W        W31398  42.895   5.913   0.532
66139W        W31399  26.327   2.492  11.373
66140W        W31400  41.847  11.848   1.628
66141W        W31401  22.707  41.197   2.720
66142W        W31402  31.563  44.938   2.101
66143W        W31403  23.538  35.596  13.517
66144W        W31404  35.107  21.506  11.021
66145W        W31405  31.996  26.112   1.462
66146W        W31406  30.531   9.933   0.837
66147W        W31407  29.587  43.416   2.847
66148W        W31408   2.768  40.817  11.132
66149W        W31409  14.613  25.163   5.032
66150W        W31410  19.136  18.832   1.881
66151W        W31411  16.783  43.323  12.869
66152W        W31412   5.727  23.712  13.345
66153W        W31413  34.122  23.684  13.852
66154W        W31414   5.477  40.480   0.706
66155W        W31415  37.982  37.053  14.696
66156W        W31416  35.193   1.516   0.151
66157W        W31417  32.189  10.842   3.270
66158W        W31418  11.400  17.185   1.545
66159W        W31419   2.056  13.133   4.304
66160W        W31420   4.958  14.166  11.664
66161W        W31421  13.131  10.750  12.276
66162W        W31422  23.177  10.708   4.133
66163W        W31423  11.379  11.706  12.599
66164W        W31424  37.346   4.849  12.484
66165W        W31425  32.119   5.666  13.068
66166W        W31426  11.161  18.963  12.984
66167W        W31427  27.441  39.275  13.427
66168W        W31428  35.976   8.802   2.806
66169W        W31429  42.459   0.803   3.320
66170W        W31430  29.009   1.905  14.350
66171W        W31431  34.864  34.135  11.977
66172W        W31432  19.770   8.376   4.626
66173W        W31433   0.789  17.699  11.658
66174W        W31434   5.901  26.205   0.897
66175W        W31435  40.496  14.617   0.051
66176W        W31436  31.190  35.357  12.851
66177W        W31437  41.555  20.469   4.988
66178W        W31438   3.478   0.335   0.259
66179W        W31439  42.581   4.023   3.653
66180W        W31440  19.565  26.133   1.842
66181W        W31441  14.582   2.263   2.438
66182W        W31442  22.956  11.752  11.617
66183W        W31443   0.207  14.722  14.999
66184W        W31444  33.062  11.787   0.307
66185W        W31445  17.777  25.630   2.274
66186W        W31446  26.924  32.878  14.533
66187W        W31447  11.145   4.799   3.617
66188W        W31448   7.165  34.468  10.732
66189W        W31449  11.352  41.384  12.315
66190W        W31450  30.054  44.265   1.352
66191W        W31451  10.554  37.108   3.241
66192W        W31452  42.962  30.079   4.757
66193W        W31453   7.900   9.750  14.295
66194W        W31454   2.191  20.071  13.803
66195W        W31455   9.346   5.381   0.899
66196W        W31456  37.072  18.245   3.398
66197W        W31457  26.083   9.641  11.871
66198W        W31458  17.242   2.357  12.162
66199W        W31459  22.554  14.818  11.214
66200W        W31460  41.447  36.400  12.438
66201W        W31461  24.261  31.579   5.097
66202W        W31462   4.162  39.232   2.350
66203W        W31463  29.102  25.527   1.456
66204W        W31464   9.156  10.200  14.035
66205W        W31465   1.915  43.198   2.578
66206W        W31466  40.667  17.645   0.945
66207W        W31467  29.099   7.526  14.623
66208W        W31468  18.262  16.484   3.316
66209W        W31469  13.341  26.974   2.868
66210W        W31470  11.795  43.256  13.811
66211W        W31471  11.629  37.227   5.019
66212W        W31472  23.979  27.088  14.418
66213W        W31473  33.169  28.873   0.844
66214W        W31474  40.831  28.520  11.592
66215W        W31475  38.920   5.216  11.034
66216W        W31476  39.764   5.826  12.426
66217W        W31477  28.117   3.207  11.975
66218W        W31478   7.774  14.215   0.093
66219W        W31479  16.903  22.002   0.496
66220W        W31480  26.153  16.222  14.123
66221W        W31481  16.296  18.940  14.691
66222W        W31482  27.644   1.794   0.598
66223W        W31483   2.447  21.549  12.920
66224W        W31484   8.575   2.394   5.009
66225W        W31485  42.316  16.129   2.943
66226W        W31486  20.551  36.377  14.371
66227W        W31487   6.248  14.283  12.741
66228W        W31488   7.691  43.532  13.332
66229W        W31489  24.258   3.214  12.988
66230W        W31490   9.859   1.722  12.054
66231W        W31491  14.610  33.705  12.107
66232W        W31492  33.564  38.950   1.315
66233W        W31493  43.010  32.695   3.704
66234W        W31494  18.740  35.392   0.601
66235W        W31495   7.808   7.482  14.268
66236W        W31496  37.868  19.163  14.566
66237W        W31497  20.231   0.443   1.264
66238W        W31498  20.574  28.108  12.445
66239W        W31499   5.309  21.621   4.163
66240W        W31500  36.321  15.699   0.894
66241W        W31501  29.928  43.004  13.014
66242W        W31502  35.686  33.467   2.373
66243W        W31503  20.216  13.317  13.373
66244W        W31504   3.230  15.113  11.382
66245W        W31505  29.273  13.943  12.556
66246W        W31506  30.023  26.051  12.922
66247W        W31507  44.008   6.212  13.530
66248W        W31508   9.027  29.047   1.372
66249W        W31509  23.860  11.366   3.232
66250W        W31510  13.076  40.532  11.021
66251W        W31511  12.897  28.986  10.644
66252W        W31512  30.254  34.775  12.595
66253W        W31513  34.457  44.884  10.299
66254W        W31514  27.055  30.311   4.975
66255W        W31515  43.784   0.520  12.063
66256W        W31516   0.253  19.019  11.723
66257W        W31517  39.094   3.859  13.470
66258W        W31518  41.832  38.449   0.384
66259W        W31519  42.331  16.605   4.071
66260W        W31520  29.304   7.718  13.307
66261W        W31521  26.611  27.884  13.431
66262W        W31522  38.426  10.472  12.510
66263W        W31523  36.172  19.109   3.569
66264W        W31524  11.311  17.761   4.474
66265W        W31525  24.852  25.039   3.081
66266W        W31526  40.671  35.389   1.948
66267W        W31527  11.298  18.762   3.164
66268W        W31528  22.204  28.520  12.262
66269W        W31529  18.243  31.747   0.391
66270W        W31530  14.483  26.031  14.594
66271W        W31531  35.685  26.544  12.097
66272W        W31532  43.993  13.920   5.011
66273W        W31533  23.297  43.373  13.600
66274W        W31534  25.205  14.344  11.066
66275W        W31535  42.154  37.070   0.331
66276W        W31536  27.169  43.337  10.574
66277W        W31537  12.258  15.648   2.826
66278W        W31538   5.255  32.924  14.910
66279W        W31539  35.699   5.179   4.990
66280W        W31540  11.130  37.478   1.497
66281W        W31541  32.155   1.990   0.282
66282W        W31542  23.922  17.018  12.001
66283W        W31543  22.482  43.387   4.022
66284W        W31544  21.110  22.490  11.169
66285W        W31545  17.074  39.723  10.242
66286W        W31546   4.419   4.344  14.449
66287W        W31547   6.476   8.245   2.400
66288W        W31548   6.204  31.420  12.927
66289W        W31549  40.909  13.176   2.642
66290W        W31550  43.310  26.725  12.514
66291W        W31551  37.290  38.566   3.403
66292W        W31552  43.760  21.606  12.407
66293W        W31553  16.676   1.826   2.380
66294W        W31554  11.391  13.099   1.395
66295W        W31555  24.770   1.448  11.376
66296W        W31556  39.924  27.062   3.370
66297W        W31557   2.443  21.061   0.904
66298W        W31558   6.760   1.620  14.949
66299W        W31559  38.473  33.462  10.760
66300W        W31560   1.134  35.231  13.293
66301W        W31561  26.640  35.446   3.263
66302W        W31562  41.867  44.409  12.090
66303W        W31563  29.026  43.337   4.633
66304W        W31564  27.978   0.264  13.521
66305W        W31565  38.965  36.379  11.496
66306W        W31566  21.742  41.753  11.649
66307W        W31567   9.783   1.949   0.940
66308W        W31568  23.724  25.195   3.623
66309W        W31569  20.324  18.149  14.878
66310W        W31570   9.860  27.090  10.723
66311W        W31571   4.446  11.826   3.226
66312W        W31572  24.255  35.133   0.378
66313W        W31573   0.258  41.816   1.788
66314W        W31574  42.527  10.424  10.977
66315W        W31575   7.227  38.527   4.740
66316W        W31576   3.439   9.952  14.430
66317W        W31577   4.293  34.501  11.923
66318W        W31578   2.227  21.546  14.803
66319W        W31579  15.443  23.881   1.474
66320W        W31580  24.444  43.509  11.084
66321W        W31581   1.183  37.353   3.264
66322W        W31582  17.755  24.192  12.084
66323W        W31583  42.026  29.489  14.357
66324W        W31584  41.931  23.584   2.912
66325W        W31585  21.798  21.755   2.804
66326W        W31586  17.296  31.593  13.069
66327W        W31587  38.016  26.031   0.607
66328W        W31588  14.197   7.351   4.390
66329W        W31589  11.748   8.967   2.165
66330W        W31590  38.898  26.645   0.757
66331W        W31591  41.986  18.218   0.835
66332W        W31592  44.733  37.592  12.008
66333W        W31593  39.996  27.042  14.988
66334W        W31594   6.789  40.947  12.512
66335W        W31595  44.678   5.754  13.907
66336W        W31596  40.980   3.221   2.308
66337W        W31597   2.338  44.277   4.720
66338W        W31598  19.322   0.789  14.395
66339W        W31599  27.575   6.716  10.675
66340W        W31600  39.756  34.932  13.900
66341W        W31601  11.796  15.044   1.934
66342W        W31602  33.844  31.055  13.945
66343W        W31603  44.536  21.956   4.192
66344W        W31604  33.110  32.419  10.783
66345W        W31605  19.347  21.711   1.829
66346W        W31606  40.338  12.296   3.206
66347W        W31607  20.232  42.764  10.300
66348W        W31608  24.592  42.314   1.355
66349W        W31609  39.841  22.673   3.445
66350W        W31610  24.332   7.718   5.264
66351W        W31611  22.996   2.425  11.629
66352W        W31612  29.950  32.953  12.823
66353W        W31613  20.680  12.643   2.711
66354W        W31614  29.927  29.733  14.836
66355W        W31615  42.948  38.522  12.950
66356W        W31616  28.461  36.566   4.260
66357W        W31617  15.119  25.768  13.562
66358W        W31618  19.096   3.478   2.357
66359W        W31619  32.057  34.030   4.600
66360W        W31620   4.914   8.483  14.257
66361W        W31621  35.570  22.675  10.722
66362W        W31622  28.030  16.729  11.492
66363W        W31623   6.367   5.860  13.519
66364W        W31624  36.274  34.531  11.106
66365W        W31625  41.854  12.577   3.309
66366W        W31626  29.481   1.988  14.108
66367W        W31627  18.768  37.514   1.193
66368W        W31628   8.792  32.949   0.245
66369W        W31629  21.369   9.321   1.169
66370W        W31630   6.447  41.536  11.572
66371W        W31631   9.047  32.516  10.617
66372W        W31632   7.423  42.280   3.106
66373W        W31633  26.186  12.921   4.610
66374W        W31634  10.247  30.087   9.976
66375W        W31635  18.607  10.961   0.392
66376W        W31636  34.297  28.507  11.069
66377W        W31637  21.120  12.257  11.063
66378W        W31638  17.716  41.886  13.383
66379W        W31639   7.431  40.771  10.814
66380W        W31640  23.947  33.456  13.105
66381W        W31641  17.574  29.173  12.891
66382W        W31642  14.091  42.476   2.998
66383W        W31643  10.851   2.576  11.967
66384W        W31644  23.736  13.022  12.812
66385W        W31645  31.133  11.867   3.226
66386W        W31646  11.321  35.188   1.213
66387W        W31647  33.981  10.165   4.548
66388W        W31648  32.165  23.873   5.189
66389W        W31649  41.756  33.991   0.760
66390W        W31650  11.655  33.880   1.293
66391W        W31651   9.146  39.033   0.320
66392W        W31652   0.297  39.329  10.961
66393W        W31653   8.138  17.860   3.125
66394W        W31654  20.681  17.850   1.354
66395W        W31655  11.532  28.075  13.768
66396W        W31656  42.862  27.093  11.888
66397W        W31657  30.293  28.122  12.776
66398W        W31658  36.469  34.143   1.518
66399W        W31659   7.186   8.355  13.320
66400W        W31660  43.453  33.874   2.332
66401W        W31661  37.250  30.958  13.023
66402W        W31662  18.136  27.622   3.372
66403W        W31663  39.827  44.224  13.324
66404W        W31664  18.315   5.441  12.014
66405W        W31665  16.638  15.855  10.631
66406W        W31666  30.385   1.196   0.352
66407W        W31667  27.382  30.794   4.029
66408W        W31668  34.624  24.681   1.924
66409W        W31669   6.489   2.811  14.400
66410W        W31670  21.501  17.583   9.835
66411W        W31671  31.394  37.442   3.764
66412W        W31672  28.588  33.078  10.347
66413W        W31673  44.729   8.240  10.327
66414W        W31674  24.169  44.981   3.208
66415W        W31675  19.770   2.466   3.564
66416W        W31676  24.757  17.760   3.489
66417W        W31677   5.656  10.551  11.129
66418W        W31678   8.768  17.802  12.280
66419W        W31679  28.004  29.123   1.371
66420W        W31680  25.131  42.798   1.911
66421W        W31681   1.839  23.985   4.110
66422W        W31682   5.202  40.488  14.701
66423W        W31683  17.424  44.308  14.206
66424W        W31684   1.169  37.563  10.630
66425W        W31685  23.106  21.135   4.264
66426W        W31686   7.343  24.717  13.415
66427W        W31687  20.511  36.117   2.221
66428W        W31688  31.942   8.227  13.895
66429W        W31689  21.994  37.786   2.876
66430W        W31690   1.832  40.325   2.957
66431W        W31691  16.716   1.228  13.379
66432W        W31692  24.997  29.964  11.569
66433W        W31693   1.841  10.909  12.703
66434W        W31694  38.261  44.832   0.834
66435W        W31695  24.192   4.301  14.890
66436W        W31696  40.147  10.611   2.605
66437W        W31697  40.883  24.598   0.899
66438W        W31698  44.255  16.261   2.863
66439W        W31699  35.808  12.679  14.849
66440W        W31700   9.183   8.630  10.526
66441W        W31701   0.565   6.130   2.324
66442W        W31702  26.555  37.547   3.770
66443W        W31703  14.303  14.749   4.574
66444W        W31704  30.283  44.622   2.724
66445W        W31705  22.383   6.196  13.001
66446W        W31706  23.103  28.446   2.411
66447W        W31707  21.956   7.453   3.054
66448W        W31708  24.941  18.682  14.044
66449W        W31709  36.093  44.540  10.669
66450W        W31710   0.808  12.603   3.281
66451W        W31711  15.037  12.121  13.478
66452W        W31712  31.723  13.381  14.552
66453W        W31713  34.050   2.399   4.105
66454W        W31714  13.264  27.495  10.873
66455W        W31715  10.265  28.931   1.772
66456W        W31716  12.114  14.536  10.819
66457W        W31717  14.122  37.011   4.202
66458W        W31718  18.601  30.502  14.529
66459W        W31719  24.124  25.991  11.531
66460W        W31720  39.001  10.555  13.021
66461W        W31721  13.565  42.916  13.498
66462W        W31722  17.127   9.901   4.571
66463W        W31723  41.803  22.958   3.672
66464W        W31724  41.453  35.521  11.792
66465W        W31725   7.892  37.673   4.024
66466W        W31726  20.499  27.591  12.425
66467W        W31727  43.256  40.585  11.964
66468W        W31728  38.551  30.855   3.192
66469W        W31729  30.490  37.771  13.384
66470W        W31730  32.124  38.784   0.756
66471W        W31731   6.349  32.691  14.482
66472W        W31732   6.875  12.018   2.870
66473W        W31733  39.883  25.724   3.660
66474W        W31734  28.219  33.910   0.846
66475W        W31735  43.771  44.765  13.930
66476W        W31736  26.660  14.325   2.292
66477W        W31737  16.540   5.269   0.147
66478W        W31738   0.242  32.710   1.321
66479W        W31739  18.507   3.715   1.363
66480W        W31740  12.666   2.784  13.975
66481W        W31741   0.737   8.753  13.326
66482W        W31742  37.433  35.283   0.973
66483W        W31743  40.596  22.743   4.208
66484W        W31744  28.708  27.973   0.910
66485W        W31745  30.529  25.670   2.752
66486W        W31746  11.890  11.316   1.313
66487W        W31747  18.094  41.287   4.945
66488W        W31748  37.484  38.341   4.250
66489W        W31749  20.426  19.405  14.235
66490W        W31750  34.955  36.413  14.057
66491W        W31751  18.362  44.307  11.263
66492W        W31752   5.106  14.265   0.909
66493W        W31753  39.038  37.847   1.301
66494W        W31754   3.913  25.235   9.934
66495W        W31755  34.997   8.340  10.651
66496W        W31756  14.879   4.930   2.050
66497W        W31757  38.795  43.716  13.826
66498W        W31758   7.340  27.641   0.733
66499W        W31759  40.585   0.486   1.928
66500W        W31760  41.672  33.305  12.173
66501W        W31761   6.777   1.052  13.402
66502W        W31762  15.952   5.540   2.577
66503W        W31763   2.739  32.632  12.081
66504W        W31764  36.311  25.125  14.797
66505W        W31765  31.193  17.537  12.041
66506W        W31766  44.204  28.477  12.903
66507W        W31767  44.905   2.206  11.080
66508W        W31768  44.485  38.005   4.589
66509W        W31769  30.000  31.049   1.708
66510W        W31770   6.395   7.933  13.119
66511W        W31771  39.759  14.763   3.351
66512W        W31772  13.129  12.581  11.077
66513W        W31773  39.497  44.257   2.815
66514W        W31774  13.832  23.594  12.458
66515W        W31775   3.818  40.978   4.077
66516W        W31776  11.904   9.383  10.629
66517W        W31777  12.622  29.213  12.245
66518W        W31778  13.387  22.252   2.357
66519W        W31779   3.394  43.347   2.848
66520W        W31780  24.160  40.660  12.858
66521W        W31781  10.785  34.047  11.149
66522W        W31782  44.492  33.039  13.688
66523W        W31783  30.163  25.103   0.016
66524W        W31784  25.531  20.175   4.634
66525W        W31785   2.155  10.617   0.596
66526W        W31786   8.183  32.543   2.903
66527W        W31787  24.541  43.274   4.486
66528W        W31788  29.361   8.243  11.581
66529W        W31789  25.036   6.510  12.532
66530W        W31790   6.507  36.997  14.583
66531W        W31791  16.671   2.326   1.248
66532W        W31792  34.407  27.520   2.626
66533W        W31793  20.516  34.531  10.431
66534W        W31794   4.080   8.203   0.398
66535W        W31795  29.662  25.940   5.454
66536W        W31796  38.985  19.431  10.193
66537W        W31797  19.242  34.224  13.915
66538W        W31798   7.686  25.966   1.420
66539W        W31799  33.948  37.903   4.068
66540W        W31800  29.526  38.908  12.301
66541W        W31801  26.495  35.379  13.487
66542W        W31802  33.372   0.176  14.472
66543W        W31803  15.315  28.327   0.541
66544W        W31804   8.086  40.925  13.100
66545W        W31805  33.668  19.974  13.923
66546W        W31806  22.083  33.423   4.615
66547W        W31807  10.752  17.061   4.816
66548W        W31808   2.176  10.309  11.578
66549W        W31809  30.506   8.860  14.293
66550W        W31810  34.883  21.585   0.012
66551W        W31811  10.107  32.552   4.506
66552W        W31812   0.569   5.695  12.713
66553W        W31813  34.622  44.878   4.192
66554W        W31814  42.078   0.411  11.677
66555W        W31815   7.308  21.423   4.776
66556W        W31816  21.495  14.720  12.085
66557W        W31817  21.806  38.182   1.685
66558W        W31818   8.578  33.702   1.414
66559W        W31819  19.569  23.262  13.915
66560W        W31820  16.108  18.930   4.241
66561W        W31821   9.615  22.714   2.871
66562W        W31822  29.069  34.987   1.653
66563W        W31823  39.029   5.298  13.886
66564W        W31824  21.676  15.713   4.754
66565W        W31825  34.946  20.674  14.114
66566W        W31826  31.619  22.586  12.070
66567W        W31827  14.904  29.099   1.858
66568W        W31828   5.669  13.252  14.622
66569W        W31829  43.131  30.131  10.996
66570W        W31830  24.930  43.331  11.069
66571W        W31831  29.543  43.504   4.268
66572W        W31832   7.875   7.130  10.628
66573W        W31833  44.342  16.651   1.495
66574W        W31834   1.355  40.188  11.684
66575W        W31835  39.468   2.918  13.976
66576W        W31836  22.616  11.071   3.405
66577W        W31837  27.633  42.281   2.169
66578W        W31838   7.137  33.430  12.021
66579W        W31839  23.430  42.505  13.034
66580W        W31840  34.691  36.012  10.346
66581W        W31841  12.718   9.305   4.781
66582W        W31842  44.684  27.490   4.579
66583W        W31843   2.965  37.561  10.355
66584W        W31844  44.948  13.614   1.024
66585W        W31845  30.102   8.192  13.542
66586W        W31846  10.389  11.844  12.665
66587W        W31847  41.188  18.049   0.264
66588W        W31848   0.838  12.898   3.707
66589W        W31849  32.236  31.175  14.207
66590W        W31850   2.403  41.120   4.208
66591W        W31851  35.908  33.618   1.905
66592W        W31852  36.545  31.136   0.750
66593W        W31853  14.818  11.642   3.647
66594W        W31854  37.385  26.158   0.896
66595W        W31855  27.088   1.983   1.778
66596W        W31856  39.033  44.399   0.986
66597W        W31857   9.853  16.326   1.628
66598W        W31858  35.398   0.962   3.154
66599W        W31859  37.088   4.439   4.463
66600W        W31860   3.169  41.879  14.604
66601W        W31861  13.668  42.800   2.159
66602W        W31862  33.165  13.722  13.511
66603W        W31863  23.960   0.210   0.246
66604W        W31864  31.808  41.336  11.674
66605W        W31865  40.316  17.413   4.666
66606W        W31866  34.944  35.622  14.704
66607W        W31867   4.985  28.952  11.570
66608W        W31868  30.594  37.473  13.995
66609W        W31869  35.837   5.485  12.895
66610W        W31870   0.707  30.917  13.907
66611W        W31871  26.198  20.605  10.440
66612W        W31872  11.718  29.979   0.934
66613W        W31873  19.137  37.298  11.685
66614W        W31874  13.714   5.385   4.302
66615W        W31875  22.552  20.662   2.919
66616W        W31876   8.231   3.912  12.023
66617W        W31877  11.835  20.677   1.258
66618W        W31878  25.174  13.358  13.385
66619W        W31879   5.447  41.994  13.951
66620W        W31880   2.368   6.744  10.606
66621W        W31881   1.502   4.432   0.960
66622W        W31882   4.724  16.577  11.166
66623W        W31883  39.981   9.994   4.647
66624W        W31884  42.845   1.491   2.411
66625W        W31885  31.372   5.785  11.540
66626W        W31886  12.687  20.084   3.045
66627W        W31887  32.358  40.122   1.772
66628W        W31888  18.135  11.277  13.627
66629W        W31889  28.144   4.202  11.911
66630W        W31890  29.248   6.453  12.868
66631W        W31891  33.195  35.335  12.852
66632W        W31892  42.194  11.195  10.589
66633W        W31893   3.280  19.204  12.005
66634W        W31894  33.050  39.003   1.622
66635W        W31895   5.947  31.640   1.236
66636W        W31896  11.595  37.582  10.025
66637W        W31897   1.258  18.086   4.146
66638W        W31898   9.230  28.425  12.946
66639W        W31899  28.184  21.770   1.212
66640W        W31900  11.389  10.225  11.537
66641W        W31901  17.700   0.453   0.771
66642W        W31902  20.205  31.906  11.464
66643W        W31903  18.505  42.446   3.054
66644W        W31904  37.797  40.752   1.715
66645W        W31905  41.883  14.662   0.449
66646W        W31906   2.560  17.496   0.401
66647W        W31907  16.102  22.082   3.077
66648W        W31908  41.419  36.394  13.569
66649W        W31909  27.381  18.727   0.815
66650W        W31910   4.171  28.549  12.525
66651W        W31911  15.774  29.492   0.918
66652W        W31912   0.495  19.123   2.303
66653W        W31913  31.029  42.901   0.215
66654W        W31914  26.460   6.885  13.399
66655W        W31915   2.265  40.101   1.506
66656W        W31916  19.170  41.194   4.169
66657W        W31917   7.923  22.640   4.612
66658W        W31918  23.636  11.364  12.520
66659W        W31919   3.525   0.927   2.765
66660W        W31920  16.563  16.108   3.648
66661W        W31921  22.167   7.918   4.269
66662W        W31922  26.446  26.453   0.303
66663W        W31923  23.920  36.855   2.790
66664W        W31924   5.955  31.878  14.322
66665W        W31925  31.089  24.552   4.364
66666W        W31926   2.562  11.214  10.153
66667W        W31927  20.490  23.391   1.098
66668W        W31928  36.773  44.060   4.511
66669W        W31929  31.813  40.988   0.226
66670W        W31930  44.839   8.251   1.914
66671W        W31931  36.351   5.975  14.023
66672W        W31932  42.427  23.204  13.895
66673W        W31933  27.663  43.468   0.815
66674W        W31934  28.140  25.932   0.343
66675W        W31935  34.404  25.068   2.233
66676W        W31936  11.899  20.015  14.328
66677W        W31937  22.978  13.572   1.762
66678W        W31938   9.407  26.920   2.693
66679W        W31939   2.449  13.018   4.623
66680W        W31940   9.980  11.168  11.444
66681W        W31941   7.263   0.444  12.038
66682W        W31942  34.137  20.969   0.883
66683W        W31943   2.952  32.003  12.808
66684W        W31944  40.974  27.231   0.361
66685W        W31945  26.688   7.430   3.393
66686W        W31946  42.513  23.043  12.139
66687W        W31947  12.416  44.741  13.064
66688W        W31948  17.811  34.057   3.397
66689W        W31949  20.568  29.047  14.082
66690W        W31950  26.568  14.859  12.221
66691W        W31951  21.121  23.944  11.841
66692W        W31952   1.277   0.966  14.847
66693W        W31953  26.898  21.561  11.684
66694W        W31954   7.512  19.633  12.401
66695W        W31955  30.619   9.282   0.085
66696W        W31956  29.615   1.422   0.809
66697W        W31957  27.459  17.243   4.670
66698W        W31958  17.989  44.754   3.207
66699W        W31959   0.562  34.136  12.689
66700W        W31960  23.719  33.844   0.808
66701W        W31961  14.608  43.351   4.348
66702W        W31962  22.480  42.506   2.255
66703W        W31963  17.245  10.669   4.158
66704W        W31964  33.149  21.614  11.030
66705W        W31965  27.676  38.033  12.878
66706W        W31966  38.110   0.568   1.333
66707W        W31967   8.614   0.093   0.434
66708W        W31968  43.083  34.940  13.936
66709W        W31969   8.646   4.810  14.078
66710W        W31970  15.034  15.567   1.682
66711W        W31971  10.813  10.636   1.949
66712W        W31972  15.718  22.066   0.291
66713W        W31973  18.720  12.907   1.915
66714W        W31974  25.109  27.091   3.147
66715W        W31975  43.525   2.110  14.559
66716W        W31976  39.715   3.120  10.694
66717W        W31977  14.257   1.053   3.204
66718W        W31978   0.375  15.716   4.043
66719W        W31979   1.195  41.507  14.015
66720W        W31980  18.426  28.968  13.457
66721W        W31981   0.043  32.086  13.412
66722W        W31982   4.628  43.120  11.358
66723W        W31983  21.638   3.646   1.455
66724W        W31984  14.332  22.174   2.581
66725W        W31985  20.693  43.812  13.602
66726W        W31986  31.325  32.441  12.886
66727W        W31987  27.175  10.797  13.867
66728W        W31988  39.593  13.606  14.465
66729W        W31989   5.380  12.670   1.260
66730W        W31990   9.088   2.339   2.765
66731W        W31991  43.700  30.953   4.534
66732W        W31992  38.319  41.111  13.156
66733W        W31993  38.841  11.696  14.807
66734W        W31994  30.794  14.361   1.195
66735W        W31995  34.285  13.210   2.659
66736W        W31996  40.309  43.865  11.222
66737W        W31997   5.902  37.424  10.458
66738W        W31998   7.431  21.459   2.372
66739W        W31999   5.659  36.053   3.907
66740W        W32000  19.696  14.538  11.650
66741W        W32001   1.488   8.150   1.295
66742W        W32002  12.815  12.743  13.597
66743W        W32003  28.208  20.663   4.580
66744W        W32004  31.581  21.115   1.644
66745W        W32005  30.006  25.172  12.038
66746W        W32006  29.070  30.019   4.203
66747W        W32007   6.772  19.313  14.293
66748W        W32008  22.118  18.143  11.334
66749W        W32009   0.498  17.297   3.382
66750W        W32010   3.325  28.316   4.212
66751W        W32011  42.381  17.069   2.970
66752W        W32012  40.264  10.097  10.409
66753W        W32013  36.833  20.757  13.326
66754W        W32014   6.192  10.358  10.146
66755W        W32015   8.186   2.960   3.691
66756W        W32016  11.524  28.406  11.855
66757W        W32017   2.397  39.114   3.193
66758W        W32018  19.272  44.291   0.682
66759W        W32019  33.444  31.308   3.676
66760W        W32020  39.538  20.558   3.144
66761W        W32021  30.203   9.154  13.629
66762W        W32022  37.359  23.989   1.662
66763W        W32023  34.165   4.788   1.506
66764W        W32024  38.345  21.034  12.339
66765W        W32025  26.246  15.046  13.508
66766W        W32026  12.620  29.425   3.652
66767W        W32027  27.611  11.166  10.496
66768W        W32028  11.744  35.143   2.642
66769W        W32029  20.821  24.239  11.521
66770W        W32030  40.601  10.219  14.576
66771W        W32031  13.200  44.840  10.633
66772W        W32032  28.173  33.077  14.826
66773W        W32033  35.879   2.598  10.933
66774W        W32034  11.845  39.299  14.713
66775W        W32035  18.091   4.405  13.305
66776W        W32036   9.861  25.433   2.179
66777W        W32037   2.128  32.097   4.229
66778W        W32038  30.647  11.178  13.107
66779W        W32039   4.462  28.054   3.031
66780W        W32040  22.260  38.497   1.686
66781W        W32041   9.758  37.412  12.561
66782W        W32042   2.991  13.802  10.482
66783W        W32043  27.410  24.627   1.319
66784W        W32044  33.961  28.428   2.499
66785W        W32045  31.698  33.279  14.762
66786W        W32046  32.903   4.301  11.457
66787W        W32047  40.790  38.552   1.506
66788W        W32048  34.986  39.269   3.315
66789W        W32049   3.843  16.110   2.360
66790W        W32050  19.087   0.979   1.073
66791W        W32051  30.078  33.928  14.263
66792W        W32052  10.271  31.338   3.624
66793W        W32053   9.196  40.401  13.991
66794W        W32054   2.452   4.420  11.548
66795W        W32055  25.311  34.593   2.692
66796W        W32056  13.262  21.660   1.798
66797W        W32057  36.996   2.609   4.996
66798W        W32058  18.878  17.063  12.883
66799W        W32059   4.724  31.374   4.115
66800W        W32060  17.232  33.608  10.054
66801W        W32061  12.381  31.336   0.982
66802W        W32062   3.777  12.107  12.378
66803W        W32063   7.886  22.127  11.910
66804W        W32064  44.054  30.933   3.594
66805W        W32065  16.989  36.816   1.266
66806W        W32066  15.011  20.315   4.711
66807W        W32067  12.202  14.360  11.649
66808W        W32068  40.589  27.042  14.030
66809W        W32069   9.815  24.496  13.896
66810W        W32070  40.220   4.344  11.523
66811W        W32071   4.932   9.421   3.693
66812W        W32072  11.765  38.558   3.279
66813W        W32073  24.972  28.973  11.551
66814W        W32074  41.021  32.046   3.371
66815W        W32075  25.228  35.410  10.568
66816W        W32076  36.093  22.569  12.907
66817W        W32077  19.990  12.097   3.851
66818W        W32078  22.594  25.031  13.535
66819W        W32079  15.634  38.159   3.194
66820W        W32080   5.390  37.488   3.012
66821W        W32081  15.085  24.927  12.993
66822W        W32082  43.983  41.734   2.214
66823W        W32083  20.654  35.728  12.034
66824W        W32084  25.002  40.909   1.898
66825W        W32085   0.979  20.964  11.655
66826W        W32086  42.682  41.247   3.729
66827W        W32087   7.346   1.936   2.114
66828W        W32088  37.061   8.394  12.172
66829W        W32089   4.837  14.101  14.052
66830W        W32090  39.909  27.627  11.090
66831W        W32091  37.962   5.317   2.536
66832W        W32092  26.230  39.287   2.032
66833W        W32093   8.611   9.090   1.713
66834W        W32094  43.477  11.849  13.862
66835W        W32095  28.578  44.865  10.830
66836W        W32096   2.974  44.312  12.009
66837W        W32097  12.437  23.190   4.320
66838W        W32098  33.049  28.700   1.343
66839W        W32099   4.765  40.249  11.667
66840W        W32100  18.767  42.979   1.656
66841W        W32101   8.720  34.709  11.095
66842W        W32102  18.997  32.816  11.963
66843W        W32103  40.962  27.896   1.483
66844W        W32104  40.780   5.810  12.459
66845W        W32105  26.204  24.981  13.393
66846W        W32106  28.146   5.795   1.555
66847W        W32107   4.169  11.369   2.352
66848W        W32108  16.665  39.379  13.520
66849W        W32109  18.465  31.360  11.324
66850W        W32110  31.721  41.849   2.393
66851W        W32111   3.578   9.932   4.508
66852W        W32112  23.014  28.179   0.866
66853W        W32113  35.586  42.942   0.298
66854W        W32114  18.062   9.817  14.956
66855W        W32115   8.962  30.378  11.523
66856W        W32116  18.220  38.776   0.454
66857W        W32117   6.246  15.867   3.314
66858W        W32118  28.989  40.952   3.389
66859W        W32119   7.318   6.333  13.771
66860W        W32120  26.440   9.261  11.699
66861W        W32121   1.679   5.779  11.539
66862W        W32122  38.092  22.391  12.056
66863W        W32123  40.255  44.261  14.785
66864W        W32124   1.522  13.081   3.211
66865W        W32125  29.573  19.004   0.073
66866W        W32126  21.732  18.120  13.538
66867W        W32127  28.028   2.704   4.586
66868W        W32128  37.069  39.960   4.192
66869W        W32129  41.060   5.403  11.640
66870W        W32130  20.932  43.892  14.955
66871W        W32131  25.384   7.764  11.661
66872W        W32132  43.893  32.002  10.913
66873W        W32133  13.353  34.572   0.962
66874W        W32134  41.939  22.517  10.050
66875W        W32135  29.926   5.779  14.425
66876W        W32136  39.839  14.009   1.822
66877W        W32137  24.662  16.381   5.497
66878W        W32138   2.224   0.402  14.979
66879W        W32139   6.272  27.958   1.850
66880W        W32140  31.542  17.106   3.567
66881W        W32141   0.832  37.297   4.603
66882W        W32142  40.611  33.873  10.637
66883W        W32143  24.683  15.070   3.319
66884W        W32144  14.476  37.875  12.365
66885W        W32145  42.378  12.588  14.237
66886W        W32146   3.936  14.643  13.505
66887W        W32147  33.186  33.111  13.667
66888W        W32148  41.001  26.735  13.962
66889W        W32149  33.151  20.294   2.263
66890W        W32150  13.735  10.811   4.089
66891W        W32151   1.859  16.625  11.778
66892W        W32152   4.846  16.812   3.296
66893W        W32153  38.375  26.059  10.647
66894W        W32154  23.277   9.805  13.389
66895W        W32155  39.572   8.779  14.784
66896W        W32156  28.534  14.891   3.487
66897W        W32157   6.513  44.268  12.026
66898W        W32158  20.083  30.960  10.590
66899W        W32159  44.407   4.322   4.876
66900W        W32160  12.173  21.531   2.655
66901W        W32161  17.726   9.630   4.287
66902W        W32162  11.797  44.363   1.766
66903W        W32163  16.692  44.547  12.494
66904W        W32164  11.625  30.133   2.296
66905W        W32165  24.648  18.088   2.043
66906W        W32166  11.122  10.053  13.464
66907W        W32167  40.490  26.961   2.604
66908W        W32168  29.114   8.804   0.478
66909W        W32169  43.596  23.950  13.462
66910W        W32170  21.846  40.102  10.673
66911W        W32171   2.796  11.773  13.818
66912W        W32172  38.566   5.367  14.698
66913W        W32173  15.584  21.528  13.028
66914W        W32174  22.650  28.374  12.067
66915W        W32175  18.273  42.381   4.077
66916W        W32176  27.919   6.223  14.086
66917W        W32177  42.976   0.017  11.016
66918W        W32178   8.437  31.778   2.240
66919W        W32179  27.670  30.162  13.314
66920W        W32180  42.565  41.795   3.654
66921W        W32181   3.042  31.513   0.915
66922W        W32182  38.777  23.951  14.770
66923W        W32183  32.139   3.359   4.161
66924W        W32184  13.875  18.115   4.558
66925W        W32185  12.599  21.722  13.399
66926W        W32186  25.726  30.939  10.916
66927W        W32187  20.661   5.726  12.928
66928W        W32188  21.748  14.608   0.584
66929W        W32189  25.470  44.549  11.419
66930W        W32190   3.279  27.241  14.938
66931W        W32191   3.410  11.003  11.788
66932W        W32192   8.752   8.865   0.782
66933W        W32193  10.737  33.387   3.290
66934W        W32194  24.728  25.258   2.631
66935W        W32195  27.160  10.167  12.539
66936W        W32196  38.764   2.963   0.517
66937W        W32197  33.446  21.249  10.717
66938W        W32198  10.224  16.489   0.416
66939W        W32199  23.989  35.661   0.846
66940W        W32200  17.515   4.782   1.388
66941W        W32201  30.678  37.919  14.336
66942W        W32202  38.429  14.759   4.170
66943W        W32203  17.171  11.518  11.771
66944W        W32204   4.417   1.963   1.435
66945W        W32205  12.951  38.733  12.065
66946W        W32206  38.674   8.246   3.317
66947W        W32207  26.410   9.269   3.240
66948W        W32208  40.987  32.479   3.643
66949W        W32209   9.811  33.393   2.151
66950W        W32210  39.374   2.947  13.123
66951W        W32211  40.081  39.266  12.048
66952W        W32212  20.975  24.906  12.095
66953W        W32213  12.134   0.065   0.402
66954W        W32214   6.701  22.263  13.841
66955W        W32215   5.834   9.434   0.480
66956W        W32216  31.388  13.272  10.604
66957W        W32217   1.300  26.174   1.397
66958W        W32218  21.127   7.971   2.799
66959W        W32219  32.656  33.586   0.049
66960W        W32220  44.846  20.797   0.372
66961W        W32221   5.644  21.789  10.698
66962W        W32222  23.516  21.335  13.943
66963W        W32223  24.162  22.008  11.643
66964W        W32224  13.886   5.969   3.137
66965W        W32225  18.021   6.678  13.761
66966W        W32226   4.485  41.536  14.455
66967W        W32227  35.085  44.987   0.811
66968W        W32228   3.271  33.910   4.419
66969W        W32229  12.297   4.027   5.033
66970W        W32230   1.026  28.853  12.717
66971W        W32231   6.198  26.992  12.476
66972W        W32232   8.844  23.298   2.365
66973W        W32233  25.593   2.890   4.155
66974W        W32234  18.904  36.309   1.332
66975W        W32235   9.813   0.757   3.030
66976W        W32236   2.231  16.074   0.855
66977W        W32237  43.118  24.678  11.916
66978W        W32238  26.652   3.097  10.064
66979W        W32239  26.760  25.152  14.013
66980W        W32240  31.833  39.981  14.298
66981W        W32241  25.687  14.702  12.674
66982W        W32242  30.469  28.498   2.600
66983W        W32243  16.334   4.391   4.395
66984W        W32244  27.946  24.241  14.741
66985W        W32245  37.689   0.525   0.248
66986W        W32246  43.284  22.544   1.232
66987W        W32247  36.419  10.289   2.654
66988W        W32248   4.559  18.945  10.578
66989W        W32249   7.296  29.721  11.452
66990W        W32250  12.184  24.706  11.174
66991W        W32251  43.026  24.697  13.394
66992W        W32252  39.588  25.649  10.620
66993W        W32253   4.260  27.591   4.299
66994W        W32254  13.236  42.382   4.697
66995W        W32255   3.157  43.023   1.212
66996W        W32256  32.625  25.218   1.893
66997W        W32257   4.376  15.511   0.781
66998W        W32258   9.839  22.015  12.838
66999W        W32259   9.942  15.098  12.842
67000W        W32260  27.591  21.365  14.842
67001W        W32261   2.960   8.262   0.162
67002W        W32262  40.794  40.908  11.843
67003W        W32263  11.723   4.969   2.817
67004W        W32264  17.239  24.214   1.913
67005W        W32265  21.666  14.558  14.794
67006W        W32266   2.056  42.541  14.286
67007W        W32267  20.523  41.566   4.553
67008W        W32268  40.898  29.207  12.087
67009W        W32269  10.234  10.131   0.312
67010W        W32270  44.170  11.645  14.513
67011W        W32271  19.976  44.491  12.059
67012W        W32272   7.968  21.503  14.314
67013W        W32273  13.605   9.002  12.971
67014W        W32274   0.703   5.173  13.371
67015W        W32275   4.386  38.665  11.183
67016W        W32276  40.569  24.008  14.184
67017W        W32277  27.665   2.794  11.044
67018W        W32278  29.973  33.196  12.362
67019W        W32279  42.430  18.844  11.616
67020W        W32280  23.657  40.818  14.021
67021W        W32281  11.590  10.880   1.239
67022W        W32282  20.361  44.255   2.172
67023W        W32283   8.556  10.217  13.427
67024W        W32284  11.366   0.976  14.474
67025W        W32285  11.876  10.799   4.141
67026W        W32286  34.664  31.466  13.802
67027W        W32287   8.708  18.216  11.390
67028W        W32288  28.860  24.579   0.359
67029W        W32289  30.177  19.716   0.252
67030W        W32290  13.146   9.950   0.508
67031W        W32291  14.418  32.045  12.652
67032W        W32292   8.577  34.623  10.225
67033W        W32293  17.334  23.269  11.570
67034W        W32294   6.223  27.227   4.307
67035W        W32295  23.157  38.570   0.767
67036W        W32296   3.775  15.556  13.260
67037W        W32297  43.722   8.409  13.972
67038W        W32298  37.359  24.287  10.862
67039W        W32299  20.193  32.060  13.913
67040W        W32300  40.677  37.900   1.031
67041W        W32301  31.195  11.426  13.359
67042W        W32302  20.443  20.540  14.965
67043W        W32303  41.209  31.085   1.423
67044W        W32304  25.636  12.178  12.693
67045W        W32305  28.116  31.614   1.902
67046W        W32306  44.739   9.002  14.894
67047W        W32307  34.624  15.123   2.736
67048W        W32308  44.239  29.026   2.721
67049W        W32309  24.593  16.059   3.305
67050W        W32310  36.008  13.432   4.827
67051W        W32311  39.748  19.611  14.023
67052W        W32312   4.800  22.859  13.676
67053W        W32313  28.392  23.759  10.596
67054W        W32314  25.004  29.716   1.040
67055W        W32315  41.459   4.235  14.521
67056W        W32316  27.725  15.623  14.756
67057W        W32317   0.981  11.302   2.050
67058W        W32318   6.775  26.727  10.154
67059W        W32319  14.282  33.897  13.368
67060W        W32320  40.474  21.618   2.332
67061W        W32321  37.116  29.940   3.841
67062W        W32322   2.411  38.856   4.526
67063W        W32323  29.069   1.845   3.418
67064W        W32324  25.502  16.633   0.442
67065W        W32325   9.713  24.849  12.373
67066W        W32326  42.833   5.384   2.271
67067W        W32327   6.158  44.003  11.772
67068W        W32328  30.371  34.811  10.572
67069W        W32329   9.700   8.674   4.709
67070W        W32330  21.153   2.314  11.564
67071W        W32331  39.815   3.447   3.086
67072W        W32332  24.987   2.011  11.242
67073W        W32333  36.679  32.690   1.390
67074W        W32334  11.377   9.093  13.087
67075W        W32335  29.414  33.435  10.128
67076W        W32336  24.941   4.649  13.926
67077W        W32337  10.562  42.251  11.637
67078W        W32338  14.793  15.801   3.329
67079W        W32339   1.757  30.096   1.248
67080W        W32340   8.401  36.618  12.489
67081W        W32341   3.773  30.602  12.559
67082W        W32342  23.191   3.685   4.491
67083W        W32343  21.195   7.444   4.080
67084W        W32344  32.808  42.174  14.909
67085W        W32345  40.643   1.869   5.466
67086W        W32346  42.516  37.155   2.953
67087W        W32347  29.623  23.905   4.083
67088W        W32348  40.703   7.506  11.877
67089W        W32349  42.912  31.073  11.271
67090W        W32350  32.554  38.444   2.240
67091W        W32351  22.487   2.394  10.328
67092W        W32352  33.522  17.095  14.763
67093W        W32353   3.072  19.669  12.063
67094W        W32354  19.291  43.048  12.706
67095W        W32355  29.672  16.389  11.839
67096W        W32356  19.314  10.590  11.483
67097W        W32357  29.137  22.032   1.442
67098W        W32358  41.940  18.330   4.348
67099W        W32359  26.342   3.706  12.102
67100W        W32360  15.489  33.139   2.803
67101W        W32361   3.365  26.422  13.421
67102W        W32362  32.606  42.866   4.185
67103W        W32363  43.463  38.023   4.671
67104W        W32364   7.387  24.259  11.535
67105W        W32365  30.482  31.127   5.221
67106W        W32366  28.724  43.171  11.161
67107W        W32367   8.021  17.388  12.022
67108W        W32368   9.256  10.689  11.189
67109W        W32369  29.109  35.434   1.394
67110W        W32370   0.759   2.861   1.434
67111W        W32371  19.003   2.715   4.750
67112W        W32372   3.831  30.126   2.875
67113W        W32373   6.907  31.879  12.031
67114W        W32374   0.940  35.492   2.685
67115W        W32375  39.701  27.960  13.416
67116W        W32376  28.251  18.535   0.668
67117W        W32377   8.890  37.552  14.991
67118W        W32378  10.347  21.217   3.647
67119W        W32379  13.429  17.061   1.159
67120W        W32380  43.812  31.792  13.955
67121W        W32381  19.534  34.163   2.750
67122W        W32382  21.015  20.171   2.179
67123W        W32383  32.621  25.641  13.430
67124W        W32384  32.959  40.826  10.542
67125W        W32385   4.250   4.305  11.110
67126W        W32386  31.946  14.150  10.529
67127W        W32387  36.050  25.902  13.877
67128W        W32388   7.423   0.890  10.583
67129W        W32389  21.087  33.855  11.128
67130W        W32390  33.545  36.986   0.960
67131W        W32391   5.278  40.826  12.558
67132W        W32392  14.910  37.488   0.997
67133W        W32393  37.509   4.956   1.976
67134W        W32394  22.186  13.453  12.823
67135W        W32395  11.644  25.454   3.117
67136W        W32396   9.167   9.187  14.682
67137W        W32397  35.153  37.353  14.393
67138W        W32398  18.801  23.711  11.052
67139W        W32399  25.117  21.988  11.428
67140W        W32400  19.174  25.227  12.874
67141W        W32401  20.624  41.144  14.313
67142W        W32402   5.217   4.537  13.246
67143W        W32403   4.106   1.019  14.946
67144W        W32404  44.936  21.510   1.816
67145W        W32405  12.013   2.896  14.275
67146W        W32406   7.162  16.639   2.263
67147W        W32407   0.435  35.802  14.315
67148W        W32408   7.753  20.621   1.752
67149W        W32409  42.033  35.664   0.244
67150W        W32410  44.547   8.313   2.582
67151W        W32411  20.108  36.734   0.777
67152W        W32412  13.893  26.970   4.433
67153W        W32413  26.073  24.558  13.971
67154W        W32414  25.997  35.327   2.600
67155W        W32415  27.076  33.341   3.668
67156W        W32416  15.526  17.586  11.690
67157W        W32417  16.155  29.762  12.284
67158W        W32418  30.003  39.769  12.132
67159W        W32419  44.792  18.472  10.870
67160W        W32420  22.234  21.075   2.152
67161W        W32421  18.379  28.086   3.302
67162W        W32422  43.857   1.784   2.649
67163W        W32423  39.833  26.545   2.312
67164W        W32424  26.250  27.601  12.702
67165W        W32425   5.124  28.451   3.602
67166W        W32426  24.077  34.826  11.068
67167W        W32427  25.266   3.360  10.956
67168W        W32428  32.206   5.354  10.645
67169W        W32429  14.988  17.654  13.009
67170W        W32430  10.156  20.225  10.442
67171W        W32431   3.160   8.282   0.684
67172W        W32432   0.426  32.076  10.281
67173W        W32433   8.882  27.983   1.480
67174W        W32434  43.824  16.297  12.008
67175W        W32435  25.268  18.984  10.319
67176W        W32436  11.392  25.611  14.841
67177W        W32437  33.479  33.977  14.843
67178W        W32438  30.859  27.234   4.171
67179W        W32439  44.346  26.577  13.467
67180W        W32440  14.873   4.270   4.614
67181W        W32441  28.358  42.908   1.297
67182W        W32442  36.038  16.146  13.047
67183W        W32443  17.650  22.092  13.549
67184W        W32444  22.687  39.428  11.436
67185W        W32445  33.275  26.895   5.008
67186W        W32446  26.762  21.342   0.863
67187W        W32447  22.576  33.538  13.006
67188W        W32448  35.444  43.669  10.658
67189W        W32449  41.684   8.204  13.360
67190W        W32450  13.301  21.508   0.854
67191W        W32451  14.733  11.304  10.954
67192W        W32452  23.526  33.335  11.997
67193W        W32453   7.200  20.797   0.883
67194W        W32454   6.481   6.714   1.973
67195W        W32455  39.322   2.886  12.053
67196W        W32456  22.104  34.235   9.856
67197W        W32457  22.743  24.507   0.404
67198W        W32458  37.315  15.773   2.764
67199W        W32459  11.571  30.496   3.635
67200W        W32460  30.203   6.102   3.572
67201W        W32461   8.356  42.391  14.319
67202W        W32462  16.066  12.742   3.307
67203W        W32463   4.849  29.222  14.165
67204W        W32464  18.359  30.065   3.708
67205W        W32465  44.265  10.607   5.100
67206W        W32466  35.801  34.661  12.983
67207W        W32467   0.314  35.368   0.557
67208W        W32468  17.480  17.904   4.630
67209W        W32469   8.817   7.786   2.324
67210W        W32470  15.207   7.694  12.721
67211W        W32471   9.305   2.425   4.746
67212W        W32472   4.960  35.416   1.787
67213W        W32473   2.427  13.188   3.147
67214W        W32474  31.015  21.163   4.606
67215W        W32475  42.620  37.609   1.453
67216W        W32476  23.206  43.303  11.670
67217W        W32477   5.296  35.952   2.688
67218W        W32478   7.771  42.163   2.733
67219W        W32479  42.435   7.885  13.402
67220W        W32480   4.898  31.975  12.745
67221W        W32481  39.558  11.659   4.134
67222W        W32482  25.108  28.878  14.974
67223W        W32483  33.464  22.126   1.368
67224W        W32484   0.803  23.706   1.827
67225W        W32485  26.400  31.242  14.939
67226W        W32486   7.745  14.777   4.667
67227W        W32487  21.589   4.247   4.007
67228W        W32488  20.836  34.114   3.611
67229W        W32489  24.212   9.403  12.516
67230W        W32490  10.929  38.934  11.590
67231W        W32491  30.147  31.806   4.684
67232W        W32492  29.669  32.987  14.543
67233W        W32493  40.728  30.919   0.971
67234W        W32494  36.939  30.658  13.980
67235W        W32495   9.773  38.972   4.815
67236W        W32496  31.118  22.807   2.339
67237W        W32497  34.492   6.266  10.738
67238W        W32498  21.612  12.596   3.636
67239W        W32499  11.341  37.955   1.428
67240W        W32500  19.279   2.352   1.852
67241W        W32501  30.080  33.810   4.778
67242W        W32502  19.326  31.468   3.703
67243W        W32503  26.472  29.834  14.455
67244W        W32504  39.064  30.401  12.545
67245W        W32505  38.887   3.800  14.326
67246W        W32506  42.773  19.174   4.212
67247W        W32507  32.649  30.506   2.863
67248W        W32508  20.661  31.758  10.766
67249W        W32509  23.608  38.504   0.998
67250W        W32510  22.796  13.303   4.489
67251W        W32511  37.988  16.140   4.375
67252W        W32512  35.686  27.417   9.908
67253W        W32513   1.558  13.697   3.585
67254W        W32514   5.437  39.820  11.159
67255W        W32515  16.209  21.764   0.707
67256W        W32516  36.801  25.516   1.912
67257W        W32517  31.984  22.775   4.523
67258W        W32518  16.959  13.103  11.129
67259W        W32519  39.112  22.710  12.610
67260W        W32520  14.408  33.744   4.984
67261W        W32521  29.615  11.062  12.412
67262W        W32522  16.910  43.631   0.463
67263W        W32523  35.992  30.193   0.933
67264W        W32524  17.813  28.680  11.438
67265W        W32525  28.113  22.012   4.624
67266W        W32526   5.052  31.993   4.906
67267W        W32527  26.526  39.290   1.239
67268W        W32528  12.591  18.255   4.168
67269W        W32529  34.602  38.863   3.243
67270W        W32530  44.364   0.997   3.715
67271W        W32531  15.789  38.799   1.290
67272W        W32532   9.804  33.829  11.875
67273W        W32533  20.964  38.113  12.030
67274W        W32534  26.377  33.155   3.209
67275W        W32535  34.740   2.030   3.695
67276W        W32536  34.134  26.037  10.251
67277W        W32537   2.447   5.216   4.942
67278W        W32538  36.313  10.396  10.680
67279W        W32539   7.767   6.860  13.332
67280W        W32540  43.803  41.299  14.990
67281W        W32541  21.560  23.574   4.102
67282W        W32542  33.110   8.771  11.910
67283W        W32543  16.847  34.503   2.749
67284W        W32544  13.040  16.801  11.025
67285W        W32545   3.005  25.584  13.440
67286W        W32546  22.516  42.090   1.767
67287W        W32547  10.018  22.130  13.956
67288W        W32548  37.684  29.081  12.047
67289W        W32549  20.117  32.178   2.853
67290W        W32550  31.985  17.511   5.171
67291W        W32551   8.364  42.543   2.931
67292W        W32552  30.241  39.366  10.855
67293W        W32553  14.119  34.348   2.605
67294W        W32554   6.324  16.124   3.763
67295W        W32555  33.638  28.975  13.534
67296W        W32556  30.442  44.459  11.215
67297W        W32557  16.667  18.047  11.083
67298W        W32558  24.505  35.532   3.254
67299W        W32559  21.467  23.815  14.544
67300W        W32560  35.138  23.792  12.107
67301W        W32561  13.186  31.314   2.214
67302W        W32562  39.470  15.201   2.403
67303W        W32563  40.104  33.401   0.163
67304W        W32564   9.875   2.883  13.042
67305W        W32565  11.893  34.535  14.494
67306W        W32566  14.318   8.177  11.552
67307W        W32567   8.705  23.251  10.570
67308W        W32568   9.264  31.737   3.574
67309W        W32569  21.034  42.991  14.832
67310W        W32570  24.596  21.105  14.795
67311W        W32571  19.574  19.007  11.318
67312W        W32572  38.919  13.813  13.462
67313W        W32573  16.532   1.461  12.949
67314W        W32574  24.354  11.241   3.275
67315W        W32575  30.850  19.538   3.653
67316W        W32576  27.175  25.393  10.734
67317W        W32577  16.571  24.748  12.522
67318W        W32578   0.212  27.507  10.830
67319W        W32579  12.714  27.981  11.462
67320W        W32580  21.880  36.042   2.202
67321W        W32581   3.087  26.277  10.743
67322W        W32582  44.461  28.744   0.458
67323W        W32583   6.417   6.322  14.256
67324W        W32584   2.107  23.382  14.497
67325W        W32585   5.732  23.095   3.548
67326W        W32586  12.171  11.025  11.737
67327W        W32587   1.629  22.610  14.626
67328W        W32588  20.057  44.709   0.541
67329W        W32589  42.321   0.700   2.825
67330W        W32590  10.737   4.387  11.133
67331W        W32591  31.572  19.204   4.135
67332W        W32592   0.846   6.735   3.638
67333W        W32593  41.486  36.659   4.087
67334W        W32594  36.408  40.672  10.269
67335W        W32595  33.728  36.967  12.114
67336W        W32596   0.701  19.731  11.278
67337W        W32597  21.653  43.018   4.218
67338W        W32598  12.139   4.806  12.989
67339W        W32599  22.559   6.174  13.988
67340W        W32600   6.777   2.677  10.443
67341W        W32601  16.069  14.259  13.295
67342W        W32602  29.235  43.140   2.096
67343W        W32603   9.971  41.088   3.830
67344W        W32604  19.339   2.569   2.336
67345W        W32605  40.056  18.700   1.483
67346W        W32606  31.550  24.318   5.529
67347W        W32607   2.347  38.897  14.278
67348W        W32608  31.126  20.265   1.376
67349W        W32609  44.854   4.314  12.051
67350W        W32610  30.075  34.137   0.081
67351W        W32611  41.464  18.860   3.751
67352W        W32612  16.162  14.830  14.484
67353W        W32613  17.716   7.893  13.258
67354W        W32614  10.771  14.785  10.920
67355W        W32615  35.259  22.857  13.481
67356W        W32616   2.014  31.271  13.833
67357W        W32617   7.676  15.627   1.888
67358W        W32618   4.165  38.361   1.291
67359W        W32619  35.517  44.306  13.357
67360W        W32620  12.222  19.774  11.499
67361W        W32621  12.380  13.615   0.938
67362W        W32622  13.190  26.713   1.853
67363W        W32623  24.186  19.783   1.147
67364W        W32624   1.446  11.525   3.625
67365W        W32625  39.920  18.005  11.038
67366W        W32626  16.528  16.108  11.049
67367W        W32627  23.077  31.481  12.081
67368W        W32628   3.867  36.484  14.759
67369W        W32629  33.165  43.368   0.268
67370W        W32630  15.146  30.623  12.902
67371W        W32631   2.923  41.797  11.882
67372W        W32632  13.134  16.264  10.458
67373W        W32633   4.421  35.340  10.810
67374W        W32634  16.357   5.360  10.643
67375W        W32635  22.754  34.496  14.377
67376W        W32636  36.520   4.464  14.051
67377W        W32637  29.153  26.619  12.214
67378W        W32638  34.348  14.676   1.812
67379W        W32639  36.645  40.090   2.252
67380W        W32640   4.469  27.578  12.516
67381W        W32641  18.882  11.623   2.216
67382W        W32642  15.122  41.622  12.935
67383W        W32643  44.775  37.911  14.457
67384W        W32644  43.730  11.295   1.321
67385W        W32645  32.387  20.638  10.892
67386W        W32646  13.377  26.222   0.270
67387W        W32647  27.156  42.301  10.683
67388W        W32648   6.304  26.941   1.682
67389W        W32649  28.069  25.612  10.243
67390W        W32650  26.501   1.315   4.681
67391W        W32651  13.814  29.580  12.840
67392W        W32652  12.756  39.106  13.093
67393W        W32653  36.816  33.302  14.321
67394W        W32654  11.934  44.794  11.795
67395W        W32655  27.891  27.793   2.200
67396W        W32656  44.980  26.216  14.294
67397W        W32657  15.241  32.945   4.554
67398W        W32658  21.496  22.203  12.048
67399W        W32659  25.002  17.164  13.930
67400W        W32660   2.369   5.630  14.762
67401W        W32661   6.840  31.065  11.726
67402W        W32662  41.748  21.553   3.160
67403W        W32663  41.050  11.175   3.633
67404W        W32664  25.593  43.458   2.316
67405W        W32665   3.536  40.835   0.977
67406W        W32666   8.124  29.209   2.466
67407W        W32667   5.167   6.193  10.770
67408W        W32668  27.323  25.885  10.801
67409W        W32669  22.212  17.511   3.272
67410W        W32670  14.874  13.174   3.808
67411W        W32671  13.033  31.349   1.299
67412W        W32672  13.629  24.751  12.853
67413W        W32673  36.393  25.908  13.476
67414W        W32674  34.335  16.210   4.566
67415W        W32675   1.723  11.846   1.938
67416W        W32676  41.703   8.396   0.761
67417W        W32677   6.914  21.178  13.375
67418W        W32678  26.788  29.495   2.337
67419W        W32679   2.753   1.380  11.417
67420W        W32680  20.672  11.817   2.437
67421W        W32681  16.200  26.810  11.475
67422W        W32682  26.061  25.966  12.572
67423W        W32683   4.214  16.285  13.062
67424W        W32684  36.423  37.647  13.968
67425W        W32685  28.034  44.486  13.914
67426W        W32686  41.909   2.992   1.965
67427W        W32687  12.551  19.571   1.852
67428W        W32688  42.455  24.157  14.496
67429W        W32689   9.450  43.744   4.682
67430W        W32690  15.245   5.239  10.685
67431W        W32691  35.521  24.005  13.087
67432W        W32692  24.264  30.330  14.870
67433W        W32693  20.302   5.382  14.001
67434W        W32694  39.666  14.267  12.108
67435W        W32695  32.488  27.015  13.102
67436W        W32696  15.007  32.018   2.257
67437W        W32697   0.916  17.981  10.133
67438W        W32698  41.349   4.234  12.130
67439W        W32699  20.718  32.502  13.700
67440W        W32700  20.158  26.753   0.110
67441W        W32701  29.060  43.462   3.071
67442W        W32702  33.711  17.395   1.362
67443W        W32703  13.870   7.457   9.882
67444W        W32704  10.314  28.525   5.444
67445W        W32705  12.923  44.377  12.402
67446W        W32706  24.769  43.128   0.257
67447W        W32707  10.684  21.441  11.994
67448W        W32708  29.160  20.275   2.274
67449W        W32709  29.003  27.915  12.531
67450W        W32710   3.836  25.054   2.122
67451W        W32711  17.708  15.890   0.240
67452W        W32712  30.624   9.362   4.498
67453W        W32713  34.345  12.692   1.928
67454W        W32714  15.376   9.165  11.895
67455W        W32715   5.902  28.234  11.349
67456W        W32716  18.763  39.293   0.853
67457W        W32717  22.651  28.667   2.163
67458W        W32718  13.150  12.074  11.081
67459W        W32719  11.804  15.791   1.267
67460W        W32720  35.944  33.411  10.709
67461W        W32721  22.375  11.162   4.454
67462W        W32722  37.153   4.034   1.663
67463W        W32723  44.933  29.687   1.789
67464W        W32724   9.394  17.025   0.487
67465W        W32725  24.242  28.945   3.049
67466W        W32726  23.148   3.205  14.259
67467W        W32727  18.340   1.310   0.043
67468W        W32728  35.003  33.744  14.655
67469W        W32729  42.863  42.461   2.070
67470W        W32730   6.360  27.612   0.888
67471W        W32731  35.383  23.653  14.369
67472W        W32732  34.815  13.113   2.565
67473W        W32733  26.684   8.181  10.077
67474W        W32734   8.854  12.066  13.625
67475W        W32735  17.242  14.183   2.812
67476W        W32736  37.920  32.488   4.118
67477W        W32737  43.929   2.891  13.491
67478W        W32738   6.520  32.502   1.365
67479W        W32739  40.546  32.660  13.434
67480W        W32740  44.881  36.115  12.438
67481W        W32741   9.431  20.981  13.488
67482W        W32742  29.848  39.061  13.625
67483W        W32743  40.808   1.532  13.951
67484W        W32744  31.849  20.629   0.024
67485W        W32745  11.507   3.795   1.404
67486W        W32746  18.757  37.456  14.746
67487W        W32747  36.584  39.987   3.390
67488W        W32748  40.357  15.689  12.586
67489W        W32749  25.698  13.611   3.774
67490W        W32750  22.089  26.526  12.065
67491W        W32751  27.623  16.699  14.538
67492W        W32752   5.757   0.142  13.347
67493W        W32753  19.859  20.977  11.097
67494W        W32754  43.280  22.541  14.982
67495W        W32755  19.764   8.331  14.993
67496W        W32756  22.779   0.898  10.734
67497W        W32757  11.345  29.046  14.955
67498W        W32758   8.277  40.933  11.734
67499W        W32759  17.884   1.505  11.576
67500W        W32760  41.729  42.267   3.792
67501W        W32761  14.373  19.230   2.859
67502W        W32762  22.999   0.896   1.678
67503W        W32763  36.184   8.409  10.923
67504W        W32764  30.496  15.310   1.043
67505W        W32765  42.997   3.835   0.637
67506W        W32766  18.539  34.000   1.366
67507W        W32767   1.356  26.956  12.656
67508W        W32768  38.515  12.211  14.332
67509W        W32769  38.845  11.249   2.395
67510W        W32770  29.942  13.444  13.442
67511W        W32771  10.962  31.057  11.032
67512W        W32772  43.983  22.007  11.612
67513W        W32773  26.260  24.992  14.205
67514W        W32774   6.793  37.541   3.658
67515W        W32775  16.726  28.265   0.217
67516W        W32776  38.824  11.162  14.886
67517W        W32777   3.326  10.320   0.222
67518W        W32778  36.334  43.739   3.814
67519W        W32779   4.692  20.653   4.824
67520W        W32780  15.114   3.024   4.091
67521W        W32781  37.017  14.989   2.383
67522W        W32782  38.394  17.757   3.103
67523W        W32783  18.125  19.571   4.510
67524W        W32784   9.175   9.848   0.721
67525W        W32785   9.195  35.752  14.730
67526W        W32786  19.525  15.606  13.408
67527W        W32787  18.965  29.737   1.582
67528W        W32788  25.650   3.018   1.396
67529W        W32789   7.457  31.966  12.894
67530W        W32790  16.283  18.745  14.215
67531W        W32791  28.090  23.441   0.046
67532W        W32792   6.686  32.385   3.659
67533W        W32793   0.696  18.005  14.441
67534W        W32794  14.546  20.550   1.442
67535W        W32795   1.374  35.504   0.342
67536W        W32796  36.823  20.679  11.565
67537W        W32797  14.048   4.045   1.469
67538W        W32798  37.827   8.101  11.632
67539W        W32799  44.425  20.008  13.688
67540W        W32800   4.745  20.787   4.312
67541W        W32801  37.627   5.428  12.933
67542W        W32802  30.442  37.327  10.954
67543W        W32803  38.090  40.261  12.474
67544W        W32804  29.455  10.466   4.223
67545W        W32805   9.885   7.908   2.406
67546W        W32806  20.274  18.388  14.160
67547W        W32807  10.303  12.918  11.685
67548W        W32808   8.130  19.700   0.371
67549W        W32809   3.332  42.043  11.563
67550W        W32810  19.840  43.590  13.560
67551W        W32811  26.835  20.036   0.292
67552W        W32812  20.525  43.722   4.676
67553W        W32813  11.393  21.544  14.731
67554W        W32814  14.191   6.778   5.540
67555W        W32815  26.201   8.826   1.713
67556W        W32816  22.788  43.770   1.216
67557W        W32817  14.273   4.336   0.484
67558W        W32818  24.267  44.574   1.798
67559W        W32819  42.956   1.523  14.599
67560W        W32820  37.368  42.531  11.560
67561W        W32821  28.422   6.426  13.355
67562W        W32822  41.038  26.295   0.367
67563W        W32823   9.667   6.259  14.025
67564W        W32824  28.499  20.354  13.962
67565W        W32825   2.350  23.972   4.284
67566W        W32826  11.218  13.269  11.500
67567W        W32827  23.021  13.046   0.005
67568W        W32828  12.336  15.593   0.308
67569W        W32829  41.330  14.854  12.955
67570W        W32830  35.808   1.827   1.332
67571W        W32831  41.555   4.750   3.111
67572W        W32832   2.196  41.673   2.651
67573W        W32833   0.180  31.674  10.708
67574W        W32834   2.169  38.940   9.837
67575W        W32835  26.055  23.147   4.073
67576W        W32836  41.001  20.050   3.329
67577W        W32837  23.449   9.403   2.017
67578W        W32838  34.446  16.666  10.774
67579W        W32839   9.531  14.252   5.048
67580W        W32840  12.610   4.193   3.713
67581W        W32841  17.769   6.987  12.200
67582W        W32842  44.742  43.964  10.885
67583W        W32843   4.112  23.072   2.767
67584W        W32844  27.940  36.476  13.046
67585W        W32845  27.434   6.328   1.471
67586W        W32846  35.495  15.528  13.261
67587W        W32847  16.111  10.585  11.926
67588W        W32848  16.786  31.061   3.658
67589W        W32849  40.474  32.849   1.130
67590W        W32850  15.709  40.795  10.670
67591W        W32851  15.664   2.960   0.924
67592W        W32852  25.494  23.660   3.703
67593W        W32853  17.759  27.930  11.197
67594W        W32854  38.648  27.053  11.228
67595W        W32855  36.431  37.400  11.246
67596W        W32856  26.219  43.955  10.573
67597W        W32857   9.867  33.189   3.460
67598W        W32858  15.646   8.362   2.464
67599W        W32859  10.594  18.586   1.689
67600W        W32860  21.186   3.262  13.234
67601W        W32861  14.130  13.102   2.215
67602W        W32862  33.479  41.702   1.361
67603W        W32863   9.696   4.880  14.452
67604W        W32864  35.576   8.647  14.544
67605W        W32865  11.330  28.572   0.460
67606W        W32866   8.682  16.613   0.142
67607W        W32867   0.729   5.224  12.515
67608W        W32868  23.603  34.250  14.216
67609W        W32869  32.706   8.803  13.004
67610W        W32870  42.369  41.764  13.398
67611W        W32871  20.264  24.273  13.578
67612W        W32872  25.526  19.843   1.131
67613W        W32873  22.473  43.838  14.938
67614W        W32874  11.229  35.681   1.273
67615W        W32875  24.065  16.113   4.531
67616W        W32876  15.862  35.395   4.183
67617W        W32877   7.175  29.455   4.086
67618W        W32878  43.211  40.002  10.505
67619W        W32879   2.494   6.126   0.720
67620W        W32880  18.977   7.984  12.439
67621W        W32881  30.005   0.856   0.594
67622W        W32882  29.435   3.729   3.728
67623W        W32883  38.843  10.366   3.382
67624W        W32884   1.278  20.148   4.213
67625W        W32885   4.068  32.432  11.911
67626W        W32886  19.039   1.021  13.005
67627W        W32887  12.032   4.374   5.322
67628W        W32888   8.125  11.768  12.136
67629W        W32889  42.922  30.498  13.978
67630W        W32890  29.695  23.737  11.651
67631W        W32891   3.517  12.181  12.812
67632W        W32892  43.292   3.057   4.162
67633W        W32893  39.771  31.644   0.034
67634W        W32894   9.732  11.753  13.891
67635W        W32895  11.043   3.845   1.221
67636W        W32896  30.659  41.467  13.050
67637W        W32897  32.949  36.026   4.259
67638W        W32898  28.065  40.898   0.023
67639W        W32899  27.989  26.650   3.498
67640W        W32900   6.187  24.085   1.937
67641W        W32901   3.773  20.229  10.679
67642W        W32902   2.601   4.772   5.213
67643W        W32903  32.572  15.834  14.008
67644W        W32904  26.094  39.443   0.378
67645W        W32905  29.150  17.886  11.190
67646W        W32906  20.598  31.251  10.854
67647W        W32907  28.278  21.160  12.525
67648W        W32908   8.190  20.688  11.881
67649W        W32909  33.920  33.491  13.080
67650W        W32910   1.322  32.166   4.679
67651W        W32911  38.198  22.732  11.308
67652W        W32912  40.084  33.907  10.679
67653W        W32913   7.175  38.967  14.404
67654W        W32914  34.118  41.038  13.995
67655W        W32915   4.210  33.910   1.604
67656W        W32916  10.205  37.757  12.123
67657W        W32917  43.722  42.803   0.385
67658W        W32918   1.758   2.136  11.148
67659W        W32919  18.374   2.239  13.180
67660W        W32920  12.581   5.409  11.972
67661W        W32921  31.041  26.450   0.811
67662W        W32922  14.357  44.824   3.536
67663W        W32923  32.436   4.567   2.722
67664W        W32924  28.282  19.250   2.556
67665W        W32925  29.571  36.974   2.310
67666W        W32926  42.430  11.102  11.033
67667W        W32927  23.286  18.700   0.072
67668W        W32928  20.074   7.913  13.397
67669W        W32929  33.662  30.276  13.018
67670W        W32930  28.117  42.263  10.650
67671W        W32931   7.210  33.364   3.393
67672W        W32932  27.253   8.485   0.092
67673W        W32933  19.700  18.743   1.475
67674W        W32934  42.257  36.144   0.255
67675W        W32935  24.614  28.991  11.925
67676W        W32936  40.703  17.010  13.835
67677W        W32937  20.959  42.056   1.897
67678W        W32938   3.617   6.782  13.551
67679W        W32939  28.676  26.516  11.255
67680W        W32940  21.407  39.491   2.939
67681W        W32941  41.053  26.884  11.456
67682W        W32942  40.558  39.527  12.600
67683W        W32943   1.708   2.792  13.986
67684W        W32944  27.712  14.729   3.745
67685W        W32945  41.024  12.777   1.369
67686W        W32946  29.891   1.833  13.787
67687W        W32947  17.628   0.464  11.498
67688W        W32948  33.172  24.270  12.068
67689W        W32949  34.714  20.832  12.960
67690W        W32950  10.350  21.335   0.065
67691W        W32951  36.862  14.317  14.321
67692W        W32952  20.610   4.228  14.423
67693W        W32953  16.376  37.175  14.926
67694W        W32954  25.011  26.991   2.647
67695W        W32955   6.001   8.157  12.852
67696W        W32956   5.922  41.012   1.386
67697W        W32957  41.180  33.945  14.360
67698W        W32958   6.836  25.916  12.051
67699W        W32959  36.836  17.778   3.349
67700W        W32960  41.591  38.789  14.409
67701W        W32961  26.251  27.988  13.063
67702W        W32962  21.995  31.421  14.812
67703W        W32963  35.278   0.448   3.176
67704W        W32964   1.338  19.561   1.131
67705W        W32965   9.675  39.374   0.063
67706W        W32966  36.073  31.076   1.461
67707W        W32967   8.440   9.279  10.507
67708W        W32968  20.087  36.413   0.356
67709W        W32969   5.729  13.244   2.102
67710W        W32970  15.370  10.577  11.476
67711W        W32971  17.650  18.322   4.396
67712W        W32972   2.078  27.235  11.232
67713W        W32973  16.105  26.685  12.046
67714W        W32974   1.877  15.306  11.606
67715W        W32975  30.446   9.868  13.503
67716W        W32976  13.981   3.545   1.329
67717W        W32977  24.254  28.456  11.670
67718W        W32978  34.635  16.488  11.606
67719W        W32979   8.637  17.783   3.287
67720W        W32980  34.963  28.735  13.023
67721W        W32981  10.416  29.627  13.880
67722W        W32982  15.864  16.676   0.930
67723W        W32983  20.133  30.632   4.587
67724W        W32984  35.660  24.732  13.558
67725W        W32985  26.975  21.767  13.995
67726W        W32986  34.244  36.835  10.740
67727W        W32987  23.555  22.526   2.347
67728W        W32988  43.371   8.910  11.503
67729W        W32989  24.271  28.215  10.238
67730W        W32990  21.382  37.110   4.581
67731W        W32991   6.787  15.416   4.614
67732W        W32992  29.865  32.209  13.984
67733W        W32993   7.669  24.499  14.395
67734W        W32994  22.133  22.911  10.745
67735W        W32995   2.282   6.762   2.004
67736W        W32996  26.304   5.727   3.770
67737W        W32997  19.939  44.941  10.727
67738W        W32998  19.678  36.866  12.387
67739W        W32999  25.653   3.822   2.829
67740W        W33000  39.026  31.794  14.605
67741W        W33001   9.718   1.334  12.447
67742W        W33002   4.344  34.517   4.409
67743W        W33003   9.131  25.806   4.078
67744W        W33004  36.033  25.729  12.901
67745W        W33005   6.144   9.574  11.973
67746W        W33006  10.224  22.248   0.860
67747W        W33007  44.143  12.967  13.928
67748W        W33008   4.918  40.816   3.182
67749W        W33009  14.150   6.153  14.257
67750W        W33010  34.372  43.977  10.141
67751W        W33011  38.671  12.826  12.417
67752W        W33012  37.182  42.695   0.262
67753W        W33013  36.355  23.079   3.980
67754W        W33014  15.621  19.888  13.879
67755W        W33015   3.213   2.797  14.852
67756W        W33016  25.459  32.438   1.185
67757W        W33017   4.702  16.166  13.258
67758W        W33018  36.915  17.166   3.622
67759W        W33019  20.250  25.999  14.824
67760W        W33020  25.256  18.752   4.443
67761W        W33021  25.162  31.582   3.336
67762W        W33022  28.590  29.940   3.654
67763W        W33023  12.742  11.185  10.453
67764W        W33024  35.104  32.414  11.562
67765W        W33025  16.315  32.096  11.116
67766W        W33026  23.173  24.253   0.259
67767W        W33027  15.019  21.003  12.194
67768W        W33028  19.214  43.915  12.629
67769W        W33029  34.207  30.428   1.393
67770W        W33030  25.035  44.292  11.253
67771W        W33031  30.402  22.969   3.368
67772W        W33032  31.571  43.305  13.008
67773W        W33033  13.887  22.399  13.510
67774W        W33034   3.727  36.001  11.555
67775W        W33035  31.530  18.205  11.238
67776W        W33036  17.328  14.319  11.095
67777W        W33037   4.907  32.791   3.194
67778W        W33038  44.634  10.613   2.144
67779W        W33039   0.767  31.254  11.695
67780W        W33040  10.409  28.984   4.255
67781W        W33041  44.227  24.031   2.855
67782W        W33042  15.308  24.185   1.023
67783W        W33043  12.065  41.316   0.318
67784W        W33044  27.034  12.889  10.766
67785W        W33045  34.111   1.123   4.928
67786W        W33046  18.787  16.595  12.022
67787W        W33047  27.200   7.616  11.889
67788W        W33048   3.505  18.118  10.304
67789W        W33049  44.557  26.423  14.798
67790W        W33050  12.704  18.718  11.472
67791W        W33051  21.324   9.295  13.543
67792W        W33052  10.280  44.079   3.565
67793W        W33053  39.502  31.618  14.500
67794W        W33054  20.478  18.673   3.681
67795W        W33055  28.069  36.609   1.688
67796W        W33056  42.961  42.521  14.534
67797W        W33057  18.020  11.877  14.417
67798W        W33058  27.439   8.054  12.033
67799W        W33059  22.433   7.283   3.154
67800W        W33060  41.315  43.131   4.977
67801W        W33061  23.124  24.209   4.123
67802W        W33062   9.397  16.626  13.879
67803W        W33063  40.369  33.544  10.929
67804W        W33064   6.162  13.344  13.773
67805W        W33065   3.481  14.560   1.783
67806W        W33066  24.220  33.002   4.025
67807W        W33067   2.410  40.365  11.729
67808W        W33068   6.474   0.813  13.757
67809W        W33069   2.794  27.611   3.333
67810W        W33070  14.793   5.162   4.180
67811W        W33071  41.395  32.568   0.691
67812W        W33072   9.241   1.078   2.325
67813W        W33073  26.502   8.687  13.478
67814W        W33074  32.485  44.450   4.701
67815W        W33075   7.649  38.736   3.133
67816W        W33076  19.373  29.344  14.903
67817W        W33077  21.722  17.783  14.919
67818W        W33078  10.650   7.105   1.348
67819W        W33079  15.965  17.020   1.892
67820W        W33080  27.244  17.499   1.837
67821W        W33081  15.564  33.644   4.143
67822W        W33082  14.761  21.534  11.551
67823W        W33083  36.491  37.929   3.865
67824W        W33084  20.721  34.639  13.857
67825W        W33085  32.370  17.297   1.758
67826W        W33086  35.348   9.993   0.936
67827W        W33087  35.014  13.955   4.130
67828W        W33088  39.735  12.106  12.608
67829W        W33089  24.100  10.689   1.497
67830W        W33090   1.461   3.525   4.232
67831W        W33091  35.670  29.975   1.347
67832W        W33092  13.669  40.410  12.147
67833W        W33093   9.855  16.886   3.931
67834W        W33094  25.695  13.776   0.678
67835W        W33095  32.895  15.024  11.822
67836W        W33096  36.312  42.942   4.116
67837W        W33097  28.020   7.168  13.790
67838W        W33098   3.368  26.760   2.622
67839W        W33099  34.336  20.347  12.082
67840W        W33100  28.598   1.206  13.466
67841W        W33101  36.424   4.575   1.382
67842W        W33102   4.758  27.956  14.520
67843W        W33103   5.805  32.514   3.151
67844W        W33104  20.032   7.888   0.661
67845W        W33105  13.620  34.291  11.164
67846W        W33106  42.365  39.891   2.451
67847W        W33107  18.091   7.923  14.066
67848W        W33108  39.952  24.078  14.832
67849W        W33109  25.475   8.842  14.086
67850W        W33110   6.279  23.928   4.188
67851W        W33111  18.808  24.272  11.201
67852W        W33112   1.241  23.211   0.768
67853W        W33113  27.248  19.674  11.375
67854W        W33114  35.947   2.832   4.117
67855W        W33115  35.028   1.439  12.407
67856W        W33116  32.326   1.542  14.859
67857W        W33117  29.364  26.215  11.877
67858W        W33118  17.569  25.996   2.670
67859W        W33119  34.427  33.423   2.770
67860W        W33120  19.351  23.523  11.539
67861W        W33121   4.032   4.820  14.810
67862W        W33122  11.253  36.859  12.595
67863W        W33123   3.684  11.603  10.675
67864W        W33124  18.173  44.755   0.374
67865W        W33125  26.949  40.474  10.649
67866W        W33126  21.237  17.239  11.518
67867W        W33127   5.470   3.749   0.940
67868W        W33128  27.016  11.128   4.037
67869W        W33129  11.649   5.637   3.539
67870W        W33130  35.661  18.218  11.218
67871W        W33131  37.089   3.955   9.799
67872W        W33132  23.482  20.499   3.083
67873W        W33133  35.167  44.154   0.319
67874W        W33134  28.769  33.532   0.370
67875W        W33135  23.703  39.602  14.421
67876W        W33136  44.856   4.724  12.392
67877W        W33137  21.753  23.538  13.768
67878W        W33138  33.004  27.072   3.891
67879W        W33139   9.545  31.145   1.488
67880W        W33140  29.618  38.437  14.983
67881W        W33141  43.628   0.953  14.065
67882W        W33142  21.985  30.970  14.267
67883W        W33143  30.366  39.649  13.869
67884W        W33144  36.361  40.355   2.627
67885W        W33145  38.339  31.626   3.661
67886W        W33146  36.353  43.285   4.533
67887W        W33147  21.013   3.781   3.799
67888W        W33148  12.116  10.848  13.709
67889W        W33149  16.837  26.366  13.369
67890W        W33150   7.208  37.517   2.903
67891W        W33151  31.622  15.388  12.015
67892W        W33152  10.862   2.047  11.985
67893W        W33153  39.510  37.111   3.688
67894W        W33154  16.078   8.637   1.685
67895W        W33155  25.801   8.175  14.663
67896W        W33156   9.515  12.300   1.900
67897W        W33157  22.055  33.151  13.394
67898W        W33158   3.860  21.985   2.067
67899W        W33159   5.860   3.267  14.247
67900W        W33160  42.461  24.796   2.670
67901W        W33161  10.637   6.439   0.389
67902W        W33162  39.798  33.479  10.788
67903W        W33163  11.568   1.284   1.661
67904W        W33164  42.262   4.256  12.080
67905W        W33165   1.025  28.926   4.007
67906W        W33166  25.897  39.965   3.103
67907W        W33167  41.832  41.817  11.265
67908W        W33168   4.207  20.974  14.688
67909W        W33169   5.349  23.932  14.366
67910W        W33170  24.203  22.283  14.346
67911W        W33171  33.839  29.634  13.883
67912W        W33172  26.196  13.154   2.337
67913W        W33173  39.033   5.506  11.437
67914W        W33174  38.505  10.186  14.286
67915W        W33175  13.223   2.415  11.062
67916W        W33176  31.358  16.860  11.626
67917W        W33177  13.768  11.632   0.321
67918W        W33178  27.100  18.052  12.659
67919W        W33179  36.174  39.354   2.776
67920W        W33180  14.161   7.774  12.376
67921W        W33181  23.757  41.045   0.518
67922W        W33182   0.386   3.977  14.219
67923W        W33183  20.570   4.889  11.601
67924W        W33184  44.803   8.360   4.473
67925W        W33185  11.467  37.503   2.723
67926W        W33186  16.553  31.622  11.103
67927W        W33187  36.489  10.751   3.231
67928W        W33188   4.132  32.618   0.969
67929W        W33189  16.046   8.653  13.867
67930W        W33190  37.487  12.549   2.389
67931W        W33191  16.185  32.555  12.856
67932W        W33192  42.101  32.000  10.617
67933W        W33193  38.959  23.652   2.960
67934W        W33194  26.083  42.459  13.939
67935W        W33195  38.989  40.201   3.697
67936W        W33196  25.751  20.842   0.338
67937W        W33197  34.509  44.332  13.336
67938W        W33198  11.727  39.935   4.373
67939W        W33199  33.284  21.073   4.085
67940W        W33200  25.198  29.877  12.069
67941W        W33201  35.668  20.290   0.003
67942W        W33202  28.072  22.273  10.046
67943W        W33203  26.546  25.537  14.826
67944W        W33204  43.464  27.888  11.773
67945W        W33205  19.331  11.235  14.045
67946W        W33206  13.165  18.129   0.247
67947W        W33207  19.750  10.745  13.880
67948W        W33208  30.683  39.980  11.545
67949W        W33209  14.354  16.621  11.519
67950W        W33210  28.680   7.890  14.514
67951W        W33211  33.935  28.940   2.579
67952W        W33212  37.396  40.092   2.781
67953W        W33213  29.533   8.602   1.287
67954W        W33214  24.174  38.779   3.709
67955W        W33215  43.439  29.684  10.775
67956W        W33216   6.602  13.728  12.504
67957W        W33217   6.190  19.569  10.778
67958W        W33218   1.941  27.567  12.934
67959W        W33219   2.334  23.805  10.682
67960W        W33220   1.291   3.684   1.618
67961W        W33221  43.792  33.987   4.849
67962W        W33222  30.643  24.351   4.557
67963W        W33223  35.962  37.269  10.984
67964W        W33224  34.770   6.455  14.147
67965W        W33225  19.275  27.556   2.340
67966W        W33226  35.612  15.090  12.521
67967W        W33227  29.967  12.905  13.508
67968W        W33228  21.163  17.795  10.761
67969W        W33229   7.765  12.759  13.011
67970W        W33230  27.059  24.208   4.202
67971W        W33231   6.711  29.241  12.097
67972W        W33232  10.435  18.273   4.558
67973W        W33233  15.656  23.267  13.913
67974W        W33234   3.444   6.810   4.198
67975W        W33235  39.104  37.394  10.601
67976W        W33236  32.573  22.216  13.465
67977W        W33237  38.549  17.716  11.637
67978W        W33238  35.385  42.951   4.476
67979W        W33239  36.523  16.298  11.013
67980W        W33240   3.850  18.296  14.744
67981W        W33241  17.501   6.447  10.474
67982W        W33242  41.742  33.883   3.671
67983W        W33243   5.935  13.220   3.604
67984W        W33244  31.149  44.566   5.059
67985W        W33245  16.010  41.229   1.325
67986W        W33246  41.220  44.753  11.491
67987W        W33247   7.882  38.778  11.123
67988W        W33248  20.588   3.337   3.103
67989W        W33249  29.823  33.676  13.881
67990W        W33250   7.150  23.416   4.591
67991W        W33251  28.120  40.536  11.184
67992W        W33252  29.758  14.316   0.109
67993W        W33253   2.870   8.984  11.319
67994W        W33254   9.872  26.602  13.093
67995W        W33255   7.724   3.421  12.478
67996W        W33256  24.698   1.359  13.874
67997W        W33257  29.084  44.596  12.350
67998W        W33258  10.755  21.917   3.913
67999W        W33259  10.363  13.915  12.492
68000W        W33260   0.714  31.262   0.783
68001W        W33261  32.583  13.863  11.244
68002W        W33262  33.774   7.800   3.417
68003W        W33263  43.818  13.712   3.634
68004W        W33264  31.590   2.236  10.662
68005W        W33265  28.861   4.953   4.170
68006W        W33266  35.039  29.608   3.167
68007W        W33267  17.050   2.924  13.965
68008W        W33268  27.970  34.361   2.786
68009W        W33269  11.926  34.821   5.055
68010W        W33270  10.870  42.531  14.021
68011W        W33271  30.673   2.391  13.799
68012W        W33272  28.897  17.728  10.783
68013W        W33273  22.312  30.069  12.445
68014W        W33274  44.832  15.842   4.313
68015W        W33275  37.410  17.841  12.504
68016W        W33276  31.422  26.640  12.387
68017W        W33277   8.522  43.321  12.359
68018W        W33278   1.843  32.260  10.654
68019W        W33279  18.749  10.696  14.916
68020W        W33280   6.434   0.275   2.530
68021W        W33281  43.301  27.968   0.801
68022W        W33282  39.901  22.724  10.704
68023W        W33283  21.193   9.528   0.744
68024W        W33284  16.655  25.635   0.919
68025W        W33285   4.621  10.534   0.045
68026W        W33286   4.935  31.525  11.464
68027W        W33287  33.873   2.914   3.347
68028W        W33288  35.467   2.010  11.905
68029W        W33289   9.790  23.331  10.701
68030W        W33290  15.792  31.350  14.440
68031W        W33291  11.991   3.151  10.381
68032W        W33292  20.629  31.561   1.496
68033W        W33293   6.219   1.027  14.803
68034W        W33294  35.040  23.522   1.110
68035W        W33295  15.634  22.696   4.513
68036W        W33296  24.456  23.818   2.843
68037W        W33297  19.452  26.941  11.611
68038W        W33298  31.521  35.204   3.289
68039W        W33299  16.140   0.314   0.760
68040W        W33300   2.221  22.650  11.379
68041W        W33301  12.525  33.641   2.155
68042W        W33302  10.285  18.687  10.883
68043W        W33303  25.551  16.236  14.277
68044W        W33304  13.095  15.814  10.722
68045W        W33305  43.329  13.137   0.791
68046W        W33306  19.227  27.957  10.392
68047W        W33307   2.841  25.207  12.803
68048W        W33308   0.932  18.689   4.703
68049W        W33309  38.835  38.600  11.124
68050W        W33310   4.445  42.794  14.125
68051W        W33311  15.272  14.690  12.974
68052W        W33312  23.226  32.292   3.278
68053W        W33313  40.263  39.534  14.291
68054W        W33314  12.628  19.074  12.944
68055W        W33315  24.566   4.346  12.834
68056W        W33316   5.262  10.680   1.367
68057W        W33317   4.396  30.562   3.064
68058W        W33318  12.453  32.114  14.211
68059W        W33319  22.482  25.960   1.749
68060W        W33320   3.313  10.121   3.216
68061W        W33321  12.270   2.034  12.093
68062W        W33322  22.846  21.915   3.839
68063W        W33323  16.782  11.949  14.944
68064W        W33324  21.362  19.969  12.582
68065W        W33325  22.634   2.655   0.885
68066W        W33326  38.035  21.031  11.937
68067W        W33327   2.520   6.891  14.384
68068W        W33328   4.694  14.968   3.844
68069W        W33329   5.696  44.068  14.938
68070W        W33330  23.270   9.138  13.984
68071W        W33331  16.006  25.125  13.812
68072W        W33332  36.587   3.708  11.521
68073W        W33333   0.393  16.110  11.277
68074W        W33334   3.891  32.474  13.857
68075W        W33335  36.892   0.254  13.401
68076W        W33336  14.701  29.417   2.917
68077W        W33337  22.052  20.249   0.371
68078W        W33338  23.131   3.228   4.180
68079W        W33339  24.770  24.494  11.016
68080W        W33340  13.856  33.568  11.628
68081W        W33341  15.253  21.836  12.758
68082W        W33342  41.497  22.560  12.552
68083W        W33343  41.523  26.646  14.558
68084W        W33344  36.183  44.609  13.851
68085W        W33345  44.443   4.051  12.238
68086W        W33346  26.933  26.701   2.856
68087W        W33347  20.178  12.323  10.991
68088W        W33348  20.952  44.955   1.467
68089W        W33349   9.198  15.210   3.222
68090W        W33350  12.603  12.834  12.104
68091W        W33351  15.023  15.163  10.995
68092W        W33352  26.391  20.245   1.517
68093W        W33353  30.456  23.116  12.384
68094W        W33354   0.786   3.576   0.687
68095W        W33355  11.067  17.597  10.890
68096W        W33356  13.590  40.568   2.376
68097W        W33357  32.958  11.210   3.133
68098W        W33358   7.761   8.537   0.862
68099W        W33359  39.846  26.366  12.933
68100W        W33360  25.975  11.758   3.175
68101W        W33361  10.432  14.721   0.969
68102W        W33362  39.389  29.730   2.850
68103W        W33363  28.889   8.202   4.486
68104W        W33364  14.202  43.659  11.130
68105W        W33365  36.555   4.995  12.574
68106W        W33366  12.888   0.801   1.882
68107W        W33367  32.096  37.476  12.055
68108W        W33368  28.601  30.365   2.292
68109W        W33369  31.707  13.323   1.430
68110W        W33370   4.271  26.731   2.120
68111W        W33371  25.753   3.961   4.178
68112W        W33372  13.326  32.967   0.255
68113W        W33373  18.319  28.080   2.798
68114W        W33374   6.243  19.015   1.339
68115W        W33375  40.630  29.028   2.541
68116W        W33376  38.686  31.723   1.697
68117W        W33377   2.008  24.744   3.745
68118W        W33378  38.602  41.467  12.332
68119W        W33379  43.873  11.897   3.706
68120W        W33380  31.018  37.106  10.721
68121W        W33381  41.912  42.227   2.952
68122W        W33382  16.748   6.651  11.533
68123W        W33383  44.640  12.680  11.702
68124W        W33384  36.095  33.461  12.420
68125W        W33385   7.830  24.048   1.401
68126W        W33386  11.698   5.199   1.414
68127W        W33387  15.322   5.710  12.470
68128W        W33388  12.731  33.129  14.012
68129W        W33389  27.976   8.477   2.573
68130W        W33390  19.507  21.060  10.689
68131W        W33391   8.186  22.474  14.828
68132W        W33392  44.826  16.076   1.719
68133W        W33393  37.056  40.843  12.444
68134W        W33394  41.330  18.110  11.882
68135W        W33395  21.466  17.291  11.083
68136W        W33396   4.395  18.625  12.623
68137W        W33397   6.140  21.175  14.422
68138W        W33398  24.590  26.441  12.380
68139W        W33399  42.300   9.593  12.936
68140W        W33400  24.262  26.114   4.760
68141W        W33401  17.573  28.180   4.593
68142W        W33402  39.250  33.630   0.829
68143W        W33403  26.491  42.256  12.900
68144W        W33404  31.592  31.846  12.543
68145W        W33405   7.767  26.387  11.237
68146W        W33406  28.021  28.988   2.912
68147W        W33407  28.432  12.956   4.715
68148W        W33408  43.650  27.195   2.756
68149W        W33409   2.876  40.604   2.106
68150W        W33410  37.740   4.373   0.478
68151W        W33411  18.616  16.112  11.862
68152W        W33412   9.721  33.642   2.585
68153W        W33413  19.259  17.280   3.756
68154W        W33414  42.190  19.809   3.758
68155W        W33415  32.062  37.479   0.239
68156W        W33416  21.115   6.469   2.359
68157W        W33417  37.899  16.232   4.884
68158W        W33418  15.386  25.934   0.063
68159W        W33419  14.649   3.008   0.252
68160W        W33420  15.205   3.370  13.225
68161W        W33421  30.519   7.875  10.549
68162W        W33422  17.011   7.866  12.961
68163W        W33423  38.551  44.062  13.030
68164W        W33424  17.567  40.943  14.924
68165W        W33425  35.447  34.934   3.461
68166W        W33426  22.983  29.520  11.273
68167W        W33427   3.988  11.419   0.974
68168W        W33428  28.082  41.715   0.759
68169W        W33429  10.400  40.897   3.616
68170W        W33430  40.749  34.888  11.349
68171W        W33431   9.234   6.699  12.842
68172W        W33432   3.594  13.345   0.756
68173W        W33433  26.501  24.672   4.389
68174W        W33434  40.359  44.104  10.755
68175W        W33435  30.621  41.533  10.658
68176W        W33436  25.711   9.820  14.324
68177W        W33437   0.535  16.736  14.079
68178W        W33438   9.708  28.467  11.105
68179W        W33439  20.819  19.909  13.406
68180W        W33440   4.399   1.801   0.038
68181W        W33441   5.156  18.233   3.136
68182W        W33442  41.934  24.500   1.959
68183W        W33443   6.623  23.855  11.037
68184W        W33444  31.370  20.810  11.141
68185W        W33445  26.508  16.724  11.607
68186W        W33446  20.118  31.874   4.369
68187W        W33447  33.474  27.832   0.271
68188W        W33448  31.610  19.672  13.562
68189W        W33449   3.802  17.762   1.509
68190W        W33450  25.093  12.389   1.838
68191W        W33451  20.632  25.567   0.344
68192W        W33452  20.567  24.016  14.442
68193W        W33453  30.576   2.349  11.652
68194W        W33454  18.287  41.493   1.874
68195W        W33455  11.862   4.948  13.912
68196W        W33456  17.265  13.091   2.244
68197W        W33457  37.328  35.327  11.509
68198W        W33458  13.299   3.423   2.344
68199W        W33459   9.443   4.493  13.998
68200W        W33460  38.144  33.787   0.086
68201W        W33461   7.649  36.769   3.012
68202W        W33462  33.712  16.049   3.257
68203W        W33463  36.362  13.786   2.317
68204W        W33464  20.920  42.569  11.843
68205W        W33465  41.382   2.034   0.828
68206W        W33466   5.416   7.120   1.264
68207W        W33467  30.155  12.115  12.248
68208W        W33468  40.821  40.153   4.831
68209W        W33469  13.597  27.371   4.538
68210W        W33470  28.404   6.668  14.949
68211W        W33471  22.734  21.142   0.093
68212W        W33472   3.449  44.523  12.043
68213W        W33473  42.012  44.325   1.018
68214W        W33474  17.109  17.549   4.588
68215W        W33475  30.892   1.457  12.948
68216W        W33476   4.747  22.681   0.396
68217W        W33477  32.171  10.628   1.322
68218W        W33478  18.414  39.400   2.377
68219W        W33479  26.938  10.120   1.039
68220W        W33480  23.577  19.062  11.673
68221W        W33481  12.168  28.117  10.619
68222W        W33482  22.055   3.606   4.199
68223W        W33483  40.912  15.569  14.875
68224W        W33484  33.623   3.989  11.078
68225W        W33485  24.438  37.112  12.110
68226W        W33486  29.179  44.533   3.646
68227W        W33487  40.313  41.860  12.986
68228W        W33488  21.891   1.413  12.729
68229W        W33489  20.954  44.528   4.756
68230W        W33490  32.784  29.519  12.894
68231W        W33491  12.566  18.070  13.783
68232W        W33492  31.954  19.116   4.562
68233W        W33493   1.008  39.146  12.050
68234W        W33494   8.184   9.726   4.586
68235W        W33495   1.509  31.094  13.756
68236W        W33496   0.961  13.396  14.037
68237W        W33497  22.009  21.653  13.296
68238W        W33498  33.005  31.387  14.511
68239W        W33499  41.376  19.699   3.252
68240W        W33500  13.439  43.022   3.378
68241W        W33501  42.739  42.049   1.799
68242W        W33502  28.990  32.484  14.084
68243W        W33503  19.018   6.014   2.716
68244W        W33504  37.103  28.433  11.042
68245W        W33505  16.855  18.025   0.465
68246W        W33506  29.430  22.529   0.896
68247W        W33507  35.592   5.646   1.372
68248W        W33508  21.114  19.310   4.742
68249W        W33509  41.928  30.470   3.510
68250W        W33510  24.590   0.254  12.386
68251W        W33511   3.847  10.348  11.098
68252W        W33512  25.218  25.048  13.095
68253W        W33513  21.508   6.617   2.730
68254W        W33514  18.724   5.666   1.281
68255W        W33515  25.768  18.203  13.068
68256W        W33516   2.291   5.463   1.642
68257W        W33517  19.059  24.603  13.920
68258W        W33518  14.372  42.022  11.812
68259W        W33519  16.644  31.508   3.886
68260W        W33520  36.943  20.586   0.262
68261W        W33521  25.499   7.629   3.442
68262W        W33522  29.998   0.453   1.557
68263W        W33523  32.501  22.540  12.437
68264W        W33524  44.747   0.244   1.896
68265W        W33525  30.324   8.491   2.732
68266W        W33526   6.570  38.995  12.132
68267W        W33527  15.390  41.776   4.959
68268W        W33528  26.729  31.857  12.612
68269W        W33529   7.896  37.920  14.775
68270W        W33530  29.567  23.459   2.124
68271W        W33531   5.685  16.549  13.095
68272W        W33532   0.913   2.782  14.370
68273W        W33533   8.579   7.615   5.376
68274W        W33534  29.448  26.971  12.480
68275W        W33535  13.239   3.301   4.490
68276W        W33536  41.970  28.697  12.335
68277W        W33537  44.837  23.557  12.069
68278W        W33538  23.057   9.357   2.927
68279W        W33539  44.269  15.250   4.641
68280W        W33540  36.522  12.246  13.092
68281W        W33541  44.940  31.172   3.285
68282W        W33542  42.079  27.961   2.487
68283W        W33543   1.626   6.928  13.614
68284W        W33544  20.964  11.535  14.853
68285W        W33545  29.779  14.253  11.437
68286W        W33546  18.355  20.023   0.325
68287W        W33547   2.143  19.082   2.434
68288W        W33548  36.061  26.101  12.094
68289W        W33549  30.512  44.992  10.513
68290W        W33550  21.728  21.421   3.206
68291W        W33551   1.373  33.095   4.756
68292W        W33552   7.232   9.663   4.701
68293W        W33553   4.528   1.338  12.385
68294W        W33554  38.125  25.564  11.102
68295W        W33555  43.101  26.035  10.297
68296W        W33556   4.741  25.988  11.985
68297W        W33557  15.340  25.118   0.945
68298W        W33558  14.394  41.877  13.530
68299W        W33559  23.648  10.808  14.611
68300W        W33560  16.104  13.983  12.534
68301W        W33561  28.549  28.703  14.514
68302W        W33562  13.801   3.077  12.588
68303W        W33563  32.831   3.604   3.565
68304W        W33564  20.661  16.526   0.269
68305W        W33565  23.075  23.015   1.658
68306W        W33566  39.806  28.934   3.694
68307W        W33567  14.778  39.908   0.412
68308W        W33568  12.728  34.373  13.157
68309W        W33569  11.601  36.118   2.620
68310W        W33570  36.213  32.838   0.037
68311W        W33571  32.993  11.138  11.867
68312W        W33572  31.378  16.094  14.693
68313W        W33573  39.027  41.097  11.023
68314W        W33574  28.978   7.446  12.856
68315W        W33575  42.430   2.705  11.501
68316W        W33576  14.270   5.440  13.068
68317W        W33577  25.047  33.030   2.976
68318W        W33578  39.833  22.002  11.196
68319W        W33579  13.334   2.918  12.388
68320W        W33580  35.542  28.227   2.867
68321W        W33581  26.959   2.580  13.133
68322W        W33582   5.351   0.771  11.117
68323W        W33583  10.830  29.537  11.518
68324W        W33584  36.645  32.120   4.049
68325W        W33585  13.486  31.061   4.119
68326W        W33586   3.635   3.914  11.475
68327W        W33587  27.487  11.691  14.695
68328W        W33588   6.673   4.880  12.564
68329W        W33589   4.966  20.049  13.935
68330W        W33590  22.354  20.403   3.729
68331W        W33591  20.360  43.522  12.008
68332W        W33592   2.745   3.345  11.986
68333W        W33593  41.302  35.323  14.952
68334W        W33594  37.844   8.379   2.904
68335W        W33595  32.632  17.191  14.808
68336W        W33596  42.804  19.055  14.425
68337W        W33597  39.853   5.868  11.067
68338W        W33598  18.839   8.554   1.207
68339W        W33599   6.767   4.651   1.349
68340W        W33600  33.611   8.223   3.662
68341W        W33601  37.870  18.565   3.627
68342W        W33602  42.175   6.581   1.809
68343W        W33603   9.434  25.183  14.476
68344W        W33604  11.736  12.122  13.862
68345W        W33605   5.164   1.334  14.998
68346W        W33606   2.210  13.700  13.537
68347W        W33607   0.383  21.712   0.674
68348W        W33608   7.464  27.668   3.673
68349W        W33609   9.131  42.864  11.157
68350W        W33610   9.203  18.781  14.783
68351W        W33611  33.723  12.883  14.261
68352W        W33612  33.365  44.956  11.482
68353W        W33613   7.622  42.968  11.303
68354W        W33614  21.090   7.820   3.733
68355W        W33615  31.332  43.008  11.143
68356W        W33616   8.937   9.532  14.985
68357W        W33617   5.296   2.705   2.622
68358W        W33618  29.099   3.079   0.288
68359W        W33619  42.807  26.902  13.396
68360W        W33620   3.259   5.596  13.862
68361W        W33621  16.787  29.607   4.582
68362W        W33622   6.479   7.241   2.115
68363W        W33623  37.655   8.133  14.907
68364W        W33624  32.592  10.795  13.891
68365W        W33625   6.688  14.578   4.640
68366W        W33626  23.262  43.370   3.581
68367W        W33627  43.109   5.388  11.392
68368W        W33628  35.067  36.617   4.559
68369W        W33629   9.833  35.902  12.838
68370W        W33630  38.964  24.114   0.237
68371W        W33631  11.128  17.563  13.494
68372W        W33632  29.989   1.846   0.204
68373W        W33633  12.195  39.923   0.868
68374W        W33634   9.161  13.020  12.877
68375W        W33635  21.578  34.689   0.427
68376W        W33636   7.465  20.352   0.775
68377W        W33637  29.243  13.748   3.131
68378W        W33638  22.203  44.408  10.502
68379W        W33639  38.046  21.022   0.059
68380W        W33640  30.908  26.689  12.404
68381W        W33641  42.383  38.512  13.803
68382W        W33642  11.163   6.073  14.186
68383W        W33643  20.025  22.547   2.368
68384W        W33644  40.004  25.727   2.171
68385W        W33645  12.402  13.404  13.305
68386W        W33646  42.854  39.115   1.828
68387W        W33647  37.521  31.403   2.199
68388W        W33648  41.976  40.786  13.520
68389W        W33649  18.700  42.780  12.092
68390W        W33650  41.548  10.261  14.863
68391W        W33651   9.597  25.994  12.946
68392W        W33652   6.947  35.956   0.870
68393W        W33653  44.035   9.132   2.326
68394W        W33654   0.534   1.799  10.639
68395W        W33655  25.622   5.527   3.215
68396W        W33656  18.088  25.536   1.165
68397W        W33657  35.779   4.296   2.823
68398W        W33658  11.059  30.346   3.541
68399W        W33659  22.050  33.140   0.306
68400W        W33660  11.205  34.837  14.319
68401W        W33661  34.883  16.170   3.726
68402W        W33662  17.799   1.881  12.365
68403W        W33663  22.234  11.375   3.630
68404W        W33664  16.735  32.438   4.780
68405W        W33665   8.428  44.767   1.867
68406W        W33666  13.376  23.090  10.623
68407W        W33667  12.361  19.130  14.872
68408W        W33668  35.605  19.963   2.297
68409W        W33669  31.249   9.818  14.267
68410W        W33670  10.340  42.451   0.426
68411W        W33671   2.436  42.143   0.436
68412W        W33672   3.383   4.000  13.227
68413W        W33673  44.366   7.089   0.486
68414W        W33674  16.085   1.084   4.279
68415W        W33675  39.047   6.678   3.728
68416W        W33676  27.710   4.838   3.161
68417W        W33677   6.249  43.207   0.020
68418W        W33678   6.882  10.545  14.955
68419W        W33679  32.608  16.330   3.579
68420W        W33680  44.686  31.307   2.412
68421W        W33681   8.622  38.887   3.226
68422W        W33682  35.552  23.076   0.270
68423W        W33683   9.825  29.270   2.805
68424W        W33684  26.669  41.517  10.586
68425W        W33685  18.575  41.190   1.212
68426W        W33686  15.881  36.977  14.795
68427W        W33687  11.789   6.893   4.136
68428W        W33688  44.449   5.266  10.350
68429W        W33689  29.549  10.231   0.757
68430W        W33690  36.935  19.167  11.974
68431W        W33691  38.807  18.490  13.281
68432W        W33692  20.565  20.556  12.724
68433W        W33693  11.330  34.987   2.384
68434W        W33694  16.271  29.493   0.185
68435W        W33695   9.567  24.575   4.517
68436W        W33696  26.533  35.074   4.622
68437W        W33697  24.831  12.810   0.040
68438W        W33698  31.061   4.629  11.983
68439W        W33699  33.066  42.885   3.408
68440W        W33700  33.648  27.118   1.667
68441W        W33701  19.657  15.959  13.057
68442W        W33702  29.549  14.689   0.426
68443W        W33703  14.288  40.097  11.553
68444W        W33704  41.901  23.229   0.322
68445W        W33705  33.050  38.765  10.579
68446W        W33706  43.873  14.738  14.984
68447W        W33707  23.728  40.016   0.256
68448W        W33708  27.142  41.780  13.599
68449W        W33709   6.411  40.569   3.708
68450W        W33710  40.832   5.124   0.975
68451W        W33711  37.975  43.429   3.624
68452W        W33712  12.758  32.677   1.325
68453W        W33713  16.712  19.241  13.366
68454W        W33714  44.635  19.520   3.212
68455W        W33715  25.453  38.381  12.585
68456W        W33716  40.542   6.918   0.486
68457W        W33717   7.721   8.204   2.383
68458W        W33718  28.734  39.854  10.583
68459W        W33719   2.269  14.297  14.192
68460W        W33720   8.763  16.703   1.732
68461W        W33721  10.823   3.655   4.123
68462W        W33722   9.330  23.200  14.269
68463W        W33723  37.299  18.257  13.920
68464W        W33724  38.522  34.630  14.248
68465W        W33725   1.163   3.435  10.483
68466W        W33726  27.529  30.350   1.878
68467W        W33727   1.823  31.890  12.457
68468W        W33728  19.884   8.833  11.234
68469W        W33729  22.979  21.277   1.509
68470W        W33730  21.469   9.199  11.390
68471W        W33731   0.707  36.085  11.080
68472W        W33732  29.663  10.121  11.460
68473W        W33733  26.949  42.356   2.427
68474W        W33734   3.143   6.521   3.692
68475W        W33735  23.226   8.839  10.870
68476W        W33736  32.809  11.109  11.374
68477W        W33737  10.336  17.723   3.285
68478W        W33738   5.145  37.027   2.695
68479W        W33739  41.909  37.901  10.641
68480W        W33740  28.660  32.864   3.576
68481W        W33741  33.559  23.266   3.158
68482W        W33742  25.059  19.413  12.172
68483W        W33743  23.052   9.861   1.184
68484W        W33744  21.532  36.084  13.335
68485W        W33745  41.437   1.943  11.722
68486W        W33746  38.287  31.945  12.054
68487W        W33747  36.052  10.807   0.357
68488W        W33748  44.473  39.821   2.921
68489W        W33749  42.055  13.274   3.742
68490W        W33750   7.298  23.953  13.081
68491W        W33751  14.138  17.899  11.212
68492W        W33752  34.845   8.823  10.690
68493W        W33753  19.353  18.264  11.599
68494W        W33754   9.322  22.486  12.563
68495W        W33755  16.721  30.249  10.979
68496W        W33756   2.171  33.644   2.372
68497W        W33757  30.126   5.516   2.682
68498W        W33758  34.078   3.774  12.269
68499W        W33759  42.878  13.932  12.074
68500W        W33760  35.938   4.442   0.479
68501W        W33761   5.433  33.425  10.697
68502W        W33762   2.491   1.699  11.075
68503W        W33763   0.080  14.738   4.913
68504W        W33764  28.089  37.148   5.077
68505W        W33765  39.240  31.172  10.792
68506W        W33766  12.689  31.522   4.522
68507W        W33767   8.480  16.323   4.167
68508W        W33768  21.318  34.145   1.640
68509W        W33769  21.618  44.755  12.020
68510W        W33770  14.084  20.448  14.712
68511W        W33771  20.072  32.258   4.707
68512W        W33772   7.631  17.568  10.991
68513W        W33773   8.190  10.817   4.297
68514W        W33774   6.248  28.460   1.891
68515W        W33775  11.949  32.185  11.719
68516W        W33776  21.823  26.080   4.426
68517W        W33777  31.804  21.617   2.873
68518W        W33778  13.278  33.466  13.344
68519W        W33779   2.057  26.549   4.960
68520W        W33780  17.730  13.663  13.946
68521W        W33781  33.770   5.122  11.620
68522W        W33782  31.107  39.710   2.449
68523W        W33783  43.504  14.918  14.186
68524W        W33784  34.679  24.193   2.159
68525W        W33785  33.575  36.137  12.224
68526W        W33786  42.530   1.318   3.345
68527W        W33787  42.931   1.407  12.960
68528W        W33788  22.134  39.830  12.447
68529W        W33789  12.152  16.170   1.334
68530W        W33790   4.487  40.513   0.906
68531W        W33791  24.795   6.126  13.864
68532W        W33792  26.984  16.428   2.647
68533W        W33793  40.853  33.599  11.082
68534W        W33794  28.802  22.977   2.206
68535W        W33795  28.977  30.556   4.090
68536W        W33796  32.428   0.275   0.511
68537W        W33797  20.642   6.707  12.887
68538W        W33798  15.109  12.639  13.548
68539W        W33799  18.709   8.885   5.008
68540W        W33800  26.472  16.138   0.376
68541W        W33801  40.316  17.074   1.962
68542W        W33802  12.852   9.918  12.346
68543W        W33803   8.479  18.683   0.485
68544W        W33804  26.703   9.423   1.376
68545W        W33805  17.677  27.691   2.912
68546W        W33806  40.010  29.131   4.155
68547W        W33807  33.367  26.688   1.839
68548W        W33808   4.322  24.192   3.355
68549W        W33809  40.825  37.516  12.077
68550W        W33810   0.986   7.005  10.342
68551W        W33811  38.158  18.719  13.920
68552W        W33812  33.712   5.024   1.318
68553W        W33813   6.275  44.798   4.678
68554W        W33814  16.707   7.562   4.753
68555W        W33815  28.630  26.709   3.197
68556W        W33816  10.097  34.829   4.181
68557W        W33817  18.147  29.253   2.803
68558W        W33818   4.380  36.063   0.831
68559W        W33819  20.513  34.510   4.097
68560W        W33820  10.391  23.717  14.960
68561W        W33821  33.461  13.734  14.475
68562W        W33822   5.382  27.701   1.437
68563W        W33823  33.187  29.656   3.740
68564W        W33824  22.999  35.149   2.218
68565W        W33825  44.501  24.309  11.180
68566W        W33826  10.332  41.892   1.199
68567W        W33827  13.090  35.970   3.165
68568W        W33828  31.406  23.752   3.119
68569W        W33829  10.442   2.784  12.612
68570W        W33830  41.968  14.126   1.733
68571W        W33831  34.078  33.906   1.323
68572W        W33832   7.145  26.654   9.808
68573W        W33833  28.249  27.961   3.662
68574W        W33834  37.983  19.623   4.943
68575W        W33835   0.439   3.522   1.523
68576W        W33836  20.482  11.148  12.426
68577W        W33837  27.692  13.754   3.615
68578W        W33838   2.287  29.654  12.344
68579W        W33839   2.213  28.876  13.977
68580W        W33840  31.212   4.032   4.001
68581W        W33841  22.942  27.563   1.342
68582W        W33842   7.412  17.710   0.516
68583W        W33843  37.418  11.643   1.297
68584W        W33844  32.635  43.439  11.597
68585W        W33845  18.677  37.734   2.844
68586W        W33846  32.213  41.451   4.128
68587W        W33847   7.627  20.779   4.847
68588W        W33848  41.215  35.987   4.492
68589W        W33849  34.196  42.677  13.075
68590W        W33850  40.914  30.429  13.536
68591W        W33851   6.014   9.342   4.426
68592W        W33852  23.683  22.495   4.762
68593W        W33853  32.938  10.338   1.790
68594W        W33854  18.363  28.836  12.904
68595W        W33855   6.292  36.516  14.372
68596W        W33856  28.384  32.910  14.369
68597W        W33857  23.430  10.199   0.913
68598W        W33858  11.958  31.523  14.073
68599W        W33859   5.692  42.323   1.927
68600W        W33860  39.284  16.034  12.093
68601W        W33861  19.071  40.817  14.983
68602W        W33862   2.784  38.597  14.353
68603W        W33863   1.007   4.532  13.425
68604W        W33864   3.751  33.113  14.991
68605W        W33865  25.209  19.003   2.629
68606W        W33866  30.603  18.741  10.938
68607W        W33867   6.885  32.077   2.797
68608W        W33868  35.378   0.931   2.332
68609W        W33869  20.082  19.022  11.356
68610W        W33870  19.270  12.350  11.924
68611W        W33871  13.732  23.195  12.001
68612W        W33872   0.844  26.801  12.765
68613W        W33873   5.601  16.776   1.323
68614W        W33874  24.220  20.099   0.013
68615W        W33875   1.208  44.951   4.098
68616W        W33876   4.358  37.408   2.443
68617W        W33877  15.281  33.563  14.449
68618W        W33878  13.097  23.466  14.198
68619W        W33879  29.619  44.990   0.304
68620W        W33880  23.787  19.098  14.188
68621W        W33881   2.607   2.240   3.583
68622W        W33882   5.367  33.527  10.178
68623W        W33883  33.663  25.938  14.454
68624W        W33884  24.583  12.873  14.498
68625W        W33885  36.176  11.210  12.122
68626W        W33886   4.701  11.644  10.740
68627W        W33887  38.793  18.160  11.493
68628W        W33888  32.842  37.302  12.890
68629W        W33889  31.879  27.760  13.053
68630W        W33890  39.420  38.010   3.997
68631W        W33891  18.053  18.053   4.630
68632W        W33892  30.945   9.923  12.459
68633W        W33893  18.769   1.460   3.246
68634W        W33894  21.294  32.618  11.488
68635W        W33895  26.475  19.135  12.619
68636W        W33896  18.999  36.695   4.049
68637W        W33897   4.751   5.304   4.345
68638W        W33898   9.085  29.396   4.951
68639W        W33899   8.323  43.012   2.747
68640W        W33900  24.506  20.771   0.729
68641W        W33901  26.298   3.185   1.377
68642W        W33902  31.635   6.279   3.070
68643W        W33903  23.990  20.589   0.026
68644W        W33904   2.818  13.643   3.212
68645W        W33905  11.197  15.625   4.037
68646W        W33906  31.684  36.698   4.160
68647W        W33907  36.581  26.384  13.368
68648W        W33908  29.663  22.003  12.889
68649W        W33909  29.985   3.905  13.138
68650W        W33910  44.344  15.594  12.565
68651W        W33911  35.369  28.879   4.613
68652W        W33912  40.481  28.646  14.585
68653W        W33913  19.159  11.373  13.586
68654W        W33914   7.229  27.170  12.516
68655W        W33915  15.626  26.147   2.223
68656W        W33916  13.967  39.881  14.004
68657W        W33917  28.590  41.807   1.306
68658W        W33918   2.699  26.277  14.925
68659W        W33919  44.849  17.658   3.436
68660W        W33920   8.778  42.767  12.982
68661W        W33921   1.307  22.594  10.995
68662W        W33922  27.110   5.508   2.526
68663W        W33923  32.038   4.404   2.313
68664W        W33924   7.751  19.406  12.786
68665W        W33925   0.569  27.230   3.490
68666W        W33926  26.077   6.239   2.231
68667W        W33927  16.468  26.273  11.216
68668W        W33928  36.922   4.531  14.800
68669W        W33929  11.169  13.970   1.851
68670W        W33930  19.517  39.129   0.266
68671W        W33931  11.821  27.174  13.447
68672W        W33932  16.166  24.524   0.050
68673W        W33933  12.288  44.252  14.856
68674W        W33934  26.533   5.365  10.951
68675W        W33935  38.519  27.711   4.145
68676W        W33936  18.938   9.459   0.908
68677W        W33937   1.807   2.656  14.491
68678W        W33938  11.622  29.038  14.248
68679W        W33939   0.072  18.174  11.178
68680W        W33940  25.460  26.151  11.563
68681W        W33941  29.581   9.190   2.286
68682W        W33942  19.121  29.432   0.355
68683W        W33943   0.807   9.241  12.548
68684W        W33944  16.296   7.905  14.900
68685W        W33945  32.580  31.610   1.922
68686W        W33946  30.938   2.829  12.435
68687W        W33947  24.699  43.443  13.514
68688W        W33948  12.599  37.444  12.405
68689W        W33949  44.306  37.163  14.867
68690W        W33950   3.210  11.530  11.713
68691W        W33951  18.583  22.292   4.647
68692W        W33952  41.244  24.485  14.907
68693W        W33953  13.996  17.278   2.774
68694W        W33954  33.116  13.325   3.776
68695W        W33955   2.646  14.916  12.942
68696W        W33956   0.347  18.268   1.254
68697W        W33957  27.156  19.483   3.089
68698W        W33958  30.161   8.117   0.801
68699W        W33959  39.893  24.600  11.936
68700W        W33960   7.517   7.381  11.424
68701W        W33961  16.666  34.563  11.051
68702W        W33962  20.455   4.139   1.724
68703W        W33963  17.745  22.255   4.817
68704W        W33964  20.069  31.475   0.713
68705W        W33965  35.325  23.545   4.647
68706W        W33966  30.333   0.860   3.258
68707W        W33967  14.960  21.822   5.638
68708W        W33968  28.084  37.497   1.894
68709W        W33969  21.550  25.014   4.175
68710W        W33970  43.453  38.665  13.027
68711W        W33971  42.956   9.246  14.540
68712W        W33972  10.126  12.115  13.833
68713W        W33973  43.554  13.625  13.807
68714W        W33974  28.568  44.661   4.052
68715W        W33975  15.730  33.928   3.317
68716W        W33976  13.479  32.010  12.373
68717W        W33977  15.203  14.642  11.161
68718W        W33978  31.999   6.367   2.659
68719W        W33979  11.637  22.749  13.782
68720W        W33980  35.391  39.321  11.681
68721W        W33981  15.232  36.115   0.482
68722W        W33982  27.087  31.510   1.414
68723W        W33983  35.496  19.260  12.105
68724W        W33984  39.685  31.583   3.131
68725W        W33985   1.704  20.523  14.393
68726W        W33986  35.826  23.093   0.915
68727W        W33987  27.040  39.928  11.866
68728W        W33988  24.286  30.401  12.997
68729W        W33989   6.245  20.567  12.657
68730W        W33990  34.569  33.453   3.273
68731W        W33991  40.044   2.279  10.345
68732W        W33992  14.094  18.804   2.738
68733W        W33993   5.973  20.206  12.322
68734W        W33994  33.419   2.532   0.310
68735W        W33995  44.509  28.141  14.102
68736W        W33996   8.163  14.867   4.056
68737W        W33997  32.104   6.205  12.970
68738W        W33998   4.274  31.225   3.803
68739W        W33999  37.827  29.388   1.353
68740W        W34000  30.527  28.709   4.207
68741W        W34001  21.281  33.995   2.669
68742W        W34002   0.290  17.526   0.056
68743W        W34003  26.707  13.642   1.035
68744W        W34004  41.833  30.310   1.190
68745W        W34005  35.068  20.993  13.303
68746W        W34006  24.182  26.585   1.494
68747W        W34007  21.552   1.703  10.413
68748W        W34008  27.563  19.187   0.987
68749W        W34009   4.681  38.402   1.269
68750W        W34010  22.109  30.654   4.353
68751W        W34011  30.642   2.928  14.391
68752W        W34012  12.702  19.026  13.997
68753W        W34013  19.110  16.937  13.326
68754W        W34014  19.067  41.962  14.483
68755W        W34015   6.763   7.763  11.624
68756W        W34016   3.890  15.681  11.242
68757W        W34017   9.647  18.949   1.461
68758W        W34018  44.389  15.915  13.920
68759W        W34019   7.914  28.060  13.931
68760W        W34020  33.683  16.636   4.074
68761W        W34021  24.992  40.492  10.813
68762W        W34022  32.282  31.021  12.469
68763W        W34023  13.300   5.721  13.079
68764W        W34024  24.911  36.021  12.592
68765W        W34025  16.611  32.853  10.684
68766W        W34026   0.767  15.367   3.544
68767W        W34027  13.316  32.685  13.974
68768W        W34028   7.685  24.439  12.973
68769W        W34029  17.074  23.257   3.360
68770W        W34030  26.507  19.170  13.498
68771W        W34031  21.633  14.284   5.136
68772W        W34032   9.272  29.959  12.965
68773W        W34033  14.037  33.688   4.646
68774W        W34034  20.993  20.948   2.778
68775W        W34035  22.192  41.499  14.228
68776W        W34036   9.269  18.298  14.423
68777W        W34037   7.188  12.242   4.606
68778W        W34038   4.954  17.016   1.245
68779W        W34039  15.119  30.771  11.156
68780W        W34040   5.785  31.548   4.587
68781W        W34041  16.810  31.158  14.767
68782W        W34042  15.390  17.171  12.347
68783W        W34043   4.472  12.269   2.844
68784W        W34044  17.691  13.047  12.521
68785W        W34045  23.616  32.477   0.881
68786W        W34046   4.222  38.496   4.134
68787W        W34047  27.392  34.045   0.381
68788W        W34048  38.485  25.295   1.292
68789W        W34049  32.130  13.259  14.846
68790W        W34050  31.812   5.901   3.379
68791W        W34051  22.511  28.572   4.596
68792W        W34052  19.264  23.076   0.386
68793W        W34053  21.105  12.185   1.266
68794W        W34054  32.808  27.817  12.844
68795W        W34055  25.815   3.755  11.982
68796W        W34056  29.432  28.380   4.911
68797W        W34057  36.573   9.373  12.804
68798W        W34058  40.545   3.973  13.936
68799W        W34059  35.917  24.183  14.917
68800W        W34060  10.805  37.042  14.157
68801W        W34061   1.990  18.049   1.677
68802W        W34062  10.366  42.384  13.892
68803W        W34063  10.052   3.789   0.516
68804W        W34064  39.303  37.116   2.311
68805W        W34065  38.347   0.733   1.744
68806W        W34066  22.029  26.250   3.473
68807W        W34067  23.188  10.971  11.917
68808W        W34068  38.309  12.092   1.725
68809W        W34069  40.997  15.840  10.697
68810W        W34070  15.541  41.041   1.703
68811W        W34071  29.431   2.369  13.024
68812W        W34072  19.379  29.953   1.317
68813W        W34073  41.492  39.202  14.105
68814W        W34074  26.257  32.644  12.882
68815W        W34075  22.621  21.725   5.216
68816W        W34076   3.931  42.536   1.944
68817W        W34077  23.723  13.027   3.545
68818W        W34078  40.055   3.644  14.751
68819W        W34079  15.729   4.898   1.985
68820W        W34080  12.726  20.870   5.279
68821W        W34081  20.100   9.342  11.275
68822W        W34082   0.371  19.300   3.883
68823W        W34083  15.123  35.446   1.850
68824W        W34084   2.918   5.608   4.236
68825W        W34085  40.217  39.375   2.896
68826W        W34086  32.960   7.156  10.676
68827W        W34087  29.514  16.229   4.778
68828W        W34088  27.926  10.672   0.578
68829W        W34089   2.511  36.954  13.787
68830W        W34090   0.337   1.980  12.031
68831W        W34091  44.772  31.642   3.177
68832W        W34092  12.466  14.278   0.271
68833W        W34093  24.980  33.565   2.137
68834W        W34094  19.128  34.136   3.165
68835W        W34095  29.437  41.072  11.482
68836W        W34096   9.894  25.950  11.096
68837W        W34097   3.780  21.411   5.448
68838W        W34098  24.422   8.113   3.544
68839W        W34099  17.329  41.746  14.977
68840W        W34100  12.910  22.732  13.593
68841W        W34101  32.441  41.484   2.904
68842W        W34102  10.296  12.830  13.486
68843W        W34103  34.878  12.646  13.333
68844W        W34104  40.695  35.777   3.203
68845W        W34105   2.897  31.483  12.072
68846W        W34106  24.728  20.513   1.168
68847W        W34107  18.519  15.985   1.413
68848W        W34108  43.865  30.258  10.251
68849W        W34109  25.249  14.125  13.831
68850W        W34110   6.526  10.918   3.335
68851W        W34111  25.455  24.272  12.392
68852W        W34112   6.745  31.323   0.504
68853W        W34113  22.746  29.033   4.477
68854W        W34114  44.359  41.771  14.841
68855W        W34115  19.022   2.938  12.025
68856W        W34116  12.155  28.250   0.288
68857W        W34117   1.940  42.857  10.443
68858W        W34118  37.849   9.696  10.728
68859W        W34119   9.447  26.625   1.879
68860W        W34120  40.906  13.820   4.235
68861W        W34121  33.261   0.389   0.334
68862W        W34122   6.293  30.098  11.913
68863W        W34123  28.013  41.572  13.536
68864W        W34124  44.222  35.403  12.129
68865W        W34125  28.958  21.213  14.413
68866W        W34126  28.166  30.458   4.278
68867W        W34127  24.042  20.306  14.559
68868W        W34128  33.668   4.945   2.822
68869W        W34129   0.797  31.495   3.280
68870W        W34130  19.255  41.290   1.686
68871W        W34131  40.962  33.456  14.380
68872W        W34132  31.332  36.312  12.504
68873W        W34133  22.049   0.185  11.176
68874W        W34134  43.691  39.889   1.797
68875W        W34135  34.666  42.649  13.337
68876W        W34136  28.090  19.163  13.396
68877W        W34137  34.840  18.115   3.736
68878W        W34138  22.056  33.220   4.121
68879W        W34139  33.467   0.680   0.874
68880W        W34140  42.976   6.587  14.343
68881W        W34141  39.786  18.058   4.468
68882W        W34142  20.587  15.970   0.160
68883W        W34143  14.028  37.418  14.909
68884W        W34144  38.844  28.557   1.022
68885W        W34145  23.531  25.359   3.176
68886W        W34146   1.844   7.772   1.997
68887W        W34147  11.061  10.157  11.144
68888W        W34148  34.477  16.983  13.101
68889W        W34149  17.084  43.885   2.025
68890W        W34150  19.731  25.511  11.659
68891W        W34151  40.803   7.118  11.554
68892W        W34152  32.324   1.506  13.885
68893W        W34153  10.374  11.243  14.345
68894W        W34154  18.254  39.935  14.384
68895W        W34155  12.913  27.268   2.988
68896W        W34156  28.590  25.464  10.224
68897W        W34157  13.842  12.941  13.539
68898W        W34158   1.904  41.313   4.245
68899W        W34159  32.397   2.903   0.416
68900W        W34160  25.927  19.825   0.183
68901W        W34161   5.334  41.546   4.218
68902W        W34162   4.360  39.334   0.521
68903W        W34163  20.453  14.220  12.489
68904W        W34164  34.702  41.935  11.887
68905W        W34165  20.378  23.418   3.273
68906W        W34166   4.468   5.911  14.368
68907W        W34167  38.984  12.508  12.928
68908W        W34168  10.107  32.552  10.523
68909W        W34169   8.906  12.284   3.690
68910W        W34170  24.788  34.529   2.810
68911W        W34171   4.761  30.194   3.027
68912W        W34172  44.690   4.628   0.037
68913W        W34173  23.559   6.091   1.359
68914W        W34174  16.176  25.329  11.613
68915W        W34175  33.414  21.199  11.602
68916W        W34176  14.164  11.415  14.336
68917W        W34177  12.892   0.265  10.717
68918W        W34178  35.745  19.711   2.762
68919W        W34179  28.152   5.110   2.399
68920W        W34180  10.649   3.830  14.878
68921W        W34181  20.254   1.720  13.415
68922W        W34182   4.817  34.064  12.116
68923W        W34183   6.723   4.650  10.690
68924W        W34184  13.229  19.183   3.167
68925W        W34185  38.184   1.798   0.689
68926W        W34186   6.211  15.998   4.735
68927W        W34187  12.611  17.245   3.233
68928W        W34188  27.948   6.518  11.486
68929W        W34189  39.145   6.702  12.154
68930W        W34190  39.352   2.454   4.960
68931W        W34191  13.344   3.686  14.231
68932W        W34192  25.904  12.135   3.913
68933W        W34193  23.551  41.432   2.315
68934W        W34194  13.404   8.752   2.660
68935W        W34195  42.330  28.959  10.748
68936W        W34196   9.310  29.564   0.653
68937W        W34197  11.776  20.209   4.292
68938W        W34198  15.907  14.341   1.610
68939W        W34199   8.434  24.685  10.268
68940W        W34200  27.664  25.060  14.503
68941W        W34201   5.780  34.383   1.731
68942W        W34202  23.168  42.813  13.380
68943W        W34203   2.905   9.863  13.602
68944W        W34204  24.495  20.649   2.691
68945W        W34205  18.462  38.222   1.953
68946W        W34206  25.819  23.896   1.755
68947W        W34207  33.058   0.534  13.925
68948W        W34208  43.879  25.829   0.558
68949W        W34209  25.683  32.340   2.739
68950W        W34210  42.886  17.340  12.329
68951W        W34211  40.943  13.136  14.447
68952W        W34212  11.611  18.499  12.430
68953W        W34213  33.970   9.656   0.791
68954W        W34214  29.954   0.232  12.393
68955W        W34215  32.074  20.990  13.780
68956W        W34216  12.688  29.197  13.525
68957W        W34217  24.572  23.142   0.107
68958W        W34218  23.549   6.360  14.554
68959W        W34219   9.904  38.806  12.506
68960W        W34220  17.199  18.229   5.541
68961W        W34221  39.799  15.871   1.220
68962W        W34222  43.984  43.789  12.899
68963W        W34223  18.788  28.152   4.225
68964W        W34224   2.627  41.955  11.067
68965W        W34225  16.634   0.679  12.030
68966W        W34226  33.541  30.003  11.085
68967W        W34227  30.232   3.890  12.225
68968W        W34228  28.719  23.002   1.248
68969W        W34229  26.884  19.654  14.886
68970W        W34230  40.769  14.612  11.215
68971W        W34231  19.633  25.588   1.888
68972W        W34232   2.137  28.520  12.173
68973W        W34233  39.014  33.821   2.978
68974W        W34234   9.726  39.877  11.624
68975W        W34235  33.443  15.292   0.478
68976W        W34236   7.353  22.793  11.588
68977W        W34237   6.682  31.083  14.687
68978W        W34238  24.931  15.645  10.915
68979W        W34239  43.762  44.941   2.806
68980W        W34240  36.911  37.010  11.756
68981W        W34241  19.700  14.778  11.185
68982W        W34242   4.231  22.940  14.495
68983W        W34243  22.483  36.966  13.012
68984W        W34244   3.793  14.144  13.355
68985W        W34245   7.741  11.112   2.772
68986W        W34246   7.096  36.100  13.533
68987W        W34247  25.613  21.852   2.894
68988W        W34248  31.894  34.164   2.188
68989W        W34249  18.750  39.838   0.959
68990W        W34250  10.600  42.573  13.444
68991W        W34251  27.052   4.071  11.127
68992W        W34252  15.749  14.671  12.077
68993W        W34253  42.002  27.943   4.719
68994W        W34254  26.437  25.963  14.271
68995W        W34255  27.525  10.363  10.957
68996W        W34256  12.114  17.027   3.318
68997W        W34257  36.298  18.639  12.251
68998W        W34258   6.180  17.154   1.855
68999W        W34259  16.319  30.098   2.741
69000W        W34260   3.449   0.952  11.524
69001W        W34261  12.283  38.936  12.934
69002W        W34262  14.705   2.724  12.784
69003W        W34263  25.715   2.042   0.258
69004W        W34264  11.270  16.136  14.583
69005W        W34265  24.075  19.514   0.714
69006W        W34266  41.500  29.411  14.207
69007W        W34267  11.173  13.158   4.153
69008W        W34268  15.897  11.408   2.518
69009W        W34269  40.273   4.884  11.631
69010W        W34270  16.835   6.723   0.299
69011W        W34271   7.963  15.966  14.818
69012W        W34272  41.052  42.997  13.944
69013W        W34273  28.196  36.869   1.187
69014W        W34274  21.070  24.258   1.793
69015W        W34275  37.643  38.263  13.429
69016W        W34276  20.267  39.552   1.232
69017W        W34277  24.915   6.601  11.175
69018W        W34278  29.043   3.635   0.322
69019W        W34279  39.889  40.577  10.789
69020W        W34280  12.395  21.013   0.907
69021W        W34281  19.150   4.166  14.857
69022W        W34282  25.030  33.909   1.216
69023W        W34283  30.027  39.445  13.340
69024W        W34284   4.459  19.160  14.623
69025W        W34285  26.736   9.847   3.746
69026W        W34286  17.056   8.239  12.327
69027W        W34287  39.596  19.078   3.058
69028W        W34288  31.375  24.057  14.714
69029W        W34289  25.659  16.706  13.567
69030W        W34290  27.951  20.726   2.360
69031W        W34291  16.707  13.119   1.355
69032W        W34292  31.136  32.981   3.166
69033W        W34293  19.741  28.278  12.907
69034W        W34294  10.884  24.027   4.463
69035W        W34295   5.200  40.861  10.983
69036W        W34296   3.419  31.076  11.406
69037W        W34297  19.198   0.248   1.809
69038W        W34298  30.196  21.248  12.789
69039W        W34299   2.690  27.758  11.416
69040W        W34300   7.610   4.828   0.687
69041W        W34301  43.005  22.686  13.647
69042W        W34302  16.832  12.157  12.982
69043W        W34303  26.150  42.042   4.863
69044W        W34304   2.977  34.890  13.525
69045W        W34305  20.102  21.132   1.581
69046W        W34306  23.909   8.533   1.150
69047W        W34307  20.134  23.590   2.855
69048W        W34308   7.844  10.106  10.266
69049W        W34309  11.302   6.016  11.921
69050W        W34310  19.153  11.901   3.387
69051W        W34311   5.903  20.762   3.602
69052W        W34312  34.621  38.870   2.327
69053W        W34313  20.319  32.373  13.244
69054W        W34314  23.995   0.370  11.081
69055W        W34315   0.876  26.993   3.112
69056W        W34316  34.875  22.516   0.530
69057W        W34317  16.786  43.961   2.841
69058W        W34318  29.154  16.239   0.597
69059W        W34319  24.951  44.101  13.951
69060W        W34320  32.465  44.962   4.681
69061W        W34321   5.525  11.099  13.093
69062W        W34322   5.780  12.168  11.893
69063W        W34323   5.250  40.403   3.725
69064W        W34324  13.743  37.924   1.196
69065W        W34325  23.763  39.952   2.750
69066W        W34326  33.075  25.006  12.421
69067W        W34327  35.081  35.650   1.258
69068W        W34328  12.880  10.086  11.433
69069W        W34329  14.659  25.101   3.569
69070W        W34330   5.163  21.897   2.280
69071W        W34331  13.638  30.513   3.383
69072W        W34332   5.725  16.831  14.558
69073W        W34333  28.030  39.035   1.889
69074W        W34334  24.258  31.016  11.099
69075W        W34335  19.848  30.960   3.392
69076W        W34336  17.816  41.935   0.470
69077W        W34337  40.387   0.577  12.567
69078W        W34338  19.113  22.028  12.905
69079W        W34339   2.542  44.887  10.518
69080W        W34340   6.410  24.476  13.035
69081W        W34341  28.269  33.889  11.768
69082W        W34342  25.078   2.714  12.025
69083W        W34343   4.351  23.086  10.259
69084W        W34344  13.863  38.351  11.159
69085W        W34345  15.834   1.658   1.425
69086W        W34346   1.725  38.184  10.716
69087W        W34347  25.697  28.172  14.701
69088W        W34348   0.697   8.008  13.100
69089W        W34349   5.179  36.929  14.678
69090W        W34350  23.466  19.621  12.514
69091W        W34351  19.862  30.091   0.354
69092W        W34352  12.737   3.984  13.034
69093W        W34353  44.825  36.514  14.749
69094W        W34354  30.094  31.594  13.147
69095W        W34355   7.494  27.778   4.534
69096W        W34356  18.768  20.533  12.408
69097W        W34357  34.065  18.645  10.629
69098W        W34358  17.758  10.872   3.211
69099W        W34359   7.669  27.567  10.690
69100W        W34360  33.081  16.494  13.615
69101W        W34361  20.331  44.203   2.674
69102W        W34362  40.095   1.271   1.475
69103W        W34363  21.080  37.251  14.373
69104W        W34364  14.777   7.346  12.124
69105W        W34365  38.700  22.079   3.604
69106W        W34366   5.967  12.876   2.433
69107W        W34367  18.216   7.903  12.566
69108W        W34368  18.002  36.860   0.439
69109W        W34369  41.315  30.522   2.307
69110W        W34370  18.819  39.959   1.852
69111W        W34371  10.898  12.174  14.384
69112W        W34372  23.032  41.250  13.627
69113W        W34373  15.265  12.054   2.327
69114W        W34374   1.968  27.156   4.573
69115W        W34375  14.355   1.844   2.192
69116W        W34376  23.763  23.480   0.001
69117W        W34377  19.345   1.209  12.627
69118W        W34378   8.564  25.512  14.462
69119W        W34379   8.971  24.856  13.555
69120W        W34380  14.960   8.456   4.533
69121W        W34381   2.767  44.796   0.270
69122W        W34382  36.492  20.226  12.483
69123W        W34383  36.299   2.996  13.962
69124W        W34384  32.640  31.628  13.599
69125W        W34385  13.737   6.376   1.849
69126W        W34386  13.388  29.068  10.546
69127W        W34387  26.350  24.255  12.988
69128W        W34388  35.457   0.865   0.839
69129W        W34389  25.161  21.221  14.005
69130W        W34390  27.697  36.328  14.810
69131W        W34391   9.439  42.398   1.199
69132W        W34392  19.083  15.542  12.532
69133W        W34393  36.134  24.730   5.013
69134W        W34394  39.313  30.870   4.735
69135W        W34395   0.322  16.618   0.531
69136W        W34396  43.281  29.152   3.748
69137W        W34397  41.066  42.737  11.600
69138W        W34398  44.290  30.106  12.941
69139W        W34399  25.908  14.208  12.439
69140W        W34400  38.175  22.017   2.352
69141W        W34401  17.795  39.879   3.786
69142W        W34402  23.130  23.163  14.327
69143W        W34403  11.865  28.175  11.024
69144W        W34404  29.682   4.322  14.317
69145W        W34405  25.517  10.876   0.372
69146W        W34406  43.512  34.189   1.333
69147W        W34407  35.294   0.549   5.353
69148W        W34408  36.541  29.662   4.870
69149W        W34409  40.880  18.108   2.794
69150W        W34410  17.147  35.082   3.691
69151W        W34411  12.205  24.929   4.232
69152W        W34412  22.032  40.805  14.986
69153W        W34413  15.662  27.539   5.233
69154W        W34414  23.684  40.073  14.722
69155W        W34415   7.684  41.795  14.826
69156W        W34416  29.742  14.396  10.925
69157W        W34417   6.350   1.207  11.527
69158W        W34418   8.807  36.614   0.852
69159W        W34419   5.467  19.576   4.521
69160W        W34420  18.562  31.103  10.879
69161W        W34421  40.989   2.877  11.142
69162W        W34422   3.352  41.020  14.298
69163W        W34423  43.968  15.244  13.283
69164W        W34424  23.808  20.019   2.957
69165W        W34425  32.483  18.559   2.206
69166W        W34426  22.751  43.793  14.494
69167W        W34427  40.020  39.521  12.506
69168W        W34428  41.945   7.851  11.870
69169W        W34429  40.895  44.244   2.309
69170W        W34430  29.408   1.878   3.818
69171W        W34431  13.460  16.381   1.827
69172W        W34432  11.909  23.938  12.072
69173W        W34433   0.409  12.941   3.402
69174W        W34434  28.627  34.296   3.748
69175W        W34435  23.051  29.178   4.094
69176W        W34436  44.037   4.169   1.385
69177W        W34437   2.389  26.138  13.475
69178W        W34438  22.004  14.203  13.732
69179W        W34439   3.283  35.956   1.527
69180W        W34440  14.659   3.759   4.220
69181W        W34441  43.715   3.771   0.410
69182W        W34442   8.334  37.330   0.223
69183W        W34443  26.079  20.800   9.952
69184W        W34444  15.222  22.086   9.640
69185W        W34445  10.938  31.377   0.854
69186W        W34446  40.463   8.684   0.296
69187W        W34447  19.106   7.739  13.296
69188W        W34448  43.719  17.106  12.378
69189W        W34449  18.505   8.431  14.792
69190W        W34450  42.547  13.791  13.795
69191W        W34451  43.713  35.601   4.591
69192W        W34452   4.785  37.685   5.108
69193W        W34453  36.946  39.323  12.423
69194W        W34454  27.108  33.157   1.895
69195W        W34455  21.924  20.721  13.827
69196W        W34456  42.980  21.485  10.694
69197W        W34457   6.594  34.829  14.899
69198W        W34458  29.129   5.396  12.952
69199W        W34459  17.096  28.891  14.794
69200W        W34460   5.915  28.441  13.224
69201W        W34461  37.126  38.391  13.756
69202W        W34462  32.673  29.443   2.354
69203W        W34463  27.600  20.692   2.802
69204W        W34464  34.116  17.018   1.211
69205W        W34465  29.223  21.708  11.092
69206W        W34466  10.100  33.290  13.500
69207W        W34467  32.903  11.786  11.613
69208W        W34468  14.754  37.418  12.440
69209W        W34469  14.777  43.735   1.245
69210W        W34470  33.998  14.430   4.489
69211W        W34471  43.027   8.189   4.158
69212W        W34472   4.701   2.393  14.410
69213W        W34473   1.346  39.535  10.667
69214W        W34474  32.459   3.545   5.025
69215W        W34475  11.762  32.226   3.145
69216W        W34476  34.848   3.055  13.344
69217W        W34477  32.855  12.031   2.667
69218W        W34478  33.902  39.913   2.710
69219W        W34479   6.321   1.364   0.800
69220W        W34480   3.354  24.036   1.189
69221W        W34481   8.389   7.745  13.539
69222W        W34482  40.031  16.972   2.703
69223W        W34483  44.831   4.925  13.308
69224W        W34484  19.726  44.572  14.859
69225W        W34485  11.914   5.659   4.008
69226W        W34486  30.771   8.763  10.881
69227W        W34487   9.832  19.643   2.796
69228W        W34488  21.276   9.240   3.205
69229W        W34489  27.602  41.575   0.674
69230W        W34490  23.944  22.883  10.151
69231W        W34491  13.763  31.529  13.055
69232W        W34492  37.386   8.569   3.746
69233W        W34493  34.383  35.551  12.001
69234W        W34494  19.598  37.966   0.686
69235W        W34495  19.274  39.329   2.895
69236W        W34496  24.539  42.021   1.876
69237W        W34497  29.471   8.030   2.750
69238W        W34498  24.043   8.852  13.259
69239W        W34499   3.263  27.160   4.823
69240W        W34500  29.473  12.942   0.452
69241W        W34501  43.722  23.012   0.478
69242W        W34502   2.267   2.028  11.386
69243W        W34503  23.011  17.933   4.249
69244W        W34504  16.304   8.481   3.223
69245W        W34505  39.434  10.900  13.126
69246W        W34506  22.409   5.795  14.844
69247W        W34507   7.971  39.887  14.749
69248W        W34508  20.694  10.354   0.375
69249W        W34509  43.221  38.005  14.419
69250W        W34510  27.523  10.942   4.148
69251W        W34511  23.292  41.473   3.272
69252W        W34512  21.059   4.753   1.594
69253W        W34513  43.245  37.558  14.117
69254W        W34514  28.247  25.697   1.230
69255W        W34515  44.651  41.819   0.936
69256W        W34516   0.082  21.203   4.935
69257W        W34517   6.583  15.878   2.713
69258W        W34518  42.398   8.230  13.893
69259W        W34519  17.151  16.237   2.815
69260W        W34520   9.432  11.549  11.644
69261W        W34521   1.074  12.768   5.202
69262W        W34522  25.132   3.977   2.735
69263W        W34523  13.785  30.046  10.594
69264W        W34524  24.613   6.423   3.294
69265W        W34525  43.255  29.034  13.571
69266W        W34526  13.133  25.860  12.059
69267W        W34527   9.881  12.803   3.198
69268W        W34528  26.651  27.719   4.825
69269W        W34529  29.447  33.311  12.316
69270W        W34530  31.042  12.691  14.461
69271W        W34531  12.637   0.038  14.392
69272W        W34532  35.423  31.126   3.709
69273W        W34533   2.203  36.647  14.090
69274W        W34534  42.053  39.737  13.469
69275W        W34535  27.285  40.895  10.691
69276W        W34536   6.303   3.122  12.872
69277W        W34537  40.853   4.146   0.219
69278W        W34538  25.998  42.013   1.953
69279W        W34539  38.918   7.860  10.720
69280W        W34540  22.826   9.721   3.653
69281W        W34541  19.804  15.876   1.369
69282W        W34542  30.651   2.290   0.191
69283W        W34543  28.904  11.787   0.142
69284W        W34544  22.349  15.174  12.051
69285W        W34545  16.068  39.493   4.530
69286W        W34546  27.104  24.546   4.575
69287W        W34547   5.348  32.314  11.597
69288W        W34548  29.916   0.436   0.273
69289W        W34549   4.563  23.072  10.716
69290W        W34550  19.434  36.652   3.750
69291W        W34551   9.116   6.293  14.937
69292W        W34552  34.853  38.954  12.420
69293W        W34553   0.765  28.676  14.986
69294W        W34554   2.864  35.463   4.161
69295W        W34555  19.079   1.888  14.899
69296W        W34556  39.903  44.423   4.138
69297W        W34557  39.316  14.795   0.792
69298W        W34558  16.102  33.057   1.459
69299W        W34559  40.566  13.054   0.268
69300W        W34560  31.492  33.426   3.732
69301W        W34561  35.206  43.753  12.183
69302W        W34562  20.280  31.510  12.991
69303W        W34563  13.221  31.054  12.399
69304W        W34564  31.951  43.605   3.450
69305W        W34565   0.419  28.614   2.258
69306W        W34566   5.700   0.922  13.056
69307W        W34567   2.871  16.863  13.091
69308W        W34568  34.445  23.914   0.711
69309W        W34569  29.172  23.989  10.761
69310W        W34570  35.437  19.775   4.057
69311W        W34571   9.726  35.765  14.875
69312W        W34572   2.061  27.525  13.820
69313W        W34573  18.757  36.404   0.819
69314W        W34574   5.242  34.140   4.130
69315W        W34575   3.800  39.063  14.652
69316W        W34576  13.723  22.009   3.169
69317W        W34577  16.088  27.603   0.422
69318W        W34578  26.008   7.701   4.651
69319W        W34579  35.879  20.053  12.905
69320W        W34580  39.787  33.713  12.148
69321W        W34581   3.729  16.757  11.607
69322W        W34582  36.330   8.271   2.150
69323W        W34583  39.030  40.744  13.802
69324W        W34584  39.466   3.389  12.160
69325W        W34585  44.912  31.633  13.040
69326W        W34586  38.729  39.752   3.710
69327W        W34587  39.363  15.296   0.899
69328W        W34588  17.719  24.980  10.740
69329W        W34589   5.975   2.462  14.973
69330W        W34590   6.642  32.106  11.646
69331W        W34591   3.314  21.251   5.254
69332W        W34592  18.669  18.662  12.242
69333W        W34593   3.001  12.335   4.031
69334W        W34594   7.328  28.570   3.863
69335W        W34595  25.226  36.327  13.965
69336W        W34596  23.066   1.867  10.520
69337W        W34597   8.432   2.753  14.486
69338W        W34598   9.714  34.944  14.338
69339W        W34599   2.211  29.581  10.952
69340W        W34600  25.781  39.877  11.639
69341W        W34601  36.653  23.546  13.852
69342W        W34602   6.203  35.079  14.622
69343W        W34603  26.975   3.623   4.609
69344W        W34604  33.553   7.350   2.249
69345W        W34605  32.632  32.760   0.730
69346W        W34606   3.768  20.611   3.319
69347W        W34607  22.984   8.428   2.881
69348W        W34608  30.986  42.440   4.514
69349W        W34609  38.860  28.986  12.341
69350W        W34610  34.425   9.370   0.899
69351W        W34611  26.621  22.675   2.405
69352W        W34612  13.403  20.199   0.411
69353W        W34613  18.035   5.437  14.866
69354W        W34614  32.556   3.936   3.827
69355W        W34615   1.251  18.936   2.886
69356W        W34616  30.052  36.142  11.451
69357W        W34617  21.207  44.342  12.577
69358W        W34618  39.058  34.591   0.866
69359W        W34619   1.455  32.924  14.478
69360W        W34620  37.124  19.365  13.955
69361W        W34621  33.444  12.380  12.108
69362W        W34622  36.550  25.714  14.817
69363W        W34623  14.123  13.427   1.805
69364W        W34624   7.775   4.667  14.348
69365W        W34625  26.146  40.268  13.787
69366W        W34626   4.183  13.215   4.912
69367W        W34627   3.806  16.082  13.309
69368W        W34628  42.966   7.603   0.309
69369W        W34629  27.685  30.600   4.405
69370W        W34630  39.539   0.043  13.428
69371W        W34631  13.538  27.629  13.780
69372W        W34632  43.770  23.942   0.425
69373W        W34633  31.616  21.049  11.525
69374W        W34634  14.153  30.641   2.716
69375W        W34635  32.489  37.833  11.979
69376W        W34636  13.684  35.510  12.621
69377W        W34637  23.170  16.640   2.333
69378W        W34638   8.979  44.342   0.320
69379W        W34639  38.915  27.470  11.249
69380W        W34640  29.059  15.767  13.292
69381W        W34641  32.328   9.825   1.814
69382W        W34642  12.814  21.255  13.489
69383W        W34643  42.543  35.930   0.781
69384W        W34644  29.483  12.185  10.677
69385W        W34645  25.703  44.157   2.890
69386W        W34646  26.830   8.692  10.057
69387W        W34647  11.771  23.790   5.108
69388W        W34648  23.697   6.946  12.946
69389W        W34649  17.619  16.231  11.882
69390W        W34650  20.956  30.363  12.037
69391W        W34651   8.776  38.092  13.121
69392W        W34652  32.419  34.927   0.009
69393W        W34653   9.439   2.459  12.024
69394W        W34654   5.306  43.737  14.352
69395W        W34655  25.644  27.561  14.392
69396W        W34656  14.600  20.303   2.334
69397W        W34657  25.504  22.224   3.263
69398W        W34658  18.013  24.589  13.005
69399W        W34659  27.935   5.613   3.150
69400W        W34660  15.710  16.294   1.307
69401W        W34661  13.646  27.613  11.557
69402W        W34662  25.286  14.499   4.805
69403W        W34663   6.283  37.530   0.215
69404W        W34664   1.284   8.707   4.372
69405W        W34665  37.026  41.274  11.640
69406W        W34666  29.405  17.633  12.540
69407W        W34667   4.703   3.421   2.543
69408W        W34668  18.338  32.555  11.478
69409W        W34669   9.638  34.466   2.350
69410W        W34670   3.687  44.496  12.512
69411W        W34671  15.732  33.597  13.570
69412W        W34672  17.601  32.339  11.999
69413W        W34673  11.141  15.277  10.464
69414W        W34674  37.814   2.854  14.027
69415W        W34675   4.889  16.111   1.199
69416W        W34676  34.644  41.365  14.404
69417W        W34677   8.316  16.342  13.421
69418W        W34678  31.892  31.941  13.920
69419W        W34679  43.486  20.538   2.652
69420W        W34680  26.020   1.486  10.543
69421W        W34681  27.957  11.700   2.936
69422W        W34682   7.840  42.406  13.510
69423W        W34683  28.578  15.282  14.939
69424W        W34684  26.613  30.434   3.745
69425W        W34685   4.664  12.700  13.083
69426W        W34686  44.302  43.373  13.785
69427W        W34687  35.505  43.541   3.787
69428W        W34688  15.065  43.935   3.080
69429W        W34689  40.980  37.440   0.260
69430W        W34690  32.402  41.869  11.599
69431W        W34691  33.119  36.054   3.311
69432W        W34692  21.444   6.678   1.856
69433W        W34693  37.324  41.253  14.488
69434W        W34694   7.905  19.995  12.356
69435W        W34695  33.445  25.466   0.705
69436W        W34696  40.013   4.798  12.108
69437W        W34697  41.430  35.551   4.727
69438W        W34698  22.140  10.254   3.939
69439W        W34699   4.773  24.087   3.588
69440W        W34700   8.825  13.045   3.214
69441W        W34701  28.676  12.766  14.006
69442W        W34702   7.219  18.413   2.628
69443W        W34703  13.594  28.538  12.054
69444W        W34704  30.650  32.857   3.777
69445W        W34705   5.296  44.048  13.937
69446W        W34706  23.194   3.278   3.626
69447W        W34707  38.571   6.193  11.622
69448W        W34708  33.377  40.341  12.988
69449W        W34709  37.977  39.795  10.588
69450W        W34710  26.819   1.796  14.768
69451W        W34711  33.058   2.762   3.850
69452W        W34712  10.615  17.215   2.148
69453W        W34713  12.438  30.006  10.237
69454W        W34714  40.935  25.494  11.106
69455W        W34715  13.420   3.968   3.754
69456W        W34716  36.447  17.376   4.552
69457W        W34717  12.268  43.776   2.122
69458W        W34718  25.945  22.667  10.624
69459W        W34719  11.274   2.671  11.589
69460W        W34720  18.757  43.468   2.391
69461W        W34721  28.757  14.574   2.008
69462W        W34722  24.930  41.299   2.274
69463W        W34723  17.148  41.361  11.190
69464W        W34724  27.888  25.580   4.130
69465W        W34725  31.893   4.701   1.896
69466W        W34726   6.196  42.240   4.550
69467W        W34727  39.108  39.017   1.196
69468W        W34728  13.620   6.408   1.332
69469W        W34729  19.359  25.542   3.667
69470W        W34730  42.326  10.108  14.406
69471W        W34731   1.017  31.074   3.052
69472W        W34732  20.907  39.041  12.473
69473W        W34733   5.727  16.018   2.599
69474W        W34734  44.403   7.800  14.308
69475W        W34735  36.555   6.662  11.089
69476W        W34736   4.400  11.386  11.129
69477W        W34737   9.553  36.039  11.852
69478W        W34738  17.352   8.015   1.822
69479W        W34739  13.708  19.840  12.836
69480W        W34740   1.934  11.232   3.821
69481W        W34741  41.852  42.931   0.829
69482W        W34742  25.499  14.294   0.620
69483W        W34743   4.913   9.992  12.612
69484W        W34744  28.557  16.635  12.739
69485W        W34745   8.260  13.326  13.499
69486W        W34746  42.991  10.289  14.894
69487W        W34747   5.026  34.921  14.242
69488W        W34748  25.276  35.039   0.382
69489W        W34749   7.436  13.319  14.345
69490W        W34750   0.400  12.660   0.243
69491W        W34751   9.083  26.558   0.238
69492W        W34752  14.584  36.203   3.053
69493W        W34753  42.864   1.981  11.704
69494W        W34754  31.164  30.501  14.310
69495W        W34755  39.842  37.447   3.433
69496W        W34756  37.582  16.979  13.487
69497W        W34757  11.846  41.939  14.764
69498W        W34758  24.568  37.968   3.238
69499W        W34759  36.335  36.466  11.600
69500W        W34760  36.410  27.515  11.490
69501W        W34761   3.127  27.585  13.836
69502W        W34762  42.524  34.387  12.033
69503W        W34763  18.377   7.515  11.879
69504W        W34764   1.463   3.029  12.685
69505W        W34765  24.065   7.318  13.839
69506W        W34766  18.232  15.073  14.962
69507W        W34767   1.351  39.253  12.494
69508W        W34768  30.073  19.237  10.650
69509W        W34769  29.768  41.292   3.833
69510W        W34770  44.289   9.148  11.132
69511W        W34771  26.075   9.599   2.625
69512W        W34772  28.696  27.722   3.362
69513W        W34773  42.566  10.190   3.936
69514W        W34774  16.805  14.829  13.520
69515W        W34775   6.237  18.557   2.689
69516W        W34776  18.246  28.113  10.671
69517W        W34777  42.515   9.178  14.298
69518W        W34778  11.426  21.661   1.270
69519W        W34779  35.620  39.464  12.342
69520W        W34780  39.576  11.782   2.262
69521W        W34781  13.331  30.396   1.215
69522W        W34782  36.709   4.335   3.628
69523W        W34783  14.694  21.758   4.230
69524W        W34784  13.559  32.389  12.042
69525W        W34785  15.210  23.975   4.873
69526W        W34786  19.541  24.461   2.142
69527W        W34787  20.280  37.677   4.172
69528W        W34788  24.725  41.389  13.394
69529W        W34789   6.416  16.283  10.792
69530W        W34790  19.790  26.990  12.493
69531W        W34791  39.071  19.061   4.883
69532W        W34792   2.991  25.983   1.679
69533W        W34793  41.481  21.004   4.776
69534W        W34794  12.705   3.450  12.122
69535W        W34795  13.320   0.412   0.795
69536W        W34796  18.717  43.900  12.490
69537W        W34797  31.045  27.669   2.767
69538W        W34798  34.867  25.444  12.458
69539W        W34799   0.557  40.998   1.375
69540W        W34800  41.504  10.954   1.800
69541W        W34801  13.884   4.820   0.454
69542W        W34802  43.073  19.322   3.814
69543W        W34803  33.979   6.859  14.383
69544W        W34804  24.492  12.696  13.635
69545W        W34805  44.361  21.701  10.144
69546W        W34806  20.757  34.685   2.334
69547W        W34807  43.497   3.952  13.140
69548W        W34808  24.936   3.941   0.274
69549W        W34809  41.703  23.590   4.260
69550W        W34810  29.366   6.658   1.675
69551W        W34811  42.436  17.177  11.555
69552W        W34812  32.173  23.013  11.626
69553W        W34813  21.009  44.107  13.335
69554W        W34814  13.632  40.273   2.790
69555W        W34815  24.652  41.468  11.987
69556W        W34816  14.271  11.820   5.285
69557W        W34817  11.190  33.342   1.613
69558W        W34818  23.480  29.492  14.355
69559W        W34819  23.018  36.258   2.776
69560W        W34820  17.577  17.660  11.640
69561W        W34821  38.892  38.778  14.492
69562W        W34822  42.299  11.168  13.576
69563W        W34823  31.529  42.924   0.368
69564W        W34824   6.332   3.350   0.611
69565W        W34825   9.409  38.934  11.761
69566W        W34826  16.853   6.873   3.810
69567W        W34827   1.955  27.618   4.762
69568W        W34828  36.530   5.638   1.336
69569W        W34829  20.366   0.461   2.268
69570W        W34830  34.360  28.025   3.794
69571W        W34831  28.538  17.064   3.876
69572W        W34832   9.857  14.363   2.398
69573W        W34833  24.749  16.249   2.835
69574W        W34834  39.734   9.793  11.235
69575W        W34835  44.255  32.928   4.307
69576W        W34836  36.876  16.143   3.627
69577W        W34837   7.830   1.869   3.364
69578W        W34838  16.685  41.959  10.579
69579W        W34839  19.980   8.809  13.363
69580W        W34840  11.185  35.058   3.386
69581W        W34841  12.767  36.275  11.081
69582W        W34842  38.935  22.344  11.548
69583W        W34843  29.592   5.248  12.770
69584W        W34844   7.290  10.849   0.079
69585W        W34845  15.845   0.481   2.612
69586W        W34846  20.096  42.753  12.101
69587W        W34847  37.446   3.470   1.390
69588W        W34848  39.346   5.489   2.112
69589W        W34849   1.991   1.218  12.474
69590W        W34850   6.902  41.241  11.591
69591W        W34851  15.488  12.209  14.953
69592W        W34852  31.209  21.554  10.996
69593W        W34853  42.111  32.716  11.355
69594W        W34854  39.001  44.778  12.413
69595W        W34855  44.767  25.953  14.703
69596W        W34856  44.454  19.564   4.555
69597W        W34857  14.898  16.479  11.509
69598W        W34858  11.790  20.473   3.355
69599W        W34859  25.159  22.458   2.316
69600W        W34860  13.020  26.646  13.474
69601W        W34861  11.455  18.461   2.372
69602W        W34862  31.043  42.984  14.720
69603W        W34863   4.600  16.170   4.597
69604W        W34864   9.681  24.566  14.566
69605W        W34865   1.696  24.126  13.017
69606W        W34866  25.694  32.784   4.149
69607W        W34867  33.846  39.812  10.630
69608W        W34868  23.969   5.461   0.645
69609W        W34869  14.067   3.799  13.374
69610W        W34870  12.595  29.710   0.943
69611W        W34871  30.133   0.671   2.767
69612W        W34872   4.172  12.879  12.878
69613W        W34873  19.592  11.100  13.525
69614W        W34874  24.226  30.694  11.906
69615W        W34875  26.089  39.671  10.887
69616W        W34876  38.295  26.625  14.050
69617W        W34877  15.333   3.049   1.399
69618W        W34878  21.661  24.780   0.333
69619W        W34879  33.448  14.689   3.034
69620W        W34880  27.396  24.693   0.393
69621W        W34881  15.051  12.298   4.254
69622W        W34882  44.058  26.608  11.398
69623W        W34883  12.039   5.425  11.907
69624W        W34884  20.027  17.497  14.286
69625W        W34885   9.834  12.160   2.653
69626W        W34886   7.671  21.251  12.828
69627W        W34887  43.075  28.998  10.247
69628W        W34888  35.080  25.683   2.235
69629W        W34889  15.237   5.897   3.189
69630W        W34890  39.802  36.319  12.559
69631W        W34891  19.111   2.278   4.508
69632W        W34892   1.395  39.483  12.034
69633W        W34893  14.724   0.271  12.802
69634W        W34894  16.880   1.015   4.582
69635W        W34895  33.014  27.542  12.469
69636W        W34896  37.182   3.632   4.915
69637W        W34897  20.581  11.098   3.596
69638W        W34898  32.152  12.291  11.559
69639W        W34899  32.605  23.523   3.745
69640W        W34900  16.274  42.832  13.441
69641W        W34901   3.758  29.587  12.476
69642W        W34902   4.962   6.689  13.858
69643W        W34903   8.890  33.149   4.272
69644W        W34904  35.505  12.311  13.892
69645W        W34905  38.741  43.579  12.945
69646W        W34906   0.570  32.217   0.005
69647W        W34907  14.789  23.155  10.182
69648W        W34908  15.199  35.812   1.461
69649W        W34909  18.085  41.507  11.427
69650W        W34910  12.284  22.319  11.556
69651W        W34911  25.536  28.591  12.964
69652W        W34912  32.723   5.787  13.834
69653W        W34913   5.377  23.460  13.027
69654W        W34914   2.477   2.505   2.327
69655W        W34915   7.688  14.986  11.007
69656W        W34916  20.127  11.217   2.781
69657W        W34917  22.655   4.613  13.088
69658W        W34918  38.832  44.699   3.308
69659W        W34919   9.336   3.801  12.935
69660W        W34920   3.691  10.272  10.194
69661W        W34921  44.625  29.975  11.141
69662W        W34922   9.897  23.597  13.027
69663W        W34923  38.056   3.909  10.247
69664W        W34924  15.834  29.432   4.695
69665W        W34925  42.909   0.203   1.908
69666W        W34926  28.917   3.789   0.795
69667W        W34927  43.899   7.668   4.349
69668W        W34928   7.010  15.702  14.961
69669W        W34929   5.043  23.160   4.938
69670W        W34930   1.963  32.487  14.280
69671W        W34931   8.317  40.573   0.554
69672W        W34932  32.809   4.899   4.551
69673W        W34933   4.814  18.773  14.573
69674W        W34934  31.085  33.861   2.222
69675W        W34935  43.987  17.887  14.899
69676W        W34936  38.914   5.895  14.836
69677W        W34937   4.431  16.184   3.672
69678W        W34938   7.426  12.779   3.110
69679W        W34939  15.812  22.202   4.497
69680W        W34940  15.302  27.172  14.418
69681W        W34941  14.689  17.724  11.026
69682W        W34942  20.784  14.621   2.618
69683W        W34943  38.762  35.790  10.712
69684W        W34944  25.394  28.679  11.145
69685W        W34945  42.736  33.117   2.869
69686W        W34946  23.284  40.942  11.866
69687W        W34947  29.010  36.008  14.838
69688W        W34948  13.386  36.089  14.555
69689W        W34949  32.828  15.332  11.434
69690W        W34950  43.089  15.379  10.224
69691W        W34951  34.892  19.179   3.774
69692W        W34952  31.647  30.252  12.046
69693W        W34953  10.659  18.666   3.793
69694W        W34954  14.382  20.842  12.641
69695W        W34955   5.721  12.978   0.628
69696W        W34956  21.272  35.974  14.100
69697W        W34957   1.175  24.083   1.959
69698W        W34958  37.991  41.491   3.931
69699W        W34959  44.511  38.084   3.230
69700W        W34960  17.329  12.808  11.284
69701W        W34961  10.686  25.625   1.671
69702W        W34962  40.073  42.784   2.580
69703W        W34963   9.111   5.274   0.391
69704W        W34964  16.332  16.512  12.312
69705W        W34965  13.681  33.625   0.770
69706W        W34966  27.883  17.430   0.041
69707W        W34967  34.248  44.107   1.237
69708W        W34968   0.360   2.520  12.914
69709W        W34969  37.583   5.883   1.441
69710W        W34970  13.811  41.821   2.394
69711W        W34971  28.453   3.384  11.616
69712W        W34972  41.423  30.986   0.440
69713W        W34973  25.215  29.897   4.183
69714W        W34974  19.203  29.722  10.796
69715W        W34975  30.321  30.631   1.786
69716W        W34976  44.709   2.460   3.162
69717W        W34977   2.023   6.964  10.945
69718W        W34978   9.745  29.303  13.399
69719W        W34979  13.813  40.835  13.875
69720W        W34980  42.419  38.117  10.451
69721W        W34981  23.594  37.557   4.226
69722W        W34982  32.820  25.053   2.367
69723W        W34983  42.889   4.685  12.590
69724W        W34984  17.987  20.660   1.302
69725W        W34985   2.442   9.565  13.600
69726W        W34986  43.001  18.445   3.504
69727W        W34987   3.781  39.503  14.363
69728W        W34988  23.032  30.919   2.649
69729W        W34989  18.980  20.510  14.395
69730W        W34990  43.853  11.698   1.022
69731W        W34991  17.075  44.119   0.490
69732W        W34992  14.161   5.200   0.759
69733W        W34993   2.879  29.953  10.197
69734W        W34994  34.825  38.992   1.829
69735W        W34995   4.890   6.136   0.511
69736W        W34996  12.484  27.540  11.388
69737W        W34997  11.207  42.848   1.381
69738W        W34998   1.342  14.159   3.738
69739W        W34999   5.335   5.411   4.117
69740W        W35000  33.901  41.859  13.472
69741W        W35001   7.212  19.025   1.320
69742W        W35002  31.657  29.523   0.107
69743W        W35003  13.861   5.272   3.820
69744W        W35004   4.433   9.310   3.676
69745W        W35005  21.149  37.949  10.573
69746W        W35006  40.437  17.188   2.447
69747W        W35007  12.564  30.722  11.845
69748W        W35008  23.599   7.132  13.566
69749W        W35009  13.900   8.852  14.070
69750W        W35010  18.757   3.399   0.792
69751W        W35011  13.640  15.603   5.340
69752W        W35012  44.696  28.424   2.187
69753W        W35013  27.578  24.502   3.258
69754W        W35014  43.061  29.699  11.911
69755W        W35015  41.545  11.346  14.257
69756W        W35016  16.847  21.578  13.384
69757W        W35017  31.299   2.694   3.103
69758W        W35018  31.543  23.846  12.782
69759W        W35019  43.963  14.657   9.812
69760W        W35020  16.430  23.569  12.080
69761W        W35021  12.872  14.971   2.549
69762W        W35022  34.453   1.523   5.031
69763W        W35023  39.469  26.535   1.919
69764W        W35024  38.693  40.310  13.889
69765W        W35025  14.266  41.121   1.884
69766W        W35026  30.523  25.082   0.795
69767W        W35027  25.208  20.174  14.806
69768W        W35028  33.730   8.686  12.935
69769W        W35029  17.100  30.262  13.510
69770W        W35030   0.306   2.722   1.203
69771W        W35031  15.535  28.965   4.578
69772W        W35032  35.051  38.623  14.992
69773W        W35033   6.692  33.464   2.739
69774W        W35034  43.873  32.021  11.421
69775W        W35035  35.286   7.957  14.996
69776W        W35036  32.054  16.151  12.296
69777W        W35037  27.439  37.666   2.913
69778W        W35038  21.857  14.287   3.364
69779W        W35039  22.457  39.064  12.314
69780W        W35040  35.323  23.218   2.549
69781W        W35041  40.289   4.924  12.543
69782W        W35042  38.874  26.206  10.689
69783W        W35043   8.939  21.765  14.829
69784W        W35044  29.924  30.686  14.834
69785W        W35045  11.448  26.294   5.107
69786W        W35046  23.015   2.729  12.041
69787W        W35047  41.568   9.093   0.998
69788W        W35048  35.342  42.289   1.716
69789W        W35049   4.821  16.553   1.979
69790W        W35050   6.594  40.941  11.177
69791W        W35051  42.953  41.326   0.309
69792W        W35052  38.402  44.563  11.563
69793W        W35053  40.356  21.217   3.189
69794W        W35054   4.425  28.463  12.041
69795W        W35055   9.770   2.643  13.913
69796W        W35056  14.307  22.333  11.197
69797W        W35057  10.359  13.812   0.792
69798W        W35058  38.436  19.063  12.371
69799W        W35059  15.398  35.678   3.310
69800W        W35060  17.516  32.176  13.508
69801W        W35061  37.322  40.869  12.905
69802W        W35062   0.406  17.190  13.737
69803W        W35063  35.406  10.032  11.684
69804W        W35064   7.483  41.775   2.978
69805W        W35065   2.781  38.410  10.761
69806W        W35066   9.825  25.044  11.031
69807W        W35067  28.048  34.464  10.086
69808W        W35068  34.914   2.504   3.879
69809W        W35069  26.555   7.435  10.493
69810W        W35070   8.649  35.358  14.459
69811W        W35071  25.022   3.710   0.927
69812W        W35072  29.537  26.761   4.156
69813W        W35073   6.830   3.622  14.975
69814W        W35074   8.795   7.381  11.075
69815W        W35075  29.123  38.063  11.055
69816W        W35076  24.646  29.721  14.385
69817W        W35077   3.406  16.301  10.661
69818W        W35078   9.644  11.202   4.202
69819W        W35079   1.428  25.241  14.326
69820W        W35080  36.286   6.188  10.969
69821W        W35081  23.223  37.988  12.178
69822W        W35082  29.360  12.323  14.350
69823W        W35083  21.847  19.690  11.451
69824W        W35084  39.555  31.933   1.822
69825W        W35085   8.668  11.706  10.485
69826W        W35086   7.979  20.583  14.357
69827W        W35087  10.214  37.907   0.498
69828W        W35088  13.861  20.721  12.404
69829W        W35089   1.428   3.485  14.361
69830W        W35090  32.090   5.929   0.488
69831W        W35091   0.357   4.037   0.312
69832W        W35092  10.532  43.715   3.222
69833W        W35093  23.468  16.361   3.633
69834W        W35094  33.556  43.312  11.426
69835W        W35095  27.474   9.158   2.826
69836W        W35096   1.245  10.472  13.255
69837W        W35097  22.119  26.766   2.819
69838W        W35098  43.783  11.200  13.292
69839W        W35099  30.376  23.402  14.400
69840W        W35100  43.832  15.394  11.963
69841W        W35101  31.963  22.080   0.484
69842W        W35102  44.386  33.975  13.293
69843W        W35103  17.966  24.031  11.645
69844W        W35104   5.460  18.943   1.866
69845W        W35105   6.500  32.920  14.980
69846W        W35106   4.927  15.246   4.799
69847W        W35107  33.402  41.884  13.355
69848W        W35108  33.327  17.024   4.986
69849W        W35109  13.339  25.614  11.639
69850W        W35110   9.449  44.949   2.873
69851W        W35111  30.433  41.508  13.503
69852W        W35112  35.148  37.576   3.794
69853W        W35113  22.771  19.807   0.323
69854W        W35114  43.530  27.067   1.868
69855W        W35115   3.932  15.118  11.879
69856W        W35116  16.815  36.796   3.911
69857W        W35117  34.043  44.825   0.116
69858W        W35118   9.967   4.198  10.638
69859W        W35119  23.661   1.151   1.364
69860W        W35120  39.813   0.777  10.763
69861W        W35121  29.621  37.436  11.552
69862W        W35122  42.146  39.127  12.837
69863W        W35123  13.136  19.330   3.666
69864W        W35124  39.452  34.003   3.229
69865W        W35125  12.798   8.777   1.331
69866W        W35126  29.876  18.290  10.492
69867W        W35127   6.941   5.441  11.556
69868W        W35128  32.498  40.364  13.351
69869W        W35129  31.908  34.762  13.153
69870W        W35130  24.943  17.632   2.086
69871W        W35131  14.436  44.977   0.419
69872W        W35132  29.572  43.905   0.664
69873W        W35133   2.909  40.325  13.910
69874W        W35134  25.544  22.046  11.815
69875W        W35135   1.175  23.717   0.860
69876W        W35136  15.107   5.212   1.024
69877W        W35137  35.764  39.840  13.805
69878W        W35138  44.265  33.935  11.905
69879W        W35139  42.993   3.778   1.155
69880W        W35140   8.382  37.087  13.835
69881W        W35141  25.703  36.409  12.132
69882W        W35142   2.342  10.167   2.210
69883W        W35143   8.213  28.405   0.408
69884W        W35144   5.707  25.771   5.013
69885W        W35145  23.580  39.527   0.453
69886W        W35146  25.095  44.859  13.547
69887W        W35147  41.978   3.522  13.981
69888W        W35148   4.666   6.257  12.053
69889W        W35149  14.409   1.357  10.616
69890W        W35150  21.048  34.373  11.051
69891W        W35151  22.244  37.115  10.320
69892W        W35152  34.111   8.698  11.965
69893W        W35153  29.210  12.919   2.244
69894W        W35154  25.830  24.710   3.809
69895W        W35155  21.228  10.120  10.571
69896W        W35156  32.262  19.783  12.962
69897W        W35157  44.610  44.910  14.362
69898W        W35158  25.245  22.646   3.216
69899W        W35159  42.154  17.742  14.521
69900W        W35160  22.641   8.007   4.087
69901W        W35161   7.179  20.123   1.768
69902W        W35162  11.449  15.283  14.879
69903W        W35163  15.833   0.950   0.087
69904W        W35164  26.955  10.340  12.045
69905W        W35165  34.346  26.105  11.875
69906W        W35166  11.222  26.188   2.199
69907W        W35167   7.281  25.072   2.246
69908W        W35168  41.733  25.923   1.623
69909W        W35169   4.351  29.222  13.921
69910W        W35170  13.734  24.205  14.505
69911W        W35171  39.839  39.714  12.054
69912W        W35172  17.494  16.330   0.062
69913W        W35173  28.205   5.825  12.148
69914W        W35174  17.358  11.626   1.887
69915W        W35175   4.200  44.756  13.210
69916W        W35176  40.248   7.780   4.081
69917W        W35177  17.338  41.501  10.494
69918W        W35178  26.159  10.841   3.481
69919W        W35179  26.009  18.119  12.514
69920W        W35180   5.979  26.636   3.573
69921W        W35181   2.311  16.192  10.630
69922W        W35182   7.691  26.639   1.917
69923W        W35183  31.092  26.061  13.505
69924W        W35184  13.360  33.646  11.472
69925W        W35185   5.960   2.836   9.929
69926W        W35186  22.503  36.919   2.978
69927W        W35187  33.285  40.907   3.295
69928W        W35188  42.519  37.852   0.874
69929W        W35189  25.235  28.102  13.073
69930W        W35190  13.724   8.667  11.592
69931W        W35191   9.119  19.134  11.067
69932W        W35192  43.786  31.213   2.189
69933W        W35193  19.535   4.419  10.046
69934W        W35194  23.043  12.203  14.646
69935W        W35195  25.033  17.624  10.736
69936W        W35196  20.450  22.728  10.363
69937W        W35197  38.057  13.894   0.714
69938W        W35198  44.308  40.441   0.702
69939W        W35199  20.763  36.399   4.146
69940W        W35200  22.785  20.228   1.772
69941W        W35201   9.743   4.351   1.698
69942W        W35202  38.670  35.441  12.429
69943W        W35203  15.885  10.409   0.854
69944W        W35204   4.480  15.694   4.753
69945W        W35205  42.519  34.947  11.135
69946W        W35206  11.526  16.639  12.387
69947W        W35207  12.805  29.530   4.558
69948W        W35208  24.678  24.173  11.864
69949W        W35209  36.889  34.416  13.627
69950W        W35210   7.661  32.367  14.312
69951W        W35211   3.490  36.946  13.142
69952W        W35212  32.130  27.997  12.284
69953W        W35213  35.917  37.422   3.260
69954W        W35214  13.777   5.683   2.337
69955W        W35215  37.293  36.352   0.825
69956W        W35216  38.903   2.418   3.063
69957W        W35217  34.884  21.850  11.323
69958W        W35218  16.848  38.067   4.573
69959W        W35219  13.838  12.149  12.014
69960W        W35220  18.006  38.920   4.577
69961W        W35221  17.364  17.781   2.759
69962W        W35222  38.385  43.968   2.330
69963W        W35223  24.306  15.789  13.876
69964W        W35224  29.138  19.536   1.740
69965W        W35225  13.326  35.522  10.738
69966W        W35226  39.392  44.009  14.971
69967W        W35227   9.862  39.644  11.191
69968W        W35228  25.554   5.613   2.605
69969W        W35229  25.768  14.715   2.391
69970W        W35230  29.148   2.833  13.034
69971W        W35231  15.017  42.559   4.116
69972W        W35232  18.206  12.917   0.681
69973W        W35233  17.124  17.769  11.048
69974W        W35234  40.503  31.605  11.222
69975W        W35235   9.826  14.167  13.109
69976W        W35236  32.597  37.198  14.874
69977W        W35237  30.550  36.057  13.027
69978W        W35238   7.866  32.510  11.326
69979W        W35239  39.892  10.780  13.327
69980W        W35240  13.100  15.526  11.167
69981W        W35241  24.199  10.209   1.271
69982W        W35242   6.832  35.180  12.144
69983W        W35243  16.877  29.093  10.637
69984W        W35244  22.227  28.648   3.412
69985W        W35245  26.202  31.862  14.338
69986W        W35246  43.341  22.701  12.951
69987W        W35247  28.071  23.246   2.280
69988W        W35248  15.888  12.462  14.731
69989W        W35249  42.754  14.422  12.050
69990W        W35250  13.257   7.742   1.678
69991W        W35251   2.379   2.730   2.787
69992W        W35252  18.474  20.497   2.162
69993W        W35253  22.275  25.989  13.788
69994W        W35254  21.627  36.838   1.899
69995W        W35255   9.351  28.876  11.604
69996W        W35256  30.141  34.138  11.848
69997W        W35257  13.748  36.562   3.136
69998W        W35258   9.420  39.064   4.168
69999W        W35259   1.395  16.382  11.516
70000W        W35260  32.725  36.464  12.566
70001W        W35261  11.301   4.921   2.239
70002W        W35262  31.247  32.006   1.261
70003W        W35263  33.974  35.031   3.277
70004W        W35264  35.025  27.713  11.553
70005W        W35265  27.174   6.161   0.229
70006W        W35266  17.165   0.809  14.994
70007W        W35267   2.352   6.847  12.970
70008W        W35268   3.458  30.586   0.897
70009W        W35269  28.830  38.640   3.436
70010W        W35270   5.347  19.031  10.990
70011W        W35271  35.885   7.071   2.166
70012W        W35272  32.733   7.983   3.658
70013W        W35273  11.112  18.478  11.094
70014W        W35274   3.536  25.092  12.591
70015W        W35275   9.381  41.597   2.613
70016W        W35276  15.730  12.755  11.227
70017W        W35277   5.858  44.294  14.150
70018W        W35278  13.230  28.120  12.209
70019W        W35279  19.963   8.353  14.478
70020W        W35280  40.350  23.938   3.675
70021W        W35281  18.775  42.265  14.819
70022W        W35282  29.149  30.108  12.841
70023W        W35283   1.942  37.867  13.408
70024W        W35284  18.579  29.789   0.801
70025W        W35285  14.261  23.459   3.604
70026W        W35286  22.205  22.311   0.323
70027W        W35287  24.460  11.443  10.805
70028W        W35288   5.637  15.195  14.880
70029W        W35289  23.098   7.879  13.424
70030W        W35290  19.548  18.246   3.696
70031W        W35291  35.109  11.958  10.181
70032W        W35292   4.603  34.321   0.980
70033W        W35293  38.025  25.694   0.209
70034W        W35294  34.034  27.083  13.405
70035W        W35295  15.187  16.308  10.552
70036W        W35296  18.272   1.314   2.327
70037W        W35297   3.858  14.162  14.460
70038W        W35298  17.134  25.551   1.148
70039W        W35299  39.106  39.238   2.579
70040W        W35300  21.270   6.763  13.294
70041W        W35301  31.998  25.085   0.012
70042W        W35302  43.194  10.224   4.525
70043W        W35303  40.227  24.510  14.836
70044W        W35304  14.502  24.125  13.339
70045W        W35305  37.602  33.847  12.073
70046W        W35306   2.891  16.561   4.493
70047W        W35307  25.654   1.621  13.393
70048W        W35308  18.970   8.157  12.965
70049W        W35309   3.963  40.630  11.160
70050W        W35310  17.223  17.411  10.666
70051W        W35311  35.924  31.116   3.720
70052W        W35312  34.371  30.576  11.219
70053W        W35313  24.207  42.975   2.891
70054W        W35314   1.889  42.717  14.841
70055W        W35315  31.813  27.514  14.019
70056W        W35316  42.327  39.317  13.636
70057W        W35317   8.880  17.446   2.960
70058W        W35318  17.665  34.566   0.769
70059W        W35319   8.692  18.234   3.526
70060W        W35320   0.238  28.957   3.822
70061W        W35321  29.411  23.659  12.064
70062W        W35322  26.695  39.412  11.465
70063W        W35323   1.725  10.608  13.106
70064W        W35324  10.134  32.339   4.994
70065W        W35325  14.901   8.142   1.632
70066W        W35326  28.545  44.681  10.332
70067W        W35327   3.896   2.728   0.272
70068W        W35328  25.704  21.244  11.117
70069W        W35329  17.231  43.232  14.680
70070W        W35330   5.375  11.257  13.603
70071W        W35331  39.353  10.716   0.371
70072W        W35332  44.896   1.913   0.900
70073W        W35333  11.538  44.588  12.937
70074W        W35334  36.444  21.870   3.691
70075W        W35335  21.553  23.582   0.272
70076W        W35336  25.604  36.891   1.343
70077W        W35337  14.117  27.919   1.371
70078W        W35338  10.723   6.985   3.053
70079W        W35339  21.286  31.132   0.865
70080W        W35340  43.460  17.242  11.953
70081W        W35341  19.262  43.763   1.701
70082W        W35342   8.897  24.706  14.990
70083W        W35343  10.954  34.507  12.588
70084W        W35344  35.374  43.735   2.245
70085W        W35345  33.085   7.670   3.836
70086W        W35346   9.091  26.897  14.793
70087W        W35347  29.893  29.165  12.234
70088W        W35348  20.815  29.866  11.941
70089W        W35349  30.783  32.093  12.140
70090W        W35350   0.274   5.656  11.249
70091W        W35351  20.827  23.979   4.334
70092W        W35352  37.764  31.975   0.869
70093W        W35353  32.045  15.067  12.104
70094W        W35354  17.254  28.059  12.082
70095W        W35355  25.333   2.326  11.706
70096W        W35356  16.679  30.110   4.476
70097W        W35357  34.545  20.163  11.554
70098W        W35358  42.094   4.731  11.994
70099W        W35359  22.025  38.992   1.757
70100W        W35360   1.339  15.078  14.705
70101W        W35361  44.323  13.737   3.643
70102W        W35362   4.875   1.524  13.367
70103W        W35363   9.169  23.407   1.469
70104W        W35364  27.132  15.005   4.543
70105W        W35365  31.632  23.072   3.650
70106W        W35366   5.844  33.599   3.699
70107W        W35367  41.445  37.816  14.266
70108W        W35368  27.502  16.662   1.951
70109W        W35369  36.076   7.876   3.784
70110W        W35370  34.641  16.284   4.153
70111W        W35371  15.616  24.987  10.009
70112W        W35372  44.406  12.805  12.602
70113W        W35373   3.397  21.047   1.836
70114W        W35374  33.699   7.472   4.473
70115W        W35375  39.027  44.826   5.028
70116W        W35376  43.348  10.463   4.977
70117W        W35377   0.934   8.296  12.572
70118W        W35378  27.352  36.050  12.489
70119W        W35379  33.965  44.953  12.540
70120W        W35380  22.477  17.826   1.799
70121W        W35381   9.399  24.963  10.617
70122W        W35382  28.653   9.565  14.176
70123W        W35383  19.508  13.135  11.357
70124W        W35384  24.970  14.114  14.296
70125W        W35385  33.757  33.484  12.577
70126W        W35386  29.310  36.671  11.921
70127W        W35387  36.483   2.031  12.624
70128W        W35388  13.800   4.687  11.983
70129W        W35389  39.612  36.527  13.007
70130W        W35390   9.119  39.894  14.036
70131W        W35391  31.442  15.263   3.450
70132W        W35392   8.791  23.016   3.374
70133W        W35393   4.977  21.134   4.618
70134W        W35394  38.069  30.060  12.108
70135W        W35395  12.561  34.139  10.680
70136W        W35396  13.834  22.917  13.327
70137W        W35397  40.534  24.512  14.435
70138W        W35398   1.896  29.338  13.786
70139W        W35399  13.820  39.753   4.545
70140W        W35400  44.929  28.199  11.591
70141W        W35401  40.404  35.834   2.779
70142W        W35402  13.529  12.085   0.368
70143W        W35403   1.877   5.481   3.709
70144W        W35404  27.553  19.155   2.931
70145W        W35405  29.994   0.206  11.890
70146W        W35406   2.665  14.919  10.725
70147W        W35407  25.535  21.516   4.620
70148W        W35408  13.947   7.862  12.860
70149W        W35409  30.958  14.495  11.559
70150W        W35410  16.189  41.599   2.132
70151W        W35411  22.252  20.952  10.623
70152W        W35412  14.486   1.510   4.633
70153W        W35413   6.462   1.824   3.714
70154W        W35414  23.264  40.584   2.849
70155W        W35415  13.709  28.480  12.560
70156W        W35416  29.243  25.832   5.169
70157W        W35417  16.110   7.747  12.177
70158W        W35418   0.934  39.449   1.261
70159W        W35419  44.813  37.994  13.042
70160W        W35420   4.517   8.324  13.021
70161W        W35421  30.737  13.152   3.698
70162W        W35422  31.394   5.578   3.319
70163W        W35423  33.039  36.800   1.104
70164W        W35424  20.712  33.636   2.351
70165W        W35425  13.556  30.513  10.620
70166W        W35426  20.809  43.953   3.868
70167W        W35427  39.448  20.702   4.085
70168W        W35428  23.742  13.166   1.857
70169W        W35429  28.911  17.280  13.936
70170W        W35430  25.257   5.485  13.447
70171W        W35431  35.482   5.190  14.659
70172W        W35432   7.300  39.877   3.610
70173W        W35433  11.050  14.589  13.466
70174W        W35434  41.686  14.270  11.130
70175W        W35435  27.080   4.511   3.667
70176W        W35436  30.892   4.599   2.682
70177W        W35437  38.488  36.889  13.069
70178W        W35438   1.287  27.633  11.275
70179W        W35439  19.645  16.371   3.679
70180W        W35440  32.625  37.187   1.227
70181W        W35441  10.842  39.880   1.706
70182W        W35442  43.358  38.425  11.232
70183W        W35443  21.542  30.713   3.184
70184W        W35444  28.762  12.700   2.107
70185W        W35445  20.523  14.571   1.656
70186W        W35446  32.378  15.173  14.522
70187W        W35447  41.869  24.835   4.589
70188W        W35448  44.512  41.415  12.840
70189W        W35449  28.052  37.768   1.252
70190W        W35450  42.402  18.097   1.822
70191W        W35451  13.288  26.214  12.494
70192W        W35452  23.305  32.520   3.818
70193W        W35453  39.039  40.225   5.045
70194W        W35454  43.902   7.297   1.924
70195W        W35455  27.873  21.500  11.477
70196W        W35456  15.653   9.657  11.117
70197W        W35457  29.480  24.776   3.639
70198W        W35458  35.350  28.102  10.682
70199W        W35459  24.525  16.389   4.562
70200W        W35460  31.016   3.599   2.594
70201W        W35461  23.118  16.739   2.864
70202W        W35462  28.979  15.293   3.887
70203W        W35463  14.729  32.109   1.225
70204W        W35464  29.654  11.950  10.243
70205W        W35465  40.421   7.074  11.216
70206W        W35466  35.861  12.813  10.926
70207W        W35467  40.383   8.274   3.228
70208W        W35468   4.275  30.375  14.329
70209W        W35469   6.850  16.242  12.393
70210W        W35470  24.518  24.672   1.930
70211W        W35471   0.848  23.063   2.939
70212W        W35472  39.805  10.342   2.979
70213W        W35473  22.562  22.460   2.383
70214W        W35474  34.773   5.486  11.964
70215W        W35475   5.360  21.606  12.829
70216W        W35476  36.664  14.168  13.848
70217W        W35477   4.514  12.650  12.549
70218W        W35478  42.245  28.054  11.117
70219W        W35479  26.539  15.386  12.119
70220W        W35480  24.227   5.846  12.005
70221W        W35481  34.975   8.946  13.971
70222W        W35482   2.722  13.909   3.658
70223W        W35483  28.454  12.249   0.752
70224W        W35484  44.132   4.311  13.527
70225W        W35485  29.165  18.793   2.243
70226W        W35486   8.933  27.561   1.184
70227W        W35487  21.733   8.821   1.868
70228W        W35488  14.256  37.063  10.813
70229W        W35489  27.120  17.647   4.546
70230W        W35490   1.056   5.700  13.339
70231W        W35491  14.603  36.816   0.294
70232W        W35492   9.302   2.380   3.236
70233W        W35493  24.892  12.702  14.099
70234W        W35494  17.813  27.276   1.602
70235W        W35495  34.571  44.257   3.256
70236W        W35496  21.539  13.048  14.887
70237W        W35497  15.079  10.085  12.832
70238W        W35498  24.401   3.781  11.681
70239W        W35499   8.746  16.774   0.628
70240W        W35500  38.328  19.156  11.042
70241W        W35501  20.792  41.528   2.685
70242W        W35502  32.470  43.411  12.454
70243W        W35503  36.238  29.159   1.738
70244W        W35504  28.072  37.581  14.318
70245W        W35505  22.215  26.136  10.743
70246W        W35506  16.052  32.879  10.707
70247W        W35507  10.878   1.651   4.048
70248W        W35508  12.256  35.668   0.373
70249W        W35509  42.727   7.404  14.901
70250W        W35510  31.580  17.870  10.740
70251W        W35511   1.199   4.119  13.147
70252W        W35512   2.623  26.391   1.286
70253W        W35513  28.610  30.917   2.273
70254W        W35514   2.482  15.481   3.201
70255W        W35515  20.968   4.228   1.682
70256W        W35516  15.654   7.934  14.341
70257W        W35517  40.424  16.230   3.496
70258W        W35518  21.927  15.559  14.888
70259W        W35519  32.226  24.273   1.433
70260W        W35520  12.224  21.130  14.098
70261W        W35521  44.229   3.681   2.682
70262W        W35522  25.635  31.760   1.728
70263W        W35523  35.162  14.270   0.930
70264W        W35524  33.813  21.634  13.371
70265W        W35525  29.152   7.461  11.982
70266W        W35526  42.889  27.702  10.660
70267W        W35527  11.783   8.099  14.604
70268W        W35528   0.834  21.989  11.602
70269W        W35529  33.070  31.809   1.937
70270W        W35530   1.273  28.073   1.825
70271W        W35531  21.563  27.424  11.941
70272W        W35532   0.405  40.508   4.671
70273W        W35533  26.374  29.908  13.192
70274W        W35534  10.173  27.902  14.426
70275W        W35535  10.601  38.920  13.891
70276W        W35536   0.497  28.108   3.260
70277W        W35537  11.725  35.899  13.345
70278W        W35538  40.059   3.766  13.870
70279W        W35539  22.255  21.294   0.257
70280W        W35540  24.499  38.741   4.923
70281W        W35541   6.179  11.527   4.362
70282W        W35542  35.704  29.960  10.699
70283W        W35543   6.322  29.499  13.585
70284W        W35544   2.940  11.113  12.962
70285W        W35545  32.313  15.111  11.440
70286W        W35546  28.787  12.154   3.264
70287W        W35547  13.630  39.090  11.219
70288W        W35548  21.676  36.063  14.392
70289W        W35549  12.220   3.155  13.403
70290W        W35550  39.092  42.231  11.899
70291W        W35551  37.512  28.733   2.109
70292W        W35552  36.463  18.169  12.425
70293W        W35553  16.968  27.158  13.389
70294W        W35554  18.309  42.534  13.407
70295W        W35555  25.888  41.634   2.327
70296W        W35556  18.517  39.321  13.940
70297W        W35557  16.583  34.325   4.065
70298W        W35558  41.097  19.624   1.799
70299W        W35559  33.000   7.318  13.022
70300W        W35560   0.272  32.207   1.417
70301W        W35561   7.013  44.304   2.875
70302W        W35562  14.265  22.691  12.602
70303W        W35563  15.321  25.752  13.075
70304W        W35564  22.058  12.828   1.616
70305W        W35565   5.253  28.035  14.682
70306W        W35566  37.207  33.834   2.683
70307W        W35567  29.458  21.737  13.295
70308W        W35568  24.412  22.093   5.338
70309W        W35569  31.379  17.355  14.456
70310W        W35570  13.764  15.257  14.573
70311W        W35571  10.123  44.277  11.009
70312W        W35572  12.136  42.387  14.751
70313W        W35573  38.245  34.133   2.063
70314W        W35574  22.450  18.820   0.341
70315W        W35575  24.089  13.504  11.589
70316W        W35576  16.116   5.684   3.741
70317W        W35577  26.380   5.588  11.701
70318W        W35578  11.378  44.762  13.868
70319W        W35579  30.089   7.675  14.825
70320W        W35580  39.913  25.533   4.162
70321W        W35581  15.906  15.789  11.991
70322W        W35582  33.618   2.263  10.628
70323W        W35583  42.462  31.144   4.130
70324W        W35584  31.097   2.765   2.615
70325W        W35585   6.722   8.880   0.833
70326W        W35586  30.031  41.562   0.194
70327W        W35587   2.690  35.658  13.298
70328W        W35588  40.902   0.001  14.959
70329W        W35589   0.389  19.470   2.685
70330W        W35590  23.145   5.724  11.680
70331W        W35591  21.299   0.302   3.205
70332W        W35592  36.131  24.884   1.635
70333W        W35593  23.380  16.681   4.138
70334W        W35594   6.349   7.333  12.331
70335W        W35595  40.871  32.843  10.803
70336W        W35596  29.956  25.804   1.170
70337W        W35597  29.590   0.270  13.093
70338W        W35598  11.677  38.679  12.107
70339W        W35599  21.693  18.525   1.870
70340W        W35600  38.522   7.799  14.906
70341W        W35601   7.586   4.287  13.486
70342W        W35602  10.441  12.310  13.472
70343W        W35603   1.007   3.221   2.387
70344W        W35604  36.063  12.286   3.329
70345W        W35605  22.208  24.802  13.795
70346W        W35606   2.841  31.717   3.728
70347W        W35607   5.470   2.453   3.077
70348W        W35608   7.698   8.826   4.713
70349W        W35609  23.493   0.941   1.879
70350W        W35610  24.930   0.053   0.460
70351W        W35611  21.773  18.520   3.422
70352W        W35612   2.201  18.340  12.095
70353W        W35613  21.615  12.242  11.274
70354W        W35614  22.675   5.671   0.278
70355W        W35615  22.711  28.922   0.413
70356W        W35616  20.710  27.226   1.766
70357W        W35617   1.652  31.930   4.136
70358W        W35618  18.314  25.741   0.767
70359W        W35619  21.613  28.279  12.496
70360W        W35620   2.823  40.099  13.448
70361W        W35621   9.360  15.649   1.178
70362W        W35622  22.758  44.287  14.967
70363W        W35623  30.944  11.237  14.918
70364W        W35624   2.979  42.959  11.663
70365W        W35625  42.516   9.205  14.823
70366W        W35626  10.242  23.298   2.206
70367W        W35627  20.213  31.155  14.813
70368W        W35628  22.904  26.084   4.191
70369W        W35629   4.607   2.345   4.458
70370W        W35630  15.024  44.190  10.253
70371W        W35631  42.029  33.481  10.454
70372W        W35632  29.348  14.486   4.076
70373W        W35633  38.313  15.741   2.681
70374W        W35634  29.760   3.438  14.287
70375W        W35635   3.746  36.163  12.825
70376W        W35636  37.514  17.160   1.017
70377W        W35637  22.154  40.376  12.445
70378W        W35638  43.024  25.943   1.375
70379W        W35639  31.099  37.300  13.923
70380W        W35640  29.211  16.068  11.940
70381W        W35641   7.659  36.998  12.055
70382W        W35642  30.340  39.746   4.232
70383W        W35643  12.715  12.286  13.342
70384W        W35644  26.982  24.603  13.883
70385W        W35645  12.265  19.769   2.224
70386W        W35646   5.338  18.748  11.544
70387W        W35647  38.461  37.885   4.603
70388W        W35648  38.643   9.378  11.591
70389W        W35649  12.881   7.827  12.880
70390W        W35650  25.964   0.738  12.670
70391W        W35651  11.169  42.338   3.706
70392W        W35652  24.686  34.598  13.075
70393W        W35653  31.126  35.773  14.319
70394W        W35654  23.171  43.820   2.312
70395W        W35655  20.232  37.935  13.594
70396W        W35656  21.303  13.049  10.765
70397W        W35657  24.576  10.414  12.491
70398W        W35658  19.606   3.257   4.540
70399W        W35659  23.718  39.067  11.074
70400W        W35660  40.879   6.471  13.828
70401W        W35661  41.843  39.307  12.468
70402W        W35662  25.760  12.406  13.973
70403W        W35663  29.865  11.215   0.794
70404W        W35664   1.912   6.248  11.537
70405W        W35665   3.014  10.761  11.545
70406W        W35666  44.271  42.188   0.840
70407W        W35667   5.352  24.716   5.034
70408W        W35668   3.219  24.945  13.551
70409W        W35669  44.086   4.703   1.205
70410W        W35670   0.311  41.771   3.276
70411W        W35671   6.920  37.395  12.495
70412W        W35672   1.975  29.615   1.405
70413W        W35673  12.680   2.299  13.532
70414W        W35674  22.097  42.527  10.602
70415W        W35675   7.699   2.632  10.718
70416W        W35676  30.403  31.502  12.673
70417W        W35677   6.288  33.996   4.648
70418W        W35678   6.384  35.341  11.876
70419W        W35679  26.971  36.129   2.282
70420W        W35680   9.688  30.937  14.842
70421W        W35681  26.830  41.303   2.724
70422W        W35682  34.151   9.319   2.746
70423W        W35683  37.031  25.094   2.892
70424W        W35684  44.525  18.617  13.259
70425W        W35685  24.743  25.154   0.890
70426W        W35686   7.465   6.638  11.051
70427W        W35687  13.306  12.182  12.571
70428W        W35688  38.890  14.624   4.394
70429W        W35689  28.916  11.117   1.413
70430W        W35690  20.790   1.977  14.526
70431W        W35691  28.473  40.779  11.567
70432W        W35692   9.155  35.345  14.389
70433W        W35693  27.500  12.131   1.644
70434W        W35694  16.567  21.640   0.338
70435W        W35695  23.084   5.748  13.185
70436W        W35696   9.933  29.431   0.957
70437W        W35697  27.454  15.118  13.259
70438W        W35698  16.452  43.927  10.526
70439W        W35699   6.411  43.134   1.955
70440W        W35700  43.725  37.522  12.144
70441W        W35701  10.352  37.281   4.174
70442W        W35702  36.685  14.210   2.428
70443W        W35703  32.980  35.816   1.245
70444W        W35704  15.212  12.542   0.491
70445W        W35705  36.927   4.768   1.327
70446W        W35706  30.659  36.556   2.037
70447W        W35707   6.936  36.763   4.719
70448W        W35708  23.997  24.563   2.714
70449W        W35709  13.551  43.974   1.708
70450W        W35710  29.434  35.083  10.800
70451W        W35711  39.179  26.634   2.822
70452W        W35712   8.674   5.232   4.521
70453W        W35713  25.183  24.141  14.522
70454W        W35714  11.186   5.930  14.703
70455W        W35715  26.010   2.497  12.438
70456W        W35716   0.420   6.153  12.518
70457W        W35717   1.305   9.381  12.477
70458W        W35718   8.931  22.811   2.236
70459W        W35719  26.403  19.493   0.806
70460W        W35720  16.303   5.646   1.314
70461W        W35721  27.608  31.916  11.392
70462W        W35722  39.180  22.810  11.538
70463W        W35723  22.530  41.258  11.685
70464W        W35724  29.234   1.571   5.065
70465W        W35725  19.715  39.590   4.125
70466W        W35726   3.453   0.389  13.836
70467W        W35727  13.132  38.542  14.364
70468W        W35728  18.120  16.641  13.005
70469W        W35729   1.319  36.976  13.309
70470W        W35730  41.346  21.804  11.498
70471W        W35731  41.244  22.673   5.064
70472W        W35732  39.855  42.963  14.277
70473W        W35733   0.453  21.865  11.017
70474W        W35734   9.493   4.443  13.061
70475W        W35735   9.908  24.998  14.333
70476W        W35736  30.417  36.832   3.219
70477W        W35737  27.894  41.422   3.693
70478W        W35738   9.797   5.836  14.317
70479W        W35739  43.747   0.901  14.973
70480W        W35740   8.616  11.994  12.362
70481W        W35741  31.496   5.954   0.310
70482W        W35742   9.962  43.583  12.626
70483W        W35743  14.199  37.636   0.369
70484W        W35744   9.635   3.527   0.755
70485W        W35745   8.928  19.984  13.822
70486W        W35746  25.260  17.392   4.088
70487W        W35747  25.730  43.402  12.844
70488W        W35748  32.339   9.095   3.149
70489W        W35749  20.473  12.169  11.500
70490W        W35750  34.617  42.025   1.489
70491W        W35751   5.153  24.624  13.355
70492W        W35752   5.454   1.180   1.814
70493W        W35753  23.771  23.554  11.759
70494W        W35754  29.563  29.174   2.324
70495W        W35755   5.242   1.185  10.149
70496W        W35756   4.817  21.687  12.903
70497W        W35757  11.806  25.090   1.748
70498W        W35758  36.310   5.282  10.523
70499W        W35759   7.383  39.828   1.721
70500W        W35760  30.986  11.593  10.934
70501W        W35761  39.418  28.869  13.840
70502W        W35762  12.588   0.528   3.926
70503W        W35763  15.074   3.932  11.110
70504W        W35764  43.532  34.544  14.749
70505W        W35765  39.922   7.852  13.078
70506W        W35766  23.727  27.443   1.829
70507W        W35767  17.221   3.696   2.279
70508W        W35768  35.135   4.858  13.322
70509W        W35769  34.837  13.086   1.206
70510W        W35770  15.554  19.558   0.117
70511W        W35771   8.781  26.253   0.709
70512W        W35772  13.105  19.087   1.199
70513W        W35773  29.880   4.414   3.613
70514W        W35774  20.625  30.915   4.105
70515W        W35775  13.704  25.393   1.743
70516W        W35776  17.050  28.184   4.668
70517W        W35777  26.001   6.250   0.307
70518W        W35778   2.065  36.040   0.250
70519W        W35779   7.846  42.414   1.235
70520W        W35780  38.601  24.777  13.643
70521W        W35781   1.339  40.112   0.033
70522W        W35782  39.244   7.574   4.142
70523W        W35783  16.898  16.339   2.312
70524W        W35784  11.097   1.848  11.000
70525W        W35785  36.753  40.630  13.824
70526W        W35786  19.147  19.539  14.071
70527W        W35787  36.962   8.122  11.712
70528W        W35788   8.229  26.377  14.669
70529W        W35789  13.459  19.356  14.466
70530W        W35790  10.961  35.104   3.857
70531W        W35791  28.437   8.870  11.212
70532W        W35792  13.796   2.918   0.813
70533W        W35793  39.612  18.307   3.450
70534W        W35794  32.720  35.836  13.628
70535W        W35795   2.928  10.136   2.843
70536W        W35796  31.400  34.175   0.724
70537W        W35797  31.686  11.692  13.368
70538W        W35798  20.572   2.911  11.128
70539W        W35799  10.651  35.426   1.256
70540W        W35800  35.170  17.740  13.334
70541W        W35801  13.225  33.832   3.805
70542W        W35802  43.766  36.471   2.823
70543W        W35803   3.280  43.487   1.398
70544W        W35804  30.061  34.765  13.083
70545W        W35805  38.462  39.430   4.001
70546W        W35806   7.731   0.463   1.478
70547W        W35807   4.573   0.773  11.847
70548W        W35808  24.557  36.926  13.952
70549W        W35809  31.211   6.804  14.763
70550W        W35810  15.297  33.898  14.885
70551W        W35811  38.068  43.942  14.395
70552W        W35812  24.595  15.120   0.138
70553W        W35813  17.522  27.116  13.371
70554W        W35814  21.533   5.687   2.587
70555W        W35815  27.404   8.802  13.738
70556W        W35816  13.535  31.379   0.041
70557W        W35817  44.015  11.479   4.023
70558W        W35818  37.475  31.971  10.116
70559W        W35819  25.555  41.511  11.637
70560W        W35820  35.902  23.697  13.449
70561W        W35821  16.766  22.049  13.159
70562W        W35822  44.765  21.581   3.206
70563W        W35823  16.720  37.084   0.436
70564W        W35824  37.795   1.844   2.685
70565W        W35825  11.153  24.092   0.743
70566W        W35826  27.691  36.530  13.505
70567W        W35827  17.359  22.590  10.845
70568W        W35828  42.161  34.124  14.270
70569W        W35829   1.566  33.831   1.320
70570W        W35830  11.536  22.756  11.202
70571W        W35831   9.534  24.489   2.239
70572W        W35832   7.750  24.059   2.743
70573W        W35833  13.135  35.437   2.838
70574W        W35834  15.333  42.529   2.717
70575W        W35835  43.949  28.563   2.737
70576W        W35836  40.743  15.240  13.554
70577W        W35837  24.209  28.749   0.804
70578W        W35838  35.885   8.794  11.634
70579W        W35839  33.415  36.568  11.921
70580W        W35840  43.114  37.362   1.488
70581W        W35841  14.603  28.003  13.535
70582W        W35842  39.018  35.310  11.497
70583W        W35843  40.643  28.128  12.447
70584W        W35844   1.473   2.259   2.310
70585W        W35845  44.498  37.621   2.428
70586W        W35846  31.491  24.270   4.160
70587W        W35847  23.479   6.716   3.643
70588W        W35848  28.972  11.835  12.452
70589W        W35849  33.568  35.518  13.835
70590W        W35850   2.451  33.889   1.356
70591W        W35851  44.207  41.590  12.489
70592W        W35852   2.733  30.931  10.666
70593W        W35853  19.122  42.226   0.766
70594W        W35854  19.297  36.475  12.519
70595W        W35855  14.620  42.290  13.792
70596W        W35856  30.002  44.632   1.005
70597W        W35857  15.751  21.858  11.591
70598W        W35858   0.540  41.939  11.979
70599W        W35859   6.914  16.621  11.168
70600W        W35860  17.107   7.767   3.757
70601W        W35861  19.491  29.223  14.008
70602W        W35862  13.704  10.193   1.881
70603W        W35863  38.931   0.337   2.526
70604W        W35864  37.860  44.184   3.257
70605W        W35865  25.494  20.721   1.781
70606W        W35866   4.328  31.413  13.065
70607W        W35867  28.541   2.537   3.420
70608W        W35868  18.047  28.906  14.351
70609W        W35869  37.688  29.261   4.216
70610W        W35870  17.213  44.413   2.246
70611W        W35871   6.904  22.677   4.882
70612W        W35872  18.331  34.947   1.474
70613W        W35873  11.627  38.149  12.999
70614W        W35874   6.673  40.629   1.094
70615W        W35875   8.261  39.503  12.106
70616W        W35876  34.493   3.678  13.963
70617W        W35877   0.147  39.184   4.453
70618W        W35878  25.066  26.081  14.281
70619W        W35879   6.813  21.785  14.688
70620W        W35880  44.780  37.078  12.177
70621W        W35881   3.686  10.032  14.946
70622W        W35882  36.504   2.312  13.081
70623W        W35883   3.094  43.333  12.693
70624W        W35884  12.690   5.638   0.440
70625W        W35885  14.329  23.015   3.877
70626W        W35886  36.691   5.666  14.374
70627W        W35887   1.131  10.633  11.001
70628W        W35888  12.616  23.303  10.767
70629W        W35889  11.847   6.871   1.996
70630W        W35890  13.224  19.469  14.941
70631W        W35891   6.414   2.368  14.738
70632W        W35892  10.780  37.290   0.491
70633W        W35893  13.959  16.054  10.789
70634W        W35894  27.605   8.241   3.344
70635W        W35895  37.602  23.093   3.918
70636W        W35896  38.914  44.235   4.100
70637W        W35897  32.555  40.428  13.857
70638W        W35898  24.827   9.120   2.145
70639W        W35899  10.630  40.868   0.675
70640W        W35900  39.835  15.987  11.487
70641W        W35901  12.195  19.423   3.129
70642W        W35902  35.457  22.101   2.103
70643W        W35903  36.864   5.379  13.608
70644W        W35904  15.303  38.089  11.930
70645W        W35905  38.777   7.216  14.290
70646W        W35906  37.346  41.515   0.842
70647W        W35907  23.931  10.289   0.829
70648W        W35908  31.882  20.331   2.710
70649W        W35909  16.781  18.487   0.699
70650W        W35910   2.732  44.903   1.186
70651W        W35911  34.369  19.373  13.422
70652W        W35912   9.897  16.806  13.831
70653W        W35913  43.411  20.732  10.637
70654W        W35914   3.436  33.727   2.105
70655W        W35915   3.973  12.831  14.434
70656W        W35916  29.686  13.341  11.697
70657W        W35917  23.305   6.688  14.894
70658W        W35918   3.326  23.099   1.077
70659W        W35919  28.139  38.212  12.665
70660W        W35920   8.702  41.419   3.416
70661W        W35921  10.164   6.750   2.748
70662W        W35922   7.777  42.304  14.906
70663W        W35923   8.221  27.574  14.503
70664W        W35924  36.620   7.811  12.916
70665W        W35925  28.867  31.583  11.639
70666W        W35926   0.034  20.839  11.152
70667W        W35927  24.602  26.688  11.386
70668W        W35928  34.638  41.889  14.232
70669W        W35929  44.849   2.515   0.032
70670W        W35930  18.116   8.504   2.835
70671W        W35931  19.473  15.571   4.128
70672W        W35932  29.205  38.856   9.973
70673W        W35933  32.051   1.023   4.292
70674W        W35934  23.528  11.355   0.759
70675W        W35935   9.384  31.682   0.764
70676W        W35936  39.482  27.092  14.267
70677W        W35937   2.577  36.864   0.277
70678W        W35938  26.481  10.256   4.674
70679W        W35939  15.317  27.920   0.189
70680W        W35940  44.821  31.457   1.245
70681W        W35941  20.735  18.300  11.545
70682W        W35942   4.841  40.476  11.175
70683W        W35943   2.683  40.841  11.644
70684W        W35944  16.196  30.185  11.110
70685W        W35945   5.688  26.031  13.564
70686W        W35946   1.968  39.088   0.817
70687W        W35947   3.969  41.467   4.236
70688W        W35948  12.170  28.872   3.536
70689W        W35949  11.724   0.496  11.111
70690W        W35950  32.185  36.505  13.387
70691W        W35951  33.162  14.868   0.397
70692W        W35952  23.058   3.685   5.014
70693W        W35953  28.894  15.874  11.099
70694W        W35954  43.818  14.385   3.093
70695W        W35955  42.030  12.480   2.805
70696W        W35956  17.834  29.118   4.501
70697W        W35957   7.648  29.431   2.505
70698W        W35958   2.741  10.150   3.716
70699W        W35959  31.784  20.031   0.928
70700W        W35960  33.449  35.202   4.036
70701W        W35961  17.016  17.314   4.118
70702W        W35962  26.718   8.206   1.006
70703W        W35963  30.045  38.210  14.788
70704W        W35964  16.317  14.138   2.200
70705W        W35965  21.687  18.531   2.899
70706W        W35966  20.795  13.760  13.896
70707W        W35967  25.592  39.028   3.862
70708W        W35968   1.251  23.081   1.871
70709W        W35969   4.379  28.942   3.025
70710W        W35970  28.343   7.972   0.189
70711W        W35971  17.323   5.956  11.719
70712W        W35972  30.954  31.962  13.931
70713W        W35973  21.934  22.883  14.874
70714W        W35974  42.688  13.144   0.036
70715W        W35975   1.576  33.015   0.810
70716W        W35976  22.158   1.223   2.659
70717W        W35977  36.310  14.289   3.655
70718W        W35978   6.900  25.567   3.695
70719W        W35979  40.351  26.631  10.613
70720W        W35980  22.577  40.074  12.354
70721W        W35981  26.593   6.694   0.971
70722W        W35982  22.246  34.907  12.318
70723W        W35983  30.966  44.775  13.869
70724W        W35984   8.947  41.403  11.443
70725W        W35985  16.390  19.344   3.418
70726W        W35986  40.126   9.975   3.697
70727W        W35987   2.870   9.242   3.665
70728W        W35988  10.766  36.989   4.104
70729W        W35989  17.241   9.729   2.099
70730W        W35990  30.601  43.094   4.213
70731W        W35991  42.318  37.037   4.384
70732W        W35992   0.748  21.764   3.723
70733W        W35993  37.082  26.009   3.345
70734W        W35994  22.831  12.959  11.676
70735W        W35995  37.034  16.526  11.011
70736W        W35996  38.407  22.303   2.743
70737W        W35997  19.362  37.484   3.331
70738W        W35998  11.243  23.513   2.182
70739W        W35999  27.214  13.880  12.880
70740W        W36000  20.114  26.690   2.358
70741W        W36001   7.777  26.128  13.526
70742W        W36002  41.189  30.987  14.873
70743W        W36003  29.386  28.900   4.799
70744W        W36004  12.759   5.707  11.095
70745W        W36005  16.614  21.623  12.917
70746W        W36006  10.530  11.601  11.550
70747W        W36007  10.565   7.898   0.095
70748W        W36008  40.392   8.886   1.720
70749W        W36009  26.583   8.933  10.484
70750W        W36010  25.702  42.281   0.813
70751W        W36011  22.149  39.346  10.387
70752W        W36012   7.112  44.001  12.824
70753W        W36013  43.771  43.022  11.970
70754W        W36014   9.704   7.911   0.447
70755W        W36015   7.184  43.212  11.174
70756W        W36016  23.957  33.554   2.765
70757W        W36017  12.248  30.812  10.735
70758W        W36018  18.272   4.667  12.898
70759W        W36019  27.755  21.206   2.867
70760W        W36020   3.691  30.113   1.032
70761W        W36021  15.073  19.669  10.207
70762W        W36022  16.770  20.013   2.760
70763W        W36023  14.218  43.464   3.602
70764W        W36024   9.703  24.663  13.364
70765W        W36025  14.785  10.588  14.312
70766W        W36026  43.551   8.018   4.108
70767W        W36027  34.284  31.538   2.970
70768W        W36028   7.880  20.841   2.849
70769W        W36029  31.375   3.399  12.568
70770W        W36030  21.218  14.215   3.418
70771W        W36031  40.108  12.338   4.493
70772W        W36032  21.229   1.906  13.644
70773W        W36033  41.441  21.959  14.496
70774W        W36034  32.381  23.827  11.853
70775W        W36035  32.455  41.333   2.388
70776W        W36036  40.439   1.110  12.422
70777W        W36037  24.411  11.867  12.543
70778W        W36038  18.687  25.995   0.494
70779W        W36039  39.891  10.284  13.455
70780W        W36040  18.801  19.093   0.225
70781W        W36041  31.128  23.286   3.117
70782W        W36042   6.565   2.682   4.914
70783W        W36043  12.111  10.236   3.567
70784W        W36044  12.445  13.537  13.923
70785W        W36045  28.048  10.268   0.891
70786W        W36046  30.428  18.314  14.408
70787W        W36047   3.714   1.776  11.582
70788W        W36048  16.243  30.394  13.795
70789W        W36049   3.882   0.374  10.191
70790W        W36050   3.984  31.802   1.728
70791W        W36051   9.914   2.932   1.683
70792W        W36052  11.135  13.300   4.651
70793W        W36053   6.157  14.334   5.114
70794W        W36054   3.346  23.596   0.901
70795W        W36055   5.996  30.704   2.289
70796W        W36056   8.143  31.624  13.428
70797W        W36057   5.258  36.120   0.701
70798W        W36058   8.735  19.590   2.217
70799W        W36059  42.926  43.153   0.803
70800W        W36060  15.082   1.234   1.765
70801W        W36061   0.721  28.190   2.632
70802W        W36062  41.108  18.150   4.159
70803W        W36063  24.529  36.068  12.223
70804W        W36064  25.960  24.491  11.666
70805W        W36065  31.348   1.802   3.215
70806W        W36066   4.873   9.999  14.513
70807W        W36067  36.175  31.036   4.158
70808W        W36068  28.525  44.129   4.131
70809W        W36069  24.716  10.171  10.641
70810W        W36070   6.660  24.096   2.855
70811W        W36071  34.402  31.053   1.187
70812W        W36072   0.012  35.834  13.999
70813W        W36073  18.589  43.120   5.101
70814W        W36074  15.072   8.789  13.845
70815W        W36075  15.684  25.253   3.610
70816W        W36076  24.436   8.451  11.248
70817W        W36077   2.549  16.869   5.306
70818W        W36078   1.000  11.081  12.586
70819W        W36079  12.199  36.082  13.607
70820W        W36080  33.388  35.872  10.503
70821W        W36081  41.886  41.747  14.929
70822W        W36082  29.695  44.231  13.421
70823W        W36083  36.350  25.088  12.070
70824W        W36084  40.498  10.316   3.790
70825W        W36085  29.022  23.569   1.934
70826W        W36086  34.610  40.837   0.042
70827W        W36087  13.149  21.110  11.271
70828W        W36088  39.277  36.422  12.600
70829W        W36089  37.432  11.910   3.315
70830W        W36090   5.738  30.509   1.121
70831W        W36091  29.462   7.142   2.382
70832W        W36092  17.774  38.829  10.528
70833W        W36093   1.030  42.198   2.159
70834W        W36094   0.559  17.874   0.320
70835W        W36095   9.338  35.850  13.652
70836W        W36096  26.556  24.021   1.271
70837W        W36097  42.950  43.412  12.141
70838W        W36098  36.586   1.739  14.918
70839W        W36099  15.159  36.042   4.349
70840W        W36100  10.273   0.441  14.961
70841W        W36101  12.645  36.096   1.709
70842W        W36102  13.824  36.934  14.886
70843W        W36103  40.575   2.228   4.186
70844W        W36104   8.378  15.770   4.547
70845W        W36105   3.900  44.027  10.584
70846W        W36106  32.572  31.925   4.167
70847W        W36107  33.453   8.884  13.353
70848W        W36108  20.512   0.010   1.737
70849W        W36109  35.579  36.497  13.352
70850W        W36110  30.568  29.573  12.449
70851W        W36111  43.962   3.437   2.283
70852W        W36112   7.640  30.319   3.886
70853W        W36113  42.341  40.607  11.660
70854W        W36114  20.251   4.714   3.698
70855W        W36115  23.180  27.742  10.860
70856W        W36116  14.747  22.428  10.693
70857W        W36117  32.053  24.768  11.184
70858W        W36118  43.793  20.074  12.692
70859W        W36119  40.095  36.048  13.493
70860W        W36120   8.270  33.884  11.106
70861W        W36121  28.729   2.947  14.898
70862W        W36122  43.001  38.151  10.985
70863W        W36123  36.200  37.453   1.348
70864W        W36124   6.184  20.249  11.826
70865W        W36125   8.442   8.659  13.574
70866W        W36126  36.126  34.974   2.689
70867W        W36127  24.275  29.690  11.083
70868W        W36128  13.910  32.105  10.694
70869W        W36129  42.557  21.301  14.737
70870W        W36130  12.238  27.586  13.272
70871W        W36131  30.019   4.702  12.530
70872W        W36132  16.528  31.496  13.235
70873W        W36133  22.015  16.731   1.007
70874W        W36134  30.236  14.815   4.815
70875W        W36135   8.190  27.237   1.743
70876W        W36136  43.677   9.077   1.957
70877W        W36137   9.715  11.706  12.893
70878W        W36138  17.790  30.985   3.818
70879W        W36139  21.589  41.486  14.934
70880W        W36140  40.861   6.339   1.292
70881W        W36141  20.292  15.618  14.282
70882W        W36142  26.665  12.542  10.655
70883W        W36143   6.299  10.168   4.102
70884W        W36144  20.532  20.660  13.646
70885W        W36145  36.846  43.345  13.021
70886W        W36146  43.015  37.891  14.916
70887W        W36147  25.980   8.794   3.757
70888W        W36148  19.334  31.909  13.412
70889W        W36149  26.991  37.374  13.522
70890W        W36150   9.552  34.590  12.912
70891W        W36151  18.598  27.150   3.438
70892W        W36152  39.894  16.893  11.255
70893W        W36153  40.969  41.437  13.050
70894W        W36154  10.912   6.354   1.767
70895W        W36155  19.080  37.936  14.929
70896W        W36156  30.646  12.358   2.016
70897W        W36157  30.375   1.073  11.882
70898W        W36158  27.676  25.682  14.710
70899W        W36159  10.616  43.986  13.947
70900W        W36160  41.415  43.710   4.752
70901W        W36161  33.408  21.311   3.597
70902W        W36162  30.435  44.830   4.213
70903W        W36163  18.704  17.517  13.051
70904W        W36164   4.218   1.397   0.290
70905W        W36165   5.640  23.296  14.946
70906W        W36166  44.577   6.778   0.908
70907W        W36167  26.167  26.567   1.927
70908W        W36168  33.517  10.953   3.214
70909W        W36169  12.851  10.736  10.725
70910W        W36170   2.780  42.875  14.280
70911W        W36171  35.362  11.837   1.805
70912W        W36172   0.751  43.384  11.833
70913W        W36173  12.825  34.092   3.644
70914W        W36174  43.757  14.303  11.196
70915W        W36175  18.514  23.640   3.349
70916W        W36176   3.751  17.818  14.525
70917W        W36177  24.648  19.241   0.973
70918W        W36178  15.669  21.477   4.120
70919W        W36179  36.763  17.391   2.236
70920W        W36180   5.535   6.105  14.398
70921W        W36181  19.272  40.648  11.192
70922W        W36182  21.669  29.462   1.997
70923W        W36183   1.540   9.109  13.456
70924W        W36184  43.322  19.843   3.266
70925W        W36185   6.188   2.252  11.667
70926W        W36186  31.553   7.962   2.687
70927W        W36187  41.791   8.573  11.174
70928W        W36188  20.745  41.043   0.838
70929W        W36189  27.454  37.071   1.395
70930W        W36190  33.463  40.726   4.153
70931W        W36191  34.976  23.426   0.165
70932W        W36192  15.313  30.149  12.841
70933W        W36193  39.307  26.954  13.378
70934W        W36194   3.002  15.673  13.968
70935W        W36195  21.486  27.997  14.746
70936W        W36196   5.217  30.076  13.410
70937W        W36197  40.282  38.637   3.886
70938W        W36198  29.355  12.827   3.598
70939W        W36199  16.244  36.875   0.337
70940W        W36200  42.818  15.296   3.243
70941W        W36201  38.274  24.603  13.993
70942W        W36202  31.892   2.841   0.466
70943W        W36203  39.213   2.971   3.867
70944W        W36204  17.160  38.841   4.173
70945W        W36205  33.143  23.048   3.346
70946W        W36206   6.247  41.965   0.433
70947W        W36207   6.357  35.827  11.642
70948W        W36208  20.098  38.626  13.805
70949W        W36209  13.265  17.380   3.626
70950W        W36210  25.522   0.065  11.471
70951W        W36211  26.104  13.907   4.500
70952W        W36212  30.904  32.125   0.390
70953W        W36213  19.535   0.854   2.251
70954W        W36214  25.976   3.782  12.896
70955W        W36215   0.231   0.784  14.943
70956W        W36216  22.011   8.879  14.367
70957W        W36217   1.261  29.072  13.736
70958W        W36218   5.966  44.901  11.688
70959W        W36219  25.022  12.203   0.894
70960W        W36220  44.463  26.715  13.960
70961W        W36221   0.056  29.111   3.119
70962W        W36222  24.638   9.492   4.775
70963W        W36223  10.097  41.578   3.739
70964W        W36224  43.867  42.526  11.003
70965W        W36225  14.310  38.156   0.399
70966W        W36226  16.203  43.922   0.949
70967W        W36227  42.259  15.481  12.526
70968W        W36228  43.854  32.400   1.501
70969W        W36229  22.762  20.959  14.527
70970W        W36230  25.884  41.874   4.451
70971W        W36231  16.341  13.854  14.813
70972W        W36232  21.480  26.202  12.547
70973W        W36233  40.519  34.710   0.803
70974W        W36234   7.013  41.458  13.380
70975W        W36235  17.627   9.228   3.170
70976W        W36236  23.952  43.281   0.644
70977W        W36237   1.056  43.538  14.828
70978W        W36238  40.303  14.043  11.443
70979W        W36239   3.194  29.388   3.742
70980W        W36240  41.010   3.321   3.668
70981W        W36241  25.193  21.814   4.148
70982W        W36242  30.579  24.671  12.527
70983W        W36243  37.711  24.469  11.893
70984W        W36244  13.614  30.499  14.783
70985W        W36245   7.805   1.751   9.959
70986W        W36246   6.815  21.754  12.542
70987W        W36247  43.569  30.142   3.149
70988W        W36248  40.330  12.783   0.707
70989W        W36249  14.563   3.693  10.985
70990W        W36250  29.572  15.305   5.107
70991W        W36251  21.260  37.574   0.341
70992W        W36252  29.598  44.804  11.465
70993W        W36253  20.285   0.482   0.763
70994W        W36254  24.705  28.193   0.380
70995W        W36255  23.553  34.058   4.253
70996W        W36256  20.239  24.610   3.424
70997W        W36257   1.683  22.116   2.622
70998W        W36258  38.512  44.520   0.497
70999W        W36259  25.567  10.656  14.393
71000W        W36260  21.547  26.190   3.683
71001W        W36261  27.028  30.190   1.283
71002W        W36262   0.003   0.534   0.368
71003W        W36263  34.412   2.923   2.368
71004W        W36264   8.214  15.427   3.229
71005W        W36265  25.902  40.253  10.870
71006W        W36266  36.612  32.340  10.930
71007W        W36267  28.975   0.099  11.093
71008W        W36268  30.655  16.406   1.067
71009W        W36269   8.328   1.809   0.404
71010W        W36270  36.389  18.763   3.943
71011W        W36271   3.858  17.018  13.790
71012W        W36272  19.220  20.609  10.663
71013W        W36273  14.790  23.273  12.943
71014W        W36274  37.853  29.042  11.552
71015W        W36275   2.827  35.961  14.226
71016W        W36276   6.938  14.419  14.949
71017W        W36277  21.351  40.268  10.656
71018W        W36278   2.080  10.198  10.184
71019W        W36279  20.648  27.640   2.708
71020W        W36280  32.647  30.392   0.294
71021W        W36281  39.440  20.574  10.674
71022W        W36282  33.391  25.710  14.844
71023W        W36283  42.604   3.512   3.727
71024W        W36284  42.693   6.149   3.379
71025W        W36285  17.302  32.991  14.563
71026W        W36286  23.410  20.199   2.654
71027W        W36287  30.941   4.373   3.624
71028W        W36288  26.136  39.330   5.115
71029W        W36289  15.975   9.167  12.890
71030W        W36290  32.761  14.296  14.424
71031W        W36291  19.239  29.600   4.159
71032W        W36292   8.672  23.452   0.459
71033W        W36293  29.012  22.238  14.539
71034W        W36294  31.567  19.740   2.097
71035W        W36295   7.633  12.212  11.494
71036W        W36296  41.124  34.790   4.233
71037W        W36297   8.311  24.758   1.706
71038W        W36298  36.754  20.132   0.099
71039W        W36299  22.154  20.586   2.354
71040W        W36300   0.175   7.177  14.760
71041W        W36301  14.914   8.350   9.848
71042W        W36302  21.237  36.943   3.671
71043W        W36303  24.941  17.320  11.978
71044W        W36304  43.086   7.652  11.151
71045W        W36305  11.703  16.781  14.804
71046W        W36306  18.513  17.765  11.543
71047W        W36307  43.255   3.934   0.196
71048W        W36308  33.624   1.036  11.641
71049W        W36309  12.750  39.604  11.913
71050W        W36310  42.359   0.375  13.096
71051W        W36311  16.089  18.667  11.549
71052W        W36312  19.627   0.927  10.739
71053W        W36313  29.785   1.489   4.286
71054W        W36314  43.343  15.354  13.984
71055W        W36315  27.640  17.667   4.455
71056W        W36316  12.255  20.124  11.125
71057W        W36317  39.625   3.046   3.564
71058W        W36318  21.162  15.750   4.705
71059W        W36319   9.550  39.378  13.601
71060W        W36320  32.651  17.387   1.257
71061W        W36321   2.687  17.037   4.560
71062W        W36322  36.049  41.312   3.515
71063W        W36323  31.634  32.468   2.401
71064W        W36324  35.155  25.115  13.367
71065W        W36325  37.509   4.527   2.301
71066W        W36326  11.928  11.886   4.155
71067W        W36327  12.474  44.761  11.896
71068W        W36328  26.230  10.879  13.684
71069W        W36329  37.929  10.240   3.865
71070W        W36330  34.396  14.866  13.863
71071W        W36331  43.287  37.962   0.356
71072W        W36332  14.890  17.042   0.755
71073W        W36333  32.910  22.841   1.479
71074W        W36334  17.892  24.439   4.181
71075W        W36335  17.609  23.067   1.424
71076W        W36336  30.356  44.888  13.084
71077W        W36337  28.493  21.368  10.199
71078W        W36338  15.615  14.328  12.487
71079W        W36339  29.441  38.704  13.620
71080W        W36340  36.475  11.300  14.732
71081W        W36341  20.005  33.484  11.661
71082W        W36342  30.911   0.873  10.625
71083W        W36343  14.819  39.836  13.571
71084W        W36344  25.031  14.693   3.616
71085W        W36345   0.945   5.933   4.093
71086W        W36346   9.177  30.907  12.472
71087W        W36347   5.383  33.443   3.876
71088W        W36348  22.622  27.615   4.610
71089W        W36349  44.428   1.240   4.178
71090W        W36350  31.941  27.229  12.925
71091W        W36351   3.396  20.305   2.712
71092W        W36352  24.060  18.969   1.882
71093W        W36353  42.380  32.552   4.540
71094W        W36354   5.691   1.182   3.080
71095W        W36355   3.886  44.368   1.766
71096W        W36356  31.258  22.398  12.971
71097W        W36357  33.527  39.318  14.714
71098W        W36358  14.264  25.570   0.414
71099W        W36359  42.352  22.450   4.558
71100W        W36360   7.529  44.211  12.575
71101W        W36361   8.802  40.215  10.909
71102W        W36362  35.811  43.786  10.240
71103W        W36363   7.733  40.235  13.885
71104W        W36364   6.703   2.017   3.056
71105W        W36365  11.220  30.567   0.206
71106W        W36366  37.998  13.265  10.511
71107W        W36367  28.400  24.923   2.793
71108W        W36368   2.866  36.518  14.993
71109W        W36369  42.123  17.838   4.465
71110W        W36370  43.844  26.213   0.912
71111W        W36371  37.237  31.891  12.871
71112W        W36372  38.365  26.630   1.005
71113W        W36373  39.327  27.673   0.482
71114W        W36374  20.807  41.876   4.272
71115W        W36375  43.761  34.166   3.816
71116W        W36376  12.054  36.543  11.589
71117W        W36377  13.866  44.870   3.682
71118W        W36378  23.658  14.722  13.647
71119W        W36379  35.556  39.376   0.271
71120W        W36380  38.130  18.305   1.808
71121W        W36381   2.508  38.450  11.184
71122W        W36382  21.181  22.865   4.868
71123W        W36383  30.572  31.403   3.367
71124W        W36384  29.397  26.884  14.573
71125W        W36385  44.993  22.430   0.831
71126W        W36386  44.279  26.571  10.937
71127W        W36387  40.759  44.799  13.748
71128W        W36388  32.078  40.016  12.936
71129W        W36389   6.438  16.872   0.787
71130W        W36390  37.395  33.380  12.671
71131W        W36391  41.514  33.576   0.591
71132W        W36392   6.304  24.943   1.932
71133W        W36393   3.964  28.091   1.691
71134W        W36394   9.195  11.624   3.814
71135W        W36395  24.697   2.293   4.166
71136W        W36396  34.030  11.405   3.753
71137W        W36397  16.023  37.318  10.204
71138W        W36398   1.766  31.578   0.131
71139W        W36399  18.724  27.680   4.715
71140W        W36400  20.762  36.256  13.831
71141W        W36401   0.719  18.541   0.361
71142W        W36402  14.623  33.046   0.711
71143W        W36403  28.768   1.279   1.711
71144W        W36404  33.852   1.160   0.469
71145W        W36405   1.653  37.661  10.744
71146W        W36406  31.070   4.441  12.969
71147W        W36407  42.837  18.108  14.008
71148W        W36408  37.527   1.671   1.869
71149W        W36409  40.319  17.602   3.203
71150W        W36410   2.288  11.748   3.203
71151W        W36411   0.471  30.622   4.263
71152W        W36412  39.532   6.478  12.398
71153W        W36413  38.343  14.919   4.726
71154W        W36414  15.509   5.319  10.188
71155W        W36415  23.526  32.913  10.238
71156W        W36416   3.164  39.880  11.399
71157W        W36417  39.181  29.449   0.537
71158W        W36418  27.552   8.223  10.694
71159W        W36419   4.798  43.779  12.081
71160W        W36420   0.456  16.789  12.861
71161W        W36421  11.748   6.293   0.389
71162W        W36422  13.332   9.463   2.242
71163W        W36423  38.515  35.128   4.259
71164W        W36424  42.307   4.785  14.385
71165W        W36425  40.055  42.486  14.986
71166W        W36426  34.130  19.624   3.685
71167W        W36427   2.988  36.931  13.961
71168W        W36428   2.830  38.897   3.032
71169W        W36429  16.130   5.933   4.744
71170W        W36430   7.549  17.621  14.609
71171W        W36431   6.621  39.286   3.316
71172W        W36432  26.470  20.641   2.906
71173W        W36433  38.272  24.157   2.358
71174W        W36434  16.307   2.088   3.501
71175W        W36435   9.449  38.561   0.305
71176W        W36436  10.174  40.256  14.010
71177W        W36437  17.535  30.550   3.683
71178W        W36438  34.004   2.012   0.818
71179W        W36439   9.727  29.933  14.498
71180W        W36440  11.801  33.751   4.721
71181W        W36441   8.468   7.318   3.589
71182W        W36442  40.000  28.671  12.044
71183W        W36443  24.701  43.040  10.687
71184W        W36444  29.031  29.026   3.940
71185W        W36445  28.012   4.777   0.003
71186W        W36446   8.831  10.118   3.236
71187W        W36447   4.321  15.226   4.580
71188W        W36448  44.025  33.939   3.249
71189W        W36449  24.539  30.881  11.532
71190W        W36450  34.487   8.339  10.771
71191W        W36451   7.206  22.754   1.230
71192W        W36452  31.361  35.800  12.480
71193W        W36453   9.541  27.508   9.876
71194W        W36454  41.765  36.011  12.548
71195W        W36455  27.127  26.444   0.867
71196W        W36456  25.091   4.274  12.960
71197W        W36457  39.565  14.214  12.633
71198W        W36458  39.525  31.892   4.091
71199W        W36459   1.855  13.539  14.848
71200W        W36460  27.481  10.248   0.867
71201W        W36461  33.834  12.850   3.364
71202W        W36462  38.174  35.376  11.162
71203W        W36463   7.567  35.206  11.927
71204W        W36464  38.733  10.873  12.469
71205W        W36465  13.124   6.667  14.480
71206W        W36466   0.731  33.983  13.166
71207W        W36467  36.436   8.809   3.580
71208W        W36468  19.696  37.391  13.859
71209W        W36469  27.032  12.385  13.067
71210W        W36470   3.611  19.274  14.968
71211W        W36471  13.278  32.850   1.293
71212W        W36472  43.893   2.580  13.044
71213W        W36473   3.668  16.245   1.441
71214W        W36474  41.581  37.924  12.507
71215W        W36475  36.982  28.137  13.112
71216W        W36476  43.930  25.240   0.707
71217W        W36477  33.532  23.291  12.485
71218W        W36478   3.283  21.166   1.320
71219W        W36479  16.289   4.859  11.158
71220W        W36480  34.986  15.906   4.143
71221W        W36481  25.199  18.234  13.904
71222W        W36482  39.680   4.546  13.581
71223W        W36483  43.595  19.612  12.528
71224W        W36484  12.684  18.746   4.163
71225W        W36485   5.749  35.102  12.901
71226W        W36486   8.287   7.361  14.092
71227W        W36487  17.104  10.834   3.685
71228W        W36488  30.255  18.520   0.436
71229W        W36489  26.213  30.052  11.009
71230W        W36490  40.565  33.345  12.922
71231W        W36491  36.348  44.462   1.323
71232W        W36492  24.014  12.728   0.333
71233W        W36493   3.997  36.179   1.213
71234W        W36494  31.155  14.726   3.236
71235W        W36495  15.417   1.366   1.372
71236W        W36496  43.488  29.534   2.749
71237W        W36497  31.573  16.567  12.008
71238W        W36498  34.834   8.622   1.948
71239W        W36499  24.640  25.499   3.706
71240W        W36500  13.435  15.827  12.474
71241W        W36501  44.995  41.523  12.926
71242W        W36502   0.050  17.158   3.619
71243W        W36503  40.687   8.643   5.070
71244W        W36504  25.765  11.760   0.170
71245W        W36505  28.029   0.865  10.713
71246W        W36506  17.850  44.463  13.109
71247W        W36507  39.147  39.103  14.869
71248W        W36508  25.935   1.746   4.126
71249W        W36509  41.401  43.440  13.428
71250W        W36510  29.027  34.899  11.439
71251W        W36511  14.657   0.275  11.770
71252W        W36512   7.218  16.225   4.405
71253W        W36513  25.959  10.511  13.384
71254W        W36514  34.303  27.487  11.161
71255W        W36515  42.855  13.305   4.383
71256W        W36516  39.067  32.877  11.040
71257W        W36517  18.909  30.331   0.001
71258W        W36518  42.241  35.004  14.445
71259W        W36519   8.624  40.887   3.374
71260W        W36520  10.839  10.138   4.047
71261W        W36521  41.163  12.700  12.450
71262W        W36522  29.654   4.877   3.658
71263W        W36523  30.605  10.861  11.131
71264W        W36524  16.731   9.396   2.674
71265W        W36525  42.301  20.257  11.736
71266W        W36526  16.662  28.542   2.614
71267W        W36527   7.699  15.731   0.762
71268W        W36528  11.903  36.368   0.688
71269W        W36529   7.511   5.214   4.251
71270W        W36530  23.091  21.248  14.230
71271W        W36531  20.106  18.622   4.667
71272W        W36532   2.788  22.179   0.880
71273W        W36533  15.693  32.726   0.067
71274W        W36534  43.051  30.445   2.942
71275W        W36535  42.013  22.049   0.162
71276W        W36536  17.055  28.009   0.597
71277W        W36537   5.881   8.303   1.430
71278W        W36538   6.819  11.331  12.864
71279W        W36539   1.100  24.301   4.577
71280W        W36540  18.862  15.300   2.152
71281W        W36541  37.566  12.725   1.376
71282W        W36542  40.212  25.105  13.888
71283W        W36543  11.145  10.225   4.467
71284W        W36544  22.526  33.814  12.082
71285W        W36545  39.354  10.212   0.292
71286W        W36546   6.327   5.530  14.933
71287W        W36547   3.726  35.721   1.322
71288W        W36548  22.682  24.023   1.349
71289W        W36549   9.110   9.148   2.440
71290W        W36550  43.636  38.415  12.209
71291W        W36551   4.891  35.156   2.696
71292W        W36552  36.823  30.895   1.882
71293W        W36553   6.194  14.717  11.853
71294W        W36554  27.671  28.683   4.176
71295W        W36555  26.509  13.637  14.570
71296W        W36556  12.757   1.151   3.353
71297W        W36557  42.211  14.394  11.229
71298W        W36558   5.715  10.742   3.756
71299W        W36559  19.573  37.890  14.715
71300W        W36560  19.266  38.856  10.537
71301W        W36561  44.258   0.749  12.919
71302W        W36562  20.467  12.231   4.079
71303W        W36563  18.018  37.255  14.842
71304W        W36564  10.771  15.101  11.900
71305W        W36565  38.922  18.470   9.937
71306W        W36566  20.633  39.561   4.194
71307W        W36567  15.487  29.154   3.678
71308W        W36568  12.832  29.520   1.369
71309W        W36569  24.615  12.599   3.122
71310W        W36570  22.132   2.467  11.325
71311W        W36571  18.419  16.177   2.396
71312W        W36572  23.109  24.477   3.671
71313W        W36573  40.800  12.333  12.489
71314W        W36574  24.682  24.934   4.549
71315W        W36575  31.188   4.827  12.480
71316W        W36576   3.935  42.975   2.926
71317W        W36577  42.950  29.093   2.451
71318W        W36578  44.158  41.550   3.750
71319W        W36579  17.519   8.234   0.966
71320W        W36580  13.822  34.524   3.352
71321W        W36581  34.202  10.780   2.857
71322W        W36582  25.902  12.792  12.501
71323W        W36583  38.994  30.597  13.015
71324W        W36584  18.621   3.856   3.655
71325W        W36585  14.110  20.704   1.163
71326W        W36586   9.087  28.708  12.043
71327W        W36587  29.622  36.478   2.688
71328W        W36588   2.728  10.215   1.468
71329W        W36589  24.641  31.707  14.725
71330W        W36590  43.453   0.418   9.570
71331W        W36591   6.946  38.658  12.047
71332W        W36592  16.255  36.363  10.658
71333W        W36593  34.535  24.171   1.668
71334W        W36594   8.525   3.231  13.374
71335W        W36595   6.552  30.366  10.075
71336W        W36596  12.381  34.869   3.847
71337W        W36597   4.505   6.165  13.379
71338W        W36598  20.741  35.969  10.659
71339W        W36599   8.166  13.292  12.100
71340W        W36600  23.185   3.198  11.113
71341W        W36601  27.022  19.725  14.390
71342W        W36602  15.218   6.945   9.522
71343W        W36603  17.571  16.237   3.359
71344W        W36604  36.588  36.528   3.687
71345W        W36605  37.899  40.142   4.025
71346W        W36606  28.584  33.812   4.603
71347W        W36607  41.416  28.972  14.768
71348W        W36608   8.313   6.800  10.656
71349W        W36609  13.847  42.890   2.632
71350W        W36610  42.540  15.686   4.193
71351W        W36611  15.563  10.725   4.596
71352W        W36612  41.012  23.651   2.134
71353W        W36613   0.007  21.616  11.766
71354W        W36614  34.307   9.438  10.653
71355W        W36615  36.356  44.032   2.290
71356W        W36616  24.519  29.147   2.674
71357W        W36617  19.192  33.344  13.804
71358W        W36618  20.026  16.087   4.211
71359W        W36619  18.200   5.247  14.013
71360W        W36620  29.468  17.149  14.305
71361W        W36621  11.203   2.285  11.258
71362W        W36622  14.711  40.957   0.448
71363W        W36623  19.689  32.634   0.372
71364W        W36624  29.173  37.096  11.102
71365W        W36625  29.187  18.761  12.045
71366W        W36626  40.594  16.063   5.321
71367W        W36627   4.399  15.250   0.324
71368W        W36628  30.904  43.451   2.614
71369W        W36629   3.333  12.425  11.482
71370W        W36630   6.406  24.858  11.051
71371W        W36631  38.606   0.265  14.902
71372W        W36632  42.023  18.262  12.597
71373W        W36633  42.718  44.082   0.458
71374W        W36634   7.796  19.276  14.086
71375W        W36635   0.966   6.464   2.288
71376W        W36636   9.799  36.497  10.663
71377W        W36637   8.286  17.456   0.940
71378W        W36638  17.528  13.807   1.887
71379W        W36639  30.705  31.896  12.612
71380W        W36640  30.037  12.208   4.667
71381W        W36641   2.379  10.455  12.025
71382W        W36642  20.333  20.834   4.563
71383W        W36643  17.180   9.769  14.401
71384W        W36644  31.329   1.272   1.821
71385W        W36645  37.021   5.011   1.781
71386W        W36646  13.629   5.019  12.384
71387W        W36647   2.950   3.231   1.297
71388W        W36648   5.437   5.954   2.830
71389W        W36649  38.577  34.405   0.669
71390W        W36650  44.509  13.876   5.054
71391W        W36651  44.270   8.617  13.396
71392W        W36652  24.768   7.567   9.745
71393W        W36653  30.598  21.282   0.249
71394W        W36654  21.196  39.357  12.978
71395W        W36655   1.240  42.904  13.820
71396W        W36656   5.105  15.201  14.843
71397W        W36657  21.063  13.020  11.595
71398W        W36658  11.758  19.718   4.547
71399W        W36659  16.128  25.615   0.746
71400W        W36660  40.610   9.179   1.186
71401W        W36661  11.338  40.409  13.337
71402W        W36662  40.584  34.396   2.113
71403W        W36663  27.482  18.606   1.726
71404W        W36664  31.929  37.778   4.546
71405W        W36665  15.239  12.619   3.154
71406W        W36666  38.489  15.192   2.764
71407W        W36667  36.013   4.250   1.460
71408W        W36668  25.937  34.028   4.218
71409W        W36669  41.907  28.395  12.781
71410W        W36670  30.493  41.508  11.553
71411W        W36671   8.890  33.193  13.258
71412W        W36672   0.019   5.242   1.419
71413W        W36673   3.305   3.280   0.041
71414W        W36674  30.911   1.654   1.829
71415W        W36675  13.182  26.158  11.437
71416W        W36676  28.009  28.386  11.017
71417W        W36677  41.574   8.248   2.335
71418W        W36678  44.479   5.864   0.825
71419W        W36679  13.308  41.047  14.027
71420W        W36680  22.517  35.871   0.526
71421W        W36681  38.535   9.206  12.053
71422W        W36682   8.761   6.687  11.932
71423W        W36683  43.782  23.977   2.298
71424W        W36684  22.190  34.526   4.602
71425W        W36685   0.342   3.713   5.047
71426W        W36686  27.699  39.038   3.597
71427W        W36687  20.625  32.379   4.380
71428W        W36688  16.995  20.733   2.219
71429W        W36689  19.750  10.344   4.612
71430W        W36690  33.502  31.403  13.189
71431W        W36691  43.351  29.800   1.356
71432W        W36692   3.751  24.650  10.745
71433W        W36693   3.459  20.115   1.831
71434W        W36694   5.166  22.075  14.350
71435W        W36695  21.011   1.031  11.907
71436W        W36696  28.575   5.923  13.410
71437W        W36697  30.993  30.939  13.025
71438W        W36698   8.377   5.844  10.637
71439W        W36699  13.785   2.919  14.768
71440W        W36700  36.897  31.317  10.551
71441W        W36701  42.409  27.014   4.300
71442W        W36702  44.018  29.397   4.116
71443W        W36703  40.980   7.417   2.127
71444W        W36704  29.951  26.231  10.233
71445W        W36705  26.244   7.552   3.151
71446W        W36706  11.589   6.003   2.716
71447W        W36707   4.281  21.133   4.926
71448W        W36708  10.383  32.627   4.063
71449W        W36709  24.230  32.972   1.949
71450W        W36710  44.339  35.591  13.006
71451W        W36711  43.764   4.835  14.731
71452W        W36712  22.417  15.708  12.133
71453W        W36713  29.214   5.684  12.491
71454W        W36714  23.148  37.013   2.232
71455W        W36715  20.015  37.878   0.015
71456W        W36716   0.734  17.098  10.651
71457W        W36717  11.622  30.405  12.023
71458W        W36718   4.230   8.918   1.440
71459W        W36719  39.787  42.352   1.324
71460W        W36720  44.336   9.705   2.235
71461W        W36721  33.533  28.506   1.322
71462W        W36722  19.093  38.640  13.987
71463W        W36723  26.317  22.666   3.290
71464W        W36724  43.365  22.289  10.772
71465W        W36725  12.745  29.789   4.090
71466W        W36726   9.797  27.066  11.245
71467W        W36727  20.489  33.682   3.683
71468W        W36728  41.678  44.328   5.080
71469W        W36729  24.432  21.114   2.431
71470W        W36730  10.591  44.939  12.910
71471W        W36731   0.551   0.739  11.163
71472W        W36732  20.316  19.221   2.749
71473W        W36733   9.727   7.637   9.633
71474W        W36734   5.717  44.257   2.442
71475W        W36735  30.309  43.829   3.644
71476W        W36736   4.709  22.034  13.325
71477W        W36737  26.007  27.475   2.668
71478W        W36738  24.991  16.718  14.604
71479W        W36739  24.451  27.698  12.866
71480W        W36740  25.449  22.611  12.472
71481W        W36741   4.356  38.768   3.664
71482W        W36742  35.440  11.487   0.492
71483W        W36743  32.724  24.118   1.332
71484W        W36744  21.786  28.448   3.199
71485W        W36745  35.409  15.672   1.831
71486W        W36746  42.115  40.445  11.175
71487W        W36747  17.304  17.523  12.558
71488W        W36748   8.527  41.005   2.768
71489W        W36749  39.496  10.398  11.259
71490W        W36750  10.665  31.809   2.352
71491W        W36751  15.034  25.502   4.609
71492W        W36752   1.502  27.069  12.149
71493W        W36753  43.414  15.020   1.324
71494W        W36754  30.987   1.926  12.406
71495W        W36755  17.760   3.568  13.569
71496W        W36756  26.678  43.027   4.179
71497W        W36757  28.931  24.321  13.919
71498W        W36758  19.117   5.954  12.344
71499W        W36759  11.948   2.212  14.945
71500W        W36760  28.109  13.128  13.268
71501W        W36761  20.031  17.051   1.824
71502W        W36762  17.537   4.783  10.288
71503W        W36763  40.380  40.069  10.969
71504W        W36764  25.074   6.155   0.799
71505W        W36765  27.169  24.930  14.774
71506W        W36766   8.463  22.174   1.037
71507W        W36767  44.998   8.680  11.498
71508W        W36768  37.111  10.812   0.789
71509W        W36769   2.680   4.908  13.438
71510W        W36770   2.144  34.265  11.472
71511W        W36771  25.548  21.291   3.271
71512W        W36772  11.495  13.175   2.140
71513W        W36773  39.816  18.094  11.537
71514W        W36774  20.045   1.806  11.517
71515W        W36775  34.394  27.917   0.839
71516W        W36776  35.953  37.629  10.606
71517W        W36777   8.774  21.702   1.856
71518W        W36778   1.926  11.806  10.489
71519W        W36779  31.887  25.729  14.362
71520W        W36780  37.558  20.258  12.385
71521W        W36781  42.047  32.228   2.759
71522W        W36782   0.314  37.938  10.840
71523W        W36783  12.308  41.529   4.220
71524W        W36784   2.735  35.100   0.052
71525W        W36785  44.880  31.115  12.953
71526W        W36786  13.886   6.345  13.051
71527W        W36787  11.707  22.282  12.478
71528W        W36788  36.842  37.055  14.757
71529W        W36789  16.651  19.348  12.427
71530W        W36790  19.207  18.655  12.341
71531W        W36791  30.494  10.108   4.213
71532W        W36792   8.763  23.650   3.733
71533W        W36793  22.984  34.046  14.242
71534W        W36794  15.908  16.271  13.277
71535W        W36795  30.073   4.681   2.740
71536W        W36796   7.655   0.360   4.359
71537W        W36797  37.632  33.587   4.029
71538W        W36798   4.722  12.328  13.727
71539W        W36799  37.354   4.008  13.218
71540W        W36800  28.493  29.057  11.983
71541W        W36801  35.141  16.327  10.961
71542W        W36802   5.802  14.953   0.795
71543W        W36803  32.098  20.264  10.720
71544W        W36804  23.663   4.744   2.769
71545W        W36805  28.362  36.775  13.065
71546W        W36806   1.755   9.654  12.931
71547W        W36807   0.996  29.726   1.729
71548W        W36808  27.190   6.879  12.889
71549W        W36809  13.105  18.538  14.959
71550W        W36810  36.549  32.029   0.196
71551W        W36811  29.111  10.833  10.804
71552W        W36812  33.052  42.226   4.650
71553W        W36813  25.991  22.539   1.178
71554W        W36814  39.528   5.972   0.536
71555W        W36815   2.680  36.518  11.561
71556W        W36816  24.536  12.877  12.386
71557W        W36817  17.584  44.581   4.634
71558W        W36818  13.235  32.176  14.040
71559W        W36819  10.825  26.190   2.574
71560W        W36820  14.125  44.421  11.582
71561W        W36821   1.347  43.497   3.732
71562W        W36822  16.225  29.126   2.675
71563W        W36823  11.737  14.701  12.953
71564W        W36824  37.999  20.314  12.628
71565W        W36825  27.758  23.088  10.655
71566W        W36826  12.896  19.711   4.119
71567W        W36827  22.489  31.801   0.311
71568W        W36828  28.088   3.014  10.912
71569W        W36829   9.181  16.596   1.411
71570W        W36830   9.632  24.362  10.765
71571W        W36831  42.748  12.350   3.042
71572W        W36832   7.156  40.938   2.665
71573W        W36833  43.244  31.093  10.887
71574W        W36834  28.070   7.832   1.300
71575W        W36835   8.772  26.384   2.302
71576W        W36836  26.563  42.004  13.356
71577W        W36837  21.765  11.065   0.077
71578W        W36838  41.991  21.010   3.887
71579W        W36839   5.699  13.305  12.535
71580W        W36840  15.096  27.122  11.206
71581W        W36841  21.527  39.977   2.751
71582W        W36842  11.316  24.974  11.146
71583W        W36843  22.464  17.221  12.326
71584W        W36844  16.587  34.398   1.334
71585W        W36845  28.482  39.558  13.392
71586W        W36846   3.984  37.941  11.714
71587W        W36847  41.926  15.964   0.818
71588W        W36848  29.396  31.618  12.548
71589W        W36849  13.439  23.816   0.663
71590W        W36850  43.495  35.992   2.818
71591W        W36851  18.257  42.884  10.463
71592W        W36852  17.166   3.931  12.954
71593W        W36853  16.188  42.340   0.023
71594W        W36854   7.615  28.588  11.941
71595W        W36855  37.898   7.909   3.199
71596W        W36856   4.406  13.229  10.840
71597W        W36857  35.549  34.880   0.848
71598W        W36858  33.430  22.517  11.231
71599W        W36859   7.720   6.187   4.498
71600W        W36860  39.621  22.308   3.738
71601W        W36861   2.981  17.240  11.597
71602W        W36862  36.882  12.968   4.587
71603W        W36863  27.233   3.201   2.246
71604W        W36864  33.561  28.378   0.045
71605W        W36865  19.048  31.018  10.696
71606W        W36866   9.185  21.301  14.846
71607W        W36867   4.365   4.245   2.294
71608W        W36868  36.939   4.264   1.237
71609W        W36869  15.661  10.858   0.335
71610W        W36870  37.216  23.264  10.749
71611W        W36871  43.240  16.083  14.976
71612W        W36872  29.440  29.702   3.109
71613W        W36873  31.302   8.925   1.396
71614W        W36874  38.810   7.051  12.579
71615W        W36875  11.311  18.075  12.480
71616W        W36876  19.231  41.319  11.630
71617W        W36877  18.951  17.791  14.896
71618W        W36878  17.950  10.659  14.035
71619W        W36879  30.580  34.041   0.174
71620W        W36880  18.544  44.186   1.330
71621W        W36881   4.219   9.429  11.893
71622W        W36882  40.270  17.094   3.878
71623W        W36883  22.233  15.725  13.807
71624W        W36884  36.063  27.066   4.991
71625W        W36885  42.512  13.158   0.541
71626W        W36886  10.630  30.953  14.830
71627W        W36887  40.583  34.563  14.900
71628W        W36888  17.547  17.989  12.595
71629W        W36889  17.626   9.279   0.699
71630W        W36890   4.235   5.161  13.518
71631W        W36891   1.549  17.586   1.755
71632W        W36892  41.027  36.407  11.200
71633W        W36893  17.019   0.891   3.366
71634W        W36894  17.496   9.559  13.306
71635W        W36895  41.506  41.496   2.064
71636W        W36896  21.501  18.796   4.312
71637W        W36897  11.264  20.606   2.116
71638W        W36898  26.786   7.189  14.490
71639W        W36899  15.209  18.990   3.323
71640W        W36900  26.914  23.536  11.020
71641W        W36901   4.999  31.565  10.114
71642W        W36902  40.620   7.392  12.954
71643W        W36903  34.858   9.096  12.346
71644W        W36904  16.117  42.117   2.279
71645W        W36905  14.573  21.966  13.826
71646W        W36906  44.693  14.539  12.157
71647W        W36907  33.889  32.920   4.090
71648W        W36908  28.680  38.994   1.155
71649W        W36909  34.645  24.124   4.272
71650W        W36910  28.653  34.490  10.589
71651W        W36911  44.006  39.963  13.274
71652W        W36912  38.633   3.850  11.071
71653W        W36913  22.197  34.076   1.941
71654W        W36914  35.665   9.305  10.595
71655W        W36915  43.777  31.392   2.680
71656W        W36916  31.084  12.226  14.842
71657W        W36917  18.380  23.122  11.526
71658W        W36918   0.105  11.232  14.408
71659W        W36919   1.900  21.775  11.105
71660W        W36920  42.479  43.562  11.970
71661W        W36921  24.158  19.067   0.951
71662W        W36922  17.536  11.092   4.262
71663W        W36923  16.172  24.020  11.221
71664W        W36924  40.313  44.841   0.672
71665W        W36925  15.331  17.620  12.629
71666W        W36926   2.258  37.370  13.009
71667W        W36927  31.169  26.637  14.837
71668W        W36928  34.344  31.883  14.578
71669W        W36929   3.846  44.442  13.923
71670W        W36930  30.077  42.869  10.720
71671W        W36931  19.217  29.295   3.009
71672W        W36932  18.041  44.158  10.494
71673W        W36933   5.790  33.054   1.291
71674W        W36934  23.265   2.858  11.546
71675W        W36935   5.285  41.344  11.186
71676W        W36936   6.436  23.867   4.880
71677W        W36937  23.880  37.135   4.161
71678W        W36938  40.067   1.648  13.900
71679W        W36939  15.857   7.250  14.219
71680W        W36940   5.644  44.712   1.489
71681W        W36941  44.747  31.703  11.005
71682W        W36942  14.296  29.141  11.642
71683W        W36943  29.019  10.066   3.399
71684W        W36944  10.616   1.833   2.785
71685W        W36945   9.993  36.426   1.585
71686W        W36946  44.387  15.047   3.352
71687W        W36947  22.572  28.718  14.494
71688W        W36948  39.334  44.457  14.057
71689W        W36949  18.180   2.302  13.995
71690W        W36950   4.317  24.246   2.327
71691W        W36951  16.125  36.151  11.127
71692W        W36952  23.152   2.829  10.018
71693W        W36953  36.295  23.789  11.689
71694W        W36954  26.519  43.879   4.694
71695W        W36955   6.154  30.049   1.005
71696W        W36956  40.619  33.131   3.098
71697W        W36957  14.683   7.361  11.624
71698W        W36958  44.315  17.665  11.080
71699W        W36959   6.120   7.741  14.045
71700W        W36960  35.365   8.117   0.510
71701W        W36961  11.175  33.593   4.116
71702W        W36962  19.308  38.314   1.333
71703W        W36963  32.147   7.286   2.223
71704W        W36964   1.475  18.189  14.799
71705W        W36965  34.997  20.022  12.963
71706W        W36966  42.203  17.477  11.205
71707W        W36967   3.311  22.561  13.286
71708W        W36968  19.508  24.798  12.941
71709W        W36969  22.021  15.643   2.865
71710W        W36970  16.765   3.687   4.730
71711W        W36971  31.161  25.903  12.525
71712W        W36972  23.232  32.694   1.238
71713W        W36973   1.456   2.756  13.478
71714W        W36974  11.655   7.721   1.693
71715W        W36975  14.350  34.949  13.310
71716W        W36976  18.313  22.625  11.493
71717W        W36977  33.512   2.194  13.504
71718W        W36978  38.444  23.239  14.867
71719W        W36979  41.771   3.542   0.434
71720W        W36980  25.063  20.164  12.633
71721W        W36981   2.466   5.438  11.363
71722W        W36982  26.526   6.828  14.838
71723W        W36983   8.815  23.819   2.340
71724W        W36984   9.704  29.127   5.119
71725W        W36985   0.537  20.283   0.369
71726W        W36986  15.163   7.122  11.670
71727W        W36987  32.041  18.955   1.892
71728W        W36988  33.034  21.805  11.490
71729W        W36989  19.264  18.692   3.224
71730W        W36990  38.017  28.674  11.998
71731W        W36991  16.508  34.058  13.116
71732W        W36992  28.897  10.528   4.154
71733W        W36993  20.488  38.784  14.108
71734W        W36994   2.428  13.608   3.940
71735W        W36995  26.264  14.905   4.838
71736W        W36996  17.846  30.898  13.433
71737W        W36997  14.038   6.507  13.911
71738W        W36998  30.147  22.968  12.782
71739W        W36999   3.179  39.512  13.480
71740W        W37000  25.770  41.375  13.792
71741W        W37001  44.336  38.988  14.395
71742W        W37002   5.616  31.000  10.434
71743W        W37003  12.726  24.167  14.354
71744W        W37004  15.244  13.548   0.591
71745W        W37005  36.415  33.691   1.783
71746W        W37006  25.201   4.694   1.172
71747W        W37007  34.038  30.253   0.447
71748W        W37008   5.176  32.831   2.557
71749W        W37009  16.225   5.897  13.060
71750W        W37010  39.276   4.876  13.400
71751W        W37011  34.434  18.505   0.849
71752W        W37012  44.313  42.790  13.055
71753W        W37013  35.102  37.580   4.911
71754W        W37014  28.116  34.443  10.605
71755W        W37015   5.607  29.050  10.316
71756W        W37016  33.177  12.396  11.549
71757W        W37017  36.088  13.322   0.765
71758W        W37018  38.215   9.185   4.493
71759W        W37019  28.567   9.280   3.916
71760W        W37020  30.612  27.129  12.565
71761W        W37021  22.707   6.881   0.699
71762W        W37022   0.769  20.467  14.835
71763W        W37023  10.662  25.803  12.478
71764W        W37024  37.291  14.573  12.810
71765W        W37025   1.463  18.221  11.497
71766W        W37026   9.306  33.815  12.355
71767W        W37027  39.766  15.516  11.639
71768W        W37028  25.554  26.492   0.677
71769W        W37029   0.315  36.595  13.108
71770W        W37030  18.287  10.074   0.363
71771W        W37031  41.861  24.953  12.936
71772W        W37032   1.931  25.748   3.661
71773W        W37033  16.498  13.510  13.993
71774W        W37034  36.538  34.927  11.976
71775W        W37035  29.526  42.013  11.730
71776W        W37036  15.337  43.975   2.648
71777W        W37037  20.547  10.592  11.094
71778W        W37038   0.287  27.636  14.429
71779W        W37039  28.522  28.729   1.685
71780W        W37040   2.005  40.467   5.243
71781W        W37041  11.747  24.251   1.190
71782W        W37042   0.471  33.136   0.739
71783W        W37043  34.175   3.879  11.778
71784W        W37044  36.906  10.836   1.929
71785W        W37045   7.371  29.235  14.286
71786W        W37046  43.509  17.016   3.684
71787W        W37047  40.510  20.303   1.824
71788W        W37048  35.946   1.059   0.838
71789W        W37049  15.828  15.192   4.117
71790W        W37050  41.765   8.743   3.263
71791W        W37051  14.775  12.678   3.661
71792W        W37052  27.094   0.723   2.245
71793W        W37053  34.931  29.646  14.658
71794W        W37054  19.579  26.634  10.343
71795W        W37055  15.182  44.437   2.903
71796W        W37056  25.206   8.397  13.942
71797W        W37057  17.147  25.513   1.656
71798W        W37058  14.974  45.000   2.732
71799W        W37059  14.634  39.196  14.868
71800W        W37060  30.612   1.408   4.811
71801W        W37061  10.827   8.823   0.329
71802W        W37062  39.786  44.269  14.237
71803W        W37063  17.646  10.565   1.335
71804W        W37064  42.377   6.725   4.009
71805W        W37065  27.385   1.394   1.790
71806W        W37066  44.424  28.402  11.627
71807W        W37067   5.967  35.023  13.811
71808W        W37068  14.688   4.405  11.633
71809W        W37069  28.730  38.394  11.409
71810W        W37070  27.180  11.546  13.391
71811W        W37071   6.654   3.361   2.332
71812W        W37072  44.368  36.323  13.450
71813W        W37073  24.680  12.695  13.152
71814W        W37074  19.991  26.075  13.394
71815W        W37075  34.592  32.818   2.369
71816W        W37076  37.174  10.091  11.893
71817W        W37077  29.083  36.021  12.492
71818W        W37078  38.004  35.718   0.469
71819W        W37079  15.775  23.995  11.593
71820W        W37080   7.987  19.487   0.864
71821W        W37081   5.878  31.282   4.125
71822W        W37082  37.919   2.206   2.288
71823W        W37083  27.278  35.324  11.988
71824W        W37084  15.314   7.977  12.319
71825W        W37085  31.116   9.329  14.983
71826W        W37086   7.842  15.325  13.834
71827W        W37087   2.746  29.469   9.424
71828W        W37088  19.080  15.221  10.713
71829W        W37089  28.211  36.234  12.657
71830W        W37090   0.950  17.218   4.121
71831W        W37091  14.684  13.525  11.226
71832W        W37092  29.124  36.882  14.595
71833W        W37093   8.102  26.185  12.658
71834W        W37094   6.353   3.813   2.618
71835W        W37095  10.179  26.038   0.963
71836W        W37096  26.767  30.703   5.127
71837W        W37097  35.144  18.794  11.394
71838W        W37098  29.593  26.488   3.193
71839W        W37099  13.302  20.444   0.905
71840W        W37100  12.803  33.960   1.837
71841W        W37101  14.951  15.984   0.924
71842W        W37102  38.029  16.793   1.763
71843W        W37103  18.727   4.374  14.055
71844W        W37104   5.186  36.632   0.863
71845W        W37105   9.685  26.547   2.883
71846W        W37106  30.402   6.960  12.600
71847W        W37107  43.458  25.747   2.727
71848W        W37108  10.189   7.741   1.567
71849W        W37109  32.928  42.514   0.283
71850W        W37110  43.336  15.266   3.256
71851W        W37111  19.865  18.665  12.846
71852W        W37112  12.924  43.893   4.216
71853W        W37113  39.394  29.499  14.563
71854W        W37114  43.476   3.274  10.625
71855W        W37115   8.791  29.959  12.772
71856W        W37116  25.137  40.390   1.770
71857W        W37117  17.688  32.645  14.512
71858W        W37118  44.206  14.168  11.508
71859W        W37119  43.416  12.692  12.185
71860W        W37120  38.935  36.758  12.841
71861W        W37121  11.188  29.489   2.909
71862W        W37122  14.648  29.918  13.316
71863W        W37123  26.130   7.450   4.095
71864W        W37124   2.349  29.950  11.710
71865W        W37125  37.203   1.908  13.959
71866W        W37126   8.326  34.455   4.127
71867W        W37127  20.783  28.965   0.073
71868W        W37128   5.218  24.750  11.550
71869W        W37129  42.899  34.612   4.913
71870W        W37130   0.939  33.680  11.975
71871W        W37131  40.358  13.558  11.601
71872W        W37132  25.584  35.805   3.253
71873W        W37133  31.406  15.290  14.542
71874W        W37134  20.933  26.025   0.374
71875W        W37135  41.077  11.890   4.118
71876W        W37136   8.358   1.153  12.661
71877W        W37137  33.956  31.918  11.119
71878W        W37138  32.944   2.219  11.457
71879W        W37139  27.028  36.945   4.093
71880W        W37140  20.991   6.345   0.192
71881W        W37141  27.012  20.008   0.808
71882W        W37142  41.944  20.242  12.440
71883W        W37143   6.854   1.458   3.779
71884W        W37144   2.756  21.548   2.913
71885W        W37145  35.490  13.133  14.826
71886W        W37146  23.035  12.669   1.706
71887W        W37147  30.244  32.886  11.186
71888W        W37148   9.989  10.448  14.940
71889W        W37149  38.871   8.621   3.657
71890W        W37150  20.880  17.445   2.843
71891W        W37151  11.651  25.511  12.605
71892W        W37152   2.429  34.653   1.868
71893W        W37153  33.999  16.462  11.130
71894W        W37154  38.054  30.731   3.977
71895W        W37155   9.963  20.271   2.436
71896W        W37156   7.781   2.716  14.865
71897W        W37157  28.530   3.386   1.989
71898W        W37158  18.802  14.509  11.094
71899W        W37159  16.534  10.755  14.775
71900W        W37160  25.145  42.881   2.830
71901W        W37161  15.002  44.885  14.447
71902W        W37162  36.332  29.541   1.259
71903W        W37163  20.063  24.114  13.144
71904W        W37164  22.267  26.326  14.263
71905W        W37165  13.375  29.206  12.928
71906W        W37166   0.381  33.923  12.173
71907W        W37167  18.665  14.112   1.284
71908W        W37168  19.544  44.226  11.976
71909W        W37169   3.760   8.613   0.272
71910W        W37170  44.034  27.090   1.743
71911W        W37171  25.843   6.449  12.215
71912W        W37172  33.820  15.199   2.322
71913W        W37173  36.980  25.416  11.572
71914W        W37174  28.263  28.170  13.833
71915W        W37175  25.921   9.420   3.187
71916W        W37176   4.497  27.466  11.182
71917W        W37177  13.678  37.024  13.054
71918W        W37178  44.665  28.120   3.998
71919W        W37179  26.396  34.410   0.003
71920W        W37180   1.682   6.750  12.682
71921W        W37181   8.955  43.957  13.351
71922W        W37182  31.607  33.406  11.129
71923W        W37183  26.516  15.891  12.249
71924W        W37184   2.323  11.238   3.246
71925W        W37185  21.237  44.526  10.987
71926W        W37186  41.581  28.148   0.515
71927W        W37187  18.352  34.558  11.514
71928W        W37188   6.892  36.555   2.449
71929W        W37189  21.267   7.651  12.930
71930W        W37190  27.394   3.327  12.497
71931W        W37191  25.941  42.706   0.661
71932W        W37192  26.651  30.645  14.250
71933W        W37193  31.436   3.628   2.268
71934W        W37194  21.396   5.947   4.294
71935W        W37195  15.208  14.696  12.085
71936W        W37196   4.217  33.145  10.814
71937W        W37197  26.053  23.108   3.196
71938W        W37198  25.570  14.940  10.728
71939W        W37199  29.353  18.373  11.151
71940W        W37200  33.980  32.383  10.892
71941W        W37201  40.129  42.524   0.954
71942W        W37202  43.837  11.580  12.422
71943W        W37203   6.777  35.541   4.463
71944W        W37204   3.453  30.190  12.424
71945W        W37205  27.530  16.721  11.850
71946W        W37206  24.030  39.275   1.887
71947W        W37207  37.408  37.075  12.675
71948W        W37208  22.482  43.801  11.525
71949W        W37209  22.689  42.875   3.163
71950W        W37210  31.074  25.241  14.587
71951W        W37211  19.775  18.767   0.966
71952W        W37212   9.436   4.195  10.658
71953W        W37213  35.000  35.436  13.129
71954W        W37214  17.298   9.320  10.687
71955W        W37215  12.142  22.200   3.739
71956W        W37216  31.596  33.765  14.579
71957W        W37217   0.724  43.488   4.124
71958W        W37218   6.741  33.733   2.294
71959W        W37219  30.965   4.097   2.685
71960W        W37220  38.498  43.389   3.756
71961W        W37221  44.456  11.093   0.006
71962W        W37222  13.690  33.380  11.145
71963W        W37223  34.577  27.751  12.491
71964W        W37224  35.033  10.755   4.122
71965W        W37225   8.636  44.789   3.194
71966W        W37226  33.861   9.742   2.792
71967W        W37227  39.711   0.927   2.670
71968W        W37228  37.663  37.568   2.369
71969W        W37229  12.133  24.215   2.323
71970W        W37230  21.346   7.784   0.313
71971W        W37231  27.230   6.878  11.523
71972W        W37232   3.257  14.709   4.355
71973W        W37233   9.876  40.491   1.013
71974W        W37234  20.614  20.123   0.263
71975W        W37235  21.441   4.100   2.742
71976W        W37236  39.296  25.207   3.826
71977W        W37237  33.160   7.926   4.794
71978W        W37238   3.980   7.299   0.926
71979W        W37239  17.202  27.475  11.997
71980W        W37240  24.564  31.572  13.309
71981W        W37241  21.812  38.090   0.824
71982W        W37242   7.195  36.829  13.001
71983W        W37243  14.647  18.047   1.426
71984W        W37244  37.978  31.655   2.340
71985W        W37245   0.744  42.062   0.836
71986W        W37246  12.714  37.319  13.755
71987W        W37247  14.734  20.115  13.573
71988W        W37248   9.848   7.329  14.783
71989W        W37249  27.455  14.068   0.805
71990W        W37250  37.191  18.832  12.458
71991W        W37251  22.669   3.743  12.766
71992W        W37252  44.917  40.482   4.862
71993W        W37253  39.272  35.898  10.763
71994W        W37254  39.995   9.278  13.429
71995W        W37255  11.041   5.347   9.854
71996W        W37256   9.763  28.868   1.852
71997W        W37257   7.930  23.102  13.317
71998W        W37258  36.024  30.409  13.997
71999W        W37259   4.429  10.969  11.478
72000W        W37260  30.475  38.650  12.028
72001W        W37261  16.767   6.397  13.811
72002W        W37262  14.684  16.298   1.249
72003W        W37263  28.298  27.259   2.772
72004W        W37264  21.496  43.291  11.129
72005W        W37265  36.987  42.617   4.812
72006W        W37266  25.140  13.948  12.591
72007W        W37267  35.689  35.141  11.859
72008W        W37268  43.676  26.978  12.159
72009W        W37269  25.121  32.092   4.197
72010W        W37270  44.033  17.342   3.698
72011W        W37271   7.334  19.737   0.728
72012W        W37272   6.897  20.032   1.240
72013W        W37273  14.513  33.008  12.472
72014W        W37274  21.119   4.888  13.344
72015W        W37275  33.475  27.718  11.144
72016W        W37276  28.114  21.917   1.720
72017W        W37277  25.226  42.381  14.276
72018W        W37278  39.089  33.792  13.027
72019W        W37279  18.817  23.225  13.405
72020W        W37280  10.130  36.391   2.110
72021W        W37281   3.709  13.919   3.760
72022W        W37282  25.129  20.267  10.769
72023W        W37283  36.192  37.121  10.525
72024W        W37284  33.842  27.683  12.099
72025W        W37285  23.085  39.432   1.882
72026W        W37286  26.517  16.369  12.448
72027W        W37287  26.706  18.881   3.967
72028W        W37288  20.548  18.012  14.444
72029W        W37289  43.250   4.480   4.359
72030W        W37290  37.643  33.152  11.017
72031W        W37291  16.782   8.261   2.190
72032W        W37292  32.837  12.325   2.217
72033W        W37293  25.482  25.156  11.876
72034W        W37294  39.088  19.798   3.183
72035W        W37295   9.875  44.674   2.758
72036W        W37296  16.165  15.263   2.738
72037W        W37297  22.596  11.609   5.046
72038W        W37298   1.835  24.509   2.916
72039W        W37299  12.652  34.852   1.478
72040W        W37300  22.259   8.488   4.335
72041W        W37301   4.701  34.024  11.617
72042W        W37302   7.730   9.866  12.853
72043W        W37303  35.436   3.945   2.672
72044W        W37304  38.090  37.627   2.093
72045W        W37305  30.045   9.458  10.973
72046W        W37306  16.881   8.737  13.422
72047W        W37307  20.700  26.635   2.655
72048W        W37308  15.177  34.862   3.763
72049W        W37309  19.599   7.943  10.269
72050W        W37310  31.866  24.283   5.107
72051W        W37311  39.036  33.267  12.904
72052W        W37312   5.797  15.061  11.995
72053W        W37313  36.286  30.623  14.905
72054W        W37314  35.788   7.305   1.700
72055W        W37315  28.927   8.855   1.412
72056W        W37316  31.973  29.503   4.323
72057W        W37317  41.539  10.791  13.514
72058W        W37318   6.940   7.224   1.874
72059W        W37319   7.267  33.852   2.298
72060W        W37320   1.286  30.722   3.373
72061W        W37321  17.655  34.872  13.436
72062W        W37322   5.855  37.976  11.673
72063W        W37323  42.436  16.012  13.411
72064W        W37324  42.249   7.723  13.857
72065W        W37325   0.314  39.111   9.727
72066W        W37326  41.754  38.551   3.826
72067W        W37327  10.197  44.858   0.996
72068W        W37328  29.172  27.719   2.651
72069W        W37329   2.051  40.787   0.088
72070W        W37330  24.563   7.659   2.343
72071W        W37331   2.768   0.633   0.869
72072W        W37332  18.187  12.836   1.209
72073W        W37333  17.593   7.593   2.537
72074W        W37334  27.223  26.907  12.955
72075W        W37335  41.628  21.216  12.899
72076W        W37336  13.867  15.814  11.248
72077W        W37337   0.767  19.994   2.357
72078W        W37338  44.777  42.844   3.686
72079W        W37339  21.072  38.053   0.338
72080W        W37340  12.585  19.560  12.785
72081W        W37341  38.556   5.778   0.424
72082W        W37342  24.630  26.936   4.786
72083W        W37343  15.564  43.596   0.467
72084W        W37344  39.285  44.317  14.550
72085W        W37345   9.325  10.304   1.529
72086W        W37346  19.548   7.856   2.113
72087W        W37347  22.818  32.896   1.482
72088W        W37348  36.330  27.904  11.888
72089W        W37349  38.402  39.888  14.640
72090W        W37350  27.145  36.847   5.125
72091W        W37351  44.866  39.763  13.776
72092W        W37352  17.207   6.266   2.942
72093W        W37353  29.938  21.736   1.783
72094W        W37354  20.601  37.869   2.139
72095W        W37355  11.698  42.523  12.952
72096W        W37356   9.863  19.623   0.802
72097W        W37357  44.008   9.792   3.765
72098W        W37358  10.040  16.118   3.598
72099W        W37359   7.948  30.119   4.364
72100W        W37360   5.699  28.370  12.592
72101W        W37361  39.480   8.126  12.938
72102W        W37362  43.445  31.413  13.968
72103W        W37363  11.675  40.029   2.717
72104W        W37364   6.791   8.805   1.862
72105W        W37365   6.112   0.869   3.784
72106W        W37366  19.185  40.818  11.646
72107W        W37367   6.763  17.712   2.852
72108W        W37368  44.835  39.499   4.731
72109W        W37369  21.071  32.483   1.149
72110W        W37370  16.231  40.411   4.376
72111W        W37371  22.925  12.261  12.129
72112W        W37372   7.718   1.512  11.578
72113W        W37373   1.957  14.571   1.739
72114W        W37374  31.365   6.420   0.090
72115W        W37375  14.807  26.820  14.401
72116W        W37376  13.329  10.958   2.278
72117W        W37377  14.330  21.275   2.449
72118W        W37378  10.109   8.945   0.996
72119W        W37379  35.386  33.954   0.743
72120W        W37380  40.405   4.435   1.358
72121W        W37381  11.233  37.971   2.782
72122W        W37382  36.784  41.181  11.096
72123W        W37383  31.001  37.127   3.829
72124W        W37384  43.788  28.179  14.938
72125W        W37385  22.505  13.140  13.949
72126W        W37386  12.511  21.856  11.657
72127W        W37387  26.377  40.352  11.636
72128W        W37388  39.012  29.613  13.801
72129W        W37389  40.853  29.543   4.644
72130W        W37390  34.824  13.541  10.642
72131W        W37391  15.841  26.479  13.401
72132W        W37392  13.192   2.785  13.877
72133W        W37393   3.303   7.957   3.850
72134W        W37394  43.402  25.107   2.149
72135W        W37395  18.712   9.846   3.439
72136W        W37396  13.288   5.660  10.973
72137W        W37397   1.334  29.696   4.135
72138W        W37398  13.571  15.877   1.788
72139W        W37399  37.585   6.240  11.575
72140W        W37400   2.750  38.323   2.882
72141W        W37401  37.186  10.117  11.024
72142W        W37402   7.457  42.928   4.242
72143W        W37403   4.284   5.260  12.008
72144W        W37404  41.832  27.044   3.010
72145W        W37405   3.287  35.404  13.888
72146W        W37406  16.421  32.969   0.433
72147W        W37407   8.169   3.347  12.906
72148W        W37408  13.168  37.839   2.851
72149W        W37409  33.044   8.638   4.106
72150W        W37410  28.978  22.048  14.049
72151W        W37411  44.987  32.890  12.862
72152W        W37412   4.917  37.287  10.729
72153W        W37413   8.915  10.663   2.380
72154W        W37414  35.965  40.635   2.874
72155W        W37415   7.369  31.622   3.718
72156W        W37416  35.025   0.985   9.787
72157W        W37417  31.668  11.352  11.012
72158W        W37418   3.915  23.053  12.107
72159W        W37419  17.703  16.606   1.722
72160W        W37420  30.372   4.246   4.823
72161W        W37421  41.361  30.214  13.753
72162W        W37422   2.393  32.666  14.531
72163W        W37423  11.299  20.601   1.282
72164W        W37424  21.689  18.341   4.185
72165W        W37425   4.318  28.953   4.492
72166W        W37426  43.286  15.301  14.520
72167W        W37427   3.348  19.963  12.948
72168W        W37428  20.618  29.461  14.987
72169W        W37429  27.953  16.311  14.313
72170W        W37430  22.756   3.752  14.239
72171W        W37431  34.827  17.167  12.777
72172W        W37432  17.635  29.359   1.703
72173W        W37433  13.540  34.554  14.564
72174W        W37434  31.679   3.080   4.751
72175W        W37435  42.443  18.539   0.509
72176W        W37436   1.830  27.563  14.314
72177W        W37437  19.645  35.691  14.292
72178W        W37438  38.077  36.294  11.519
72179W        W37439  32.977  14.238   1.896
72180W        W37440  29.054   9.159   4.663
72181W        W37441   3.240   0.533   0.670
72182W        W37442  10.846  11.614  12.734
72183W        W37443   2.624  27.443  13.797
72184W        W37444  44.415  32.685  13.280
72185W        W37445  21.150   4.553   2.055
72186W        W37446  30.580  10.824   3.623
72187W        W37447  15.122  30.888   2.891
72188W        W37448  35.024  12.175  10.637
72189W        W37449  17.246  43.376   1.226
72190W        W37450   6.945  16.304  11.566
72191W        W37451  16.858  23.246  11.175
72192W        W37452   2.216  23.677  11.151
72193W        W37453  43.331  26.209   4.909
72194W        W37454  24.478  10.226   3.210
72195W        W37455  41.291  34.055   4.078
72196W        W37456  41.361  10.778   3.711
72197W        W37457   3.562  20.158   3.214
72198W        W37458  33.905   8.839   1.828
72199W        W37459   9.085  12.737   0.915
72200W        W37460  33.724  34.982  11.996
72201W        W37461   1.501  23.493   4.626
72202W        W37462  38.500  25.162   0.783
72203W        W37463   1.473  40.024   2.759
72204W        W37464  16.816  28.588  13.744
72205W        W37465  34.489   3.146  13.957
72206W        W37466  33.074   8.754  14.277
72207W        W37467  37.531  12.129  13.044
72208W        W37468  12.108  43.368   1.001
72209W        W37469  29.203  29.734   3.681
72210W        W37470  37.829  33.658  12.681
72211W        W37471   0.814  21.268   3.657
72212W        W37472   4.137  12.222   4.676
72213W        W37473  18.297  11.870   1.629
72214W        W37474  14.845  44.815  13.948
72215W        W37475  17.319  20.265   0.502
72216W        W37476  43.146   8.422  12.578
72217W        W37477   4.290  12.907  11.519
72218W        W37478   2.321  16.641  11.544
72219W        W37479  41.656   8.151   1.289
72220W        W37480  41.444  33.541   1.092
72221W        W37481  26.369  22.557   4.987
72222W        W37482  30.059  15.303  14.209
72223W        W37483  23.967   6.900   1.741
72224W        W37484  20.251  15.089   4.141
72225W        W37485  40.981  30.211   3.190
72226W        W37486  16.261  29.502   3.256
72227W        W37487   7.891  35.058  13.703
72228W        W37488  40.771   3.414   3.210
72229W        W37489   0.658  24.091   1.461
72230W        W37490  11.108   7.229   0.525
72231W        W37491   9.564  25.689  14.410
72232W        W37492  44.923   0.858   2.962
72233W        W37493  15.691  38.540   4.622
72234W        W37494  37.317  12.456   3.330
72235W        W37495  16.756   0.168  13.395
72236W        W37496  43.842   3.856   0.917
72237W        W37497  27.894  16.334   4.728
72238W        W37498  15.535   8.175  12.905
72239W        W37499  16.764   6.085  14.836
72240W        W37500  10.381  10.284   1.734
72241W        W37501  28.722   8.267   0.883
72242W        W37502  14.150  16.272   3.392
72243W        W37503  35.830  31.457  13.054
72244W        W37504  10.901   4.982  10.286
72245W        W37505   8.775   1.211   2.608
72246W        W37506  27.597  11.387  13.659
72247W        W37507  36.988  44.860   4.201
72248W        W37508  14.875  22.537   3.277
72249W        W37509  38.432  11.682   1.428
72250W        W37510  24.171  18.488  13.467
72251W        W37511  29.346  17.402   9.787
72252W        W37512   9.870  15.318  11.032
72253W        W37513   2.145  42.738   2.699
72254W        W37514  22.111  34.999   0.726
72255W        W37515  19.662  34.895   3.171
72256W        W37516   8.508   2.911  12.121
72257W        W37517  31.718   3.359  11.293
72258W        W37518  22.167  31.607  14.348
72259W        W37519  36.370  22.536  11.613
72260W        W37520  27.533  25.517   1.709
72261W        W37521   5.529  25.596   4.565
72262W        W37522  14.918  34.557   4.856
72263W        W37523  25.681   8.524   0.830
72264W        W37524  26.080  21.560  13.541
72265W        W37525  32.794  11.013  13.107
72266W        W37526  30.589  31.603   2.219
72267W        W37527  16.149  24.644  14.559
72268W        W37528  25.588  12.703   0.772
72269W        W37529  25.646  44.389  10.053
72270W        W37530  15.274  10.400   2.688
72271W        W37531  33.107  14.764  13.526
72272W        W37532  12.219   3.631   2.734
72273W        W37533  36.569  19.769   4.082
72274W        W37534  10.351   6.659   3.215
72275W        W37535  23.402  40.461  11.999
72276W        W37536  32.922   9.804   0.358
72277W        W37537  18.970  33.445  12.440
72278W        W37538  15.270   5.658   3.667
72279W        W37539  27.975  34.073   0.412
72280W        W37540  15.433  31.948   4.656
72281W        W37541   7.792  24.947  11.418
72282W        W37542   3.572  40.405   1.304
72283W        W37543  35.057   2.265   1.502
72284W        W37544  14.195  34.534   4.608
72285W        W37545  22.084  18.197   2.784
72286W        W37546  10.642  15.155   3.328
72287W        W37547  15.712  42.918  14.683
72288W        W37548  40.712  29.631   2.773
72289W        W37549  37.802  43.812  12.070
72290W        W37550  35.491  19.268   4.795
72291W        W37551  17.310  18.996  13.365
72292W        W37552   2.861  31.005   2.695
72293W        W37553  18.327  40.987   0.319
72294W        W37554  16.248  41.597  14.057
72295W        W37555   5.652  23.314  12.594
72296W        W37556   2.228  22.387  10.748
72297W        W37557  24.498  28.407   2.114
72298W        W37558  44.547  17.735  11.518
72299W        W37559  41.318  19.574   4.279
72300W        W37560  12.793  36.498   0.260
72301W        W37561  38.923   3.519   2.844
72302W        W37562  35.114  39.550   3.735
72303W        W37563  30.101   6.253  11.046
72304W        W37564  22.314  13.694   2.849
72305W        W37565  39.880  25.148   4.535
72306W        W37566  41.502  11.366   3.738
72307W        W37567  25.789  36.468   5.599
72308W        W37568  21.323  12.585  12.426
72309W        W37569  20.816  32.081  10.023
72310W        W37570  25.831   5.829   5.078
72311W        W37571   1.270  25.060  12.813
72312W        W37572   8.898  26.648   1.870
72313W        W37573  29.083  20.514  14.092
72314W        W37574  39.919  31.858  11.379
72315W        W37575  30.701  42.046  12.403
72316W        W37576  44.690   6.669  12.427
72317W        W37577   6.705  32.901   3.865
72318W        W37578  14.268  40.001   4.588
72319W        W37579  40.728  21.112   4.436
72320W        W37580   7.656  25.965  10.646
72321W        W37581  12.758  32.040  10.696
72322W        W37582  37.991  27.551  14.051
72323W        W37583  15.305  34.659   3.313
72324W        W37584  41.332  41.013   1.922
72325W        W37585  23.053  37.892   0.005
72326W        W37586  20.420  32.524  14.225
72327W        W37587  39.578  24.495   3.056
72328W        W37588  43.868  43.499   4.584
72329W        W37589  44.257  36.493   3.780
72330W        W37590  22.966  29.432  14.334
72331W        W37591  32.629  35.440   1.265
72332W        W37592  24.606  26.721   2.857
72333W        W37593   3.838  16.587  11.158
72334W        W37594   0.995   4.818   2.728
72335W        W37595   7.881  29.229   2.917
72336W        W37596  11.769  25.484   3.991
72337W        W37597  13.479  22.344  12.589
72338W        W37598  27.700  28.500  11.462
72339W        W37599  40.839   6.431   4.787
72340W        W37600  27.494  10.229  11.459
72341W        W37601  34.413   5.030  14.228
72342W        W37602  36.042  19.778   3.195
72343W        W37603   4.892  34.474  14.484
72344W        W37604  33.854  35.482  12.056
72345W        W37605  30.930  17.669  11.569
72346W        W37606   8.637   5.239   2.431
72347W        W37607  11.354   6.405   2.997
72348W        W37608  12.988  18.242   2.393
72349W        W37609  29.282  33.671   4.393
72350W        W37610   7.816   5.333  13.414
72351W        W37611  35.490  14.826   3.347
72352W        W37612  44.973  28.700   0.787
72353W        W37613   7.875  37.367   3.584
72354W        W37614   7.261   8.780   4.378
72355W        W37615  16.190  10.316   5.100
72356W        W37616  17.760  35.121  13.005
72357W        W37617  18.472  24.259   4.399
72358W        W37618  31.967  20.112   4.584
72359W        W37619  20.439  39.848   0.420
72360W        W37620  28.242   4.335  13.800
72361W        W37621  25.610  11.091   1.787
72362W        W37622  20.491   0.262   4.815
72363W        W37623  35.533  20.033  11.575
72364W        W37624  26.134  15.501   2.791
72365W        W37625  26.227   9.846   0.854
72366W        W37626  10.615  36.601   3.745
72367W        W37627  34.349  22.501  11.102
72368W        W37628  15.713  38.058  12.863
72369W        W37629  33.076   2.008   4.353
72370W        W37630   1.357  23.056  14.706
72371W        W37631   1.242  15.622   0.442
72372W        W37632   1.875  42.399   2.992
72373W        W37633  30.515  18.077  13.932
72374W        W37634  12.978  31.518   4.039
72375W        W37635  44.998  33.680   1.259
72376W        W37636  10.100  26.011   0.027
72377W        W37637  26.138  21.216   0.421
72378W        W37638  20.193  26.669   4.492
72379W        W37639  11.776  40.871   3.901
72380W        W37640  23.160  41.778   3.774
72381W        W37641   6.462  20.497   3.333
72382W        W37642  24.505  33.893  12.372
72383W        W37643  27.200  24.677  12.397
72384W        W37644  27.890  36.898  12.026
72385W        W37645   1.047  35.895   0.338
72386W        W37646  38.454  38.552  11.465
72387W        W37647  15.832  34.347   4.859
72388W        W37648  16.114  30.968   1.380
72389W        W37649  10.453  32.118  14.421
72390W        W37650   5.606   7.116   0.005
72391W        W37651  39.711  29.913   1.267
72392W        W37652  24.798   6.507   0.114
72393W        W37653   6.035  43.014   5.018
72394W        W37654  31.622  25.766  13.417
72395W        W37655  16.847  35.113   3.220
72396W        W37656  36.414   9.913   2.197
72397W        W37657   3.333  37.383   1.306
72398W        W37658  21.040  24.475   2.755
72399W        W37659   6.628  36.641   0.351
72400W        W37660  37.299  13.369  14.349
72401W        W37661  14.794  26.935   4.347
72402W        W37662  32.577  13.223  11.550
72403W        W37663  15.075  16.831  11.183
72404W        W37664  30.562  14.271   0.740
72405W        W37665  10.353  34.578   4.567
72406W        W37666  14.316  17.774  14.855
72407W        W37667  25.037  43.827   4.680
72408W        W37668  43.462  43.684   3.756
72409W        W37669  34.346  44.569   4.509
72410W        W37670  17.127  10.803  13.439
72411W        W37671  31.062  24.794  14.862
72412W        W37672  41.531  18.184  12.770
72413W        W37673  22.325  23.215   1.219
72414W        W37674  28.577  31.219  10.431
72415W        W37675  20.736  44.684  11.954
72416W        W37676  34.873  15.918  11.178
72417W        W37677   1.322  41.234  11.580
72418W        W37678   0.472  23.128   3.326
72419W        W37679  38.978  11.831  10.808
72420W        W37680  37.168   5.445  13.177
72421W        W37681  37.543  22.392   0.296
72422W        W37682  13.911   9.164  14.502
72423W        W37683  36.928  28.428   1.251
72424W        W37684  20.593  42.799   2.404
72425W        W37685  40.806  11.249  10.665
72426W        W37686   7.829  39.879   1.193
72427W        W37687   5.432   0.401   3.770
72428W        W37688   8.750  18.278   2.622
72429W        W37689  40.964   0.988  13.936
72430W        W37690  38.267  22.149   0.882
72431W        W37691   8.075   5.612   3.717
72432W        W37692  17.710   3.373  14.035
72433W        W37693  31.024   7.907  14.861
72434W        W37694  43.847  10.871   9.979
72435W        W37695  31.457  13.609  14.967
72436W        W37696   9.640  16.781   1.741
72437W        W37697  44.355  32.611  11.270
72438W        W37698  28.625  42.546   0.567
72439W        W37699  33.979   3.975   4.884
72440W        W37700  37.440   6.812  12.872
72441W        W37701  36.782  39.024  14.373
72442W        W37702  26.376   6.861   4.157
72443W        W37703  36.857  24.917   4.538
72444W        W37704  42.763   1.709  13.877
72445W        W37705  28.459  21.105  14.456
72446W        W37706  41.311   7.118  14.515
72447W        W37707  36.269  24.740   4.512
72448W        W37708  32.272  32.112   1.946
72449W        W37709   2.673  21.952  11.534
72450W        W37710   4.706  41.259   4.966
72451W        W37711  30.868  27.055  14.931
72452W        W37712  23.717  30.392   0.730
72453W        W37713  33.394  33.563  13.881
72454W        W37714  19.534  23.355  12.960
72455W        W37715  21.237  20.681   5.061
72456W        W37716   7.128  12.528  11.922
72457W        W37717  36.349  18.566   2.776
72458W        W37718  37.520   4.001   2.293
72459W        W37719   9.528  12.553   5.018
72460W        W37720  32.159  36.949  12.045
72461W        W37721   8.716  22.379  11.047
72462W        W37722  20.808   0.725   2.362
72463W        W37723  19.977   6.759  13.967
72464W        W37724  41.881  25.961  12.867
72465W        W37725  34.387  40.392  14.870
72466W        W37726  32.065   8.243  12.035
72467W        W37727  42.714   4.333   0.383
72468W        W37728   4.643   6.449   2.335
72469W        W37729  41.923  17.233   3.183
72470W        W37730  32.422  25.638  13.940
72471W        W37731  10.395  40.946   1.126
72472W        W37732  43.541  44.236  14.598
72473W        W37733   0.358  39.912  13.877
72474W        W37734   6.446  10.112  11.170
72475W        W37735   8.993  41.077  10.644
72476W        W37736  35.851   5.090  14.312
72477W        W37737  11.276  15.392  13.016
72478W        W37738  30.141   1.969  13.356
72479W        W37739  30.500  20.976   3.709
72480W        W37740  35.071  11.302   3.085
72481W        W37741  25.728  38.113  12.953
72482W        W37742  12.370  11.356  12.473
72483W        W37743   5.774   2.670   0.396
72484W        W37744  34.358  38.839  14.472
72485W        W37745  22.498   2.157   0.961
72486W        W37746  22.913  32.336  14.597
72487W        W37747  15.347   1.876   1.497
72488W        W37748  29.984  39.378  12.841
72489W        W37749  32.330   0.704   0.213
72490W        W37750  14.546  39.070   2.463
72491W        W37751  11.459  22.136  13.807
72492W        W37752   1.376  44.531   3.739
72493W        W37753  21.594  41.416   2.310
72494W        W37754   0.746  37.807   4.610
72495W        W37755   6.421  28.004   4.555
72496W        W37756  32.427  30.130   0.686
72497W        W37757  26.188  14.166  13.722
72498W        W37758  37.515  16.862   1.919
72499W        W37759  16.088   1.526   4.565
72500W        W37760  14.228  21.205   0.313
72501W        W37761  11.625  18.513   1.893
72502W        W37762  43.856   6.824  14.467
72503W        W37763  44.376  34.301  14.525
72504W        W37764  17.258  12.181   3.381
72505W        W37765  13.843  33.463   4.210
72506W        W37766  20.724  35.364   3.722
72507W        W37767  42.967   4.382  13.044
72508W        W37768  19.662  26.538   4.511
72509W        W37769  39.622  24.182  11.805
72510W        W37770   3.704  17.894   2.020
72511W        W37771  26.068  42.516   4.648
72512W        W37772   1.724  19.509   0.492
72513W        W37773  44.017   0.778  13.765
72514W        W37774   6.405  38.423  14.327
72515W        W37775   4.303  19.551  14.336
72516W        W37776  35.937  12.399   0.796
72517W        W37777  32.432  42.496  10.559
72518W        W37778  13.625   2.037  12.500
72519W        W37779  32.921   1.552  12.904
72520W        W37780  18.625  22.877  10.288
72521W        W37781  33.706  15.316  12.042
72522W        W37782  29.869  22.211   2.208
72523W        W37783  19.577   1.353   4.619
72524W        W37784   6.299   6.268   1.709
72525W        W37785   7.156  33.386  13.764
72526W        W37786  23.048   2.833   2.878
72527W        W37787  29.901  29.670  13.526
72528W        W37788  26.634  37.058   2.893
72529W        W37789  14.137  27.656   1.813
72530W        W37790  40.587  33.664   0.142
72531W        W37791  39.286  10.051  12.381
72532W        W37792  21.648   3.516   1.953
72533W        W37793  32.472   7.529   0.472
72534W        W37794  37.439  43.069   0.526
72535W        W37795  14.715  12.989  13.496
72536W        W37796  31.057  17.993  12.860
72537W        W37797   6.923  16.642  12.063
72538W        W37798  15.794  36.363   0.994
72539W        W37799   9.884  24.779  10.586
72540W        W37800  22.627   3.943  12.297
72541W        W37801  38.050  28.824   1.977
72542W        W37802  10.165  42.479  11.378
72543W        W37803   8.613  30.419  14.093
72544W        W37804  42.445  20.892   4.682
72545W        W37805  44.511  12.293  12.600
72546W        W37806   7.146  26.027   1.660
72547W        W37807  29.567  25.505  14.442
72548W        W37808  36.973  26.185  11.072
72549W        W37809   4.799  41.143  11.126
72550W        W37810  38.561  27.498  10.448
72551W        W37811  38.632  43.748   1.804
72552W        W37812  13.573  35.337  14.518
72553W        W37813  27.748  23.582  11.392
72554W        W37814  36.075   4.932  14.739
72555W        W37815  12.202  17.081  10.587
72556W        W37816  31.378   6.932  13.402
72557W        W37817  29.615  28.638  13.876
72558W        W37818   9.181   0.946  13.796
72559W        W37819  30.620  32.554   2.829
72560W        W37820   8.351  41.076   0.448
72561W        W37821  12.370  17.092   3.799
72562W        W37822  30.350  27.027   3.667
72563W        W37823  32.166   0.314  12.190
72564W        W37824  11.803   9.205   3.991
72565W        W37825  18.374  19.102  13.749
72566W        W37826  11.078  43.294   4.663
72567W        W37827  18.657  15.096   3.145
72568W        W37828  36.046  38.122   3.665
72569W        W37829   4.722  15.196   2.332
72570W        W37830   9.407  13.386  12.552
72571W        W37831  37.050  36.066  11.822
72572W        W37832  38.936   5.671   3.163
72573W        W37833  11.189  22.311  12.435
72574W        W37834   0.796  22.288   3.733
72575W        W37835  22.773  43.460   1.792
72576W        W37836   7.912   4.263  14.004
72577W        W37837  29.643  10.130  10.600
72578W        W37838  14.562  11.617   4.490
72579W        W37839  25.066  40.482   2.285
72580W        W37840  24.113  27.912   1.044
72581W        W37841  32.182   5.864  12.591
72582W        W37842  11.697  38.328  10.432
72583W        W37843  14.692   1.493   2.714
72584W        W37844  13.238  38.336  14.819
72585W        W37845  10.776  39.850   3.388
72586W        W37846  37.288  42.412  13.015
72587W        W37847  20.660  39.021   1.817
72588W        W37848  31.835   9.266   2.291
72589W        W37849  18.522  30.792   1.016
72590W        W37850  37.916  41.549  11.192
72591W        W37851   9.569  21.131   2.394
72592W        W37852  11.724  14.840   4.395
72593W        W37853  34.019  19.773   0.128
72594W        W37854  25.068  14.088   0.880
72595W        W37855  14.238  42.467  13.477
72596W        W37856  20.488  22.027  12.396
72597W        W37857   8.317   0.531   2.295
72598W        W37858   6.522  27.508   4.691
72599W        W37859  34.301  39.921   0.292
72600W        W37860  22.665   7.050  11.721
72601W        W37861  35.795  28.081   4.163
72602W        W37862  40.945  29.226   3.742
72603W        W37863  15.020  39.911  13.097
72604W        W37864   0.238   5.342  12.489
72605W        W37865  34.463  19.967   0.369
72606W        W37866   5.379  38.050  10.437
72607W        W37867  36.926   0.735   2.643
72608W        W37868  19.574  18.005   4.149
72609W        W37869  41.210  18.728   0.778
72610W        W37870  30.480   0.876   0.816
72611W        W37871   3.893  15.326   0.929
72612W        W37872   8.234  16.458  12.495
72613W        W37873  11.392  33.608  11.734
72614W        W37874  15.547   2.692  13.121
72615W        W37875  17.626  43.085  12.878
72616W        W37876  44.541  41.886  13.049
72617W        W37877  28.437   0.312   2.729
72618W        W37878   1.916  44.172   2.776
72619W        W37879  39.971   9.683   2.264
72620W        W37880  18.606   4.753   4.172
72621W        W37881  11.567  35.042  10.752
72622W        W37882  10.079  27.099  13.115
72623W        W37883  15.511  28.249  12.979
72624W        W37884  21.977  19.306   4.767
72625W        W37885  18.582  13.128   0.967
72626W        W37886  24.030   9.770   0.773
72627W        W37887   9.424  23.526  14.895
72628W        W37888  33.820  44.319  14.373
72629W        W37889   9.066  42.814  13.726
72630W        W37890   8.375  24.715  12.522
72631W        W37891  15.675  17.272   0.080
72632W        W37892  44.311  42.071   0.296
72633W        W37893  38.067  27.952  12.856
72634W        W37894  10.675  30.140   4.886
72635W        W37895  39.452  11.344   0.994
72636W        W37896  14.272   9.575  11.593
72637W        W37897   4.706   1.103  10.107
72638W        W37898  41.417  18.222   0.869
72639W        W37899  22.811  17.163  14.673
72640W        W37900  44.590  32.697  10.596
72641W        W37901  16.145   5.699  11.224
72642W        W37902  27.667  38.607  12.069
72643W        W37903  40.424   6.925   2.447
72644W        W37904  22.151  30.571  12.501
72645W        W37905   8.841  31.150   1.690
72646W        W37906   6.148  21.297   1.232
72647W        W37907  36.984  10.626   3.304
72648W        W37908  10.190  42.595  14.544
72649W        W37909  17.476   1.124   3.651
72650W        W37910  10.709  19.980  12.160
72651W        W37911  23.997   1.887  11.805
72652W        W37912   3.231  27.646  12.000
72653W        W37913  20.829  13.496  11.565
72654W        W37914  25.303  31.886  11.546
72655W        W37915   7.313  13.553  11.907
72656W        W37916  42.333  24.739  12.976
72657W        W37917  13.810  20.706  14.320
72658W        W37918  22.050  18.118   1.750
72659W        W37919   5.209  26.942   1.893
72660W        W37920  11.282  41.035   3.245
72661W        W37921  21.689   9.605   2.821
72662W        W37922  29.476  12.911  11.193
72663W        W37923  16.735   6.073   0.875
72664W        W37924   6.152  23.265  12.775
72665W        W37925   0.267   6.691  12.471
72666W        W37926  25.474  24.507   4.125
72667W        W37927  32.831  43.638   2.253
72668W        W37928  15.727   4.361  10.598
72669W        W37929   4.186  21.249  14.238
72670W        W37930  41.770   1.700   4.601
72671W        W37931  44.792  10.622   3.584
72672W        W37932  30.061   1.037   4.148
72673W        W37933  41.288  42.901  13.469
72674W        W37934   3.966  16.856  12.560
72675W        W37935  19.706   2.267  12.143
72676W        W37936  14.156  26.565  11.964
72677W        W37937   3.973  11.136  10.641
72678W        W37938   2.763  17.842   3.686
72679W        W37939  32.882  39.061  13.281
72680W        W37940  25.943  36.364   1.756
72681W        W37941   4.993  36.384  12.457
72682W        W37942  14.183  13.674   2.241
72683W        W37943  30.348   6.455  14.843
72684W        W37944  27.603   0.802  12.861
72685W        W37945  33.751  19.687  11.934
72686W        W37946   4.250  40.087   4.205
72687W        W37947   7.920  12.227  11.936
72688W        W37948  11.213  39.321   1.267
72689W        W37949  11.255   6.820   3.302
72690W        W37950  14.261  22.317   2.104
72691W        W37951  27.399  25.562   3.173
72692W        W37952  33.114   6.904   4.559
72693W        W37953  18.497  23.724  14.473
72694W        W37954   1.722  41.823   4.317
72695W        W37955  29.396  37.474   1.286
72696W        W37956  13.061  10.441   9.815
72697W        W37957  28.181  10.291   4.651
72698W        W37958   8.724  28.971   0.678
72699W        W37959   1.516   8.867   3.124
72700W        W37960  11.105   6.213   1.274
72701W        W37961  29.795  40.312  13.274
72702W        W37962  23.649   8.095  14.992
72703W        W37963  22.264  42.218   4.699
72704W        W37964   7.822  40.365   2.386
72705W        W37965  29.113  25.039  13.618
72706W        W37966  23.713  12.460  11.601
72707W        W37967  22.125  41.505  13.304
72708W        W37968   5.385  30.508   3.514
72709W        W37969  39.543  19.106   3.611
72710W        W37970   9.166  34.901   1.394
72711W        W37971   3.144  23.052   2.890
72712W        W37972   9.378  11.949   2.867
72713W        W37973  25.023  30.761  13.892
72714W        W37974  32.442  40.654   3.205
72715W        W37975   4.176  23.170  14.951
72716W        W37976   0.937  41.466   1.889
72717W        W37977  17.100  13.750  12.449
72718W        W37978  44.284  31.747  10.218
72719W        W37979  13.201  25.208   4.596
72720W        W37980  37.223   4.901   3.208
72721W        W37981  27.875  12.282  12.704
72722W        W37982  19.499  10.690  11.968
72723W        W37983   4.187  38.968  13.723
72724W        W37984  22.106  32.364   2.419
72725W        W37985  29.055  34.028  14.409
72726W        W37986  21.720  18.483   2.379
72727W        W37987  18.816  18.785   4.469
72728W        W37988  13.276  19.086   1.709
72729W        W37989  40.034  35.301   0.245
72730W        W37990  25.700  19.616  12.389
72731W        W37991  24.136  34.061   2.688
72732W        W37992   4.667  36.500   3.733
72733W        W37993  37.915  30.226  14.408
72734W        W37994  28.111  15.071   1.353
72735W        W37995  23.451  12.721  12.459
72736W        W37996   1.057  30.891  14.440
72737W        W37997  15.637  43.366  14.994
72738W        W37998  37.063  36.892   1.460
72739W        W37999  44.178  16.797  11.651
72740W        W38000  28.076  18.278  11.232
72741W        W38001  37.871  42.256   4.912
72742W        W38002  33.423  36.013   1.430
72743W        W38003  32.575   3.920   1.436
72744W        W38004  10.173  38.866  14.187
72745W        W38005  20.596  32.293   3.878
72746W        W38006  21.499  37.455  11.940
72747W        W38007  44.393   6.991   1.353
72748W        W38008  41.483  10.068   0.649
72749W        W38009   0.397  23.956   4.337
72750W        W38010  19.258   1.725  12.570
72751W        W38011  18.530  10.658  11.945
72752W        W38012   9.319  35.787   1.780
72753W        W38013  39.956  20.246   3.084
72754W        W38014   1.437  11.106   2.237
72755W        W38015  20.772   6.125   3.700
72756W        W38016  32.587  26.681   2.296
72757W        W38017  25.528   0.446  12.435
72758W        W38018  10.154  17.309   0.887
72759W        W38019  26.225   8.954  14.398
72760W        W38020  25.516  31.704  11.104
72761W        W38021  13.170  24.129   3.435
72762W        W38022  20.246   7.786   1.633
72763W        W38023   5.778  12.237   2.185
72764W        W38024   5.370  10.863  11.490
72765W        W38025  34.434   0.969  12.031
72766W        W38026  39.377  14.700  12.034
72767W        W38027   2.344   7.773   1.706
72768W        W38028  22.045  44.722   3.812
72769W        W38029  40.554   2.383   0.916
72770W        W38030  15.172  43.778   3.548
72771W        W38031   6.439  12.904   4.549
72772W        W38032  22.121  34.976   2.726
72773W        W38033  37.290   8.887   4.154
72774W        W38034  31.946  18.862   0.285
72775W        W38035  24.172  22.590   1.188
72776W        W38036  39.200   1.969   4.038
72777W        W38037  36.620  25.467   2.864
72778W        W38038  22.648   9.810  11.280
72779W        W38039  25.515  28.047  10.603
72780W        W38040  38.025  28.466  10.454
72781W        W38041   1.251   7.129   1.308
72782W        W38042  26.324  19.896   0.515
72783W        W38043  18.569   4.996  11.844
72784W        W38044  24.109  43.836   2.305
72785W        W38045  39.124  26.554  12.472
72786W        W38046   7.782  18.588   4.597
72787W        W38047  25.071  21.202   3.558
72788W        W38048  31.858  39.721  13.287
72789W        W38049  31.190  20.145  14.632
72790W        W38050   4.714   6.346  14.506
72791W        W38051  20.006   2.724   3.197
72792W        W38052  18.098  26.200   3.407
72793W        W38053  41.494  21.847  12.009
72794W        W38054  26.641  19.259  14.453
72795W        W38055  37.848  38.693   3.129
72796W        W38056  23.708  33.082   4.183
72797W        W38057  13.590  16.978  14.945
72798W        W38058  18.206  37.874   3.158
72799W        W38059  41.189  31.852  10.840
72800W        W38060  43.939  32.492  13.399
72801W        W38061  42.089  44.404  14.869
72802W        W38062  33.564  19.017  13.634
72803W        W38063  33.859  43.970   1.549
72804W        W38064  24.527  15.752  11.908
72805W        W38065  24.698   8.496  11.681
72806W        W38066  31.572  32.230   0.948
72807W        W38067  30.531  36.999   2.302
72808W        W38068  18.672   7.671  14.259
72809W        W38069  12.893  27.623  12.257
72810W        W38070   9.806  42.220  12.670
72811W        W38071  14.140  37.895  13.325
72812W        W38072  17.125  42.856   0.931
72813W        W38073  11.807  44.017  12.157
72814W        W38074  23.669  10.228  10.604
72815W        W38075  33.652  40.396  14.543
72816W        W38076  27.211   9.771  12.913
72817W        W38077  41.504  35.961  12.100
72818W        W38078  25.115  25.898   1.432
72819W        W38079  38.312  20.953  10.105
72820W        W38080  13.076  33.862   4.604
72821W        W38081  30.506  44.534   1.215
72822W        W38082   4.335   5.353  14.007
72823W        W38083  19.954  43.606   1.184
72824W        W38084  27.262  42.784   2.342
72825W        W38085  19.277  32.562   1.773
72826W        W38086  41.309  40.724  11.007
72827W        W38087  16.188  17.214   1.418
72828W        W38088  25.948  35.352   3.692
72829W        W38089  30.051  13.142   0.792
72830W        W38090  42.829   8.804  13.254
72831W        W38091  23.230  42.231   4.504
72832W        W38092   6.323  28.397  14.953
72833W        W38093  10.089   5.978  11.466
72834W        W38094  16.015  31.387  12.372
72835W        W38095  33.643  44.107  11.112
72836W        W38096  18.089  42.868  11.869
72837W        W38097  26.269  26.066   2.717
72838W        W38098   9.880  43.755  10.376
72839W        W38099  18.683  22.017   1.317
72840W        W38100   2.449  19.547  11.307
72841W        W38101   1.501  32.983  12.732
72842W        W38102   0.340  18.430   4.538
72843W        W38103   9.778  38.592  13.848
72844W        W38104  13.161  38.520  10.678
72845W        W38105  11.763  44.220  14.824
72846W        W38106   5.756  31.966   0.679
72847W        W38107  23.204  43.946  14.275
72848W        W38108   4.356   7.213  13.312
72849W        W38109   0.352  23.296  12.917
72850W        W38110  24.488  34.310   1.942
72851W        W38111  26.141  40.811  11.643
72852W        W38112  24.215   0.451   1.905
72853W        W38113  41.387  44.958   3.287
72854W        W38114  26.475  11.120  12.926
72855W        W38115  38.932  33.311   1.206
72856W        W38116  15.137  37.178   1.383
72857W        W38117  31.390  28.363   2.154
72858W        W38118  20.142  44.326  14.179
72859W        W38119  12.380   9.803   3.450
72860W        W38120   3.447  24.666  10.326
72861W        W38121   2.202   6.669  12.491
72862W        W38122  25.444  19.141  11.035
72863W        W38123   9.368   7.291   0.015
72864W        W38124  34.088  28.230   3.367
72865W        W38125  29.254  24.138  12.122
72866W        W38126  36.761  15.094  13.877
72867W        W38127   9.222  38.019  14.650
72868W        W38128  10.640   2.296   1.709
72869W        W38129  12.320  32.056   2.622
72870W        W38130  33.287  12.714   1.894
72871W        W38131  22.788   3.152   5.555
72872W        W38132  12.832  19.306  11.940
72873W        W38133  23.792  43.763   1.475
72874W        W38134  36.376  24.233   4.459
72875W        W38135  28.635  11.024   0.976
72876W        W38136  11.659   5.680  12.144
72877W        W38137   3.724  28.956  13.384
72878W        W38138  40.067  33.200  14.385
72879W        W38139  23.071  19.172  11.513
72880W        W38140   7.110   2.477  13.119
72881W        W38141  44.056  25.554   5.937
72882W        W38142  13.699  42.622   4.538
72883W        W38143   8.126  25.192  12.396
72884W        W38144  33.057  31.335  12.515
72885W        W38145  20.536  22.554   2.274
72886W        W38146  25.131   5.939  11.908
72887W        W38147   2.276  27.297   1.056
72888W        W38148   2.267  38.300   0.506
72889W        W38149  22.609  30.344   1.238
72890W        W38150   2.417  20.044   4.612
72891W        W38151  19.682  14.171  13.541
72892W        W38152  18.090  22.800  10.273
72893W        W38153   4.654   6.963   3.428
72894W        W38154  27.635  10.841  14.903
72895W        W38155  31.510  20.723  14.489
72896W        W38156  44.807  34.809  14.854
72897W        W38157  10.288  25.505   2.808
72898W        W38158  34.369  12.237  12.842
72899W        W38159  34.101  19.262  11.989
72900W        W38160  23.568  42.930   4.143
72901W        W38161  28.840  11.794   1.374
72902W        W38162   7.446  11.365   3.675
72903W        W38163  21.424  44.048   4.552
72904W        W38164   2.763  21.246   1.255
72905W        W38165  19.738  35.871  14.787
72906W        W38166   6.019  32.938  14.787
72907W        W38167  23.058  33.558  12.126
72908W        W38168   2.669  36.031   2.932
72909W        W38169  10.877  20.608   3.891
72910W        W38170  15.132  22.229  13.922
72911W        W38171  13.091  29.462  13.313
72912W        W38172  15.239  37.838   2.927
72913W        W38173  13.562  17.563  11.674
72914W        W38174   5.338  25.678   1.288
72915W        W38175  25.325  25.270   3.233
72916W        W38176  27.469  37.766  14.267
72917W        W38177  27.984  44.878  12.938
72918W        W38178  32.159  10.788  12.342
72919W        W38179  14.118  39.284  12.018
72920W        W38180   2.662  21.138  12.104
72921W        W38181  40.223   3.972  14.370
72922W        W38182   5.432  23.952  12.874
72923W        W38183  38.128  18.190   2.699
72924W        W38184  29.036  29.489   4.177
72925W        W38185  34.428   6.008   2.693
72926W        W38186  14.820   9.427   0.852
72927W        W38187  22.103  25.106  10.741
72928W        W38188  20.729  17.529  10.688
72929W        W38189   7.621  11.846  13.055
72930W        W38190  20.076  21.402  13.135
72931W        W38191   0.467   0.244   2.348
72932W        W38192  20.031  33.802   3.458
72933W        W38193  26.998  29.824  10.798
72934W        W38194  13.633  14.753   0.443
72935W        W38195  20.161  25.495   4.022
72936W        W38196  17.990  24.598   1.268
72937W        W38197  26.677  34.631  10.749
72938W        W38198  22.411  19.055  13.951
72939W        W38199  22.923   1.469  11.560
72940W        W38200  21.649  41.526   3.780
72941W        W38201  43.691  21.016   3.755
72942W        W38202  10.789  17.661   2.355
72943W        W38203   7.055  25.513   2.380
72944W        W38204   5.720  33.616   2.871
72945W        W38205   3.829  32.063  10.667
72946W        W38206  21.692  15.208  12.095
72947W        W38207   2.232  42.854  12.528
72948W        W38208  21.290  30.564  12.983
72949W        W38209  35.332  34.390  13.077
72950W        W38210  23.031  12.400   2.136
72951W        W38211  25.731   6.806   2.205
72952W        W38212  34.345  22.561   0.466
72953W        W38213  43.528  15.541   3.669
72954W        W38214  17.972  23.480   3.254
72955W        W38215  12.756  30.457   2.227
72956W        W38216  37.071  35.926   0.523
72957W        W38217   3.777   8.703   4.423
72958W        W38218   8.812  27.933   3.284
72959W        W38219  23.455  35.572  11.184
72960W        W38220   6.878  19.770   4.419
72961W        W38221   1.516   0.661   0.909
72962W        W38222  34.629  18.321   1.451
72963W        W38223   1.359  34.807   0.470
72964W        W38224  32.009  12.609  12.141
72965W        W38225   3.980  12.793   3.208
72966W        W38226  12.418   1.335   1.038
72967W        W38227   3.822   5.844  10.671
72968W        W38228  40.918  13.798   0.007
72969W        W38229  12.206  34.397  10.947
72970W        W38230   7.395  27.617  13.430
72971W        W38231  21.593  24.930  13.401
72972W        W38232  25.090  19.329   4.489
72973W        W38233   8.789   3.392   1.746
72974W        W38234  28.930  27.082   4.100
72975W        W38235  21.161  13.609  13.410
72976W        W38236  17.143  25.033  14.599
72977W        W38237  42.312   0.257  14.843
72978W        W38238  10.857  12.458   0.829
72979W        W38239  25.779  39.953  13.056
72980W        W38240  43.485   6.872  11.535
72981W        W38241  41.104  15.568   2.226
72982W        W38242  20.993  20.649  14.976
72983W        W38243  27.946   4.838   5.077
72984W        W38244   0.453  12.025   2.276
72985W        W38245   8.849  23.456   4.228
72986W        W38246   2.671  14.663   3.483
72987W        W38247  29.212   5.305   1.521
72988W        W38248  34.472   7.395  13.740
72989W        W38249  15.608  34.157   1.680
72990W        W38250  41.514  43.080  12.466
72991W        W38251  37.070  35.263   3.749
72992W        W38252  31.657  19.522   1.640
72993W        W38253  14.566  31.024  13.432
72994W        W38254  40.205  35.576   0.739
72995W        W38255  18.113  13.099  12.960
72996W        W38256  39.984   8.904  14.459
72997W        W38257  40.430   2.241  14.943
72998W        W38258   0.802  43.844  12.108
72999W        W38259  29.988   4.548  11.183
73000W        W38260   3.022  26.497  13.841
73001W        W38261  19.253  35.524  11.017
73002W        W38262   7.229  17.854   0.018
73003W        W38263   9.895  29.012   4.353
73004W        W38264  25.566  15.888  10.529
73005W        W38265  26.093  22.776  12.882
73006W        W38266  28.942  14.786   4.267
73007W        W38267  21.696  28.571   0.269
73008W        W38268  23.501   1.297   3.650
73009W        W38269  10.324  17.775  12.206
73010W        W38270  33.046  39.520  13.498
73011W        W38271  41.031  35.896  13.160
73012W        W38272   4.847  29.392   1.481
73013W        W38273  14.667  36.708   3.079
73014W        W38274   1.361  32.637  13.564
73015W        W38275  31.065  14.807   4.167
73016W        W38276  43.350  38.598  13.853
73017W        W38277  30.629   2.304   4.359
73018W        W38278  13.749  13.620  12.928
73019W        W38279  27.457   7.425  12.356
73020W        W38280  43.915  40.914  11.085
73021W        W38281  38.872   3.423  14.705
73022W        W38282  28.951  16.282   0.038
73023W        W38283   7.804   2.895  13.818
73024W        W38284  35.060  40.248   0.548
73025W        W38285  37.116   7.709   0.386
73026W        W38286  35.152   3.726  11.946
73027W        W38287  24.697  17.156   4.995
73028W        W38288  26.954   5.255  11.877
73029W        W38289  18.610   1.931   0.377
73030W        W38290  22.096  37.806   1.336
73031W        W38291  36.273   1.352  12.044
73032W        W38292  28.096  30.499  10.019
73033W        W38293  42.486  16.702   1.860
73034W        W38294   2.710   9.623   1.838
73035W        W38295  24.663  42.939   2.657
73036W        W38296  43.961  40.507  10.770
73037W        W38297   3.242  21.231   0.241
73038W        W38298  19.520  34.159  11.067
73039W        W38299  38.395  22.727  14.848
73040W        W38300  12.825  41.485   2.846
73041W        W38301  23.219  20.991  12.204
73042W        W38302  12.617  25.203   4.102
73043W        W38303  41.301   3.409   0.651
73044W        W38304  14.865  24.472   2.743
73045W        W38305  26.449  28.274   1.620
73046W        W38306  12.953  37.245  10.212
73047W        W38307  12.287  18.980  13.382
73048W        W38308   4.865   5.800   1.431
73049W        W38309  34.006   4.702   1.978
73050W        W38310  18.746  35.537  11.230
73051W        W38311   2.015  16.536   0.754
73052W        W38312  10.091  19.222   1.408
73053W        W38313  20.330  21.706   4.095
73054W        W38314  27.522  12.631  12.961
73055W        W38315  44.502  21.239  12.020
73056W        W38316  39.277  10.874   2.158
73057W        W38317   4.667  34.530  12.933
73058W        W38318   0.275  38.865   4.052
73059W        W38319  20.613  39.914   2.235
73060W        W38320  28.696  24.415  14.853
73061W        W38321  27.414   7.557   0.010
73062W        W38322  32.513  42.889   1.631
73063W        W38323  11.587  20.676   1.724
73064W        W38324  33.398   2.466  13.097
73065W        W38325  14.212   1.318  13.502
73066W        W38326  27.792   0.161   2.308
73067W        W38327  25.621  15.047   0.287
73068W        W38328  34.249  29.864   0.153
73069W        W38329  43.511   7.602  14.240
73070W        W38330  26.015  24.384   1.793
73071W        W38331  34.524  10.616   4.057
73072W        W38332  15.199  23.593  13.337
73073W        W38333   1.281   0.605  13.971
73074W        W38334  27.433  21.122  12.105
73075W        W38335  24.494  40.913  14.101
73076W        W38336  35.025  33.160  13.119
73077W        W38337   3.862  33.452   0.416
73078W        W38338  19.710  35.609   3.577
73079W        W38339   6.357  34.184  11.142
73080W        W38340  42.481   2.926   1.298
73081W        W38341  12.758   0.900  12.360
73082W        W38342  27.744   6.144   2.422
73083W        W38343  14.214   4.215   1.013
73084W        W38344  34.406  20.050   4.523
73085W        W38345  14.269  37.420  12.287
73086W        W38346  32.026  37.005  14.052
73087W        W38347   6.370  16.823   3.145
73088W        W38348  14.649  33.372  14.025
73089W        W38349  13.304  21.150  13.631
73090W        W38350  13.589  24.082  12.335
73091W        W38351  41.366  21.005  14.295
73092W        W38352  12.273  36.546   0.353
73093W        W38353  34.154  35.641  12.956
73094W        W38354   9.446  39.834   3.708
73095W        W38355   8.305  12.111   0.279
73096W        W38356   7.308  35.201   3.674
73097W        W38357   6.258  42.302  11.161
73098W        W38358  23.323  24.112  11.307
73099W        W38359  26.741   7.353   1.375
73100W        W38360  11.484  31.550   0.792
73101W        W38361  21.785  30.216  13.266
73102W        W38362  41.574   6.690  11.668
73103W        W38363  33.008  18.432  11.215
73104W        W38364  13.829  10.910  11.031
73105W        W38365  31.285  42.031  14.314
73106W        W38366  31.007   9.768  10.692
73107W        W38367  26.549  40.381   4.468
73108W        W38368  33.834  44.861  13.087
73109W        W38369  13.355  33.780  13.975
73110W        W38370   8.815   5.225  10.248
73111W        W38371  37.696  20.479   0.766
73112W        W38372  13.742  32.428   2.706
73113W        W38373  25.988  32.491  14.881
73114W        W38374  19.251  33.080   4.582
73115W        W38375  26.499  14.013  10.538
73116W        W38376  30.409  21.803  10.731
73117W        W38377  30.563  25.053  11.647
73118W        W38378  15.993  20.285  11.742
73119W        W38379  29.488  20.674  13.310
73120W        W38380   5.838  30.943  11.447
73121W        W38381   6.802  36.581  14.367
73122W        W38382   3.035  33.160   3.835
73123W        W38383  11.282  16.616  11.457
73124W        W38384  35.855  34.043   0.436
73125W        W38385  26.560  11.007   0.372
73126W        W38386  18.728   9.359  11.612
73127W        W38387  32.503   7.899  11.802
73128W        W38388  43.794   6.078   0.107
73129W        W38389  33.306   1.855  10.553
73130W        W38390  39.709  13.247  14.855
73131W        W38391  37.624  43.122  14.285
73132W        W38392  43.058  24.510  12.421
73133W        W38393  43.929  41.102   3.674
73134W        W38394   1.229  21.482   3.924
73135W        W38395  19.571   5.490   3.625
73136W        W38396  15.314  41.767  11.287
73137W        W38397  23.308   8.466   4.276
73138W        W38398   0.251  32.423  12.886
73139W        W38399  28.212  27.658   3.142
73140W        W38400  27.630  19.021   1.983
73141W        W38401  39.287  33.630  13.496
73142W        W38402  37.091  26.208  11.876
73143W        W38403  26.054   5.289   1.451
73144W        W38404   4.719  25.235   2.803
73145W        W38405  33.580  40.440   0.546
73146W        W38406  34.447  34.883   3.418
73147W        W38407  18.675  15.123  14.676
73148W        W38408   2.193  39.765  11.124
73149W        W38409  15.404  17.027   1.925
73150W        W38410  28.026  32.650  11.276
73151W        W38411  34.660  44.375   4.134
73152W        W38412  24.381   0.083   0.517
73153W        W38413  34.966  15.179  10.746
73154W        W38414  40.995  14.273  14.445
73155W        W38415  39.323   6.225   1.458
73156W        W38416   3.792   0.519   2.114
73157W        W38417  28.932  26.391  13.518
73158W        W38418  44.873   8.745   2.614
73159W        W38419  30.484  29.474   4.989
73160W        W38420   8.188  18.819   1.335
73161W        W38421  39.652  44.435   2.325
73162W        W38422  24.572   4.454   2.249
73163W        W38423   0.412   5.282  12.963
73164W        W38424  40.890  37.036  13.449
73165W        W38425  16.623  12.786  10.732
73166W        W38426  22.811   9.864  14.990
73167W        W38427  33.660   0.752  12.871
73168W        W38428  11.767  13.145  13.947
73169W        W38429  15.567  11.709   3.576
73170W        W38430   8.245  19.578  12.806
73171W        W38431  43.342  29.180  10.670
73172W        W38432  43.184  14.546   1.209
73173W        W38433  14.700  40.462  14.529
73174W        W38434  40.310  35.318   3.576
73175W        W38435  11.657  32.080   0.810
73176W        W38436  28.976  37.622  14.467
73177W        W38437  25.233  20.408  13.494
73178W        W38438  18.232  14.826  10.673
73179W        W38439   7.746   3.885  14.897
73180W        W38440  11.331   3.823   3.035
73181W        W38441  19.099  34.370  11.986
73182W        W38442  24.491  29.223  14.417
73183W        W38443   8.173  41.109  11.270
73184W        W38444  30.969  32.949  11.870
73185W        W38445  30.485   9.523  10.671
73186W        W38446   3.145  28.619  10.549
73187W        W38447  23.168   1.974   1.248
73188W        W38448  16.496  13.581   0.244
73189W        W38449   5.443  19.215   0.943
73190W        W38450  23.807  11.250  13.427
73191W        W38451  12.161  15.847  11.068
73192W        W38452   1.155  11.457  14.377
73193W        W38453  21.443  20.536  13.936
73194W        W38454  19.535  22.055   1.023
73195W        W38455  11.785  34.517  10.592
73196W        W38456  19.815  18.138  11.359
73197W        W38457  43.295   9.935  11.530
73198W        W38458  32.582  27.602  14.410
73199W        W38459  14.706  18.189  11.905
73200W        W38460  38.807  20.561   1.586
73201W        W38461  39.681  29.466   3.923
73202W        W38462  18.606  13.594  10.737
73203W        W38463  26.094  16.245   3.081
73204W        W38464  19.782  26.574   0.789
73205W        W38465  13.798  32.556   2.191
73206W        W38466   0.298  43.417   2.795
73207W        W38467  13.174  41.033  10.969
73208W        W38468   2.448  18.665   2.403
73209W        W38469  34.915   7.297   1.451
73210W        W38470  28.943  41.692  10.518
73211W        W38471  30.423  26.623  12.527
73212W        W38472  37.152   2.953  11.946
73213W        W38473   7.331  13.337  13.467
73214W        W38474  16.108  17.898   3.099
73215W        W38475  39.350  23.781  12.734
73216W        W38476  40.487  43.540  14.292
73217W        W38477  44.429   4.955   0.809
73218W        W38478  16.014   5.283  13.750
73219W        W38479   3.362  35.956  13.976
73220W        W38480  30.217  23.394  13.068
73221W        W38481  15.433  39.039   1.566
73222W        W38482  44.689  23.075  13.522
73223W        W38483  10.829  38.246   1.643
73224W        W38484  20.558   6.209  14.759
73225W        W38485  39.902  39.788  12.978
73226W        W38486   1.623  43.457  14.360
73227W        W38487   4.630   7.346   2.661
73228W        W38488  12.711  12.935   4.105
73229W        W38489  32.135  11.093  11.590
73230W        W38490  25.008   4.451   0.303
73231W        W38491  43.831   3.400  14.786
73232W        W38492  41.839   5.323   4.350
73233W        W38493  25.551   1.729  10.588
73234W        W38494  17.023  28.536  11.953
73235W        W38495  10.682  22.215   4.330
73236W        W38496  33.200  38.906  14.723
73237W        W38497  19.737  12.217   1.396
73238W        W38498  38.725  21.987  12.134
73239W        W38499  10.133  31.640   4.013
73240W        W38500   9.687  14.097  13.619
73241W        W38501  25.955   8.456   2.202
73242W        W38502  14.688  38.982   1.952
73243W        W38503  22.658  27.213   0.933
73244W        W38504  18.080  20.297   2.533
73245W        W38505   7.515  44.442  13.527
73246W        W38506  27.945  23.236   4.653
73247W        W38507  11.407  28.353   4.563
73248W        W38508  36.988  34.140  14.033
73249W        W38509  31.698   4.844  12.422
73250W        W38510  19.601  42.413  11.907
73251W        W38511  18.702  21.224  13.034
73252W        W38512  17.061  32.798  12.893
73253W        W38513  29.650  31.508   0.410
73254W        W38514  21.173  18.584  12.426
73255W        W38515  11.381   1.339  10.747
73256W        W38516  20.524  40.980   1.727
73257W        W38517  33.123  13.401  14.815
73258W        W38518  26.096   5.906  11.393
73259W        W38519  32.864  17.282   2.393
73260W        W38520  29.616  22.655  10.552
73261W        W38521   2.362  33.194  12.510
73262W        W38522  11.603  21.597  13.477
73263W        W38523   1.451  10.461   0.271
73264W        W38524  41.819  35.027   3.592
73265W        W38525  15.294   5.249  11.662
73266W        W38526   6.175   4.892  11.677
73267W        W38527  27.192  27.117  13.439
73268W        W38528   9.687  13.389   3.591
73269W        W38529   8.750   7.811   9.936
73270W        W38530   5.037   2.309  11.605
73271W        W38531  21.425   1.039   0.472
73272W        W38532  32.688  35.612   4.531
73273W        W38533  13.186  42.035  12.736
73274W        W38534   6.867  30.875  12.218
73275W        W38535  20.742  21.926   0.115
73276W        W38536   2.747  10.635  12.933
73277W        W38537  30.158  34.415  14.038
73278W        W38538  25.705  42.703   1.118
73279W        W38539  23.938  43.285   1.163
73280W        W38540   6.769  30.864   4.632
73281W        W38541  36.876  24.997  12.080
73282W        W38542  27.983  35.411   2.768
73283W        W38543   7.743  37.247   4.304
73284W        W38544  28.920  29.115   0.406
73285W        W38545  20.963   8.187   1.820
73286W        W38546  41.718  33.189   1.772
73287W        W38547   4.880  33.911  13.549
73288W        W38548   3.354  23.571  14.689
73289W        W38549  42.502  27.138   0.349
73290W        W38550  11.359  38.416   0.402
73291W        W38551  27.212  16.012   1.847
73292W        W38552  19.518  38.798   1.287
73293W        W38553  13.865  28.955  14.935
73294W        W38554  16.141   3.907   4.141
73295W        W38555  10.639  21.978   4.793
73296W        W38556  43.916  16.250  11.190
73297W        W38557  10.885  21.412  14.976
73298W        W38558   6.404  41.615   1.848
73299W        W38559   9.467  41.700   0.200
73300W        W38560   3.459  28.180  11.180
73301W        W38561  44.872   6.410   2.695
73302W        W38562  42.909   6.294  12.087
73303W        W38563  24.660  27.556  11.430
73304W        W38564   1.827  44.976   0.318
73305W        W38565   5.339  36.044   4.578
73306W        W38566  13.842  26.021  10.588
73307W        W38567  30.552   5.370   2.977
73308W        W38568  35.683   8.405  12.404
73309W        W38569  15.205  39.450   3.242
73310W        W38570   2.486  24.633  13.012
73311W        W38571  34.346  32.463  12.996
73312W        W38572  29.021  17.258  13.429
73313W        W38573  11.710  38.578   5.139
73314W        W38574  23.470  14.384  12.683
73315W        W38575  35.888  14.615  11.449
73316W        W38576   5.144  36.353  13.744
73317W        W38577  32.245  28.490   4.992
73318W        W38578  26.534   7.042   0.324
73319W        W38579  37.791  31.387  14.990
73320W        W38580   9.389  44.968  14.805
73321W        W38581   0.234  32.120   5.322
73322W        W38582  34.536  26.516   3.705
73323W        W38583   9.131  39.899   2.395
73324W        W38584  20.262  27.081   4.158
73325W        W38585  36.398  30.281  14.543
73326W        W38586   1.933  33.554   0.248
73327W        W38587  24.755  13.638   0.761
73328W        W38588  37.003  41.100  13.897
73329W        W38589   3.718  34.558  11.034
73330W        W38590  14.206   9.116   3.673
73331W        W38591  34.376  14.296   4.879
73332W        W38592  21.122  30.928   3.922
73333W        W38593  10.134  22.666  11.021
73334W        W38594  41.949  33.052  10.738
73335W        W38595  10.390  29.459   4.685
73336W        W38596   4.672  41.795  11.396
73337W        W38597  35.963  43.651   4.599
73338W        W38598  24.990  22.184   3.357
73339W        W38599  39.563  17.154   2.845
73340W        W38600  38.514  44.014  12.522
73341W        W38601   7.462   2.286  13.474
73342W        W38602  25.726  36.818   4.755
73343W        W38603  34.653   5.642  12.507
73344W        W38604   7.827  17.109   0.683
73345W        W38605   9.868  19.110   2.897
73346W        W38606   3.789  27.223  13.569
73347W        W38607  34.640   9.331   2.907
73348W        W38608   3.307  10.634  13.799
73349W        W38609   7.819  28.243   2.662
73350W        W38610  23.659   9.689   2.400
73351W        W38611  18.396  31.894   2.716
73352W        W38612  31.036  22.205  11.677
73353W        W38613  21.179  24.649   1.443
73354W        W38614  28.253  35.507  14.510
73355W        W38615   9.424  42.054   1.557
73356W        W38616  39.970  33.761   2.554
73357W        W38617  24.545  30.093   1.743
73358W        W38618  32.587  10.800   3.618
73359W        W38619   7.558  43.313   1.109
73360W        W38620   9.083   1.010  11.993
73361W        W38621   1.199  15.605  14.459
73362W        W38622  30.993  26.987  13.983
73363W        W38623   3.489  41.141  10.341
73364W        W38624  23.299  11.155   4.919
73365W        W38625  18.222  24.979  11.516
73366W        W38626  22.644  18.579  14.025
73367W        W38627  24.595  26.512  13.949
73368W        W38628   2.748  34.632   4.779
73369W        W38629  40.610  39.034  11.695
73370W        W38630  34.553  21.672   0.943
73371W        W38631  44.752  43.093  13.814
73372W        W38632   9.085  33.609  14.221
73373W        W38633   4.312  42.611   3.156
73374W        W38634  42.207  12.659  11.619
73375W        W38635  41.832  36.064  11.686
73376W        W38636  29.649  11.681  10.698
73377W        W38637  14.348  27.074  13.472
73378W        W38638  30.898  29.753   2.722
73379W        W38639  17.292   6.657   3.689
73380W        W38640  25.626   9.484  12.137
73381W        W38641  29.142   1.625   0.881
73382W        W38642  14.641  42.808  13.771
73383W        W38643  16.528  15.610  13.895
73384W        W38644  17.660  41.876   4.471
73385W        W38645  18.103  40.036  14.880
73386W        W38646  17.906  17.692  14.858
73387W        W38647  42.972  28.359  13.460
73388W        W38648  10.727  28.572   3.169
73389W        W38649  30.886  12.754   4.548
73390W        W38650  12.988  16.693   3.303
73391W        W38651  27.169   1.465  12.896
73392W        W38652   3.367  11.603   3.282
73393W        W38653   6.906   2.034   1.645
73394W        W38654  39.672  41.775   1.790
73395W        W38655   8.298  11.638  13.523
73396W        W38656  23.643  16.396   1.763
73397W        W38657  29.579  32.817  12.378
73398W        W38658  12.554  42.056   1.756
73399W        W38659  14.403  28.724  11.339
73400W        W38660   9.158  30.713   3.708
73401W        W38661  16.676  23.025   0.489
73402W        W38662   1.291   4.771  11.921
73403W        W38663   9.109  20.487   1.975
73404W        W38664  38.182  30.149  12.823
73405W        W38665  14.487   8.774  12.955
73406W        W38666  15.304  29.926   3.775
73407W        W38667  24.259  39.482   1.456
73408W        W38668   6.359   9.246  10.737
73409W        W38669  16.039  41.850   2.748
73410W        W38670  37.590  18.212   3.417
73411W        W38671  16.105  18.157  14.058
73412W        W38672  44.251  35.485   3.742
73413W        W38673  39.066  39.300  13.751
73414W        W38674  18.622  39.610   0.475
73415W        W38675   9.709  37.065   0.976
73416W        W38676  20.224  26.208  12.495
73417W        W38677   2.435  24.461   0.008
73418W        W38678  30.933  20.496  13.332
73419W        W38679  31.697  12.194   3.853
73420W        W38680  26.942  23.040   4.492
73421W        W38681   6.473  37.532  12.784
73422W        W38682   5.887  42.074  14.792
73423W        W38683  41.539  31.304   2.909
73424W        W38684  38.939  17.165   0.968
73425W        W38685  44.703   3.704  12.589
73426W        W38686   7.934  41.796   0.304
73427W        W38687  15.825  13.668  11.950
73428W        W38688  23.265  41.942  10.914
73429W        W38689  14.330  28.272   2.637
73430W        W38690  21.473  36.066   0.424
73431W        W38691  44.967   3.210   2.304
73432W        W38692   7.473   2.667  12.797
73433W        W38693   2.625  21.460   3.883
73434W        W38694   2.914  35.460   3.640
73435W        W38695  28.945  20.837  12.048
73436W        W38696   6.450  28.917  12.808
73437W        W38697  12.338  38.915   1.229
73438W        W38698  44.700   8.371   5.434
73439W        W38699  32.055  35.371   0.926
73440W        W38700  20.107   8.789   0.084
73441W        W38701  12.884  40.922  14.941
73442W        W38702  21.198  31.982   5.132
73443W        W38703  40.541   0.428   3.739
73444W        W38704  26.948  17.503   1.341
73445W        W38705  40.283  15.528  11.665
73446W        W38706   2.405  33.357   9.954
73447W        W38707  24.997   0.404  13.503
73448W        W38708   3.371  28.025  13.977
73449W        W38709  11.658   9.335  11.094
73450W        W38710  33.845   0.699  12.054
73451W        W38711  44.242  17.514  12.839
73452W        W38712  40.808  36.077   3.616
73453W        W38713  28.002  33.979  10.801
73454W        W38714  32.939  37.624  13.828
73455W        W38715  25.914  13.099   2.774
73456W        W38716  10.249  40.767   2.652
73457W        W38717   0.065  12.264  10.030
73458W        W38718  43.475  40.497   0.287
73459W        W38719  18.821  15.582   3.296
73460W        W38720  12.217   8.740  14.119
73461W        W38721   3.511  10.617  11.429
73462W        W38722  18.854  31.682   3.693
73463W        W38723  43.875  37.965   2.715
73464W        W38724  21.604  24.926  12.462
73465W        W38725  19.030  10.402  13.483
73466W        W38726   8.017  22.076  10.690
73467W        W38727   7.133  37.030   2.294
73468W        W38728   9.790  18.523   1.211
73469W        W38729  28.047  11.007  11.588
73470W        W38730  30.147  30.630  13.495
73471W        W38731   4.465  37.321  12.977
73472W        W38732  26.960  42.055  13.990
73473W        W38733  11.596  27.069  12.029
73474W        W38734  42.738  35.308   1.314
73475W        W38735  28.749   7.322   1.197
73476W        W38736  43.753  20.734  14.324
73477W        W38737  37.323  27.797   3.249
73478W        W38738   3.405  17.615   0.684
73479W        W38739  39.143  22.563   0.299
73480W        W38740  44.382  27.081  12.510
73481W        W38741  41.765  35.672  11.363
73482W        W38742  14.843  29.101   2.500
73483W        W38743  13.495  31.062  11.222
73484W        W38744  34.668  13.040   4.159
73485W        W38745  33.621   1.521  12.540
73486W        W38746  39.292  34.101  10.605
73487W        W38747  26.495  24.771  12.926
73488W        W38748  37.481  43.177   9.876
73489W        W38749  18.585   9.760  14.896
73490W        W38750  43.590  26.128   4.380
73491W        W38751   4.234  27.968  14.473
73492W        W38752  33.578  29.958   1.856
73493W        W38753   5.020  23.981  12.023
73494W        W38754  24.480  41.107   2.826
73495W        W38755  36.502  14.148   1.532
73496W        W38756  38.326   9.725  10.934
73497W        W38757  25.892   8.761   5.188
73498W        W38758  40.454  34.645  14.374
73499W        W38759  25.238   1.244   1.404
73500W        W38760  43.785  30.822   4.037
73501W        W38761   5.960  38.764  11.984
73502W        W38762  22.086  44.213   3.884
73503W        W38763  15.739  12.276   1.001
73504W        W38764   7.617  22.779   0.803
73505W        W38765  15.516  35.022  12.421
73506W        W38766  26.082  16.965  14.786
73507W        W38767  38.738  12.135   2.412
73508W        W38768  21.024  26.163  13.575
73509W        W38769  16.096   5.813  10.742
73510W        W38770  34.196  43.033   0.222
73511W        W38771  15.838  23.534   4.160
73512W        W38772  42.030  42.500   3.385
73513W        W38773  25.994  24.664   2.638
73514W        W38774  12.886   4.517   0.178
73515W        W38775  24.472  33.442  14.925
73516W        W38776  10.335  13.435  11.632
73517W        W38777   3.752  36.451  10.652
73518W        W38778  33.733  28.456  12.577
73519W        W38779  37.696  22.599  11.275
73520W        W38780  31.385  24.739  12.927
73521W        W38781  17.499  19.502   0.443
73522W        W38782   8.728  42.823   4.978
73523W        W38783   7.490  25.568   1.034
73524W        W38784  39.273  38.315  12.899
73525W        W38785  33.473  18.636   2.137
73526W        W38786  32.593  16.393   0.122
73527W        W38787  13.221  41.685  13.114
73528W        W38788  34.794  13.765  14.728
73529W        W38789  33.146  43.796  10.709
73530W        W38790   5.818  17.578   3.611
73531W        W38791  10.688  12.032  10.603
73532W        W38792  44.397  28.469  14.499
73533W        W38793  22.064  26.199  11.542
73534W        W38794  19.640  38.355  14.456
73535W        W38795   0.783  31.239  14.864
73536W        W38796  44.575  15.044   4.299
73537W        W38797  31.758  39.760   0.329
73538W        W38798  43.480  27.618   1.146
73539W        W38799  43.845  25.464   3.343
73540W        W38800  24.972  14.901  13.044
73541W        W38801   8.390   5.547  12.777
73542W        W38802  25.073   9.798   3.701
73543W        W38803  18.609  32.437  10.609
73544W        W38804  19.716  32.024  13.726
73545W        W38805  23.923  40.808   1.763
73546W        W38806  12.757   2.238   0.931
73547W        W38807   2.553  29.866   3.875
73548W        W38808  36.049  23.958   2.217
73549W        W38809  18.531  18.288  11.116
73550W        W38810  27.044   2.667  11.458
73551W        W38811  39.599  35.040  14.363
73552W        W38812  44.335   4.246   0.033
73553W        W38813  13.279  13.850  13.601
73554W        W38814  23.793   7.386   0.486
73555W        W38815  19.421  33.625  14.249
73556W        W38816   6.443  12.519   4.209
73557W        W38817  25.694  12.571  13.029
73558W        W38818  14.170   7.929   0.416
73559W        W38819  35.524   0.457  10.752
73560W        W38820  28.073  28.505  11.853
73561W        W38821   7.420  38.870  14.862
73562W        W38822  24.163  22.807   0.229
73563W        W38823  20.102  12.760  14.427
73564W        W38824  36.906   9.847   3.707
73565W        W38825  15.619  42.755   2.256
73566W        W38826  16.868   3.313  12.113
73567W        W38827   8.489  11.513  12.469
73568W        W38828   1.976  27.274   3.580
73569W        W38829  16.554  16.098  12.705
73570W        W38830  17.594  25.190  14.454
73571W        W38831  22.924  32.930   3.705
73572W        W38832   7.588   6.355  14.934
73573W        W38833   8.561   1.650  11.351
73574W        W38834   8.869  15.209  13.906
73575W        W38835  13.789  16.572  10.775
73576W        W38836  30.167  19.403  11.808
73577W        W38837  34.227  27.014   3.813
73578W        W38838  17.654  12.205   2.544
73579W        W38839  28.817  34.489  14.463
73580W        W38840  36.043  33.849   1.412
73581W        W38841   2.895  12.058   0.433
73582W        W38842  11.264   4.170  12.982
73583W        W38843  24.185  32.153  13.544
73584W        W38844  41.493  28.484   3.678
73585W        W38845  12.324  29.173   3.148
73586W        W38846  11.742  44.749   0.305
73587W        W38847  44.484  21.154   2.359
73588W        W38848  26.641  38.598  14.835
73589W        W38849  12.614  14.607  12.018
73590W        W38850  20.881  36.623   0.311
73591W        W38851  25.539  42.026  11.629
73592W        W38852  31.101   2.250  10.437
73593W        W38853  12.581  43.832   0.003
73594W        W38854   0.407  17.628  13.118
73595W        W38855  14.832  10.150  13.290
73596W        W38856   1.754   9.381   0.954
73597W        W38857  39.272  11.224   4.249
73598W        W38858   1.399  36.082   2.176
73599W        W38859  11.205  39.018   4.100
73600W        W38860  28.937  20.545   0.369
73601W        W38861  24.982  16.293   1.384
73602W        W38862  44.897  16.265  10.916
73603W        W38863  10.400  39.337   4.284
73604W        W38864  22.491   2.279   1.814
73605W        W38865   6.189   8.310   4.499
73606W        W38866  42.029   1.285  11.444
73607W        W38867  36.420  32.603   3.155
73608W        W38868  35.602  19.806  14.031
73609W        W38869  34.587  41.524   0.736
73610W        W38870  30.791  16.367   1.893
73611W        W38871   5.741  35.993   2.419
73612W        W38872  16.723  29.038  14.008
73613W        W38873  34.926  29.188  14.943
73614W        W38874  17.025  25.006   2.377
73615W        W38875  26.481  15.221  14.888
73616W        W38876   9.454  30.395   2.222
73617W        W38877  39.983  44.510   2.714
73618W        W38878  35.817  22.137   0.770
73619W        W38879   0.797  36.332   0.380
73620W        W38880  31.114  11.059  12.933
73621W        W38881  39.425  41.899  13.605
73622W        W38882  29.416  38.314   1.936
73623W        W38883  15.226  29.933  14.426
73624W        W38884   3.054  15.511   0.631
73625W        W38885  40.898  13.818  10.761
73626W        W38886   5.747  35.149  12.397
73627W        W38887  32.015   2.373   3.106
73628W        W38888   1.158  13.725   1.414
73629W        W38889  16.109   7.726   4.225
73630W        W38890  25.620  30.611   4.552
73631W        W38891  23.604  14.980  13.160
73632W        W38892  17.140  14.194  13.264
73633W        W38893  26.744  28.678  12.357
73634W        W38894  22.816   2.682   1.744
73635W        W38895  33.443  35.454   1.772
73636W        W38896   0.721   5.954  11.369
73637W        W38897   1.336  44.232  13.613
73638W        W38898   3.826  32.087  11.629
73639W        W38899   3.191   8.363  13.472
73640W        W38900  22.699  31.494   2.654
73641W        W38901  23.266  42.521   0.672
73642W        W38902  21.058  11.768  11.194
73643W        W38903  44.299   7.898  10.285
73644W        W38904   1.797  26.385  14.709
73645W        W38905  43.677  34.328  12.750
73646W        W38906  23.429   2.981   3.251
73647W        W38907   7.227  21.706  11.597
73648W        W38908  37.470  15.120   3.429
73649W        W38909  24.532  10.258  14.782
73650W        W38910  39.092  39.271  12.888
73651W        W38911  19.727   6.721   0.935
73652W        W38912  37.115   8.348  12.729
73653W        W38913  29.970  14.389  14.294
73654W        W38914  27.414   6.253   2.813
73655W        W38915  36.616  10.655  13.572
73656W        W38916  19.707  37.583   0.347
73657W        W38917   6.556  19.333   3.707
73658W        W38918  12.222  41.486  13.370
73659W        W38919  39.984  17.574  13.007
73660W        W38920  40.301  34.114  14.364
73661W        W38921  18.493  35.700  14.660
73662W        W38922  23.181  30.376   2.772
73663W        W38923  23.105   4.516  13.399
73664W        W38924  15.735  42.748   3.144
73665W        W38925   7.639  15.773  12.879
73666W        W38926   2.904  13.645   4.187
73667W        W38927  19.092   2.798   2.740
73668W        W38928  38.440  38.092  11.726
73669W        W38929  42.280  44.890   4.235
73670W        W38930  36.057  17.754   0.349
73671W        W38931  32.062   1.784   0.913
73672W        W38932  32.559  35.475  12.292
73673W        W38933  44.405  11.570  13.625
73674W        W38934  40.244  24.041   2.639
73675W        W38935  27.466  42.066  13.942
73676W        W38936  28.155  38.320  13.863
73677W        W38937  30.869  26.662   2.806
73678W        W38938  29.533   7.321  13.547
73679W        W38939  16.748  16.617   1.327
73680W        W38940  17.783   2.812   1.339
73681W        W38941  39.398  25.889   3.312
73682W        W38942  27.412  34.533  13.443
73683W        W38943  34.700   5.264  11.466
73684W        W38944  33.794  44.801   2.132
73685W        W38945   5.185   6.298  12.056
73686W        W38946  30.163  39.194  14.019
73687W        W38947  44.481  10.451  14.305
73688W        W38948  22.177  38.571  11.545
73689W        W38949  28.134  18.308  14.027
73690W        W38950   6.770  37.544   2.632
73691W        W38951   6.214  27.718   4.163
73692W        W38952  16.663   9.179  13.235
73693W        W38953   2.710  16.286   0.864
73694W        W38954   2.213  32.564   2.428
73695W        W38955  29.018   5.221   3.754
73696W        W38956  25.860  25.464  11.735
73697W        W38957  24.142   9.843   3.680
73698W        W38958  25.662  18.066   0.413
73699W        W38959  31.017  39.817   3.604
73700W        W38960  38.434  12.630   1.365
73701W        W38961  14.607   3.567   2.739
73702W        W38962  19.178   4.951  11.239
73703W        W38963  17.099  10.422   4.595
73704W        W38964  36.515  34.117   3.125
73705W        W38965  27.211  27.062  13.991
73706W        W38966   4.731  19.512  12.565
73707W        W38967  20.702  35.815   3.047
73708W        W38968  35.995  23.454   4.543
73709W        W38969  16.346  28.681  14.022
73710W        W38970  24.124  44.316   1.374
73711W        W38971   9.761  39.052   1.461
73712W        W38972  17.126  38.340   4.990
73713W        W38973  22.205  30.151  14.362
73714W        W38974   4.265  37.586   0.866
73715W        W38975  30.027  30.131   1.151
73716W        W38976  29.740  36.536   3.649
73717W        W38977  44.808  32.952   1.495
73718W        W38978  30.464  17.999   3.848
73719W        W38979   5.443  24.494  11.092
73720W        W38980  44.425   0.827   4.983
73721W        W38981  16.682  12.205   2.720
73722W        W38982  30.047  24.950  13.498
73723W        W38983  13.567  42.720  14.474
73724W        W38984  32.693  16.692   4.080
73725W        W38985  38.901  43.378   0.376
73726W        W38986  32.470   7.365  12.971
73727W        W38987  37.202  12.193   0.453
73728W        W38988  25.023  12.883  11.097
73729W        W38989  16.894  25.151   0.932
73730W        W38990  23.155   6.244  11.643
73731W        W38991  41.219  25.049   4.149
73732W        W38992  34.060   3.827   3.264
73733W        W38993  39.672  42.159   2.608
73734W        W38994   7.871  12.558   3.012
73735W        W38995   8.194  43.748   1.911
73736W        W38996  43.923  35.071   3.747
73737W        W38997  38.538  20.701  13.131
73738W        W38998   9.294   2.199  11.576
73739W        W38999  27.809  33.536  10.559
73740W        W39000  30.360  41.279   4.588
73741W        W39001  14.279  32.546  14.504
73742W        W39002  14.850  16.383  12.417
73743W        W39003  42.412   3.510   2.123
73744W        W39004  21.724  18.030  12.596
73745W        W39005  23.871  35.635   1.674
73746W        W39006  35.057  17.127  12.329
73747W        W39007  29.277  32.134   9.787
73748W        W39008   6.403  23.726   3.682
73749W        W39009   5.218   1.669  12.891
73750W        W39010  40.773  14.568   3.199
73751W        W39011  11.004  33.389  11.992
73752W        W39012  42.839  16.749  14.403
73753W        W39013  21.699  29.939  11.975
73754W        W39014   9.762  25.878  12.421
73755W        W39015  41.966   8.274   4.675
73756W        W39016   4.527  31.640   0.832
73757W        W39017  37.826  21.618   2.580
73758W        W39018  39.882  28.190  11.115
73759W        W39019   1.887  32.287   2.131
73760W        W39020   9.738  10.895  14.936
73761W        W39021  29.108  23.132  11.057
73762W        W39022  17.723  38.480   4.757
73763W        W39023  29.982  41.982   0.835
73764W        W39024  25.589  24.390   1.239
73765W        W39025  21.842  18.089   9.839
73766W        W39026  36.024  21.287   3.353
73767W        W39027   0.301  20.142   4.510
73768W        W39028  19.104  31.515  11.552
73769W        W39029   3.885  28.147   4.246
73770W        W39030   0.284  26.134  13.840
73771W        W39031  29.609  36.498   0.267
73772W        W39032  24.761  40.029  13.040
73773W        W39033  16.161  30.567  14.825
73774W        W39034  11.166  21.616  11.929
73775W        W39035   3.364  15.599  14.948
73776W        W39036  33.001  44.965  12.089
73777W        W39037  13.231  11.662   0.391
73778W        W39038   7.858  14.794  13.019
73779W        W39039   5.629  29.477  10.007
73780W        W39040  42.169   5.475   3.115
73781W        W39041  24.035  17.315  12.388
73782W        W39042   4.180  44.433  10.417
73783W        W39043  32.544  10.120  13.404
73784W        W39044  13.140   5.152  10.967
73785W        W39045  25.269   2.953  13.285
73786W        W39046  44.716  44.399  11.661
73787W        W39047   1.440   8.010   3.070
73788W        W39048  42.267   6.483  14.883
73789W        W39049  36.062   2.130  10.140
73790W        W39050  27.921  12.616   4.098
73791W        W39051  37.370  16.848   4.542
73792W        W39052  21.493   4.919  12.151
73793W        W39053  41.662   3.895   3.636
73794W        W39054  44.458  25.130  12.630
73795W        W39055  23.571   2.769  10.737
73796W        W39056  41.159  37.473  11.344
73797W        W39057  35.591  13.575   4.514
73798W        W39058   0.226  23.720  14.807
73799W        W39059  36.064  31.151   0.942
73800W        W39060  24.721   2.058  14.365
73801W        W39061  12.842  13.406   1.031
73802W        W39062  28.197  15.176   3.187
73803W        W39063  25.676  16.241  10.870
73804W        W39064  19.156  23.311  12.608
73805W        W39065  30.977   1.817  10.136
73806W        W39066  19.782  31.687   2.850
73807W        W39067  28.509  15.396   3.594
73808W        W39068  20.057  32.680   0.030
73809W        W39069  31.547  16.870   2.254
73810W        W39070  30.448  33.098  11.987
73811W        W39071  23.724  32.555   2.936
73812W        W39072  12.551  23.146   1.178
73813W        W39073  20.995  40.646  11.971
73814W        W39074  10.151  37.447  11.123
73815W        W39075   7.600  27.750   0.304
73816W        W39076   0.250  44.835  13.067
73817W        W39077  23.764  28.178  12.554
73818W        W39078  10.103   4.256   1.323
73819W        W39079  19.053  21.681   2.828
73820W        W39080  44.786  27.181  10.713
73821W        W39081  13.704  35.671   0.428
73822W        W39082  17.648  18.603   1.907
73823W        W39083   8.966  17.255  11.425
73824W        W39084   0.739  23.047   4.927
73825W        W39085   4.367  39.277   3.754
73826W        W39086  21.295  37.097  13.924
73827W        W39087   3.078  34.554   3.779
73828W        W39088  12.712  25.237  13.722
73829W        W39089  33.897  22.109  14.778
73830W        W39090  10.026  22.449   1.759
73831W        W39091  35.006  41.617  13.980
73832W        W39092  36.142  43.299  14.591
73833W        W39093  11.321  25.204   1.953
73834W        W39094   2.725  37.643  12.062
73835W        W39095  15.366   9.752   4.695
73836W        W39096  29.769   9.861  11.888
73837W        W39097  16.671  28.820   0.361
73838W        W39098  26.516  24.711  10.790
73839W        W39099  28.123  32.760   3.699
73840W        W39100  24.427   8.666   4.984
73841W        W39101   8.046  16.237  11.530
73842W        W39102  17.200   3.732   1.351
73843W        W39103  40.449   3.797  11.976
73844W        W39104   9.449  40.070   1.721
73845W        W39105   2.058  27.484  12.455
73846W        W39106  30.273   0.525   4.720
73847W        W39107  22.299  34.114  10.764
73848W        W39108  38.828  39.875  11.997
73849W        W39109  13.092  25.051   3.362
73850W        W39110  36.940  41.204  12.870
73851W        W39111  30.722   9.159   2.064
73852W        W39112  12.885  30.253  10.141
73853W        W39113  14.218  13.604  14.016
73854W        W39114  31.909  36.511   3.698
73855W        W39115  14.845  35.869  11.098
73856W        W39116  33.184  26.564  12.555
73857W        W39117  42.968  20.246  14.705
73858W        W39118  32.400  41.988   2.749
73859W        W39119  39.549  20.237  13.440
73860W        W39120  29.923   3.920   3.784
73861W        W39121  41.274  44.914   3.998
73862W        W39122  40.442  36.074  14.898
73863W        W39123  40.700  26.521   2.406
73864W        W39124  23.769  42.007  12.332
73865W        W39125  24.123  43.984  13.764
73866W        W39126  28.819   2.459  12.228
73867W        W39127   8.866  34.040  13.242
73868W        W39128  27.750  36.975  12.911
73869W        W39129   3.919  30.540   3.727
73870W        W39130  34.869   7.065  13.555
73871W        W39131   2.630  42.863   3.793
73872W        W39132  29.153  10.745   1.691
73873W        W39133  13.035  26.580   4.592
73874W        W39134  33.322  27.740  12.124
73875W        W39135  44.678  23.236   3.750
73876W        W39136  21.099  20.383  13.523
73877W        W39137  31.607  23.967  13.264
73878W        W39138  27.616   5.718   0.867
73879W        W39139  11.278  34.613   0.381
73880W        W39140  20.114   8.694   4.862
73881W        W39141  24.774  34.349  12.350
73882W        W39142  11.615  15.482   1.664
73883W        W39143  39.932  18.628  13.873
73884W        W39144  13.640  27.507   1.680
73885W        W39145  37.927   3.051  14.936
73886W        W39146   5.779  43.896  12.148
73887W        W39147  15.597  40.290  14.406
73888W        W39148  23.674  18.265  12.195
73889W        W39149  14.211  31.185  13.825
73890W        W39150  38.655  28.170   0.022
73891W        W39151  37.894  23.543  13.246
73892W        W39152  11.707  10.317   2.671
73893W        W39153  24.632  16.199  12.594
73894W        W39154  34.491  31.385  14.799
73895W        W39155  16.319   8.081  11.859
73896W        W39156  23.753  11.793   0.599
73897W        W39157  19.513  27.210  12.896
73898W        W39158  26.694  41.238  12.003
73899W        W39159   8.716  12.684  14.530
73900W        W39160  14.840  36.382  11.002
73901W        W39161  36.402  17.080   1.810
73902W        W39162  10.428  14.424  13.474
73903W        W39163  19.256  29.978   3.761
73904W        W39164  11.775  16.745  10.574
73905W        W39165  10.576   4.729   4.635
73906W        W39166   8.860  27.437   3.365
73907W        W39167  11.650  26.520   5.560
73908W        W39168  34.858  16.234  14.289
73909W        W39169  12.632  19.219   0.901
73910W        W39170  34.027  34.381  10.430
73911W        W39171   4.497   5.714  12.033
73912W        W39172   9.629  15.562  13.910
73913W        W39173  34.848  27.658  12.928
73914W        W39174   9.721  40.157  12.919
73915W        W39175  17.186  31.070  13.069
73916W        W39176  30.626  16.081   3.691
73917W        W39177   2.016   4.258   2.417
73918W        W39178   1.152  14.277  14.256
73919W        W39179   8.367  22.726  12.845
73920W        W39180  35.081  24.733  12.985
73921W        W39181  36.868   6.710  14.204
73922W        W39182  22.553  17.614   0.932
73923W        W39183  43.419   4.109   0.702
73924W        W39184  43.821  34.201  11.510
73925W        W39185   4.255  18.675   3.317
73926W        W39186  30.062  16.485   0.248
73927W        W39187   4.048  37.833  10.725
73928W        W39188  24.780  39.435   1.511
73929W        W39189  34.989  25.890   3.344
73930W        W39190  15.693  14.064   3.402
73931W        W39191  12.703   4.898  14.471
73932W        W39192   0.387   6.381   4.659
73933W        W39193  29.028   8.084   1.855
73934W        W39194   6.703  17.336   1.810
73935W        W39195  22.975  17.138   4.643
73936W        W39196  33.334  24.385   4.559
73937W        W39197  14.712   5.761  13.363
73938W        W39198  41.475  23.257   1.852
73939W        W39199  18.736  35.459  14.208
73940W        W39200   7.267   1.787  10.758
73941W        W39201  28.167  31.060  10.704
73942W        W39202  20.759  17.086   3.799
73943W        W39203  13.726  35.910   4.348
73944W        W39204  29.665  16.319   0.764
73945W        W39205  14.094  18.854  14.901
73946W        W39206  18.650  33.541  13.768
73947W        W39207  22.682  29.440   4.775
73948W        W39208  20.370  41.243  10.858
73949W        W39209  43.009  14.564  14.894
73950W        W39210  33.251  41.436  11.059
73951W        W39211   3.469  35.197  13.005
73952W        W39212  23.721  38.497  13.949
73953W        W39213   8.601  28.333   1.750
73954W        W39214   3.788  41.394  11.502
73955W        W39215   2.543   8.830   9.905
73956W        W39216  25.786  20.733  11.691
73957W        W39217  23.085  39.020  12.975
73958W        W39218  31.437   9.956   4.221
73959W        W39219  43.480  13.366  13.331
73960W        W39220   3.628  21.103  10.384
73961W        W39221  18.609  32.005  12.800
73962W        W39222  24.151  26.614  12.137
73963W        W39223   4.894   5.665   4.007
73964W        W39224  18.699  38.309  13.934
73965W        W39225   5.326   8.847   3.230
73966W        W39226  26.278  40.300   3.194
73967W        W39227  36.937  12.165   3.177
73968W        W39228  15.212  23.792  12.830
73969W        W39229  43.133  33.944   4.274
73970W        W39230  43.723  43.328   0.440
73971W        W39231  36.044  14.564  12.349
73972W        W39232  39.386  29.341  14.036
73973W        W39233  24.717  15.735  12.828
73974W        W39234  20.813  38.290  14.944
73975W        W39235  17.765  26.657  13.546
73976W        W39236  17.158  29.210  11.610
73977W        W39237  26.461  31.321  12.745
73978W        W39238  11.820   2.669   4.942
73979W        W39239  16.264  10.923  12.946
73980W        W39240  44.169  15.297  10.376
73981W        W39241   5.657  37.966  13.111
73982W        W39242   7.073  40.521   1.895
73983W        W39243  34.000  32.157   1.693
73984W        W39244   6.267  39.015   4.797
73985W        W39245  34.305   2.347  14.670
73986W        W39246  37.383  33.891  12.525
73987W        W39247   4.475   2.315  13.937
73988W        W39248  29.076  10.118  10.102
73989W        W39249  11.414  23.973   4.085
73990W        W39250   9.856  14.193   4.107
73991W        W39251  14.707   4.672  12.925
73992W        W39252  10.905   2.776  10.988
73993W        W39253   3.944  19.711  10.566
73994W        W39254  27.745  37.261   2.823
73995W        W39255  11.974  33.190  13.542
73996W        W39256   9.022  23.853   3.281
73997W        W39257  14.051  25.066  11.276
73998W        W39258  25.473   1.221   3.625
73999W        W39259  34.296  32.928   2.790
74000W        W39260   1.493  25.992  11.778
74001W        W39261  43.430  34.017  10.926
74002W        W39262  35.093  32.537   4.608
74003W        W39263   1.219  42.799  14.310
74004W        W39264  14.089  25.110  11.878
74005W        W39265   0.055  22.231  13.524
74006W        W39266  23.496  23.641  10.788
74007W        W39267  33.283   5.146  11.431
74008W        W39268  41.360  41.462   3.456
74009W        W39269   3.596  18.761  13.912
74010W        W39270  20.986  20.945  12.336
74011W        W39271  22.768  33.059   4.687
74012W        W39272  37.457  27.617   5.055
74013W        W39273  37.922  38.731  10.674
74014W        W39274  40.932  43.731   3.357
74015W        W39275   6.534  24.230  13.489
74016W        W39276  38.830  42.304  11.482
74017W        W39277   0.479  24.488   3.626
74018W        W39278  23.095  41.857   4.822
74019W        W39279  16.128  32.876  11.549
74020W        W39280  13.744  17.336  12.112
74021W        W39281  32.093   6.382   0.827
74022W        W39282   5.645  20.426   4.668
74023W        W39283  26.478   5.190  12.036
74024W        W39284  25.670  43.124   0.773
74025W        W39285  40.057  33.516   4.807
74026W        W39286  19.601  12.242   0.344
74027W        W39287  20.367   4.320  10.210
74028W        W39288  22.921  25.608  14.960
74029W        W39289   5.203  43.402   1.096
74030W        W39290   6.803  34.412  11.142
74031W        W39291  39.736  15.839   1.966
74032W        W39292  42.085  34.770   1.858
74033W        W39293  22.768  33.083   3.204
74034W        W39294  14.329   5.616   2.369
74035W        W39295   0.684   8.905  13.827
74036W        W39296  39.890  34.063  13.622
74037W        W39297  44.472  41.473   5.188
74038W        W39298   5.614  17.093   0.011
74039W        W39299  23.048  14.277  12.908
74040W        W39300  15.838  15.769   2.681
74041W        W39301   8.402  25.017   1.267
74042W        W39302  30.953  28.970  12.150
74043W        W39303  18.349  30.848  13.483
74044W        W39304   0.012  44.383  12.067
74045W        W39305   4.333   6.762  11.316
74046W        W39306  12.151   6.226  13.413
74047W        W39307  16.002  27.266  11.629
74048W        W39308  39.043  13.563   3.292
74049W        W39309   7.648   0.376  11.177
74050W        W39310  29.187  10.848  12.149
74051W        W39311  11.399   1.319  14.991
74052W        W39312  10.854  10.283  11.605
74053W        W39313  40.771  19.593   4.874
74054W        W39314  41.101  20.563   2.232
74055W        W39315  27.540  15.152  14.829
74056W        W39316  42.464  21.893  14.419
74057W        W39317  44.765  41.716   1.583
74058W        W39318  22.424  10.236   1.849
74059W        W39319  28.882  21.552  10.507
74060W        W39320  38.477  28.526  11.255
74061W        W39321  17.663  35.507  14.620
74062W        W39322  35.815  35.761   1.000
74063W        W39323  29.600  42.608  12.970
74064W        W39324   1.784  14.340   3.111
74065W        W39325  23.632   6.601   1.363
74066W        W39326  34.380  31.021  13.955
74067W        W39327  20.319  16.699  12.085
74068W        W39328  19.689  36.412   0.784
74069W        W39329  16.736   3.014   2.733
74070W        W39330  29.014   9.175  11.168
74071W        W39331  34.381   0.685  10.813
74072W        W39332  13.699  21.061   1.208
74073W        W39333  22.999  43.745  11.466
74074W        W39334  24.218   7.311   3.046
74075W        W39335  10.516  11.298  12.491
74076W        W39336  17.589  39.069   3.317
74077W        W39337  30.112  16.044   3.700
74078W        W39338  26.015  15.660   0.908
74079W        W39339  30.261  35.434  10.992
74080W        W39340  24.188  32.962  11.988
74081W        W39341  19.250  35.028  11.962
74082W        W39342  25.944  31.517  13.359
74083W        W39343  41.451  38.941   1.214
74084W        W39344  13.072  42.335  14.944
74085W        W39345  37.408  35.906  14.615
74086W        W39346  20.236  11.107  12.936
74087W        W39347  37.508  33.387   2.691
74088W        W39348   0.919  39.963   1.123
74089W        W39349  20.838  18.757   5.114
74090W        W39350  42.000   7.676  11.406
74091W        W39351  12.858  40.860   3.825
74092W        W39352  42.787  28.912   3.220
74093W        W39353   1.239   6.141  12.075
74094W        W39354  14.186  19.382  14.881
74095W        W39355  32.185  36.031   0.351
74096W        W39356  27.223   3.788  12.109
74097W        W39357  12.845  33.419   1.797
74098W        W39358  29.272  41.377   3.663
74099W        W39359  33.069  34.056  11.827
74100W        W39360  36.033  21.790  13.405
74101W        W39361  40.264  15.017   0.769
74102W        W39362   4.139  39.044   0.944
74103W        W39363  20.067  11.151   4.655
74104W        W39364  33.654  16.595  11.554
74105W        W39365  43.096  43.726  11.637
74106W        W39366  28.050  11.996   2.020
74107W        W39367  16.233   7.887  12.653
74108W        W39368  10.815  32.635   3.700
74109W        W39369  42.435   6.226   4.182
74110W        W39370   8.637  39.758  10.821
74111W        W39371  37.837  23.739   4.429
74112W        W39372  20.559  30.958   4.603
74113W        W39373  23.555  23.332   2.794
74114W        W39374  17.844   9.225  13.499
74115W        W39375  27.962   1.332   4.816
74116W        W39376   5.160  14.660  11.635
74117W        W39377  33.630  14.650   3.507
74118W        W39378  13.331  16.610   1.371
74119W        W39379  13.579  43.518  11.273
74120W        W39380  29.855  37.718  14.785
74121W        W39381  21.270  36.410  13.821
74122W        W39382   0.361  33.058  14.002
74123W        W39383  12.220  23.492   0.428
74124W        W39384   8.876  34.414   3.320
74125W        W39385   4.916  25.473   0.275
74126W        W39386   4.908  34.172   3.718
74127W        W39387  36.932  24.726   1.498
74128W        W39388  25.882  21.685   0.956
74129W        W39389  36.627  21.132  10.470
74130W        W39390  30.748  33.865  10.157
74131W        W39391  44.911  20.783  13.483
74132W        W39392  38.349  38.570   2.943
74133W        W39393  37.532  26.605   0.192
74134W        W39394  38.337  24.246  14.940
74135W        W39395  41.054   8.756  10.715
74136W        W39396  25.803   0.437   0.332
74137W        W39397  35.269  27.514   0.691
74138W        W39398  25.506  29.569   4.538
74139W        W39399  10.800  27.423   1.464
74140W        W39400   4.259  15.849  13.358
74141W        W39401  19.583  35.871  12.996
74142W        W39402  44.832  41.224   2.530
74143W        W39403  14.719   9.192   0.383
74144W        W39404  33.155  34.777   4.877
74145W        W39405  33.417  36.877  14.091
74146W        W39406   1.791  35.886  13.321
74147W        W39407  21.257  39.865  12.803
74148W        W39408  40.038  14.130   4.041
74149W        W39409  13.703  16.551   2.694
74150W        W39410   6.639  40.548   2.829
74151W        W39411  31.596  22.688  14.057
74152W        W39412  34.050   8.305  11.638
74153W        W39413  14.643  20.010   4.462
74154W        W39414  39.115  35.834  13.174
74155W        W39415  31.103  39.736  13.506
74156W        W39416  29.977  39.378   2.506
74157W        W39417  16.391  25.164   0.896
74158W        W39418  31.757  16.440   1.191
74159W        W39419  43.149  13.216   1.246
74160W        W39420  15.321  40.126  12.678
74161W        W39421  43.962  14.347   0.925
74162W        W39422   2.200   7.913  12.278
74163W        W39423  36.394   1.916  14.401
74164W        W39424  41.038  31.663   0.673
74165W        W39425  21.154  18.083   4.987
74166W        W39426   4.413   6.404   4.101
74167W        W39427   2.422  38.402   1.486
74168W        W39428   7.913  12.686   2.195
74169W        W39429  31.605   3.237   0.297
74170W        W39430  12.657   5.214   2.332
74171W        W39431  31.469   7.186  11.560
74172W        W39432   3.691  16.157   0.925
74173W        W39433  29.347  18.690   4.046
74174W        W39434  36.555  15.618  14.941
74175W        W39435  16.800  38.782  11.642
74176W        W39436  41.215   4.889   1.755
74177W        W39437   5.837  37.309   4.591
74178W        W39438   1.420  18.612   2.137
74179W        W39439  23.686  12.388   4.474
74180W        W39440  15.539  14.180  10.256
74181W        W39441  36.562  32.426  12.288
74182W        W39442   7.238  21.020   2.686
74183W        W39443  22.195  20.286   2.790
74184W        W39444  31.948  38.969  12.100
74185W        W39445  28.833  20.323   1.843
74186W        W39446  10.652   1.849   4.481
74187W        W39447  26.606  42.245  11.942
74188W        W39448  21.323  36.729   5.390
74189W        W39449  34.009  25.082  13.474
74190W        W39450   9.268  39.597   1.829
74191W        W39451  13.543  28.014  13.431
74192W        W39452   2.765   8.621   1.511
74193W        W39453  40.085  22.645   0.272
74194W        W39454  39.604  39.085   1.206
74195W        W39455   5.811  16.306   1.245
74196W        W39456  32.542   0.929   1.235
74197W        W39457  44.621  19.283   1.403
74198W        W39458  12.514  44.394   3.682
74199W        W39459  30.578  19.073   0.966
74200W        W39460  29.965  38.914   4.652
74201W        W39461  14.260   2.794  12.531
74202W        W39462   4.451  43.455   4.550
74203W        W39463  28.494  38.794   1.947
74204W        W39464  35.099  31.725  12.387
74205W        W39465  36.558  42.940  11.261
74206W        W39466   0.877  41.569  12.832
74207W        W39467  27.680   5.880  12.319
74208W        W39468   6.805   4.331   4.274
74209W        W39469  14.187   2.458   3.298
74210W        W39470   2.282  21.431   3.132
74211W        W39471  13.756  31.533  13.575
74212W        W39472   5.797  26.987   9.686
74213W        W39473  35.091   6.398   1.148
74214W        W39474  27.564  44.737   2.147
74215W        W39475  20.965  12.097  11.581
74216W        W39476   3.678  32.105  13.539
74217W        W39477  11.469  34.446  11.439
74218W        W39478  23.229  19.718   3.175
74219W        W39479  31.444  38.020   0.746
74220W        W39480   2.288  39.271  13.545
74221W        W39481  16.646  16.756  10.461
74222W        W39482  23.267  16.132   0.578
74223W        W39483  32.178   7.421  12.540
74224W        W39484  18.284   2.752  11.601
74225W        W39485   4.220   4.429  13.992
74226W        W39486   7.173  42.942  12.590
74227W        W39487  38.016  14.059  10.474
74228W        W39488   9.332  11.862  10.688
74229W        W39489  15.277  10.916   2.768
74230W        W39490   5.346  20.203  14.888
74231W        W39491  21.227  19.794  12.075
74232W        W39492  12.737   4.874   0.998
74233W        W39493  39.986   9.245  10.943
74234W        W39494   9.293  25.663   5.027
74235W        W39495   0.774   5.771   0.244
74236W        W39496  44.560  42.559   5.072
74237W        W39497  13.642  35.910   0.870
74238W        W39498  34.446  12.825  13.930
74239W        W39499  34.160   2.240   2.268
74240W        W39500   2.370   1.956  13.002
74241W        W39501  22.317   5.264   2.822
74242W        W39502  11.597  15.529  10.216
74243W        W39503  17.692  24.251   3.201
74244W        W39504  17.570  43.581   4.798
74245W        W39505  23.322  29.947  12.576
74246W        W39506   7.655  15.733   5.027
74247W        W39507  44.363  12.548   0.360
74248W        W39508   2.738   2.003  14.478
74249W        W39509  27.528   2.234   1.622
74250W        W39510  39.022  14.058   3.198
74251W        W39511   4.921  10.771  13.850
74252W        W39512  39.337  14.824   4.647
74253W        W39513  12.113  14.707  12.050
74254W        W39514   8.624  31.788  12.529
74255W        W39515  36.276  34.911   3.183
74256W        W39516   4.361  14.722   0.349
74257W        W39517  40.618   7.426  10.879
74258W        W39518   7.337  39.571   0.351
74259W        W39519  37.351  26.918   3.808
74260W        W39520  32.374   9.161  10.741
74261W        W39521  18.732  43.679   4.419
74262W        W39522  21.523  36.899   0.995
74263W        W39523  42.702  12.389   3.552
74264W        W39524   7.706  40.612  11.688
74265W        W39525  30.670  16.520  12.882
74266W        W39526  38.715  15.660  11.567
74267W        W39527  37.503  21.552  14.360
74268W        W39528   8.124  21.076   0.009
74269W        W39529  37.736  38.285   3.419
74270W        W39530  16.352   3.951  11.161
74271W        W39531  21.248  37.374  14.857
74272W        W39532  26.929  24.408  10.621
74273W        W39533  18.329  27.130  13.817
74274W        W39534  19.182  36.272  11.546
74275W        W39535  25.211  36.009   3.541
74276W        W39536   6.848  27.456  12.825
74277W        W39537  21.055  22.748   3.806
74278W        W39538  40.124  41.567   0.716
74279W        W39539  29.119   5.733   4.630
74280W        W39540  32.037  31.579  12.348
74281W        W39541  32.026  10.267   4.030
74282W        W39542  22.052   2.658  11.832
74283W        W39543  34.919  36.633  14.945
74284W        W39544  22.506  29.234  14.485
74285W        W39545  39.645  40.411   2.598
74286W        W39546   7.195  41.701   0.032
74287W        W39547   3.492   3.304   3.687
74288W        W39548  43.926  27.631  11.693
74289W        W39549  17.523   3.421  14.503
74290W        W39550  34.021  30.335  14.284
74291W        W39551  42.922  11.592   2.423
74292W        W39552  21.861  14.592   1.877
74293W        W39553  24.505   5.906  12.983
74294W        W39554  25.972   1.809  11.114
74295W        W39555  44.130  12.823  11.694
74296W        W39556   7.222  20.514  12.341
74297W        W39557  37.599  33.460  11.706
74298W        W39558  43.535  14.044   3.339
74299W        W39559   6.352  28.704   4.066
74300W        W39560  33.989  40.319   4.160
74301W        W39561  43.539  15.850  11.072
74302W        W39562  42.438  21.754  11.590
74303W        W39563  16.168   3.961   1.825
74304W        W39564   8.340  44.180  12.271
74305W        W39565  42.930  17.213  11.834
74306W        W39566  30.140  24.867   0.492
74307W        W39567  32.117  10.914  10.456
74308W        W39568  21.134  41.095   0.471
74309W        W39569  18.255  41.847   3.167
74310W        W39570  31.415  38.031  14.894
74311W        W39571  13.141  17.158   5.015
74312W        W39572  30.559   2.850  14.904
74313W        W39573   0.185  38.205   1.311
74314W        W39574  32.179  26.665  11.520
74315W        W39575  38.539  21.905  11.039
74316W        W39576  21.190   1.303  14.958
74317W        W39577   6.237  42.806  11.156
74318W        W39578   0.379   1.558  14.422
74319W        W39579  20.684   7.934   4.638
74320W        W39580  41.540  27.410   2.293
74321W        W39581  11.274  24.953   3.702
74322W        W39582  17.885  15.319  12.623
74323W        W39583  34.172   9.105  13.523
74324W        W39584   5.794  25.672  12.337
74325W        W39585  29.884   0.009   3.369
74326W        W39586  17.675  38.802   3.745
74327W        W39587  19.108  35.260  11.496
74328W        W39588   1.717  40.566   0.840
74329W        W39589  30.471  15.268  14.521
74330W        W39590  22.360  13.352   3.244
74331W        W39591   4.727  17.233  11.965
74332W        W39592  34.896  23.102   1.397
74333W        W39593   7.651  40.375   5.198
74334W        W39594   8.651  29.592  14.042
74335W        W39595  25.507  23.632   0.399
74336W        W39596  44.831   3.730  12.081
74337W        W39597  23.435  36.631   1.908
74338W        W39598   0.734  19.985  14.980
74339W        W39599  21.547  13.385  14.129
74340W        W39600  32.145  43.249   4.933
74341W        W39601  24.737  42.841  14.836
74342W        W39602  29.248   8.718   3.619
74343W        W39603  12.240  38.394   4.640
74344W        W39604  38.978  16.561  10.102
74345W        W39605  37.005  21.226   3.310
74346W        W39606  28.636   7.651   4.030
74347W        W39607  19.563  37.804   2.267
74348W        W39608   9.606  27.347  12.767
74349W        W39609  22.203  35.643   0.938
74350W        W39610  38.945  16.355  12.580
74351W        W39611  28.037  36.570   3.317
74352W        W39612  19.102   9.923   2.156
74353W        W39613  34.388   4.516  14.353
74354W        W39614  30.848  37.798  12.077
74355W        W39615  19.765   2.861  14.288
74356W        W39616  33.534   7.252  14.973
74357W        W39617   7.801  14.524   4.211
74358W        W39618  35.293  42.927   2.302
74359W        W39619  13.744  32.388  11.092
74360W        W39620  39.880  38.526   0.266
74361W        W39621  16.161  44.157  11.428
74362W        W39622  11.182  20.381   0.800
74363W        W39623  44.366  20.199   2.389
74364W        W39624  20.483  31.792  12.582
74365W        W39625  29.040   8.879   2.327
74366W        W39626  11.288  22.985   2.699
74367W        W39627  29.169  37.675  10.316
74368W        W39628  20.923  30.968   0.467
74369W        W39629  26.122   1.465   1.926
74370W        W39630   0.452  32.977  13.082
74371W        W39631  39.011   0.807  12.587
74372W        W39632  36.785  40.373   4.962
74373W        W39633  43.312   6.473  12.843
74374W        W39634  39.982  10.302  11.399
74375W        W39635   7.808  35.484   3.399
74376W        W39636  31.009  33.816   0.777
74377W        W39637   0.470  19.621   1.125
74378W        W39638   9.585  42.957   2.394
74379W        W39639   3.561  41.972   2.351
74380W        W39640   3.273  17.807  10.670
74381W        W39641  27.349  17.621  10.721
74382W        W39642  35.091  43.731   0.025
74383W        W39643  33.291  37.854   1.916
74384W        W39644   0.237  15.092   2.826
74385W        W39645  10.616  43.288   4.442
74386W        W39646  21.085  21.518  12.949
74387W        W39647  29.435  23.735   1.682
74388W        W39648  38.094  35.822   4.560
74389W        W39649   0.999  35.359   1.288
74390W        W39650   6.729  41.498  13.859
74391W        W39651  31.035  32.029  11.682
74392W        W39652  16.081  38.872  13.912
74393W        W39653  19.293  41.565   2.119
74394W        W39654  38.609   6.736   0.213
74395W        W39655  41.019   1.253   3.923
74396W        W39656  32.677   9.995  11.141
74397W        W39657   4.459   2.551   2.947
74398W        W39658  38.360   9.673  11.951
74399W        W39659  11.873  30.595  10.997
74400W        W39660   1.275   6.329   0.738
74401W        W39661  42.574  23.272   4.139
74402W        W39662  26.760  29.570  12.401
74403W        W39663  37.905  24.951  13.581
74404W        W39664   3.359  13.789  11.596
74405W        W39665  30.079   6.300   1.663
74406W        W39666  17.246  30.021   1.088
74407W        W39667   1.984  41.482  14.252
74408W        W39668  19.222  12.219  13.567
74409W        W39669  28.936  35.129   2.139
74410W        W39670  43.240  17.288   3.257
74411W        W39671  41.760  20.848  11.150
74412W        W39672  36.490  37.827  11.562
74413W        W39673  23.718  22.219   0.714
74414W        W39674  15.721  14.262   0.163
74415W        W39675  13.502  25.433  14.022
74416W        W39676   6.782   7.862  10.744
74417W        W39677   1.383  18.202   1.331
74418W        W39678  20.245  37.054  14.184
74419W        W39679  17.734  31.005  10.916
74420W        W39680   4.317  32.156  10.309
74421W        W39681  29.492  23.050   3.414
74422W        W39682   3.638  37.987   3.473
74423W        W39683   3.453  26.204  13.908
74424W        W39684  31.573   8.938  14.321
74425W        W39685  26.022  26.998   1.001
74426W        W39686  13.364  14.048   2.386
74427W        W39687  19.730  41.960  10.573
74428W        W39688   8.867  17.970  10.985
74429W        W39689   6.773  17.757  14.790
74430W        W39690  19.040  17.130   4.692
74431W        W39691  29.606  21.325   4.893
74432W        W39692  32.119  35.788  10.386
74433W        W39693  41.985  15.764   1.736
74434W        W39694   3.483   1.536   0.733
74435W        W39695   5.161  14.878  10.764
74436W        W39696  25.216  42.762   0.124
74437W        W39697   0.829  39.477  11.667
74438W        W39698   7.766  41.279  14.765
74439W        W39699  34.519   0.734   4.046
74440W        W39700  17.621   1.468  14.601
74441W        W39701  22.520  42.980  12.534
74442W        W39702   2.888  32.504   2.217
74443W        W39703  11.156   2.486  12.703
74444W        W39704  26.437  35.089   3.572
74445W        W39705  18.635   0.983  11.123
74446W        W39706   3.470   2.971   4.643
74447W        W39707  27.931  15.579   0.319
74448W        W39708  18.182  13.551   2.297
74449W        W39709  25.608  19.201   0.991
74450W        W39710  33.299  28.885  14.439
74451W        W39711  39.049  12.151   3.700
74452W        W39712  28.449   5.746   3.880
74453W        W39713   8.649  28.469   4.082
74454W        W39714  35.408  40.766   4.060
74455W        W39715   2.312   9.658   2.210
74456W        W39716  17.784  10.845   1.751
74457W        W39717  41.451  44.394  13.083
74458W        W39718   4.099  29.037   1.657
74459W        W39719  14.143   7.962   1.260
74460W        W39720   0.522  43.349  12.575
74461W        W39721  32.167  26.137   3.267
74462W        W39722  16.143  39.750  14.957
74463W        W39723  20.484  35.380   3.276
74464W        W39724   6.152  24.228   2.832
74465W        W39725   6.301  18.073   3.836
74466W        W39726  23.183  19.022   0.850
74467W        W39727   4.445  10.268   2.757
74468W        W39728   3.320  26.119   2.822
74469W        W39729  18.650  16.657  13.252
74470W        W39730  37.906  11.489  10.086
74471W        W39731  32.584  36.954   4.526
74472W        W39732   2.450  29.621  10.496
74473W        W39733  43.115  44.243  11.579
74474W        W39734  11.217  24.298  14.870
74475W        W39735  21.475  17.307  14.859
74476W        W39736  32.408  31.550  12.691
74477W        W39737  40.943  17.311   3.081
74478W        W39738  14.848  38.030  13.227
74479W        W39739   8.858  36.450   3.081
74480W        W39740  36.036  14.759   4.506
74481W        W39741   8.254  23.649   3.577
74482W        W39742  31.565  18.336  11.726
74483W        W39743   6.648  19.868  12.044
74484W        W39744   0.289  31.080  11.585
74485W        W39745  42.967  36.105  13.270
74486W        W39746  24.035  38.535   3.235
74487W        W39747   0.661  18.674   1.208
74488W        W39748  38.538  19.540  13.972
74489W        W39749   1.928  13.835  10.717
74490W        W39750  18.131  25.647   0.291
74491W        W39751  10.598  16.007  12.008
74492W        W39752  32.179  30.916   2.881
74493W        W39753  40.499   3.461   2.335
74494W        W39754  25.936  20.752  12.969
74495W        W39755  33.094  37.101  13.298
74496W        W39756   5.931  37.381  12.502
74497W        W39757   1.614   1.592  12.460
74498W        W39758   1.379  35.447  12.389
74499W        W39759  25.300  28.671   3.670
74500W        W39760  17.010  41.010  14.039
74501W        W39761  14.760  12.899   1.352
74502W        W39762  41.981  37.287   5.457
74503W        W39763  28.745  17.849   5.459
74504W        W39764  13.199  40.384  13.809
74505W        W39765  23.526  30.496  13.789
74506W        W39766   2.871   6.140   2.285
74507W        W39767  20.380  36.202   5.046
74508W        W39768  10.854  32.338  12.689
74509W        W39769  30.609   3.238   1.250
74510W        W39770  18.123  19.724   1.303
74511W        W39771  31.885   6.897  11.503
74512W        W39772  21.473   3.113   1.185
74513W        W39773   1.506   5.862  12.417
74514W        W39774  13.730  18.180   3.138
74515W        W39775  27.388   0.340  14.012
74516W        W39776  23.950  12.768  12.398
74517W        W39777   3.292  24.298  10.712
74518W        W39778  23.237   3.787   2.879
74519W        W39779   5.678  36.735  12.066
74520W        W39780  24.622  12.091   3.269
74521W        W39781  42.495   8.328   2.010
74522W        W39782  21.037  26.210   3.774
74523W        W39783   3.751  10.441   2.362
74524W        W39784  30.646  22.428   5.069
74525W        W39785  23.586  41.342  10.518
74526W        W39786  37.848  18.540   4.140
74527W        W39787  44.956   7.235  11.648
74528W        W39788  18.613  12.612   1.003
74529W        W39789  37.483   0.994   3.287
74530W        W39790  28.585  14.318   2.862
74531W        W39791   6.665   1.234  14.593
74532W        W39792  32.087  23.208  10.278
74533W        W39793  30.107  16.083   0.625
74534W        W39794   9.894  13.672  12.386
74535W        W39795  19.567   6.893   3.656
74536W        W39796  35.135  31.124   4.121
74537W        W39797  18.830  40.985  14.321
74538W        W39798  16.213  31.457   2.130
74539W        W39799  12.565  26.820   9.638
74540W        W39800   3.068  11.766  12.135
74541W        W39801   8.558   8.703   5.458
74542W        W39802   9.986   2.317   4.081
74543W        W39803  26.718  34.644  11.243
74544W        W39804   2.662   2.842   1.523
74545W        W39805  42.137   1.057  10.346
74546W        W39806  17.550  29.978   4.129
74547W        W39807  21.982   4.957  11.913
74548W        W39808  24.261  29.053  12.726
74549W        W39809  19.732   9.083  12.525
74550W        W39810  34.762  27.093  12.040
74551W        W39811  29.390  43.756   4.728
74552W        W39812  12.331   7.280   0.052
74553W        W39813   3.321  44.746   2.876
74554W        W39814  33.155  22.135   1.887
74555W        W39815  20.822  42.360   0.692
74556W        W39816  37.817  18.047  11.224
74557W        W39817  40.845  25.208  10.678
74558W        W39818  13.278  41.572  14.001
74559W        W39819  22.233  26.750   0.325
74560W        W39820  37.625  33.185  13.098
74561W        W39821   8.157  24.671   2.586
74562W        W39822  28.099  27.938  14.282
74563W        W39823   9.024  19.716   0.921
74564W        W39824  16.351  15.636  11.089
74565W        W39825  20.208  14.354  13.504
74566W        W39826  31.092  37.436   4.661
74567W        W39827  41.893  43.799  12.012
74568W        W39828   0.395   4.913   1.627
74569W        W39829  22.007  20.256  10.219
74570W        W39830  19.602  33.647   3.678
74571W        W39831  30.962  12.131  12.894
74572W        W39832   6.968  30.959   4.135
74573W        W39833  31.193  17.229  12.510
74574W        W39834   0.483  14.578  13.395
74575W        W39835  14.380  10.077  13.745
74576W        W39836  16.852  34.354   2.269
74577W        W39837  40.958  28.105  14.709
74578W        W39838  43.010  17.102   1.179
74579W        W39839   2.110  22.379  14.568
74580W        W39840  15.841  15.186  13.824
74581W        W39841  38.369  27.627   2.445
74582W        W39842  33.467  11.927  14.962
74583W        W39843  43.422  18.495  14.557
74584W        W39844  20.319  40.966   1.198
74585W        W39845  23.589  30.439   4.295
74586W        W39846  41.271  33.107   2.037
74587W        W39847  42.757  31.890   2.310
74588W        W39848   6.608   5.294  11.934
74589W        W39849  37.355   4.337   0.832
74590W        W39850  26.167  21.527   4.114
74591W        W39851  20.003  27.250   0.030
74592W        W39852  44.985   7.415   4.746
74593W        W39853  32.401  41.774  13.457
74594W        W39854  21.223  35.542  11.059
74595W        W39855  12.491  33.892   0.053
74596W        W39856   1.350   9.439   1.755
74597W        W39857  27.184  31.752  13.392
74598W        W39858  17.648   1.955  11.515
74599W        W39859   9.160  33.993   3.190
74600W        W39860  24.365  38.519   5.375
74601W        W39861   1.006  42.025  14.014
74602W        W39862  43.735  10.808  12.218
74603W        W39863   9.401  32.197   0.782
74604W        W39864  21.905  23.120  11.178
74605W        W39865  10.457  20.840  14.832
74606W        W39866  41.828  35.835   3.815
74607W        W39867  43.072  35.358  12.633
74608W        W39868   0.122  12.495  11.818
74609W        W39869  24.987  31.607  11.178
74610W        W39870  36.527  21.639  13.381
74611W        W39871  34.078  37.380  14.512
74612W        W39872  41.988  34.422   2.816
74613W        W39873   4.384  44.832   3.317
74614W        W39874  34.287  10.859   0.931
74615W        W39875  42.827  16.320  14.111
74616W        W39876  19.652  20.272   0.873
74617W        W39877  24.084  24.054  13.350
74618W        W39878  12.111  11.318  12.935
74619W        W39879   9.831  33.504   3.063
74620W        W39880   8.924  21.161  13.549
74621W        W39881  21.620  24.674   4.631
74622W        W39882  38.915  13.538   0.722
74623W        W39883  33.261   5.314   4.135
74624W        W39884  15.390  26.580   2.485
74625W        W39885  36.119  28.972  14.589
74626W        W39886  38.148   0.778   0.315
74627W        W39887  21.623  26.487   1.646
74628W        W39888  42.525  44.242   3.642
74629W        W39889  12.723  41.018   4.870
74630W        W39890  31.842  15.700   2.605
74631W        W39891  19.977  22.877  12.369
74632W        W39892  34.887  22.476  12.525
74633W        W39893  35.926  41.933  12.477
74634W        W39894  10.322   8.371  12.608
74635W        W39895  37.637  37.534   2.895
74636W        W39896  14.925  27.142  13.550
74637W        W39897  16.932  44.357  14.398
74638W        W39898  26.746  35.480   1.257
74639W        W39899  17.135  11.300   2.872
74640W        W39900   6.693  29.532   3.737
74641W        W39901  28.888  35.865  14.368
74642W        W39902  42.564  27.660  11.080
74643W        W39903  19.259   1.749   2.804
74644W        W39904  23.787   6.840   2.218
74645W        W39905   9.321  30.548  14.750
74646W        W39906   8.868   1.401  14.929
74647W        W39907  16.176  28.899  12.156
74648W        W39908   7.764   5.209  14.966
74649W        W39909   1.010   5.279   1.321
74650W        W39910  17.735  15.359   3.876
74651W        W39911  43.356  19.438   1.450
74652W        W39912  25.597  16.133  12.871
74653W        W39913  31.116  33.403   1.049
74654W        W39914  25.536   2.928  12.850
74655W        W39915   6.297  38.366  11.081
74656W        W39916  41.502  32.304   1.805
74657W        W39917   6.441   3.317   0.114
74658W        W39918  34.045  13.143   0.800
74659W        W39919   5.496  28.015  11.609
74660W        W39920  15.626  25.273  12.071
74661W        W39921  31.009  22.341   3.307
74662W        W39922  25.074  42.880  13.354
74663W        W39923  44.723  31.018  12.470
74664W        W39924  10.748  19.615  10.638
74665W        W39925  10.819   4.460  10.284
74666W        W39926  20.252  25.099   2.584
74667W        W39927  35.555  26.086   1.130
74668W        W39928  30.681   6.290  11.899
74669W        W39929   0.896  19.005  13.407
74670W        W39930   7.989  12.952   2.651
74671W        W39931  13.300  42.855  11.741
74672W        W39932   0.243  17.050  11.451
74673W        W39933  24.520  25.692   2.810
74674W        W39934  11.700  43.005  10.953
74675W        W39935  10.269   5.719   4.403
74676W        W39936  35.017   4.342  11.593
74677W        W39937  26.933  28.288   2.371
74678W        W39938  14.670  19.223  13.088
74679W        W39939  44.545  26.439  11.416
74680W        W39940   7.896  36.582   0.804
74681W        W39941   2.008  32.379  12.408
74682W        W39942  34.835  30.129   3.239
74683W        W39943  28.069  29.433   3.195
74684W        W39944  37.496  44.876  14.354
74685W        W39945  21.024  29.263   4.597
74686W        W39946  34.165  31.997   4.203
74687W        W39947  37.891  15.276   0.222
74688W        W39948   3.877   0.999  12.379
74689W        W39949  20.541  31.258   1.900
74690W        W39950  12.769  41.929  12.427
74691W        W39951  43.026  27.352  13.494
74692W        W39952  27.758   4.223  13.690
74693W        W39953  23.034  17.182   1.682
74694W        W39954   7.239  32.682  14.292
74695W        W39955  27.236  17.261   3.245
74696W        W39956  21.622  13.531   3.776
74697W        W39957  35.618  30.120   2.780
74698W        W39958  43.024  15.779  14.581
74699W        W39959  20.066  14.873   2.817
74700W        W39960  16.148  44.742   0.034
74701W        W39961  35.602  21.068   3.088
74702W        W39962  37.323  10.050   1.861
74703W        W39963  15.932  43.906  10.512
74704W        W39964  35.259   5.183   0.938
74705W        W39965  26.416  12.218   3.699
74706W        W39966  12.778  40.370  10.649
74707W        W39967  44.577   0.845   4.488
74708W        W39968  33.466  41.266   4.970
74709W        W39969  35.423  30.445   2.437
74710W        W39970   4.327  13.715  10.671
74711W        W39971   0.202  20.661  12.116
74712W        W39972  13.321  33.592   4.247
74713W        W39973   2.960   8.588   2.872
74714W        W39974  21.522  32.662   3.649
74715W        W39975  26.516  44.342   1.267
74716W        W39976  35.945   7.476  10.784
74717W        W39977   5.449  22.523  14.342
74718W        W39978  18.743  28.041  10.176
74719W        W39979   2.878   7.237  13.613
74720W        W39980  37.751  22.118   4.541
74721W        W39981  27.187  25.586  12.002
74722W        W39982  31.103  19.163  11.528
74723W        W39983   2.902  40.921  14.539
74724W        W39984   8.435   6.484  12.664
74725W        W39985   2.064  17.283   1.220
74726W        W39986  26.599   4.080  14.909
74727W        W39987   4.881  15.081   0.318
74728W        W39988   6.247  44.230   3.334
74729W        W39989  13.614   7.226   2.054
74730W        W39990  23.446  19.613  10.362
74731W        W39991  38.829  35.403  13.053
74732W        W39992  34.526  37.501   3.610
74733W        W39993  34.149  14.268  11.604
74734W        W39994   7.667   9.282  13.571
74735W        W39995  33.448   5.847  11.265
74736W        W39996   8.426  35.486   3.316
74737W        W39997   7.749   3.646  12.960
74738W        W39998  27.707  19.113  14.471
74739W        W39999  43.904  37.476   0.981
74740W        W40000  37.913  44.390   0.307
74741W        W40001  19.850  22.957  13.586
74742W        W40002  39.353   0.655   3.203
74743W        W40003  22.155  22.783  13.877
74744W        W40004  34.537   3.229   0.731
74745W        W40005  20.591  25.507  13.013
74746W        W40006  17.318  22.996  12.514
74747W        W40007  28.969   0.368  14.399
74748W        W40008  40.580   2.990  10.393
74749W        W40009   2.228  34.219  13.606
74750W        W40010  15.128  15.679   4.143
74751W        W40011  25.412  26.708  12.929
74752W        W40012  44.365  18.027   3.213
74753W        W40013  30.272  37.095   0.306
74754W        W40014   9.818  14.251   1.464
74755W        W40015  13.954  22.105  14.326
74756W        W40016  14.755  39.679  14.933
74757W        W40017  42.812  33.308  14.703
74758W        W40018  37.019   3.249   1.222
74759W        W40019   0.298  36.131   0.338
74760W        W40020   7.623  18.242   3.668
74761W        W40021  41.968   4.435   3.178
74762W        W40022  10.084  14.187   4.571
74763W        W40023  21.202  36.877   2.786
74764W        W40024  38.387  22.807   2.901
74765W        W40025  17.428  38.919  11.883
74766W        W40026  12.159   1.743  14.895
74767W        W40027  10.301   7.301  13.863
74768W        W40028  34.237   1.994   3.811
74769W        W40029  40.888  37.823   4.549
74770W        W40030  27.039   8.879  14.819
74771W        W40031   8.374  16.690   4.589
74772W        W40032  34.909   7.775  12.480
74773W        W40033  23.559  23.576   1.401
74774W        W40034  34.162  17.573   4.810
74775W        W40035  39.358   6.690   1.758
74776W        W40036  32.000  23.805   1.510
74777W        W40037  32.605   4.674  14.675
74778W        W40038  24.575  40.478  13.309
74779W        W40039  23.442  19.069   3.625
74780W        W40040  14.839  21.741  12.445
74781W        W40041  25.635   8.080  10.687
74782W        W40042   2.359  12.800  11.773
74783W        W40043  34.312  15.582   2.793
74784W        W40044  33.113  17.639  11.829
74785W        W40045   8.459  21.701  12.561
74786W        W40046  40.042  31.963   0.739
74787W        W40047  33.462  21.997  11.187
74788W        W40048   3.917   8.266   3.338
74789W        W40049  13.810  41.172   0.220
74790W        W40050  29.118  14.152   2.724
74791W        W40051  10.804   0.893   3.474
74792W        W40052  24.697  26.595   1.437
74793W        W40053   0.347   1.969  11.119
74794W        W40054  31.101  17.633  10.738
74795W        W40055  31.593  25.724  12.309
74796W        W40056  37.768  43.065  10.290
74797W        W40057   5.122  27.930   2.750
74798W        W40058  14.008  18.991  10.687
74799W        W40059  43.007  40.078  13.949
74800W        W40060  17.396  28.417   0.620
74801W        W40061  11.716  38.616   4.080
74802W        W40062  32.610  34.633  10.431
74803W        W40063  44.419   4.426   3.327
74804W        W40064   3.795   9.245   4.371
74805W        W40065  18.745  18.259  14.823
74806W        W40066   5.868  16.294  14.663
74807W        W40067  31.113   0.653  12.914
74808W        W40068  15.420  14.565  14.868
74809W        W40069  17.597  22.632   3.591
74810W        W40070  26.024  22.066   1.409
74811W        W40071   0.246  12.407   1.987
74812W        W40072  11.667   2.396  13.143
74813W        W40073  33.434  14.402   0.269
74814W        W40074  42.766  29.445   3.262
74815W        W40075  31.245   5.509  14.541
74816W        W40076  11.298  17.800  14.857
74817W        W40077  10.248  34.572  14.833
74818W        W40078  10.655  29.442   2.907
74819W        W40079  21.051  13.623  14.340
74820W        W40080  41.392   2.341   0.304
74821W        W40081  21.548  35.390   1.802
74822W        W40082   3.490  37.479   2.897
74823W        W40083   5.171  44.570  12.169
74824W        W40084   3.428  32.436   4.181
74825W        W40085  36.927   7.740  10.726
74826W        W40086  42.334  36.041  10.718
74827W        W40087  13.335  35.524   1.923
74828W        W40088  17.565  10.803  14.828
74829W        W40089  39.072  16.588   1.823
74830W        W40090  22.925  30.265   3.271
74831W        W40091  37.583  11.657  11.068
74832W        W40092  10.853  16.317  13.457
74833W        W40093  12.867   9.542  13.424
74834W        W40094  33.470  18.034   1.352
74835W        W40095  19.592  39.725  13.213
74836W        W40096  42.716   4.195  12.612
74837W        W40097  11.382  20.732  12.613
74838W        W40098  32.548  11.408  11.704
74839W        W40099  36.399  29.791  14.392
74840W        W40100  26.354  25.559  11.625
74841W        W40101  41.047  19.128   2.438
74842W        W40102  33.054  41.863  10.852
74843W        W40103   4.850  19.180   0.795
74844W        W40104   3.299  17.125   1.840
74845W        W40105   4.947   2.260  10.745
74846W        W40106  22.313  14.305   4.539
74847W        W40107  34.494  30.254  11.617
74848W        W40108  40.215  10.112  12.217
74849W        W40109  43.399   7.270  10.073
74850W        W40110  44.433  33.499  13.099
74851W        W40111   9.194  24.675  14.563
74852W        W40112   9.951  15.186  14.779
74853W        W40113   5.187  18.167   2.230
74854W        W40114  31.402  16.099   1.724
74855W        W40115  36.539  44.385   0.237
74856W        W40116  23.030  19.516   0.730
74857W        W40117  16.992   1.285   1.852
74858W        W40118  20.247  26.112   3.225
74859W        W40119   4.364  38.257   3.710
74860W        W40120  37.405  32.496  12.077
74861W        W40121  38.759  10.777   2.166
74862W        W40122   0.526  28.127  14.374
74863W        W40123  22.128  43.541  14.352
74864W        W40124  23.807  22.794  13.780
74865W        W40125  40.340  18.779   3.752
74866W        W40126  22.244  19.771   0.290
74867W        W40127  34.815  28.938   3.786
74868W        W40128  44.369  31.843  12.125
74869W        W40129  22.706  22.249   2.847
74870W        W40130  36.830  26.099   0.167
74871W        W40131  19.603  23.559   1.148
74872W        W40132   6.861  37.246  11.990
74873W        W40133   7.613   1.988  11.442
74874W        W40134  13.974  25.205  14.023
74875W        W40135  18.773  38.066  10.598
74876W        W40136  29.256  29.858  11.117
74877W        W40137  31.998  27.159  14.418
74878W        W40138  24.250  40.153  13.055
74879W        W40139  18.092   8.772   3.275
74880W        W40140   2.247  24.905   0.190
74881W        W40141  34.380  38.932   2.784
74882W        W40142  12.214  16.390  13.638
74883W        W40143  16.020   3.161  11.134
74884W        W40144   7.639  37.048  10.623
74885W        W40145  18.172  39.297  13.557
74886W        W40146  22.248  23.973   3.704
74887W        W40147  23.233   3.984  14.240
74888W        W40148  29.859  21.523  11.550
74889W        W40149   2.975  34.563   1.197
74890W        W40150   7.258  28.655   4.372
74891W        W40151  44.490  38.732  14.830
74892W        W40152  16.262  26.277   3.362
74893W        W40153  18.862  25.705  11.073
74894W        W40154  22.248  17.749   4.587
74895W        W40155  15.184  34.072  12.939
74896W        W40156   2.579   0.582   4.110
74897W        W40157  37.633  18.448   0.667
74898W        W40158  10.191  25.597  10.486
74899W        W40159  26.194   7.902  13.773
74900W        W40160  21.196  28.087   2.866
74901W        W40161  26.616  25.585   4.700
74902W        W40162  34.371  38.853   3.712
74903W        W40163   5.560  25.973   9.915
74904W        W40164  16.241  35.969  14.360
74905W        W40165   9.770  22.188  14.911
74906W        W40166  17.807  30.593   1.561
74907W        W40167  15.189  11.268  10.701
74908W        W40168   6.225   2.602  12.937
74909W        W40169  25.022  19.689   0.502
74910W        W40170  11.565  19.167  12.071
74911W        W40171  31.741   8.899   1.889
74912W        W40172  33.397  30.948  11.531
74913W        W40173  43.881  25.620  11.669
74914W        W40174   2.851  32.906   4.245
74915W        W40175  38.920  15.695  10.679
74916W        W40176  20.050  14.063  13.893
74917W        W40177  39.148  16.143  13.968
74918W        W40178  32.801  26.490   2.727
74919W        W40179   3.558  26.088   0.442
74920W        W40180   7.161  38.232   0.890
74921W        W40181  17.612   0.352  13.066
74922W        W40182  15.068  40.920  11.116
74923W        W40183  33.166  18.280  13.525
74924W        W40184   7.976  37.423  13.887
74925W        W40185  27.550   8.837  14.717
74926W        W40186  28.610   2.419  11.356
74927W        W40187  32.056  12.382   2.684
74928W        W40188  35.997  11.212  14.397
74929W        W40189  22.683  21.750  10.721
74930W        W40190  14.209  24.617  11.983
74931W        W40191  34.535  31.215   1.668
74932W        W40192  26.542   4.008   1.225
74933W        W40193   3.353  20.773  14.859
74934W        W40194  18.575  15.371  12.919
74935W        W40195  20.143  30.399  14.271
74936W        W40196  20.184   2.230   2.340
74937W        W40197  33.993  36.045  14.483
74938W        W40198  32.187  19.257  10.758
74939W        W40199  28.146  10.278   2.423
74940W        W40200  33.152  39.895  13.133
74941W        W40201   8.779  23.763  10.336
74942W        W40202  29.565  43.925  12.624
74943W        W40203   2.658  25.586  12.477
74944W        W40204  15.239   8.183   4.113
74945W        W40205  35.179  37.654  11.508
74946W        W40206  19.097  38.831   0.349
74947W        W40207  14.871  22.184   2.451
74948W        W40208  12.874   9.900   3.562
74949W        W40209  11.759  37.189   1.847
74950W        W40210  23.123  30.687   0.333
74951W        W40211  16.200  27.863  10.572
74952W        W40212  18.583  27.585  13.849
74953W        W40213  27.921  43.934   0.916
74954W        W40214   3.042  34.600  14.393
74955W        W40215  31.879  20.579  12.013
74956W        W40216  38.236  36.957  10.511
74957W        W40217  11.573   0.482  14.486
74958W        W40218   1.317  25.754  14.406
74959W        W40219  20.586  44.436  11.505
74960W        W40220  25.642  16.081   4.116
74961W        W40221  36.523   6.721   4.256
74962W        W40222  11.295  16.358  13.186
74963W        W40223  11.632  12.484  11.556
74964W        W40224  20.127  11.869  14.980
74965W        W40225  14.672  19.414  10.672
74966W        W40226  42.876  27.989   4.172
74967W        W40227  34.521  35.572   2.812
74968W        W40228  18.632  33.857  11.514
74969W        W40229  29.941   8.242  12.968
74970W        W40230  32.672  38.440  11.161
74971W        W40231   0.555  16.154  10.346
74972W        W40232   0.542  15.587   1.188
74973W        W40233  23.991  42.841  14.518
74974W        W40234  12.537  27.915  12.518
74975W        W40235  39.704  21.432   0.041
74976W        W40236  40.018  23.211  14.378
74977W        W40237  31.989  23.636  12.162
74978W        W40238  29.344  16.561   4.029
74979W        W40239  42.073  43.254  14.237
74980W        W40240   9.431   6.455  10.176
74981W        W40241  33.923  11.647  14.872
74982W        W40242  12.530  28.123   2.599
74983W        W40243  36.860  34.962  10.426
74984W        W40244  25.009  38.526   1.295
74985W        W40245   4.042  29.446   2.270
74986W        W40246  25.545  23.657  13.905
74987W        W40247  13.410  22.957  11.616
74988W        W40248   2.316  17.122   4.080
74989W        W40249  20.133   6.677  12.980
74990W        W40250   1.256   2.271   1.830
74991W        W40251  37.577  32.971  11.875
74992W        W40252   7.305  40.095  12.050
74993W        W40253  16.560  17.641   3.155
74994W        W40254  16.628  28.933   0.877
74995W        W40255  43.928  36.872  13.997
74996W        W40256  19.691   5.843  10.999
74997W        W40257   8.806  16.224   0.460
74998W        W40258   5.846   7.123  14.510
74999W        W40259  11.673  31.920  13.814
75000W        W40260   5.347  32.170  11.109
75001W        W40261  25.160  27.473  14.270
75002W        W40262  16.794  16.219   4.138
75003W        W40263   7.187  21.211  11.522
75004W        W40264  17.433   2.915   4.560
75005W        W40265  22.645   0.747   3.295
75006W        W40266  23.274  29.564  12.977
75007W        W40267  17.739  42.267   1.930
75008W        W40268  18.360  12.595  14.728
75009W        W40269  33.724  17.176   0.246
75010W        W40270  13.665  41.063  11.657
75011W        W40271   8.379  10.372  14.770
75012W        W40272  31.344  12.281  14.390
75013W        W40273  42.281   3.987  13.528
75014W        W40274   1.518  21.185   2.272
75015W        W40275   8.419  15.805  11.847
75016W        W40276  14.485  16.880  14.175
75017W        W40277  42.601  39.456  14.497
75018W        W40278  26.389  39.808   3.271
75019W        W40279  41.120  21.711  13.542
75020W        W40280  33.470  37.788  14.941
75021W        W40281  11.518   9.709  13.382
75022W        W40282  20.086  38.928   3.008
75023W        W40283  29.594  34.927   1.791
75024W        W40284  10.407  11.254  13.773
75025W        W40285  30.159  15.680  14.879
75026W        W40286  42.325  42.778  14.334
75027W        W40287   1.239  24.314   2.425
75028W        W40288  21.525   9.770   1.381
75029W        W40289   9.113   6.211   4.599
75030W        W40290   4.934  30.451   3.815
75031W        W40291   9.235   3.224  11.472
75032W        W40292  21.401  40.056  14.119
75033W        W40293   3.376   3.819  12.734
75034W        W40294  39.483  17.050  14.059
75035W        W40295   0.166  19.300   1.939
75036W        W40296  38.717  14.782   0.449
75037W        W40297  40.103   9.881   1.806
75038W        W40298  13.926  40.099   4.178
75039W        W40299  25.424  11.669  14.369
75040W        W40300  23.300  12.643  14.788
75041W        W40301  15.144  17.523   4.993
75042W        W40302  27.129  34.851   2.856
75043W        W40303  14.888   5.611  10.812
75044W        W40304  36.639  32.331  13.929
75045W        W40305  42.898  19.174  12.741
75046W        W40306  16.316  17.646   3.604
75047W        W40307  42.454  31.890  13.112
75048W        W40308   9.807   3.906   2.001
75049W        W40309  13.534  22.024  13.511
75050W        W40310  29.860   7.579  11.037
75051W        W40311  14.447  40.027  13.867
75052W        W40312   9.728  26.513  13.982
75053W        W40313   0.680   2.359  13.299
75054W        W40314  25.925  15.740   3.236
75055W        W40315  15.482  41.097  13.737
75056W        W40316  16.584  31.828  14.459
75057W        W40317  30.723  25.521   0.476
75058W        W40318  32.892  17.788  14.026
75059W        W40319  16.526   8.256   2.654
75060W        W40320   7.181  20.136  14.321
75061W        W40321   5.797  42.097   0.692
75062W        W40322  31.084  20.536   1.845
75063W        W40323  38.800  33.103   3.721
75064W        W40324  40.020  44.770  14.792
75065W        W40325  34.535   6.195   3.168
75066W        W40326  41.491  32.621  14.794
75067W        W40327  15.110   8.356  13.497
75068W        W40328   0.838  22.504  11.583
75069W        W40329  29.125  38.426  11.780
75070W        W40330  37.574  29.663   5.185
75071W        W40331  42.010  28.257   1.453
75072W        W40332  38.947   4.422  13.025
75073W        W40333  44.846  29.155   4.786
75074W        W40334   7.571  23.566   4.314
75075W        W40335   8.580  28.987  12.150
75076W        W40336  17.329  31.785   0.164
75077W        W40337  10.821   6.252   3.682
75078W        W40338   6.156  12.335   4.636
75079W        W40339   1.374  14.540  12.847
75080W        W40340  24.210  16.551  10.289
75081W        W40341   2.204  17.658  13.106
75082W        W40342  17.549  37.402   0.233
75083W        W40343  44.770  14.615   4.088
75084W        W40344  18.709  24.187  13.292
75085W        W40345  39.706   4.189   0.787
75086W        W40346  12.749  34.959   4.796
75087W        W40347  41.064  44.423  13.966
75088W        W40348  26.275   0.388   4.563
75089W        W40349   2.884  33.666   3.837
75090W        W40350  28.165  23.813   0.411
75091W        W40351  34.733  12.599  10.695
75092W        W40352  25.257  30.226  11.197
75093W        W40353   8.123   0.338   2.736
75094W        W40354  18.271  34.516   0.293
75095W        W40355  36.506  27.672   4.555
75096W        W40356  37.639   7.413   3.219
75097W        W40357  21.961  17.312  11.004
75098W        W40358  39.449  35.464  13.067
75099W        W40359  29.535   6.631   3.060
75100W        W40360  15.185   1.018   4.054
75101W        W40361  16.093   3.460   1.770
75102W        W40362   7.853  24.615  14.896
75103W        W40363  21.155  41.612   0.231
75104W        W40364  41.234  25.588  11.759
75105W        W40365  10.790  30.606   5.213
75106W        W40366  20.378   6.209  12.899
75107W        W40367  25.914  32.953   3.251
75108W        W40368  30.451  33.429   3.295
75109W        W40369  15.137  25.425  12.726
75110W        W40370  36.435  41.516  14.969
75111W        W40371  20.143  22.713  13.071
75112W        W40372  37.972   6.605  14.949
75113W        W40373  13.700  32.152   0.312
75114W        W40374  24.973  33.650   4.100
75115W        W40375  37.618   8.221   1.725
75116W        W40376  24.263  13.683  14.863
75117W        W40377  13.472   6.352  11.485
75118W        W40378  20.714   3.986   4.356
75119W        W40379  18.980   7.315   1.685
75120W        W40380  18.389  40.303  12.031
75121W        W40381  43.785  32.918  12.500
75122W        W40382  38.933  38.949   3.069
75123W        W40383  17.785  23.925  12.526
75124W        W40384  29.989   2.766   4.966
75125W        W40385  13.878  26.130   2.898
75126W        W40386  18.012  12.744  13.400
75127W        W40387  28.511  16.710   0.841
75128W        W40388  41.607  31.898  12.687
75129W        W40389   9.845   3.758  11.268
75130W        W40390  20.042  16.512  12.460
75131W        W40391  42.614   9.306   2.603
75132W        W40392  33.120  31.650  11.482
75133W        W40393  13.207  18.840   3.962
75134W        W40394  19.001  33.406  11.513
75135W        W40395  27.666  34.691   3.056
75136W        W40396  12.707  20.856  13.176
75137W        W40397  17.588   7.163   1.058
75138W        W40398   1.491  13.159  10.913
75139W        W40399   7.431   3.383  13.324
75140W        W40400  38.115  32.052   4.302
75141W        W40401  32.344   8.130   3.349
75142W        W40402   8.762   1.964   4.210
75143W        W40403  18.234  11.404   4.537
75144W        W40404  12.359  28.177  14.373
75145W        W40405  36.387  20.669   4.080
75146W        W40406  10.804  20.775  11.388
75147W        W40407  15.677  27.883  13.451
75148W        W40408  15.237  13.434   1.535
75149W        W40409  16.911  17.792  14.486
75150W        W40410  35.819  31.977   2.099
75151W        W40411  13.421  18.503  14.516
75152W        W40412  15.784  20.695  14.467
75153W        W40413  41.051  35.945   1.041
75154W        W40414   6.432  23.473  13.179
75155W        W40415   0.294  17.354   4.662
75156W        W40416  10.326  22.119   2.780
75157W        W40417  16.755  16.752   0.305
75158W        W40418   8.611  26.888   2.269
75159W        W40419   8.969  37.648  12.933
75160W        W40420  28.916   4.875  13.794
75161W        W40421  27.947  31.529  10.906
75162W        W40422  21.725  13.355  10.647
75163W        W40423  28.473   5.752  11.172
75164W        W40424  26.860  38.774  13.590
75165W        W40425  37.898  44.739   3.351
75166W        W40426  19.044  42.819  13.886
75167W        W40427  13.575  30.615   0.778
75168W        W40428   0.668  23.603  14.128
75169W        W40429  30.416  21.715   0.459
75170W        W40430  33.522  27.831  14.255
75171W        W40431   5.447  22.080   2.669
75172W        W40432   6.913   0.972  10.729
75173W        W40433  14.204  14.231   4.445
75174W        W40434  35.081  38.472   3.869
75175W        W40435  27.536  23.987   3.257
75176W        W40436   6.810  12.785   0.579
75177W        W40437  40.359  29.243  14.008
75178W        W40438  30.653  30.208   3.003
75179W        W40439  26.485  10.614  13.336
75180W        W40440  20.416   9.539   1.161
75181W        W40441  14.043   3.506  11.000
75182W        W40442   0.577  39.500   3.388
75183W        W40443   3.920  14.101  11.544
75184W        W40444  39.801  39.392   3.256
75185W        W40445  30.427  30.879   0.331
75186W        W40446  16.497   2.913  13.309
75187W        W40447  12.486  43.067  13.522
75188W        W40448  17.608  21.294  10.385
75189W        W40449  18.045   0.697  14.418
75190W        W40450  41.892  11.715  10.174
75191W        W40451  13.056  42.085  10.907
75192W        W40452  19.147  19.707  12.096
75193W        W40453  42.791  26.733  11.034
75194W        W40454  25.440  38.592  13.063
75195W        W40455  13.659  26.663  12.000
75196W        W40456   1.237   6.825  13.949
75197W        W40457  13.143  20.745  10.554
75198W        W40458  27.641  11.702   1.928
75199W        W40459  15.790   3.831  14.972
75200W        W40460  42.561  14.737  13.348
75201W        W40461   4.745  36.686   2.821
75202W        W40462  23.734  11.642  12.947
75203W        W40463  15.999   2.295   2.447
75204W        W40464  22.967  35.181  13.518
75205W        W40465  42.206  35.700   3.104
75206W        W40466  29.001  37.960  11.561
75207W        W40467  35.518  31.645   0.055
75208W        W40468   4.752  21.980   2.646
75209W        W40469  17.662  23.014   4.025
75210W        W40470  23.790  14.770   0.290
75211W        W40471  13.643   2.274   4.291
75212W        W40472  13.285  40.106  10.730
75213W        W40473  13.905  16.824   4.681
75214W        W40474  26.698  42.516   1.785
75215W        W40475  13.625  19.822  10.831
75216W        W40476  43.709  18.072  11.578
75217W        W40477  40.125  33.067   3.209
75218W        W40478   8.382  25.119   3.820
75219W        W40479  38.617   4.643   2.730
75220W        W40480  24.704  43.417   2.448
75221W        W40481  28.336  18.594   5.432
75222W        W40482  10.590  23.507   2.789
75223W        W40483  10.685  37.078   0.977
75224W        W40484  11.757  41.731  10.587
75225W        W40485  14.400  38.350  13.337
75226W        W40486   5.486  21.283  12.450
75227W        W40487  28.027  43.977  11.174
75228W        W40488  24.639  43.350   2.949
75229W        W40489   5.663  25.102  14.985
75230W        W40490   0.369  39.839   2.882
75231W        W40491  27.451  26.482  10.370
75232W        W40492   2.114  22.096  10.302
75233W        W40493  17.564   0.707  13.836
75234W        W40494  15.244  23.132   4.364
75235W        W40495   1.171  31.363   1.341
75236W        W40496   9.380  35.587  13.159
75237W        W40497  43.877   4.313  14.772
75238W        W40498  36.341  13.635  14.883
75239W        W40499  40.119   4.860  11.121
75240W        W40500  27.935  35.811  14.982
75241W        W40501  17.356   5.192  14.241
75242W        W40502  24.114  30.684   1.366
75243W        W40503  30.699  29.547  14.312
75244W        W40504  43.980  36.839  12.091
75245W        W40505  31.667  29.826  11.126
75246W        W40506   6.143   5.233   3.801
75247W        W40507  29.618  34.633  10.653
75248W        W40508  36.651  34.105  10.638
75249W        W40509  34.801  29.810   2.394
75250W        W40510  17.100  44.186   1.261
75251W        W40511  19.189  40.915  13.104
75252W        W40512  20.237  34.894   3.194
75253W        W40513   0.218  20.542  11.589
75254W        W40514  28.448  20.590   1.626
75255W        W40515  23.434  24.563   2.912
75256W        W40516  35.522   7.372  11.053
75257W        W40517  14.254  36.860   2.584
75258W        W40518  22.589  19.967  12.954
75259W        W40519  26.526  23.207   2.341
75260W        W40520  14.563  16.181  11.719
75261W        W40521  10.335  22.497  10.582
75262W        W40522  24.615  19.112  12.094
75263W        W40523  29.041  38.789  12.534
75264W        W40524  44.110  20.717   2.603
75265W        W40525  36.149  32.946  12.511
75266W        W40526  26.025  22.370  14.239
75267W        W40527  19.790   0.358   1.487
75268W        W40528  37.906  20.664   2.197
75269W        W40529  15.211  38.008   1.920
75270W        W40530  14.417  32.114   4.592
75271W        W40531  26.694  18.822  13.916
75272W        W40532  24.387  28.445  14.126
75273W        W40533   3.350   1.682  10.617
75274W        W40534  30.177  29.650   1.877
75275W        W40535  19.720  12.176   0.868
75276W        W40536   5.958   5.784   3.635
75277W        W40537  12.367  40.832   1.749
75278W        W40538  32.476  27.633   3.146
75279W        W40539  11.270  21.621   1.769
75280W        W40540  30.650  39.358  14.199
75281W        W40541  35.428  19.298   3.816
75282W        W40542  42.515  35.803  12.106
75283W        W40543   4.877  36.599   1.278
75284W        W40544  13.598  15.254   0.518
75285W        W40545  13.973  11.599  14.824
75286W        W40546  25.503  40.809   0.956
75287W        W40547  14.820  40.289  12.776
75288W        W40548  17.909  27.454  11.248
75289W        W40549  20.960  25.422  14.942
75290W        W40550  43.520  33.616   2.766
75291W        W40551   7.883  15.218   0.216
75292W        W40552  21.560  39.612  14.387
75293W        W40553  44.733  15.065   0.924
75294W        W40554  41.468  13.154  11.685
75295W        W40555  30.192  38.641   0.450
75296W        W40556  10.386  24.212  14.852
75297W        W40557  18.156   7.293  14.774
75298W        W40558  23.232   1.688  13.529
75299W        W40559  26.383  38.516   2.396
75300W        W40560  36.981   5.241  12.734
75301W        W40561   3.185  33.419   2.482
75302W        W40562  18.364  30.222  12.974
75303W        W40563  37.205   6.357  10.331
75304W        W40564  27.746   8.010   0.873
75305W        W40565  38.277  34.987  12.351
75306W        W40566  30.261  34.997  11.782
75307W        W40567  30.910  42.731  11.192
75308W        W40568  11.914  19.498  14.319
75309W        W40569   1.346  26.749   2.344
75310W        W40570  26.623  25.782   0.941
75311W        W40571  16.864  37.911  11.846
75312W        W40572   2.231  15.349  14.863
75313W        W40573  30.561  31.427   4.814
75314W        W40574  41.134  34.812  10.981
75315W        W40575  28.522  43.400   3.279
75316W        W40576   5.718  37.765   2.718
75317W        W40577   6.328  44.053   4.204
75318W        W40578  21.606  27.592   0.413
75319W        W40579  31.488   0.347   3.885
75320W        W40580  40.085  42.090   1.829
75321W        W40581  13.299  33.404   0.515
75322W        W40582  24.521  30.361  11.618
75323W        W40583  43.472  17.345  10.128
75324W        W40584   3.498  19.612  13.818
75325W        W40585   4.510  27.157   4.181
75326W        W40586  23.501  32.644  13.510
75327W        W40587   8.388  35.450  13.513
75328W        W40588  20.450  31.938   1.224
75329W        W40589   5.320  21.979   0.397
75330W        W40590   9.215  28.650   3.000
75331W        W40591   8.366  32.272   2.364
75332W        W40592  38.564  29.196   4.588
75333W        W40593  28.619  30.589  12.513
75334W        W40594  33.573   4.700  11.389
75335W        W40595  16.756  34.742   3.731
75336W        W40596   8.290  42.869   4.671
75337W        W40597  12.135  30.030  12.124
75338W        W40598  44.794  34.142   4.567
75339W        W40599  13.368  34.318   3.630
75340W        W40600   2.302  28.910   0.359
75341W        W40601   2.656  32.734   3.776
75342W        W40602  41.551   5.420   1.763
75343W        W40603  14.870  28.247   1.918
75344W        W40604  30.593  12.016   2.996
75345W        W40605  34.102  18.342  12.397
75346W        W40606  25.885  11.856   2.227
75347W        W40607  37.771  43.941   4.395
75348W        W40608  12.246  17.973   1.347
75349W        W40609   5.132   3.038  14.760
75350W        W40610  32.240   3.912  12.615
75351W        W40611  19.337  29.791   2.892
75352W        W40612   0.831   0.642  11.815
75353W        W40613  39.944   3.832  12.079
75354W        W40614  33.162  13.061  14.380
75355W        W40615  23.507  20.717   1.742
75356W        W40616   1.372  35.343   2.943
75357W        W40617   9.135   9.369  12.383
75358W        W40618  12.108  15.240  11.567
75359W        W40619  38.392  29.664  12.026
75360W        W40620  21.995  24.613  13.349
75361W        W40621  17.384  13.018  11.987
75362W        W40622  23.488  28.985   0.788
75363W        W40623  33.953   1.952   1.851
75364W        W40624  18.024  24.618   4.656
75365W        W40625  18.644  29.612   0.319
75366W        W40626  16.279  29.882  10.723
75367W        W40627  32.289   5.095  13.458
75368W        W40628  13.022   9.908  13.996
75369W        W40629  17.829  40.812   0.353
75370W        W40630  13.557   4.281  12.882
75371W        W40631  22.000  26.258   0.312
75372W        W40632   5.423  18.218   2.690
75373W        W40633  43.728  23.412   2.236
75374W        W40634  15.723  18.867  11.199
75375W        W40635  33.422   9.002  11.586
75376W        W40636  24.330  37.987   0.833
75377W        W40637  36.946  30.524  13.038
75378W        W40638  32.849  26.269  10.255
75379W        W40639  23.246  11.669   3.247
75380W        W40640  30.685  38.672  12.922
75381W        W40641  10.594  21.613  11.521
75382W        W40642  22.039  43.993  13.349
75383W        W40643  39.156   0.426  10.229
75384W        W40644   2.061   0.945   0.411
75385W        W40645   1.762  19.912  13.542
75386W        W40646  16.339  15.273  12.463
75387W        W40647  29.007  11.675   3.250
75388W        W40648  16.671  40.560  13.972
75389W        W40649  15.272  15.467  11.738
75390W        W40650  34.294  43.331   3.324
75391W        W40651  12.387  26.680   5.058
75392W        W40652  36.459  38.508  11.550
75393W        W40653  23.359  33.386  11.120
75394W        W40654  32.877  34.489  12.066
75395W        W40655  36.036  17.545  14.271
75396W        W40656  40.455  37.433   0.961
75397W        W40657   6.920  32.025   4.372
75398W        W40658   4.546  37.425  14.346
75399W        W40659   1.241  17.168  14.847
75400W        W40660  13.961  14.036   1.281
75401W        W40661  26.519   0.532  13.553
75402W        W40662  12.956  28.228   0.710
75403W        W40663  20.715  43.657  10.657
75404W        W40664  27.139  17.843  14.524
75405W        W40665  36.959  42.380   3.829
75406W        W40666  29.015  13.323  11.007
75407W        W40667  43.273  15.132   1.888
75408W        W40668   4.530  17.327   1.346
75409W        W40669  31.486   8.213  13.141
75410W        W40670   0.485   7.740  13.488
75411W        W40671  29.875   0.859  14.099
75412W        W40672   8.150  15.160  11.096
75413W        W40673  30.276   0.361  13.370
75414W        W40674  24.535  19.058   1.445
75415W        W40675  10.196  33.946  11.570
75416W        W40676  34.805  10.120  12.389
75417W        W40677  26.141  40.255   2.146
75418W        W40678  28.233  34.001  13.600
75419W        W40679   8.627  33.848  10.734
75420W        W40680  21.711  10.760  12.973
75421W        W40681  30.052  29.947   2.276
75422W        W40682  44.379  18.550  10.545
75423W        W40683  29.799  43.757   3.582
75424W        W40684   8.397   7.245   2.605
75425W        W40685  18.516   0.875  14.299
75426W        W40686   8.480  22.280  10.595
75427W        W40687   3.859  34.229  11.971
75428W        W40688  21.720  32.944  11.484
75429W        W40689   2.259  14.635  10.574
75430W        W40690  36.393   5.185  13.503
75431W        W40691  28.636  26.951   0.844
75432W        W40692  19.502  22.971  14.933
75433W        W40693  37.064  24.064  13.970
75434W        W40694   3.379  28.207   0.880
75435W        W40695  19.321  18.010  11.163
75436W        W40696  30.736  24.163   3.326
75437W        W40697   5.403  38.320   0.278
75438W        W40698  14.976   1.944  12.737
75439W        W40699  37.322  30.988   0.354
75440W        W40700  32.633   2.990  11.070
75441W        W40701  38.790  29.212   0.274
75442W        W40702  34.621  13.150   1.690
75443W        W40703   9.395   6.230   1.853
75444W        W40704   3.084  15.750   4.772
75445W        W40705  25.552  43.791   4.624
75446W        W40706  21.729  13.852  11.224
75447W        W40707   8.300  39.072  11.149
75448W        W40708  18.074  10.377   4.485
75449W        W40709   1.018  24.612   1.885
75450W        W40710   6.938  16.342  14.872
75451W        W40711  31.512  37.118   2.312
75452W        W40712   3.065  14.848   4.838
75453W        W40713  30.706  10.776  14.853
75454W        W40714  29.196  31.422  13.378
75455W        W40715  15.790   6.434   2.691
75456W        W40716   1.700  11.933   2.500
75457W        W40717  40.617  11.850   3.262
75458W        W40718  13.409   8.701   3.156
75459W        W40719  22.089  11.725  12.125
75460W        W40720  14.618   2.279  12.525
75461W        W40721  10.056  15.410  13.569
75462W        W40722  12.148   4.314  14.101
75463W        W40723  34.043  25.036  10.849
75464W        W40724  44.703  16.334  13.974
75465W        W40725  32.897   7.327   4.173
75466W        W40726  17.232  18.581   2.376
75467W        W40727  19.457  35.972  12.494
75468W        W40728  19.753  19.048  11.838
75469W        W40729  27.071  27.260  14.800
75470W        W40730  11.100  41.451   1.835
75471W        W40731  41.020   4.638  12.108
75472W        W40732  29.577  15.701  10.678
75473W        W40733   1.895  22.326  11.141
75474W        W40734  26.431  42.929   1.940
75475W        W40735  39.008  29.239  11.526
75476W        W40736  35.738  26.656  12.858
75477W        W40737  11.873  21.260   4.061
75478W        W40738  37.714  18.466  13.389
75479W        W40739  25.002  40.976  10.654
75480W        W40740  30.030  42.871  14.852
75481W        W40741  13.572  15.496  12.107
75482W        W40742  32.742  21.705   1.884
75483W        W40743  21.290  12.215  10.417
75484W        W40744  40.050   7.969   1.781
75485W        W40745  33.465   7.500  13.612
75486W        W40746  38.638  22.517   0.815
75487W        W40747  24.511  17.508  12.541
75488W        W40748  10.727  13.096   0.205
75489W        W40749  27.588  36.809  11.630
75490W        W40750  10.424  31.401  12.393
75491W        W40751  37.107  14.814   4.273
75492W        W40752  22.237  10.211   0.301
75493W        W40753  20.603  37.039   0.520
75494W        W40754  11.103  25.873  14.019
75495W        W40755  42.180  29.561   4.768
75496W        W40756  42.295  15.295   3.206
75497W        W40757   0.908  41.528  10.649
75498W        W40758   7.186  35.555  12.170
75499W        W40759  44.860  12.724   1.879
75500W        W40760   9.346  10.138  11.101
75501W        W40761   6.114  14.011  12.335
75502W        W40762  15.051  29.583   1.695
75503W        W40763  37.059  28.767   4.165
75504W        W40764  27.920  28.510  14.977
75505W        W40765  43.344  24.711   4.978
75506W        W40766  20.025  19.424   0.952
75507W        W40767  10.046  42.328   4.556
75508W        W40768  37.520   4.614   2.831
75509W        W40769  38.971  35.168   1.725
75510W        W40770   8.698  34.528   0.529
75511W        W40771  40.456  30.469  12.853
75512W        W40772  31.805  44.204   0.994
75513W        W40773  24.177  14.169  12.989
75514W        W40774  34.964  25.487   0.010
75515W        W40775  14.297   3.813   3.308
75516W        W40776  31.150  14.517  10.431
75517W        W40777   5.690   4.711  13.437
75518W        W40778   1.834  34.149  12.293
75519W        W40779  32.875   2.552   2.540
75520W        W40780  32.349   3.519   1.711
75521W        W40781  33.887  14.663  11.822
75522W        W40782  40.229  43.331  13.893
75523W        W40783  42.562  30.981   1.995
75524W        W40784  42.906  13.611   2.815
75525W        W40785   3.377  27.143  11.930
75526W        W40786   5.958  41.523   2.614
75527W        W40787   7.792  32.138   4.054
75528W        W40788   2.295  23.164   0.806
75529W        W40789  23.607  43.614   0.988
75530W        W40790  18.775  28.546  13.800
75531W        W40791  13.146  22.472  13.967
75532W        W40792  16.791  25.143   1.824
75533W        W40793  30.224  32.312  12.039
75534W        W40794   3.499  35.000  13.524
75535W        W40795   2.399  16.525   0.323
75536W        W40796  34.590   8.914  13.212
75537W        W40797   6.868  12.740   3.072
75538W        W40798  17.802  19.268  14.951
75539W        W40799  17.759   9.915   3.306
75540W        W40800   7.736   3.203   2.197
75541W        W40801  10.261   6.192   5.010
75542W        W40802  42.962  15.430   4.825
75543W        W40803  24.688  37.541  13.855
75544W        W40804  42.907  18.540  10.387
75545W        W40805  28.549  37.334   2.394
75546W        W40806  43.061  41.412  10.880
75547W        W40807   0.536  15.774   3.026
75548W        W40808  14.222   7.343   4.899
75549W        W40809  22.454   0.529  11.075
75550W        W40810  32.354  15.256  13.591
75551W        W40811  10.209  17.313   2.424
75552W        W40812   0.209  35.941   1.360
75553W        W40813   1.586   0.502   3.827
75554W        W40814  29.889   2.246  14.309
75555W        W40815  42.665  12.257  14.906
75556W        W40816   9.945  23.948   2.985
75557W        W40817  11.372   4.763   1.272
75558W        W40818  25.990  41.478  12.958
75559W        W40819   7.350  32.902   0.138
75560W        W40820  15.261  34.773  11.596
75561W        W40821  12.686  33.510   0.933
75562W        W40822  21.540   8.933  10.598
75563W        W40823  11.907  11.762  12.740
75564W        W40824  15.720  27.629  10.729
75565W        W40825  21.134  24.733   4.487
75566W        W40826  24.167   0.994  11.492
75567W        W40827  12.891  15.310  14.403
75568W        W40828  26.003  42.598  11.170
75569W        W40829   6.503  18.546   3.164
75570W        W40830  17.131  13.775  11.563
75571W        W40831  30.531  17.161   4.485
75572W        W40832  12.715  37.693   2.677
75573W        W40833  17.653   6.939   4.032
75574W        W40834   7.265  20.995  11.059
75575W        W40835  34.869  38.680  10.705
75576W        W40836   0.802   2.236   4.514
75577W        W40837  23.309  32.016  10.626
75578W        W40838   2.722  15.615   2.221
75579W        W40839  36.165   8.855  11.199
75580W        W40840  28.970  44.869  14.273
75581W        W40841  30.567   0.838  11.469
75582W        W40842  30.834  26.662  10.724
75583W        W40843  44.393   4.974   0.299
75584W        W40844   4.276   1.845   0.561
75585W        W40845  27.672  28.409  12.143
75586W        W40846  35.092  16.336  12.310
75587W        W40847  30.214  20.000  11.115
75588W        W40848  37.930  14.354  12.829
75589W        W40849   5.751  22.167   3.679
75590W        W40850  27.825   2.747   0.001
75591W        W40851  31.692  39.660  11.045
75592W        W40852   9.629  15.646  10.144
75593W        W40853  20.566   5.157   3.783
75594W        W40854  23.274  20.336  11.571
75595W        W40855  25.043  22.530   0.690
75596W        W40856  14.498  31.988   3.740
75597W        W40857  12.636  11.692   1.367
75598W        W40858   9.523  29.973   3.677
75599W        W40859  34.414  31.897   0.808
75600W        W40860   6.469  17.696   1.185
75601W        W40861  36.799  43.904   0.883
75602W        W40862  11.038  24.705  13.564
75603W        W40863  36.088  40.085  12.376
75604W        W40864  28.780  35.631  13.624
75605W        W40865  10.049  29.545  14.727
75606W        W40866   6.785  16.336   1.591
75607W        W40867  20.963  40.443  10.979
75608W        W40868  13.842   5.739   3.586
75609W        W40869  13.642  33.836  13.520
75610W        W40870   9.615  17.845   3.591
75611W        W40871  30.928  32.463   4.001
75612W        W40872  10.629  44.330   1.881
75613W        W40873  20.467   8.522  11.260
75614W        W40874  36.386   4.762   4.503
75615W        W40875  42.769  13.605  11.643
75616W        W40876  41.727  18.658   0.815
75617W        W40877  16.212  11.292   0.764
75618W        W40878   6.113  43.336   0.510
75619W        W40879   3.728   5.803   0.431
75620W        W40880  37.325  41.278   4.601
75621W        W40881  25.633  24.001  10.916
75622W        W40882  17.502  23.264   3.061
75623W        W40883  32.731   8.623   1.429
75624W        W40884   5.846  19.751  14.522
75625W        W40885  43.714  42.501  11.909
75626W        W40886  10.314  18.993   3.202
75627W        W40887  14.155  41.933   3.189
75628W        W40888  41.750  34.162   1.238
75629W        W40889  29.333  32.117  13.983
75630W        W40890  24.756  35.573  12.909
75631W        W40891  33.434   2.286   3.717
75632W        W40892  19.062  17.898   1.429
75633W        W40893  31.389  38.856   3.372
75634W        W40894  30.511   0.015  13.985
75635W        W40895  42.219   3.780   0.252
75636W        W40896  17.080   3.969   1.850
75637W        W40897  12.441  17.773   3.111
75638W        W40898  35.212  22.800   4.146
75639W        W40899  40.258  24.155   0.671
75640W        W40900  32.097  21.961  13.549
75641W        W40901  22.305  29.980   1.430
75642W        W40902  36.571  40.004   3.923
75643W        W40903  17.737  33.510   3.166
75644W        W40904  31.960  40.461   1.392
75645W        W40905  23.747  44.493   0.874
75646W        W40906  34.121  22.639  14.981
75647W        W40907   7.847  13.813  12.958
75648W        W40908  29.835  22.647   2.860
75649W        W40909  35.152   2.405   2.396
75650W        W40910   1.301  18.199  11.007
75651W        W40911  23.425   4.730  12.068
75652W        W40912  43.815  35.059  14.356
75653W        W40913  14.568  28.937   4.833
75654W        W40914   0.137  18.954  13.095
75655W        W40915   4.912  22.203  12.373
75656W        W40916  39.081  25.130  11.966
75657W        W40917  35.058  21.654   3.164
75658W        W40918  28.959   6.399  12.052
75659W        W40919   9.725  27.481  13.772
75660W        W40920  26.597  12.287  12.354
75661W        W40921  14.993  20.734   1.261
75662W        W40922  40.754   7.894  13.113
75663W        W40923  32.737  22.368  11.993
75664W        W40924  30.614   1.748  13.281
75665W        W40925  10.622   5.783   3.639
75666W        W40926  22.782  26.193   2.736
75667W        W40927  24.048  11.372   3.718
75668W        W40928  35.498  18.000   2.211
75669W        W40929  14.895  42.829   3.712
75670W        W40930  19.639  11.142   3.383
75671W        W40931  14.803  40.954  14.566
75672W        W40932   4.428  15.277   1.219
75673W        W40933  28.547  26.721   4.089
75674W        W40934  25.536  39.513  12.959
75675W        W40935  15.440  27.431  13.524
75676W        W40936  43.232  12.280   1.343
75677W        W40937  25.440  30.124  14.584
75678W        W40938  33.428   5.863  10.753
75679W        W40939  35.956  18.226   2.934
75680W        W40940  23.653   2.326  13.035
75681W        W40941  12.097  31.592   1.358
75682W        W40942  36.127   5.237   2.189
75683W        W40943   5.456  33.113  12.882
75684W        W40944   9.836  22.750   4.183
75685W        W40945  10.741   2.353  12.418
75686W        W40946   2.969  18.227  12.582
75687W        W40947  18.079  17.334   0.751
75688W        W40948  31.655  44.351  12.817
75689W        W40949  36.347   4.262  13.601
75690W        W40950  15.202   3.700  14.060
75691W        W40951   1.330  33.918  12.538
75692W        W40952  42.366  20.692   3.565
75693W        W40953  18.234  26.641  12.192
75694W        W40954   8.888  23.624   1.866
75695W        W40955  39.470  43.980  11.135
75696W        W40956  17.272  20.326  12.951
75697W        W40957  18.147  15.302   2.694
75698W        W40958  25.101   0.419   0.835
75699W        W40959  30.589  28.807   1.627
75700W        W40960  14.612  11.925   1.097
75701W        W40961  19.670  34.499   1.015
75702W        W40962  12.934  24.582  10.702
75703W        W40963  30.036  31.368   4.954
75704W        W40964  33.501  18.056   4.208
75705W        W40965  44.068  16.080  10.738
75706W        W40966  31.213  16.799   2.676
75707W        W40967  26.336  37.941   4.823
75708W        W40968   7.916  21.738  13.653
75709W        W40969  33.558  31.442  11.614
75710W        W40970  42.321   1.529   3.788
75711W        W40971  16.845  24.472   4.034
75712W        W40972  35.001  24.642   3.489
75713W        W40973  43.010   0.551   0.378
75714W        W40974  37.015   2.928   4.583
75715W        W40975  18.236  42.310  14.805
75716W        W40976  24.076   4.275   3.356
75717W        W40977  40.087  23.316   1.799
75718W        W40978  40.027   5.666  10.611
75719W        W40979  18.542  39.413  10.427
75720W        W40980  25.203  11.182   2.606
75721W        W40981  29.985  33.223  14.855
75722W        W40982  32.527  20.064  12.502
75723W        W40983  39.548   6.272   3.336
75724W        W40984   2.863  16.288   2.340
75725W        W40985  41.060  12.311   4.563
75726W        W40986  20.707  29.487   0.505
75727W        W40987  22.206  44.354   0.717
75728W        W40988   1.905  32.036   2.606
75729W        W40989  39.725   2.826  13.516
75730W        W40990   1.459  10.769  10.600
75731W        W40991  42.534  37.953   3.163
75732W        W40992  42.536   0.424  12.596
75733W        W40993  44.665  12.537   9.816
75734W        W40994   9.389  12.927  11.677
75735W        W40995  40.090  35.538  11.200
75736W        W40996   7.679  35.344   0.238
75737W        W40997  14.879  25.985   4.676
75738W        W40998  15.668  27.029   3.690
75739W        W40999   0.876  21.448  14.965
75740W        W41000  36.806  10.156   3.283
75741W        W41001  34.425   3.938   4.632
75742W        W41002  42.887  37.582  14.504
75743W        W41003   4.802   7.634   4.605
75744W        W41004  21.421  17.240   3.203
75745W        W41005  33.408  16.157   4.138
75746W        W41006   6.729  26.416   1.374
75747W        W41007  11.763  28.493  12.820
75748W        W41008   6.712  23.058   0.861
75749W        W41009  11.842   0.496  13.474
75750W        W41010   8.199  30.529   4.645
75751W        W41011  44.421   8.774   1.803
75752W        W41012   1.306   7.096   2.331
75753W        W41013  22.626  36.949  14.543
75754W        W41014   4.113   8.990   4.693
75755W        W41015  40.593  13.249  11.921
75756W        W41016   5.961  14.245   2.366
75757W        W41017  12.845  17.249   1.755
75758W        W41018  33.422   7.446   3.530
75759W        W41019  44.258  14.694   4.130
75760W        W41020  16.511  24.025  13.374
75761W        W41021  16.569  22.596   3.610
75762W        W41022  12.656  38.963   2.633
75763W        W41023  36.297  16.621  12.170
75764W        W41024  44.308  18.953   1.672
75765W        W41025  26.929  31.074   1.194
75766W        W41026  39.046  29.600   3.422
75767W        W41027   8.953   7.899  12.932
75768W        W41028  35.421  44.956  11.042
75769W        W41029  43.640  37.423  10.379
75770W        W41030  30.817  41.544   4.503
75771W        W41031  29.018  37.043   3.651
75772W        W41032  34.940  40.749   0.438
75773W        W41033  30.558  17.263   2.174
75774W        W41034  34.508  40.574   3.183
75775W        W41035  22.549  24.287   2.808
75776W        W41036  19.314  16.683  11.913
75777W        W41037  20.368  22.102   1.222
75778W        W41038  17.162  43.728  12.282
75779W        W41039  33.388  11.584   1.348
75780W        W41040  37.912   1.462   0.995
75781W        W41041  15.266  39.343  10.727
75782W        W41042  29.922  19.616   1.233
75783W        W41043  30.952   4.934  14.328
75784W        W41044  44.831  20.851   3.619
75785W        W41045  34.203  24.960   3.204
75786W        W41046   2.993  38.107   4.060
75787W        W41047  18.492  36.532  14.561
75788W        W41048   4.569  20.272  14.314
75789W        W41049  24.964  15.328   2.287
75790W        W41050  16.148  12.630   2.354
75791W        W41051  21.507  37.592   3.786
75792W        W41052  35.472  37.853  13.601
75793W        W41053   6.413  11.062  11.937
75794W        W41054  40.384  29.740  10.576
75795W        W41055  35.521  16.186   2.932
75796W        W41056  33.424  20.204   1.805
75797W        W41057  38.321  10.258   4.213
75798W        W41058  33.455  32.642   1.810
75799W        W41059   3.704  24.521  13.523
75800W        W41060  20.540  28.727   1.863
75801W        W41061  31.484  34.779   1.946
75802W        W41062  28.059  22.276   4.175
75803W        W41063  42.250  33.801   2.018
75804W        W41064  17.253  11.729   3.141
75805W        W41065   6.921  26.568  10.642
75806W        W41066  37.877  15.366  11.997
75807W        W41067  38.284  13.076  12.616
75808W        W41068   4.280  13.128   0.378
75809W        W41069  13.207  11.351   3.713
75810W        W41070   7.695   0.745  11.941
75811W        W41071  42.057  30.440  10.745
75812W        W41072  41.089  23.589  13.091
75813W        W41073  19.319  37.166  13.085
75814W        W41074  22.706   3.552  11.046
75815W        W41075  11.201  24.639  14.488
75816W        W41076  32.810  20.999  13.512
75817W        W41077  31.001  26.591   1.899
75818W        W41078  11.223   2.734  13.598
75819W        W41079   1.058  35.309   2.217
75820W        W41080  12.806  28.027  11.953
75821W        W41081  32.638  33.499   2.347
75822W        W41082  39.033  20.074   0.765
75823W        W41083  22.306  27.035  12.861
75824W        W41084  40.096  18.267   4.089
75825W        W41085   6.899   9.516  13.803
75826W        W41086  37.981  29.060   3.251
75827W        W41087  29.570  16.622  13.028
75828W        W41088  33.079  33.409  12.553
75829W        W41089  13.826  29.263   0.819
75830W        W41090  18.730  29.635  14.388
75831W        W41091  22.135  14.922  12.499
75832W        W41092  11.146  38.515  13.193
75833W        W41093  40.448  25.358  11.164
75834W        W41094   8.258  25.346   5.096
75835W        W41095   4.992  19.904   3.212
75836W        W41096  13.251  25.439   1.984
75837W        W41097   7.523  11.167  11.905
75838W        W41098  20.136   5.159  10.169
75839W        W41099  38.218  22.112  14.522
75840W        W41100  43.939  42.800   2.217
75841W        W41101   2.379  15.740  12.119
75842W        W41102  29.115  14.718  12.212
75843W        W41103   8.202  28.567   4.361
75844W        W41104  11.201  12.102  10.673
75845W        W41105  23.742  42.815   3.078
75846W        W41106  44.844  40.808   2.123
75847W        W41107  34.885  42.925  10.189
75848W        W41108  17.275  26.664  13.330
75849W        W41109  27.059  38.545   1.806
75850W        W41110  22.574  16.073  14.394
75851W        W41111  40.789  12.203   1.188
75852W        W41112  27.733   0.231  10.978
75853W        W41113  36.262  14.106   2.816
75854W        W41114  18.271  18.241   3.166
75855W        W41115  33.701  20.723  13.460
75856W        W41116  24.293  10.809  13.842
75857W        W41117  20.634  31.667   0.411
75858W        W41118   3.179  15.716  12.584
75859W        W41119  26.279   5.130   2.916
75860W        W41120  19.092   6.475  14.826
75861W        W41121  29.568  37.023   3.801
75862W        W41122   9.990  13.865   2.204
75863W        W41123  15.875   6.840  10.526
75864W        W41124   4.258  38.776   4.566
75865W        W41125  23.303  20.233   1.750
75866W        W41126  19.726  12.705  11.597
75867W        W41127   5.652   5.373   3.700
75868W        W41128  21.691  30.088  14.266
75869W        W41129   6.796  32.190  13.806
75870W        W41130  36.344  39.468   1.437
75871W        W41131  41.718  44.815   2.801
75872W        W41132  22.344  33.717  12.561
75873W        W41133  15.300  35.747   2.639
75874W        W41134   8.425  20.489  10.913
75875W        W41135  24.761   3.254  13.931
75876W        W41136  28.911  24.802  12.625
75877W        W41137  18.093  40.340  11.197
75878W        W41138  13.777  29.495   4.681
75879W        W41139  37.033  12.933   2.540
75880W        W41140  35.921   0.907   2.197
75881W        W41141  10.958  28.976   4.197
75882W        W41142  39.504  35.507  12.573
75883W        W41143  41.740  36.093   0.358
75884W        W41144  12.771   1.666   4.205
75885W        W41145  31.476  42.758  14.872
75886W        W41146  33.138  27.939   2.496
75887W        W41147  30.647  12.516  14.786
75888W        W41148  25.617  32.101   0.200
75889W        W41149  41.418  40.953  12.463
75890W        W41150  10.223  36.793   0.945
75891W        W41151  26.304  29.469  12.175
75892W        W41152  18.630  44.917   3.745
75893W        W41153  25.100   4.893   2.908
75894W        W41154  20.540   1.005  11.670
75895W        W41155  31.323  44.296   0.293
75896W        W41156   2.955  19.165  12.508
75897W        W41157   6.869  13.050   4.812
75898W        W41158  38.357  24.488   0.822
75899W        W41159   4.650   8.729   2.746
75900W        W41160  37.892  24.509  12.762
75901W        W41161  42.224  19.576  12.890
75902W        W41162  24.589   0.981  11.188
75903W        W41163   8.835  11.552   4.169
75904W        W41164   7.370  31.834   4.185
75905W        W41165   4.656   4.289  10.792
75906W        W41166  14.012  16.373   0.850
75907W        W41167  15.921  14.687  14.942
75908W        W41168   4.761  18.462  14.988
75909W        W41169  17.688   5.684   3.206
75910W        W41170  17.115  19.745  13.801
75911W        W41171  38.911  25.830   0.287
75912W        W41172   1.867  30.786  13.941
75913W        W41173  14.407  17.679  13.792
75914W        W41174  23.066  43.363   4.067
75915W        W41175  13.126  38.247  12.025
75916W        W41176  37.810  19.978  12.967
75917W        W41177  36.118  14.853   3.581
75918W        W41178  26.620   7.946   0.557
75919W        W41179  25.576  41.197   5.012
75920W        W41180  12.941  25.373  11.857
75921W        W41181  44.011  21.186  14.405
75922W        W41182   8.821   4.145  11.086
75923W        W41183  18.732  27.240  13.448
75924W        W41184  38.527   8.313   1.877
75925W        W41185   3.000  31.339  14.443
75926W        W41186  13.710  41.224   1.264
75927W        W41187  24.862  18.498  11.251
75928W        W41188  30.663  30.430  14.422
75929W        W41189  13.142  32.473   0.362
75930W        W41190  39.749   4.166  10.713
75931W        W41191  23.187  17.427   5.537
75932W        W41192  19.623   7.304  14.449
75933W        W41193  19.467   8.166  14.580
75934W        W41194   4.606  29.356   2.823
75935W        W41195  23.445  32.366  11.989
75936W        W41196  30.685  17.720   0.471
75937W        W41197  40.247  11.686  13.999
75938W        W41198  34.932  42.351  12.568
75939W        W41199  12.679   3.391   2.729
75940W        W41200  26.279  11.347  13.447
75941W        W41201  34.093  25.658   2.674
75942W        W41202  29.102   9.430   2.286
75943W        W41203   7.456  36.405  11.632
75944W        W41204   2.524   2.692  12.353
75945W        W41205  12.774  30.775   3.227
75946W        W41206  25.583  10.399   1.166
75947W        W41207   6.395  41.510   0.610
75948W        W41208  39.625  38.980   5.001
75949W        W41209  11.779  31.624  14.554
75950W        W41210  20.756  32.632  12.354
75951W        W41211  21.261  25.861  14.969
75952W        W41212  29.006  12.465   3.639
75953W        W41213   4.792  10.610  11.243
75954W        W41214  11.224  18.657   0.241
75955W        W41215   6.203   6.278   1.168
75956W        W41216  23.119  21.489   2.898
75957W        W41217  41.958  22.652   2.728
75958W        W41218   7.095   2.597  11.242
75959W        W41219   1.766  38.384  13.427
75960W        W41220  22.686  32.672  10.938
75961W        W41221  41.998   0.375   4.341
75962W        W41222   2.424  28.590  11.761
75963W        W41223  15.905  34.352   2.158
75964W        W41224  38.907  22.951   0.571
75965W        W41225  38.890  41.099   2.578
75966W        W41226  31.234  11.003  13.841
75967W        W41227  34.503  11.301  10.676
75968W        W41228   3.117   3.028   1.757
75969W        W41229  30.662  31.487  11.643
75970W        W41230   8.422  15.230   2.772
75971W        W41231  18.357  35.269  10.510
75972W        W41232  39.059  32.813  10.506
75973W        W41233   4.636  14.596  11.609
75974W        W41234   0.293  31.531  14.431
75975W        W41235   6.827   6.008  14.350
75976W        W41236  36.929  22.201  13.736
75977W        W41237  29.383  13.840  14.260
75978W        W41238   8.490  11.881  13.955
75979W        W41239  32.895   5.439   1.815
75980W        W41240  28.394   8.507   3.636
75981W        W41241  18.165  29.029   0.804
75982W        W41242  21.263  15.155  14.866
75983W        W41243  39.047   8.830   2.329
75984W        W41244  27.649  12.353  11.470
75985W        W41245  39.080   3.479  13.883
75986W        W41246  20.436  19.527  13.358
75987W        W41247  13.549  24.907   0.282
75988W        W41248  19.121   1.938   3.308
75989W        W41249   1.744  23.786  11.502
75990W        W41250   7.682  26.469   0.490
75991W        W41251  36.511   7.495   2.709
75992W        W41252   4.658  43.954   4.609
75993W        W41253  12.933  37.044  12.415
75994W        W41254  14.807  44.829  11.940
75995W        W41255   1.571  40.952  14.869
75996W        W41256  30.141   8.557   3.216
75997W        W41257  19.177  35.778  13.998
75998W        W41258  33.362  44.243  12.875
75999W        W41259   2.198  17.163  13.003
76000W        W41260   9.759  17.249   4.309
76001W        W41261  14.601  29.682   4.321
76002W        W41262  23.311   6.225  13.271
76003W        W41263  23.744  43.287   3.366
76004W        W41264  40.867  41.234  10.700
76005W        W41265   0.856  34.890   0.439
76006W        W41266  29.626   8.692   4.671
76007W        W41267  35.788  44.227   2.748
76008W        W41268  29.819   7.732  13.387
76009W        W41269   0.757  18.592   3.826
76010W        W41270   0.989  17.178   2.654
76011W        W41271  13.626  14.133   4.098
76012W        W41272   1.461  13.330   4.136
76013W        W41273  43.025  33.048   1.046
76014W        W41274   8.776  41.915   2.888
76015W        W41275  36.871  13.729   0.812
76016W        W41276  36.422  40.509   4.134
76017W        W41277  14.770  33.143  12.013
76018W        W41278   4.342   2.031  10.763
76019W        W41279  22.044  13.868  12.036
76020W        W41280  14.700  33.267   4.207
76021W        W41281  24.269  30.182   1.300
76022W        W41282   2.312  24.444  13.524
76023W        W41283  20.197  38.107   1.890
76024W        W41284  17.204   9.567   0.363
76025W        W41285   3.828  31.257  13.108
76026W        W41286  31.541   0.913   2.166
76027W        W41287  39.732  34.171  11.889
76028W        W41288   0.525  40.179  11.194
76029W        W41289  20.977  39.973   0.386
76030W        W41290  16.153  27.575   1.829
76031W        W41291   8.114   8.680   3.328
76032W        W41292   9.232  16.435   1.906
76033W        W41293  10.575  19.200  11.932
76034W        W41294  10.880  26.119   1.706
76035W        W41295  22.360  31.302   0.208
76036W        W41296  36.952   9.317   1.225
76037W        W41297  28.707  25.899  13.905
76038W        W41298   7.941  44.670   0.002
76039W        W41299  29.139  16.686   0.330
76040W        W41300  20.779  10.843  13.086
76041W        W41301  23.991  11.707  14.754
76042W        W41302   2.673  43.490  12.391
76043W        W41303  31.024   3.387  13.945
76044W        W41304  36.325   5.354   0.894
76045W        W41305  30.920  22.763  13.135
76046W        W41306   6.625   6.220  14.911
76047W        W41307  29.487  42.077   1.025
76048W        W41308  24.058  19.565   3.142
76049W        W41309  25.456   8.716   4.877
76050W        W41310  34.355  23.293  13.452
76051W        W41311  35.875  14.125   0.348
76052W        W41312  20.040  11.839  10.242
76053W        W41313  10.307   4.254  13.769
76054W        W41314  23.020  27.018   3.432
76055W        W41315  21.236  18.283   2.346
76056W        W41316  32.258   0.216   0.001
76057W        W41317   3.954  21.651  12.000
76058W        W41318  11.300  36.196   1.231
76059W        W41319  14.555  33.640   3.313
76060W        W41320  20.020  20.691   3.707
76061W        W41321  28.698  40.498  11.190
76062W        W41322  41.256  17.075  12.921
76063W        W41323  21.082  15.749  12.687
76064W        W41324  22.717  27.879  11.976
76065W        W41325  33.908  38.551   1.922
76066W        W41326  22.196  40.911  11.504
76067W        W41327  31.443  20.633   3.782
76068W        W41328   5.315  19.150   4.231
76069W        W41329   3.333   2.207   4.052
76070W        W41330  35.346  13.856  14.040
76071W        W41331  17.995  26.191   2.907
76072W        W41332  10.125  19.732  11.888
76073W        W41333  43.007  44.419   0.765
76074W        W41334   1.718  38.637  12.962
76075W        W41335  34.023   5.826  14.419
76076W        W41336  20.001  23.078   2.790
76077W        W41337  44.507  29.388   1.824
76078W        W41338  17.467  10.677   2.383
76079W        W41339   3.656  37.941   4.900
76080W        W41340  23.372   5.220   3.649
76081W        W41341  34.568  25.417   3.692
76082W        W41342  16.110   7.013  14.588
76083W        W41343  21.589   8.491   4.646
76084W        W41344  13.815  21.542  11.413
76085W        W41345   3.930  22.005   3.577
76086W        W41346  24.644  22.171  11.592
76087W        W41347  20.192  17.204  11.952
76088W        W41348   8.413   1.936   3.670
76089W        W41349  37.489  16.053   3.228
76090W        W41350   6.890  39.348  11.925
76091W        W41351  39.234  22.804   1.652
76092W        W41352   8.335  35.882  12.288
76093W        W41353  19.113  24.282  12.955
76094W        W41354   2.210  12.786   2.854
76095W        W41355  15.908  10.619  14.123
76096W        W41356  22.702  28.409   1.735
76097W        W41357  25.717   9.589   1.337
76098W        W41358  32.689  19.201   0.816
76099W        W41359  10.513  27.615   0.991
76100W        W41360  34.445  32.958  14.800
76101W        W41361   4.830  36.922  13.108
76102W        W41362  36.067  10.363   4.510
76103W        W41363  44.208  35.969  11.902
76104W        W41364  41.418  14.795   4.923
76105W        W41365  19.032  20.317   3.101
76106W        W41366   2.404  38.382   0.993
76107W        W41367  12.396   8.391   1.324
76108W        W41368  11.157  43.482   4.167
76109W        W41369   5.790  40.098   1.753
76110W        W41370   6.116  22.669  12.153
76111W        W41371  22.137   2.696   4.962
76112W        W41372   4.359  41.338   3.697
76113W        W41373   7.803  26.259  14.987
76114W        W41374  33.282  40.804  12.203
76115W        W41375   2.989  11.180   4.059
76116W        W41376   1.388   9.605  11.096
76117W        W41377  12.144  29.515   2.822
76118W        W41378  34.541  40.302   3.650
76119W        W41379  42.217  17.738   0.865
76120W        W41380  28.052  33.331  12.506
76121W        W41381  33.330  18.611  12.933
76122W        W41382  30.674  13.417  12.073
76123W        W41383  41.538  13.271   3.734
76124W        W41384  28.151  24.216  12.509
76125W        W41385  29.207  41.786   4.848
76126W        W41386  13.772  16.331  11.223
76127W        W41387  22.571  38.930   4.543
76128W        W41388  39.515  19.024  13.001
76129W        W41389   6.309  33.098   4.151
76130W        W41390  10.275   9.724   4.021
76131W        W41391   6.453  27.519   3.749
76132W        W41392  39.964  12.405  13.023
76133W        W41393  10.257   9.656   2.106
76134W        W41394  34.991  23.643   2.634
76135W        W41395  19.562  14.789   0.163
76136W        W41396   1.683  14.917   3.596
76137W        W41397  16.342  15.254   4.112
76138W        W41398  39.773  22.618   2.937
76139W        W41399   8.676  36.888  14.467
76140W        W41400  41.445  29.366   3.704
76141W        W41401  15.096  40.282  13.578
76142W        W41402  29.506  15.253  10.460
76143W        W41403   2.739  25.958   2.621
76144W        W41404  33.228  10.753   0.338
76145W        W41405  38.098  39.281   0.607
76146W        W41406  39.327  12.747   0.874
76147W        W41407  15.198   9.565   4.225
76148W        W41408  36.811  10.132   4.173
76149W        W41409  14.577   1.054  11.032
76150W        W41410  12.058  39.219  14.031
76151W        W41411  26.484  26.124  13.781
76152W        W41412  12.149   4.741   3.584
76153W        W41413   1.616  43.469   3.242
76154W        W41414  14.600  22.462  14.740
76155W        W41415  19.129  37.782  11.420
76156W        W41416  23.214   6.353   1.872
76157W        W41417  31.832  36.057   4.976
76158W        W41418   4.365  14.160   3.310
76159W        W41419  32.026  31.987   0.921
76160W        W41420   4.841   7.370  13.426
76161W        W41421  23.280  33.028  14.744
76162W        W41422  23.122  18.849  13.403
76163W        W41423  30.013  15.407  10.609
76164W        W41424  44.085  32.811  11.988
76165W        W41425  13.490   8.195  13.594
76166W        W41426  19.276  39.872   2.842
76167W        W41427  20.441  38.167   4.079
76168W        W41428   2.973  39.373  13.022
76169W        W41429  11.090  37.978   3.621
76170W        W41430  14.760  22.196   0.442
76171W        W41431  13.113  15.886  14.953
76172W        W41432  33.020  42.810  11.140
76173W        W41433  10.810  23.423  14.994
76174W        W41434  23.082  39.280   3.155
76175W        W41435  27.005  24.682  12.915
76176W        W41436   2.539  22.750  11.006
76177W        W41437  26.627  16.130   2.350
76178W        W41438  38.827  25.432  10.594
76179W        W41439  17.024   3.109  12.582
76180W        W41440  28.375  37.909   3.553
76181W        W41441  38.800  19.280   1.741
76182W        W41442  29.101  35.183   3.505
76183W        W41443  22.086  29.109  13.517
76184W        W41444  17.592  17.997  11.081
76185W        W41445  27.987   9.243  14.764
76186W        W41446  44.204  40.022  10.841
76187W        W41447  30.862  31.501  10.838
76188W        W41448  39.543  38.895   3.249
76189W        W41449  37.984  17.730   1.809
76190W        W41450  41.837  27.858  10.288
76191W        W41451   9.571  10.639   0.348
76192W        W41452  32.003  44.672   0.901
76193W        W41453  31.942  22.359  13.854
76194W        W41454  39.448  22.197   0.617
76195W        W41455  41.391  10.672  14.419
76196W        W41456  29.033  13.393   2.218
76197W        W41457   4.210   0.699   1.346
76198W        W41458   1.975  37.623  14.335
76199W        W41459  11.282   3.005   1.879
76200W        W41460   2.323  32.888  13.892
76201W        W41461  25.053  15.080  13.908
76202W        W41462  38.013  40.095  14.382
76203W        W41463   9.157  17.484  14.912
76204W        W41464  39.228   2.291   2.675
76205W        W41465   8.831  24.911  12.795
76206W        W41466  17.094   1.412  13.837
76207W        W41467  20.329   2.713  10.695
76208W        W41468  14.553  38.930  11.056
76209W        W41469   4.774  17.347   0.886
76210W        W41470  44.312  36.889  10.516
76211W        W41471  32.811  26.968  12.152
76212W        W41472  37.843  34.137  12.468
76213W        W41473  42.377  37.044   1.406
76214W        W41474  36.928  40.250  13.502
76215W        W41475  27.084   9.233  14.436
76216W        W41476  40.885  11.664   3.686
76217W        W41477  20.756   9.845   4.591
76218W        W41478  43.543  34.026  14.872
76219W        W41479  31.096  15.366   0.531
76220W        W41480  22.939  37.235   4.577
76221W        W41481  35.377   6.891   3.641
76222W        W41482  24.051   5.226  13.961
76223W        W41483  17.685  39.280  11.576
76224W        W41484  39.228  35.864   3.482
76225W        W41485  10.154  23.684  13.538
76226W        W41486  25.545  18.325   3.089
76227W        W41487  12.493  10.459  14.934
76228W        W41488  21.277  29.164  12.922
76229W        W41489   6.894  23.034   2.181
76230W        W41490  14.102  24.080  11.002
76231W        W41491  39.225  35.444  11.051
76232W        W41492   1.127  22.063   4.983
76233W        W41493  10.000  32.105   0.274
76234W        W41494  37.790  17.265  11.706
76235W        W41495   3.457  17.708  12.838
76236W        W41496  16.372   9.828   5.022
76237W        W41497  16.491  43.128   5.159
76238W        W41498  22.407   1.751   1.867
76239W        W41499   6.439   0.330   3.517
76240W        W41500  42.817  26.933  12.462
76241W        W41501  12.366   7.103  13.658
76242W        W41502   2.966  30.475  14.948
76243W        W41503  44.982  43.996   0.389
76244W        W41504   0.836  32.620  12.014
76245W        W41505   6.391  11.644  11.188
76246W        W41506  17.755   4.700  12.201
76247W        W41507  27.119  24.223  13.211
76248W        W41508  36.356  33.366   0.930
76249W        W41509  43.208  27.499   2.639
76250W        W41510  31.423  26.647   2.273
76251W        W41511  32.189  36.081   4.524
76252W        W41512  32.300   2.781   3.371
76253W        W41513   4.986  30.825   2.343
76254W        W41514  30.082  28.410   4.114
76255W        W41515  40.392  39.934   4.311
76256W        W41516   8.758  12.716  11.284
76257W        W41517   8.861   0.034   1.734
76258W        W41518  36.972  38.588   4.371
76259W        W41519  31.438  19.467   0.718
76260W        W41520  42.942  41.837  12.353
76261W        W41521  27.161  43.802  14.449
76262W        W41522  10.660  28.081   0.338
76263W        W41523  16.196  42.795   3.403
76264W        W41524   3.008  26.729   1.237
76265W        W41525  23.412  16.336  14.540
76266W        W41526  21.986  14.762  12.991
76267W        W41527  43.375  31.581   4.403
76268W        W41528  30.000  12.841   0.359
76269W        W41529  10.998  43.925  13.072
76270W        W41530  21.574  10.507  11.992
76271W        W41531  33.936  40.029   1.818
76272W        W41532   3.137  43.349   4.167
76273W        W41533  43.422  10.876   1.150
76274W        W41534  33.654  38.527   4.633
76275W        W41535  36.847  42.688   1.257
76276W        W41536  11.182  25.691   2.367
76277W        W41537  11.989  17.520   3.238
76278W        W41538   2.924   4.454  13.365
76279W        W41539  10.678   2.879   4.478
76280W        W41540  29.140   8.404   3.175
76281W        W41541  28.419  36.766   0.734
76282W        W41542  44.479  21.772  11.695
76283W        W41543  23.256  31.172   3.485
76284W        W41544  40.692  37.880  11.273
76285W        W41545  33.546  34.339  11.720
76286W        W41546   0.301   7.942  12.302
76287W        W41547  14.700  37.196   3.234
76288W        W41548  30.419  27.467   1.407
76289W        W41549  32.527  23.695  12.303
76290W        W41550  41.438  15.278  12.120
76291W        W41551  10.278  28.570  14.931
76292W        W41552  27.036  22.625  13.379
76293W        W41553   2.569  36.347   0.987
76294W        W41554  36.338  13.665  13.900
76295W        W41555   0.344  40.492   1.328
76296W        W41556  15.117   0.009   4.183
76297W        W41557  28.580  38.615  14.604
76298W        W41558  36.229  41.997   4.179
76299W        W41559  10.307  22.147  14.954
76300W        W41560  34.821  18.686  14.347
76301W        W41561  12.396  21.093   1.858
76302W        W41562  13.021   2.988   4.144
76303W        W41563  41.733   5.357   2.252
76304W        W41564  40.444   8.671   2.860
76305W        W41565  20.785  23.024   2.340
76306W        W41566   3.636  32.047   3.264
76307W        W41567  12.343  21.364  10.480
76308W        W41568  13.561  35.958  10.937
76309W        W41569  43.818   1.335   2.964
76310W        W41570  41.367  44.743   4.484
76311W        W41571  29.763  38.473   2.592
76312W        W41572  41.277   0.803   2.823
76313W        W41573  26.993  44.690   4.723
76314W        W41574  28.181  27.711  11.494
76315W        W41575  34.067  19.244   3.321
76316W        W41576  24.458  19.274  13.456
76317W        W41577  35.382  16.741  12.039
76318W        W41578  21.572  24.737  11.565
76319W        W41579  41.827  34.920   4.676
76320W        W41580  39.869  15.066  14.582
76321W        W41581  36.296  36.049  13.944
76322W        W41582  17.154  27.707   3.010
76323W        W41583   9.116  15.672  13.811
76324W        W41584  21.990  16.708   4.694
76325W        W41585   6.635   2.423   0.229
76326W        W41586  42.980   5.260   3.226
76327W        W41587  19.157  36.540  13.816
76328W        W41588  17.085   3.109  10.326
76329W        W41589  25.919  38.970  14.609
76330W        W41590  34.895  32.818  10.758
76331W        W41591  14.286  12.748   3.823
76332W        W41592  25.630  19.732   2.946
76333W        W41593   2.193  38.820  13.788
76334W        W41594  41.632  23.749  11.448
76335W        W41595  34.470  25.163  12.701
76336W        W41596  10.358   6.149  14.557
76337W        W41597  24.030  32.107   1.460
76338W        W41598  18.344   5.990   2.397
76339W        W41599  37.652  27.059  11.095
76340W        W41600  33.578   9.366  14.234
76341W        W41601  19.159  36.219   2.757
76342W        W41602   3.741  15.206  11.423
76343W        W41603  27.405  41.958  11.516
76344W        W41604  15.648  11.155   1.536
76345W        W41605   0.865  25.921   3.062
76346W        W41606  18.239  10.247   2.176
76347W        W41607  35.585   5.368  12.453
76348W        W41608  35.948  41.338  14.341
76349W        W41609  34.356   7.007   4.127
76350W        W41610  19.071  17.667  13.917
76351W        W41611  44.970  41.011   3.023
76352W        W41612  18.820  40.594   2.714
76353W        W41613  23.305  43.508   1.885
76354W        W41614  23.622  33.935   2.773
76355W        W41615   2.431  22.762   5.525
76356W        W41616  22.974  27.562  12.318
76357W        W41617  33.893  13.962  12.904
76358W        W41618  19.044  43.337  13.948
76359W        W41619  38.892  36.169  13.488
76360W        W41620  26.111   0.160   1.464
76361W        W41621  41.180   8.118   2.015
76362W        W41622  34.032   9.951   3.630
76363W        W41623  31.952  41.755   3.801
76364W        W41624  35.662  30.870   4.091
76365W        W41625  29.587  29.911  11.916
76366W        W41626  20.602   1.908   2.469
76367W        W41627   5.766  41.564  11.148
76368W        W41628  31.427  36.535  12.987
76369W        W41629   5.292   1.579   0.455
76370W        W41630  16.112  33.225  14.154
76371W        W41631   3.516  30.955   3.231
76372W        W41632  15.187  40.368   1.875
76373W        W41633  10.411  35.041   2.825
76374W        W41634  26.636  42.828  12.921
76375W        W41635  12.564  13.776  11.153
76376W        W41636  41.693  32.420   1.331
76377W        W41637   4.913  25.172  11.589
76378W        W41638  30.206  21.548   0.913
76379W        W41639  13.675  26.584   4.173
76380W        W41640  37.157  30.049  12.948
76381W        W41641  33.447   3.254   2.219
76382W        W41642  44.605  37.404   0.228
76383W        W41643  35.494   5.176   4.179
76384W        W41644  16.228  36.302   1.261
76385W        W41645  34.701  25.917  14.345
76386W        W41646  12.261  24.215  11.121
76387W        W41647   3.807   8.066   3.838
76388W        W41648  17.836  38.345   1.266
76389W        W41649  29.084   8.708  11.592
76390W        W41650   1.509  42.079  11.931
76391W        W41651  37.302  14.993  11.471
76392W        W41652  28.976  38.117  10.557
76393W        W41653   8.677  26.032  14.185
76394W        W41654  10.339  41.107   4.671
76395W        W41655  25.760  40.971   1.367
76396W        W41656  41.375   0.987   4.701
76397W        W41657  11.670  24.104   0.679
76398W        W41658  32.486   8.874  14.947
76399W        W41659  34.735  19.748   2.636
76400W        W41660  25.393   5.494   2.107
76401W        W41661  34.348  44.297  14.469
76402W        W41662  44.287  28.714   1.300
76403W        W41663  26.428  17.329   3.724
76404W        W41664   1.899   8.583   1.342
76405W        W41665  24.826   7.355   0.063
76406W        W41666  39.324   9.668   2.707
76407W        W41667   1.008  37.859  11.759
76408W        W41668   7.290   1.291  10.876
76409W        W41669   1.345   8.618   2.194
76410W        W41670  15.411   8.730   4.834
76411W        W41671  25.248  19.750   3.279
76412W        W41672  17.545  21.833  12.074
76413W        W41673  33.825  29.097   3.765
76414W        W41674  20.679   7.971  12.121
76415W        W41675   9.709  23.028   4.633
76416W        W41676   2.980   0.937  11.256
76417W        W41677  24.763  13.109   0.847
76418W        W41678   9.432  39.394  11.031
76419W        W41679  17.142  30.415   4.015
76420W        W41680   2.640  28.217   1.427
76421W        W41681  44.297   5.618  13.075
76422W        W41682  43.275  30.016   2.738
76423W        W41683  30.912   4.358   4.682
76424W        W41684  41.006   4.713  10.915
76425W        W41685  43.592  28.160  14.468
76426W        W41686  24.923  19.515  13.036
76427W        W41687  21.776  32.536  12.337
76428W        W41688  41.003   3.033  13.032
76429W        W41689  33.852  12.245   1.219
76430W        W41690  42.879  40.465   1.463
76431W        W41691  31.182  16.557  12.823
76432W        W41692   7.372  42.521   2.101
76433W        W41693  37.809  17.521  11.249
76434W        W41694  39.939   1.289  14.261
76435W        W41695  35.983   8.806   3.333
76436W        W41696  40.070  43.415   0.481
76437W        W41697   7.702   5.328   4.752
76438W        W41698   2.003  18.368   4.468
76439W        W41699  33.091  31.826   0.483
76440W        W41700  10.775  36.468  12.365
76441W        W41701  36.975  43.373   2.256
76442W        W41702  38.042  34.377   0.800
76443W        W41703  29.936  27.959   3.195
76444W        W41704  27.089  14.206  11.100
76445W        W41705   5.076  15.536  14.345
76446W        W41706  32.337  28.405   1.763
76447W        W41707  29.515  15.202   4.595
76448W        W41708  15.540  11.963  10.046
76449W        W41709  10.705   5.619   2.669
76450W        W41710  20.775   8.407  13.242
76451W        W41711   1.838  21.479  13.920
76452W        W41712  17.973   5.979   0.864
76453W        W41713  18.231  32.051  14.862
76454W        W41714  11.283   5.312   4.631
76455W        W41715  36.145   8.271  12.760
76456W        W41716  32.682   6.227  13.569
76457W        W41717  25.546  33.814  12.452
76458W        W41718  38.614  15.118  12.351
76459W        W41719  41.745  27.656  10.749
76460W        W41720  28.703  30.385   4.952
76461W        W41721  10.699  38.039   0.722
76462W        W41722   0.224   8.296  10.490
76463W        W41723   9.002  22.695   0.027
76464W        W41724  30.126  12.878  14.490
76465W        W41725  23.543  13.142   4.004
76466W        W41726   5.178   7.186   1.743
76467W        W41727  43.360   5.320  12.247
76468W        W41728   8.251  39.266   0.915
76469W        W41729  26.586  12.666   3.896
76470W        W41730  32.101  24.250  11.159
76471W        W41731   9.309  25.579  13.123
76472W        W41732  41.236   8.256   1.002
76473W        W41733  21.222  33.015  14.909
76474W        W41734  20.587  19.541   4.686
76475W        W41735  32.244   7.850   3.777
76476W        W41736  10.623   3.019  14.315
76477W        W41737  27.487  10.654  12.419
76478W        W41738  15.283  36.062   4.855
76479W        W41739  43.021   7.433   3.691
76480W        W41740  27.012  11.610  14.940
76481W        W41741  44.994  33.483   0.738
76482W        W41742  32.957  28.155   3.331
76483W        W41743  41.125  25.522   4.541
76484W        W41744   2.280  15.371   1.740
76485W        W41745   3.920   9.226   1.854
76486W        W41746  42.920  20.124   3.043
76487W        W41747  23.205   5.004  14.295
76488W        W41748  34.549  13.435  11.692
76489W        W41749  10.421  19.741   4.540
76490W        W41750  34.594  33.334   2.294
76491W        W41751  13.695   2.235  11.606
76492W        W41752  19.133  25.356  11.840
76493W        W41753  33.562   2.715  14.460
76494W        W41754   1.343   4.322   0.480
76495W        W41755  18.748   6.112   1.708
76496W        W41756  36.631   0.215  11.664
76497W        W41757  29.529   1.044   4.170
76498W        W41758  20.906  25.680   2.707
76499W        W41759   6.681  37.697  12.143
76500W        W41760  31.943  35.638  11.664
76501W        W41761   7.390   9.763  14.306
76502W        W41762  35.067  34.012   2.879
76503W        W41763  16.530   5.369   3.691
76504W        W41764  27.291  30.754  13.480
76505W        W41765  35.507  38.127   1.713
76506W        W41766  37.890  12.440   2.079
76507W        W41767  11.611  23.522   4.205
76508W        W41768  30.063  30.126  11.686
76509W        W41769  24.529  33.935   4.276
76510W        W41770   8.604   8.210   2.121
76511W        W41771   1.329  43.003  12.383
76512W        W41772  43.654   2.830   3.332
76513W        W41773  40.943  13.592   3.283
76514W        W41774  23.570  19.179   1.703
76515W        W41775  38.615  26.783   1.992
76516W        W41776  27.385  28.444   0.876
76517W        W41777  35.558  39.576   0.769
76518W        W41778   1.730  22.696   3.552
76519W        W41779  33.677  21.961  12.038
76520W        W41780  25.659   1.442  11.392
76521W        W41781  29.028   7.125   0.817
76522W        W41782  17.518  17.034  13.430
76523W        W41783   5.001  27.642  11.155
76524W        W41784  34.760   6.741  12.627
76525W        W41785  44.859   2.639   3.654
76526W        W41786  13.407   7.975   2.257
76527W        W41787   3.206  31.254  10.574
76528W        W41788  37.649  22.754  12.965
76529W        W41789   7.011   7.117   3.928
76530W        W41790   7.473  40.977   4.145
76531W        W41791  35.435  15.318   3.225
76532W        W41792  21.101  29.039  10.577
76533W        W41793  32.532  36.653   1.205
76534W        W41794  39.049  16.804   0.280
76535W        W41795  17.105  14.273  13.821
76536W        W41796   9.488  11.986  12.055
76537W        W41797  42.405  37.143   2.443
76538W        W41798   2.902  43.844   0.275
76539W        W41799   3.092  31.904  11.854
76540W        W41800   5.364  16.275   3.747
76541W        W41801  43.131  33.411   4.191
76542W        W41802  16.339  35.185   2.306
76543W        W41803  13.793  31.619   1.814
76544W        W41804  26.766   3.000   1.305
76545W        W41805  36.891  23.114  12.053
76546W        W41806  36.283  20.722  11.576
76547W        W41807  24.958  32.784   4.722
76548W        W41808  37.578  19.715  13.917
76549W        W41809   2.001   4.197  12.509
76550W        W41810  38.806   5.886  10.653
76551W        W41811  26.943   8.677   1.182
76552W        W41812  18.039  30.601   2.096
76553W        W41813   2.842  13.597   2.290
76554W        W41814  27.594  15.747   1.630
76555W        W41815  17.285  37.395  13.551
76556W        W41816  33.309  32.415   4.132
76557W        W41817  41.764  21.604  11.068
76558W        W41818  10.150  30.159  12.985
76559W        W41819  24.713  16.652  12.350
76560W        W41820   6.924  41.885   3.659
76561W        W41821  31.520  39.607   0.953
76562W        W41822  28.016  34.978   4.187
76563W        W41823   3.870   7.371   3.137
76564W        W41824  15.793  20.226   0.921
76565W        W41825  21.494   6.427  14.425
76566W        W41826  32.588  25.213   3.256
76567W        W41827  36.158   8.301  12.260
76568W        W41828  25.551  24.725   0.817
76569W        W41829  36.945  42.084   4.728
76570W        W41830  41.473  16.857  14.773
76571W        W41831  37.869   7.433   4.111
76572W        W41832  11.751  37.065   2.664
76573W        W41833  20.796  36.615   3.679
76574W        W41834  29.489  21.248   2.237
76575W        W41835  25.415   0.624   2.687
76576W        W41836  43.350   5.885   0.291
76577W        W41837  19.124   7.657  11.177
76578W        W41838  11.737  27.742  14.553
76579W        W41839   4.236  34.687  12.712
76580W        W41840  40.567  32.408  12.973
76581W        W41841   3.780   5.867  11.562
76582W        W41842  44.411  41.407  10.113
76583W        W41843  15.276  14.305  14.434
76584W        W41844  11.670   5.185   3.290
76585W        W41845   9.788   7.985  13.628
76586W        W41846  18.022  32.285  10.522
76587W        W41847  13.917  16.803   1.143
76588W        W41848  44.439   7.292   0.939
76589W        W41849  27.341  22.228   0.568
76590W        W41850  14.842  19.785   1.809
76591W        W41851  41.223   0.524  14.941
76592W        W41852  23.609  13.019  13.809
76593W        W41853  21.498  25.495   1.892
76594W        W41854  44.332  33.151   5.251
76595W        W41855  23.611  29.736  10.691
76596W        W41856  26.628  31.001  13.121
76597W        W41857  35.058  28.117   3.655
76598W        W41858  39.756  44.754  13.959
76599W        W41859  30.744  40.977  12.895
76600W        W41860   1.237   4.209   2.291
76601W        W41861  15.559  25.215   2.245
76602W        W41862   6.404   0.317  11.885
76603W        W41863  14.318  24.621  13.312
76604W        W41864   9.206  43.230   1.673
76605W        W41865  26.343  26.395   4.577
76606W        W41866  21.843   9.893   3.666
76607W        W41867  31.492  14.709   0.510
76608W        W41868  40.597   1.807  11.411
76609W        W41869  29.508   0.652  13.451
76610W        W41870  27.154  28.736   4.129
76611W        W41871  21.783  32.997   4.495
76612W        W41872  41.459   4.768   1.287
76613W        W41873  15.599  39.888  11.642
76614W        W41874  31.100  35.433   0.749
76615W        W41875  43.288  10.245   2.076
76616W        W41876  36.373  10.698   1.148
76617W        W41877  11.334  10.407   1.339
76618W        W41878  18.922  34.382   1.306
76619W        W41879  21.445   7.911  14.406
76620W        W41880   7.919  28.667   0.052
76621W        W41881  11.035  33.991  14.632
76622W        W41882  34.338  29.567  13.937
76623W        W41883  33.076  42.349  12.056
76624W        W41884  14.120  29.025   2.260
76625W        W41885  40.568   5.193   4.634
76626W        W41886  41.279  22.243  13.835
76627W        W41887  20.632  23.002   1.409
76628W        W41888  31.301  32.062   4.236
76629W        W41889  15.487  12.620  12.684
76630W        W41890  22.508   8.647   1.358
76631W        W41891  13.675  29.629   1.826
76632W        W41892  28.369  18.633   3.494
76633W        W41893   2.018  16.865  13.977
76634W        W41894  32.086  25.514  12.188
76635W        W41895  40.790  21.655  14.851
76636W        W41896  13.914  34.557  11.542
76637W        W41897  44.407   1.203   1.842
76638W        W41898  25.128  13.150  11.965
76639W        W41899   6.459   8.129   3.272
76640W        W41900  14.177  21.473  12.128
76641W        W41901   4.980   2.901  12.398
76642W        W41902  15.108  24.545   3.672
76643W        W41903  27.619   8.057  13.086
76644W        W41904  43.835  24.277   1.826
76645W        W41905  37.077  18.531  14.824
76646W        W41906  20.540   7.808   0.715
76647W        W41907  38.513  30.401   4.149
76648W        W41908  30.527  35.825  10.689
76649W        W41909  17.581   8.923  10.859
76650W        W41910  19.964  31.733  11.873
76651W        W41911  39.008  37.354   3.822
76652W        W41912  32.518   3.383  10.372
76653W        W41913  39.314  12.785   3.644
76654W        W41914  14.035   6.339   0.275
76655W        W41915  41.256  14.325   2.273
76656W        W41916  12.381  15.118   0.086
76657W        W41917   7.326  12.592   1.302
76658W        W41918   1.951   6.608  12.005
76659W        W41919  16.718   4.908  10.842
76660W        W41920  18.049  32.784   2.291
76661W        W41921  14.655  19.611   2.682
76662W        W41922  20.140  14.154   4.469
76663W        W41923   3.180  10.763  10.441
76664W        W41924   5.951   7.609  12.166
76665W        W41925  21.510   2.742  14.014
76666W        W41926   1.101  44.938  11.060
76667W        W41927  13.637   2.262   2.952
76668W        W41928  15.428  36.021  12.623
76669W        W41929  28.955  13.100  10.541
76670W        W41930  28.104  21.518  14.806
76671W        W41931   8.895  19.324   1.795
76672W        W41932  11.180  12.822  12.700
76673W        W41933  28.432  15.132   4.479
76674W        W41934  31.449  15.109   4.376
76675W        W41935  16.471   1.154   1.846
76676W        W41936  21.565  17.616   1.362
76677W        W41937   7.399  22.150  12.042
76678W        W41938  16.602   0.423  11.571
76679W        W41939  27.862  40.912   3.656
76680W        W41940  31.057   3.733   3.102
76681W        W41941  11.684  17.639   0.798
76682W        W41942  16.284  38.034  11.167
76683W        W41943  17.021  13.666   0.392
76684W        W41944  30.853  24.664   0.813
76685W        W41945  10.111  18.546  13.754
76686W        W41946  12.638  43.401   0.927
76687W        W41947  41.485   4.998   0.407
76688W        W41948  14.536  29.627  14.731
76689W        W41949  13.297  43.288  12.071
76690W        W41950  17.874  12.643   3.190
76691W        W41951  19.981  24.668  14.933
76692W        W41952   5.291  14.307   0.415
76693W        W41953  36.227  10.491  12.493
76694W        W41954  27.020  21.645  10.665
76695W        W41955  43.325  11.842  13.378
76696W        W41956  26.265  36.534   1.338
76697W        W41957   1.177  28.541   3.678
76698W        W41958  42.882  18.765   2.111
76699W        W41959  39.169  31.493   3.191
76700W        W41960  22.812  43.574  13.593
76701W        W41961  21.575   5.405   0.289
76702W        W41962  11.803  27.065  10.211
76703W        W41963  20.217  38.765  14.905
76704W        W41964  27.666  29.362   1.778
76705W        W41965  32.835  29.666   2.798
76706W        W41966  27.495  14.709   3.273
76707W        W41967  13.685   4.215  10.664
76708W        W41968  21.610   7.382  14.370
76709W        W41969  41.305   1.648  12.648
76710W        W41970  37.559  30.627   4.832
76711W        W41971   3.916  11.191   2.802
76712W        W41972  26.977  11.370  12.052
76713W        W41973  35.865  11.874  10.761
76714W        W41974  21.003  44.382   0.221
76715W        W41975  16.618  34.126  14.440
76716W        W41976   8.187   5.393   4.592
76717W        W41977   3.710  29.922  12.061
76718W        W41978   0.610  11.434  13.420
76719W        W41979   5.768  10.890  13.537
76720W        W41980  41.515  33.970  10.966
76721W        W41981  42.840  41.329   4.363
76722W        W41982  33.506  34.693   4.076
76723W        W41983  42.936  22.375   0.379
76724W        W41984  18.520  32.551   2.359
76725W        W41985  44.302  16.519   3.313
76726W        W41986  40.010  38.126   4.180
76727W        W41987  17.964   4.199   2.439
76728W        W41988  16.239  41.870  11.368
76729W        W41989   9.285   0.152   4.336
76730W        W41990  32.553   1.225  14.283
76731W        W41991  18.389  31.045   2.805
76732W        W41992  24.491  21.760   0.870
76733W        W41993  32.176  21.214  12.008
76734W        W41994   9.633   6.224   4.545
76735W        W41995  33.932  26.013  12.261
76736W        W41996  36.566  41.896  14.193
76737W        W41997  23.714  12.012  13.908
76738W        W41998  17.147  21.765  14.834
76739W        W41999  15.361   0.526  14.030
76740W        W42000   2.719   4.946  10.750
76741W        W42001  16.233  26.779   3.331
76742W        W42002  10.769  34.588  10.688
76743W        W42003  44.271  22.625  12.663
76744W        W42004   9.261  38.304   3.105
76745W        W42005   6.613   3.658   4.932
76746W        W42006   8.756  36.993  14.996
76747W        W42007  34.442  19.059   0.543
76748W        W42008  31.826   1.753  13.793
76749W        W42009   5.844  41.722   4.171
76750W        W42010  19.479   5.711   0.828
76751W        W42011  13.149   8.666  13.608
76752W        W42012  34.412  41.597   1.319
76753W        W42013  38.453   4.923  13.936
76754W        W42014  26.384  10.425   3.695
76755W        W42015  13.713  15.182  11.722
76756W        W42016  17.867  21.603  12.489
76757W        W42017  39.997  22.986   2.630
76758W        W42018   7.828  18.095  13.411
76759W        W42019   0.239  19.324  14.472
76760W        W42020  40.745  27.483  14.589
76761W        W42021  32.380  29.991  12.560
76762W        W42022  23.131   8.663  11.381
76763W        W42023  14.969  14.334   1.227
76764W        W42024   7.410  40.061   0.286
76765W        W42025   5.689  25.917   4.182
76766W        W42026  44.550  40.927   1.144
76767W        W42027   9.170  24.909   4.528
76768W        W42028  17.117  29.962   2.330
76769W        W42029  21.121   5.824  13.895
76770W        W42030  16.040  43.137   2.304
76771W        W42031  27.834  20.480   0.913
76772W        W42032   3.748   5.494   2.255
76773W        W42033  39.447  37.502   1.245
76774W        W42034   8.686   3.685   2.477
76775W        W42035   3.683  15.595  10.778
76776W        W42036  43.087  26.029  12.039
76777W        W42037  13.801  10.311   3.208
76778W        W42038  17.417   3.846   0.843
76779W        W42039  33.561  30.525   2.267
76780W        W42040  43.613  43.432  13.408
76781W        W42041  31.989  17.590   1.946
76782W        W42042  36.914   7.755   5.176
76783W        W42043  36.025  41.925   2.767
76784W        W42044  24.981  18.096  13.431
76785W        W42045  25.232  37.797   3.700
76786W        W42046  21.231   6.390   0.832
76787W        W42047  41.534  40.978   4.370
76788W        W42048   6.843  17.828   0.852
76789W        W42049  33.515  16.155   0.995
76790W        W42050   6.157  11.388   1.317
76791W        W42051  31.384  23.674  12.344
76792W        W42052  22.446  30.679   3.216
76793W        W42053  17.223  15.535   3.757
76794W        W42054  20.627  27.697   0.751
76795W        W42055  30.015  43.888  14.793
76796W        W42056  10.359   9.401  14.544
76797W        W42057   3.975   4.322  14.743
76798W        W42058  42.688  10.367   1.202
76799W        W42059  13.801  12.364  12.504
76800W        W42060  31.969  15.642  13.022
76801W        W42061  27.072   5.359  14.436
76802W        W42062  15.881  15.781  14.540
76803W        W42063  12.180  19.208  13.872
76804W        W42064   4.384  34.974   4.179
76805W        W42065  18.024  22.251   2.693
76806W        W42066  29.899  44.271   2.841
76807W        W42067  41.759   3.882   2.502
76808W        W42068  28.064  15.552   1.499
76809W        W42069  30.557   0.808   5.056
76810W        W42070   3.206  40.509   2.833
76811W        W42071  20.168  19.794   1.269
76812W        W42072  25.157  26.723  10.184
76813W        W42073  25.477  26.460   4.217
76814W        W42074  44.410   9.330   2.617
76815W        W42075  39.939  18.823  10.806
76816W        W42076  23.050  40.172  10.326
76817W        W42077   4.344  42.352  10.758
76818W        W42078   1.198  18.460   0.145
76819W        W42079  43.827  26.048  13.568
76820W        W42080  27.387  43.978  11.942
76821W        W42081   9.861   2.903   2.717
76822W        W42082  14.642  30.911   2.717
76823W        W42083  31.048  41.241  10.799
76824W        W42084   9.880   4.845   4.133
76825W        W42085  19.527  16.485   4.516
76826W        W42086   3.544  41.141  11.071
76827W        W42087  13.749  30.970   4.553
76828W        W42088   0.814  13.847  14.261
76829W        W42089  25.651  12.704   0.227
76830W        W42090  29.179  38.930  10.787
76831W        W42091  35.851  13.823  13.987
76832W        W42092  23.286  44.444   3.643
76833W        W42093  20.690   6.455   3.287
76834W        W42094  39.533  29.813   0.408
76835W        W42095  42.929   3.841   4.494
76836W        W42096  15.269  28.536   2.323
76837W        W42097  37.496   5.024   2.501
76838W        W42098   4.740   4.749   5.128
76839W        W42099  26.661  33.116  10.332
76840W        W42100  41.511   3.261  13.939
76841W        W42101  25.594  23.208  14.666
76842W        W42102  38.932  27.499  13.665
76843W        W42103   5.439  44.775   3.266
76844W        W42104  27.226  30.544   3.600
76845W        W42105  32.456  39.773  11.761
76846W        W42106  15.106  12.973  13.955
76847W        W42107  16.658  32.546  12.667
76848W        W42108  34.054  29.914   3.605
76849W        W42109  20.319  15.722   2.253
76850W        W42110  16.297  11.812   3.218
76851W        W42111  31.812  12.873  13.473
76852W        W42112  35.105  22.748   2.744
76853W        W42113  41.369  19.878   3.724
76854W        W42114  23.956  41.552  13.757
76855W        W42115  20.627  37.288   4.228
76856W        W42116   5.753  19.080  11.306
76857W        W42117   8.669  28.411   2.366
76858W        W42118  24.275  15.534  10.234
76859W        W42119  27.639  28.905   0.816
76860W        W42120   6.826  10.152  12.100
76861W        W42121   2.767  11.107   0.295
76862W        W42122  17.223  33.880  10.901
76863W        W42123  17.797  33.189  14.534
76864W        W42124  20.088  36.618  14.424
76865W        W42125  41.903  15.861  13.409
76866W        W42126   9.668  24.514   1.396
76867W        W42127  35.690  25.835   4.331
76868W        W42128  39.106  25.822  11.867
76869W        W42129  29.086   6.940  12.922
76870W        W42130  35.861  17.591   1.284
76871W        W42131  29.192  18.869  10.488
76872W        W42132  39.730  34.425   1.988
76873W        W42133  14.236  34.943   1.083
76874W        W42134  40.788  30.143   3.660
76875W        W42135  27.322  17.664   3.606
76876W        W42136   2.713  23.978   2.136
76877W        W42137  34.589  11.276  12.973
76878W        W42138  16.736  29.289   4.989
76879W        W42139  10.720   2.744  13.892
76880W        W42140  14.085  12.214   4.980
76881W        W42141   7.722  29.145  11.166
76882W        W42142  44.453  24.542   0.955
76883W        W42143   8.126  27.054   3.123
76884W        W42144   1.382  33.369   4.306
76885W        W42145   7.231  27.324   3.340
76886W        W42146   4.251   3.339  12.580
76887W        W42147  28.653  42.527   3.225
76888W        W42148  14.952  24.182   0.253
76889W        W42149  24.887  26.366  11.094
76890W        W42150   3.989  14.742   2.679
76891W        W42151  29.502  28.601  11.227
76892W        W42152  16.064  37.560   4.899
76893W        W42153  11.951  14.058   3.179
76894W        W42154   8.151  36.864  11.563
76895W        W42155  17.701   4.631  13.611
76896W        W42156  38.845  40.873  12.830
76897W        W42157  14.995  32.867  12.411
76898W        W42158  14.555   4.882  14.422
76899W        W42159  18.448  31.948  10.493
76900W        W42160   7.443   3.286   2.761
76901W        W42161  26.610  13.572  10.770
76902W        W42162  25.521  27.560   2.466
76903W        W42163   1.018   0.908   0.729
76904W        W42164  24.541  38.989  10.854
76905W        W42165  34.577  21.514   0.439
76906W        W42166  16.374   2.320   0.437
76907W        W42167  22.183  29.521   4.524
76908W        W42168  41.989   4.814   9.942
76909W        W42169  36.391  38.870   4.770
76910W        W42170  35.959  28.228   3.686
76911W        W42171  19.064  43.447  12.481
76912W        W42172  10.154  33.070  11.910
76913W        W42173  31.182  29.903  13.954
76914W        W42174   4.489  21.738   4.314
76915W        W42175  25.212   6.703   2.368
76916W        W42176  11.363   8.113   0.064
76917W        W42177  34.371  11.368  14.922
76918W        W42178  19.328   2.892   0.195
76919W        W42179  17.033  15.057   3.697
76920W        W42180  42.232  33.840   0.732
76921W        W42181   4.363  21.191  13.336
76922W        W42182  37.803  21.926  12.843
76923W        W42183  24.982  14.360  13.444
76924W        W42184   1.959  30.449   0.716
76925W        W42185  24.120  39.405  14.192
76926W        W42186   4.654  20.239  12.734
76927W        W42187  21.281  14.719  13.945
76928W        W42188  13.567  12.220  11.366
76929W        W42189  38.829   9.642  12.142
76930W        W42190   9.683  15.522  12.171
76931W        W42191  37.390   5.814   0.960
76932W        W42192   3.230  38.269   4.744
76933W        W42193   9.856  37.382  12.040
76934W        W42194  29.885  34.145  13.670
76935W        W42195  16.758   7.900   1.276
76936W        W42196  40.556  10.537   2.926
76937W        W42197  32.467  24.017   9.932
76938W        W42198   0.137  32.971  11.075
76939W        W42199   1.909  26.671  12.927
76940W        W42200  39.439  23.536  10.779
76941W        W42201  43.776  44.340   3.273
76942W        W42202   9.782  42.454  11.696
76943W        W42203  28.419  24.152  13.008
76944W        W42204  20.234   7.853  10.631
76945W        W42205  25.412  20.725  12.190
76946W        W42206  13.823  20.043  13.703
76947W        W42207  37.826  25.837  11.443
76948W        W42208  23.970  21.811  14.338
76949W        W42209  18.985   4.842   2.401
76950W        W42210   9.276  11.776  13.425
76951W        W42211  11.794  44.444   2.663
76952W        W42212   2.097  39.012  11.489
76953W        W42213  37.126   4.189  14.380
76954W        W42214  38.903   1.741  14.607
76955W        W42215   2.966  36.815  11.881
76956W        W42216   3.432  21.793  12.047
76957W        W42217  32.084   3.730  12.143
76958W        W42218   6.706  14.847   3.375
76959W        W42219  24.998   4.421  13.463
76960W        W42220  21.869  15.210   3.189
76961W        W42221  17.385  44.391   0.874
76962W        W42222   8.201  11.402   4.196
76963W        W42223  33.908  35.430   4.062
76964W        W42224  15.594  17.101  11.880
76965W        W42225  44.876  18.285  14.949
76966W        W42226  19.535  34.400   4.082
76967W        W42227  29.759  41.766  13.956
76968W        W42228   8.375  11.769   2.975
76969W        W42229  41.837  29.210  14.940
76970W        W42230   6.458  16.744   1.701
76971W        W42231   7.970  19.256   4.625
76972W        W42232  32.412   0.475  10.614
76973W        W42233  11.435  14.350   0.373
76974W        W42234  11.824  41.020  13.286
76975W        W42235   7.163  16.778  11.592
76976W        W42236  12.332  38.554  12.466
76977W        W42237  36.356  30.091  12.488
76978W        W42238  40.785  16.505   2.339
76979W        W42239  40.770  19.048  12.097
76980W        W42240  14.458   2.451   3.822
76981W        W42241  16.222  32.825   3.238
76982W        W42242   1.847  31.631  12.914
76983W        W42243  11.153  34.974   4.339
76984W        W42244  12.121  35.896   2.843
76985W        W42245  26.415  33.008   0.523
76986W        W42246  41.131   6.297  12.484
76987W        W42247  20.091   6.530   1.746
76988W        W42248  17.345  30.533  10.610
76989W        W42249  31.481  36.849  10.551
76990W        W42250   8.263  11.406   3.605
76991W        W42251  28.273  21.062   2.804
76992W        W42252  42.232  35.678  11.694
76993W        W42253   5.602  37.654  13.507
76994W        W42254  29.453  40.936   3.182
76995W        W42255  15.744  42.026  12.534
76996W        W42256  33.907   4.610   2.478
76997W        W42257   1.124  21.547   2.324
76998W        W42258   6.705  15.170   0.826
76999W        W42259  20.033  17.294  10.893
77000W        W42260  36.410   6.830   4.743
77001W        W42261   0.623  35.109  13.301
77002W        W42262  42.092  41.630  11.679
77003W        W42263  44.186  13.464  10.390
77004W        W42264  42.768  10.965   3.658
77005W        W42265  24.998  38.501  12.371
77006W        W42266  26.531   4.964  10.639
77007W        W42267  33.458  42.919   4.734
77008W        W42268  20.099  10.851  11.912
77009W        W42269  16.854  15.265   4.134
77010W        W42270  39.418  28.496  14.258
77011W        W42271  36.177   0.437   1.358
77012W        W42272  27.309  13.857   1.871
77013W        W42273  22.559   5.821  12.038
77014W        W42274  30.956  38.229   0.811
77015W        W42275   1.457   4.293  11.892
77016W        W42276  27.644  25.135  10.685
77017W        W42277   0.444  43.879  12.680
77018W        W42278   9.665   3.852   1.498
77019W        W42279  44.948  38.499  14.912
77020W        W42280   7.741   8.709   2.440
77021W        W42281  11.751  32.612   2.177
77022W        W42282   6.471  12.405   2.022
77023W        W42283  37.543   5.442   2.822
77024W        W42284  14.390  19.431   1.207
77025W        W42285  29.336  18.829   3.550
77026W        W42286  15.951   3.768   1.367
77027W        W42287  28.545  10.203  12.939
77028W        W42288  33.409  14.406  12.087
77029W        W42289  43.770   7.383  13.006
77030W        W42290  27.600  42.331   1.668
77031W        W42291  22.682   4.160   0.455
77032W        W42292  26.494  22.133   2.454
77033W        W42293  41.060  35.854   4.004
77034W        W42294  43.414  32.102   0.033
77035W        W42295  20.910  14.226   0.215
77036W        W42296  38.812  22.988   4.582
77037W        W42297  33.432  31.962  14.505
77038W        W42298   5.327  27.895   9.939
77039W        W42299  11.172  41.302  13.212
77040W        W42300  21.163  33.865  13.098
77041W        W42301  22.087  29.700   0.281
77042W        W42302  39.580  11.281  14.510
77043W        W42303  18.243  16.959  11.511
77044W        W42304  27.725  16.172   0.804
77045W        W42305  16.786  43.521  10.617
77046W        W42306  44.972  35.397  11.183
77047W        W42307  41.928  42.233   0.112
77048W        W42308  23.719  35.397  13.074
77049W        W42309  29.531  10.105  12.803
77050W        W42310  32.677  38.555  12.542
77051W        W42311  12.849  15.346   1.701
77052W        W42312  15.584  32.013   3.208
77053W        W42313   9.135   4.903  13.815
77054W        W42314   0.839  33.089   0.372
77055W        W42315  22.219  19.106   2.899
77056W        W42316   4.502   2.312  11.662
77057W        W42317  13.894  33.560   2.161
77058W        W42318  41.349  19.599   2.401
77059W        W42319  44.860  12.682  10.293
77060W        W42320  20.735  34.051  12.544
77061W        W42321  38.980  28.437  11.115
77062W        W42322  21.051  44.340  14.717
77063W        W42323   6.038  14.706   3.780
77064W        W42324   5.147  33.353   0.772
77065W        W42325  43.842  22.452   2.763
77066W        W42326  29.806   4.282  13.810
77067W        W42327  36.525  22.562   4.846
77068W        W42328  39.808  13.144   3.650
77069W        W42329  41.498  30.054   3.789
77070W        W42330  42.484   7.540   1.331
77071W        W42331  14.606  21.752  12.000
77072W        W42332  18.303  10.804   4.096
77073W        W42333  33.515  36.985  11.612
77074W        W42334  22.141  41.709  10.989
77075W        W42335  21.242  40.854  12.481
77076W        W42336  12.840  16.346   2.165
77077W        W42337  27.527  20.792  12.609
77078W        W42338  34.410  26.201  12.374
77079W        W42339   7.749  35.875   4.790
77080W        W42340  25.792  28.561  12.436
77081W        W42341  41.985  16.567   1.431
77082W        W42342  32.449   7.634   1.972
77083W        W42343  19.192   8.683  13.053
77084W        W42344   0.707   6.211  12.091
77085W        W42345  25.614  12.097  11.237
77086W        W42346  15.084   9.029   2.430
77087W        W42347  44.084   7.802   2.145
77088W        W42348  44.706  43.347   3.854
77089W        W42349  19.212  40.135  11.121
77090W        W42350  34.017   2.444   3.139
77091W        W42351  15.617  33.866  13.994
77092W        W42352  38.974  43.351  11.631
77093W        W42353  17.029  42.961   1.923
77094W        W42354  30.407   2.763   3.321
77095W        W42355   8.251  19.337   1.287
77096W        W42356  16.066  29.702   3.753
77097W        W42357  37.006   1.264   2.596
77098W        W42358  29.669  42.818  13.443
77099W        W42359   6.029  24.720   3.075
77100W        W42360  21.019  12.880   3.050
77101W        W42361  10.515  26.005   1.359
77102W        W42362  25.682  12.927   1.319
77103W        W42363  30.253   5.950  14.023
77104W        W42364  23.655  22.235  14.268
77105W        W42365   7.990  38.636   2.779
77106W        W42366  29.701  35.990   0.353
77107W        W42367  37.326  25.015   3.816
77108W        W42368  18.336  40.831  11.172
77109W        W42369  18.431  32.639   1.215
77110W        W42370  42.337   5.893   2.413
77111W        W42371  15.820  30.426   1.200
77112W        W42372  11.591  41.556   2.422
77113W        W42373  23.759  41.845  11.818
77114W        W42374  34.860   5.743  11.494
77115W        W42375  34.390   7.012  13.391
77116W        W42376  26.592  32.437   2.744
77117W        W42377  29.815  30.920   4.835
77118W        W42378  31.973   4.213  14.003
77119W        W42379  23.038  10.148  11.124
77120W        W42380  27.464  34.904   4.107
77121W        W42381  38.896  38.553   1.365
77122W        W42382  27.943  32.103   0.656
77123W        W42383  12.287  32.593  14.389
77124W        W42384   1.958   4.179   4.190
77125W        W42385  42.499   5.984  13.306
77126W        W42386  10.744  21.833  13.092
77127W        W42387  31.162   7.128  10.847
77128W        W42388  34.626  37.331   0.375
77129W        W42389  14.725  44.702   1.352
77130W        W42390  12.135  29.338   3.775
77131W        W42391   4.050  24.494  11.128
77132W        W42392   7.436   8.180  11.060
77133W        W42393   7.202  10.835   1.915
77134W        W42394   2.312   3.728  11.951
77135W        W42395   1.044  10.395   3.977
77136W        W42396  32.019   8.702   3.060
77137W        W42397   5.945   2.749  12.535
77138W        W42398  15.463  25.957   2.790
77139W        W42399  33.838  10.120  11.576
77140W        W42400  34.084  41.403   3.325
77141W        W42401  39.441  36.846  14.171
77142W        W42402  10.300  14.093   1.394
77143W        W42403  24.298  44.329  14.990
77144W        W42404   9.161  34.945  12.016
77145W        W42405   8.757  32.076  10.695
77146W        W42406  15.649   4.324  12.066
77147W        W42407  27.810  11.610  10.669
77148W        W42408  35.029  12.504  10.243
77149W        W42409  28.743  39.543   3.266
77150W        W42410   1.960   7.441  11.566
77151W        W42411  40.888  18.532   3.624
77152W        W42412  19.355  28.473   0.374
77153W        W42413  16.124  41.078   3.608
77154W        W42414   7.215  40.886  14.333
77155W        W42415   7.779   6.229  12.089
77156W        W42416  42.226  37.230  12.093
77157W        W42417  20.963  20.259   1.274
77158W        W42418  43.490   2.480  14.922
77159W        W42419   4.519  31.975  12.338
77160W        W42420   6.485  35.328   0.009
77161W        W42421   4.870  35.800   0.893
77162W        W42422  13.289  32.519   4.158
77163W        W42423  32.915  27.547   2.250
77164W        W42424  13.243  31.683   3.034
77165W        W42425  36.119  34.694   0.773
77166W        W42426  26.591  13.112  14.503
77167W        W42427  25.003  10.660  12.247
77168W        W42428  43.979   8.169   4.390
77169W        W42429  24.153   7.971   2.208
77170W        W42430  20.109   0.444   4.515
77171W        W42431  28.956  42.151   1.377
77172W        W42432  29.982  21.988  12.513
77173W        W42433  14.091   5.540   1.904
77174W        W42434  34.924  17.583   0.243
77175W        W42435   5.525  22.515   4.755
77176W        W42436  36.134  12.360   1.730
77177W        W42437  30.679  11.691   0.774
77178W        W42438  29.720  33.472   4.599
77179W        W42439   3.720  42.278  12.502
77180W        W42440  14.039  24.991   4.315
77181W        W42441  19.587  31.010  12.103
77182W        W42442  36.034  10.116  13.848
77183W        W42443  13.649   3.797  13.048
77184W        W42444  42.183  18.147   3.211
77185W        W42445  23.728  23.695   4.195
77186W        W42446  12.089  22.905   1.253
77187W        W42447  23.318  11.776   0.928
77188W        W42448   1.232  17.349  12.834
77189W        W42449  30.030  37.483  13.848
77190W        W42450   2.783   9.606   0.023
77191W        W42451  26.702  33.657   3.888
77192W        W42452  43.743  31.733   2.191
77193W        W42453  11.121  38.399   1.252
77194W        W42454   3.948   0.792   0.409
77195W        W42455  36.854  21.802   1.269
77196W        W42456  20.625  31.989   2.749
77197W        W42457  18.150   4.818   4.423
77198W        W42458  10.407  16.307   0.883
77199W        W42459  19.170  23.675   1.977
77200W        W42460  38.547  27.078  10.736
77201W        W42461   6.188  43.917   2.693
77202W        W42462  28.399  27.694   0.511
77203W        W42463  29.963  42.272   2.654
77204W        W42464  25.504  25.028   2.351
77205W        W42465  26.847  34.245   5.090
77206W        W42466  10.127  13.585  14.330
77207W        W42467   4.655  19.669  10.197
77208W        W42468  41.328  31.563   4.324
77209W        W42469  40.279  40.407   4.046
77210W        W42470   7.505  16.239   2.214
77211W        W42471  19.060  41.607  12.006
77212W        W42472  28.198   1.129   0.788
77213W        W42473   9.257  41.617   4.929
77214W        W42474  25.112  12.276  11.412
77215W        W42475   0.234  36.994  14.851
77216W        W42476  27.876  36.437  11.209
77217W        W42477  23.508  25.856  11.174
77218W        W42478  37.220  25.875  11.482
77219W        W42479  14.238  32.033  14.602
77220W        W42480   2.250  32.149  13.582
77221W        W42481  34.842   0.198   2.651
77222W        W42482  14.248  20.953  12.165
77223W        W42483   8.359  20.623  11.407
77224W        W42484  20.913  23.060  12.040
77225W        W42485  12.282  39.390   0.499
77226W        W42486  43.089  29.079  11.104
77227W        W42487  12.776   3.692   3.179
77228W        W42488  23.602  23.636  11.292
77229W        W42489  42.795  12.713   0.523
77230W        W42490   7.779  14.742   2.403
77231W        W42491  19.802   9.836   4.538
77232W        W42492  29.071  25.716   3.749
77233W        W42493  18.281  13.014   2.238
77234W        W42494  31.507  36.528   1.929
77235W        W42495  18.251  32.460   3.437
77236W        W42496  34.459  20.826  11.142
77237W        W42497   9.344  32.191   4.422
77238W        W42498  19.303   6.529  14.283
77239W        W42499  32.627  15.620   1.249
77240W        W42500  33.446  29.383   4.662
77241W        W42501  43.444  44.944   4.254
77242W        W42502  39.399  17.342   2.377
77243W        W42503  17.857   7.566   1.240
77244W        W42504  43.902  14.336   4.063
77245W        W42505  25.167  21.612   1.115
77246W        W42506   6.395   4.495   4.574
77247W        W42507   5.365  23.410  14.435
77248W        W42508  38.409   7.779  11.414
77249W        W42509  17.625  42.323   4.749
77250W        W42510   1.740  37.288   0.278
77251W        W42511   0.432  23.581  13.362
77252W        W42512  15.184  25.261   3.807
77253W        W42513  33.794  25.139  14.791
77254W        W42514  21.906  27.071  14.575
77255W        W42515  31.831   8.805  14.839
77256W        W42516   3.255   0.158   3.209
77257W        W42517   7.171  27.384   1.153
77258W        W42518  11.001   7.887   0.373
77259W        W42519  44.361  37.128   2.342
77260W        W42520  37.318  20.722  12.462
77261W        W42521  31.414  38.985  10.543
77262W        W42522   2.929  19.261  13.398
77263W        W42523  10.128  30.234   3.768
77264W        W42524   9.611  12.223   0.207
77265W        W42525  18.225  27.565   4.718
77266W        W42526  44.824   1.421  12.578
77267W        W42527  44.366   7.807   1.719
77268W        W42528  25.547  15.542   3.578
77269W        W42529   5.330  26.927   4.561
77270W        W42530   1.968  34.671   0.256
77271W        W42531  39.037   6.380   4.550
77272W        W42532  14.763  13.076  14.357
77273W        W42533  40.904  19.527   3.358
77274W        W42534  10.671  24.036   2.114
77275W        W42535  44.116   8.734  13.879
77276W        W42536   7.853  36.090  12.090
77277W        W42537  14.280  14.771   0.823
77278W        W42538  21.668   9.225   0.725
77279W        W42539  24.599   8.128  13.111
77280W        W42540  41.287  40.302  13.699
77281W        W42541  18.373  22.074  14.702
77282W        W42542  25.798   4.215  11.697
77283W        W42543  27.609   2.481   1.194
77284W        W42544  16.558  38.279   1.639
77285W        W42545  32.717  27.445   3.644
77286W        W42546  34.154  14.779  12.656
77287W        W42547   5.475   3.893   4.214
77288W        W42548  14.390  34.633   2.263
77289W        W42549   2.123  20.108   4.173
77290W        W42550  25.294   7.287  14.301
77291W        W42551  20.499   5.674  11.168
77292W        W42552  27.496  36.887   0.864
77293W        W42553  15.866  38.457  10.625
77294W        W42554  31.869  42.277   1.699
77295W        W42555  17.486  19.436   3.401
77296W        W42556   8.840   5.427   0.801
77297W        W42557  11.755  38.664   1.850
77298W        W42558  37.993  25.115   0.683
77299W        W42559  43.059  37.859   1.293
77300W        W42560   9.465  15.525  14.676
77301W        W42561  18.824  32.937   4.294
77302W        W42562  34.517  34.768   1.403
77303W        W42563  18.779  37.236  12.426
77304W        W42564   2.260   4.103   1.550
77305W        W42565  27.458  12.814   0.496
77306W        W42566  31.227  31.039  14.508
77307W        W42567   9.609  33.733  11.415
77308W        W42568  31.655   0.925   1.129
77309W        W42569  23.024  15.468  13.533
77310W        W42570  18.007  31.521   2.078
77311W        W42571  13.301  13.440   4.593
77312W        W42572  11.400  26.088  10.384
77313W        W42573  27.520  13.551  12.005
77314W        W42574  43.664  28.398   2.252
77315W        W42575   2.266   4.388   3.851
77316W        W42576   9.809   2.549   2.343
77317W        W42577  30.637   5.861   0.705
77318W        W42578  32.567  42.881   3.679
77319W        W42579   1.932   0.684  14.524
77320W        W42580  17.576  30.925  13.889
77321W        W42581  40.033  39.575   1.936
77322W        W42582  16.702  21.952  11.645
77323W        W42583  24.444  40.422   1.397
77324W        W42584  27.107   1.839  14.319
77325W        W42585  24.993  27.507   0.440
77326W        W42586   0.710   9.924  13.637
77327W        W42587  27.460  32.070  11.921
77328W        W42588  31.926   6.156   3.995
77329W        W42589  17.079  16.034   3.692
77330W        W42590   7.835  22.946  11.670
77331W        W42591  42.785   1.343  13.490
77332W        W42592  28.895  27.543  12.909
77333W        W42593  11.210   7.070  14.196
77334W        W42594  34.940  36.344  12.001
77335W        W42595  34.018   0.419  13.741
77336W        W42596  22.754  32.440   2.272
77337W        W42597   7.331  27.295   0.346
77338W        W42598  21.655  24.113  11.996
77339W        W42599   9.427  26.258   2.263
77340W        W42600   9.110  33.473   0.946
77341W        W42601  14.247  43.698   4.171
77342W        W42602  43.407   0.860   2.378
77343W        W42603  35.961  23.959  12.589
77344W        W42604  38.578  34.417   4.968
77345W        W42605  33.064   2.883  14.673
77346W        W42606   8.767  21.027  13.056
77347W        W42607  35.779  34.239  12.091
77348W        W42608  38.370  32.581  13.395
77349W        W42609  21.498  27.709  11.537
77350W        W42610  16.327  27.612   0.879
77351W        W42611  43.284  34.644   1.465
77352W        W42612  31.633  34.822  13.597
77353W        W42613   9.473  32.315  12.427
77354W        W42614  25.958  28.678  11.056
77355W        W42615  20.077  33.091   1.715
77356W        W42616  33.108   4.786  13.590
77357W        W42617  25.699  35.405   1.266
77358W        W42618  35.843  32.019   2.607
77359W        W42619  30.186   0.652  12.112
77360W        W42620   5.730  12.514  10.894
77361W        W42621  29.976  17.760   0.987
77362W        W42622  29.287  20.810  14.453
77363W        W42623  35.361   8.712  10.751
77364W        W42624  30.386  38.053   4.284
77365W        W42625  31.386  23.138  14.276
77366W        W42626  15.060   1.844  10.723
77367W        W42627   1.395  21.187  14.756
77368W        W42628  42.466   1.663   1.468
77369W        W42629  38.789  26.649  13.856
77370W        W42630  13.384  26.111  13.036
77371W        W42631  21.947  26.549   1.244
77372W        W42632  22.520  27.177   1.433
77373W        W42633  38.346  41.832   3.335
77374W        W42634  27.099  35.115   1.961
77375W        W42635  37.149  27.998  14.901
77376W        W42636  37.066  40.569   0.653
77377W        W42637  43.760  17.194  14.039
77378W        W42638  29.221   9.601   3.338
77379W        W42639  31.785  18.546   3.738
77380W        W42640  37.347  10.734   4.588
77381W        W42641  33.439  16.140  11.624
77382W        W42642   8.319   5.203  11.565
77383W        W42643  40.328  12.411  13.399
77384W        W42644  36.154   8.357   3.562
77385W        W42645  34.426  43.897  10.648
77386W        W42646  13.345   4.144  14.469
77387W        W42647  38.249  17.766  11.196
77388W        W42648  15.875   8.221   3.423
77389W        W42649  14.270  23.791   2.655
77390W        W42650  31.612  39.275   0.450
77391W        W42651  25.635  13.821  14.728
77392W        W42652   2.395  24.566  12.481
77393W        W42653  42.055  20.128  13.501
77394W        W42654  21.935  28.496   4.325
77395W        W42655  39.299  33.164   2.192
77396W        W42656  18.325  41.308  13.020
77397W        W42657  24.673  40.832   2.299
77398W        W42658  25.950  15.333  10.573
77399W        W42659  34.882  34.099   2.153
77400W        W42660  31.182  40.791  13.960
77401W        W42661  16.674   2.736   0.296
77402W        W42662   6.319  40.069  12.995
77403W        W42663  20.659  22.710   2.757
77404W        W42664  40.712  37.594   3.266
77405W        W42665  27.234  12.417  10.737
77406W        W42666  15.891  36.239  12.735
77407W        W42667  37.421  36.468   3.108
77408W        W42668  31.731  42.893  12.681
77409W        W42669  27.131  16.490   1.636
77410W        W42670  36.531  26.179   2.361
77411W        W42671  26.662   5.191   0.760
77412W        W42672  15.495  24.497   4.015
77413W        W42673  43.966  37.682  12.593
77414W        W42674  28.155   1.004  14.744
77415W        W42675  12.014  30.700  14.420
77416W        W42676  17.662   6.413  13.980
77417W        W42677   4.161  17.603  10.729
77418W        W42678   0.456  18.034  10.390
77419W        W42679  22.047  36.341  12.503
77420W        W42680  26.720  14.729   4.680
77421W        W42681   1.018  44.560  14.784
77422W        W42682  24.517  42.760   4.526
77423W        W42683  35.150  21.934  13.466
77424W        W42684  32.310  34.558  13.475
77425W        W42685  19.190  22.554  12.884
77426W        W42686  34.196   6.678   4.691
77427W        W42687  27.053   7.912   0.252
77428W        W42688  35.036  42.270   0.767
77429W        W42689  10.704  30.327   2.595
77430W        W42690  28.715  19.636  13.731
77431W        W42691   4.123  28.603  10.765
77432W        W42692  15.276  31.926  14.918
77433W        W42693  34.837  34.078   0.164
77434W        W42694  38.336  25.684   4.868
77435W        W42695  17.983  29.201  10.845
77436W        W42696   2.259   0.401   3.266
77437W        W42697  23.205  41.052  14.927
77438W        W42698  16.060  44.982  12.488
77439W        W42699  33.285  27.066   0.726
77440W        W42700   1.449  43.231  13.476
77441W        W42701  27.192  19.158   4.816
77442W        W42702   4.930   7.877  11.590
77443W        W42703   8.242  19.671   3.586
77444W        W42704  16.219  32.445   0.208
77445W        W42705  13.393  32.948  13.342
77446W        W42706  35.385  42.459  13.798
77447W        W42707  39.094  10.288  11.622
77448W        W42708  39.630  33.378   4.547
77449W        W42709   8.314  20.514   3.154
77450W        W42710  14.297   7.267   5.412
77451W        W42711  15.029  38.531   1.732
77452W        W42712  32.903  23.132  13.752
77453W        W42713  26.492  15.266  10.589
77454W        W42714  30.676  36.820   1.251
77455W        W42715  42.058  35.090  12.505
77456W        W42716  16.377  23.584   4.171
77457W        W42717  36.946  26.467   2.739
77458W        W42718  22.951  10.286   3.301
77459W        W42719  15.663  32.049  11.922
77460W        W42720  38.819  25.122  12.404
77461W        W42721  10.771   8.770  14.792
77462W        W42722  34.740  39.174  10.962
77463W        W42723  40.564  44.214  12.970
77464W        W42724  17.304   5.089   1.953
77465W        W42725  23.576   7.900  14.057
77466W        W42726  15.354  36.949  14.922
77467W        W42727  30.678   1.541   3.790
77468W        W42728  13.138  32.401   3.651
77469W        W42729  33.540   1.003  10.670
77470W        W42730  43.444  15.433   2.772
77471W        W42731  41.818  13.064   2.264
77472W        W42732  28.451  10.633  10.566
77473W        W42733  35.858   1.885  12.478
77474W        W42734  17.870   2.110  13.286
77475W        W42735  31.748  38.985  13.970
77476W        W42736  19.282  42.924  13.344
77477W        W42737  13.816   5.841  13.073
77478W        W42738  39.369  36.082   3.933
77479W        W42739  26.631   7.360  13.337
77480W        W42740   0.753  14.730  12.192
77481W        W42741  40.812  41.421   4.279
77482W        W42742   4.678  38.350  12.463
77483W        W42743  38.441  23.464   0.630
77484W        W42744  43.629   3.104  12.336
77485W        W42745   4.105  15.217  11.075
77486W        W42746  10.666  37.287  14.994
77487W        W42747  18.186  17.085  10.299
77488W        W42748  36.988  38.929   2.739
77489W        W42749  30.102  23.937  12.475
77490W        W42750  28.583  20.602   2.617
77491W        W42751  30.029  33.486   3.748
77492W        W42752  24.737  34.926   0.319
77493W        W42753  29.936  26.913  12.319
77494W        W42754  41.120   2.872  14.727
77495W        W42755  43.313  26.667   0.263
77496W        W42756  32.090  24.112   1.944
77497W        W42757  25.064  12.122  12.889
77498W        W42758  24.805  31.016   0.322
77499W        W42759   8.544  29.617   2.201
77500W        W42760  14.581  17.007  11.198
77501W        W42761  11.211  16.233  12.686
77502W        W42762  40.854   1.462   0.209
77503W        W42763  42.468  33.906   0.244
77504W        W42764   8.764  20.601   1.458
77505W        W42765  15.081  23.173  11.087
77506W        W42766   0.445  29.929   3.211
77507W        W42767  16.685   8.339  14.371
77508W        W42768   9.808  36.975   3.739
77509W        W42769  31.364  16.396   2.372
77510W        W42770  42.023  42.158  11.588
77511W        W42771  24.207  32.052   4.767
77512W        W42772   3.948  26.764   3.661
77513W        W42773  21.174  31.070   2.833
77514W        W42774  39.782  41.862  12.894
77515W        W42775  39.904  29.165   4.670
77516W        W42776  41.025  42.851  12.494
77517W        W42777  36.576   0.664  14.846
77518W        W42778  43.313  30.013   3.561
77519W        W42779  37.565  11.696  14.315
77520W        W42780  40.125  29.354  13.535
77521W        W42781  27.462  36.847   4.428
77522W        W42782  42.207   0.527  13.597
77523W        W42783  24.088  31.444   3.883
77524W        W42784  26.022   1.811  14.104
77525W        W42785  39.779   4.425   4.859
77526W        W42786   4.192  14.891   3.693
77527W        W42787  33.487  23.168  12.995
77528W        W42788   1.204  37.457  12.057
77529W        W42789  15.400  42.093   0.510
77530W        W42790  11.684  32.607   3.749
77531W        W42791  29.849   7.187   0.716
77532W        W42792   9.693  23.986  13.907
77533W        W42793  21.616  11.802  13.027
77534W        W42794  24.695  20.123  14.831
77535W        W42795  36.581  36.376  14.643
77536W        W42796  28.174  28.563   4.748
77537W        W42797  31.938  19.530   0.839
77538W        W42798  32.682  21.360  11.929
77539W        W42799  20.310  27.574  14.748
77540W        W42800  34.078  38.851  13.041
77541W        W42801   5.901  13.063  10.675
77542W        W42802  42.942   7.857   2.811
77543W        W42803  33.787   8.750   4.606
77544W        W42804  14.869  10.640  11.498
77545W        W42805   3.339  32.256  10.510
77546W        W42806  36.581  15.282  12.475
77547W        W42807  40.561   2.281  13.017
77548W        W42808  38.379  42.944  11.081
77549W        W42809  36.408  16.309  13.376
77550W        W42810   3.876  24.375  13.054
77551W        W42811  35.957  14.585   3.146
77552W        W42812  41.287  24.623   4.585
77553W        W42813  35.624  24.091   2.651
77554W        W42814  31.284  40.613  14.437
77555W        W42815   9.829  36.180   0.353
77556W        W42816  39.440  25.664  13.270
77557W        W42817  39.991  27.398  10.648
77558W        W42818  16.167  39.008   0.610
77559W        W42819   5.012  27.089   2.842
77560W        W42820  27.850  33.682  11.995
77561W        W42821  39.551  15.824   0.738
77562W        W42822  29.578  13.602   3.885
77563W        W42823   7.926  35.869  12.578
77564W        W42824   1.857  16.033  12.354
77565W        W42825   3.009  20.779   0.267
77566W        W42826  38.802  14.096   4.584
77567W        W42827  24.515  24.693   0.924
77568W        W42828  18.680  34.222  14.411
77569W        W42829   5.908   3.868   3.908
77570W        W42830   8.115  10.202  14.367
77571W        W42831  10.648  24.923  12.916
77572W        W42832  32.632   8.951  11.206
77573W        W42833  24.445  24.501  10.625
77574W        W42834  36.862  36.796   0.382
77575W        W42835  28.994  44.693   4.489
77576W        W42836  14.722   9.913  14.966
77577W        W42837   2.948   6.647   4.144
77578W        W42838  16.616   7.766   2.878
77579W        W42839  15.791  21.698  13.461
77580W        W42840  38.534  42.207  11.067
77581W        W42841  42.783  22.640  11.086
77582W        W42842  19.707  26.347   1.372
77583W        W42843  43.729  41.167  11.959
77584W        W42844  16.332  31.857   0.785
77585W        W42845  21.954  27.552   4.325
77586W        W42846   1.316  12.746  12.106
77587W        W42847   3.165   0.158   1.022
77588W        W42848  20.718  43.862  12.094
77589W        W42849  43.833  41.379  14.061
77590W        W42850   8.760  41.285  12.389
77591W        W42851  42.020  10.249  11.063
77592W        W42852   9.856  21.922   2.576
77593W        W42853  31.226  30.899   0.925
77594W        W42854  23.616  16.137  13.082
77595W        W42855  28.349  43.568  11.292
77596W        W42856  14.778  40.729  13.066
77597W        W42857  31.012  32.261   1.625
77598W        W42858  41.393  17.876  14.804
77599W        W42859  16.138  43.952   4.126
77600W        W42860  41.744  38.530  14.880
77601W        W42861  25.408   8.753   4.188
77602W        W42862  18.693  21.580  13.527
77603W        W42863   3.275   0.772  12.427
77604W        W42864  41.306   8.666  12.490
77605W        W42865  40.369   6.478   2.197
77606W        W42866  10.094  10.256   0.844
77607W        W42867  24.503  18.439  14.260
77608W        W42868  35.335  25.146  14.831
77609W        W42869  25.213   0.876  14.324
77610W        W42870  33.032   8.320   4.507
77611W        W42871  43.331  20.127   0.073
77612W        W42872  21.160   6.193   3.305
77613W        W42873   3.280  34.387   4.710
77614W        W42874  36.396  23.663  14.282
77615W        W42875  32.104  19.831   2.251
77616W        W42876   2.300  40.159   2.312
77617W        W42877  18.598  37.882   3.868
77618W        W42878  12.097  23.507  10.672
77619W        W42879  37.755  37.508  14.795
77620W        W42880   8.317  33.922   1.014
77621W        W42881  27.038  36.701   0.651
77622W        W42882   9.718  37.445  14.494
77623W        W42883  39.912   6.110  11.531
77624W        W42884   4.744  37.892   1.937
77625W        W42885  28.713  32.840  11.508
77626W        W42886  39.166  18.485  13.653
77627W        W42887  12.373  21.317   4.160
77628W        W42888  15.651  14.333   4.612
77629W        W42889  19.181  16.878  14.548
77630W        W42890  33.898  43.936  12.616
77631W        W42891  15.058  30.534  10.712
77632W        W42892  16.235  43.797  14.552
77633W        W42893  39.655  11.389  11.337
77634W        W42894  42.851  21.594   2.236
77635W        W42895   6.138   0.906  13.382
77636W        W42896  10.928  22.079   1.207
77637W        W42897  12.895   3.241  12.559
77638W        W42898  17.803   0.359  13.532
77639W        W42899  34.582  23.634   4.131
77640W        W42900   3.503  28.475  13.539
77641W        W42901  44.668  20.052   3.215
77642W        W42902   2.850  29.587  13.902
77643W        W42903  27.392  41.125   0.474
77644W        W42904  18.694   5.753  10.691
77645W        W42905  30.415  15.308   4.095
77646W        W42906  11.344   4.725   5.089
77647W        W42907  19.073   5.981  11.821
77648W        W42908  20.147   8.617   2.849
77649W        W42909  10.115   5.355  12.000
77650W        W42910  33.487  18.243  14.767
77651W        W42911  24.004  37.355   5.037
77652W        W42912  22.618  24.228   4.052
77653W        W42913  23.242  15.619   0.468
77654W        W42914  35.040   9.130  13.370
77655W        W42915  30.437  31.535  11.152
77656W        W42916  43.777  30.407   2.469
77657W        W42917   2.035  33.433  14.759
77658W        W42918  15.356  30.815  12.039
77659W        W42919  31.614  39.523   2.598
77660W        W42920  32.036   1.215  11.425
77661W        W42921  10.691  35.817  11.712
77662W        W42922  44.271  27.138   2.659
77663W        W42923  31.576   8.685   3.986
77664W        W42924   1.219  21.138   4.529
77665W        W42925  12.062  10.225  12.925
77666W        W42926  40.591  33.161  13.381
77667W        W42927  14.292  18.758  14.417
77668W        W42928  24.115  42.040   3.353
77669W        W42929  21.623  40.466   4.658
77670W        W42930  17.878   8.294  10.576
77671W        W42931  21.021  30.804  12.560
77672W        W42932  14.043  10.812   1.571
77673W        W42933   0.839  22.761  11.147
77674W        W42934  28.037   5.712  12.652
77675W        W42935   2.385  15.888  11.107
77676W        W42936  12.160  17.721  13.627
77677W        W42937   7.784   0.532  14.431
77678W        W42938  11.787   0.854  12.397
77679W        W42939  17.343  16.459  10.804
77680W        W42940  32.474  11.711   1.595
77681W        W42941  36.857  22.665  12.508
77682W        W42942   3.602  44.896  11.617
77683W        W42943  13.718  16.317  12.529
77684W        W42944  13.811  27.541   2.725
77685W        W42945  15.054  36.617  13.832
77686W        W42946   8.797   7.154  14.276
77687W        W42947  29.044   8.883  10.727
77688W        W42948   9.796  44.322  11.874
77689W        W42949   1.739  27.556  13.397
77690W        W42950  40.548  22.141  14.780
77691W        W42951   4.202  13.647   4.621
77692W        W42952  29.723  35.435   2.533
77693W        W42953  21.644  43.553  12.504
77694W        W42954  43.876  28.666  14.799
77695W        W42955   9.980  13.987  11.565
77696W        W42956  18.242  13.195   3.807
77697W        W42957  25.140  26.887  14.857
77698W        W42958  17.822   3.038   4.192
77699W        W42959  43.979   8.738   3.132
77700W        W42960  35.337   8.934  12.472
77701W        W42961  22.088  28.024   0.992
77702W        W42962  16.459  24.835   4.111
77703W        W42963  25.197  33.471   3.239
77704W        W42964   1.239  44.437  10.655
77705W        W42965  15.646  33.306   1.361
77706W        W42966   2.275  41.788   0.032
77707W        W42967  23.561  19.857  12.038
77708W        W42968   7.637   8.674   1.769
77709W        W42969  36.413  27.458  14.466
77710W        W42970   1.240  38.553   2.857
77711W        W42971  35.873  42.541  10.651
77712W        W42972  22.793   3.341  13.912
77713W        W42973  17.270  26.528  12.105
77714W        W42974  12.799  19.006  13.464
77715W        W42975  22.291   5.459   0.541
77716W        W42976  24.122   1.841  10.786
77717W        W42977  23.057  37.356   2.624
77718W        W42978  25.033  32.635  11.210
77719W        W42979  28.454  25.957  10.127
77720W        W42980   5.153  10.666   0.007
77721W        W42981   0.774  12.872  13.838
77722W        W42982   7.652  10.568  12.095
77723W        W42983  42.773   5.511  13.422
77724W        W42984  11.139  31.561  12.939
77725W        W42985   3.691  34.091  12.456
77726W        W42986  28.152  42.047   1.611
77727W        W42987  25.771  34.433   2.862
77728W        W42988  31.569  12.885  12.014
77729W        W42989  18.148  31.614  14.002
77730W        W42990  40.497  23.135  11.382
77731W        W42991   3.507  36.553  14.405
77732W        W42992  37.069  30.601   3.019
77733W        W42993  33.405  36.417  13.807
77734W        W42994  44.719  26.338   0.559
77735W        W42995  30.446  13.717  11.397
77736W        W42996  30.706  34.169  12.944
77737W        W42997   2.422  33.545  11.510
77738W        W42998  30.152  24.633   1.135
77739W        W42999   0.334  16.120  13.481
77740W        W43000  31.041   8.799  12.133
77741W        W43001  25.743  22.131  13.595
77742W        W43002  28.694   7.432   3.149
77743W        W43003   2.495  23.720  13.023
77744W        W43004   9.410   2.859  12.801
77745W        W43005  13.017  25.559   2.904
77746W        W43006   3.109  36.320   0.875
77747W        W43007  28.201  23.178   0.883
77748W        W43008  36.447  29.594  12.081
77749W        W43009  37.966  37.401   0.732
77750W        W43010   9.547  24.645  11.213
77751W        W43011  40.258  26.467   2.665
77752W        W43012   4.165  20.433  12.725
77753W        W43013  33.526   7.039   1.290
77754W        W43014  40.606   3.788   4.512
77755W        W43015  30.322   9.301   0.497
77756W        W43016  22.549   5.404   2.370
77757W        W43017  24.038  28.596   4.784
77758W        W43018  36.323  36.627  10.676
77759W        W43019  32.876  19.014   3.769
77760W        W43020  44.852   0.461  14.080
77761W        W43021  35.021  24.196  12.948
77762W        W43022   1.278  29.768   3.250
77763W        W43023  38.981   2.834  11.185
77764W        W43024  43.933  36.079   4.522
77765W        W43025  19.456  36.251   1.311
77766W        W43026   6.622  36.103   2.384
77767W        W43027  16.560  31.477   1.706
77768W        W43028  13.333   6.351   3.715
77769W        W43029   5.218  16.825   0.385
77770W        W43030  36.945   2.914   5.422
77771W        W43031  31.150  17.371  11.182
77772W        W43032  32.857   8.229  11.601
77773W        W43033  42.432  37.581  10.415
77774W        W43034  35.876  41.769  11.948
77775W        W43035  43.972   2.613  11.066
77776W        W43036  32.421  33.193  10.513
77777W        W43037   5.940   3.184  13.708
77778W        W43038  31.791  39.318  10.668
77779W        W43039  33.734  32.508   0.229
77780W        W43040  38.605  14.435   1.312
77781W        W43041  20.469  41.907   2.792
77782W        W43042  26.846  20.054  12.035
77783W        W43043  44.321  23.161   4.665
77784W        W43044  13.680  10.567   3.638
77785W        W43045  38.506  18.696   1.807
77786W        W43046   8.381  22.055  11.882
77787W        W43047   8.043  11.799  12.636
77788W        W43048  19.744   5.469   1.229
77789W        W43049  44.280   5.979   3.332
77790W        W43050  23.238  39.503  10.657
77791W        W43051   9.302  35.757   0.804
77792W        W43052  41.180   8.216   1.514
77793W        W43053   0.358  27.611   4.108
77794W        W43054  26.112  12.865  12.975
77795W        W43055   8.349  25.103   0.754
77796W        W43056   7.912  42.570  11.493
77797W        W43057  39.120  43.536  11.091
77798W        W43058   3.778  14.533   1.314
77799W        W43059  32.115   6.803   1.188
77800W        W43060  28.823  40.988   3.862
77801W        W43061  30.989  41.814  13.387
77802W        W43062  31.876   2.015  12.440
77803W        W43063  24.508  44.939  11.571
77804W        W43064   1.820  35.759   3.433
77805W        W43065  19.533   9.588   4.127
77806W        W43066  42.994   3.716  13.870
77807W        W43067   0.225   7.769  13.932
77808W        W43068  22.619  10.099  10.010
77809W        W43069  23.566  15.695   2.361
77810W        W43070   8.195  43.858   2.756
77811W        W43071  35.003  31.410   3.700
77812W        W43072  25.085  13.108  12.484
77813W        W43073  41.286  40.077  12.549
77814W        W43074  21.806  18.344  14.922
77815W        W43075   2.992  31.107   3.286
77816W        W43076  37.909  27.635  11.095
77817W        W43077  19.569  42.127   2.846
77818W        W43078  13.147   5.144  12.421
77819W        W43079  15.534  17.531  13.117
77820W        W43080   1.040  22.146  13.597
77821W        W43081  29.194  11.805  10.486
77822W        W43082  21.877  19.061  13.467
77823W        W43083   6.446  13.148   0.307
77824W        W43084  42.008  39.790   4.293
77825W        W43085  34.915  15.531   1.849
77826W        W43086  22.379  27.157  11.603
77827W        W43087  13.239  25.019  14.147
77828W        W43088  13.222  15.695   2.565
77829W        W43089  37.085  23.240   3.266
77830W        W43090   1.288  22.216  14.740
77831W        W43091  10.414  12.624   4.307
77832W        W43092  33.518  24.965  14.392
77833W        W43093  33.445  25.593   1.624
77834W        W43094  44.258  18.511  12.829
77835W        W43095  17.550  15.109  10.739
77836W        W43096  10.729  11.886   2.302
77837W        W43097  40.559   4.455  12.426
77838W        W43098  42.791  16.211   3.172
77839W        W43099  18.093  37.766  11.087
77840W        W43100   0.840  14.119   0.881
77841W        W43101  40.961   9.880  14.374
77842W        W43102  43.937  33.598   4.511
77843W        W43103  39.265  38.415  14.422
77844W        W43104  44.652  26.247  13.794
77845W        W43105  41.905  11.140  12.009
77846W        W43106  43.018   6.102  12.584
77847W        W43107   5.415  43.058  12.959
77848W        W43108  37.508  25.912   3.633
77849W        W43109   1.385  41.459   0.008
77850W        W43110  19.040  40.444  12.482
77851W        W43111  42.360  11.149  11.715
77852W        W43112  15.677  35.521  11.589
77853W        W43113  27.189  29.951  13.785
77854W        W43114   0.454   0.343  12.935
77855W        W43115  36.964  11.943  13.777
77856W        W43116  17.669   1.865   2.819
77857W        W43117  39.070  12.848  14.166
77858W        W43118  31.623  18.132  12.574
77859W        W43119  40.016  20.779   3.237
77860W        W43120   5.213  37.326  11.560
77861W        W43121  40.546   9.313   4.091
77862W        W43122  27.624  16.765   4.449
77863W        W43123   8.893  23.525  11.322
77864W        W43124  30.984  12.984  10.403
77865W        W43125   4.120  26.181   9.769
77866W        W43126  39.055  11.169  11.943
77867W        W43127   1.006  15.746  13.968
77868W        W43128  14.089  35.343  13.601
77869W        W43129  21.281  29.595   3.684
77870W        W43130  43.812  27.116   4.974
77871W        W43131  26.598  40.526   2.866
77872W        W43132  14.832  44.069   2.641
77873W        W43133  13.259  29.423   0.089
77874W        W43134  23.498   3.363   1.965
77875W        W43135  40.407  42.058  11.629
77876W        W43136  15.226  38.917   0.585
77877W        W43137  42.263  26.851   2.822
77878W        W43138  16.733  12.668   3.550
77879W        W43139  16.829  31.137  10.961
77880W        W43140  31.014  11.586  11.994
77881W        W43141   4.425   6.801  14.000
77882W        W43142  34.990   3.646  12.421
77883W        W43143   4.903  11.510  10.284
77884W        W43144  39.892  27.501  14.723
77885W        W43145  14.564  38.975  10.156
77886W        W43146  33.478  23.583  11.245
77887W        W43147  20.170   7.486   0.954
77888W        W43148  21.074  36.317   1.515
77889W        W43149  34.319  41.713   4.181
77890W        W43150  36.394   6.731  14.891
77891W        W43151  40.504  17.563  12.991
77892W        W43152  10.661  36.953  10.656
77893W        W43153   4.359  20.782   2.200
77894W        W43154  13.141  14.307  11.583
77895W        W43155   5.862  28.506   9.712
77896W        W43156   5.787  35.808   4.526
77897W        W43157  44.790  37.520   1.708
77898W        W43158  41.021   1.904   2.603
77899W        W43159  14.379   0.757   4.591
77900W        W43160  10.849  35.605   1.728
77901W        W43161  10.360  38.177   0.060
77902W        W43162   7.251  31.061  12.535
77903W        W43163  17.996   1.223   3.671
77904W        W43164  41.486  40.873   2.859
77905W        W43165  26.245   3.930   2.814
77906W        W43166   4.921  32.152   0.134
77907W        W43167  19.800   0.864  14.784
77908W        W43168  23.749  32.814  14.796
77909W        W43169   6.219  26.004   2.625
77910W        W43170  40.540  31.960   3.555
77911W        W43171   2.458  28.691   1.312
77912W        W43172  43.509  24.139  11.197
77913W        W43173   7.890  16.003  12.447
77914W        W43174  25.437  38.279   1.081
77915W        W43175  28.060  14.155   3.592
77916W        W43176  18.009   6.373   4.020
77917W        W43177  29.160  14.840   0.773
77918W        W43178   8.339  41.580  13.910
77919W        W43179  22.618  22.916   3.721
77920W        W43180   2.258  11.992  14.982
77921W        W43181  37.038  38.886   1.136
77922W        W43182  42.761   8.746  14.727
77923W        W43183  15.875  31.527  13.956
77924W        W43184   3.254  29.959   3.216
77925W        W43185  37.412  22.030  13.509
77926W        W43186  14.857  26.076   1.384
77927W        W43187   5.459   0.677   1.669
77928W        W43188  12.194   3.504  12.045
77929W        W43189  15.225  17.176  12.855
77930W        W43190  27.592  26.520   3.178
77931W        W43191  24.943  31.488   0.525
77932W        W43192   1.917  25.652  10.794
77933W        W43193   1.633   5.706  14.215
77934W        W43194   2.697  26.455  12.396
77935W        W43195  37.336  17.106   1.497
77936W        W43196   1.416   9.122   2.206
77937W        W43197  30.956  24.257  11.620
77938W        W43198   8.878  15.083  11.956
77939W        W43199   4.506  12.777  13.554
77940W        W43200  33.906  21.022   2.673
77941W        W43201   5.071   2.038   3.642
77942W        W43202  33.543  44.616   3.132
77943W        W43203  44.770  33.075  12.409
77944W        W43204  38.200  11.746   3.712
77945W        W43205  10.107  35.907   2.855
77946W        W43206  40.129   0.637  10.375
77947W        W43207  31.145   6.864  12.936
77948W        W43208  40.085  33.148   4.323
77949W        W43209   7.616  31.116  13.480
77950W        W43210  27.644  42.520  10.654
77951W        W43211  21.012  28.105   1.829
77952W        W43212  38.881  23.253   4.147
77953W        W43213  26.520  44.867   3.599
77954W        W43214  36.915  12.782   1.673
77955W        W43215   0.690  15.163   0.860
77956W        W43216   6.227  25.637   1.214
77957W        W43217  39.304   7.182  11.692
77958W        W43218  24.145  10.692   4.448
77959W        W43219  10.633  19.193   3.706
77960W        W43220   2.267  31.898  13.120
77961W        W43221  19.584  12.927  10.698
77962W        W43222  44.668  18.687   1.324
77963W        W43223  25.065  36.818  13.860
77964W        W43224   0.359  43.344   1.791
77965W        W43225  12.216  32.133  14.671
77966W        W43226   6.675  15.126  10.973
77967W        W43227  23.806  13.551  13.754
77968W        W43228  17.465  13.182  14.029
77969W        W43229   3.838  26.934   0.316
77970W        W43230  40.207   6.421  12.897
77971W        W43231  24.904   2.223  13.130
77972W        W43232   1.855   5.987  13.218
77973W        W43233  30.438  40.994  11.489
77974W        W43234  18.688  33.455   4.263
77975W        W43235  24.238   5.702  13.376
77976W        W43236  17.635  16.920   4.887
77977W        W43237  43.250  40.758   0.722
77978W        W43238  23.254  32.114  12.405
77979W        W43239  32.538  33.106  12.008
77980W        W43240   7.668  16.109   1.639
77981W        W43241   6.708  18.028  10.647
77982W        W43242  24.331  20.282   1.906
77983W        W43243   7.701  43.849   2.727
77984W        W43244  39.941  12.603  12.135
77985W        W43245   2.029   7.495   0.945
77986W        W43246  23.404  33.944  12.390
77987W        W43247   0.924  19.841   0.977
77988W        W43248  39.221  35.740   5.004
77989W        W43249  21.215  19.641   4.229
77990W        W43250  32.293  19.215   2.262
77991W        W43251  17.184   2.121  14.409
77992W        W43252  36.461  26.345   2.865
77993W        W43253  14.151  28.657   4.703
77994W        W43254   3.726  28.393  14.006
77995W        W43255   2.873  30.585   2.368
77996W        W43256  31.924  41.067  10.421
77997W        W43257  32.067  15.540   2.176
77998W        W43258  14.691  43.259  10.686
77999W        W43259  38.401  19.541  12.529
78000W        W43260  23.344   0.803  11.938
78001W        W43261   3.343  20.219   3.687
78002W        W43262  15.638   7.811  11.943
78003W        W43263  18.172  29.733   2.260
78004W        W43264  38.878  23.617  13.046
78005W        W43265  16.198  19.546   1.263
78006W        W43266  36.140  39.869   3.124
78007W        W43267  24.070  29.589   0.349
78008W        W43268   9.834  17.248  13.552
78009W        W43269   6.379   9.707   4.342
78010W        W43270   5.236  29.753   3.101
78011W        W43271  37.067   9.913   2.714
78012W        W43272  44.748  43.463  12.081
78013W        W43273  21.031  30.139  14.892
78014W        W43274   2.019  10.236  13.996
78015W        W43275  13.864  25.250  12.338
78016W        W43276  11.909  22.216   4.207
78017W        W43277  19.573  26.579   3.638
78018W        W43278   0.926  27.900   2.182
78019W        W43279  27.234  39.521   0.918
78020W        W43280  38.323  20.120   2.696
78021W        W43281   5.487   8.843   4.976
78022W        W43282   9.944  24.898   3.639
78023W        W43283  37.061  41.446  13.321
78024W        W43284  12.051  30.395   0.782
78025W        W43285  32.972  35.801  12.841
78026W        W43286  21.425   6.142  11.251
78027W        W43287  16.842  11.277  13.491
78028W        W43288   4.740  19.859   3.714
78029W        W43289  27.031  20.926   1.112
78030W        W43290   2.343  11.547   3.670
78031W        W43291   6.878  14.443   4.133
78032W        W43292  12.210  10.644  11.415
78033W        W43293   1.474  37.311   4.900
78034W        W43294  44.342  33.989  10.867
78035W        W43295   1.209  30.962   4.394
78036W        W43296  19.139  13.097  12.490
78037W        W43297  32.935  14.115  12.977
78038W        W43298  23.974  21.704   4.650
78039W        W43299  25.943  25.913  14.419
78040W        W43300  43.895  10.747  10.765
78041W        W43301  32.454   5.935  14.250
78042W        W43302  29.936  28.629  13.445
78043W        W43303   9.375  12.871   4.295
78044W        W43304  33.347   2.778   3.391
78045W        W43305  10.529  16.792  12.430
78046W        W43306  11.050  42.987  13.348
78047W        W43307   4.908  26.902  11.986
78048W        W43308  15.150  16.628  13.617
78049W        W43309   9.067  34.488  12.222
78050W        W43310  33.928   5.839   0.798
78051W        W43311  42.360  14.694   0.940
78052W        W43312   2.770  44.891   4.071
78053W        W43313  43.111  33.074   0.046
78054W        W43314  21.776  34.387   0.800
78055W        W43315  23.568  22.959   3.748
78056W        W43316   5.806  14.793  11.520
78057W        W43317  30.939   0.348  11.571
78058W        W43318  34.252  19.227   0.994
78059W        W43319  26.111  11.887  11.202
78060W        W43320   2.802   2.917   4.144
78061W        W43321  24.155   7.613  12.443
78062W        W43322   3.275  39.999   1.491
78063W        W43323  13.815  17.846  12.028
78064W        W43324  34.072   2.229  12.002
78065W        W43325  16.965  17.529   5.098
78066W        W43326   8.186   2.697   0.497
78067W        W43327   9.818  14.672  14.900
78068W        W43328  35.561   7.021  11.439
78069W        W43329   3.914  13.220  11.723
78070W        W43330   0.321  23.623   3.474
78071W        W43331   5.409  40.220   1.417
78072W        W43332   6.910   5.404   4.284
78073W        W43333  28.099  40.713  12.702
78074W        W43334  33.509  10.123  12.978
78075W        W43335  35.494  37.851  12.634
78076W        W43336  44.292  11.546  12.169
78077W        W43337  25.122  28.586  10.419
78078W        W43338  42.531  25.103  14.075
78079W        W43339  24.247  43.753   1.226
78080W        W43340   2.796  41.452  12.326
78081W        W43341  37.456  42.003   0.965
78082W        W43342  34.060  25.442  12.917
78083W        W43343   8.877  44.450  14.822
78084W        W43344  21.125  16.505   4.189
78085W        W43345  39.549  39.939  13.993
78086W        W43346  39.916  26.059  12.135
78087W        W43347  18.172  30.219   2.433
78088W        W43348  16.204  25.471   1.773
78089W        W43349  10.333  20.495  13.357
78090W        W43350   0.417  32.721   4.097
78091W        W43351  17.556  35.092  11.394
78092W        W43352  27.963  36.056   3.215
78093W        W43353  26.581  43.711   2.925
78094W        W43354  13.868   8.671   2.904
78095W        W43355  26.090  36.348   0.871
78096W        W43356   3.660  20.837  12.029
78097W        W43357   6.233  25.613  14.099
78098W        W43358  30.997  20.033  14.142
78099W        W43359   3.282  14.699  12.562
78100W        W43360  26.462  28.560   3.309
78101W        W43361  11.651   5.921  14.076
78102W        W43362  32.416  38.804  14.388
78103W        W43363  16.554   5.172  12.468
78104W        W43364  42.835  37.845  10.604
78105W        W43365   8.354  21.660  13.068
78106W        W43366   3.284   0.861   3.243
78107W        W43367  12.611  25.451   3.642
78108W        W43368   5.926  19.509   2.905
78109W        W43369  31.546   2.281   3.446
78110W        W43370   8.931  24.063  11.341
78111W        W43371  24.998  29.034  14.490
78112W        W43372  22.811  21.447  12.904
78113W        W43373  29.589  38.440   1.034
78114W        W43374  36.043  42.393   2.268
78115W        W43375  41.852   2.445   3.403
78116W        W43376  11.787  15.518   2.171
78117W        W43377  38.994  28.343  13.471
78118W        W43378  41.932  36.553  11.507
78119W        W43379   2.201  12.104   4.504
78120W        W43380  15.714  19.743   1.127
78121W        W43381  21.720  35.551   0.020
78122W        W43382   3.235  19.321  10.899
78123W        W43383  11.652  37.147   0.563
78124W        W43384  23.291  12.740  11.589
78125W        W43385   6.446   5.883   4.722
78126W        W43386  26.062   4.317  10.251
78127W        W43387  20.132  37.889   3.737
78128W        W43388  27.624  24.160   2.070
78129W        W43389  32.013  39.512   2.223
78130W        W43390   9.647   4.942  13.113
78131W        W43391   6.833  14.676   0.929
78132W        W43392  13.159   8.942   0.319
78133W        W43393  14.803   0.902  11.468
78134W        W43394  10.901  32.074   2.808
78135W        W43395  25.221  12.862   3.312
78136W        W43396  39.591  35.505   0.060
78137W        W43397  26.394  22.020   0.295
78138W        W43398   5.713  44.231  13.652
78139W        W43399  38.191  11.806  10.406
78140W        W43400  41.877  10.668  11.731
78141W        W43401  21.242  38.862   3.502
78142W        W43402  26.064  18.045   1.152
78143W        W43403  44.248  37.603  12.183
78144W        W43404  40.568  14.140  12.875
78145W        W43405  29.225  10.913  11.648
78146W        W43406   8.540  36.585  13.803
78147W        W43407  19.211  24.078  13.422
78148W        W43408  14.152   2.843   1.927
78149W        W43409  15.877  25.132   0.912
78150W        W43410  12.672  40.389  12.348
78151W        W43411   5.359  32.604  12.939
78152W        W43412  15.789   1.696  13.567
78153W        W43413  22.482  11.900   3.595
78154W        W43414  39.407   9.969  14.837
78155W        W43415  16.937  35.373  11.173
78156W        W43416   4.692   2.984  12.817
78157W        W43417   5.354  18.505  11.069
78158W        W43418  21.813  33.853   3.547
78159W        W43419  19.852  41.300  14.924
78160W        W43420  43.188  32.799  13.416
78161W        W43421  37.843  42.207   0.144
78162W        W43422   2.589  27.880   1.863
78163W        W43423  33.983  39.538  13.679
78164W        W43424   9.174   9.771  12.022
78165W        W43425  38.443  41.729   2.226
78166W        W43426   2.739  44.937   4.591
78167W        W43427  41.918  23.547   1.869
78168W        W43428  13.304   0.632   2.649
78169W        W43429  19.278   7.403   3.694
78170W        W43430  34.523  10.606   3.220
78171W        W43431  28.608  17.754   4.507
78172W        W43432  22.071  14.766   3.384
78173W        W43433  35.383  11.313  12.485
78174W        W43434  30.023   5.263   3.123
78175W        W43435  40.537   2.861   9.884
78176W        W43436  28.137  13.058  14.849
78177W        W43437  25.367   7.191   1.452
78178W        W43438   6.694  15.682  13.102
78179W        W43439  12.584  25.271  13.230
78180W        W43440   1.584  12.649   5.448
78181W        W43441   2.798  29.885  13.016
78182W        W43442   2.790  10.765  14.788
78183W        W43443  32.906  16.797   0.014
78184W        W43444  29.370  12.044   1.969
78185W        W43445  41.055  44.022  12.992
78186W        W43446  10.313  12.468   0.834
78187W        W43447  24.264  16.687   0.017
78188W        W43448  28.020  42.398  14.768
78189W        W43449  36.001  14.009  13.473
78190W        W43450   7.472   9.904   2.196
78191W        W43451   3.843  33.866  12.895
78192W        W43452  34.902  24.451   3.035
78193W        W43453   7.305  36.684  14.477
78194W        W43454  30.956  18.092   0.750
78195W        W43455  38.137   5.327  12.820
78196W        W43456  29.673  31.772   5.049
78197W        W43457  38.637  37.618  12.619
78198W        W43458  39.717   7.254  14.415
78199W        W43459  18.800  44.953   2.824
78200W        W43460  17.413  43.448  11.150
78201W        W43461   6.196   4.817  13.538
78202W        W43462  30.446  25.993  14.796
78203W        W43463  28.221  35.536   0.358
78204W        W43464   2.528   8.297  13.985
78205W        W43465  32.172  29.013   4.408
78206W        W43466   7.190   4.317  10.946
78207W        W43467  18.355  10.389  12.330
78208W        W43468   1.832  27.921   1.089
78209W        W43469  29.168  11.378  10.824
78210W        W43470  35.941  23.966   4.549
78211W        W43471  23.188   6.938   1.244
78212W        W43472  31.902  28.566   3.663
78213W        W43473  31.565  26.656  13.906
78214W        W43474  35.176  20.154  14.963
78215W        W43475  16.045   7.128   0.195
78216W        W43476   0.406   8.395   0.740
78217W        W43477  42.709  38.361   3.666
78218W        W43478  37.081   7.348   0.904
78219W        W43479  24.026  42.876   4.430
78220W        W43480  38.761  40.079  12.465
78221W        W43481  42.896   9.846  12.019
78222W        W43482   1.952  33.876   3.479
78223W        W43483   0.894  26.867   2.137
78224W        W43484  38.563  14.984   1.298
78225W        W43485  39.954   0.010   0.326
78226W        W43486  28.744  11.752   4.067
78227W        W43487  20.117  40.624  11.069
78228W        W43488  28.210   0.202   0.485
78229W        W43489  30.163  40.177  14.980
78230W        W43490   5.207  24.256   9.443
78231W        W43491  12.859   0.866  11.351
78232W        W43492  22.969  32.137  11.465
78233W        W43493  33.047  19.024  14.323
78234W        W43494  16.757   7.734  13.559
78235W        W43495  23.780  23.157  13.404
78236W        W43496  37.270  32.374  14.720
78237W        W43497   7.448  10.826  11.473
78238W        W43498  13.133  34.694   1.947
78239W        W43499   5.468   8.469   2.393
78240W        W43500  20.547  10.030   1.179
78241W        W43501   5.395   7.364  14.597
78242W        W43502  40.340  16.857   4.718
78243W        W43503  12.066   9.385   2.174
78244W        W43504  10.647  43.259   2.950
78245W        W43505  17.972  22.859   0.147
78246W        W43506  10.552  29.452   3.406
78247W        W43507  32.352  24.751   3.230
78248W        W43508  19.658   4.833  11.399
78249W        W43509  11.183  13.396   0.129
78250W        W43510  33.164   3.628   1.399
78251W        W43511  35.564  36.823   4.576
78252W        W43512  13.859  34.164  14.491
78253W        W43513   4.810  33.381  13.605
78254W        W43514  21.723  29.501   3.982
78255W        W43515   5.722  35.834  14.012
78256W        W43516  32.426  39.831   2.228
78257W        W43517  43.701   0.847   4.212
78258W        W43518  15.154  31.189  14.411
78259W        W43519  40.548  15.074   0.353
78260W        W43520  36.972  36.287   2.895
78261W        W43521  33.522  10.663   3.651
78262W        W43522  29.837  36.856   1.874
78263W        W43523   3.415  22.537   3.590
78264W        W43524  29.589   1.810   1.542
78265W        W43525  44.439  35.903  10.443
78266W        W43526  31.419  14.913   2.372
78267W        W43527  20.229  31.156  13.976
78268W        W43528  36.992  12.183  14.977
78269W        W43529   7.715  29.482   1.995
78270W        W43530  32.985  44.125   4.545
78271W        W43531  42.895   3.423   4.137
78272W        W43532  19.473  38.285   4.560
78273W        W43533  40.158   3.890   5.109
78274W        W43534  26.145  44.336  12.798
78275W        W43535   2.342  43.038   2.298
78276W        W43536  39.906  44.961   1.843
78277W        W43537  39.899  27.363  12.634
78278W        W43538  33.832   3.681   0.470
78279W        W43539  32.514  22.450  10.278
78280W        W43540   5.812  19.307   4.170
78281W        W43541   7.412   6.294  10.674
78282W        W43542  21.074  38.486  11.201
78283W        W43543   8.813  21.493   0.445
78284W        W43544   5.351  31.815  11.499
78285W        W43545   2.295  17.756   0.795
78286W        W43546  37.913  42.962   0.726
78287W        W43547  15.047   7.351   0.436
78288W        W43548  23.610   4.979  13.060
78289W        W43549   7.961   8.862  13.645
78290W        W43550  44.812  10.833  14.724
78291W        W43551  28.641  31.579   1.928
78292W        W43552  36.937  11.356   4.765
78293W        W43553  35.098  29.909  11.189
78294W        W43554   1.435  43.754  11.381
78295W        W43555  44.460  26.533   2.317
78296W        W43556  26.604  29.125  13.034
78297W        W43557  14.193   4.280   2.461
78298W        W43558  11.809  35.146   1.714
78299W        W43559  12.634   6.710   1.273
78300W        W43560   2.922  11.183  11.980
78301W        W43561  44.998  15.231   1.398
78302W        W43562   0.774  27.048  14.095
78303W        W43563  36.683  21.148   4.207
78304W        W43564  27.587  40.157   2.826
78305W        W43565   4.112  18.152   3.196
78306W        W43566  28.644  22.083  11.186
78307W        W43567  18.049  34.162   1.322
78308W        W43568  44.926  30.006   2.194
78309W        W43569  38.293  31.634   0.714
78310W        W43570  28.133  43.447   4.093
78311W        W43571   3.991  20.062  12.356
78312W        W43572  15.057  16.858   2.343
78313W        W43573  16.815  31.445  11.539
78314W        W43574   9.135  42.019  14.947
78315W        W43575  17.705   6.346   2.802
78316W        W43576  34.388   2.583   1.941
78317W        W43577  44.694  38.680   0.327
78318W        W43578   8.489  10.872  14.857
78319W        W43579  26.776  40.348  15.000
78320W        W43580  42.737  40.886  14.460
78321W        W43581  43.424   9.440  11.538
78322W        W43582  19.331  30.351   0.331
78323W        W43583  35.911  27.379  11.577
78324W        W43584   9.719  26.687  11.638
78325W        W43585  15.102  31.759  11.105
78326W        W43586  28.821  15.767   3.751
78327W        W43587  32.907   5.688  12.065
78328W        W43588  25.659   3.425   0.638
78329W        W43589  36.276  39.535  11.658
78330W        W43590   6.128  21.140   4.984
78331W        W43591  33.926  21.881   4.047
78332W        W43592  20.098  10.291  11.106
78333W        W43593  42.531  17.062  11.057
78334W        W43594  34.869  16.299   0.201
78335W        W43595  34.555  17.334   1.228
78336W        W43596  30.084  36.125  10.518
78337W        W43597   1.373  14.559   2.294
78338W        W43598  36.902  19.403   4.257
78339W        W43599  26.125   1.400  13.443
78340W        W43600  40.554  23.708  13.719
78341W        W43601   3.788  29.372  13.859
78342W        W43602  43.563  15.828  11.973
78343W        W43603  34.436   1.770  13.528
78344W        W43604   9.063  29.683  14.684
78345W        W43605  21.184   0.744   2.735
78346W        W43606  24.564   6.201   5.100
78347W        W43607  10.171  14.617   1.401
78348W        W43608  16.598  16.550   3.345
78349W        W43609  38.052  29.170  10.265
78350W        W43610  34.080   4.717  11.585
78351W        W43611  13.860   6.410   4.616
78352W        W43612  12.429  22.302   4.218
78353W        W43613  25.742  17.204  14.466
78354W        W43614  17.059  13.601   1.727
78355W        W43615  15.238   6.181   3.605
78356W        W43616  35.736  43.758  13.407
78357W        W43617  15.511  12.166   1.894
78358W        W43618  16.699   2.338  14.450
78359W        W43619   1.933  24.576  13.843
78360W        W43620  43.061  23.691   4.736
78361W        W43621   8.087  38.350  10.662
78362W        W43622  32.400  24.820  10.822
78363W        W43623  13.408  35.555   4.151
78364W        W43624  29.054  41.969   0.736
78365W        W43625   3.613   8.830   1.704
78366W        W43626  34.399  39.451   4.251
78367W        W43627  20.969  44.872   0.955
78368W        W43628  17.709  31.761   0.502
78369W        W43629  40.383   2.497   2.315
78370W        W43630  10.411  15.744   2.317
78371W        W43631  21.480  40.248   3.314
78372W        W43632  13.788  39.965  11.473
78373W        W43633  20.368  13.612  12.973
78374W        W43634  16.321  15.747   2.880
78375W        W43635  36.568  37.479   3.598
78376W        W43636  23.352   3.882  11.604
78377W        W43637   9.123  34.418   2.882
78378W        W43638  33.942  22.064   3.570
78379W        W43639  17.919  37.710  12.747
78380W        W43640   8.807   5.495  10.701
78381W        W43641  11.523   5.119  14.257
78382W        W43642  17.090  43.534   4.223
78383W        W43643  14.201  40.045  10.627
78384W        W43644  17.129   9.289  12.971
78385W        W43645  34.143  32.426  10.401
78386W        W43646  14.787  10.949  14.731
78387W        W43647  38.814  34.190   3.934
78388W        W43648  29.355  31.089  12.045
78389W        W43649  11.741  32.745  13.103
78390W        W43650  33.902  31.664   1.509
78391W        W43651  35.520   0.872   4.045
78392W        W43652  40.076  42.722  12.394
78393W        W43653   0.059  31.079  14.438
78394W        W43654   5.506  20.913   4.586
78395W        W43655  16.830   9.151  13.734
78396W        W43656  15.133  24.606  13.748
78397W        W43657  35.422  12.409   0.760
78398W        W43658  34.088   1.460   1.887
78399W        W43659  27.077  29.393  14.141
78400W        W43660   2.602  25.726  13.762
78401W        W43661  36.995  34.647   2.664
78402W        W43662   0.064  34.436   0.649
78403W        W43663  21.058  17.892   0.194
78404W        W43664  19.364  40.975   0.386
78405W        W43665  28.622  27.542   4.356
78406W        W43666  24.269  11.817   0.714
78407W        W43667   0.054  43.292   2.347
78408W        W43668  24.103  14.573  14.410
78409W        W43669  32.588  29.908   0.178
78410W        W43670  16.245  32.893   0.936
78411W        W43671   5.226  26.906   3.645
78412W        W43672  28.699  25.362   9.725
78413W        W43673  36.304  12.086  12.642
78414W        W43674  10.113  14.291   0.926
78415W        W43675  37.550  17.219  13.951
78416W        W43676  21.070  20.141  13.023
78417W        W43677  13.045  25.905   2.133
78418W        W43678  13.674  38.737  10.845
78419W        W43679   9.961  36.420  14.170
78420W        W43680  42.306   5.304   0.505
78421W        W43681   8.134  14.013   2.900
78422W        W43682  43.433  33.517   4.608
78423W        W43683   0.989  16.728  11.464
78424W        W43684  37.944   3.453  11.702
78425W        W43685  43.931  41.515  13.472
78426W        W43686  11.303  10.961  11.510
78427W        W43687  12.643  31.270   3.241
78428W        W43688   3.712  22.266   3.155
78429W        W43689   4.985   8.100  12.950
78430W        W43690  42.772   6.981   3.791
78431W        W43691  21.460  30.558  13.493
78432W        W43692   3.728  19.451   2.947
78433W        W43693  25.039  31.036   3.544
78434W        W43694  14.836  12.771  13.047
78435W        W43695  34.562   8.140   1.349
78436W        W43696  32.554  26.650   3.156
78437W        W43697  13.042  38.463  11.543
78438W        W43698  24.074  26.118   0.194
78439W        W43699  20.782  23.670   0.766
78440W        W43700   5.826   0.164  14.720
78441W        W43701  28.425  11.838   0.413
78442W        W43702  32.065  39.522   3.756
78443W        W43703   4.547  16.281   0.351
78444W        W43704  34.046   5.682   3.591
78445W        W43705  41.108  11.617  12.996
78446W        W43706  40.213  17.055  10.363
78447W        W43707  42.638  43.857   2.235
78448W        W43708  30.818  36.886  13.824
78449W        W43709  27.463  30.029  14.225
78450W        W43710  23.723  10.815   4.760
78451W        W43711  42.807  12.786  13.017
78452W        W43712   0.052   8.747   5.575
78453W        W43713  24.910  19.818   5.710
78454W        W43714  17.506  24.248  11.625
78455W        W43715  19.307  16.635   2.187
78456W        W43716  37.886  33.879   0.938
78457W        W43717   1.737  43.177  12.696
78458W        W43718  22.577  30.156  12.010
78459W        W43719  23.508   4.574   0.410
78460W        W43720  33.084  26.245   1.902
78461W        W43721  41.469  14.666  10.192
78462W        W43722  33.469  11.326  12.072
78463W        W43723  40.716  18.231   0.177
78464W        W43724  20.091  15.128  11.627
78465W        W43725   5.505  18.289  13.517
78466W        W43726  28.499  16.541  12.241
78467W        W43727  40.004  17.492   3.619
78468W        W43728  42.512  42.922  12.792
78469W        W43729  23.684   0.454  13.026
78470W        W43730   2.998  29.531  14.927
78471W        W43731  26.968  37.320   5.041
78472W        W43732  42.893  44.825   1.542
78473W        W43733   7.766  23.623   0.420
78474W        W43734  41.868  43.637  14.558
78475W        W43735  30.648   2.944  13.016
78476W        W43736   4.286  16.785  13.372
78477W        W43737  43.580  29.574   3.708
78478W        W43738  35.291  33.919  12.831
78479W        W43739  31.860  29.244   4.758
78480W        W43740  37.384   7.254  12.089
78481W        W43741   0.477  27.197   2.866
78482W        W43742  19.756  24.039  12.181
78483W        W43743  22.472  16.117   0.315
78484W        W43744  10.102  13.702   0.352
78485W        W43745  41.992  38.909  10.575
78486W        W43746  25.257  40.362  14.347
78487W        W43747  32.696  34.891   4.669
78488W        W43748  38.712   6.274   3.634
78489W        W43749   1.197  30.481   0.271
78490W        W43750   7.148  25.901   2.710
78491W        W43751  38.064  30.581  10.518
78492W        W43752  23.432  34.452  12.909
78493W        W43753  36.076  12.128   1.272
78494W        W43754   4.650  16.236  14.387
78495W        W43755  20.522  42.989  13.936
78496W        W43756   6.440  13.192   3.632
78497W        W43757   9.783  25.307  10.601
78498W        W43758  20.929   5.850   9.737
78499W        W43759  15.128   3.731   0.808
78500W        W43760  25.431  30.651  12.662
78501W        W43761  35.118  17.232   4.161
78502W        W43762  22.284  13.273   1.755
78503W        W43763   1.728  42.813   1.737
78504W        W43764  21.520  16.825   0.164
78505W        W43765  27.649  25.738  11.200
78506W        W43766  37.248  43.948  10.128
78507W        W43767  35.868  36.035  14.912
78508W        W43768   9.814  28.170   3.133
78509W        W43769  23.730  19.875   0.861
78510W        W43770  40.509  11.852  11.151
78511W        W43771  35.892  29.671   0.973
78512W        W43772  26.161  27.528   1.207
78513W        W43773   7.030  23.572  14.010
78514W        W43774  31.820   8.096   3.309
78515W        W43775  30.030  37.569   0.285
78516W        W43776  44.984  38.078  13.522
78517W        W43777  26.503  10.264  11.727
78518W        W43778  34.103  37.347  10.760
78519W        W43779  24.153  11.132  11.528
78520W        W43780  30.356  21.437   1.854
78521W        W43781  33.406  10.350  13.463
78522W        W43782  18.737  23.326   2.472
78523W        W43783  38.463  43.679   4.183
78524W        W43784   5.381  12.324   2.843
78525W        W43785   5.973  36.606   0.218
78526W        W43786  37.336  22.035  14.409
78527W        W43787  14.223  21.590   0.665
78528W        W43788  24.918  11.239  14.425
78529W        W43789  22.015   6.485   0.388
78530W        W43790   4.306  20.698  11.275
78531W        W43791   4.495  37.983  10.520
78532W        W43792  26.460  32.649  10.496
78533W        W43793  33.074  37.616  13.290
78534W        W43794   9.325   3.766   1.882
78535W        W43795  17.292  13.043   4.145
78536W        W43796  34.323  30.170   3.238
78537W        W43797  40.956  34.980  12.376
78538W        W43798  12.623  11.107  11.477
78539W        W43799   1.243  29.089   1.708
78540W        W43800   9.631  42.002  11.869
78541W        W43801  17.605  17.819   1.472
78542W        W43802  11.420   9.588  12.071
78543W        W43803  38.140   7.428   3.245
78544W        W43804  16.841  35.834   2.308
78545W        W43805  44.232  20.793  12.323
78546W        W43806  28.768  17.516   2.259
78547W        W43807   6.749  36.049  14.455
78548W        W43808  29.136   9.902  10.593
78549W        W43809   1.989   2.886   4.619
78550W        W43810  12.265  31.170  14.357
78551W        W43811  23.994  13.799  11.175
78552W        W43812  39.953  28.278   2.785
78553W        W43813  24.316   1.854   0.900
78554W        W43814   2.980  26.553  12.832
78555W        W43815  36.426  43.512  14.970
78556W        W43816   8.199  34.685   4.742
78557W        W43817  44.074   6.684   4.197
78558W        W43818  34.193   7.357  12.031
78559W        W43819  11.643  44.016  14.363
78560W        W43820  42.778  35.035   3.648
78561W        W43821  22.007  12.091  10.991
78562W        W43822  24.643  39.376  12.163
78563W        W43823  13.164   7.895   3.742
78564W        W43824  38.592  17.243  14.026
78565W        W43825  32.654  11.697   3.641
78566W        W43826  44.445  13.767  13.035
78567W        W43827  15.678  41.832  12.070
78568W        W43828  26.093  15.319   0.284
78569W        W43829  21.006   7.911   4.233
78570W        W43830  13.676   1.234  11.973
78571W        W43831  35.290  17.109   1.896
78572W        W43832  21.053  34.890  12.007
78573W        W43833  19.780  25.348   2.371
78574W        W43834  29.848  12.377  14.555
78575W        W43835  29.746   8.401  12.509
78576W        W43836   9.241  17.340   0.875
78577W        W43837  18.680  30.547  10.602
78578W        W43838  20.716   0.931   1.668
78579W        W43839  10.304  22.462   3.188
78580W        W43840  30.165  21.351   2.372
78581W        W43841  30.548   5.643   4.763
78582W        W43842  24.180  10.784  12.462
78583W        W43843  18.856  30.460   2.765
78584W        W43844  35.079  35.330  10.610
78585W        W43845  11.561  36.740   0.873
78586W        W43846  30.488   6.268  10.610
78587W        W43847  12.808  15.571  13.048
78588W        W43848  16.648  28.998   2.387
78589W        W43849  20.759  32.246  12.713
78590W        W43850   4.679  11.380  11.636
78591W        W43851  17.311  41.336  12.080
78592W        W43852   5.987   2.491   3.174
78593W        W43853  29.749  22.669   4.715
78594W        W43854  15.560   1.932   1.034
78595W        W43855  44.642  44.341  10.525
78596W        W43856   6.816   6.283   1.894
78597W        W43857  36.467  19.551   3.625
78598W        W43858  17.288   3.428   3.656
78599W        W43859   9.770   4.013  14.855
78600W        W43860  36.567  15.505  14.107
78601W        W43861  10.676   5.220  14.751
78602W        W43862  39.857  14.706   4.872
78603W        W43863  43.937  35.353   4.179
78604W        W43864  24.185  39.591   2.347
78605W        W43865  34.191  44.150  13.997
78606W        W43866  40.359  29.364   4.506
78607W        W43867  10.259   0.346  14.079
78608W        W43868  37.567  36.940   3.783
78609W        W43869  25.247  24.598   2.192
78610W        W43870  12.679  15.585  12.088
78611W        W43871   8.402  23.722  10.688
78612W        W43872  33.497  16.323  11.142
78613W        W43873  24.553   5.941  10.745
78614W        W43874   8.793  11.897   0.883
78615W        W43875  20.378  42.033   0.394
78616W        W43876  28.124  22.702   2.321
78617W        W43877  11.438  26.069   4.597
78618W        W43878  29.929  23.093  10.499
78619W        W43879  11.850  17.366  11.819
78620W        W43880   9.016   2.948   1.594
78621W        W43881  11.162  16.637  14.307
78622W        W43882   0.575  34.628   4.870
78623W        W43883  28.510  29.637  13.495
78624W        W43884  23.096  39.780   0.434
78625W        W43885  10.812  34.391   4.420
78626W        W43886  26.188  41.295   4.301
78627W        W43887  18.712  16.772  11.557
78628W        W43888  42.711   6.397  10.819
78629W        W43889  40.365  16.475  13.361
78630W        W43890  31.706  36.890   4.885
78631W        W43891  18.211  21.536  13.824
78632W        W43892  42.209  40.872  14.410
78633W        W43893  22.987  44.958   1.692
78634W        W43894  21.620   2.740   2.399
78635W        W43895  38.712  24.426   1.488
78636W        W43896  13.698   5.757  11.310
78637W        W43897  43.082  27.635  13.952
78638W        W43898  15.702   2.447   3.696
78639W        W43899   3.259  26.264  14.401
78640W        W43900  42.193  12.511  10.207
78641W        W43901   4.251   8.483  12.069
78642W        W43902  32.169  10.044  13.038
78643W        W43903  32.103  15.521  10.754
78644W        W43904   0.383  39.065   4.891
78645W        W43905  33.558  11.243   1.786
78646W        W43906  37.455  19.643   5.086
78647W        W43907  10.654  26.112  13.017
78648W        W43908  40.513  27.875  12.009
78649W        W43909  25.621   0.824  10.727
78650W        W43910  22.785  33.381   1.308
78651W        W43911  12.447  43.537  13.289
78652W        W43912  30.517  35.757  12.624
78653W        W43913  20.766  38.520   2.722
78654W        W43914  19.056  16.365  11.570
78655W        W43915   4.879  16.793  12.179
78656W        W43916  29.149  10.411  14.948
78657W        W43917  37.852   3.340   1.663
78658W        W43918   1.696  29.473  12.318
78659W        W43919  17.656  10.575  13.372
78660W        W43920  16.077  44.761  14.510
78661W        W43921  36.028  10.647   1.948
78662W        W43922  44.996  39.966   4.204
78663W        W43923  27.508   5.955  13.897
78664W        W43924  19.772  23.201   0.387
78665W        W43925  23.606   7.607   1.447
78666W        W43926   9.341  13.075  14.851
78667W        W43927  40.963  21.592   4.409
78668W        W43928  30.574   7.418   1.935
78669W        W43929   9.329  21.186  10.295
78670W        W43930  19.832   0.451   3.644
78671W        W43931  14.294   0.022  12.980
78672W        W43932  36.361  13.223   2.634
78673W        W43933  11.652  26.041  14.916
78674W        W43934  24.070  15.017  10.523
78675W        W43935  25.587  35.341  12.519
78676W        W43936  37.991  15.126   2.556
78677W        W43937  37.083  16.924   3.131
78678W        W43938  14.398   4.682   2.170
78679W        W43939  14.739  40.757  10.755
78680W        W43940  32.046  28.080   5.242
78681W        W43941  19.620  11.519  14.831
78682W        W43942  25.916  11.990  11.661
78683W        W43943   7.182  37.284   5.205
78684W        W43944  36.915  34.622  12.202
78685W        W43945  22.757  12.182   1.491
78686W        W43946  41.368  18.353   3.694
78687W        W43947  31.334  14.610  12.483
78688W        W43948  25.359  36.995   2.191
78689W        W43949   9.173  19.720   2.524
78690W        W43950  23.962  38.095   2.260
78691W        W43951  28.610  34.337   1.834
78692W        W43952  13.070  29.515  10.618
78693W        W43953  10.566  10.673   0.394
78694W        W43954   3.376   1.132   2.033
78695W        W43955  32.112   5.666  11.993
78696W        W43956  41.087  10.339  14.669
78697W        W43957  11.102  43.445   3.127
78698W        W43958  16.899   6.971   4.600
78699W        W43959   0.306  14.175  14.966
78700W        W43960  13.234   9.969   2.384
78701W        W43961   3.717  19.228  14.076
78702W        W43962  27.145  21.976  14.760
78703W        W43963  10.942   4.336   5.496
78704W        W43964  40.462  38.081   0.218
78705W        W43965  25.928  41.595  11.266
78706W        W43966  12.012   1.489   1.330
78707W        W43967   7.731   9.113   2.113
78708W        W43968  24.689   3.874  12.680
78709W        W43969  33.427  40.989   2.706
78710W        W43970   5.985  35.026  11.966
78711W        W43971   1.714  14.111  12.960
78712W        W43972   7.826   0.258  12.975
78713W        W43973  21.217  31.498   2.184
78714W        W43974  16.589  11.925   4.097
78715W        W43975  34.550   1.598  14.002
78716W        W43976  26.092  28.207  11.950
78717W        W43977   2.758  14.559   4.432
78718W        W43978  29.037  12.755   4.116
78719W        W43979   5.842  40.094  13.265
78720W        W43980  19.221  24.004   2.795
78721W        W43981  36.885  10.654  12.967
78722W        W43982  28.479  23.691   4.036
78723W        W43983   5.834  38.125  11.181
78724W        W43984  35.353  31.912  10.714
78725W        W43985  10.267  22.469   4.119
78726W        W43986  17.641  18.703  12.513
78727W        W43987  27.833  19.942   1.953
78728W        W43988   1.719  33.496  13.924
78729W        W43989  35.438   5.297   2.788
78730W        W43990  34.392   6.233  14.460
78731W        W43991  19.805   7.186   4.581
78732W        W43992  31.103  41.408   1.150
78733W        W43993   4.825  16.834   0.741
78734W        W43994   3.822   0.288  10.718
78735W        W43995  30.643  16.650   2.745
78736W        W43996  42.821  22.761  14.985
78737W        W43997   3.831  10.200  13.995
78738W        W43998  11.790  42.342   0.445
78739W        W43999  22.441   6.393   3.143
78740W        W44000   2.825  36.056  14.762
78741W        W44001   3.461  27.592   3.691
78742W        W44002  38.927  36.630   1.648
78743W        W44003  34.012   1.568   4.691
78744W        W44004  16.240   3.000  10.698
78745W        W44005   1.379   1.825   4.051
78746W        W44006  34.016  14.868   0.056
78747W        W44007  21.672  20.538  11.363
78748W        W44008  38.896  28.665   3.630
78749W        W44009  27.029   4.360  14.909
78750W        W44010   2.130   0.811  10.183
78751W        W44011  28.769  23.345  10.737
78752W        W44012  26.913   1.508   1.871
78753W        W44013  37.074  16.384   4.041
78754W        W44014  41.456  29.961   0.956
78755W        W44015  30.919  22.227  13.728
78756W        W44016  26.209   3.615   1.116
78757W        W44017  17.605  38.847  12.365
78758W        W44018  44.816  33.445   2.356
78759W        W44019   3.364  29.755  10.605
78760W        W44020  13.297  15.578  12.920
78761W        W44021  28.241  13.772  10.678
78762W        W44022  34.115  26.181   2.634
78763W        W44023  39.490  25.643  13.817
78764W        W44024   2.035  36.543  12.561
78765W        W44025  21.637  40.684   0.820
78766W        W44026  41.919  24.897   3.839
78767W        W44027  38.966  26.416   2.116
78768W        W44028  23.526  31.978   1.783
78769W        W44029   9.771  42.797  14.833
78770W        W44030  18.000   2.161   3.125
78771W        W44031  27.798  25.607  13.746
78772W        W44032  23.555  44.577  12.608
78773W        W44033  19.683  36.850  12.917
78774W        W44034  28.439  13.730   3.483
78775W        W44035   5.721  20.459  11.969
78776W        W44036  36.372  26.788   3.703
78777W        W44037   9.914  44.390  12.738
78778W        W44038  24.592   1.379  12.094
78779W        W44039   3.998  37.114  13.055
78780W        W44040  44.931  39.061  10.703
78781W        W44041  28.469  10.386  12.000
78782W        W44042  13.374  14.513   3.237
78783W        W44043  19.595  42.855  10.852
78784W        W44044   5.915  27.260   5.405
78785W        W44045  14.365  28.850  14.967
78786W        W44046  43.225  21.166   3.895
78787W        W44047  33.620  22.467  12.065
78788W        W44048  21.351  13.624  12.435
78789W        W44049   3.328   1.219   4.126
78790W        W44050  33.819  41.812  11.994
78791W        W44051  37.048  32.079  13.720
78792W        W44052   3.442  11.581  13.930
78793W        W44053  38.010  10.606  11.021
78794W        W44054  28.942  39.061   2.123
78795W        W44055  44.267   5.860   0.315
78796W        W44056  30.496  35.515   2.068
78797W        W44057  44.584  24.660   5.080
78798W        W44058   7.842  26.661   2.782
78799W        W44059  10.951  42.304  10.772
78800W        W44060  29.211  35.934  13.475
78801W        W44061   9.472  11.125  11.368
78802W        W44062  27.468  17.729   4.946
78803W        W44063  20.694  40.265   5.031
78804W        W44064  30.001  26.761  11.122
78805W        W44065   8.656  23.072  11.428
78806W        W44066  34.222  33.729  13.929
78807W        W44067  28.888  17.693  12.505
78808W        W44068  19.748  26.545  13.504
78809W        W44069  40.191  39.302   1.494
78810W        W44070  11.106  40.263   0.215
78811W        W44071   5.288  24.009   2.743
78812W        W44072  21.642  18.311  11.151
78813W        W44073  36.428  38.363   4.617
78814W        W44074   1.315   0.531   4.280
78815W        W44075  11.417   2.004  12.921
78816W        W44076  21.628  18.696   5.815
78817W        W44077  24.610   4.736   1.806
78818W        W44078   5.465   0.057   4.156
78819W        W44079  11.380  11.474  11.335
78820W        W44080  34.036  25.459   2.200
78821W        W44081  11.441  34.132   2.580
78822W        W44082  26.630  32.534  14.218
78823W        W44083   1.482  29.118   2.177
78824W        W44084  42.770  12.054   1.211
78825W        W44085  19.581  20.636  12.604
78826W        W44086  40.913  21.702   0.777
78827W        W44087  42.712   3.752  10.551
78828W        W44088   5.425   9.829  12.445
78829W        W44089  14.083  36.960  12.136
78830W        W44090   0.388  15.575  11.116
78831W        W44091  11.427  12.076  13.429
78832W        W44092  38.608  18.209   1.620
78833W        W44093   7.345  12.254  10.606
78834W        W44094  30.695  20.588  12.479
78835W        W44095  24.209  12.579  11.535
78836W        W44096  27.746  24.538   0.844
78837W        W44097   9.961   8.635  11.463
78838W        W44098  24.644   5.721  10.281
78839W        W44099  23.334  36.379  11.609
78840W        W44100  27.543  37.788   0.393
78841W        W44101  23.639  30.944   0.976
78842W        W44102  14.784  41.097   3.330
78843W        W44103  27.598  32.086  13.478
78844W        W44104  19.835  18.043   1.808
78845W        W44105  19.535  22.234  14.002
78846W        W44106  19.074  38.512   4.344
78847W        W44107  25.474   7.779   3.961
78848W        W44108  39.902  23.085   0.460
78849W        W44109  13.676  24.821  12.008
78850W        W44110  41.828  33.181   2.746
78851W        W44111  10.850  15.765  11.612
78852W        W44112   6.173  39.539  14.794
78853W        W44113  31.185  33.539  11.590
78854W        W44114  44.024  28.777  10.834
78855W        W44115  12.855  31.002   3.753
78856W        W44116  42.901  18.089   1.248
78857W        W44117  38.372   9.353   1.840
78858W        W44118  15.686   5.900   0.721
78859W        W44119  13.977  19.380  14.394
78860W        W44120  30.923  39.512   4.976
78861W        W44121   1.018  44.591  12.782
78862W        W44122  32.384  44.810   4.197
78863W        W44123  20.472  42.360   2.135
78864W        W44124  26.184  25.042   2.939
78865W        W44125   8.395  29.648  12.472
78866W        W44126  10.314  25.775   3.272
78867W        W44127   3.151  34.827  14.877
78868W        W44128  10.917  17.123  12.251
78869W        W44129   4.451  42.271  13.388
78870W        W44130   9.137  10.077   0.023
78871W        W44131  23.998  23.070   2.947
78872W        W44132  44.333  41.272   0.012
78873W        W44133  18.346  18.221  10.661
78874W        W44134   1.761  43.731   1.858
78875W        W44135  28.893   0.859  12.208
78876W        W44136  15.750  30.029  14.480
78877W        W44137  24.953  21.723   3.672
78878W        W44138   0.431  31.645  14.979
78879W        W44139   8.271   2.765  14.996
78880W        W44140  41.597   1.400   1.306
78881W        W44141  16.607  14.532   3.471
78882W        W44142  41.687  29.501   0.855
78883W        W44143  15.656  22.741   3.577
78884W        W44144  29.697  22.760   3.805
78885W        W44145  19.764  29.127  11.135
78886W        W44146   3.184  25.574  12.532
78887W        W44147  36.666   6.583  11.635
78888W        W44148  43.606  37.836   2.260
78889W        W44149   9.161   7.633  10.789
78890W        W44150   6.593  23.305  13.834
78891W        W44151  31.156  41.454  13.057
78892W        W44152   7.472  37.930  13.390
78893W        W44153   3.443  30.175  14.175
78894W        W44154   8.082  35.540   4.622
78895W        W44155  42.856  10.345  11.935
78896W        W44156  21.660  38.507  11.551
78897W        W44157  14.774  25.023  13.564
78898W        W44158  23.336  32.995   0.819
78899W        W44159  25.734   3.279  11.099
78900W        W44160  29.783  31.911   9.977
78901W        W44161  21.298  39.945  12.286
78902W        W44162  38.433  18.136   4.646
78903W        W44163  18.416  21.271   3.742
78904W        W44164  39.845  14.640  14.879
78905W        W44165  11.007   7.466  13.927
78906W        W44166   0.061   0.977  12.759
78907W        W44167  43.760  13.379  14.887
78908W        W44168   7.419  33.598  11.634
78909W        W44169  10.377  17.048  13.003
78910W        W44170  30.192   0.391   0.725
78911W        W44171  22.982  41.905  14.343
78912W        W44172  36.136  26.686   4.662
78913W        W44173  26.858   5.791   2.175
78914W        W44174  39.981   7.457  14.029
78915W        W44175  39.325  24.955  13.958
78916W        W44176  36.857  44.362   4.110
78917W        W44177  38.152  16.490   1.368
78918W        W44178  32.460   4.742   3.245
78919W        W44179  36.888   1.029  13.095
78920W        W44180  43.049  22.695  11.528
78921W        W44181  32.873   2.268   4.744
78922W        W44182  11.360  25.074  14.278
78923W        W44183   3.511   6.742   1.474
78924W        W44184  17.205  31.295  13.942
78925W        W44185   2.487  26.293   9.847
78926W        W44186  27.893   8.698  13.613
78927W        W44187  15.874  18.189   4.061
78928W        W44188  27.191  18.511  12.411
78929W        W44189  19.553   2.194  10.664
78930W        W44190  39.491  17.134   4.787
78931W        W44191  12.703  12.339   0.987
78932W        W44192  20.978   4.316   3.052
78933W        W44193  36.911  21.544  10.691
78934W        W44194   5.984  17.991  14.935
78935W        W44195   8.750  11.394   4.673
78936W        W44196   2.724   3.961   1.811
78937W        W44197  43.377   0.844  10.727
78938W        W44198  33.859  38.859   2.784
78939W        W44199  36.544  44.511   5.402
78940W        W44200   6.200  35.170   4.149
78941W        W44201  37.751  11.042   0.324
78942W        W44202  26.609   5.433  12.502
78943W        W44203  20.190  18.195   3.373
78944W        W44204   2.276  13.731   0.838
78945W        W44205  13.611  41.256  11.149
78946W        W44206  33.417   5.271   2.454
78947W        W44207  16.002  38.509  12.905
78948W        W44208  17.720  20.233  11.199
78949W        W44209  24.175  22.642   4.671
78950W        W44210  41.282   8.866  14.893
78951W        W44211   5.918  26.225  10.206
78952W        W44212  33.378  34.950  14.740
78953W        W44213  10.115   7.855  14.835
78954W        W44214   2.799   7.586   1.926
78955W        W44215  18.302  25.177   1.890
78956W        W44216   7.080  21.745  12.085
78957W        W44217  35.142  39.161  10.657
78958W        W44218   5.384  10.708   0.480
78959W        W44219  32.338  16.101   1.378
78960W        W44220   8.310  14.352   4.060
78961W        W44221  39.450  10.414  13.232
78962W        W44222   5.008  34.809   4.956
78963W        W44223  13.649  20.155   3.809
78964W        W44224  23.912  18.833   3.681
78965W        W44225  13.223   8.842  11.552
78966W        W44226  36.943   9.877  13.868
78967W        W44227  33.246  17.204  11.049
78968W        W44228  37.046   4.801   2.738
78969W        W44229  23.105  14.673   2.427
78970W        W44230  30.592  42.341  12.907
78971W        W44231   7.139  30.076   0.792
78972W        W44232  43.350   6.017   4.554
78973W        W44233  35.959  13.218  13.062
78974W        W44234  24.836  36.340  11.897
78975W        W44235  32.458   7.498   5.100
78976W        W44236  12.428   8.297  13.808
78977W        W44237   3.716  41.117  14.646
78978W        W44238  10.976  41.239   3.643
78979W        W44239  39.463  40.313   4.462
78980W        W44240   3.452   9.691  11.030
78981W        W44241  21.185  29.352   0.325
78982W        W44242  22.912  14.539  13.342
78983W        W44243   2.765  41.799   3.784
78984W        W44244   5.916  31.567  12.149
78985W        W44245  13.821  12.738  14.579
78986W        W44246  36.319  34.605  12.941
78987W        W44247  23.658  12.746   0.711
78988W        W44248  39.044   6.523   1.154
78989W        W44249  18.258  14.568   3.301
78990W        W44250  27.648  11.396  11.563
78991W        W44251   1.230  22.542   1.907
78992W        W44252   9.431  44.745  11.480
78993W        W44253   0.016   1.897   4.378
78994W        W44254  19.155  33.260  12.895
78995W        W44255  23.017  36.300  13.374
78996W        W44256   4.806   2.891   0.810
78997W        W44257  30.981  39.293  13.712
78998W        W44258  20.607  31.197  14.496
78999W        W44259   1.276  16.073   3.835
79000W        W44260   3.163  14.335   4.698
79001W        W44261  24.707  29.214   3.154
79002W        W44262  14.697  11.890   3.203
79003W        W44263  27.245  14.659   2.373
79004W        W44264  15.199  28.668  12.075
79005W        W44265   7.260  11.110  13.757
79006W        W44266   0.239  20.604   4.273
79007W        W44267   6.380  43.665   0.199
79008W        W44268  28.686  43.238   2.812
79009W        W44269   3.571   0.673  10.517
79010W        W44270  22.097   2.017   0.323
79011W        W44271  38.298  24.686   2.208
79012W        W44272  27.642  16.407  14.993
79013W        W44273  34.712  43.915   1.454
79014W        W44274   4.961  39.405   4.544
79015W        W44275  16.170  28.754  14.511
79016W        W44276   1.505  23.486   1.248
79017W        W44277  37.423  34.585   4.314
79018W        W44278   4.844  25.477   1.276
79019W        W44279  13.862   3.041  11.152
79020W        W44280   6.779  21.544  13.011
79021W        W44281  24.188   7.229  10.762
79022W        W44282  27.510  29.904   2.816
79023W        W44283   5.042  25.599  10.400
79024W        W44284   9.039   3.808   0.229
79025W        W44285  18.306  35.565  10.935
79026W        W44286  31.913   3.406   1.447
79027W        W44287   0.165  44.855   3.836
79028W        W44288  29.522  35.334  13.084
79029W        W44289  34.972  27.106  14.568
79030W        W44290  21.471  37.381   2.061
79031W        W44291   9.266  38.076   2.201
79032W        W44292  36.608  17.526  10.513
79033W        W44293  36.554  18.837   2.337
79034W        W44294  35.072  30.084   4.128
79035W        W44295  44.348  35.069  12.990
79036W        W44296  42.785  44.525   3.164
79037W        W44297   3.083   3.854   1.361
79038W        W44298  25.125  29.484   4.898
79039W        W44299  23.178  30.522  14.803
79040W        W44300  37.472   7.071   2.828
79041W        W44301  29.389   1.381   0.327
79042W        W44302  13.821  10.642  12.801
79043W        W44303   8.418  38.568  14.275
79044W        W44304  13.143  28.945  13.389
79045W        W44305  44.321  25.200   1.773
79046W        W44306  33.350   6.235  14.245
79047W        W44307  31.476  24.814   0.476
79048W        W44308  21.709   1.225   4.337
79049W        W44309  17.349   6.438  13.150
79050W        W44310  15.496  30.195   1.544
79051W        W44311  20.652   2.384  10.428
79052W        W44312  22.988  32.567  13.559
79053W        W44313  12.281  22.080  14.991
79054W        W44314  29.990  44.163  12.513
79055W        W44315  12.271  13.168   2.145
79056W        W44316   2.328  32.815   1.432
79057W        W44317  31.737  23.608   4.936
79058W        W44318  31.418   5.459   1.897
79059W        W44319  42.803  27.506  14.416
79060W        W44320   2.914  23.445  12.920
79061W        W44321   7.670  40.286  14.875
79062W        W44322  27.784  40.999  10.746
79063W        W44323  24.382  14.904   1.121
79064W        W44324  19.586  35.413   0.747
79065W        W44325  16.298  20.354   2.622
79066W        W44326  13.698  10.744   0.472
79067W        W44327  14.196   0.928   2.698
79068W        W44328  42.305   0.874  11.654
79069W        W44329   2.907  42.761   3.371
79070W        W44330  25.663  41.013  11.536
79071W        W44331   1.738   2.110   3.303
79072W        W44332  31.522  33.214  10.670
79073W        W44333  27.638  40.974  12.570
79074W        W44334  22.147  15.607   3.371
79075W        W44335  18.653   9.553   1.321
79076W        W44336  26.528  42.290   1.334
79077W        W44337  17.115  28.600   0.238
79078W        W44338  23.497  11.283  14.810
79079W        W44339  20.683  15.163   3.872
79080W        W44340   2.427  18.612  12.971
79081W        W44341  10.919  27.763   5.153
79082W        W44342  18.194  21.144   5.020
79083W        W44343  16.316  15.032   0.547
79084W        W44344  27.659  29.639   1.358
79085W        W44345  35.757  21.601  12.857
79086W        W44346  39.634  32.889  14.382
79087W        W44347  13.217  12.767  13.263
79088W        W44348  41.944  32.633  12.973
79089W        W44349   3.767   4.664  12.011
79090W        W44350  37.551  14.571  13.720
79091W        W44351  40.093   5.350   4.499
79092W        W44352  22.972   1.831   2.142
79093W        W44353   5.378  27.194   1.394
79094W        W44354  29.116  27.025   0.537
79095W        W44355  13.174  39.259  11.084
79096W        W44356  27.681  17.190   1.769
79097W        W44357  15.549  28.458  11.754
79098W        W44358  11.140  17.814  10.422
79099W        W44359  22.424  23.131  11.923
79100W        W44360  10.190  16.949   4.360
79101W        W44361  37.448  22.159  12.535
79102W        W44362  35.937  15.742   1.840
79103W        W44363   4.318  27.207  14.738
79104W        W44364  16.743  36.122  14.396
79105W        W44365  44.778   5.773   0.306
79106W        W44366   0.858  32.885  13.437
79107W        W44367   4.301  20.940  13.789
79108W        W44368   4.364  13.142  12.479
79109W        W44369   6.435  42.606  14.315
79110W        W44370  37.796  17.258   1.671
79111W        W44371   8.672   0.990   4.431
79112W        W44372  13.725  30.364  11.396
79113W        W44373  43.312  37.001   0.231
79114W        W44374  10.419  43.912   2.426
79115W        W44375   3.975  25.490   2.779
79116W        W44376  26.452  34.066   3.251
79117W        W44377  18.311  43.369  13.063
79118W        W44378   7.408  22.255  14.231
79119W        W44379   1.238  33.825  11.577
79120W        W44380  20.122  21.040   3.333
79121W        W44381  14.671   0.161  13.402
79122W        W44382   9.889  32.503   1.660
79123W        W44383  21.466  34.172  14.437
79124W        W44384  13.156   6.797  12.356
79125W        W44385   5.596  28.756   1.779
79126W        W44386  33.206  20.270   0.001
79127W        W44387  12.210   4.947   2.226
79128W        W44388  43.041  34.050  14.051
79129W        W44389  15.305  14.343   3.661
79130W        W44390  15.181  44.945   1.225
79131W        W44391   1.933  33.161  12.980
79132W        W44392   7.427   1.429  10.390
79133W        W44393  36.564  40.551   0.810
79134W        W44394  17.793   3.826   4.708
79135W        W44395  29.070   8.891  12.919
79136W        W44396  36.426  32.115  14.335
79137W        W44397  30.085   6.781  13.980
79138W        W44398  21.251   3.904   3.154
79139W        W44399  40.526  36.652  14.131
79140W        W44400  22.948  21.894   9.904
79141W        W44401  12.300  44.837   2.315
79142W        W44402  13.755  39.418  12.796
79143W        W44403   7.769  12.213   2.335
79144W        W44404  13.125  30.498   3.543
79145W        W44405   9.228  11.069   2.241
79146W        W44406  33.076  36.577  13.388
79147W        W44407   2.868  17.546   4.724
79148W        W44408  30.697  31.111  14.947
79149W        W44409  23.003   1.227   3.543
79150W        W44410  20.408  24.247  12.809
79151W        W44411  44.974  29.689   0.889
79152W        W44412   5.405  24.150  13.351
79153W        W44413  11.258  31.478   3.198
79154W        W44414   5.050   2.413   0.833
79155W        W44415   2.614  19.164   2.263
79156W        W44416  30.013  43.721   4.071
79157W        W44417  38.947  12.122  12.108
79158W        W44418  29.526  41.910   0.541
79159W        W44419   4.723  29.716   3.262
79160W        W44420  38.962   1.119  12.184
79161W        W44421  17.382   0.397  12.610
79162W        W44422  24.700  36.399  13.984
79163W        W44423  18.834  35.945  14.347
79164W        W44424  36.982  27.934   1.431
79165W        W44425  35.150   1.010   3.611
79166W        W44426  15.374  39.346   2.777
79167W        W44427  16.609  14.693  14.268
79168W        W44428  29.067  42.667  14.946
79169W        W44429   9.819  41.846  14.112
79170W        W44430   7.227   5.315  12.831
79171W        W44431  15.861   0.799  13.037
79172W        W44432   2.447   8.758  11.111
79173W        W44433  40.584  24.596  13.352
79174W        W44434  11.699  20.998  12.273
79175W        W44435  11.285  41.898   1.003
79176W        W44436  17.586  31.472   3.765
79177W        W44437   9.693  34.001   3.169
79178W        W44438  30.035  23.928  13.401
79179W        W44439  23.731  43.057  10.750
79180W        W44440  40.806  31.709  12.401
79181W        W44441  17.376  14.399  12.848
79182W        W44442  19.148  29.317  14.424
79183W        W44443  11.763  26.625   0.983
79184W        W44444  16.250  17.568  13.592
79185W        W44445  29.467  24.719  11.603
79186W        W44446  39.586  11.908  10.996
79187W        W44447  35.051  43.252   0.816
79188W        W44448  37.142  22.973   3.701
79189W        W44449  28.250  33.958   1.774
79190W        W44450  26.909  32.898  13.026
79191W        W44451  14.558  23.118  12.472
79192W        W44452  12.047  36.261  10.676
79193W        W44453   6.189  30.497   3.906
79194W        W44454  18.528  35.004  13.514
79195W        W44455  38.116  38.126   1.237
79196W        W44456  34.503  26.765   3.251
79197W        W44457   9.254  23.759   4.131
79198W        W44458  10.121   0.983   4.822
79199W        W44459  38.539  12.840   4.063
79200W        W44460  29.366  34.653  11.116
79201W        W44461  43.809   6.748  11.155
79202W        W44462  30.509  22.148  11.256
79203W        W44463  31.179  30.459  11.898
79204W        W44464  42.952   2.283   0.896
79205W        W44465  38.453  38.527  13.777
79206W        W44466  38.361  30.453  12.421
79207W        W44467  14.134  21.118   1.982
79208W        W44468   6.221  27.373  13.332
79209W        W44469  23.779   5.635  11.134
79210W        W44470  28.648  12.277   1.468
79211W        W44471  40.936  34.072   3.187
79212W        W44472  41.469  40.475  10.430
79213W        W44473  43.338  23.724   2.086
79214W        W44474  38.420  43.541   1.392
79215W        W44475  23.561  44.389  10.123
79216W        W44476  10.142  11.839   4.710
79217W        W44477   6.838   9.198  14.825
79218W        W44478  41.743   9.862   2.910
79219W        W44479  15.644  30.195   0.336
79220W        W44480  17.303  43.785   3.697
79221W        W44481  43.044  13.937   3.192
79222W        W44482  23.224  10.353   2.276
79223W        W44483  16.071  34.673  13.989
79224W        W44484  33.955  13.338   2.211
79225W        W44485  27.129  39.508   1.917
79226W        W44486  32.496  43.383   4.265
79227W        W44487   8.873   6.414   0.938
79228W        W44488   3.440  19.330   4.629
79229W        W44489  19.765  37.809   3.169
79230W        W44490   0.787   9.982   0.026
79231W        W44491  16.812  44.281   1.691
79232W        W44492  37.537  24.231  13.060
79233W        W44493  28.378  24.425   0.550
79234W        W44494   8.955   2.865  11.043
79235W        W44495  39.830  11.673   2.744
79236W        W44496  29.864  17.401  11.026
79237W        W44497  10.289   9.593   0.217
79238W        W44498  38.387  19.875  14.333
79239W        W44499  17.599  39.986  13.478
79240W        W44500  13.053  42.485  10.579
79241W        W44501  16.679  42.794   3.590
79242W        W44502   2.247  21.825  10.727
79243W        W44503  40.575  16.770   0.196
79244W        W44504   2.999  28.018  11.077
79245W        W44505  36.397   6.883  11.972
79246W        W44506  23.926  25.244   1.281
79247W        W44507  18.169   0.179  10.748
79248W        W44508  12.246  22.059  14.016
79249W        W44509  28.929  19.457  11.629
79250W        W44510  26.381  26.672   3.000
79251W        W44511  26.222   2.264  14.306
79252W        W44512  21.260  25.023  11.209
79253W        W44513  10.312  16.784   4.845
79254W        W44514   1.991  23.934   1.158
79255W        W44515  21.769  38.001   4.062
79256W        W44516  21.683  39.647  11.172
79257W        W44517  29.335  21.443   4.096
79258W        W44518  32.158   6.835   2.920
79259W        W44519  24.549  39.026   5.396
79260W        W44520   5.649  41.359   1.688
79261W        W44521  19.267  41.979   1.251
79262W        W44522  44.333  19.649  10.972
79263W        W44523   9.865  41.313   1.002
79264W        W44524  10.205  23.571   0.445
79265W        W44525  15.103  36.423   3.164
79266W        W44526   3.926  10.252  14.513
79267W        W44527  29.961  10.895  14.433
79268W        W44528  25.571   8.751  11.428
79269W        W44529  33.569   4.573   9.974
79270W        W44530  27.762  31.035   0.142
79271W        W44531  36.447  14.536   5.100
79272W        W44532  34.417   5.362   0.029
79273W        W44533  12.024  35.993  11.988
79274W        W44534  28.202  14.603   3.854
79275W        W44535  28.242  15.671  14.884
79276W        W44536  20.770  11.525  10.848
79277W        W44537  16.523  28.492  12.022
79278W        W44538  28.616  22.137  13.408
79279W        W44539  31.438  42.067   2.795
79280W        W44540   9.688  31.689   0.332
79281W        W44541  16.371  12.188   3.665
79282W        W44542  12.889  29.728  10.173
79283W        W44543  41.520  35.672   1.242
79284W        W44544   7.946   4.701  14.842
79285W        W44545  38.269  34.446  12.095
79286W        W44546  22.266   6.147   2.718
79287W        W44547  24.116  22.642   2.228
79288W        W44548  34.440  13.359   4.678
79289W        W44549  41.889   3.140  12.587
79290W        W44550  23.489  21.549  14.434
79291W        W44551  16.137  11.618   4.213
79292W        W44552  21.986  37.965  14.036
79293W        W44553   5.268  36.478   2.654
79294W        W44554  31.189   6.663  10.634
79295W        W44555   6.120   9.229  14.069
79296W        W44556  19.525   3.321   0.369
79297W        W44557  25.402  25.781   3.198
79298W        W44558  11.793  22.028   1.270
79299W        W44559  26.440  13.774   1.490
79300W        W44560  40.286  23.288   1.308
79301W        W44561  18.635  13.756  14.375
79302W        W44562   6.744   4.193   3.309
79303W        W44563  19.086  36.102  12.875
79304W        W44564   8.442  38.309   0.496
79305W        W44565  19.736  13.136  13.341
79306W        W44566  31.520  22.986   4.533
79307W        W44567   4.818   8.928   3.660
79308W        W44568  37.605  17.208  14.810
79309W        W44569  27.569  10.074   0.370
79310W        W44570   3.345  18.493   2.452
79311W        W44571  39.848  11.843   4.557
79312W        W44572  24.451  43.809   2.739
79313W        W44573  36.768  28.811  10.995
79314W        W44574  24.427   5.367   0.880
79315W        W44575   0.180  10.558   2.230
79316W        W44576  33.140  12.395  13.527
79317W        W44577  42.734  43.752   0.042
79318W        W44578  40.750  39.996  12.464
79319W        W44579   0.952  21.604  14.235
79320W        W44580  40.371  14.143   1.262
79321W        W44581  33.914  23.828   0.749
79322W        W44582  20.033  44.501   4.857
79323W        W44583  37.968   0.915  14.841
79324W        W44584  23.000  36.611  14.367
79325W        W44585  14.054  21.988  13.809
79326W        W44586  23.642  40.470  14.394
79327W        W44587  31.544  14.424  11.879
79328W        W44588  36.419  29.222  11.129
79329W        W44589  23.653  39.580  14.939
79330W        W44590  26.930  15.626  11.099
79331W        W44591  15.739  41.497  13.979
79332W        W44592  29.452  36.933  12.334
79333W        W44593   2.151   3.240   2.680
79334W        W44594  34.141  42.829   4.968
79335W        W44595  40.847  26.145   3.313
79336W        W44596   4.725   5.895  11.196
79337W        W44597  44.197   0.698  14.802
79338W        W44598  39.340   6.503   4.130
79339W        W44599  13.145  32.354  10.471
79340W        W44600  10.243  14.799   3.307
79341W        W44601  10.246  43.957   4.075
79342W        W44602  43.742   0.379  14.947
79343W        W44603   1.696   4.631  14.378
79344W        W44604  42.832  13.460  10.916
79345W        W44605  39.515  34.237   0.054
79346W        W44606  30.581  24.437   5.093
79347W        W44607  22.294   2.332   3.721
79348W        W44608   8.661  12.421   0.914
79349W        W44609  40.911   1.175   0.979
79350W        W44610  40.049   1.254   0.944
79351W        W44611  40.471  35.060  14.720
79352W        W44612   9.232  41.764   3.654
79353W        W44613  31.667  28.913  13.253
79354W        W44614   1.323  26.713   1.413
79355W        W44615  40.357  34.123  13.378
79356W        W44616  41.344   7.761   3.174
79357W        W44617  39.480  16.647   2.743
79358W        W44618  27.850  37.405   3.699
79359W        W44619  43.722  34.106   2.873
79360W        W44620  17.693  16.188  12.398
79361W        W44621   2.364  43.875  14.931
79362W        W44622  15.586  28.137  14.767
79363W        W44623  35.423  19.500   3.136
79364W        W44624  34.536  27.229  12.503
79365W        W44625   5.045  42.504  14.430
79366W        W44626   7.743  34.191   0.554
79367W        W44627  32.149  35.072  13.516
79368W        W44628  38.796   3.773  11.597
79369W        W44629  19.621  34.094   0.182
79370W        W44630   6.387  40.923  13.657
79371W        W44631  16.080  21.909   3.576
79372W        W44632  34.565  34.448  13.982
79373W        W44633  12.148  11.771   1.239
79374W        W44634   0.902  40.126  14.724
79375W        W44635  12.323  42.014   2.277
79376W        W44636  39.003  33.764   1.480
79377W        W44637  27.603  28.905   3.680
79378W        W44638  29.399  17.188   0.665
79379W        W44639  11.386  12.347  11.079
79380W        W44640  31.377  10.112  10.985
79381W        W44641   0.697  39.577   4.324
79382W        W44642  13.078  28.971  11.475
79383W        W44643  25.900  23.122  11.673
79384W        W44644  28.689  21.649   3.837
79385W        W44645  13.591  39.332   3.329
79386W        W44646  38.415   9.865   0.955
79387W        W44647  39.465  43.152  13.237
79388W        W44648   4.727  20.500  13.874
79389W        W44649   5.429  38.411  14.036
79390W        W44650  38.368  20.826  14.629
79391W        W44651   5.405   4.722  11.174
79392W        W44652  36.767   5.379   0.444
79393W        W44653  44.946  18.609   2.762
79394W        W44654   1.868  42.357   1.965
79395W        W44655  27.231  37.810  14.783
79396W        W44656  11.660  34.127   4.358
79397W        W44657  20.049   5.187  14.409
79398W        W44658  14.115  37.398  13.520
79399W        W44659  33.635   2.822   4.897
79400W        W44660  16.569  29.682   3.651
79401W        W44661  10.508  11.679   3.395
79402W        W44662  40.014  15.955   2.827
79403W        W44663  34.122  37.512   1.260
79404W        W44664  26.173  37.650   0.436
79405W        W44665   6.413  19.461  13.889
79406W        W44666  23.165  33.380   0.420
79407W        W44667  23.285  42.774   2.157
79408W        W44668  26.104  33.629   1.276
79409W        W44669   9.159   6.369   1.389
79410W        W44670  27.169   7.433   2.696
79411W        W44671  18.666   7.692  11.491
79412W        W44672  33.368  31.838   0.941
79413W        W44673  42.271  21.641   1.886
79414W        W44674   8.459   9.873   2.795
79415W        W44675  44.437  13.006  14.354
79416W        W44676   9.509   6.615  11.409
79417W        W44677   8.843  42.885   0.596
79418W        W44678  25.110   9.457   4.059
79419W        W44679  33.794  44.363   2.766
79420W        W44680   8.438  25.968   3.178
79421W        W44681  22.973   8.964   3.715
79422W        W44682  18.963  23.356   1.329
79423W        W44683  20.724   7.152  14.065
79424W        W44684  24.335  42.875  12.685
79425W        W44685  26.113  11.937  12.829
79426W        W44686  38.793  23.999  13.424
79427W        W44687  40.922  37.906   0.029
79428W        W44688  18.047  21.955   0.098
79429W        W44689  13.742  13.259  14.156
79430W        W44690   9.740  36.469   4.796
79431W        W44691   1.011   1.881  13.583
79432W        W44692  23.790  20.084  11.629
79433W        W44693  23.855  26.222  11.144
79434W        W44694  17.041  34.494  14.956
79435W        W44695   2.736  13.806  14.013
79436W        W44696  28.268   5.325  12.408
79437W        W44697  26.651   4.767  13.906
79438W        W44698   0.049   4.692   2.401
79439W        W44699   1.592  16.101  11.901
79440W        W44700   9.104   1.082  12.913
79441W        W44701  30.533  33.622   4.597
79442W        W44702  24.557  19.722   0.783
79443W        W44703   8.879  30.663  12.828
79444W        W44704  25.043  22.562   0.163
79445W        W44705   6.846  28.166  13.067
79446W        W44706  30.702  18.553   4.591
79447W        W44707  17.262  40.827  14.493
79448W        W44708  19.582   2.568   0.996
79449W        W44709  17.238  16.088  13.432
79450W        W44710  37.167  20.111   2.051
79451W        W44711  27.558  16.108   4.144
79452W        W44712  23.237  17.949  12.150
79453W        W44713  28.394  31.039   0.894
79454W        W44714   6.222  38.248  10.581
79455W        W44715  11.287  36.239  12.083
79456W        W44716  17.806  28.673   1.284
79457W        W44717  31.603  33.168   3.308
79458W        W44718  30.105  31.792  13.748
79459W        W44719  19.564  16.118   3.216
79460W        W44720  39.073  15.100  12.023
79461W        W44721   2.868   5.131   2.320
79462W        W44722  21.241  13.529  14.870
79463W        W44723  12.198   8.407   2.311
79464W        W44724  34.947  20.721   2.637
79465W        W44725  29.225  27.973   0.948
79466W        W44726  26.494  22.622  13.153
79467W        W44727  44.272  33.995   4.582
79468W        W44728  14.081   8.828  14.856
79469W        W44729  11.202  28.268  12.243
79470W        W44730  26.602  22.804  11.165
79471W        W44731   9.478  37.462  10.291
79472W        W44732  34.514  31.702   0.323
79473W        W44733  18.647  37.580  10.554
79474W        W44734  10.191  43.234  12.993
79475W        W44735  25.102   3.274  11.967
79476W        W44736  24.478  12.254   2.306
79477W        W44737  37.740  38.523  11.983
79478W        W44738   5.353  10.367   4.133
79479W        W44739   6.163  27.910  13.344
79480W        W44740   4.989  38.049   4.287
79481W        W44741  41.047  33.254   0.478
79482W        W44742  39.603  42.763   0.360
79483W        W44743  32.360  31.191   3.352
79484W        W44744  39.485  44.906   4.325
79485W        W44745   2.704  27.844  14.553
79486W        W44746  43.505  36.313   2.416
79487W        W44747  16.035  22.842  11.188
79488W        W44748  18.712  13.117  10.626
79489W        W44749  31.742  24.012   2.799
79490W        W44750   1.858  19.590  14.993
79491W        W44751   6.395  16.616  11.193
79492W        W44752  24.598   7.136  11.999
79493W        W44753  18.107  31.457   1.362
79494W        W44754  34.922  43.442   1.342
79495W        W44755  41.742  30.445   2.612
79496W        W44756  21.269  21.074  12.747
79497W        W44757  12.777  24.028  12.826
79498W        W44758  16.566  24.112  12.018
79499W        W44759  20.206  39.395   0.306
79500W        W44760   4.016   8.278  13.081
79501W        W44761   6.129  12.821   1.938
79502W        W44762   7.366   5.637   0.936
79503W        W44763  26.934  35.819   0.871
79504W        W44764   7.568  29.622  11.042
79505W        W44765  20.333  10.311  11.575
79506W        W44766  40.461  39.780   4.845
79507W        W44767   1.484  12.126   5.451
79508W        W44768  30.318   6.588   4.921
79509W        W44769  34.113  11.946  13.944
79510W        W44770  17.008   2.522   1.608
79511W        W44771  35.668  37.748   1.014
79512W        W44772  20.060   3.710   3.688
79513W        W44773  27.342  17.169   1.285
79514W        W44774   0.733  16.946   1.389
79515W        W44775  22.347  28.912   2.975
79516W        W44776   8.394  20.793   2.714
79517W        W44777  21.036   3.787   2.634
79518W        W44778  27.956  11.924   4.722
79519W        W44779  15.421  24.210   0.515
79520W        W44780  38.349  44.542  13.080
79521W        W44781  25.390   9.163   2.030
79522W        W44782  33.286   1.448   2.456
79523W        W44783   0.522  27.733   3.624
79524W        W44784  10.740   2.268  11.021
79525W        W44785  44.509  36.486   3.311
79526W        W44786  37.425  10.581   2.748
79527W        W44787   4.732  33.112   2.386
79528W        W44788  22.749  31.036  13.864
79529W        W44789  29.098  16.127   2.488
79530W        W44790  35.518  26.071  11.249
79531W        W44791   8.362  23.653   4.071
79532W        W44792  34.811  39.439   1.305
79533W        W44793   2.281   0.409   0.865
79534W        W44794  11.829  28.218   2.937
79535W        W44795  32.428  35.221   2.877
79536W        W44796  14.153  31.681   4.486
79537W        W44797  23.174  31.699   1.454
79538W        W44798   4.265  32.034   5.007
79539W        W44799  37.252   7.301  10.701
79540W        W44800  32.146   9.709  14.720
79541W        W44801  26.812  10.215   5.078
79542W        W44802  34.085  15.771   2.300
79543W        W44803  21.964   6.852   3.775
79544W        W44804  32.446  38.364  13.513
79545W        W44805   3.750  23.516  13.337
79546W        W44806  26.147  32.696   2.845
79547W        W44807  44.554  10.791  12.892
79548W        W44808  24.010  21.468   3.787
79549W        W44809  10.366  32.868   2.755
79550W        W44810  36.416  44.243  12.994
79551W        W44811  37.818  19.107  11.112
79552W        W44812  44.790  13.385  13.106
79553W        W44813  18.901  32.140  13.664
79554W        W44814  14.189  41.632   0.951
79555W        W44815  28.379  22.978   4.506
79556W        W44816  16.486  11.653  12.442
79557W        W44817  32.164  44.383  11.117
79558W        W44818  30.830  43.913   3.717
79559W        W44819  17.169   1.296   4.995
79560W        W44820  13.296   5.294  13.378
79561W        W44821  23.724  16.112  12.533
79562W        W44822  39.495   8.276  13.963
79563W        W44823   1.996  40.367   0.376
79564W        W44824  39.982  14.629  13.354
79565W        W44825  18.512  16.145   0.402
79566W        W44826   3.791  22.693  11.133
79567W        W44827  36.458   6.400   2.683
79568W        W44828  11.172  17.299   4.625
79569W        W44829  43.824  18.189   3.351
79570W        W44830  39.791  39.996   2.852
79571W        W44831  40.153  30.491  10.557
79572W        W44832  13.861  18.316  13.291
79573W        W44833  10.687  13.715  13.078
79574W        W44834  23.770  32.411  13.906
79575W        W44835   3.284  16.026  12.000
79576W        W44836   0.508   3.536  12.003
79577W        W44837   2.913   5.341  11.681
79578W        W44838  33.460  26.190  10.714
79579W        W44839  37.459  32.936  12.366
79580W        W44840  42.791  32.563   0.673
79581W        W44841   9.378   7.896  13.312
79582W        W44842  44.431   7.714  11.262
79583W        W44843  34.826  24.863   1.213
79584W        W44844   4.584  22.656  11.636
79585W        W44845  13.595  18.773   3.108
79586W        W44846  25.935  41.109   0.478
79587W        W44847  11.572  40.337   5.059
79588W        W44848  33.146  30.962  11.047
79589W        W44849  13.251  18.981  14.753
79590W        W44850  26.068  21.916  13.957
79591W        W44851  22.587  10.223   3.662
79592W        W44852  20.151   1.231  14.066
79593W        W44853  28.801  36.177  11.179
79594W        W44854  44.365  38.366  11.461
79595W        W44855  40.282   1.734  14.758
79596W        W44856  10.126  16.024   1.281
79597W        W44857  37.516  33.104   3.132
79598W        W44858  33.936  22.150   2.280
79599W        W44859  20.040  39.391  12.471
79600W        W44860   3.688  44.759  12.992
79601W        W44861   1.997  38.426  11.163
79602W        W44862  32.352  21.952   9.817
79603W        W44863  26.679  43.426  13.830
79604W        W44864  10.248   2.216   0.938
79605W        W44865  37.012   1.682   2.251
79606W        W44866  17.654   0.761  12.367
79607W        W44867  39.449  25.603   1.327
79608W        W44868  16.354   6.811   0.479
79609W        W44869  19.078  25.945   3.546
79610W        W44870  34.059  43.797   4.571
79611W        W44871   4.518  13.251  11.874
79612W        W44872  17.388  27.605   0.798
79613W        W44873   3.466  10.466  14.271
79614W        W44874   0.394  35.305   0.025
79615W        W44875   6.922  13.790   4.266
79616W        W44876   2.837  18.313   3.138
79617W        W44877  39.017  38.020  10.048
79618W        W44878  32.544  20.775   4.197
79619W        W44879  39.046  35.713  12.667
79620W        W44880  13.758  32.931   3.899
79621W        W44881  11.716   4.672   3.241
79622W        W44882  21.023  40.055  13.749
79623W        W44883  19.475  11.939   3.775
79624W        W44884   8.123  30.384   3.737
79625W        W44885  34.619   3.905  10.242
79626W        W44886  12.700  40.015   4.601
79627W        W44887  40.884  40.984  13.333
79628W        W44888  39.873  20.290  10.672
79629W        W44889  10.861  11.212  13.473
79630W        W44890  35.288   1.763   1.253
79631W        W44891  30.529  16.991   3.644
79632W        W44892  38.367  18.731   2.996
79633W        W44893   9.028  15.513   4.977
79634W        W44894   1.213  20.629  14.527
79635W        W44895  25.757   0.837  13.147
79636W        W44896   4.997  13.086   1.387
79637W        W44897  19.450  32.989   3.192
79638W        W44898   6.787  15.227  11.922
79639W        W44899  37.403   6.809   3.285
79640W        W44900  28.583   0.244  14.752
79641W        W44901  31.036  14.571   0.758
79642W        W44902  16.439   6.900  14.960
79643W        W44903  34.675  30.247  10.800
79644W        W44904  28.523  27.108   5.560
79645W        W44905  28.833  42.993   3.364
79646W        W44906  40.843  43.282  10.788
79647W        W44907  28.129  12.335  11.245
79648W        W44908  32.335  15.348   3.748
79649W        W44909   8.378  28.207  10.751
79650W        W44910  26.938   2.650  14.134
79651W        W44911  32.024  33.488  10.830
79652W        W44912  42.334  42.949  13.443
79653W        W44913  25.406  40.357   5.023
79654W        W44914  22.426   0.309  12.408
79655W        W44915  20.688  40.610  14.302
79656W        W44916  14.022  32.618  12.906
79657W        W44917  24.591  32.947   4.381
79658W        W44918  14.803  14.521  10.825
79659W        W44919  33.311  28.013   2.986
79660W        W44920   5.298  35.936  10.654
79661W        W44921   6.173  37.486  11.942
79662W        W44922   4.237  36.291  12.919
79663W        W44923  21.392  15.675  13.498
79664W        W44924  15.099  32.601  11.977
79665W        W44925  12.641  31.068  11.424
79666W        W44926   5.430  17.973  10.983
79667W        W44927  29.501  13.128  13.418
79668W        W44928  43.051   5.145   2.708
79669W        W44929  10.808  12.662  13.408
79670W        W44930  22.996  43.264   0.418
79671W        W44931   8.764  41.769  13.327
79672W        W44932  14.783   6.137  10.705
79673W        W44933  18.118  17.844   0.881
79674W        W44934   6.207  30.641  13.254
79675W        W44935  19.087  21.121   0.957
79676W        W44936  11.275   3.577  11.203
79677W        W44937  24.086  12.072  12.949
79678W        W44938  29.102  15.657  13.788
79679W        W44939   1.771  24.247   5.406
79680W        W44940  17.086  32.627   1.265
79681W        W44941  12.156  27.133  13.033
79682W        W44942  43.868   9.969  11.307
79683W        W44943  27.417   3.640   0.307
79684W        W44944  20.051  29.507  11.304
79685W        W44945  11.556   3.395  10.546
79686W        W44946  14.139  16.487   2.415
79687W        W44947  20.659   5.963   2.136
79688W        W44948  23.730  25.626   3.947
79689W        W44949  42.879  25.185  13.273
79690W        W44950   0.353  31.352  13.028
79691W        W44951  15.727   7.798  12.604
79692W        W44952  42.476  40.634   0.167
79693W        W44953  20.699  17.796   1.867
79694W        W44954  41.687  33.013  11.174
79695W        W44955  37.317  39.396   3.720
79696W        W44956  18.321   5.999  10.961
79697W        W44957  18.345   6.625   4.727
79698W        W44958  16.902   5.603  14.972
79699W        W44959  27.613  32.519  12.683
79700W        W44960  44.890   0.212  11.073
79701W        W44961  19.143  15.883  14.644
79702W        W44962  27.746  39.287  12.550
79703W        W44963   6.739  10.647  12.003
79704W        W44964  26.409  25.098  11.118
79705W        W44965   0.195  32.304   2.661
79706W        W44966  37.336   8.402   0.329
79707W        W44967  35.548  30.488  13.770
79708W        W44968  14.098  42.952  13.408
79709W        W44969   0.944  12.811   2.355
79710W        W44970  44.917   8.446  12.925
79711W        W44971  19.412   2.757   3.299
79712W        W44972  44.318  25.916  10.157
79713W        W44973  29.622  41.559  11.509
79714W        W44974  32.916  41.876  13.540
79715W        W44975   7.737  15.334   4.676
79716W        W44976  21.020  16.020  11.066
79717W        W44977  37.796  22.226  14.270
79718W        W44978   2.236   2.804  14.993
79719W        W44979  27.700  28.651   1.264
79720W        W44980   6.748  21.722   1.857
79721W        W44981   9.441   8.939  14.324
79722W        W44982  29.574   3.890   1.503
79723W        W44983   7.270  39.826   3.097
79724W        W44984  34.109  23.034  11.545
79725W        W44985  42.818  31.689   4.585
79726W        W44986   4.839  24.202  11.594
79727W        W44987  19.005   4.839  10.774
79728W        W44988  10.626  25.529   0.303
79729W        W44989   1.194   9.699  14.863
79730W        W44990  43.891  17.209   4.616
79731W        W44991  13.566  28.621   1.455
79732W        W44992  29.194  13.848   3.638
79733W        W44993  22.216  38.089  14.482
79734W        W44994  26.031  33.061  14.054
79735W        W44995  43.852  29.290  10.748
79736W        W44996  34.972   6.496  11.818
79737W        W44997  21.627  28.985  11.973
79738W        W44998   5.650   8.211   3.713
79739W        W44999  17.085  32.094   2.151
79740W        W45000  15.762  41.272   2.290
79741W        W45001  18.134  27.948  13.027
79742W        W45002   7.790   6.193   2.179
79743W        W45003   2.954  44.204  13.023
79744W        W45004  10.772  32.513  12.181
79745W        W45005  40.030  44.756  12.458
79746W        W45006  22.733  42.312  11.696
79747W        W45007   8.598  33.284  12.231
79748W        W45008  44.174  16.374  14.843
79749W        W45009  42.329  22.140   1.135
79750W        W45010  31.671  15.662  14.800
79751W        W45011  23.747  39.410  10.658
79752W        W45012  44.997  29.630   3.141
79753W        W45013  28.878  33.378   4.589
79754W        W45014  14.726  44.689   4.272
79755W        W45015   1.860  37.798   0.294
79756W        W45016  40.105   3.950   3.616
79757W        W45017  13.142  17.698  13.410
79758W        W45018   8.493  12.547  11.688
79759W        W45019  35.372   9.630  11.383
79760W        W45020  39.553   4.357   3.145
79761W        W45021  24.663  40.091   2.758
79762W        W45022  20.077  36.597  12.184
79763W        W45023  30.455  31.465  13.542
79764W        W45024   1.635  32.615   4.666
79765W        W45025  13.623  19.658   3.622
79766W        W45026   6.102  41.503   1.457
79767W        W45027   4.478   0.196   0.648
79768W        W45028  10.435   2.297   0.034
79769W        W45029   6.726  17.888   2.356
79770W        W45030  36.967   2.987   0.775
79771W        W45031  19.066  40.829   0.810
79772W        W45032  27.918  14.634   4.283
79773W        W45033  38.518   9.104  11.182
79774W        W45034  40.122  42.782  11.180
79775W        W45035  18.060  10.062  12.568
79776W        W45036  38.504   2.301   0.912
79777W        W45037  31.623  18.900   2.405
79778W        W45038  43.004   1.711  12.528
79779W        W45039  32.670  14.121  14.931
79780W        W45040  14.543  31.646   3.339
79781W        W45041  15.309  29.047  12.894
79782W        W45042  38.925  26.060  12.533
79783W        W45043   7.831  43.331   0.162
79784W        W45044   1.037  11.230   3.531
79785W        W45045  19.340  30.998   3.507
79786W        W45046  42.507  42.949  10.548
79787W        W45047  23.596  14.317  14.461
79788W        W45048  13.672  31.998  13.348
79789W        W45049  34.190  16.486   4.024
79790W        W45050  42.701  15.811   5.089
79791W        W45051  14.688  27.204   0.495
79792W        W45052  24.014  20.808  12.197
79793W        W45053  42.556  43.471   1.895
79794W        W45054  36.644  37.153   2.710
79795W        W45055  16.646  31.010   4.148
79796W        W45056  36.669  42.788   0.359
79797W        W45057   3.170  21.811  11.602
79798W        W45058  37.574   0.233   2.606
79799W        W45059   2.381   1.981  11.940
79800W        W45060  25.552  39.808   2.738
79801W        W45061   2.284  13.119   3.717
79802W        W45062   9.786  10.780  11.160
79803W        W45063  14.178  28.847  13.942
79804W        W45064  22.820  32.385  14.090
79805W        W45065  33.643  22.822  14.876
79806W        W45066  27.461  13.042   2.697
79807W        W45067  28.375  17.488   3.139
79808W        W45068  38.844   0.881   1.733
79809W        W45069  13.905  34.460   0.955
79810W        W45070  33.548   3.830   3.229
79811W        W45071  35.333  29.617  10.820
79812W        W45072  34.499  44.095   2.421
79813W        W45073  27.121  43.860  10.610
79814W        W45074   9.610   8.961  11.219
79815W        W45075  29.494  19.583  14.431
79816W        W45076   1.833   5.453   0.897
79817W        W45077  27.665  40.627  11.966
79818W        W45078  44.223  12.270   2.231
79819W        W45079  15.674   6.754  12.915
79820W        W45080  38.559  27.483  12.449
79821W        W45081  26.735   1.881  12.431
79822W        W45082  22.133   5.819  13.293
79823W        W45083  23.255  19.990   0.235
79824W        W45084  31.083   4.458   2.218
79825W        W45085  36.556  26.251  12.504
79826W        W45086  34.869  23.606   0.634
79827W        W45087  33.768  41.760   4.070
79828W        W45088  40.460  43.436   3.299
79829W        W45089  33.511  22.809  10.775
79830W        W45090   3.641  40.871  11.507
79831W        W45091  30.346  12.912   1.189
79832W        W45092  16.595  38.910  13.317
79833W        W45093  29.602   9.988   4.104
79834W        W45094  22.488  40.884  12.033
79835W        W45095  31.973  38.586  13.052
79836W        W45096  11.544  33.782   0.401
79837W        W45097  43.197  44.001   1.279
79838W        W45098  34.126  35.314  10.726
79839W        W45099  22.196  40.510   2.094
79840W        W45100  26.644  39.277  12.993
79841W        W45101  27.526  13.327   2.241
79842W        W45102   2.793  37.365   3.370
79843W        W45103  10.180  17.300   1.866
79844W        W45104  26.000  43.816   1.781
79845W        W45105  36.803   3.461   3.251
79846W        W45106  19.681  44.294  14.421
79847W        W45107  21.981  25.588  13.824
79848W        W45108  44.736   2.245   2.693
79849W        W45109   1.923  34.940   2.309
79850W        W45110  32.523  39.511   0.718
79851W        W45111  12.566  40.459  13.081
79852W        W45112   0.909  20.184  12.066
79853W        W45113  23.059  21.600   2.265
79854W        W45114  13.200  32.198   1.823
79855W        W45115   4.639  42.986   2.381
79856W        W45116   7.586  42.855  12.270
79857W        W45117  39.359   7.118  10.848
79858W        W45118  16.889  25.421  12.900
79859W        W45119   5.442  40.333  14.262
79860W        W45120  28.948   1.797  11.934
79861W        W45121   8.848  43.100  14.516
79862W        W45122  32.046  32.593  12.575
79863W        W45123  40.133  21.315  10.785
79864W        W45124  27.118  11.681  11.168
79865W        W45125   2.257  26.285  10.312
79866W        W45126  23.229  15.109  10.846
79867W        W45127  18.746  28.606  13.273
79868W        W45128  33.739  19.617   5.143
79869W        W45129  13.907  32.152   4.584
79870W        W45130  18.069  40.255   2.335
79871W        W45131   8.857  37.060   2.868
79872W        W45132  34.890   4.634  10.223
79873W        W45133   2.974  10.121  14.271
79874W        W45134  28.677  19.800  11.953
79875W        W45135  13.703  18.810   4.169
79876W        W45136  40.845  11.067   2.311
79877W        W45137   6.326  28.928  12.317
79878W        W45138  31.124   6.489   3.709
79879W        W45139  40.726  33.794   2.730
79880W        W45140   2.384  19.555  12.880
79881W        W45141  28.939  16.426   4.337
79882W        W45142   3.505   6.319   4.036
79883W        W45143  30.936  34.772  14.584
79884W        W45144  33.397   3.313  12.619
79885W        W45145  43.346   9.957   9.795
79886W        W45146   6.931  19.744  14.063
79887W        W45147  37.539   3.939  10.271
79888W        W45148  30.925  29.355  10.671
79889W        W45149  42.380   8.981   0.987
79890W        W45150  30.892  35.723  14.936
79891W        W45151   6.208  43.575  14.024
79892W        W45152  22.719  25.578  11.896
79893W        W45153  36.472  35.348   1.906
79894W        W45154   5.327  42.369  10.326
79895W        W45155   9.363  11.155   0.420
79896W        W45156   3.421  25.902  13.460
79897W        W45157  44.986  21.284  13.380
79898W        W45158   1.176  32.657   2.699
79899W        W45159  14.618  41.220   2.828
79900W        W45160   9.914  34.195   3.637
79901W        W45161  13.129  21.594   2.690
79902W        W45162  31.172  28.180  11.606
79903W        W45163   1.449  14.797   2.733
79904W        W45164   5.331  18.759  13.630
79905W        W45165  27.958  20.186   3.613
79906W        W45166  42.885  30.070   0.212
79907W        W45167  34.246  16.191  10.707
79908W        W45168  33.688  44.067   0.570
79909W        W45169  10.693  23.557   1.293
79910W        W45170  11.253  27.137  11.653
79911W        W45171  23.703   3.079  14.296
79912W        W45172  33.613  21.264   0.841
79913W        W45173  21.190   6.833   0.529
79914W        W45174  15.863  39.234   0.235
79915W        W45175  36.012  42.394   3.897
79916W        W45176  21.770  11.281  11.030
79917W        W45177  27.905  23.034   3.703
79918W        W45178  15.091  24.998   4.678
79919W        W45179  26.931  33.583  14.755
79920W        W45180  43.446  22.045   1.240
79921W        W45181  35.327  13.672  10.741
79922W        W45182  44.572  37.033   1.878
79923W        W45183  38.159  36.341  12.323
79924W        W45184   0.934   2.347  14.681
79925W        W45185  33.805   7.681  11.166
79926W        W45186  38.906  24.923  10.662
79927W        W45187  32.622  21.703  14.935
79928W        W45188   1.302  30.125  11.402
79929W        W45189   0.202  18.067  12.925
79930W        W45190  11.280  37.032  13.935
79931W        W45191  21.275   5.409  12.113
79932W        W45192  11.771  41.999   0.836
79933W        W45193  32.175  41.959  11.123
79934W        W45194  13.384  12.648   4.193
79935W        W45195  24.267   3.750   1.412
79936W        W45196  24.949  28.732  10.889
79937W        W45197  10.600   9.343   3.708
79938W        W45198  16.624  16.619   5.169
79939W        W45199  37.561   1.300  13.363
79940W        W45200  24.627  29.011   1.643
79941W        W45201  38.950  44.984   2.906
79942W        W45202  13.045   5.733  13.549
79943W        W45203  23.628   8.669  10.577
79944W        W45204  24.197  25.247  13.880
79945W        W45205   9.108  10.301  11.549
79946W        W45206  21.349  38.365  13.606
79947W        W45207  41.288   0.226  13.553
79948W        W45208  32.056   0.348  13.130
79949W        W45209  41.896   2.977  11.565
79950W        W45210  19.289  40.873  14.008
79951W        W45211  10.623  43.284   1.880
79952W        W45212  14.742   5.941  11.189
79953W        W45213   5.810   9.385  10.682
79954W        W45214   3.271  16.331  12.981
79955W        W45215  35.430   8.707  14.058
79956W        W45216  20.736   5.482   3.208
79957W        W45217  28.073  19.765   3.308
79958W        W45218  33.110   2.529   0.749
79959W        W45219  34.947  11.375   4.546
79960W        W45220  41.175  26.659   2.812
79961W        W45221  40.704  44.890  11.572
79962W        W45222  10.810   2.370   4.558
79963W        W45223   7.944  11.783  11.204
79964W        W45224  25.718  18.381   1.329
79965W        W45225  38.390   8.694   4.139
79966W        W45226  26.115  29.925  11.492
79967W        W45227  33.469  39.769   4.598
79968W        W45228  35.095  19.707   1.797
79969W        W45229  25.394  39.924  10.170
79970W        W45230   4.208   1.190  11.999
79971W        W45231  34.832   2.211  11.731
79972W        W45232  43.959   1.054   0.416
79973W        W45233  43.270  25.700  12.665
79974W        W45234  31.423  27.024   0.857
79975W        W45235  36.999  35.449  10.688
79976W        W45236   1.868  42.294  13.873
79977W        W45237   9.783  32.064  10.686
79978W        W45238  28.044  14.128  13.807
79979W        W45239  18.925  12.685   5.119
79980W        W45240  12.822  15.351  10.759
79981W        W45241  18.209   0.344  11.695
79982W        W45242  19.311   4.508  11.578
79983W        W45243  14.881  19.566   1.331
79984W        W45244  10.381  44.918  13.667
79985W        W45245  11.758  10.842   2.710
79986W        W45246  41.717  30.642  13.808
79987W        W45247  18.850  10.713   2.533
79988W        W45248  27.101  34.560  11.593
79989W        W45249   5.266  12.141   3.372
79990W        W45250  22.984  11.900   2.263
79991W        W45251  32.680  22.936  14.525
79992W        W45252  41.380  21.216   2.221
79993W        W45253  17.278   4.910  14.914
79994W        W45254  29.095  20.580  14.889
79995W        W45255  34.154  44.262   4.156
79996W        W45256  43.779  27.939   4.143
79997W        W45257  19.428  26.139   0.482
79998W        W45258   4.341  11.848   1.196
79999W        W45259  35.369  38.429   3.425
80000W        W45260   8.826  14.229   0.321
80001W        W45261  10.395   4.998   4.211
80002W        W45262  12.163  43.435   4.512
80003W        W45263  38.185  29.906  14.682
80004W        W45264  16.378   6.681  11.914
80005W        W45265   8.677  31.981  14.941
80006W        W45266   9.608  34.805   1.762
80007W        W45267   4.719  24.858   4.573
80008W        W45268  32.059  29.379  14.821
80009W        W45269   3.453  21.962  11.161
80010W        W45270  25.989  23.278  12.163
80011W        W45271  35.071  42.625  12.985
80012W        W45272   4.791  28.135   4.324
80013W        W45273  24.012  16.772  14.593
80014W        W45274   9.916  15.035   0.290
80015W        W45275  28.102   2.757   3.222
80016W        W45276  33.640  34.962   1.898
80017W        W45277  12.644  31.890  13.433
80018W        W45278  38.523   4.963   0.733
80019W        W45279  12.555  13.666   4.542
80020W        W45280   1.993  44.750   3.613
80021W        W45281   3.232   2.675   4.270
80022W        W45282  14.892  26.038  12.685
80023W        W45283   0.481  22.601   0.796
80024W        W45284   7.206  37.893   0.493
80025W        W45285   4.456  18.734  11.110
80026W        W45286  36.499  13.812  12.485
80027W        W45287  14.176  39.570  14.864
80028W        W45288   8.742  27.382   2.132
80029W        W45289  22.060  43.486  11.490
80030W        W45290  40.481  11.191  13.910
80031W        W45291  38.410  17.324   0.990
80032W        W45292  29.534  25.917  11.057
80033W        W45293  39.881  27.856  12.405
80034W        W45294   9.651  14.325  14.483
80035W        W45295  37.411   2.205   2.729
80036W        W45296  43.352   4.418  14.838
80037W        W45297  11.067  10.904   1.256
80038W        W45298   0.147  41.124  14.904
80039W        W45299  18.554  28.267  12.924
80040W        W45300  10.146  23.968  12.739
80041W        W45301  38.940  30.710  14.866
80042W        W45302  23.087  29.049  11.131
80043W        W45303  33.119   1.972  11.026
80044W        W45304  19.697  39.953   1.724
80045W        W45305  30.153  32.090  11.465
80046W        W45306  29.622  28.255  11.576
80047W        W45307  15.384   9.233  10.486
80048W        W45308   5.231   5.868   2.359
80049W        W45309  28.602  13.716   2.258
80050W        W45310  12.433  39.607   2.336
80051W        W45311  23.941   1.609   4.195
80052W        W45312   3.501  20.664   0.348
80053W        W45313  16.274  31.456  11.531
80054W        W45314  42.599   9.729   3.290
80055W        W45315   0.424  44.502   3.553
80056W        W45316   9.239  11.930  13.917
80057W        W45317   1.500  21.571  14.290
80058W        W45318   3.432   8.701   0.810
80059W        W45319  39.688  12.628  12.590
80060W        W45320   2.316  11.479   2.760
80061W        W45321  36.051  32.553  12.116
80062W        W45322  10.323  16.351   3.180
80063W        W45323  33.993   7.478   0.084
80064W        W45324  41.396  18.638   1.235
80065W        W45325  19.681   9.322   1.814
80066W        W45326  39.884  41.796  13.389
80067W        W45327  22.747  35.565   2.957
80068W        W45328  17.065  12.275   2.375
80069W        W45329  11.315   4.634  10.186
80070W        W45330   0.820  37.946  10.722
80071W        W45331   5.761  44.014   4.890
80072W        W45332  30.725   3.896  12.345
80073W        W45333  42.882  23.892   2.707
80074W        W45334  25.152  44.418   1.779
80075W        W45335  13.649   1.856   3.915
80076W        W45336   1.409   8.128   3.597
80077W        W45337  33.198  17.357  13.835
80078W        W45338  13.351   9.683  13.606
80079W        W45339  40.408  42.999  14.275
80080W        W45340  19.508  17.634  13.607
80081W        W45341  11.183  33.611  12.612
80082W        W45342  38.518  44.365   0.981
80083W        W45343  16.621  44.884   0.964
80084W        W45344  39.861   1.876  14.374
80085W        W45345   1.474  21.958   3.155
80086W        W45346   0.007  15.582   1.791
80087W        W45347   1.481  18.035   2.859
80088W        W45348   5.908  43.690   1.395
80089W        W45349  27.435  24.549   4.137
80090W        W45350   7.675  30.832  10.451
80091W        W45351  39.711  36.828  14.966
80092W        W45352  14.364  31.032  11.630
80093W        W45353  19.715  21.677  11.661
80094W        W45354  29.708   9.471   4.135
80095W        W45355   4.383   1.427  14.180
80096W        W45356   2.380  32.080   2.360
80097W        W45357  10.315  28.919  14.542
80098W        W45358  41.690  23.641   3.351
80099W        W45359   7.219  28.963   1.731
80100W        W45360  11.768  39.031   2.229
80101W        W45361  29.639  41.075   0.772
80102W        W45362  19.558  42.334  13.773
80103W        W45363  35.433  35.321  12.834
80104W        W45364  26.518  35.506   1.733
80105W        W45365   2.864  40.828   2.616
80106W        W45366  22.995  34.959  14.370
80107W        W45367  34.890  10.198   0.875
80108W        W45368   4.899  17.246   2.342
80109W        W45369   4.396  36.465   2.394
80110W        W45370  38.485  22.805   3.835
80111W        W45371  31.394  10.355   4.587
80112W        W45372  30.923   7.459   3.643
80113W        W45373  34.026  18.836  13.522
80114W        W45374   4.776   8.439  12.591
80115W        W45375   1.899  31.376  12.412
80116W        W45376   8.265  37.428  11.126
80117W        W45377  19.263  39.618  11.018
80118W        W45378  36.289  30.549  11.672
80119W        W45379  21.120  26.428   0.706
80120W        W45380  19.782  27.158   1.741
80121W        W45381  24.475  38.101   1.311
80122W        W45382  22.570   9.874  11.770
80123W        W45383  19.621  41.462   0.373
80124W        W45384  10.441  41.935   0.174
80125W        W45385  43.785   4.794  10.805
80126W        W45386  31.916  37.247  12.929
80127W        W45387  30.464  43.935   0.734
80128W        W45388  28.921  41.463   1.592
80129W        W45389  21.062  32.900   3.750
80130W        W45390  21.038  18.576   4.206
80131W        W45391  43.246  34.357   3.348
80132W        W45392  33.742   5.924  13.996
80133W        W45393   3.383  39.929   4.099
80134W        W45394   5.430   2.454  10.647
80135W        W45395   5.475  36.673  11.203
80136W        W45396   0.393   2.204   4.189
80137W        W45397  44.920   7.459  12.093
80138W        W45398   2.593   8.428   4.214
80139W        W45399  27.614  31.515  14.485
80140W        W45400  44.442  39.169   4.582
80141W        W45401  43.538   5.349  10.716
80142W        W45402  35.946  27.275  14.509
80143W        W45403  22.038   8.417  10.739
80144W        W45404  22.205  32.123  12.420
80145W        W45405  12.602  30.388  12.828
80146W        W45406  40.197  19.830   2.718
80147W        W45407   4.382  15.337  10.668
80148W        W45408  10.540  43.684  13.009
80149W        W45409  36.949  23.984  14.976
80150W        W45410  32.102  26.690  10.622
80151W        W45411  32.057  24.423   2.926
80152W        W45412  41.490  40.305  14.275
80153W        W45413  20.751  12.334   3.655
80154W        W45414  42.360   3.191  13.882
80155W        W45415   6.733  39.847  13.261
80156W        W45416  34.114  32.628  12.566
80157W        W45417  29.754  43.770   0.212
80158W        W45418   4.709   8.305   1.009
80159W        W45419  28.063  41.755   3.123
80160W        W45420  31.178  35.907   0.963
80161W        W45421  23.446  34.803  12.328
80162W        W45422  30.007  32.826   2.537
80163W        W45423  13.366  19.254  11.254
80164W        W45424   7.314   2.981  14.007
80165W        W45425  10.601  12.892   0.678
80166W        W45426  15.365  12.375   1.343
80167W        W45427  43.489   0.172  14.325
80168W        W45428  15.608  37.996  13.716
80169W        W45429  18.628  36.283   4.864
80170W        W45430  15.623  26.980  13.368
80171W        W45431  17.685   8.827   1.824
80172W        W45432  26.858  39.995   3.119
80173W        W45433  25.563   4.273   4.537
80174W        W45434  11.170  33.105   2.412
80175W        W45435   9.392  31.728   9.979
80176W        W45436  30.442  32.952   4.609
80177W        W45437   8.969   2.779   2.078
80178W        W45438  36.462  21.653   2.280
80179W        W45439  38.513  36.323   0.217
80180W        W45440   4.180  16.341  11.940
80181W        W45441   7.761  12.152   3.345
80182W        W45442   0.594  37.121   1.864
80183W        W45443  19.288  16.025  12.516
80184W        W45444  28.098  36.783  13.895
80185W        W45445   2.882  43.230   1.998
80186W        W45446  35.548  44.672   2.570
80187W        W45447  19.229  39.007   1.670
80188W        W45448   5.296  13.855  14.779
80189W        W45449  36.746  35.798  11.003
80190W        W45450  14.249  34.688  13.775
80191W        W45451  13.340  38.125   0.290
80192W        W45452  40.092  14.124   2.249
80193W        W45453  41.337  16.853   4.000
80194W        W45454  25.428  11.156  14.391
80195W        W45455   8.666  17.681   0.668
80196W        W45456  31.157  30.132   0.348
80197W        W45457  16.180  13.139  10.717
80198W        W45458  12.909  16.645  12.845
80199W        W45459  26.447  10.636   5.004
80200W        W45460   3.934   3.021   3.729
80201W        W45461  38.522  13.754  11.992
80202W        W45462  21.296  33.915   3.691
80203W        W45463  25.213   2.180  14.254
80204W        W45464   3.784   1.521   3.266
80205W        W45465  17.099  11.179  10.366
80206W        W45466  35.907  35.251   0.856
80207W        W45467  21.336   3.249   1.656
80208W        W45468  41.937  37.922  11.631
80209W        W45469   2.212  41.953   3.123
80210W        W45470  12.695  11.803   3.215
80211W        W45471  20.743  25.457  14.449
80212W        W45472  24.528  34.393   4.530
80213W        W45473  31.117  23.249   0.935
80214W        W45474  11.698  35.624   2.770
80215W        W45475   7.386   1.809  13.248
80216W        W45476  27.278  19.069   3.372
80217W        W45477  14.423  32.843  13.324
80218W        W45478  36.847   4.862   0.420
80219W        W45479   8.959   2.246  11.980
80220W        W45480   5.724  21.838   1.706
80221W        W45481  15.062  28.508   3.151
80222W        W45482  34.486  11.815  12.539
80223W        W45483  38.351  11.837   3.232
80224W        W45484  42.184   1.681  14.613
80225W        W45485  41.485  28.219  11.525
80226W        W45486   2.862   0.576  11.602
80227W        W45487  27.923   5.551   4.391
80228W        W45488  39.326   7.250   1.860
80229W        W45489  24.595  43.208  13.963
80230W        W45490  22.337  16.333   4.657
80231W        W45491  27.582  33.949  14.029
80232W        W45492  10.859  15.277   4.202
80233W        W45493  14.218  15.190   4.267
80234W        W45494  28.889  39.407   3.726
80235W        W45495  38.888  27.723   3.780
80236W        W45496   8.290  11.851   3.974
80237W        W45497  25.952   4.228  12.586
80238W        W45498  42.426   1.728   2.820
80239W        W45499   9.262  10.896   1.750
80240W        W45500   8.204  16.986   1.841
80241W        W45501  37.634  37.506  12.521
80242W        W45502  21.328  18.261  14.834
80243W        W45503  13.299  34.949  11.436
80244W        W45504  23.166  36.945   4.937
80245W        W45505   5.742  31.149  11.905
80246W        W45506  17.285  41.802   4.119
80247W        W45507  36.016  22.607   0.848
80248W        W45508  33.340  19.984  12.128
80249W        W45509  36.436  18.050  11.384
80250W        W45510  27.472  35.823   0.742
80251W        W45511   6.295  27.448   1.794
80252W        W45512  27.592   7.778   3.025
80253W        W45513  19.550  14.911   2.804
80254W        W45514  21.643  44.252   2.672
80255W        W45515   0.839   1.238   4.705
80256W        W45516  27.590   1.960  11.954
80257W        W45517  44.842  27.566   1.701
80258W        W45518  33.921  26.234  14.011
80259W        W45519  31.564  33.138   2.406
80260W        W45520   3.013  33.133  14.534
80261W        W45521  24.650  16.872   3.685
80262W        W45522   2.988  16.532  12.160
80263W        W45523  13.703  19.687   0.035
80264W        W45524  22.281  13.406   4.536
80265W        W45525  35.391  24.297   0.933
80266W        W45526  39.368   8.026   1.492
80267W        W45527  22.796  31.953  10.551
80268W        W45528  11.405  44.892  13.349
80269W        W45529  19.060  25.703  13.005
80270W        W45530  35.619  24.633  14.069
80271W        W45531  37.376  23.471  11.455
80272W        W45532   6.373  26.272  13.331
80273W        W45533  19.531   3.745   0.034
80274W        W45534  21.183  41.450  14.355
80275W        W45535  14.613  21.228   0.671
80276W        W45536  32.867   3.876  13.788
80277W        W45537  39.415  14.152   0.728
80278W        W45538  35.673  37.538  12.246
80279W        W45539  34.366  28.092  14.900
80280W        W45540  21.660  24.405  12.472
80281W        W45541  40.621  42.883  11.150
80282W        W45542  41.837   5.343  14.663
80283W        W45543  24.760  33.420  13.447
80284W        W45544   9.673  14.112   2.826
80285W        W45545  32.017  37.746   3.036
80286W        W45546   0.223   3.730  11.439
80287W        W45547  13.827  15.047  12.995
80288W        W45548  35.490  40.726   3.141
80289W        W45549  10.110  35.267   1.309
80290W        W45550  17.300  23.742  13.786
80291W        W45551  20.260  29.499   0.822
80292W        W45552   8.143  10.843   2.585
80293W        W45553   5.740  42.590  14.808
80294W        W45554  33.574  16.665  14.287
80295W        W45555  17.295  12.087  10.066
80296W        W45556  40.631   2.396  14.468
80297W        W45557  35.593  44.028  12.013
80298W        W45558  18.214   6.830   3.823
80299W        W45559  36.482  42.438  12.837
80300W        W45560  28.423  31.720   0.015
80301W        W45561  15.297   6.217   0.918
80302W        W45562  31.261  43.806  11.218
80303W        W45563  20.528  41.372  11.903
80304W        W45564   6.004  30.794   4.279
80305W        W45565  13.521   8.128   4.086
80306W        W45566   6.954  36.299   3.777
80307W        W45567  44.379  33.141   0.714
80308W        W45568   9.055   5.525   2.351
80309W        W45569  20.148   1.630   3.212
80310W        W45570  31.613  23.987  14.274
80311W        W45571  19.200  28.311   1.994
80312W        W45572  19.840   5.235   0.762
80313W        W45573  36.101  17.750   2.701
80314W        W45574  17.202  14.146   0.331
80315W        W45575  42.842   0.487   3.387
80316W        W45576  23.169  10.051   4.907
80317W        W45577  16.984  28.440  11.149
80318W        W45578   4.928  32.240  12.153
80319W        W45579  44.137  33.615  10.562
80320W        W45580  22.508  10.345  14.861
80321W        W45581  14.847  23.633  13.819
80322W        W45582  33.325  43.436   2.280
80323W        W45583  21.518  28.467  10.388
80324W        W45584  19.268  22.952   4.254
80325W        W45585   7.405  21.282   0.882
80326W        W45586  41.406  37.844  13.248
80327W        W45587  13.044  10.884   9.516
80328W        W45588  26.996  29.241   4.081
80329W        W45589  27.612   2.007  14.288
80330W        W45590  28.492   9.298  12.971
80331W        W45591   9.316   2.405   2.280
80332W        W45592  23.042   5.704  12.173
80333W        W45593   9.439   8.843  13.439
80334W        W45594  22.549  29.134  10.600
80335W        W45595  17.732  30.898   1.149
80336W        W45596  29.932  19.998   3.111
80337W        W45597  28.378  30.979   2.739
80338W        W45598   2.055  22.603  10.320
80339W        W45599  37.488   4.248  11.528
80340W        W45600  44.628  36.408   4.775
80341W        W45601  35.859  21.087   4.664
80342W        W45602  14.555  22.564   0.755
80343W        W45603  36.586   4.427  12.574
80344W        W45604  20.510  12.465  14.451
80345W        W45605  44.976   8.993   5.136
80346W        W45606   9.869  31.467   2.794
80347W        W45607  32.538  37.726  14.869
80348W        W45608   9.806   9.322   0.298
80349W        W45609  17.350   8.155   0.477
80350W        W45610  41.613   8.902  12.896
80351W        W45611  15.788  39.292  13.816
80352W        W45612  30.139  24.601   4.037
80353W        W45613   5.860  34.335  10.972
80354W        W45614  25.979   7.285  11.665
80355W        W45615  34.042  29.170  11.024
80356W        W45616  28.407   8.708  13.601
80357W        W45617  22.809  13.171   0.820
80358W        W45618  10.875  27.155  14.463
80359W        W45619   8.643  26.451  12.056
80360W        W45620   9.143   8.981   1.213
80361W        W45621  13.023  14.730  13.320
80362W        W45622  19.911  42.544   3.172
80363W        W45623  13.161   8.800   1.681
80364W        W45624   8.124  38.008  13.979
80365W        W45625  20.415  30.221  11.920
80366W        W45626   5.276   1.711  12.028
80367W        W45627  28.534   7.987   3.596
80368W        W45628   2.014  41.793  13.823
80369W        W45629  24.661  20.851  11.064
80370W        W45630  35.795   5.365   0.470
80371W        W45631   1.372  11.676  14.766
80372W        W45632  34.116  14.733  11.356
80373W        W45633  38.730  11.761   1.854
80374W        W45634   5.613  40.510  13.427
80375W        W45635  22.544  20.666  14.927
80376W        W45636   2.087  16.888  12.589
80377W        W45637   0.407   6.288  13.979
80378W        W45638   1.883   4.454  13.443
80379W        W45639  11.226  16.192  14.068
80380W        W45640   0.849   7.356   5.020
80381W        W45641   1.634   6.398   3.553
80382W        W45642  32.715  42.686   1.204
80383W        W45643  21.953  23.668  11.898
80384W        W45644  43.298  42.315   2.340
80385W        W45645  19.738  41.044  12.552
80386W        W45646  22.567   3.408  11.521
80387W        W45647   8.154   6.673   3.271
80388W        W45648  24.769   8.819  12.071
80389W        W45649  37.734  22.292   0.764
80390W        W45650  19.011  12.317   0.382
80391W        W45651  36.866   4.262  13.415
80392W        W45652  19.214  32.069   0.014
80393W        W45653   8.489  26.563  14.264
80394W        W45654  37.478  13.396  11.189
80395W        W45655  22.140  37.118   5.135
80396W        W45656   3.886  42.775   3.419
80397W        W45657  31.604  33.675  12.243
80398W        W45658  31.159  26.460  11.990
80399W        W45659  18.698  31.809  11.425
80400W        W45660  10.474  28.391   3.620
80401W        W45661  18.691  12.692  13.993
80402W        W45662  29.210  20.128   4.002
80403W        W45663  30.084  13.072   4.617
80404W        W45664  37.042  20.677  11.102
80405W        W45665  36.115  15.079  12.232
80406W        W45666  36.380  19.954   1.738
80407W        W45667  32.401  30.682   3.265
80408W        W45668  11.503  40.983  13.992
80409W        W45669  28.585  19.181   4.694
80410W        W45670  30.390   3.374   1.701
80411W        W45671   2.830  36.814  12.370
80412W        W45672   3.455  26.675  10.789
80413W        W45673  33.385  24.629  13.379
80414W        W45674  30.100  41.412  10.740
80415W        W45675  44.411  25.060   0.840
80416W        W45676  37.901  31.142   0.425
80417W        W45677   5.154   6.872  12.493
80418W        W45678   1.496  38.294  12.562
80419W        W45679  14.639   8.155   0.387
80420W        W45680  41.814  22.015   1.071
80421W        W45681  34.215   9.811  14.742
80422W        W45682  25.402  29.010   2.677
80423W        W45683  12.047  11.735  13.266
80424W        W45684  30.446   6.642  11.565
80425W        W45685   2.025  20.636   1.254
80426W        W45686   9.197  21.234  10.829
80427W        W45687  44.019  38.439  11.841
80428W        W45688  11.255  31.810   3.673
80429W        W45689  29.612  39.347   4.866
80430W        W45690   7.123  25.672   0.094
80431W        W45691   7.462  42.570  12.789
80432W        W45692  23.238  22.718   1.227
80433W        W45693   5.261  21.729  12.341
80434W        W45694  42.773  18.448   1.695
80435W        W45695   1.454  28.046  14.224
80436W        W45696  25.501  26.266  12.073
80437W        W45697  19.561  41.577  14.329
80438W        W45698  24.412  26.125   4.269
80439W        W45699  25.607   8.279   4.047
80440W        W45700  25.550  41.114   3.665
80441W        W45701  40.083   6.807  11.977
80442W        W45702  27.215  32.099  14.900
80443W        W45703  24.033  34.505  14.299
80444W        W45704  28.930   7.581  11.147
80445W        W45705   7.133  34.314   3.059
80446W        W45706  30.956   0.499   2.182
80447W        W45707  29.126  34.060   3.703
80448W        W45708  33.079  21.083  13.947
80449W        W45709   5.367   9.121   3.667
80450W        W45710  10.239  23.507  11.456
80451W        W45711  30.173  17.237   3.322
80452W        W45712  31.323  13.070   1.741
80453W        W45713   9.430  36.831  11.457
80454W        W45714  44.016   3.351   5.036
80455W        W45715  22.966  19.005   0.351
80456W        W45716  43.536  20.153  13.665
80457W        W45717  29.816  14.721  11.639
80458W        W45718  28.108  33.624   3.091
80459W        W45719  10.780   4.959  12.459
80460W        W45720  30.427  29.135  14.457
80461W        W45721  25.050  10.656   4.783
80462W        W45722   2.273   0.947  12.847
80463W        W45723   2.544  11.572  11.043
80464W        W45724  38.672  25.434  11.971
80465W        W45725   3.672  20.126   2.307
80466W        W45726  37.404  31.109   3.571
80467W        W45727  31.513  19.235  11.829
80468W        W45728  39.778   8.858  11.285
80469W        W45729   1.472  27.048   4.519
80470W        W45730  41.706  28.579   1.037
80471W        W45731  37.630  35.078   4.220
80472W        W45732  38.911   1.012   5.370
80473W        W45733  24.648  20.346  10.909
80474W        W45734   3.880  38.356   3.173
80475W        W45735  10.328  34.070   4.349
80476W        W45736  11.921  28.639   2.286
80477W        W45737  20.747  27.886  12.884
80478W        W45738  12.196  22.589  13.276
80479W        W45739  38.930  44.325  14.952
80480W        W45740  30.033   5.875  11.666
80481W        W45741  35.101   9.911  12.790
80482W        W45742  37.393  24.746   2.198
80483W        W45743  15.645   2.745  14.377
80484W        W45744  11.903  35.471  11.967
80485W        W45745  18.750  21.839   3.251
80486W        W45746  44.092  16.757   1.923
80487W        W45747  29.029  22.043   3.854
80488W        W45748   4.439  35.558   0.147
80489W        W45749  10.292  13.683   1.785
80490W        W45750  38.873  42.112   5.153
80491W        W45751   1.734  33.933   0.807
80492W        W45752  23.526  10.585   3.786
80493W        W45753   4.587  20.754   3.450
80494W        W45754   7.296  12.836  14.411
80495W        W45755   2.136  23.540   5.000
80496W        W45756  36.511  16.543  11.484
80497W        W45757  24.616  40.551   0.926
80498W        W45758  24.619  14.289   3.706
80499W        W45759  17.238  37.325  14.831
80500W        W45760  23.599  16.515   2.706
80501W        W45761  31.023   9.377  12.349
80502W        W45762  43.794  31.316   4.153
80503W        W45763   3.683  19.013  11.117
80504W        W45764  30.368  16.651  11.095
80505W        W45765  14.749  10.128  11.444
80506W        W45766   1.048  37.283   1.179
80507W        W45767   0.232  21.349  13.845
80508W        W45768   5.723  23.092   4.078
80509W        W45769  18.799  13.493   2.933
80510W        W45770  41.055   5.845  14.506
80511W        W45771  12.067  33.801  13.622
80512W        W45772  15.281   3.272  10.636
80513W        W45773  13.174   0.942  13.782
80514W        W45774   5.496  20.836   0.437
80515W        W45775  20.711  23.727  11.556
80516W        W45776   6.184  33.467   2.678
80517W        W45777  36.401  30.800  13.922
80518W        W45778   3.333  12.375  13.316
80519W        W45779   6.713  26.379   4.088
80520W        W45780  12.832   9.706  14.476
80521W        W45781  11.604   2.783   2.229
80522W        W45782  42.028  26.178   0.394
80523W        W45783  13.699  29.447  14.769
80524W        W45784  22.235  38.249  13.283
80525W        W45785  13.211  30.629   4.058
80526W        W45786   3.909  38.761   2.337
80527W        W45787  22.766  17.606  14.947
80528W        W45788   3.834   2.450   1.149
80529W        W45789  32.449  36.678   3.814
80530W        W45790   5.448  26.171   3.246
80531W        W45791   6.222  14.610   0.450
80532W        W45792   6.466  41.983  12.917
80533W        W45793   4.688  17.400  14.019
80534W        W45794  20.017  29.910  10.646
80535W        W45795   3.865  24.153   2.598
80536W        W45796  42.802  40.196   0.743
80537W        W45797  42.511  15.633   2.330
80538W        W45798  40.454  41.358  13.927
80539W        W45799  18.515  18.573   2.806
80540W        W45800   7.647  34.239  10.015
80541W        W45801  32.077   1.232  14.519
80542W        W45802  24.497  43.838  11.885
80543W        W45803  19.669   0.452  13.922
80544W        W45804  12.896  40.328  11.480
80545W        W45805  23.500  33.800   1.294
80546W        W45806  22.141  33.731   4.219
80547W        W45807  26.275  43.346  14.148
80548W        W45808   5.489  39.585  11.998
80549W        W45809  41.846  11.595  11.282
80550W        W45810   3.188  20.476   0.735
80551W        W45811  34.695  24.918   3.119
80552W        W45812  32.635   1.550  12.461
80553W        W45813  23.170   9.517   4.894
80554W        W45814   7.749  32.003  10.738
80555W        W45815  42.988  23.193   3.319
80556W        W45816  12.754  43.545   2.787
80557W        W45817  24.601  40.622  10.472
80558W        W45818   7.175  21.251  12.023
80559W        W45819  15.440  41.526  14.420
80560W        W45820  40.089  18.315   3.200
80561W        W45821  11.917  44.733  13.301
80562W        W45822  17.549   6.242   3.847
80563W        W45823   2.382   6.360  13.310
80564W        W45824  10.345  12.886   2.969
80565W        W45825   4.178  19.570  12.324
80566W        W45826  27.902  14.113  13.317
80567W        W45827  40.930  43.838   1.415
80568W        W45828  28.159   7.390  14.290
80569W        W45829  20.130  32.458   3.709
80570W        W45830  27.054   3.528   1.901
80571W        W45831  28.294  29.921   2.302
80572W        W45832  15.817  32.896  13.883
80573W        W45833  23.853  20.308   3.380
80574W        W45834   8.018  39.484   3.429
80575W        W45835  35.545   5.312  11.214
80576W        W45836  22.445  39.445  14.594
80577W        W45837   6.871   3.157  10.645
80578W        W45838  43.168  41.040   1.165
80579W        W45839  38.619  29.408  12.479
80580W        W45840   1.309   6.422  12.502
80581W        W45841   9.195  44.270   2.895
80582W        W45842  19.594  22.028   3.462
80583W        W45843  26.084  44.890   1.889
80584W        W45844  41.003  28.421   1.426
80585W        W45845  13.999  16.747  12.500
80586W        W45846  23.720  37.145  13.978
80587W        W45847  18.048  17.737   0.364
80588W        W45848   7.923  38.177   4.162
80589W        W45849  22.745  31.422  11.693
80590W        W45850  11.837   1.837   0.885
80591W        W45851  33.604  38.797  12.867
80592W        W45852  13.404  30.150  10.954
80593W        W45853   0.230  44.286   1.492
80594W        W45854  17.740   0.350   2.400
80595W        W45855  20.229   0.449  12.030
80596W        W45856  16.621  17.548  11.004
80597W        W45857   4.527  42.158   4.187
80598W        W45858   0.788  16.531  14.502
80599W        W45859   0.097  41.322   3.419
80600W        W45860  16.609  36.440  14.001
80601W        W45861  31.106  25.449  12.765
80602W        W45862  15.807   5.020   2.557
80603W        W45863  39.078  14.913  11.092
80604W        W45864  20.033  12.999  13.756
80605W        W45865  13.699   8.408   2.153
80606W        W45866   9.309   6.890  14.296
80607W        W45867  37.773  28.768  14.245
80608W        W45868  18.794  34.469  13.955
80609W        W45869  19.709  44.915   2.243
80610W        W45870   4.439   8.338   1.447
80611W        W45871  24.531   9.787  11.570
80612W        W45872   4.238  28.537   0.777
80613W        W45873  13.704  19.200  14.924
80614W        W45874  26.019  15.808  12.176
80615W        W45875  30.600  30.423  13.564
80616W        W45876  43.290  24.735  12.957
80617W        W45877  18.868  41.383  12.427
80618W        W45878   9.355   1.689   0.773
80619W        W45879   0.736  22.674   3.285
80620W        W45880  41.431  10.460   1.769
80621W        W45881  26.618   6.425  10.279
80622W        W45882   3.447  17.194  13.490
80623W        W45883  44.518  21.674   0.280
80624W        W45884   4.390  18.161   3.650
80625W        W45885   3.480  41.508  14.382
80626W        W45886   9.315   0.616   0.813
80627W        W45887  14.775  37.328  12.938
80628W        W45888  15.955  14.801  10.694
80629W        W45889  10.917   3.084   4.927
80630W        W45890  34.379  38.463   1.228
80631W        W45891  16.020  23.651   4.642
80632W        W45892  41.431   2.337   3.142
80633W        W45893  35.947   6.438  13.148
80634W        W45894  43.030  20.786  13.986
80635W        W45895  35.137   5.753   4.812
80636W        W45896  33.696   8.344   2.717
80637W        W45897  31.669  44.908   3.665
80638W        W45898  17.498   5.866   2.743
80639W        W45899   2.708   8.055   2.889
80640W        W45900  18.873  29.353  13.980
80641W        W45901   4.951  43.834  10.452
80642W        W45902  39.541  27.018   3.991
80643W        W45903  20.865  12.893   0.874
80644W        W45904  43.974  11.663  13.943
80645W        W45905  41.238  13.238   4.158
80646W        W45906  26.638  37.919  12.610
80647W        W45907  36.931  14.350  14.884
80648W        W45908  29.507  36.127  14.894
80649W        W45909  11.679  10.603   3.680
80650W        W45910   4.138  28.623  14.939
80651W        W45911   8.129   3.990   0.330
80652W        W45912  32.438  11.218   3.901
80653W        W45913  22.499   6.398  14.454
80654W        W45914   1.803  14.826   2.202
80655W        W45915   7.394  31.346   3.259
80656W        W45916  44.747  44.486   2.239
80657W        W45917  18.621   7.185  10.671
80658W        W45918  42.419  36.421  13.930
80659W        W45919  38.517  36.587  12.600
80660W        W45920  20.765  39.712  12.985
80661W        W45921  31.405  12.404  12.927
80662W        W45922   4.849  26.653  13.118
80663W        W45923  11.284  31.119  12.483
80664W        W45924  38.044  19.078   2.425
80665W        W45925  28.524  12.211   4.229
80666W        W45926   0.409  21.000  13.510
80667W        W45927  31.142  39.998   1.964
80668W        W45928  38.059  29.586  11.523
80669W        W45929  16.342   8.962   3.386
80670W        W45930  13.828   6.853   0.874
80671W        W45931   1.534   7.273   0.868
80672W        W45932  18.879   2.761   0.406
80673W        W45933  35.597  25.452  13.011
80674W        W45934  40.717  26.912   1.291
80675W        W45935   9.357  39.629   0.380
80676W        W45936   2.815  21.705   2.410
80677W        W45937  29.197   4.712   3.769
80678W        W45938  40.769   4.453  13.826
80679W        W45939  14.584  29.371  13.319
80680W        W45940  26.061   4.406   4.029
80681W        W45941  11.287  40.473  10.689
80682W        W45942  24.245  39.727   0.982
80683W        W45943  14.219  22.502  12.134
80684W        W45944  33.826  18.103  11.529
80685W        W45945  25.770  44.063  12.565
80686W        W45946  38.073   8.691  10.438
80687W        W45947  20.021  19.466  11.592
80688W        W45948  17.834  40.728  10.993
80689W        W45949  24.978  42.788   3.694
80690W        W45950  38.716  13.091   1.455
80691W        W45951   5.441  28.663  12.056
80692W        W45952  38.972  28.160   0.442
80693W        W45953  37.233  19.507   9.852
80694W        W45954  16.881  25.223  14.977
80695W        W45955  16.515  37.433  14.284
80696W        W45956   8.283   5.910  13.934
80697W        W45957   8.687   1.741  10.875
80698W        W45958   2.729  29.112   1.223
80699W        W45959  44.713   9.261   5.533
80700W        W45960   1.775  43.676   2.787
80701W        W45961   0.426  37.530   0.721
80702W        W45962  29.535   9.114  14.415
80703W        W45963  44.882  28.468  12.037
80704W        W45964   7.377  11.730   3.109
80705W        W45965  26.969  41.910   2.724
80706W        W45966  27.611  30.007   0.050
80707W        W45967  40.857  31.404   1.086
80708W        W45968  12.541  16.779  13.534
80709W        W45969   4.974  39.000   3.593
80710W        W45970  36.683  43.400  11.083
80711W        W45971  29.608   9.968   5.095
80712W        W45972  38.116  34.934   0.888
80713W        W45973   0.958   1.902  14.941
80714W        W45974  44.224   3.881  12.681
80715W        W45975  15.684  16.155  10.566
80716W        W45976  26.326  43.067   3.766
80717W        W45977   2.301   8.879  13.046
80718W        W45978  17.292  21.160   1.482
80719W        W45979  14.029  12.641  11.969
80720W        W45980  20.351  23.535  10.694
80721W        W45981  10.740  43.160   1.306
80722W        W45982  18.980  43.923   0.415
80723W        W45983  14.688  11.390   3.207
80724W        W45984  19.187  40.983  10.729
80725W        W45985   9.825  19.260  11.941
80726W        W45986   0.000  26.607   4.726
80727W        W45987  42.163  31.832  13.946
80728W        W45988  17.641  37.294  10.637
80729W        W45989  23.104  38.262   0.362
80730W        W45990  38.073  12.435  14.468
80731W        W45991  28.762  24.947   5.420
80732W        W45992  27.945  40.086   4.010
80733W        W45993  32.507   9.288  12.649
80734W        W45994  13.755   2.294  14.574
80735W        W45995  30.491  38.523  11.542
80736W        W45996  18.760  16.299   3.654
80737W        W45997  28.044  29.008   1.904
80738W        W45998   5.131  37.142  12.027
80739W        W45999  41.380  28.920   2.983
80740W        W46000  30.641  35.417  12.008
80741W        W46001  15.335  36.523   0.848
80742W        W46002  34.862  24.576  14.462
80743W        W46003  24.740  42.997   1.100
80744W        W46004  36.601   6.262  14.890
80745W        W46005  15.563  17.893   3.763
80746W        W46006   3.332  24.502   0.962
80747W        W46007  39.964  41.441  12.054
80748W        W46008  29.924   1.501   1.292
80749W        W46009  20.107  28.420   1.875
80750W        W46010  39.315  12.144   3.261
80751W        W46011  26.652  40.982   3.108
80752W        W46012  19.224   8.711   4.545
80753W        W46013  15.518  35.396   0.804
80754W        W46014   2.860  30.513  12.429
80755W        W46015  12.822  24.063  12.306
80756W        W46016  32.644  36.847  13.492
80757W        W46017  27.039  31.072   1.691
80758W        W46018   1.917  40.103   4.552
80759W        W46019  43.433  10.675   3.721
80760W        W46020  24.829  41.906  14.721
80761W        W46021  21.480   8.372  11.442
80762W        W46022  28.920  18.298  12.090
80763W        W46023  10.339  31.561  11.174
80764W        W46024  21.483   6.369  10.721
80765W        W46025  30.896  31.292  10.378
80766W        W46026  29.850  24.198   2.302
80767W        W46027  24.173  31.075   2.158
80768W        W46028  20.516   4.815  10.196
80769W        W46029  35.379   3.353  10.822
80770W        W46030  30.538   4.126   3.833
80771W        W46031  23.911  20.218   4.654
80772W        W46032  35.998  16.768  12.609
80773W        W46033  37.624   2.187   4.534
80774W        W46034  18.806  31.445  10.553
80775W        W46035   3.278   3.533  10.626
80776W        W46036  12.584  42.610  13.306
80777W        W46037   3.298  25.614  13.873
80778W        W46038  43.339  28.109   4.398
80779W        W46039  33.959  34.632  13.008
80780W        W46040  32.334  16.091   0.473
80781W        W46041   6.749   4.260  11.192
80782W        W46042  14.081  30.904   4.118
80783W        W46043  32.137  42.985  10.772
80784W        W46044  17.215  15.824   1.295
80785W        W46045   0.854  27.113   1.668
80786W        W46046  26.537  26.377   1.569
80787W        W46047  31.073   2.933  14.871
80788W        W46048  16.619  19.826   3.377
80789W        W46049  12.042  38.471  12.903
80790W        W46050  40.404   2.397  10.707
80791W        W46051  13.092  33.302   4.622
80792W        W46052  38.351  39.930   2.652
80793W        W46053  23.417   0.294  12.027
80794W        W46054  43.024  23.494   4.266
80795W        W46055   3.632   7.347  12.978
80796W        W46056  19.235  11.322  12.057
80797W        W46057   9.917  40.922   1.345
80798W        W46058  30.271  23.993  11.999
80799W        W46059  15.291  27.594   2.385
80800W        W46060  41.358  34.437  10.704
80801W        W46061  12.638  23.589   4.564
80802W        W46062  15.733  18.811  13.864
80803W        W46063  16.124  12.714  12.060
80804W        W46064  25.664  33.132  10.879
80805W        W46065  19.772  26.972   0.431
80806W        W46066   3.050  40.945  13.010
80807W        W46067  33.407  16.601  10.714
80808W        W46068  15.077  43.488   2.180
80809W        W46069  28.377  24.812   5.058
80810W        W46070  24.686  42.417   3.415
80811W        W46071  28.555  30.692   0.356
80812W        W46072  42.899  23.561  10.255
80813W        W46073  18.824  38.796  12.178
80814W        W46074   6.986  27.531  11.432
80815W        W46075  15.595  33.795  12.607
80816W        W46076  37.926  32.710  13.667
80817W        W46077   2.517   0.929  11.506
80818W        W46078   4.942   9.140   2.710
80819W        W46079   8.204  37.824   2.684
80820W        W46080   7.240  11.458  13.351
80821W        W46081  33.196   1.376   3.772
80822W        W46082   0.484  27.159   1.183
80823W        W46083  10.135  19.473  13.945
80824W        W46084  20.148   3.581   2.320
80825W        W46085   7.293   2.347   1.783
80826W        W46086  13.191  22.061   4.619
80827W        W46087  29.004  42.286   0.321
80828W        W46088  22.319  27.156   4.701
80829W        W46089  23.877  42.273  12.869
80830W        W46090  21.237  41.207   3.693
80831W        W46091  34.535  21.347  11.957
80832W        W46092  32.479  19.554  12.516
80833W        W46093  28.515  34.950  12.632
80834W        W46094  17.556  10.184   4.383
80835W        W46095  11.852  29.256   3.376
80836W        W46096  14.530  44.877   3.030
80837W        W46097  26.504  26.172  12.775
80838W        W46098  21.347  17.015  13.826
80839W        W46099  12.541  29.090  13.036
80840W        W46100  13.546  12.601  12.127
80841W        W46101  40.966   3.907   3.195
80842W        W46102  37.834  43.243   3.168
80843W        W46103  32.875  30.639  13.581
80844W        W46104   9.689   2.332   1.882
80845W        W46105  43.925  36.150  12.641
80846W        W46106  21.330  24.994  13.862
80847W        W46107  18.782   2.704  14.418
80848W        W46108  44.309  37.860  11.424
80849W        W46109  18.610   2.928  12.830
80850W        W46110  29.660  39.753   2.347
80851W        W46111  35.837  35.651  12.943
80852W        W46112  42.476  44.983   0.654
80853W        W46113  26.204   0.449  11.030
80854W        W46114  21.086  28.754   4.621
80855W        W46115  35.077  44.676   0.366
80856W        W46116  28.913  42.102   3.399
80857W        W46117  42.857  10.850  11.866
80858W        W46118  26.908  34.349   0.934
80859W        W46119  32.171  13.354   5.057
80860W        W46120  16.596  30.840   2.284
80861W        W46121  42.319  26.621   2.379
80862W        W46122  40.925  21.842  10.671
80863W        W46123  21.054  39.857   4.313
80864W        W46124  15.068  40.828   1.663
80865W        W46125   0.272  31.571  13.501
80866W        W46126  25.066   1.747  14.005
80867W        W46127  37.786  38.534  12.982
80868W        W46128   2.990  38.651  11.187
80869W        W46129  37.515  21.312   3.602
80870W        W46130  22.973   3.815  10.306
80871W        W46131  40.948  35.180   1.045
80872W        W46132   1.187   8.883  12.393
80873W        W46133  11.940  42.484   0.917
80874W        W46134  15.799  38.019   0.822
80875W        W46135  23.460  32.999   3.699
80876W        W46136  14.775  23.450  10.627
80877W        W46137  12.546   1.823  11.042
80878W        W46138  10.079  42.788  13.454
80879W        W46139  37.181  42.802   1.621
80880W        W46140  37.599  32.608  14.440
80881W        W46141  36.243  25.423  13.569
80882W        W46142   9.558  14.113   4.530
80883W        W46143  25.579   3.172   3.715
80884W        W46144  31.681   7.818  14.026
80885W        W46145  30.663   3.807   4.656
80886W        W46146  42.253   2.195   3.203
80887W        W46147  44.844  44.543   1.257
80888W        W46148   0.726  39.040  13.976
80889W        W46149   6.188  21.610  11.726
80890W        W46150  11.574  37.922   2.262
80891W        W46151  25.240  17.696   3.634
80892W        W46152   8.689   6.860  13.448
80893W        W46153  23.015  19.139   3.918
80894W        W46154   3.370   3.471  13.108
80895W        W46155  32.266  18.785  11.546
80896W        W46156   4.203   8.290   2.862
80897W        W46157  12.917   2.658   2.550
80898W        W46158  26.798   0.193  13.843
80899W        W46159  42.386  30.385  11.971
80900W        W46160  19.347  24.335   0.264
80901W        W46161  21.139  38.653   2.215
80902W        W46162  19.520  11.408   3.844
80903W        W46163  11.087   4.880  11.485
80904W        W46164   4.490  18.728  13.658
80905W        W46165  30.676  41.931   4.824
80906W        W46166   1.036   7.492  12.437
80907W        W46167   3.013   9.925   0.403
80908W        W46168  44.770  43.951  11.402
80909W        W46169   2.397  39.360   4.480
80910W        W46170  43.184   3.630   3.606
80911W        W46171  38.039   9.440   2.216
80912W        W46172   2.358  19.376   1.883
80913W        W46173  43.741  15.601  12.434
80914W        W46174  27.985  42.536   1.393
80915W        W46175  35.415  26.083  12.137
80916W        W46176  27.105  16.787  13.735
80917W        W46177  22.616  14.774   2.320
80918W        W46178   3.691  35.911   0.131
80919W        W46179  21.965  43.337  13.895
80920W        W46180  24.922  37.464  14.323
80921W        W46181  21.526  25.434  12.524
80922W        W46182  20.023  22.526  14.443
80923W        W46183   8.661  10.223   3.705
80924W        W46184  31.637  10.733  13.254
80925W        W46185  43.523  15.034   3.708
80926W        W46186  13.358  42.788   0.830
80927W        W46187  35.854   5.683   2.804
80928W        W46188  42.374  41.505   4.032
80929W        W46189  33.977  13.494   3.974
80930W        W46190  11.864  19.486  12.611
80931W        W46191  43.478  26.765   1.173
80932W        W46192   4.091  42.342  11.651
80933W        W46193  39.103  14.415   1.402
80934W        W46194  44.060  25.730   1.798
80935W        W46195  10.987  41.681   0.263
80936W        W46196  37.419  30.255   3.555
80937W        W46197  26.120  21.134  13.264
80938W        W46198  11.605  12.628   0.418
80939W        W46199  43.484   0.779  11.228
80940W        W46200  14.226  32.630   3.894
80941W        W46201  34.735   7.289   2.323
80942W        W46202  32.519  44.166   1.577
80943W        W46203  42.007   2.264   0.940
80944W        W46204   5.366  12.747  10.608
80945W        W46205  34.351  22.976   2.210
80946W        W46206  28.036  25.389  11.167
80947W        W46207  13.901  32.712   3.451
80948W        W46208  38.622   0.556  13.103
80949W        W46209  23.990  11.402  14.337
80950W        W46210  16.963  31.218  12.418
80951W        W46211   4.406  40.702  12.385
80952W        W46212  27.965  12.357  13.739
80953W        W46213   2.382  44.375   2.824
80954W        W46214  16.379  30.955  10.642
80955W        W46215   0.127  26.848   3.677
80956W        W46216   8.658   0.273  11.212
80957W        W46217  22.998   0.457  14.756
80958W        W46218   4.235  42.002   1.916
80959W        W46219  40.213  29.134  13.043
80960W        W46220  16.280  10.235   2.771
80961W        W46221  13.822  10.825   2.332
80962W        W46222  14.175  35.664   2.282
80963W        W46223   0.754  39.787   1.601
80964W        W46224  28.053  31.425   3.527
80965W        W46225  16.717  21.435  14.877
80966W        W46226  17.037  12.680   1.412
80967W        W46227  37.096  36.799   2.847
80968W        W46228   0.221   8.497  12.481
80969W        W46229  39.736   9.340   2.724
80970W        W46230   9.332  29.563  13.279
80971W        W46231  32.018  43.408  11.078
80972W        W46232  35.168  39.396  11.197
80973W        W46233  28.871  31.073   1.793
80974W        W46234   3.458  20.595   1.191
80975W        W46235   5.413  26.136  14.027
80976W        W46236  24.712  14.078  13.846
80977W        W46237   5.424  37.135  13.383
80978W        W46238  30.023  38.855   3.227
80979W        W46239  18.647  21.215   5.262
80980W        W46240  21.394  30.923   0.278
80981W        W46241  33.273  19.585   9.984
80982W        W46242  23.133  23.036   2.718
80983W        W46243   9.066  30.036   2.753
80984W        W46244  20.636   6.723  14.859
80985W        W46245   0.565  19.531  14.835
80986W        W46246  12.649  24.455  13.105
80987W        W46247   1.028   6.146  10.139
80988W        W46248  30.502  26.733  11.677
80989W        W46249   7.332  37.778   1.938
80990W        W46250  26.913  28.061  10.314
80991W        W46251  43.817  31.970  13.407
80992W        W46252  18.358  18.243  12.121
80993W        W46253  22.286  17.158   0.970
80994W        W46254  10.294  44.217  11.517
80995W        W46255  20.033  42.417   0.344
80996W        W46256  32.068  36.268  12.145
80997W        W46257  44.474  40.029  14.030
80998W        W46258  44.448   8.966   5.202
80999W        W46259  36.189  12.766   4.200
81000W        W46260  44.686  26.847  11.113
81001W        W46261  44.229   8.295  14.868
81002W        W46262  26.906  28.406   1.862
81003W        W46263   0.710  20.951  13.090
81004W        W46264   8.762  44.426   1.102
81005W        W46265  38.554  38.991  14.130
81006W        W46266  23.114  14.126  14.360
81007W        W46267  11.093  30.359   1.726
81008W        W46268  13.580  38.013   3.097
81009W        W46269   3.826  16.865   1.737
81010W        W46270  27.673  43.985   3.332
81011W        W46271  31.620  11.900  12.114
81012W        W46272   1.978  12.369   0.214
81013W        W46273   7.236  42.120  14.168
81014W        W46274   1.484  34.932  13.570
81015W        W46275  28.524  42.588   2.270
81016W        W46276  43.314  19.079   4.219
81017W        W46277  19.823   9.794  12.335
81018W        W46278  36.284  21.511   0.749
81019W        W46279  21.051  31.035  13.005
81020W        W46280  44.487  18.809   3.685
81021W        W46281  39.633  17.832   0.977
81022W        W46282   4.866  13.164  13.722
81023W        W46283  18.902   7.490  11.893
81024W        W46284   4.400  34.019   2.588
81025W        W46285  15.223  31.544   2.267
81026W        W46286  43.450  30.152  11.568
81027W        W46287   8.954  21.245  11.501
81028W        W46288   1.845  35.661   0.539
81029W        W46289   7.106  37.529  13.585
81030W        W46290  28.924  25.657  12.490
81031W        W46291  28.995   9.466  12.069
81032W        W46292  36.448  10.092   0.395
81033W        W46293  33.974  10.261  14.778
81034W        W46294  42.312  11.096   3.911
81035W        W46295  11.676  24.800  12.935
81036W        W46296   5.350  32.132   2.489
81037W        W46297  31.499  15.735   3.657
81038W        W46298  41.063  44.285   0.755
81039W        W46299   1.449  22.857  11.622
81040W        W46300   7.837  10.280   3.144
81041W        W46301  22.190   5.462   1.062
81042W        W46302  20.785  19.068  14.444
81043W        W46303  27.668  17.478  11.169
81044W        W46304  35.868  40.969  14.006
81045W        W46305  11.128   8.186   0.793
81046W        W46306   0.984   0.485  11.156
81047W        W46307  36.387  42.973  14.947
81048W        W46308  22.766  40.445   3.670
81049W        W46309  23.024   5.116   1.635
81050W        W46310  12.514   4.453  13.056
81051W        W46311  31.600  36.639   0.960
81052W        W46312   9.776   5.044   0.023
81053W        W46313  23.673  19.665   0.366
81054W        W46314  10.271   3.988  11.952
81055W        W46315  22.053  21.663   2.345
81056W        W46316  11.342  31.481  11.082
81057W        W46317   7.249  33.120  11.600
81058W        W46318  18.833  33.953   0.898
81059W        W46319  33.209  27.717   4.520
81060W        W46320  33.552  40.300   3.868
81061W        W46321   2.239  43.558   2.342
81062W        W46322  17.534   5.224   3.705
81063W        W46323  16.314  32.869   4.097
81064W        W46324  32.952  35.567   1.783
81065W        W46325  44.070   5.911   4.705
81066W        W46326   3.998  17.193  11.616
81067W        W46327  37.256  10.710   2.273
81068W        W46328  11.196  31.952   0.981
81069W        W46329   0.550   8.296   2.178
81070W        W46330  26.017  27.227  14.328
81071W        W46331  44.257  31.767  11.186
81072W        W46332  13.267   2.529  11.562
81073W        W46333  39.155  43.826  11.504
81074W        W46334   7.184  30.152   2.576
81075W        W46335  35.038   5.290   2.402
81076W        W46336   0.912   5.964  14.796
81077W        W46337  19.328  17.466   1.940
81078W        W46338  41.017  24.641  12.037
81079W        W46339  30.360  11.204   3.346
81080W        W46340  32.327  30.659   4.772
81081W        W46341  26.519  14.372   0.870
81082W        W46342  31.227  36.750   0.366
81083W        W46343   2.788  40.206   1.632
81084W        W46344  15.007   0.667  11.047
81085W        W46345  26.625   6.227  13.867
81086W        W46346   7.368  25.568  10.486
81087W        W46347   2.044  38.143  14.337
81088W        W46348  38.924   0.084  12.005
81089W        W46349   1.769   6.795   1.822
81090W        W46350  34.843  44.978   2.181
81091W        W46351   4.264  34.855  10.647
81092W        W46352  28.503  28.120  13.382
81093W        W46353   7.365  27.553  14.865
81094W        W46354  12.749   6.730  14.843
81095W        W46355  39.382  38.034  11.851
81096W        W46356   0.800  27.370   3.973
81097W        W46357  27.212  44.336   1.915
81098W        W46358  30.411   0.679   0.329
81099W        W46359  32.832   8.816   2.758
81100W        W46360  18.439  35.894  12.297
81101W        W46361  33.181  29.384   0.700
81102W        W46362  12.361  36.070  12.418
81103W        W46363  15.738   9.149   0.779
81104W        W46364  27.963  37.726  12.548
81105W        W46365  41.270  40.781  11.991
81106W        W46366  37.808  16.980  14.346
81107W        W46367  22.606   3.886   5.241
81108W        W46368  26.725   5.423   1.220
81109W        W46369  41.431  12.882   3.395
81110W        W46370  13.975   1.817  10.825
81111W        W46371   9.570  32.632   2.725
81112W        W46372  12.534  36.301  13.252
81113W        W46373  42.025   7.450   4.211
81114W        W46374  41.313   1.496   4.726
81115W        W46375  20.688  33.613  12.853
81116W        W46376  43.502  33.081  13.940
81117W        W46377   4.832  39.311   3.114
81118W        W46378   8.993   9.343   0.829
81119W        W46379  27.913  30.695  13.969
81120W        W46380  34.360  24.958   2.720
81121W        W46381  10.346   3.764   2.765
81122W        W46382  33.711  14.943  11.070
81123W        W46383  18.110  30.488   1.134
81124W        W46384  42.479   3.921   4.744
81125W        W46385  44.331   2.980  10.839
81126W        W46386  20.377   9.897  10.923
81127W        W46387  25.103  37.463   1.031
81128W        W46388   7.309   7.962  10.605
81129W        W46389  43.332  23.718  13.849
81130W        W46390  40.134  13.366   4.562
81131W        W46391   2.062   8.386   4.225
81132W        W46392   7.283  14.866  14.366
81133W        W46393  23.348  12.146  14.245
81134W        W46394  29.636  24.465   4.039
81135W        W46395  25.143   3.183   1.304
81136W        W46396  30.391  32.394   3.797
81137W        W46397  23.540   2.426  12.513
81138W        W46398  44.505   7.245   2.751
81139W        W46399  15.009  12.897   1.861
81140W        W46400  35.059  17.998  12.489
81141W        W46401  15.250  37.529   4.250
81142W        W46402  26.971   3.877  13.986
81143W        W46403  38.224   4.859  12.461
81144W        W46404   5.025  29.486   2.506
81145W        W46405  38.769  23.016  11.853
81146W        W46406  26.947  31.038   0.677
81147W        W46407   4.277   3.977   4.632
81148W        W46408   4.841  18.500  11.359
81149W        W46409  39.966  34.476  13.295
81150W        W46410  35.877  40.975   2.257
81151W        W46411  24.968   3.716  11.714
81152W        W46412   9.987   2.113   0.489
81153W        W46413   4.131  34.128   0.838
81154W        W46414  23.928  19.372  12.511
81155W        W46415  10.680  33.790   0.010
81156W        W46416  43.141  10.246   3.971
81157W        W46417  30.398  29.567   1.420
81158W        W46418  35.568   9.991   3.574
81159W        W46419   6.809   5.643  13.373
81160W        W46420  20.655  12.724  13.545
81161W        W46421  27.447  23.545   2.195
81162W        W46422  39.972  44.757   1.384
81163W        W46423  16.104   4.696   2.270
81164W        W46424  43.302   8.274   0.005
81165W        W46425   7.795  11.048  14.953
81166W        W46426  37.911  35.256   2.734
81167W        W46427  35.896   6.299  14.085
81168W        W46428   1.382  26.850  11.687
81169W        W46429  19.672  31.347   2.476
81170W        W46430  37.351  33.398  12.152
81171W        W46431  39.592  18.504   2.941
81172W        W46432  31.970  32.475   1.747
81173W        W46433   6.295  26.518  11.397
81174W        W46434  14.170   7.491  13.163
81175W        W46435  44.212   8.770   0.718
81176W        W46436   3.149  26.279  12.164
81177W        W46437   3.024   7.213  11.211
81178W        W46438  24.054   7.935   4.586
81179W        W46439  36.916  26.003   1.687
81180W        W46440  43.152  25.945   4.188
81181W        W46441  26.276  27.106  11.109
81182W        W46442  19.148  22.002  13.756
81183W        W46443  35.875  43.836   2.326
81184W        W46444  18.229  10.689   3.128
81185W        W46445   7.304  34.704   4.541
81186W        W46446  35.542   0.922  11.395
81187W        W46447  34.881  42.577   1.765
81188W        W46448  38.589  28.009  14.499
81189W        W46449  18.650  34.731  14.411
81190W        W46450  14.684  20.259  11.936
81191W        W46451  24.461  38.817   3.285
81192W        W46452  11.779  39.794  13.836
81193W        W46453  39.490  32.614  10.935
81194W        W46454  44.725   3.313  14.088
81195W        W46455  19.855  33.405  13.035
81196W        W46456  14.297  35.299  11.233
81197W        W46457  29.361   6.392   0.987
81198W        W46458  34.890  37.348   0.843
81199W        W46459   5.763  10.753   1.469
81200W        W46460   2.957  18.604  10.451
81201W        W46461  24.545  10.626  13.018
81202W        W46462  43.053  14.695  11.509
81203W        W46463  38.420  32.463  13.920
81204W        W46464   2.225  42.624   0.551
81205W        W46465  20.559  15.317  11.490
81206W        W46466  40.578  35.912  13.424
81207W        W46467  42.224  12.048   9.918
81208W        W46468  28.577  42.739   4.037
81209W        W46469   6.436  44.299   4.649
81210W        W46470  34.381  31.933   2.227
81211W        W46471  29.130  14.940  12.705
81212W        W46472  15.556  27.389   4.517
81213W        W46473  33.886  42.619  13.934
81214W        W46474   1.188  16.184   4.904
81215W        W46475  38.048  16.260  12.085
81216W        W46476  43.136  27.910  14.388
81217W        W46477  17.826  32.843   4.171
81218W        W46478  11.720  14.391  14.303
81219W        W46479  18.546  22.049  11.238
81220W        W46480  12.605  14.930   4.246
81221W        W46481   8.457  25.968   2.331
81222W        W46482  21.964  16.523  10.489
81223W        W46483  10.389  38.322   1.909
81224W        W46484  13.437  31.646   2.539
81225W        W46485  33.488  14.339  14.054
81226W        W46486  35.831  22.742  12.441
81227W        W46487  24.240  41.460   1.835
81228W        W46488   6.585  42.817   2.340
81229W        W46489  40.334  40.563   0.440
81230W        W46490  10.758  31.323   3.291
81231W        W46491  43.642  44.718   4.687
81232W        W46492  35.340  27.935  14.993
81233W        W46493   3.491   2.733   3.807
81234W        W46494  41.469  17.343  13.405
81235W        W46495  25.270  39.986  13.057
81236W        W46496  22.511  21.116   2.663
81237W        W46497  23.988  14.470  14.910
81238W        W46498   0.879  31.718  11.446
81239W        W46499   0.329  18.256   2.323
81240W        W46500  41.573   9.620   3.319
81241W        W46501  27.633   8.397   4.361
81242W        W46502  36.440  33.980   2.249
81243W        W46503  11.826  25.588   0.825
81244W        W46504  42.852  33.230   3.744
81245W        W46505  39.893  32.988  14.836
81246W        W46506  15.499  27.329  11.533
81247W        W46507  43.335   2.946  14.254
81248W        W46508  38.923  38.103  11.065
81249W        W46509  38.688  28.471   5.036
81250W        W46510  20.588  10.147   1.675
81251W        W46511  26.656  30.293  10.930
81252W        W46512  30.528  34.188   1.705
81253W        W46513  15.132  24.974   3.389
81254W        W46514  33.436  43.208  12.953
81255W        W46515  14.196  39.263   3.827
81256W        W46516   0.638  10.610   3.144
81257W        W46517  32.425  17.333  10.841
81258W        W46518  40.444  34.613  13.467
81259W        W46519  10.983   4.857   5.461
81260W        W46520   3.730  14.863   2.220
81261W        W46521   4.311  33.169  13.452
81262W        W46522  17.039  26.944  14.209
81263W        W46523  12.245  33.626   4.414
81264W        W46524   9.790  28.677   0.034
81265W        W46525   7.143  26.145   9.793
81266W        W46526   6.363  20.796  11.132
81267W        W46527   4.705  14.214   2.368
81268W        W46528  39.356  42.557   3.797
81269W        W46529  38.510  40.818  14.968
81270W        W46530  33.916  14.119  13.838
81271W        W46531  28.095  43.484  14.809
81272W        W46532  19.105  13.192   2.660
81273W        W46533  17.395  11.565  10.134
81274W        W46534  38.299  25.642  14.525
81275W        W46535  29.667  28.562   4.454
81276W        W46536  21.364  21.609  11.118
81277W        W46537  36.303  13.710  11.971
81278W        W46538   1.299  20.121  13.748
81279W        W46539   3.645  38.697  12.940
81280W        W46540  10.526  37.572   0.839
81281W        W46541   1.193  44.032  13.139
81282W        W46542  33.558  12.073  11.623
81283W        W46543  20.573  38.571   3.768
81284W        W46544  38.447  12.803  11.024
81285W        W46545   1.792  38.744   3.935
81286W        W46546   3.121  40.009   1.990
81287W        W46547  30.403   1.839   1.718
81288W        W46548  15.794  32.312   1.339
81289W        W46549   2.307  27.082  13.980
81290W        W46550  21.360  33.183   1.358
81291W        W46551  19.904  35.346   4.139
81292W        W46552  31.070  37.643   5.135
81293W        W46553  31.500   6.265  14.183
81294W        W46554   2.134  35.105   5.124
81295W        W46555  36.167  37.809  11.062
81296W        W46556  40.564   8.851   4.619
81297W        W46557  22.653  13.874  10.820
81298W        W46558  26.459  21.624   2.650
81299W        W46559   9.438   6.699   4.451
81300W        W46560  16.688  27.064   4.580
81301W        W46561  35.088  21.727  14.418
81302W        W46562  13.332   2.402   2.329
81303W        W46563  30.561  12.692   2.429
81304W        W46564  42.026  25.451  12.835
81305W        W46565   5.231  36.834  12.408
81306W        W46566  13.063  27.599  14.440
81307W        W46567  31.563   1.284  11.217
81308W        W46568  43.953  29.893  11.562
81309W        W46569  39.464  34.510  14.614
81310W        W46570   8.750  17.201   0.926
81311W        W46571  21.527  26.166  11.516
81312W        W46572  36.368  40.199   1.751
81313W        W46573  29.697   9.493   3.487
81314W        W46574  40.760   2.799   2.136
81315W        W46575  13.250  22.166   3.324
81316W        W46576  27.287  36.572   2.322
81317W        W46577  10.183  22.776   0.790
81318W        W46578  30.404  10.398   3.330
81319W        W46579  26.184  42.403  10.702
81320W        W46580   4.709   8.207   1.917
81321W        W46581  39.831  37.007  14.493
81322W        W46582  35.998  18.248  11.589
81323W        W46583  32.974   9.727   3.998
81324W        W46584  10.654  17.806   1.244
81325W        W46585  14.519   1.893   1.657
81326W        W46586   5.831  27.590  10.735
81327W        W46587  23.566  11.569   3.650
81328W        W46588  11.898  24.571   0.765
81329W        W46589  19.891  37.292   3.103
81330W        W46590  14.489  20.975  10.560
81331W        W46591  14.293   6.659   9.918
81332W        W46592  41.186  23.414  12.568
81333W        W46593  17.187   4.127   2.574
81334W        W46594  27.571  12.402   0.824
81335W        W46595   4.715  41.779   1.875
81336W        W46596   2.482  28.245  10.104
81337W        W46597  30.062   2.257  11.601
81338W        W46598   8.588  10.823   2.814
81339W        W46599   5.423   1.639  11.135
81340W        W46600   8.387  39.506   4.463
81341W        W46601  28.139  33.545   4.476
81342W        W46602  38.034  33.913   4.161
81343W        W46603  31.226  42.223   1.551
81344W        W46604   7.070   6.566  14.987
81345W        W46605  43.065  18.143  10.693
81346W        W46606  24.253  26.085   1.624
81347W        W46607  10.784  34.949  10.333
81348W        W46608  16.301  40.005  12.424
81349W        W46609  14.075  36.204  12.706
81350W        W46610   6.072  13.926  11.055
81351W        W46611  35.492   0.978   1.782
81352W        W46612  28.920   8.320   3.630
81353W        W46613  36.082  13.145  14.377
81354W        W46614  27.161  20.484   0.249
81355W        W46615  30.045  19.566   2.590
81356W        W46616  12.910   1.222   0.932
81357W        W46617  23.157  13.920  13.863
81358W        W46618   1.337   4.811   1.905
81359W        W46619  37.052   9.651  11.709
81360W        W46620  38.638  22.026   1.250
81361W        W46621  30.720  29.073  13.454
81362W        W46622  34.199  14.690   0.518
81363W        W46623  38.545   7.785   1.097
81364W        W46624   8.720   7.594   0.240
81365W        W46625  35.360  27.526  11.907
81366W        W46626  32.895  30.610   4.809
81367W        W46627  19.725  25.003  11.671
81368W        W46628  13.554  22.527   2.830
81369W        W46629  10.655  39.460  11.646
81370W        W46630  41.260  17.787  10.954
81371W        W46631  44.123  40.944  14.055
81372W        W46632  34.029  13.703   0.181
81373W        W46633  35.805  13.621   3.164
81374W        W46634  25.089  39.327  12.455
81375W        W46635  28.228  21.288  13.724
81376W        W46636   2.640  34.075  14.580
81377W        W46637   3.900  28.149  14.887
81378W        W46638  27.605  20.856  14.977
81379W        W46639  26.954  14.702  11.068
81380W        W46640   8.852  11.355  10.142
81381W        W46641   6.803  18.088  14.301
81382W        W46642   0.333   2.151   4.714
81383W        W46643  28.029  41.053   1.849
81384W        W46644  29.217  17.263  14.794
81385W        W46645   9.827  29.635   0.497
81386W        W46646  33.547  20.161  11.693
81387W        W46647  14.823  42.355  12.895
81388W        W46648  38.654  42.722  12.807
81389W        W46649  44.120  34.827  10.970
81390W        W46650  39.925  43.288  13.426
81391W        W46651  30.159  29.522   0.289
81392W        W46652   2.483  28.978   3.468
81393W        W46653  41.278  41.261   3.944
81394W        W46654   9.345  28.856   2.178
81395W        W46655  18.209  39.013   1.675
81396W        W46656  36.614  13.606   0.348
81397W        W46657  17.606   8.030   2.286
81398W        W46658  41.435  44.891   2.359
81399W        W46659  31.541  22.275  12.554
81400W        W46660   7.101   8.606  11.976
81401W        W46661  44.928  17.258  14.011
81402W        W46662  37.510  44.805  13.416
81403W        W46663   1.428  39.695   0.414
81404W        W46664  35.530  40.790  11.897
81405W        W46665  21.523   9.733   0.406
81406W        W46666  28.254  24.745   2.326
81407W        W46667  13.424  17.146  14.470
81408W        W46668  16.548  12.668   0.512
81409W        W46669   8.389  25.584  12.592
81410W        W46670   9.902  14.168   0.444
81411W        W46671   4.499  28.507   3.748
81412W        W46672   3.409  29.012   2.319
81413W        W46673  30.733  17.640   4.140
81414W        W46674  30.963  37.983   3.092
81415W        W46675  40.461  44.582   2.553
81416W        W46676  13.381  23.061  13.535
81417W        W46677  34.024  29.092  14.920
81418W        W46678  22.808  15.352   5.296
81419W        W46679  43.808  15.192   2.131
81420W        W46680  36.513  21.189  12.647
81421W        W46681  17.466  21.324  14.057
81422W        W46682  21.096  26.442  11.167
81423W        W46683  23.632   8.719  12.664
81424W        W46684   7.119  39.360   3.237
81425W        W46685  14.519  18.898  12.425
81426W        W46686  35.925  38.999   0.347
81427W        W46687  23.201  21.143  13.209
81428W        W46688  32.688  35.895  11.224
81429W        W46689  43.015  37.353  11.543
81430W        W46690  11.505  22.713   1.737
81431W        W46691  14.152  43.199   4.132
81432W        W46692  16.637  11.021   0.225
81433W        W46693   8.694  28.452  11.134
81434W        W46694  43.236  41.552   1.168
81435W        W46695   1.352  29.701  12.660
81436W        W46696  20.593  43.027   1.258
81437W        W46697  28.498  41.996  11.577
81438W        W46698  34.292  13.300   0.365
81439W        W46699  12.152  28.009  13.523
81440W        W46700   9.371   2.682  14.784
81441W        W46701   0.469  32.873  14.471
81442W        W46702  28.066   7.300   3.165
81443W        W46703  30.822  12.210  14.384
81444W        W46704   1.337  37.510   3.862
81445W        W46705   6.349  11.742   2.530
81446W        W46706  38.846  44.834  11.540
81447W        W46707  14.031  27.324  10.636
81448W        W46708  16.623   2.959   4.050
81449W        W46709  21.548  24.954   2.248
81450W        W46710  11.132   1.752  14.743
81451W        W46711  13.756  17.688   4.812
81452W        W46712  33.583  44.913  13.676
81453W        W46713   3.330  37.459   0.306
81454W        W46714  29.351   4.464   3.341
81455W        W46715  21.760  32.206  10.583
81456W        W46716  13.114  43.721  12.546
81457W        W46717  35.371   2.765  12.541
81458W        W46718  20.964  15.556   0.065
81459W        W46719  10.344   2.229   3.728
81460W        W46720  13.282   0.010   2.527
81461W        W46721  34.801  14.121   5.124
81462W        W46722  35.917  24.558  11.071
81463W        W46723  33.086  12.550  14.402
81464W        W46724  19.700   7.875  13.769
81465W        W46725  44.188  24.457   3.164
81466W        W46726  13.302   5.633   0.910
81467W        W46727  42.826  36.055  11.374
81468W        W46728  27.697  41.907   1.397
81469W        W46729   1.039   8.397  13.073
81470W        W46730  41.118  31.922   1.936
81471W        W46731   7.706  43.187   3.323
81472W        W46732  39.945  30.215   2.591
81473W        W46733  28.839   7.082  11.143
81474W        W46734  25.880  17.692   0.723
81475W        W46735  21.219  42.400  12.827
81476W        W46736  28.921   3.327  13.048
81477W        W46737  27.483   8.274   0.509
81478W        W46738   3.560   9.225  11.222
81479W        W46739  43.775   3.835  10.705
81480W        W46740   8.759   7.955   2.798
81481W        W46741  38.104  23.612  10.928
81482W        W46742  24.650  17.014  14.878
81483W        W46743   8.228  15.168  13.012
81484W        W46744  19.872   6.691  13.440
81485W        W46745  32.524  16.601  12.491
81486W        W46746  31.669   7.395  13.415
81487W        W46747  31.423  42.407  10.423
81488W        W46748  35.310  27.906  12.918
81489W        W46749   5.715  27.744   3.560
81490W        W46750  35.729  15.170  14.079
81491W        W46751  40.293   9.375   1.909
81492W        W46752  37.919  38.463   2.648
81493W        W46753  26.993  42.081  11.142
81494W        W46754   8.642  36.822   1.319
81495W        W46755   5.946   1.776  13.281
81496W        W46756  10.158  13.333   2.197
81497W        W46757  36.672  27.931   1.015
81498W        W46758   6.710  38.012   0.718
81499W        W46759   4.600  17.823   1.801
81500W        W46760  38.077  17.292  13.982
81501W        W46761   0.389   5.831   3.789
81502W        W46762   2.215  18.681  14.358
81503W        W46763  13.418  26.271   1.981
81504W        W46764  40.278   8.740  11.179
81505W        W46765  41.890  24.426  12.920
81506W        W46766   6.843  39.882   1.446
81507W        W46767  44.826   4.724   3.832
81508W        W46768  34.534  28.844   2.248
81509W        W46769  37.506  38.334   2.972
81510W        W46770  19.783  44.724   4.175
81511W        W46771  13.316   0.202  13.254
81512W        W46772  43.464  16.246  14.460
81513W        W46773  28.952   1.219   1.205
81514W        W46774  20.046   4.218  14.463
81515W        W46775  29.165  41.850   2.406
81516W        W46776   7.280  30.449   1.159
81517W        W46777   6.401  24.951   3.331
81518W        W46778  11.435  16.780   2.133
81519W        W46779  16.798  42.919  14.022
81520W        W46780  40.330  18.758  12.056
81521W        W46781  32.428  21.594  10.669
81522W        W46782  14.260   8.700  11.575
81523W        W46783  18.783  28.114   1.189
81524W        W46784  37.474  31.895  11.945
81525W        W46785  16.049   4.644   1.356
81526W        W46786  20.172  24.648   0.424
81527W        W46787  32.962  14.141  10.515
81528W        W46788  42.827  27.863  14.827
81529W        W46789  44.336  41.748  11.000
81530W        W46790  26.955   1.250  13.333
81531W        W46791   4.771  44.378   2.335
81532W        W46792  26.567  24.149  14.402
81533W        W46793  15.192   8.547   2.305
81534W        W46794   9.309  34.954   3.682
81535W        W46795  15.236  18.137  12.595
81536W        W46796  30.459  17.375  11.496
81537W        W46797  39.990  30.905  11.445
81538W        W46798  32.919  27.892  10.247
81539W        W46799   6.247  39.549   4.696
81540W        W46800   9.809   2.489  13.423
81541W        W46801  17.833   3.616  12.192
81542W        W46802  10.136  13.380   3.865
81543W        W46803  42.280   9.321   2.195
81544W        W46804  42.371  34.348  13.022
81545W        W46805  37.420  23.119  12.109
81546W        W46806  18.843  26.015  11.499
81547W        W46807  35.334   8.888   4.900
81548W        W46808  20.853   4.684   5.452
81549W        W46809  11.765  20.385  11.084
81550W        W46810  31.554   7.810  12.846
81551W        W46811  27.702  31.948  14.761
81552W        W46812  19.036  24.739   0.388
81553W        W46813   5.687   3.323  11.349
81554W        W46814  26.190  26.346  10.026
81555W        W46815  27.551   0.522   3.858
81556W        W46816  11.868   8.549   5.597
81557W        W46817  34.652   3.743   0.846
81558W        W46818  17.282  43.375   2.158
81559W        W46819  13.682  13.926   1.710
81560W        W46820  27.668  10.595   2.811
81561W        W46821   2.492  39.622   3.254
81562W        W46822  26.151   5.821   9.854
81563W        W46823   8.971  37.937  13.623
81564W        W46824  22.022  15.149  11.662
81565W        W46825  23.173   2.276  12.901
81566W        W46826  12.707  37.998   3.608
81567W        W46827  36.566  12.288   1.412
81568W        W46828  18.032   3.105  13.456
81569W        W46829  23.535   3.334   2.854
81570W        W46830  23.440  39.555   2.826
81571W        W46831  23.803  26.870  14.846
81572W        W46832   7.833  35.280  14.501
81573W        W46833  16.057   6.599  10.956
81574W        W46834  25.469  33.810   4.150
81575W        W46835   8.698   8.323  11.226
81576W        W46836  26.711  14.129  14.592
81577W        W46837  38.459  26.446  11.641
81578W        W46838  34.550  16.024   2.922
81579W        W46839  36.046  41.909  14.333
81580W        W46840  22.884  36.909   0.871
81581W        W46841  20.109  42.706   3.680
81582W        W46842   6.643  30.162   0.870
81583W        W46843  34.056  29.824  14.321
81584W        W46844  18.733  14.647  14.895
81585W        W46845  15.384  35.439  14.858
81586W        W46846   9.153  31.924  13.535
81587W        W46847  21.141  38.911  10.434
81588W        W46848   7.308  20.457   4.554
81589W        W46849  21.573  44.943  11.548
81590W        W46850  37.866   0.016  10.838
81591W        W46851   9.231   8.121  10.587
81592W        W46852  29.983   3.050   3.237
81593W        W46853  23.846  44.402   4.890
81594W        W46854  38.459  12.572  11.501
81595W        W46855  39.298  33.843   0.312
81596W        W46856  41.443  31.466   1.680
81597W        W46857  41.021  32.937   3.388
81598W        W46858   1.966  44.496   3.172
81599W        W46859  34.117  22.135  13.387
81600W        W46860  28.353  24.230  11.708
81601W        W46861   2.842  26.934  12.488
81602W        W46862  40.327  31.480   2.444
81603W        W46863  12.719  43.834  11.866
81604W        W46864  33.745  27.385   3.781
81605W        W46865  29.332  44.812   2.752
81606W        W46866  21.825  31.760  12.353
81607W        W46867  19.937  20.703   0.902
81608W        W46868  20.270  16.329  14.946
81609W        W46869  12.193  43.894  13.038
81610W        W46870  23.887  23.219  11.101
81611W        W46871   2.943   0.802   0.357
81612W        W46872   5.050  11.750   0.416
81613W        W46873   8.810   9.583   1.763
81614W        W46874   5.168   5.719  10.987
81615W        W46875  37.042   8.432  11.174
81616W        W46876   1.990  13.412  11.018
81617W        W46877  13.500  27.436   3.138
81618W        W46878  12.651  42.488   1.450
81619W        W46879  12.194  14.913  11.156
81620W        W46880  34.525  12.852   4.639
81621W        W46881  17.272  38.315   2.935
81622W        W46882  11.369  22.670   0.044
81623W        W46883   2.912  25.504  14.738
81624W        W46884  34.967  43.272   4.549
81625W        W46885  32.881  22.442   5.047
81626W        W46886  14.053  37.506   1.211
81627W        W46887  31.679  20.250   4.040
81628W        W46888   0.295  10.549   3.738
81629W        W46889  43.243  30.448   4.219
81630W        W46890  10.703  13.749  12.095
81631W        W46891  33.576   7.209  11.246
81632W        W46892  11.688  37.387   3.385
81633W        W46893  37.781  33.328   1.792
81634W        W46894  38.301  42.857  12.030
81635W        W46895  14.365  17.022   5.052
81636W        W46896  24.846  26.511   2.446
81637W        W46897   7.653  12.207   1.415
81638W        W46898  22.607  10.283   4.586
81639W        W46899   7.460  25.055   3.257
81640W        W46900   5.313   0.823   3.093
81641W        W46901  13.311  23.096  14.545
81642W        W46902   8.217  42.534  11.101
81643W        W46903   6.940  32.626  13.462
81644W        W46904  26.406  43.987  13.082
81645W        W46905  19.745  35.902   0.750
81646W        W46906  42.875  30.844   3.269
81647W        W46907  13.887  37.604   2.927
81648W        W46908  34.435  33.461  11.912
81649W        W46909  33.111  28.430   2.269
81650W        W46910  24.393   3.222   4.500
81651W        W46911  33.699   9.416   2.110
81652W        W46912  38.614  29.612   3.826
81653W        W46913  14.569   8.812   4.539
81654W        W46914  18.743   8.674   2.619
81655W        W46915   5.119  44.772   1.380
81656W        W46916  22.233  39.034   4.942
81657W        W46917  19.848   5.211   1.666
81658W        W46918  33.740   9.693   4.462
81659W        W46919  13.087   4.897  14.853
81660W        W46920   0.061  15.198  11.599
81661W        W46921  20.152  34.315  11.227
81662W        W46922  35.056  29.230  13.156
81663W        W46923   2.063  35.171  12.947
81664W        W46924  13.820  11.754   3.970
81665W        W46925  38.357  35.046   2.892
81666W        W46926   0.912  26.033  12.630
81667W        W46927  31.721  23.313  12.472
81668W        W46928  29.076   6.255  14.473
81669W        W46929  28.655  20.281  13.022
81670W        W46930  10.305  14.837  14.953
81671W        W46931   9.906  26.618   0.873
81672W        W46932  27.795  28.666   2.381
81673W        W46933  33.565   4.545   1.250
81674W        W46934   6.321   2.949   4.553
81675W        W46935  21.992  31.920  12.885
81676W        W46936  18.526  35.605   3.587
81677W        W46937  23.472   9.808  13.847
81678W        W46938  20.185  21.966  14.514
81679W        W46939  31.348  20.724   1.403
81680W        W46940  32.406  22.261   4.116
81681W        W46941  15.635  37.446   2.907
81682W        W46942  10.847  41.220   0.969
81683W        W46943  14.701  20.965   0.215
81684W        W46944  19.985   3.920   2.716
81685W        W46945   8.533  21.582  12.004
81686W        W46946  20.342  38.377   1.406
81687W        W46947  12.316  30.335  11.028
81688W        W46948  33.414  22.689  14.393
81689W        W46949   7.501  33.848   4.235
81690W        W46950  32.964  16.194  11.352
81691W        W46951  23.420  35.517   1.885
81692W        W46952   4.690  40.439  14.677
81693W        W46953  33.429  30.265  10.549
81694W        W46954   1.791  24.979  12.973
81695W        W46955   8.821  44.265  12.149
81696W        W46956  18.085  23.335   3.753
81697W        W46957  29.161  33.584   3.904
81698W        W46958  16.143  33.584   1.476
81699W        W46959   2.776   8.722   0.488
81700W        W46960   2.916  36.831   3.970
81701W        W46961  23.056  24.659  11.213
81702W        W46962  19.621  18.662  10.686
81703W        W46963   6.649  12.844   1.826
81704W        W46964  34.016  16.889  13.437
81705W        W46965   7.725  39.457   1.950
81706W        W46966  15.160  17.701  14.351
81707W        W46967   4.841  19.321   3.858
81708W        W46968   5.347  39.336   3.806
81709W        W46969  17.312  34.508   2.488
81710W        W46970  33.433  28.351  14.376
81711W        W46971  10.669   5.176   0.325
81712W        W46972  10.702   9.339  10.799
81713W        W46973  44.712  15.545  14.107
81714W        W46974  10.557   5.965   1.829
81715W        W46975  44.803  29.455   1.353
81716W        W46976   2.908  30.451  11.911
81717W        W46977  20.437  11.584   1.068
81718W        W46978  41.314  18.504  13.849
81719W        W46979  24.251  39.810   2.802
81720W        W46980  11.178  31.286   3.672
81721W        W46981  43.108  29.132   0.993
81722W        W46982   9.849  17.052  10.819
81723W        W46983  31.622  30.937   1.285
81724W        W46984  38.863  35.022  14.939
81725W        W46985   9.569  35.944   2.777
81726W        W46986  19.623   4.177   1.704
81727W        W46987  25.173   3.325   2.201
81728W        W46988  13.605  38.381   1.429
81729W        W46989   0.842  40.059   4.100
81730W        W46990  19.069  29.660   2.070
81731W        W46991   4.919  39.803   3.296
81732W        W46992  23.697  26.548  11.908
81733W        W46993   8.606   6.464   4.050
81734W        W46994  26.553   4.278  14.042
81735W        W46995  10.753  31.854   3.253
81736W        W46996  10.829   9.719   0.778
81737W        W46997  22.223   0.439   3.264
81738W        W46998  31.404  27.042  13.631
81739W        W46999  22.788  33.411  13.554
81740W        W47000  28.448  14.592   4.337
81741W        W47001  20.696  21.360   2.690
81742W        W47002  19.148  33.932  10.729
81743W        W47003  11.624  35.369  12.575
81744W        W47004   6.941  19.699   1.947
81745W        W47005  35.682   1.125  13.397
81746W        W47006  37.958   9.656  13.608
81747W        W47007  41.963  32.408  14.896
81748W        W47008  17.733   8.772  11.810
81749W        W47009  11.884  30.107   3.782
81750W        W47010   1.849   4.934   3.667
81751W        W47011  39.814  36.402   4.498
81752W        W47012  34.923  42.279   3.830
81753W        W47013  22.667  16.042   1.235
81754W        W47014  35.936  41.746   0.307
81755W        W47015  17.268  31.637   1.195
81756W        W47016   7.253  38.720  11.644
81757W        W47017  25.266  43.354  13.432
81758W        W47018  35.043  27.908  13.377
81759W        W47019   2.581  33.972   2.309
81760W        W47020   6.024  10.933  13.061
81761W        W47021   8.361   9.152   3.325
81762W        W47022  17.922   9.006   2.813
81763W        W47023  33.104  26.584   2.287
81764W        W47024  43.538  22.822  10.606
81765W        W47025   6.902  29.501   0.602
81766W        W47026  21.605   1.004  14.983
81767W        W47027  28.588  12.687  13.200
81768W        W47028  35.281  35.912  11.562
81769W        W47029  22.049  15.437  12.379
81770W        W47030  18.366  37.445   3.731
81771W        W47031  42.078  36.056  12.119
81772W        W47032  40.394  38.594   0.284
81773W        W47033  32.613  42.382   4.896
81774W        W47034  23.682   7.928  11.107
81775W        W47035  33.990  12.156  14.805
81776W        W47036  17.117  17.055  12.500
81777W        W47037  35.654  42.330   0.889
81778W        W47038  38.991  27.384  13.180
81779W        W47039  17.615   6.472  10.973
81780W        W47040  32.885  24.019  12.465
81781W        W47041  20.601  39.821  11.154
81782W        W47042  32.273  24.416  13.946
81783W        W47043   1.772  15.993   9.920
81784W        W47044  25.626  16.094   0.275
81785W        W47045  23.093  14.220   0.329
81786W        W47046  35.367  10.207   2.179
81787W        W47047  17.491   5.367  14.758
81788W        W47048  28.431  28.455  14.961
81789W        W47049  16.778  39.535   2.644
81790W        W47050  20.724  16.612  10.813
81791W        W47051   9.382  35.850  11.243
81792W        W47052  38.079   6.418   0.968
81793W        W47053  34.413  42.837   1.828
81794W        W47054  10.162  33.617   4.135
81795W        W47055   0.981  41.242  13.193
81796W        W47056   0.996  37.533  13.983
81797W        W47057   7.267  37.497   3.417
81798W        W47058  12.804  42.573   3.931
81799W        W47059  33.736  13.344   0.421
81800W        W47060  25.874  22.425  11.970
81801W        W47061  38.151   7.013   0.217
81802W        W47062  42.855  40.965  11.125
81803W        W47063   1.184  24.591   4.146
81804W        W47064   6.154  12.526  12.320
81805W        W47065   0.037  18.117   2.766
81806W        W47066  10.594  15.246   2.432
81807W        W47067  19.033  15.852   4.126
81808W        W47068  16.574  26.871   0.335
81809W        W47069  43.212  39.786   1.635
81810W        W47070   6.223  11.659  10.685
81811W        W47071  27.537  10.657  10.477
81812W        W47072  11.436  31.025   0.104
81813W        W47073   5.619  33.413   0.942
81814W        W47074   8.783  16.354   2.183
81815W        W47075   7.361  41.299  10.777
81816W        W47076  43.211   6.352  10.667
81817W        W47077  43.931  39.818  12.124
81818W        W47078  38.041  28.294   2.729
81819W        W47079   6.956  31.618   3.144
81820W        W47080  28.976  39.487   1.796
81821W        W47081   0.847   0.829   5.049
81822W        W47082  14.561  31.793   4.200
81823W        W47083  15.293   6.674   2.663
81824W        W47084   0.967   1.035  13.304
81825W        W47085  33.026   5.218  11.863
81826W        W47086  32.720  28.024   2.177
81827W        W47087  33.826  13.169  12.348
81828W        W47088   5.634  29.215  13.826
81829W        W47089  42.202  32.211  14.478
81830W        W47090  13.281   3.940   2.339
81831W        W47091  30.680  25.746   1.420
81832W        W47092  34.671   6.594  13.167
81833W        W47093  19.673  44.317   4.490
81834W        W47094  13.536  39.745  13.100
81835W        W47095  18.606   5.298   4.419
81836W        W47096   3.800  33.075  13.593
81837W        W47097  21.046  27.109   2.204
81838W        W47098  35.435  25.995   3.642
81839W        W47099   0.903  30.516  12.042
81840W        W47100  32.881  23.342  14.769
81841W        W47101  22.126  38.828  13.459
81842W        W47102  28.413  17.849  12.466
81843W        W47103  33.180  18.171   2.217
81844W        W47104  23.015  17.707   3.779
81845W        W47105   6.491  41.397  13.420
81846W        W47106  33.647  22.772  11.621
81847W        W47107  41.861  40.126  10.482
81848W        W47108  15.601  32.796   1.438
81849W        W47109  41.323  32.606   2.193
81850W        W47110  17.250  31.298   0.313
81851W        W47111  41.435  25.472  12.222
81852W        W47112  17.698  36.820  14.046
81853W        W47113  23.562   7.683  14.532
81854W        W47114   4.079   7.377   5.166
81855W        W47115  36.873   0.678   4.037
81856W        W47116   3.080  12.410  14.308
81857W        W47117   4.808  13.890  10.775
81858W        W47118  34.909  15.389  12.410
81859W        W47119  38.090  39.442  12.944
81860W        W47120  17.255  38.768   2.026
81861W        W47121  41.658  10.078   1.157
81862W        W47122  24.166   6.840  14.075
81863W        W47123  39.037  26.596  11.590
81864W        W47124  19.015   1.370  13.490
81865W        W47125   6.268   3.229   4.974
81866W        W47126  19.197  27.616   0.551
81867W        W47127   7.408  35.938   1.776
81868W        W47128   5.659  15.295  13.324
81869W        W47129  30.968  16.153  12.588
81870W        W47130  28.086   6.662  13.868
81871W        W47131  28.960  29.433   1.729
81872W        W47132   7.846  20.197   4.615
81873W        W47133  34.257  37.506  14.003
81874W        W47134  24.303  30.638   5.035
81875W        W47135  30.866  20.791  13.877
81876W        W47136  44.362  31.252   1.140
81877W        W47137   7.456  22.009   1.778
81878W        W47138  32.347  17.654   0.866
81879W        W47139  36.304  36.051  11.149
81880W        W47140  26.773  14.824   2.279
81881W        W47141  29.936  40.964   4.578
81882W        W47142  37.056  16.346   0.877
81883W        W47143  39.779  11.438   0.172
81884W        W47144   5.035  30.100   3.457
81885W        W47145  43.944  24.581   3.671
81886W        W47146  29.819  35.194  11.634
81887W        W47147  31.384  41.862   1.151
81888W        W47148  10.296  32.133   2.122
81889W        W47149  13.143  13.762   0.803
81890W        W47150  24.848  18.892   1.806
81891W        W47151  23.161  19.468   0.231
81892W        W47152   1.662   3.776  12.514
81893W        W47153  38.312  18.017  10.587
81894W        W47154  24.080  42.438   1.428
81895W        W47155   9.323   0.817   0.303
81896W        W47156  12.972   3.372   0.170
81897W        W47157  37.077  32.121  12.228
81898W        W47158  27.945  18.714   0.285
81899W        W47159  33.634  42.902   0.852
81900W        W47160  19.492   3.898   1.057
81901W        W47161  31.154   4.845   3.646
81902W        W47162  38.859  44.628  13.856
81903W        W47163   2.018  21.727  14.348
81904W        W47164  11.325  25.247   4.151
81905W        W47165  32.922  17.342   4.921
81906W        W47166  30.851  34.919  12.610
81907W        W47167  26.692   0.425  12.156
81908W        W47168  29.344  11.203   0.659
81909W        W47169  25.525  14.820  14.827
81910W        W47170  36.962  15.197  10.724
81911W        W47171  17.749   2.706   3.045
81912W        W47172  27.211  17.168  11.843
81913W        W47173   3.139  20.462   5.026
81914W        W47174  16.641  34.942  11.386
81915W        W47175  14.687   3.764  13.845
81916W        W47176  12.759   0.735  11.856
81917W        W47177   2.206  41.173  12.896
81918W        W47178   5.163   6.843   3.273
81919W        W47179  21.777  39.763  14.937
81920W        W47180   2.359  13.566  12.623
81921W        W47181  24.334  13.850   3.735
81922W        W47182  26.019   0.852  12.050
81923W        W47183  13.896  44.758  11.947
81924W        W47184  28.220  14.687  10.442
81925W        W47185  21.142  21.081   3.266
81926W        W47186  25.419  33.423  11.622
81927W        W47187  19.550  14.314   0.446
81928W        W47188  22.587   1.766   3.275
81929W        W47189  31.691  18.102   1.927
81930W        W47190  35.099  40.532   1.893
81931W        W47191  27.694  38.269   4.163
81932W        W47192   2.236   1.952  14.474
81933W        W47193   4.044  17.278   4.101
81934W        W47194  11.127  13.272   3.640
81935W        W47195  15.561  36.598   2.952
81936W        W47196   8.604  24.221   4.570
81937W        W47197  19.328  18.362   1.394
81938W        W47198  42.007  40.207  11.625
81939W        W47199  32.785   0.301   0.158
81940W        W47200  44.242  10.098  10.267
81941W        W47201   6.925  40.182   1.018
81942W        W47202  37.367  29.775   3.406
81943W        W47203  16.110  11.830   1.842
81944W        W47204  25.157  13.582  11.699
81945W        W47205  38.400  20.614  12.634
81946W        W47206  10.897  14.844   1.578
81947W        W47207  43.186  16.502  11.459
81948W        W47208  39.442  18.259  12.081
81949W        W47209  16.582  14.584   0.416
81950W        W47210   8.745   6.228  11.197
81951W        W47211  10.623  38.426   1.170
81952W        W47212   1.898   3.270  12.563
81953W        W47213  14.170  24.045   1.345
81954W        W47214  15.389  29.510   0.047
81955W        W47215  44.284   4.252   4.372
81956W        W47216  30.516   3.264   0.293
81957W        W47217  23.433  26.138   0.487
81958W        W47218  15.721  26.678  14.863
81959W        W47219  24.334  16.919   3.294
81960W        W47220  40.020  25.919   0.720
81961W        W47221  33.311  40.175  14.246
81962W        W47222  13.219  12.671   3.260
81963W        W47223  44.900  41.545  14.236
81964W        W47224  19.015  10.611  11.899
81965W        W47225  38.597  14.361  13.841
81966W        W47226  13.200  27.070  11.147
81967W        W47227  38.600   3.117   2.760
81968W        W47228  24.617  14.726  13.385
81969W        W47229   4.967  38.914   1.693
81970W        W47230   7.341  19.730  12.922
81971W        W47231  12.888  17.660   3.372
81972W        W47232  30.076  16.022  12.474
81973W        W47233  37.222  43.863  14.913
81974W        W47234  28.184   9.291   4.640
81975W        W47235  28.787   9.117  11.634
81976W        W47236  43.209  18.593   4.357
81977W        W47237  32.166  34.794   5.073
81978W        W47238  19.343  20.837  11.115
81979W        W47239   4.442   7.263  14.290
81980W        W47240  13.153  40.005  12.895
81981W        W47241  41.704   4.279   1.277
81982W        W47242  32.023   4.035  11.447
81983W        W47243   7.363  14.412  12.491
81984W        W47244   3.426   7.178   2.315
81985W        W47245  28.890  32.536  11.138
81986W        W47246   5.584  36.025  12.844
81987W        W47247   7.276  18.763   0.802
81988W        W47248  30.100  42.479  12.979
81989W        W47249  14.381  17.277   1.988
81990W        W47250  19.486   8.989  13.372
81991W        W47251  42.334  16.533  14.226
81992W        W47252  23.072  20.744  14.985
81993W        W47253   8.956  21.221   1.736
81994W        W47254  32.903  44.453   1.302
81995W        W47255  21.294  23.986   0.061
81996W        W47256  41.012  24.675  10.713
81997W        W47257  38.994  24.660  11.774
81998W        W47258   3.571  17.199   0.336
81999W        W47259  30.798  37.795   2.615
82000W        W47260  32.148   8.778  14.422
82001W        W47261  35.058   1.866  12.986
82002W        W47262   0.753  27.634   1.746
82003W        W47263  32.495  31.300   2.879
82004W        W47264  21.118  13.750   3.600
82005W        W47265   5.654  21.242   4.119
82006W        W47266   4.603  15.244   1.692
82007W        W47267   5.073   1.513   1.745
82008W        W47268   5.727  34.979  11.523
82009W        W47269  24.220  43.949   3.210
82010W        W47270  14.711   2.796  10.817
82011W        W47271  43.766  14.825   0.893
82012W        W47272  27.535  10.592  13.395
82013W        W47273  32.003  10.263  12.178
82014W        W47274   7.195  25.496   3.296
82015W        W47275  14.687   3.935  11.435
82016W        W47276   0.466   4.869   2.132
82017W        W47277  29.482   7.422  12.546
82018W        W47278  14.823   8.272  11.146
82019W        W47279  21.134   2.993   3.241
82020W        W47280  23.401  15.540   2.844
82021W        W47281  37.870  22.121  13.774
82022W        W47282  28.677  26.116  12.569
82023W        W47283  41.290  20.235   4.101
82024W        W47284  44.033  44.383   0.941
82025W        W47285  35.827  29.532  13.945
82026W        W47286  11.825  41.038   2.399
82027W        W47287  15.408   2.460  10.924
82028W        W47288  40.091  19.752   3.225
82029W        W47289  42.043  28.553  13.984
82030W        W47290  22.711   9.585   2.371
82031W        W47291  19.125  42.938  11.037
82032W        W47292  27.483  25.187  11.174
82033W        W47293  34.970  35.494  12.631
82034W        W47294  15.763   1.742  11.630
82035W        W47295  19.602  25.793  13.023
82036W        W47296  36.386   3.457  13.112
82037W        W47297  10.057  25.580   4.076
82038W        W47298  17.746  27.716   4.805
82039W        W47299  41.294  42.359  12.872
82040W        W47300  14.383  35.810  13.587
82041W        W47301  22.617  36.154  14.909
82042W        W47302   8.308  43.692   1.022
82043W        W47303  21.511  35.317  10.622
82044W        W47304  44.864   8.077   4.971
82045W        W47305  10.373   0.339   2.545
82046W        W47306  25.016  42.965  14.129
82047W        W47307  32.745  37.079  10.730
82048W        W47308  22.666   4.402   3.125
82049W        W47309  28.929  26.539  12.694
82050W        W47310  26.247  13.700   0.233
82051W        W47311  44.901   8.908  13.817
82052W        W47312  30.153   7.711  12.970
82053W        W47313  36.775  35.822   4.629
82054W        W47314  26.317  30.388  12.379
82055W        W47315  23.753   8.701   4.098
82056W        W47316   9.022  41.802  14.397
82057W        W47317   6.188  22.783  13.679
82058W        W47318   5.203  10.425   0.892
82059W        W47319  31.989  34.462  14.409
82060W        W47320   7.688  37.140   9.928
82061W        W47321   4.457  19.185   0.479
82062W        W47322  41.151  30.376   0.991
82063W        W47323   5.441  16.111  14.924
82064W        W47324  41.897  20.533   4.184
82065W        W47325  19.456  29.329   0.764
82066W        W47326  20.006  39.353   3.680
82067W        W47327   9.308  19.272   4.691
82068W        W47328  29.296  32.645   3.138
82069W        W47329  31.932  30.581  10.712
82070W        W47330   9.166  17.614  13.052
82071W        W47331  21.151   2.769  12.507
82072W        W47332  17.988  14.108  14.952
82073W        W47333  28.632  10.096   0.690
82074W        W47334  10.971   6.149   2.749
82075W        W47335  30.620  22.929   1.785
82076W        W47336   5.782  24.403   4.895
82077W        W47337   4.862  11.870  13.926
82078W        W47338   1.882  22.019  13.942
82079W        W47339  23.798   2.314  12.019
82080W        W47340  23.034  17.666   9.816
82081W        W47341   3.264   8.167  10.818
82082W        W47342  44.224  27.446  14.834
82083W        W47343   8.426  29.641  11.560
82084W        W47344   4.458   9.462  14.868
82085W        W47345  41.249  39.092   0.351
82086W        W47346  37.574  37.856   0.369
82087W        W47347  10.101  34.830  10.974
82088W        W47348  33.737  14.096  14.950
82089W        W47349   7.398  23.464  13.214
82090W        W47350  15.762  36.746  12.811
82091W        W47351  17.987   9.748  13.461
82092W        W47352  13.919   0.780  12.060
82093W        W47353   5.919  28.931   4.226
82094W        W47354  20.803   8.224   3.886
82095W        W47355  16.226  23.155  12.943
82096W        W47356   7.869   8.848  10.230
82097W        W47357  42.451  42.450   4.432
82098W        W47358  17.154  18.270  11.152
82099W        W47359  27.572  40.681  11.117
82100W        W47360  11.024  10.688  10.727
82101W        W47361   1.469  22.315  13.849
82102W        W47362   4.362  17.583  11.703
82103W        W47363  18.845  27.134  13.953
82104W        W47364  11.928   3.632   0.958
82105W        W47365   8.290  29.420   0.331
82106W        W47366  28.538  30.398  11.561
82107W        W47367  43.887  29.646  14.375
82108W        W47368   9.760  19.940   4.157
82109W        W47369  13.575  40.951   3.295
82110W        W47370  17.590   4.923   2.752
82111W        W47371  12.503  14.804  13.367
82112W        W47372  19.616  15.292  10.757
82113W        W47373   6.474  11.332  14.657
82114W        W47374  43.265  17.639  10.541
82115W        W47375  36.494  24.594   1.185
82116W        W47376  13.269  41.308   1.799
82117W        W47377  31.526  17.846  13.926
82118W        W47378  26.677  22.587  14.512
82119W        W47379   6.502   7.237   3.813
82120W        W47380   5.960  35.438   0.870
82121W        W47381  18.679   2.605   5.155
82122W        W47382  17.883  12.756  14.896
82123W        W47383  40.034  30.210   3.238
82124W        W47384   6.165  28.920  13.232
82125W        W47385   9.359  34.392   1.897
82126W        W47386   1.883   7.659   1.494
82127W        W47387  29.927  27.699   0.329
82128W        W47388  33.058  40.267   2.692
82129W        W47389  42.355  25.035  10.463
82130W        W47390  27.531  34.600   2.586
82131W        W47391  20.640  24.613   1.786
82132W        W47392  32.648  18.903   4.772
82133W        W47393  23.096  18.648   3.078
82134W        W47394  42.291  12.825   2.229
82135W        W47395  36.362   6.295   0.412
82136W        W47396  26.943  42.656   4.956
82137W        W47397   0.125  11.470   1.812
82138W        W47398  36.973  31.992  10.709
82139W        W47399  29.554  14.229   3.620
82140W        W47400   2.700  43.916   4.614
82141W        W47401  44.521  32.531  11.744
82142W        W47402  42.783  39.156  11.080
82143W        W47403  12.240   1.792   4.433
82144W        W47404   3.292  11.905   4.160
82145W        W47405   9.839  16.573   4.888
82146W        W47406   6.195  25.009   0.970
82147W        W47407  15.777   4.824   3.145
82148W        W47408  25.535  43.093  12.456
82149W        W47409  44.324  43.763  12.144
82150W        W47410  37.500  21.531  13.342
82151W        W47411  23.082  38.767   0.244
82152W        W47412   2.553  26.999  14.463
82153W        W47413   0.860  42.051  12.845
82154W        W47414   8.830  35.164   3.692
82155W        W47415  35.857  14.519  14.806
82156W        W47416  37.009   2.716   2.209
82157W        W47417  26.061  34.660  12.898
82158W        W47418  33.488   4.042   1.326
82159W        W47419  39.389  25.302  12.468
82160W        W47420  25.331   5.504   3.644
82161W        W47421  34.527  28.971  11.063
82162W        W47422  36.626  40.502  14.328
82163W        W47423  12.866  33.721  10.706
82164W        W47424  33.934  15.403   3.186
82165W        W47425  36.289  10.139   3.207
82166W        W47426  17.594  43.757  12.015
82167W        W47427  41.988  32.240  11.472
82168W        W47428  39.580   3.656   1.724
82169W        W47429  11.952  41.899  13.502
82170W        W47430   0.557   1.821  11.576
82171W        W47431  28.687  11.151  10.756
82172W        W47432   9.839   5.908   4.168
82173W        W47433   2.151  41.158   2.466
82174W        W47434  13.658  28.074   0.925
82175W        W47435  21.742  44.416  10.729
82176W        W47436  17.554  39.045   2.337
82177W        W47437  34.907  39.930   2.748
82178W        W47438  33.196   4.558   3.659
82179W        W47439   5.965  26.120  14.499
82180W        W47440   7.742   5.220  14.446
82181W        W47441  36.994  33.142  12.456
82182W        W47442  13.664  12.603  10.563
82183W        W47443  30.020  43.217   4.204
82184W        W47444  34.596  37.965   3.340
82185W        W47445   1.526  29.595   2.836
82186W        W47446  23.638   1.401  14.591
82187W        W47447  25.051  29.655   3.152
82188W        W47448  35.936   4.552   4.609
82189W        W47449  31.008   6.726  11.122
82190W        W47450   6.243   4.433   0.899
82191W        W47451  18.543  36.513   2.154
82192W        W47452  14.326  36.919   1.763
82193W        W47453  19.730  34.441  13.890
82194W        W47454  13.188   3.955  13.292
82195W        W47455  36.390   5.754  14.800
82196W        W47456  28.208  36.230   4.556
82197W        W47457  30.545  35.024   0.347
82198W        W47458  24.460  44.247  14.086
82199W        W47459   1.111  32.246  14.921
82200W        W47460   1.524  19.628   3.620
82201W        W47461  31.976   9.602   3.212
82202W        W47462  41.009   3.460  13.983
82203W        W47463  17.220   8.284   3.973
82204W        W47464   9.173  41.563  10.458
82205W        W47465  43.754  40.558   1.407
82206W        W47466   8.189  11.275   2.986
82207W        W47467  22.271   2.245  13.929
82208W        W47468   3.976  33.839   2.293
82209W        W47469  29.546  38.375  14.012
82210W        W47470  40.546  12.427   3.667
82211W        W47471  19.276  34.192   0.991
82212W        W47472   4.312  35.590   0.662
82213W        W47473   9.656  27.686   4.054
82214W        W47474   0.567  32.137  12.605
82215W        W47475   7.757  25.468  11.430
82216W        W47476  21.038  33.434   3.683
82217W        W47477   0.775  32.364   3.866
82218W        W47478  42.507  22.917  13.432
82219W        W47479   9.647  34.112   4.488
82220W        W47480  26.531  26.737   0.747
82221W        W47481   7.921  15.152  14.306
82222W        W47482  28.705   4.623   3.214
82223W        W47483  15.192   9.907  11.230
82224W        W47484  27.286  36.500   1.489
82225W        W47485   1.688  19.896   4.060
82226W        W47486  10.893  42.404   3.252
82227W        W47487  22.225  25.663   2.368
82228W        W47488   3.239  37.968  13.872
82229W        W47489  44.401  13.445   5.370
82230W        W47490  31.578  34.821   1.424
82231W        W47491   3.446  16.316   0.389
82232W        W47492  43.680  16.056  13.620
82233W        W47493  18.009  33.396  13.337
82234W        W47494  26.958  44.061   1.271
82235W        W47495  29.185  20.679   0.817
82236W        W47496   6.629  21.681  10.682
82237W        W47497  10.207  15.696  10.864
82238W        W47498  43.060   7.543   5.016
82239W        W47499   2.727  37.538  12.951
82240W        W47500   8.625  15.927  13.920
82241W        W47501  18.265  13.665  13.983
82242W        W47502  10.569   3.009  12.117
82243W        W47503  24.156  12.230  11.068
82244W        W47504  15.789  35.033   1.418
82245W        W47505   5.775  17.551   2.725
82246W        W47506  23.905   0.673   0.064
82247W        W47507  33.538  33.865  11.956
82248W        W47508   6.111   0.418  13.596
82249W        W47509  22.773   3.048   3.835
82250W        W47510  42.746  15.626  12.486
82251W        W47511  10.324   3.692   4.228
82252W        W47512  38.113  25.645   1.443
82253W        W47513  36.491   4.761   0.033
82254W        W47514  15.400  25.895  13.982
82255W        W47515  26.907  38.631   0.736
82256W        W47516  12.301  17.264  12.900
82257W        W47517  42.579  32.187   4.236
82258W        W47518  10.143  10.881   1.713
82259W        W47519  17.903  27.061   0.223
82260W        W47520  33.522  41.540   4.493
82261W        W47521  41.403  43.512   2.417
82262W        W47522  43.218  27.110  11.172
82263W        W47523  32.011  42.033  12.864
82264W        W47524  28.283  44.461  14.894
82265W        W47525  43.846  25.248  12.117
82266W        W47526   5.779  35.083   1.244
82267W        W47527  22.640  21.329   4.117
82268W        W47528  35.920   3.262   3.747
82269W        W47529  25.694  37.592   3.756
82270W        W47530   2.953  21.532  12.965
82271W        W47531  28.857  36.697  11.133
82272W        W47532   6.299  18.607   4.617
82273W        W47533  27.015   9.903  10.663
82274W        W47534  40.541  19.136   2.228
82275W        W47535  15.601   6.759  11.459
82276W        W47536  15.807   7.068  13.740
82277W        W47537   1.382  31.210   2.709
82278W        W47538  11.839  40.394  12.381
82279W        W47539  19.512  20.585  13.543
82280W        W47540  25.031  29.709  10.748
82281W        W47541   6.729  32.520   1.833
82282W        W47542  12.851  20.356  13.335
82283W        W47543  38.243  19.704   2.944
82284W        W47544  28.306  36.895   2.524
82285W        W47545  42.846  20.280  13.997
82286W        W47546  33.337   9.456   4.250
82287W        W47547  42.487   9.736   4.295
82288W        W47548  41.415  24.940  11.022
82289W        W47549  35.023  31.602  10.441
82290W        W47550  30.704   8.548  12.847
82291W        W47551  13.454  44.542  10.267
82292W        W47552  19.670  41.773  14.895
82293W        W47553  40.733   6.849   2.849
82294W        W47554  31.171  31.060   2.871
82295W        W47555  36.969  38.105   4.110
82296W        W47556  38.360  26.983   4.167
82297W        W47557   0.928  12.378  14.549
82298W        W47558  34.155  33.029   4.528
82299W        W47559   7.930  31.753  10.305
82300W        W47560  19.163   3.933   3.300
82301W        W47561  42.476  19.762  14.814
82302W        W47562  26.637  32.108  14.513
82303W        W47563  31.639  41.928  11.121
82304W        W47564  40.042   4.433  12.501
82305W        W47565   5.923  23.735  14.829
82306W        W47566  35.651   4.178  14.754
82307W        W47567  15.790   7.702   3.234
82308W        W47568  24.625  30.667  14.984
82309W        W47569  22.745  27.127  11.272
82310W        W47570   5.032  34.370   4.649
82311W        W47571   3.364  21.467  11.284
82312W        W47572  27.692   3.886  12.855
82313W        W47573  27.281  40.276   1.730
82314W        W47574  26.580  21.142  14.405
82315W        W47575  17.279  17.741   1.050
82316W        W47576   9.201  31.903  14.903
82317W        W47577  22.986   9.803  10.494
82318W        W47578  32.489  16.356  10.666
82319W        W47579  42.367   5.441  14.897
82320W        W47580  37.829   5.732  14.876
82321W        W47581  21.720  43.467  10.623
82322W        W47582  13.819  21.454  10.521
82323W        W47583  25.434   3.332   1.744
82324W        W47584  10.928  11.365   1.435
82325W        W47585  29.138  12.085   4.603
82326W        W47586   9.186  28.193  11.966
82327W        W47587  17.560   0.597  14.334
82328W        W47588  35.904   0.555   0.930
82329W        W47589  29.666   0.478   0.722
82330W        W47590  31.004  27.923  13.801
82331W        W47591  19.716  42.880   1.633
82332W        W47592  39.556  35.030  12.826
82333W        W47593   7.764  20.990   1.385
82334W        W47594  14.726  29.124  10.563
82335W        W47595  15.841   6.275  10.021
82336W        W47596   4.605   7.685   1.887
82337W        W47597  37.519  24.461  12.395
82338W        W47598  31.898  13.877  13.452
82339W        W47599  35.006  25.724   4.752
82340W        W47600  13.144  41.221   4.565
82341W        W47601  41.598   9.595  12.124
82342W        W47602   5.456  18.580  14.147
82343W        W47603  23.166  44.941  11.180
82344W        W47604   2.328  44.777   4.873
82345W        W47605  23.135   1.707   3.712
82346W        W47606  21.130  21.740  14.813
82347W        W47607  17.130  28.141   2.361
82348W        W47608  32.858   2.726  12.348
82349W        W47609  21.751   9.176  13.275
82350W        W47610  20.255   7.975   1.127
82351W        W47611  37.341  14.357  11.033
82352W        W47612  29.117   8.630   0.965
82353W        W47613  44.202  35.301  13.442
82354W        W47614  18.353  36.206  14.943
82355W        W47615  43.396  20.405   1.818
82356W        W47616  11.346   5.598  14.332
82357W        W47617  25.122  14.651  10.635
82358W        W47618  36.070  33.996  13.433
82359W        W47619   1.695  25.585   0.879
82360W        W47620  15.697   9.296   4.111
82361W        W47621  41.433  38.629   2.670
82362W        W47622  26.626  34.723  11.722
82363W        W47623  30.498  36.621  12.913
82364W        W47624  29.863  31.459   0.892
82365W        W47625  21.666  11.651   1.768
82366W        W47626  40.901   7.713   2.891
82367W        W47627   3.936   7.191   2.276
82368W        W47628  14.142  33.051   3.150
82369W        W47629  38.615  25.718  11.004
82370W        W47630  35.637   1.868  14.983
82371W        W47631   0.006  44.367  12.885
82372W        W47632  10.240   1.705   0.806
82373W        W47633   5.188  13.153   1.981
82374W        W47634  38.410   4.748   1.800
82375W        W47635  36.485  35.519   3.484
82376W        W47636  32.162   5.555   0.045
82377W        W47637  19.530   7.729   0.641
82378W        W47638   3.927  11.189   4.474
82379W        W47639   8.828  38.289  14.473
82380W        W47640  23.381  20.753   4.031
82381W        W47641  22.114  36.190  14.643
82382W        W47642  18.168  29.445  13.474
82383W        W47643  39.033  36.304   0.360
82384W        W47644  37.898  21.295   4.178
82385W        W47645   2.451  19.375   2.719
82386W        W47646  22.162  13.429   3.713
82387W        W47647  12.540  16.822  11.055
82388W        W47648  25.007   1.689   1.329
82389W        W47649  22.295  35.380   3.010
82390W        W47650   4.660   3.909  11.930
82391W        W47651  14.317   7.751   2.779
82392W        W47652  23.778  16.229   3.203
82393W        W47653  11.737  35.827  10.013
82394W        W47654  17.612  22.983  10.410
82395W        W47655  36.958  37.084   4.688
82396W        W47656  35.368  18.772   1.760
82397W        W47657  17.714  24.153  12.991
82398W        W47658  16.338  17.956   4.010
82399W        W47659   1.692  25.697   4.521
82400W        W47660  20.651  26.409  13.003
82401W        W47661   1.768  11.724   0.928
82402W        W47662   9.392  28.098  13.878
82403W        W47663   6.802  24.645   3.445
82404W        W47664  22.791  11.082  13.538
82405W        W47665  24.045  25.155  14.513
82406W        W47666  10.613  31.292   2.220
82407W        W47667  20.093   5.182  11.557
82408W        W47668  28.391  25.704   4.112
82409W        W47669  26.466  10.830   4.055
82410W        W47670  24.257  10.101   0.462
82411W        W47671   6.696  36.756   3.835
82412W        W47672  40.229  11.365  12.935
82413W        W47673   2.437  37.081   2.305
82414W        W47674   2.270  39.833  13.105
82415W        W47675  44.272   1.159  14.996
82416W        W47676  26.550  37.994  13.956
82417W        W47677   3.118  26.209   1.232
82418W        W47678  40.362  35.788   1.250
82419W        W47679  24.523  20.764  12.499
82420W        W47680  10.746  16.722   3.871
82421W        W47681  10.629  17.105   1.652
82422W        W47682  36.465  35.678  11.458
82423W        W47683  15.092  24.130  11.151
82424W        W47684  35.920  27.926  12.439
82425W        W47685   0.442  24.683   2.734
82426W        W47686  26.092   1.204   1.434
82427W        W47687  23.572  16.233   2.276
82428W        W47688  31.791  25.267   2.241
82429W        W47689  40.815  10.720   3.718
82430W        W47690  22.007  34.223   4.249
82431W        W47691  30.985  10.280  11.545
82432W        W47692   1.844  23.595  11.982
82433W        W47693  19.684   2.445  13.976
82434W        W47694   0.722  19.705   4.161
82435W        W47695  30.995   5.684   1.675
82436W        W47696  32.419  41.489  11.001
82437W        W47697  20.974  20.564   0.864
82438W        W47698   2.005  21.546   0.423
82439W        W47699  31.383  27.525   3.956
82440W        W47700  16.337  41.581   1.136
82441W        W47701  41.865  29.013  14.466
82442W        W47702   7.283  18.039  14.040
82443W        W47703  33.195  36.535   4.184
82444W        W47704   3.781  16.376   1.928
82445W        W47705  40.762   0.799  13.452
82446W        W47706  24.021  23.603  10.797
82447W        W47707  29.665  41.027  13.601
82448W        W47708  31.713  27.767   1.360
82449W        W47709  37.604  23.502  10.971
82450W        W47710  29.888  24.470   2.731
82451W        W47711  19.297  36.026   4.574
82452W        W47712  20.264   3.239  12.579
82453W        W47713   7.198  22.548  13.804
82454W        W47714   6.012   4.955  11.144
82455W        W47715   9.879  13.197  12.605
82456W        W47716  15.575  15.195  10.915
82457W        W47717  24.061  37.860  12.627
82458W        W47718   3.465   3.173   2.418
82459W        W47719  37.959  17.796  13.909
82460W        W47720  36.994   7.353   1.761
82461W        W47721   1.253  23.462  14.313
82462W        W47722  15.142  26.531  12.012
82463W        W47723  27.940  42.212   2.893
82464W        W47724  40.456  40.991   2.271
82465W        W47725  13.179  31.418  12.025
82466W        W47726   3.477  19.473  12.987
82467W        W47727  34.930  31.912   3.653
82468W        W47728   1.372  14.039   3.233
82469W        W47729   0.885  29.901   4.294
82470W        W47730  32.840  44.823   3.292
82471W        W47731  15.622   5.408   2.196
82472W        W47732   5.658  33.828   4.134
82473W        W47733  30.230  31.861  12.309
82474W        W47734  44.721   4.410   2.696
82475W        W47735   2.985   0.844   4.292
82476W        W47736  32.508  11.198   2.871
82477W        W47737  31.290  15.139  12.541
82478W        W47738  29.556  10.648  13.456
82479W        W47739  15.225  31.128  13.894
82480W        W47740  28.183  31.410  12.821
82481W        W47741  34.138  31.011  11.025
82482W        W47742   8.201   4.529   3.523
82483W        W47743   9.757  19.189   0.503
82484W        W47744  23.568  20.746   2.638
82485W        W47745  39.879  22.722  12.997
82486W        W47746  39.547  21.106   1.381
82487W        W47747  15.222   5.886  12.961
82488W        W47748  11.187   6.275   0.338
82489W        W47749  19.847  43.438  12.030
82490W        W47750  24.812  33.767  13.050
82491W        W47751  30.425  41.831  12.775
82492W        W47752  29.655   2.138  11.191
82493W        W47753  19.322  25.514  13.391
82494W        W47754  40.912   8.444  13.810
82495W        W47755  26.456   8.742  12.520
82496W        W47756  12.729  17.142  10.682
82497W        W47757  15.699  38.298   1.234
82498W        W47758  42.517  34.989   0.862
82499W        W47759   9.150  28.164  13.416
82500W        W47760  15.641   0.767  14.621
82501W        W47761   9.687  27.066   0.732
82502W        W47762  33.829  44.898   1.123
82503W        W47763  44.337  10.811   3.725
82504W        W47764  14.059  15.874   2.586
82505W        W47765  14.791  19.277   3.172
82506W        W47766   7.121  16.028  13.883
82507W        W47767   6.418  33.934  13.203
82508W        W47768  29.599  36.369  11.621
82509W        W47769  25.237  39.116  13.106
82510W        W47770  35.606  35.294   3.817
82511W        W47771   9.041   6.807  10.161
82512W        W47772  23.987  43.461  12.533
82513W        W47773  41.455  40.918  14.930
82514W        W47774   3.936   8.450   1.509
82515W        W47775   1.647  18.181  12.949
82516W        W47776  18.139   9.484   4.000
82517W        W47777  36.645  39.033   4.334
82518W        W47778  38.505   4.390   1.418
82519W        W47779   0.372   3.289  12.425
82520W        W47780  29.677  28.385   2.453
82521W        W47781   5.331   6.993  11.623
82522W        W47782  22.392  25.129   2.292
82523W        W47783  20.115  44.678   1.949
82524W        W47784   9.569   7.250  12.039
82525W        W47785   4.646  29.867   0.744
82526W        W47786  21.970  42.383   0.549
82527W        W47787  24.716   5.492  14.852
82528W        W47788  10.809  15.109   1.096
82529W        W47789  35.360   2.870  12.049
82530W        W47790  17.853  35.459  13.815
82531W        W47791  29.783  23.676  13.019
82532W        W47792  40.285  31.169  10.603
82533W        W47793   2.303   4.460  11.069
82534W        W47794  43.091  33.188   1.926
82535W        W47795   8.759  32.759  13.505
82536W        W47796  27.181  37.951   1.680
82537W        W47797   7.778  27.276   0.041
82538W        W47798  39.502   6.567  10.340
82539W        W47799  35.274  38.355  10.861
82540W        W47800  33.533  22.054   3.218
82541W        W47801  16.754  20.269   1.351
82542W        W47802  41.606   9.344   4.979
82543W        W47803   5.715  22.496  12.936
82544W        W47804  34.325  44.962   1.288
82545W        W47805  44.318   3.955   3.610
82546W        W47806  32.850  21.485  13.342
82547W        W47807   0.737  44.409   1.341
82548W        W47808   3.810  31.966   0.855
82549W        W47809  13.744  22.795  13.840
82550W        W47810  29.328  22.992   2.184
82551W        W47811  31.519   0.562  14.731
82552W        W47812  18.473  12.313   1.880
82553W        W47813  30.580  44.364   2.232
82554W        W47814   4.367   2.901  10.460
82555W        W47815  36.909  14.108   2.893
82556W        W47816  20.302   0.642   3.174
82557W        W47817  28.382  39.390  13.896
82558W        W47818  13.241   1.308   1.327
82559W        W47819  17.080   8.878   3.705
82560W        W47820  15.676  32.023  14.051
82561W        W47821  12.272  13.150  12.417
82562W        W47822  26.474   5.450  10.449
82563W        W47823  34.083   1.810  13.922
82564W        W47824  27.964  16.122   0.333
82565W        W47825  44.717   0.009  14.855
82566W        W47826  24.935  37.747   2.382
82567W        W47827   6.769   1.245   1.068
82568W        W47828  21.083  18.800  10.996
82569W        W47829  12.301  34.354   0.892
82570W        W47830  23.729  15.514   3.251
82571W        W47831   3.840  24.225   1.149
82572W        W47832  22.417   1.863   4.106
82573W        W47833  24.138   2.922  13.421
82574W        W47834  44.369  20.356   2.871
82575W        W47835  22.650  18.095   4.566
82576W        W47836  22.984  11.050  14.407
82577W        W47837  27.114  22.464   2.285
82578W        W47838  19.957  20.767   0.179
82579W        W47839  26.917  36.089  13.496
82580W        W47840  38.110  33.524  11.683
82581W        W47841  14.993  15.027  12.502
82582W        W47842  24.258  27.873  10.625
82583W        W47843  13.946  41.483   1.641
82584W        W47844  35.529   0.038  11.942
82585W        W47845   0.491   3.247   2.383
82586W        W47846  19.695  35.599   0.259
82587W        W47847  37.480  27.550   1.886
82588W        W47848  17.581   2.074  10.615
82589W        W47849   9.263  18.198  10.770
82590W        W47850  35.468  37.548  14.031
82591W        W47851  34.835  40.162  10.815
82592W        W47852  15.715  11.262  15.000
82593W        W47853   7.333  33.025   2.125
82594W        W47854  27.753  40.740  13.423
82595W        W47855  38.738  25.366   5.067
82596W        W47856  40.670  22.200   1.707
82597W        W47857  42.309  44.834   2.904
82598W        W47858  42.233  25.912  10.715
82599W        W47859  41.623  25.712  14.545
82600W        W47860  32.464   8.236   2.186
82601W        W47861  17.762  28.477  13.542
82602W        W47862   1.363  20.102   3.712
82603W        W47863  10.698   5.736  11.582
82604W        W47864   8.393  19.422  11.135
82605W        W47865  17.847  39.951   2.750
82606W        W47866   6.878   0.100  11.913
82607W        W47867  22.203  35.843   0.028
82608W        W47868   5.990  11.729   2.943
82609W        W47869  16.638  42.321   1.485
82610W        W47870   7.313  15.591   3.688
82611W        W47871   5.345  31.191   1.973
82612W        W47872   7.998  22.992  12.145
82613W        W47873  33.156   3.681  13.404
82614W        W47874  29.643  33.784  11.571
82615W        W47875  40.254  10.156  13.115
82616W        W47876   8.153  38.357   0.938
82617W        W47877  17.786  11.745   3.955
82618W        W47878  35.081  23.506   2.145
82619W        W47879  29.913  38.934  14.510
82620W        W47880   4.195  30.183  10.719
82621W        W47881  18.266  23.623  12.913
82622W        W47882  19.285  23.015  11.578
82623W        W47883  41.980  12.555   1.343
82624W        W47884  34.987  39.929   1.386
82625W        W47885  37.529   6.539  11.149
82626W        W47886  41.028   8.837   1.290
82627W        W47887  16.578  29.908   4.964
82628W        W47888  23.981  13.157   2.313
82629W        W47889  15.522  22.588   1.880
82630W        W47890  26.983  28.497  10.957
82631W        W47891   4.822  41.525  10.453
82632W        W47892   0.428  13.889  12.840
82633W        W47893   1.808  12.524   9.799
82634W        W47894   5.943   7.244   3.011
82635W        W47895  17.127  30.144  11.268
82636W        W47896  18.498   5.414   3.903
82637W        W47897   5.783   5.185  11.531
82638W        W47898  34.601  23.530  13.917
82639W        W47899   5.676  13.557   3.315
82640W        W47900  30.571   6.983  13.948
82641W        W47901  22.625  30.464   3.648
82642W        W47902  44.189  43.383   2.765
82643W        W47903  32.381  32.237   2.883
82644W        W47904  22.064  26.566   2.336
82645W        W47905  26.504   7.378  11.448
82646W        W47906  25.185   2.906   2.841
82647W        W47907  27.981   1.647  12.152
82648W        W47908  22.657   4.657   0.348
82649W        W47909   2.755   1.091  14.101
82650W        W47910  27.535   9.710   4.975
82651W        W47911  32.689  38.026   3.586
82652W        W47912  30.878  38.880   4.083
82653W        W47913   5.448  16.615  14.957
82654W        W47914  10.222   4.895   3.170
82655W        W47915  43.337  35.996  10.694
82656W        W47916  11.773  34.089   1.749
82657W        W47917  15.174  31.529  11.575
82658W        W47918  28.063  22.278  11.087
82659W        W47919  31.820  21.753   5.412
82660W        W47920  17.827  15.579  13.450
82661W        W47921  27.595  36.286  11.592
82662W        W47922  19.865  27.752   3.140
82663W        W47923  14.137  13.284   4.532
82664W        W47924  35.478  26.473  14.326
82665W        W47925  32.453  24.311   0.411
82666W        W47926  25.632  31.472  12.623
82667W        W47927  20.980  22.527  10.295
82668W        W47928  22.678   3.673   0.984
82669W        W47929  29.125  10.107   4.923
82670W        W47930  40.507  32.507   3.817
82671W        W47931  35.591  31.861   1.269
82672W        W47932  10.258  39.493   0.927
82673W        W47933   7.088  21.053   0.100
82674W        W47934   1.460  18.775   4.565
82675W        W47935  21.179   4.920   0.277
82676W        W47936   3.154   3.216  14.539
82677W        W47937  36.068  25.580  10.708
82678W        W47938  35.947   3.877   2.512
82679W        W47939  39.864  24.699   4.796
82680W        W47940  35.619   9.194   0.293
82681W        W47941  37.961  11.296  14.887
82682W        W47942  35.874  32.122  12.398
82683W        W47943  14.705   3.214   2.361
82684W        W47944  10.593  21.740   3.137
82685W        W47945   8.263   4.885   2.543
82686W        W47946  34.368  24.300  12.643
82687W        W47947  35.434  33.007   0.731
82688W        W47948   5.357   5.858  11.867
82689W        W47949  27.206  27.119   1.303
82690W        W47950   6.019  43.588   1.905
82691W        W47951  24.033  12.418  12.003
82692W        W47952  29.914  41.752  12.621
82693W        W47953  21.773  42.848  10.925
82694W        W47954  14.058  39.488  13.659
82695W        W47955  13.804  24.820   1.024
82696W        W47956   3.773  36.425   2.090
82697W        W47957  44.229  44.847  12.902
82698W        W47958  37.510  30.191  11.251
82699W        W47959  12.214  44.549  10.384
82700W        W47960  26.961  12.957   2.831
82701W        W47961  10.764  10.663   4.969
82702W        W47962  20.263  15.730   0.496
82703W        W47963  24.004   9.038  10.595
82704W        W47964  24.001  37.341   3.680
82705W        W47965   8.437   3.774  11.193
82706W        W47966  22.366  15.931  12.595
82707W        W47967   5.249  29.497  10.389
82708W        W47968   5.676  22.025   2.203
82709W        W47969  18.032  18.801  14.873
82710W        W47970  24.230  41.619  11.632
82711W        W47971   2.226  30.765  10.774
82712W        W47972   2.004  39.899   2.713
82713W        W47973  20.642  11.283  13.380
82714W        W47974  10.748   9.777  12.839
82715W        W47975  41.482  36.567   1.217
82716W        W47976  44.449  15.315   1.306
82717W        W47977   7.772  11.154  10.547
82718W        W47978  28.443  42.021  14.811
82719W        W47979  13.469  34.860  11.919
82720W        W47980   5.680  16.817  11.546
82721W        W47981   0.989  21.936   4.140
82722W        W47982  33.205  18.738   0.915
82723W        W47983  43.019   9.595   4.641
82724W        W47984  36.458   9.924   0.902
82725W        W47985  39.391  44.461   4.108
82726W        W47986   1.836  17.874  13.414
82727W        W47987  40.239  11.082  12.489
82728W        W47988   0.020   7.217  13.892
82729W        W47989  41.282  22.244   2.237
82730W        W47990   3.799  14.288   0.847
82731W        W47991  21.847  44.948  14.357
82732W        W47992   0.495  10.490  12.367
82733W        W47993   8.065  38.478   1.442
82734W        W47994  31.582  23.948   4.579
82735W        W47995  42.364  44.932  14.411
82736W        W47996  17.588  39.362  12.431
82737W        W47997   9.096  40.949  13.044
82738W        W47998   5.674   0.648  13.474
82739W        W47999  34.547  18.599   0.341
82740W        W48000  11.947  12.049   4.994
82741W        W48001  27.394   9.644   2.452
82742W        W48002  30.091  14.697  13.425
82743W        W48003  31.894  43.982  12.002
82744W        W48004  27.092   7.800  12.349
82745W        W48005  39.325  27.997   4.182
82746W        W48006  26.613   6.455   4.708
82747W        W48007  29.418  21.130   3.671
82748W        W48008  29.924  16.561  12.395
82749W        W48009   9.348  36.367   0.420
82750W        W48010  26.558  37.380  12.345
82751W        W48011   7.611  23.134  13.900
82752W        W48012   2.084  29.467  13.241
82753W        W48013  29.036   5.264  14.472
82754W        W48014  43.818   3.474  12.614
82755W        W48015  22.703  39.374  12.935
82756W        W48016  16.683  25.254   2.720
82757W        W48017   7.244  13.546   3.631
82758W        W48018   9.785   5.225  11.447
82759W        W48019  39.582   6.060   4.288
82760W        W48020  43.314  24.114   0.230
82761W        W48021  22.185  30.226   0.410
82762W        W48022  21.630  34.730   2.369
82763W        W48023   5.822   5.320   4.720
82764W        W48024  13.395  25.243   2.759
82765W        W48025  24.636  38.153  13.011
82766W        W48026  16.564  26.664  10.521
82767W        W48027  14.320  19.205  10.321
82768W        W48028  28.629  41.996  13.396
82769W        W48029  36.285  43.736  14.312
82770W        W48030  11.072  18.293  13.936
82771W        W48031   2.421  33.179  13.464
82772W        W48032  30.129  11.741   4.476
82773W        W48033  43.345  33.044   3.896
82774W        W48034  21.569   3.714   4.048
82775W        W48035  42.088  44.198  11.641
82776W        W48036  15.872  33.035  12.014
82777W        W48037  26.162   8.189   4.599
82778W        W48038  20.621  12.027   1.390
82779W        W48039  20.772  20.477   5.196
82780W        W48040   6.796  29.390   0.101
82781W        W48041   9.816  12.911   3.704
82782W        W48042   5.365  41.853  11.019
82783W        W48043   3.420  44.889  14.484
82784W        W48044  39.918  37.071  12.494
82785W        W48045   0.772   7.292   1.349
82786W        W48046  19.132  22.767  11.134
82787W        W48047   8.915  42.936  12.487
82788W        W48048  29.175  34.374  10.699
82789W        W48049  25.178   9.921  11.415
82790W        W48050  40.636   4.637   0.920
82791W        W48051  35.445  30.943   0.795
82792W        W48052   8.485   2.716   4.627
82793W        W48053  10.231  28.749   2.257
82794W        W48054  15.773  18.717   2.265
82795W        W48055  28.077  14.662  13.898
82796W        W48056  36.609  22.193   2.253
82797W        W48057  26.652  10.253   2.357
82798W        W48058  15.822   9.111   0.248
82799W        W48059   5.936  22.986   3.092
82800W        W48060  28.492  33.016   3.107
82801W        W48061   7.175  14.633   2.703
82802W        W48062  30.407  36.576  13.888
82803W        W48063  15.458  14.815  12.510
82804W        W48064  37.128  29.657   0.101
82805W        W48065  11.735   3.262   2.150
82806W        W48066  32.222  23.023   0.323
82807W        W48067  20.568  20.842  13.163
82808W        W48068   3.794  31.999   2.754
82809W        W48069  25.425   8.989   0.884
82810W        W48070   3.806  30.010   0.085
82811W        W48071  26.955   0.587   2.715
82812W        W48072   2.763   1.839   4.537
82813W        W48073   7.229  21.574   1.932
82814W        W48074  20.423  20.968   2.512
82815W        W48075  38.861  21.508  14.635
82816W        W48076  30.158  21.351  10.969
82817W        W48077  16.724  36.235  12.166
82818W        W48078  41.811  14.276  13.857
82819W        W48079  22.618  26.434  12.047
82820W        W48080   2.055  37.094  14.410
82821W        W48081   9.299  36.545  10.522
82822W        W48082  23.162  34.633  10.251
82823W        W48083  14.323  41.289   0.233
82824W        W48084  44.551  15.080  12.458
82825W        W48085   3.253  36.117  14.449
82826W        W48086  33.960  15.255  12.502
82827W        W48087  30.888  28.712   3.830
82828W        W48088  38.147  40.826  10.691
82829W        W48089  23.481  15.414   3.697
82830W        W48090  14.965  32.140  11.406
82831W        W48091  26.059  16.138  11.182
82832W        W48092   1.868   7.740  14.589
82833W        W48093   8.655   3.928  13.237
82834W        W48094  33.973   9.399   1.255
82835W        W48095  38.989  15.644   3.346
82836W        W48096  27.088  31.407   2.326
82837W        W48097  28.642  23.504  12.400
82838W        W48098   4.212  20.213   2.308
82839W        W48099   5.665   1.913   2.346
82840W        W48100  11.503   6.687   3.752
82841W        W48101  36.047  32.035   1.090
82842W        W48102  15.222  38.945   2.008
82843W        W48103   6.840  29.162  13.031
82844W        W48104  35.134  33.060  11.160
82845W        W48105  40.020  10.868  13.818
82846W        W48106  34.290  16.679  14.939
82847W        W48107  39.489   4.258   2.615
82848W        W48108  30.537  33.682   1.873
82849W        W48109  10.934  29.875   4.206
82850W        W48110   9.462  38.901  14.909
82851W        W48111   4.330  30.551   2.260
82852W        W48112   3.344  39.406  11.475
82853W        W48113  39.881  44.773  10.628
82854W        W48114  10.716  28.550  12.867
82855W        W48115  26.068  25.733  13.938
82856W        W48116   4.059   3.823   1.437
82857W        W48117  27.203   3.635   5.052
82858W        W48118  15.552   2.201  11.449
82859W        W48119  25.701  21.066  14.835
82860W        W48120  38.415  38.132  11.164
82861W        W48121   0.790  41.120  12.657
82862W        W48122   7.148  24.501   0.269
82863W        W48123  33.017  31.854  12.415
82864W        W48124  36.038  44.066   1.465
82865W        W48125   5.388  16.132   0.991
82866W        W48126  29.821  16.174   3.275
82867W        W48127  12.629  26.306  10.787
82868W        W48128  26.170   6.394  11.230
82869W        W48129  33.855  25.564  13.376
82870W        W48130  40.964   4.310   3.564
82871W        W48131  32.688  37.797  11.502
82872W        W48132   5.537  28.903  12.503
82873W        W48133   7.186   3.002  13.068
82874W        W48134  29.280  18.241   4.690
82875W        W48135  10.150  22.706   1.318
82876W        W48136  25.104  22.991  12.030
82877W        W48137  13.162  20.743  12.921
82878W        W48138   0.377  32.663   0.467
82879W        W48139  33.607  29.498   2.153
82880W        W48140  43.995  25.776   2.620
82881W        W48141  15.772  41.102  13.288
82882W        W48142  27.969  41.333  10.378
82883W        W48143  18.468  37.142  13.340
82884W        W48144   6.823   7.815  14.611
82885W        W48145  32.169  41.361  14.992
82886W        W48146  31.904  10.890  10.926
82887W        W48147  10.084  21.115   4.417
82888W        W48148   9.255  34.956  14.005
82889W        W48149  23.257  30.925  13.014
82890W        W48150  20.927  28.410  11.041
82891W        W48151  10.966   2.660   4.093
82892W        W48152  11.181  43.978   4.356
82893W        W48153  18.287  43.763  12.738
82894W        W48154  13.978   1.190   3.611
82895W        W48155   1.756   6.583  11.195
82896W        W48156   5.707  35.329   4.412
82897W        W48157   0.385  43.996   3.380
82898W        W48158  22.211  39.555  13.647
82899W        W48159   5.139   9.836  10.806
82900W        W48160  19.357  32.112  14.512
82901W        W48161   4.253  20.944  12.877
82902W        W48162  22.653  32.890   2.526
82903W        W48163  16.962  26.727  13.742
82904W        W48164  37.729  41.044   2.130
82905W        W48165  37.602  39.520  12.821
82906W        W48166  23.051  23.576   1.823
82907W        W48167  34.508  44.802  12.701
82908W        W48168  41.467  15.150  11.123
82909W        W48169   4.139  16.215   1.209
82910W        W48170  24.204  39.231  11.170
82911W        W48171  12.579  34.422  14.195
82912W        W48172  11.226  23.975   0.260
82913W        W48173   1.679  24.877  10.841
82914W        W48174  28.854  10.197  13.356
82915W        W48175  11.895  23.974   1.858
82916W        W48176  42.071  13.820  14.860
82917W        W48177  37.392   1.499  11.229
82918W        W48178  17.011  41.642  13.179
82919W        W48179  10.848  14.857   2.198
82920W        W48180  41.836  29.064  10.623
82921W        W48181   1.540   1.734  10.833
82922W        W48182  15.122  41.094  12.910
82923W        W48183  13.167  31.872  10.120
82924W        W48184   3.912  30.419  12.100
82925W        W48185  21.610  10.207   9.952
82926W        W48186  30.414  18.099   0.708
82927W        W48187   2.407   1.378  14.814
82928W        W48188  11.056  30.217  10.834
82929W        W48189  23.694   0.381   4.616
82930W        W48190  31.197  34.403  10.501
82931W        W48191  23.486  41.756  13.639
82932W        W48192  23.923  32.156   4.355
82933W        W48193  29.361  27.191   4.368
82934W        W48194   0.722   3.320   3.723
82935W        W48195  26.985  35.353   2.901
82936W        W48196  25.562  28.108   1.639
82937W        W48197   3.852  32.971  11.144
82938W        W48198  26.991  23.355   4.046
82939W        W48199  25.238  36.992  13.395
82940W        W48200   0.901  42.720  11.068
82941W        W48201  25.590  40.588   3.724
82942W        W48202  38.154  25.613   3.145
82943W        W48203  35.693  42.869  14.791
82944W        W48204  35.591  10.666   2.188
82945W        W48205  11.187   8.913  14.006
82946W        W48206  28.689  21.147   5.000
82947W        W48207  26.017  22.667   0.683
82948W        W48208  36.022  14.286  13.026
82949W        W48209  14.897   3.419   0.470
82950W        W48210   8.227  28.609   3.825
82951W        W48211   8.309   0.029   2.303
82952W        W48212  33.174  12.690   0.281
82953W        W48213  28.024  17.200   2.343
82954W        W48214   5.773  29.019   0.119
82955W        W48215   8.325  44.159  12.834
82956W        W48216   6.292  35.262   0.508
82957W        W48217  19.029  22.100   0.908
82958W        W48218  37.087  25.100  13.490
82959W        W48219   5.460   3.837  12.155
82960W        W48220  25.414  28.723   0.941
82961W        W48221   3.688   4.169  11.911
82962W        W48222  29.926   0.450  11.423
82963W        W48223  26.488  35.488   2.737
82964W        W48224  29.583  15.188   0.295
82965W        W48225  42.158  15.116  11.176
82966W        W48226   8.728  16.323  12.607
82967W        W48227  35.576  24.149   2.119
82968W        W48228   6.444  30.936   4.048
82969W        W48229  18.161   8.416  13.870
82970W        W48230  26.944  10.677   0.200
82971W        W48231  13.810  30.391   1.475
82972W        W48232   0.880  22.286  12.049
82973W        W48233  13.265   3.023  12.908
82974W        W48234  23.133  34.859  10.698
82975W        W48235  27.526  34.006  10.619
82976W        W48236  16.764   9.104   3.119
82977W        W48237  18.968   4.219   4.754
82978W        W48238   6.410   3.345   2.804
82979W        W48239  27.415  27.814  12.955
82980W        W48240  38.575   7.573   2.460
82981W        W48241  17.611  31.403   2.463
82982W        W48242   7.325   5.437  11.890
82983W        W48243  40.062  26.255   0.307
82984W        W48244  27.113   5.704  13.104
82985W        W48245   1.947  27.576   5.276
82986W        W48246   4.438  14.107  11.608
82987W        W48247  12.831   0.151   3.690
82988W        W48248  10.118  27.417  12.719
82989W        W48249  10.707  17.865  14.373
82990W        W48250  25.501  24.002   4.264
82991W        W48251  15.790  10.891  11.452
82992W        W48252  41.556  24.008  13.026
82993W        W48253  16.827   2.208   5.109
82994W        W48254  34.608  24.109  14.400
82995W        W48255  23.187  29.648   3.943
82996W        W48256  22.686   5.172   0.387
82997W        W48257  12.375  24.073   4.532
82998W        W48258  43.517  22.091   3.443
82999W        W48259   8.795   0.327   0.870
83000W        W48260   2.532  34.193   0.420
83001W        W48261  39.780   9.457   4.601
83002W        W48262   2.373  27.123  11.682
83003W        W48263  41.805  34.503  10.435
83004W        W48264  16.309  36.969  14.463
83005W        W48265  16.512  33.604  12.867
83006W        W48266  14.300   6.368  11.724
83007W        W48267  36.511  27.234  14.942
83008W        W48268   4.290  13.300  14.513
83009W        W48269  16.230   1.453  13.411
83010W        W48270  37.008  15.336   1.565
83011W        W48271  15.337  16.693  11.629
83012W        W48272  31.334  21.483  11.485
83013W        W48273  37.074  40.801  11.887
83014W        W48274   5.828  16.804   3.163
83015W        W48275   5.413  38.388   1.667
83016W        W48276  31.130  41.921   3.663
83017W        W48277  35.803  12.761   3.334
83018W        W48278  31.438   5.063   3.263
83019W        W48279   0.278  43.025  10.682
83020W        W48280  31.451  27.524  14.439
83021W        W48281  38.455  28.451  12.242
83022W        W48282  36.852  38.296   0.307
83023W        W48283  43.452   3.890   4.521
83024W        W48284   8.788  19.707  13.360
83025W        W48285   4.708  29.107  12.008
83026W        W48286  39.895  40.318   3.669
83027W        W48287   7.263   4.177  10.465
83028W        W48288  26.091  34.445   3.279
83029W        W48289  44.335  25.539  11.442
83030W        W48290  14.273  24.529   4.564
83031W        W48291  27.254  26.945   0.806
83032W        W48292  23.019  42.958   0.842
83033W        W48293  29.287  14.646  10.786
83034W        W48294  39.807  10.846   3.565
83035W        W48295  21.610  43.597   0.281
83036W        W48296  30.765   7.772   2.331
83037W        W48297   5.604  20.942  12.077
83038W        W48298   5.769  17.755   0.652
83039W        W48299  26.057  22.125   1.984
83040W        W48300  26.212  43.067  11.170
83041W        W48301  12.232  32.488   1.959
83042W        W48302   7.785   2.129  10.764
83043W        W48303  39.594   4.870  11.059
83044W        W48304  12.636  39.860  11.466
83045W        W48305   1.514  37.061   3.011
83046W        W48306  30.409   5.871   3.144
83047W        W48307  26.815  33.678   2.393
83048W        W48308  43.405  44.114  10.734
83049W        W48309  10.731  15.740   1.695
83050W        W48310  35.075  14.666  10.663
83051W        W48311  21.490  11.374  11.485
83052W        W48312  18.290  23.753   1.929
83053W        W48313   0.272   5.928   0.304
83054W        W48314  17.027  17.270  11.113
83055W        W48315   9.416  39.336  10.521
83056W        W48316   8.609  14.852   1.338
83057W        W48317  31.970   8.432   1.915
83058W        W48318  39.941   1.228   3.846
83059W        W48319  14.609  28.524  13.094
83060W        W48320  17.778  35.303   4.183
83061W        W48321  28.923   3.584  13.508
83062W        W48322   4.454  26.135  14.265
83063W        W48323  31.359  21.576   4.663
83064W        W48324  31.967  43.782  14.771
83065W        W48325  22.108  38.488  14.795
83066W        W48326  26.918  10.637   4.782
83067W        W48327  36.076  19.010   1.862
83068W        W48328  15.683  43.868   0.915
83069W        W48329  29.355   8.563   2.716
83070W        W48330  15.118   6.344  13.473
83071W        W48331  25.349  19.742  10.767
83072W        W48332  33.533  21.779   0.976
83073W        W48333  10.724  30.428  14.837
83074W        W48334  34.116  39.981   0.864
83075W        W48335  20.511  44.238  13.361
83076W        W48336  31.439  30.733  13.912
83077W        W48337  31.240   7.618  11.027
83078W        W48338  29.553   7.891   1.887
83079W        W48339  17.158   3.910   0.021
83080W        W48340  27.763   9.177  10.710
83081W        W48341  40.034  15.744  13.899
83082W        W48342   1.121  43.597   0.730
83083W        W48343   9.882  42.890  10.657
83084W        W48344   6.706  41.250   4.170
83085W        W48345  27.059   5.647   0.375
83086W        W48346  21.039  32.102   3.307
83087W        W48347  13.330  41.827   2.185
83088W        W48348  15.703  12.232  12.451
83089W        W48349  11.542  39.124   1.757
83090W        W48350  40.270  30.975   3.758
83091W        W48351   0.493   1.892  13.454
83092W        W48352  39.438  17.560   0.187
83093W        W48353  26.551  44.782   2.139
83094W        W48354   3.893  38.397   1.785
83095W        W48355  15.239  29.533  10.725
83096W        W48356   4.934  20.847  14.200
83097W        W48357  17.256  37.074  14.302
83098W        W48358  26.240  24.502   3.080
83099W        W48359  29.498   0.191   3.089
83100W        W48360  17.089   1.005  12.097
83101W        W48361  11.778  15.103   3.361
83102W        W48362  22.299  20.016  11.564
83103W        W48363  22.373  11.863  12.576
83104W        W48364   6.489  22.482  13.399
83105W        W48365  39.871  29.170   1.713
83106W        W48366  17.334  25.909   0.223
83107W        W48367  10.684  12.647  14.324
83108W        W48368  38.327  38.043   1.882
83109W        W48369  39.084  39.562  10.174
83110W        W48370  15.037  26.009   0.451
83111W        W48371  32.149  30.446   4.149
83112W        W48372   4.417  40.387   2.439
83113W        W48373  10.700   5.692  10.715
83114W        W48374  28.159   6.210   3.194
83115W        W48375  28.232  35.762   1.441
83116W        W48376  41.246  38.441   1.212
83117W        W48377   5.743  42.520  12.621
83118W        W48378   0.880  22.076  12.552
83119W        W48379  38.950  33.270  10.748
83120W        W48380   8.141  26.058  13.159
83121W        W48381   2.057  32.819  13.377
83122W        W48382   9.212  40.504  12.112
83123W        W48383   5.703  20.294  10.598
83124W        W48384   0.821  38.256  13.260
83125W        W48385  25.658  21.218   5.077
83126W        W48386  27.706  14.681  10.472
83127W        W48387  34.833  10.375  12.908
83128W        W48388  28.238   9.781   0.763
83129W        W48389  43.908  22.071   0.494
83130W        W48390  37.954   4.469  11.516
83131W        W48391  34.902  21.732   4.299
83132W        W48392  41.967  12.015   2.537
83133W        W48393  36.500  30.413   1.264
83134W        W48394  43.244  35.521   2.868
83135W        W48395  39.800  25.161  10.675
83136W        W48396  12.726  43.431  11.500
83137W        W48397  23.133  31.123  11.536
83138W        W48398  37.013  20.744   3.780
83139W        W48399  39.839  13.116   0.948
83140W        W48400  18.332  31.241   1.800
83141W        W48401   3.010   0.012   3.639
83142W        W48402  16.026  21.281  12.427
83143W        W48403  20.292  23.629   3.736
83144W        W48404  24.110  37.456  14.800
83145W        W48405  18.208  10.301  14.324
83146W        W48406  10.210  38.206  11.367
83147W        W48407   4.019  41.860   1.296
83148W        W48408  18.606  25.300   2.331
83149W        W48409   3.717  19.166   4.216
83150W        W48410  29.426  22.781  12.191
83151W        W48411  11.121   3.410   0.940
83152W        W48412  20.107   1.726   2.454
83153W        W48413   2.276   2.944   4.197
83154W        W48414  28.636  30.904   1.339
83155W        W48415  34.907  40.349  12.615
83156W        W48416   7.029  30.187  10.126
83157W        W48417  39.397  35.972  12.316
83158W        W48418  25.644   4.788   5.025
83159W        W48419  20.685  26.880  13.916
83160W        W48420  20.573  36.143  13.002
83161W        W48421  14.593  16.187   3.604
83162W        W48422  42.027   4.734  12.914
83163W        W48423  27.461   5.306  12.010
83164W        W48424  29.047   2.402  14.458
83165W        W48425  14.844   4.228  13.468
83166W        W48426  38.046  19.020   4.688
83167W        W48427  25.155  26.585   0.330
83168W        W48428  42.306  42.868  11.946
83169W        W48429  25.447  13.156  10.905
83170W        W48430  31.124  28.468  14.378
83171W        W48431  39.572  32.384  12.968
83172W        W48432  11.431   4.723  12.300
83173W        W48433  27.058  36.942   1.691
83174W        W48434  18.880   0.308  12.446
83175W        W48435  40.962  31.213  12.361
83176W        W48436   9.579  39.803  10.760
83177W        W48437  43.816  27.099  13.464
83178W        W48438   3.336  29.439  12.988
83179W        W48439   3.687   8.233   0.733
83180W        W48440   7.558  40.134   2.779
83181W        W48441  18.663  33.313   1.918
83182W        W48442   9.948  40.769   3.398
83183W        W48443   1.946  15.402   1.320
83184W        W48444  14.840   0.342   1.905
83185W        W48445  43.507   4.826  13.537
83186W        W48446  40.355  30.372   4.527
83187W        W48447   4.546  35.033   3.500
83188W        W48448  41.245   9.190  12.629
83189W        W48449  25.219   9.635   1.415
83190W        W48450  35.966  31.576  10.941
83191W        W48451   4.694  16.737  10.643
83192W        W48452  43.614  24.489   0.431
83193W        W48453  34.985  19.206   4.642
83194W        W48454   0.403  24.695   0.230
83195W        W48455  15.842  15.662   0.437
83196W        W48456  21.001  30.424  11.059
83197W        W48457  10.034   1.706  11.166
83198W        W48458  22.424  27.104  14.475
83199W        W48459  29.573  30.465  12.062
83200W        W48460  21.700  18.230   0.799
83201W        W48461   5.459   5.533   0.846
83202W        W48462  11.819   4.450  13.705
83203W        W48463  18.264  41.944   0.214
83204W        W48464   7.451  25.964  10.167
83205W        W48465  36.132   6.879   1.745
83206W        W48466  10.301   3.524   0.123
83207W        W48467  29.610  42.735   2.095
83208W        W48468  43.307  23.115   4.555
83209W        W48469  27.423  25.095   2.486
83210W        W48470   8.888  20.733   2.831
83211W        W48471  42.327  20.425   4.484
83212W        W48472  44.286  33.079  11.456
83213W        W48473   4.741  30.913  10.629
83214W        W48474  33.954  43.304  11.039
83215W        W48475  41.516  31.307  11.602
83216W        W48476  42.124  40.010  13.008
83217W        W48477  40.534  31.631  14.472
83218W        W48478  16.411  27.592  12.404
83219W        W48479   6.366   5.895  14.573
83220W        W48480  43.959  28.630  14.284
83221W        W48481  44.743  25.621  11.752
83222W        W48482  40.779   5.196  13.083
83223W        W48483  44.102  28.311  10.633
83224W        W48484   3.540   5.615   1.742
83225W        W48485  29.088  41.521  11.668
83226W        W48486  29.975  43.595   0.867
83227W        W48487  31.604  35.368  12.504
83228W        W48488  29.353  39.820   1.939
83229W        W48489  36.445  20.714   2.189
83230W        W48490   6.527  23.021  13.399
83231W        W48491  44.773  22.488   3.139
83232W        W48492   0.307  14.938   3.334
83233W        W48493   1.015   9.668   1.430
83234W        W48494   8.569  34.490   2.371
83235W        W48495  11.839   4.927   4.158
83236W        W48496  38.299   5.832  12.947
83237W        W48497  17.692  37.926   0.977
83238W        W48498  26.897  41.258   4.592
83239W        W48499  41.825  40.583  11.900
83240W        W48500   8.276   2.481   1.934
83241W        W48501  34.386  35.627   4.065
83242W        W48502  15.837  17.462   3.696
83243W        W48503   5.702  37.040   1.391
83244W        W48504   3.766  18.308   1.706
83245W        W48505   3.270  35.866  10.686
83246W        W48506  29.424  37.704   2.766
83247W        W48507  24.034   8.509   4.599
83248W        W48508  11.365   3.909  11.606
83249W        W48509  33.566  41.018  12.845
83250W        W48510   7.941  36.165   5.155
83251W        W48511  28.305  35.711   4.582
83252W        W48512  29.832  14.821  14.975
83253W        W48513  42.158  43.263   2.915
83254W        W48514  13.776  15.650   4.007
83255W        W48515  24.165  36.431  14.834
83256W        W48516  21.417  23.081  11.971
83257W        W48517  20.177  39.762   3.411
83258W        W48518   4.916  29.259   4.106
83259W        W48519  13.210   5.664   1.794
83260W        W48520  16.184  19.161  10.652
83261W        W48521  43.991   7.676  13.366
83262W        W48522   1.883  37.617   1.215
83263W        W48523  25.864  20.321   0.316
83264W        W48524  20.466  41.355  11.361
83265W        W48525  20.365  43.366   0.463
83266W        W48526  27.738  38.487  13.604
83267W        W48527  12.935  31.957  11.630
83268W        W48528  25.528  30.788  14.009
83269W        W48529  17.022  26.665   4.712
83270W        W48530  35.532  39.582  14.197
83271W        W48531  42.813  23.265   0.045
83272W        W48532  43.362  28.221  12.160
83273W        W48533  13.716  36.464  12.398
83274W        W48534   1.837  35.060  14.845
83275W        W48535  35.925  19.309  13.434
83276W        W48536   6.643  13.671   4.697
83277W        W48537  30.427  37.803   1.636
83278W        W48538   6.317  11.359  13.047
83279W        W48539  30.656   3.274   4.054
83280W        W48540  27.758   2.971   1.337
83281W        W48541  25.865  34.301  11.606
83282W        W48542  29.082  43.894  14.039
83283W        W48543  25.649  37.341   3.319
83284W        W48544   9.175  25.210  13.999
83285W        W48545   5.319  30.488  13.811
83286W        W48546   6.453  33.016   0.685
83287W        W48547   4.389  40.553  11.471
83288W        W48548  27.394  32.619   0.277
83289W        W48549  33.336  21.143   2.731
83290W        W48550   6.612   9.379   0.910
83291W        W48551  25.555   3.491  13.089
83292W        W48552  12.163  26.524   2.843
83293W        W48553  10.226  41.360   1.397
83294W        W48554  39.743  28.611   0.848
83295W        W48555  28.310   9.912  14.398
83296W        W48556  41.570   9.395   2.822
83297W        W48557  21.659  25.296   0.275
83298W        W48558  18.181  13.284   4.865
83299W        W48559  13.464  33.887  14.864
83300W        W48560  20.450   8.878  14.266
83301W        W48561  21.748  20.096  14.970
83302W        W48562  27.896  15.323   0.809
83303W        W48563   2.708   5.830  11.612
83304W        W48564   1.866  25.332  13.978
83305W        W48565  12.515  28.003  13.876
83306W        W48566  34.167  30.809   3.786
83307W        W48567  12.220  31.150   4.563
83308W        W48568   1.653  37.982  13.821
83309W        W48569  22.121  33.705   1.568
83310W        W48570   7.084  37.090   3.693
83311W        W48571  39.260  16.069  10.847
83312W        W48572  29.977  29.621  11.600
83313W        W48573  43.090  43.557   0.472
83314W        W48574  25.107  30.377   1.604
83315W        W48575   5.948  12.171   3.712
83316W        W48576   8.552  38.562  14.796
83317W        W48577  24.001  24.923   9.725
83318W        W48578  43.237   6.745   3.795
83319W        W48579  32.501  13.389  12.045
83320W        W48580  30.856  27.426   2.325
83321W        W48581   5.153  28.477  10.720
83322W        W48582  26.943   7.615  14.776
83323W        W48583   0.785  38.969   3.907
83324W        W48584  13.346  16.500  13.059
83325W        W48585  10.611   3.905   1.476
83326W        W48586  32.116  43.775   4.814
83327W        W48587  11.341  36.334   4.191
83328W        W48588   7.182  33.865   3.293
83329W        W48589  14.260  40.470   4.388
83330W        W48590   3.483   4.447  11.549
83331W        W48591  33.431  43.318  11.931
83332W        W48592   5.377  10.114  11.169
83333W        W48593  20.935  24.110  14.085
83334W        W48594  17.018   3.093   0.162
83335W        W48595  27.249   6.288  14.729
83336W        W48596  11.272  13.898  11.465
83337W        W48597  33.088   1.973  13.148
83338W        W48598  38.548   3.416  12.781
83339W        W48599  28.977  34.934   3.067
83340W        W48600   8.191  23.063   4.761
83341W        W48601   3.100  28.041   4.609
83342W        W48602  16.318  42.138   0.470
83343W        W48603  30.210  37.316   3.146
83344W        W48604  15.906  32.916   0.500
83345W        W48605   9.142  30.250   1.823
83346W        W48606  25.894   2.781  11.223
83347W        W48607   8.633   8.980  11.674
83348W        W48608   8.646  34.513   4.540
83349W        W48609  30.925  12.413  10.692
83350W        W48610  35.671  17.145  10.734
83351W        W48611  33.193  31.705   1.441
83352W        W48612   6.908  30.485   3.381
83353W        W48613   8.824  19.257  11.499
83354W        W48614  29.272  22.290  12.075
83355W        W48615  18.088  17.330   3.639
83356W        W48616  39.178  21.550   2.442
83357W        W48617  24.773  26.173   1.739
83358W        W48618  28.484  33.080   0.266
83359W        W48619  33.357  23.224  13.492
83360W        W48620  14.037   4.405  13.924
83361W        W48621  22.484  12.762   0.685
83362W        W48622  35.422  26.511   3.733
83363W        W48623   3.976  22.713   3.260
83364W        W48624  18.958  37.563  10.971
83365W        W48625  30.147  17.572   1.952
83366W        W48626  19.565  30.395   2.096
83367W        W48627   9.729   1.032   4.482
83368W        W48628   7.208   6.015  13.357
83369W        W48629   9.003  33.305   3.282
83370W        W48630  28.453  42.720  11.062
83371W        W48631   2.270  40.066  12.643
83372W        W48632  10.992  18.783  14.776
83373W        W48633  31.698  35.352   0.501
83374W        W48634  32.869  20.739  10.673
83375W        W48635  36.004   2.470   3.747
83376W        W48636   3.754  18.749  12.563
83377W        W48637  40.490  32.547   4.330
83378W        W48638  15.025   8.852  10.484
83379W        W48639  24.010  36.377  12.094
83380W        W48640  34.146  23.436  12.856
83381W        W48641  14.330   5.503  14.792
83382W        W48642  23.650  18.789  12.139
83383W        W48643  38.290  26.034  13.394
83384W        W48644  38.955  31.949   4.858
83385W        W48645  21.184  27.100  10.716
83386W        W48646  36.454  25.105  10.406
83387W        W48647   6.628   3.600  10.659
83388W        W48648  24.066   7.015  13.404
83389W        W48649   0.896  44.474  13.770
83390W        W48650  12.277   6.743  13.271
83391W        W48651   6.604  29.947  12.629
83392W        W48652  44.244  25.368   1.257
83393W        W48653  42.054   0.368  10.650
83394W        W48654  34.525   7.338  10.738
83395W        W48655  29.812  25.857   0.276
83396W        W48656  33.961  28.254  13.045
83397W        W48657  32.105  16.118  13.916
83398W        W48658  17.337  40.926  12.493
83399W        W48659  21.044   2.295   1.803
83400W        W48660   1.738  14.739  10.754
83401W        W48661  15.647  18.894  12.989
83402W        W48662   0.361  33.982  10.977
83403W        W48663  12.975   0.309  12.097
83404W        W48664   8.453  41.520   2.788
83405W        W48665  17.808  10.311   1.841
83406W        W48666  34.959  37.090   4.978
83407W        W48667   6.355  15.135   0.437
83408W        W48668  34.281  17.986  13.119
83409W        W48669  18.142  24.340   2.954
83410W        W48670  17.796  37.581   1.723
83411W        W48671  29.612  18.250  11.551
83412W        W48672   8.007  14.895  12.065
83413W        W48673  26.202   2.898  10.192
83414W        W48674  16.769   3.956   2.303
83415W        W48675  13.536  12.867  14.999
83416W        W48676   0.903  43.906  10.656
83417W        W48677  37.342   3.538   0.414
83418W        W48678  36.499  27.700  11.011
83419W        W48679  30.924  10.654   1.422
83420W        W48680  24.872  31.505   2.898
83421W        W48681   6.271  18.528   1.211
83422W        W48682  40.073  14.197  14.987
83423W        W48683  37.996   0.916  11.859
83424W        W48684  28.142  43.937  14.441
83425W        W48685  19.683  40.567   2.908
83426W        W48686  36.368  16.104  14.841
83427W        W48687   2.353   5.214   2.169
83428W        W48688  42.674  21.129   2.663
83429W        W48689  32.234  18.672   4.547
83430W        W48690   5.835   7.124  11.527
83431W        W48691  35.844  30.114   4.561
83432W        W48692  23.027  31.036  10.560
83433W        W48693  19.542   7.670  14.795
83434W        W48694   3.219  14.318  10.451
83435W        W48695  44.022  22.665   0.804
83436W        W48696  36.928  11.324  14.991
83437W        W48697  33.922  34.883   4.347
83438W        W48698  10.194  19.050  12.230
83439W        W48699  14.780   6.141   3.232
83440W        W48700  42.196  27.479   4.617
83441W        W48701   4.370   4.008   1.813
83442W        W48702  12.581  29.194   0.330
83443W        W48703   4.237  14.170  12.457
83444W        W48704   4.797  36.331   0.771
83445W        W48705  40.333  15.257   1.208
83446W        W48706  43.459  14.410  14.227
83447W        W48707  37.922   7.775  10.852
83448W        W48708   4.208  12.884  12.061
83449W        W48709  38.506  13.339   3.979
83450W        W48710  44.236  16.390  13.749
83451W        W48711  13.165   1.934  14.317
83452W        W48712   0.907  31.983   3.045
83453W        W48713  43.246  23.269  10.542
83454W        W48714  43.543  22.215  12.539
83455W        W48715  29.419  21.926  13.789
83456W        W48716   7.272  15.340  11.650
83457W        W48717   6.367  33.820   0.336
83458W        W48718  11.899  29.069   0.799
83459W        W48719  33.841  29.145   1.755
83460W        W48720   4.282  18.255   0.049
83461W        W48721  37.995  36.609   1.265
83462W        W48722  44.727  11.819  12.273
83463W        W48723  44.391  40.607   4.616
83464W        W48724  44.845  10.802  14.205
83465W        W48725  28.975  19.212   3.492
83466W        W48726  17.203   1.995  11.255
83467W        W48727   0.257  17.758   2.220
83468W        W48728   9.516  30.432  12.366
83469W        W48729   1.168  31.860   4.303
83470W        W48730  25.694   7.115  10.928
83471W        W48731  17.805  23.183  11.400
83472W        W48732  25.979  11.194   0.410
83473W        W48733  29.081  29.900   2.772
83474W        W48734  32.616   2.918  14.923
83475W        W48735  24.722  30.074   0.707
83476W        W48736  14.823  17.636   2.828
83477W        W48737  44.036  27.098  14.448
83478W        W48738  44.807  35.167   1.684
83479W        W48739  17.669  20.180   2.234
83480W        W48740  26.436  11.820  11.626
83481W        W48741   1.072  38.545   3.691
83482W        W48742  34.531  25.918   2.778
83483W        W48743  32.497  17.750  13.618
83484W        W48744  24.474  10.304  11.095
83485W        W48745   9.176   9.338  13.295
83486W        W48746   4.346  20.458  14.768
83487W        W48747  31.404  35.878   4.052
83488W        W48748  43.952  16.079  12.573
83489W        W48749   9.085   8.738  11.691
83490W        W48750   0.743  23.765  11.246
83491W        W48751   5.959  41.527   2.059
83492W        W48752  26.888  15.050   0.780
83493W        W48753  41.855  24.144   0.197
83494W        W48754  20.576   8.112  10.943
83495W        W48755   0.823   6.861  13.018
83496W        W48756  31.840  25.226   1.386
83497W        W48757  12.155  39.302   2.007
83498W        W48758   6.624  29.255   5.140
83499W        W48759  11.170  26.537   1.779
83500W        W48760  40.206  21.665  11.154
83501W        W48761   0.390  28.646  14.477
83502W        W48762  35.517  38.053   4.364
83503W        W48763  25.111  35.071   1.862
83504W        W48764   6.075  18.465  14.759
83505W        W48765  36.534   3.226  10.837
83506W        W48766  34.817  40.740   2.279
83507W        W48767   4.796  38.817  10.098
83508W        W48768  42.402   8.433   2.502
83509W        W48769  30.652  10.972   1.701
83510W        W48770  13.586   3.516   2.756
83511W        W48771  17.124  37.259   0.897
83512W        W48772  27.048  11.882   0.973
83513W        W48773  13.665  40.854   2.805
83514W        W48774  39.021   2.610   1.895
83515W        W48775  43.830   3.802  11.217
83516W        W48776  20.242   5.652   2.259
83517W        W48777   2.824   0.910  13.102
83518W        W48778  18.589  30.995  10.361
83519W        W48779  31.469   5.943   1.741
83520W        W48780  29.967   6.324   0.229
83521W        W48781  37.420  23.582  12.396
83522W        W48782  10.332   8.879  14.561
83523W        W48783  38.321   4.443   0.908
83524W        W48784  26.510  33.850  12.116
83525W        W48785   3.233  18.329  12.130
83526W        W48786  21.310   8.095  11.036
83527W        W48787  31.923  29.143   0.311
83528W        W48788  30.432   1.518  12.128
83529W        W48789  36.697  29.686  11.196
83530W        W48790  27.503  28.156  13.371
83531W        W48791   0.481  42.537  14.875
83532W        W48792  16.813   0.041   2.791
83533W        W48793  10.241   4.835   3.707
83534W        W48794  16.305  41.674   4.989
83535W        W48795  44.568  10.231   1.429
83536W        W48796  39.424  32.424  14.321
83537W        W48797  14.541  22.712  10.317
83538W        W48798  15.019   2.724   0.484
83539W        W48799  42.422  41.031  14.853
83540W        W48800  42.892  31.454  12.509
83541W        W48801  22.680  28.156   2.329
83542W        W48802  27.969  27.438  14.783
83543W        W48803  28.993  10.729  13.453
83544W        W48804  14.540  42.624   3.188
83545W        W48805   5.890  35.460   4.897
83546W        W48806  34.306   4.346  12.576
83547W        W48807   2.370  29.962   3.388
83548W        W48808   5.113  24.522   0.419
83549W        W48809   2.985   2.504   3.826
83550W        W48810  39.827  38.807  11.976
83551W        W48811  24.251  44.471  13.583
83552W        W48812  14.220  38.819   0.973
83553W        W48813  21.016  30.974  10.777
83554W        W48814  25.560   4.807   0.816
83555W        W48815  29.584   9.618  12.616
83556W        W48816  31.526  21.994  10.203
83557W        W48817   0.495  27.539   0.328
83558W        W48818  15.478  37.963  12.406
83559W        W48819  37.858  16.137  13.582
83560W        W48820  24.150  13.226  12.525
83561W        W48821  16.545  17.954  13.364
83562W        W48822  20.546  10.907   2.231
83563W        W48823   2.054   8.633   5.129
83564W        W48824   1.666  14.253  10.556
83565W        W48825   0.908  15.418  11.100
83566W        W48826   1.376  28.059   0.887
83567W        W48827  42.244  24.800  11.264
83568W        W48828   9.545  29.532  14.802
83569W        W48829   6.466   1.838   4.568
83570W        W48830   7.736  21.032   2.379
83571W        W48831  22.240  25.315   2.762
83572W        W48832  36.656  19.267   2.656
83573W        W48833  16.332   2.259  12.608
83574W        W48834   5.657  29.985   2.881
83575W        W48835  19.773  42.506  14.594
83576W        W48836  37.918  31.317  12.466
83577W        W48837  22.503  29.937   1.904
83578W        W48838  27.940  34.951   1.761
83579W        W48839  13.065  28.769  12.920
83580W        W48840  31.884   5.215  13.151
83581W        W48841  32.413  17.277  11.376
83582W        W48842  14.811  17.520   0.499
83583W        W48843   7.305  28.152   0.568
83584W        W48844  10.805  19.263  14.717
83585W        W48845  29.522  22.041   1.821
83586W        W48846   1.155  16.291  14.895
83587W        W48847   2.375  40.782  13.886
83588W        W48848  26.573  26.555   2.539
83589W        W48849   3.574  22.660   4.070
83590W        W48850  38.963   9.115  14.842
83591W        W48851  16.487  20.697   1.293
83592W        W48852  23.542  44.259   1.355
83593W        W48853  26.460   9.126  13.889
83594W        W48854  26.521  29.963  12.169
83595W        W48855   2.881  23.274   0.343
83596W        W48856   1.847  15.083   1.754
83597W        W48857  23.296  27.995   1.257
83598W        W48858  39.057  26.503  13.411
83599W        W48859   4.155  30.609  11.563
83600W        W48860  35.814  15.808  14.474
83601W        W48861   7.828  18.599   1.625
83602W        W48862   0.893   9.159   3.621
83603W        W48863  11.807   3.456  13.359
83604W        W48864  40.024  17.643  13.578
83605W        W48865  17.822  28.946   3.084
83606W        W48866  21.939  10.457  14.368
83607W        W48867  37.174  20.544   2.844
83608W        W48868  26.277  21.627   1.306
83609W        W48869  14.098   9.415   4.095
83610W        W48870   1.199  19.726   3.226
83611W        W48871  35.433  17.479  12.524
83612W        W48872  34.818   1.475   9.855
83613W        W48873  34.567  36.582   4.374
83614W        W48874  12.536  35.106   2.851
83615W        W48875   2.890  42.363  14.284
83616W        W48876  43.366  32.166   3.154
83617W        W48877  32.455  39.646   3.125
83618W        W48878  10.294  17.309   4.721
83619W        W48879  16.587  14.201  14.504
83620W        W48880  31.260  12.178   0.329
83621W        W48881  39.728  24.859   0.458
83622W        W48882  43.585  14.911  13.278
83623W        W48883  42.235  30.940  10.697
83624W        W48884   7.600  39.202   3.315
83625W        W48885  33.294  30.466  11.011
83626W        W48886  32.945  44.950  11.172
83627W        W48887  24.205  41.305  13.383
83628W        W48888  23.045   1.340   4.585
83629W        W48889  42.743  31.136   0.657
83630W        W48890  44.144   5.871  13.892
83631W        W48891  30.942  41.332   0.649
83632W        W48892  22.175  44.951   1.333
83633W        W48893  26.184  43.883  13.518
83634W        W48894   6.890  35.988  11.077
83635W        W48895  16.243   3.477  14.262
83636W        W48896  44.083  31.464   0.712
83637W        W48897  18.331  44.981   1.253
83638W        W48898  37.873   8.443  12.882
83639W        W48899  33.068  31.123   4.533
83640W        W48900  40.367  29.885  11.643
83641W        W48901  42.094  20.605  10.818
83642W        W48902  15.292   8.374   1.352
83643W        W48903  32.997   5.642  10.584
83644W        W48904  41.405   1.309   3.621
83645W        W48905  42.511   7.832   0.274
83646W        W48906   9.817  40.281  10.695
83647W        W48907  36.500  38.441  14.450
83648W        W48908   0.216  40.791  13.028
83649W        W48909   0.941  41.030  14.020
83650W        W48910  12.173  24.140   0.908
83651W        W48911  41.691   0.835   5.127
83652W        W48912   3.851  37.371   2.207
83653W        W48913  11.212  12.794  11.717
83654W        W48914   6.842  23.591   2.796
83655W        W48915  10.341  33.653  13.823
83656W        W48916  20.289  28.213   2.353
83657W        W48917  11.217  10.883  13.821
83658W        W48918  10.487  35.813  10.255
83659W        W48919  26.168  11.421  11.502
83660W        W48920  24.106  41.375   0.254
83661W        W48921  27.978  27.235  11.488
83662W        W48922  27.282  40.631   0.252
83663W        W48923  22.509   0.743   1.860
83664W        W48924  42.872  36.468  11.052
83665W        W48925  22.670  39.495  10.524
83666W        W48926  15.356  18.705  14.483
83667W        W48927  26.253   8.419   3.254
83668W        W48928   2.509  28.186   0.921
83669W        W48929  39.251   9.814  11.914
83670W        W48930   3.340   1.832   4.871
83671W        W48931  19.173   4.267   2.895
83672W        W48932  11.696  33.512   3.138
83673W        W48933  25.906  37.936  14.296
83674W        W48934  34.406  19.473   2.915
83675W        W48935  38.915  32.487  14.139
83676W        W48936  23.786  42.633   2.202
83677W        W48937  16.597  10.792  13.482
83678W        W48938   9.916  37.816   3.339
83679W        W48939  15.825  37.530  13.766
83680W        W48940  41.216  11.354   2.784
83681W        W48941   0.746  41.890  13.326
83682W        W48942  21.378  25.100  12.956
83683W        W48943  43.473  25.587  11.366
83684W        W48944  33.112   6.653  10.678
83685W        W48945  32.937  42.023   3.661
83686W        W48946  34.541  37.444  13.565
83687W        W48947  18.135  17.720   3.275
83688W        W48948  41.006  34.041  10.352
83689W        W48949  17.125  37.868  14.782
83690W        W48950  36.000  23.708   2.680
83691W        W48951  29.812  31.897   4.311
83692W        W48952  22.282  25.130   1.775
83693W        W48953  24.720   5.930  14.488
83694W        W48954  26.194  22.525  11.059
83695W        W48955  26.037  35.117  12.360
83696W        W48956  29.454   6.903  12.513
83697W        W48957  36.357  13.329   3.785
83698W        W48958   2.246  30.446  13.080
83699W        W48959  22.621  26.138  12.986
83700W        W48960  18.781  34.049   4.673
83701W        W48961  10.656  28.602   4.603
83702W        W48962  38.828  34.549  14.685
83703W        W48963  37.562  13.033   5.017
83704W        W48964  30.181  12.596   2.786
83705W        W48965   0.941  14.699   2.649
83706W        W48966  17.848   6.862   2.803
83707W        W48967  37.108  27.053  11.133
83708W        W48968  30.726  42.998   1.359
83709W        W48969  44.486  22.220  14.505
83710W        W48970  14.482  22.239  14.290
83711W        W48971   2.889  22.738  12.477
83712W        W48972  11.841  29.149  10.747
83713W        W48973   6.341  29.153   3.167
83714W        W48974  12.783  17.779  12.113
83715W        W48975   5.199  44.820   2.795
83716W        W48976   1.894  29.841  12.625
83717W        W48977  28.921  36.809   0.844
83718W        W48978   1.379  39.303  14.567
83719W        W48979  14.138  14.197   3.958
83720W        W48980  38.033  19.810  11.674
83721W        W48981  29.651  41.776   3.752
83722W        W48982  18.496   9.412   3.640
83723W        W48983  21.011  27.581  10.701
83724W        W48984  43.516  15.816   3.100
83725W        W48985  15.753  39.880  10.741
83726W        W48986  38.459   5.714   2.890
83727W        W48987   7.888  25.710  12.607
83728W        W48988  31.411  28.547   1.646
83729W        W48989   0.309  32.554   3.086
83730W        W48990  11.356  31.677  11.577
83731W        W48991  28.873   5.881   2.317
83732W        W48992  22.258  43.492  10.627
83733W        W48993  14.625  42.107   3.155
83734W        W48994  20.218  44.988   4.295
83735W        W48995  36.610  21.271  14.530
83736W        W48996   6.259  11.629   3.867
83737W        W48997  36.806  27.165  13.584
83738W        W48998  31.981  16.114  12.824
83739W        W48999  29.139  31.920  13.547
83740W        W49000  43.005  14.641   2.697
83741W        W49001  10.795  22.698  11.568
83742W        W49002  31.704  20.801   3.367
83743W        W49003  38.571   7.787   1.961
83744W        W49004  44.647   5.412  13.445
83745W        W49005  37.526  42.954   4.806
83746W        W49006  38.969  42.856   1.619
83747W        W49007   5.385   9.860  14.862
83748W        W49008  15.101  24.409   2.277
83749W        W49009  34.631  35.281   4.614
83750W        W49010  23.816  13.882  11.855
83751W        W49011   6.391  43.956   2.211
83752W        W49012  36.914   2.362  10.358
83753W        W49013  12.058  18.197  13.824
83754W        W49014  23.969  10.265   1.783
83755W        W49015  10.036  25.711  13.264
83756W        W49016  17.874   6.789  10.647
83757W        W49017   2.794  38.319  14.810
83758W        W49018  16.323  31.531   1.216
83759W        W49019   4.293   9.633   0.824
83760W        W49020  28.648  25.099  10.608
83761W        W49021  12.233   0.242  12.636
83762W        W49022  42.260  43.730   3.144
83763W        W49023  22.751  20.876  11.983
83764W        W49024  38.894  21.563  11.941
83765W        W49025   0.521  34.046   0.223
83766W        W49026  26.191  16.181  10.692
83767W        W49027  30.610  14.071   1.594
83768W        W49028  36.898   3.778   0.304
83769W        W49029  12.294  21.541  13.784
83770W        W49030  13.751  16.793   1.632
83771W        W49031  11.087  17.115   3.246
83772W        W49032   6.722  19.297  12.808
83773W        W49033  41.813  17.095  11.218
83774W        W49034  38.760  41.907  10.700
83775W        W49035  37.869  14.782  14.995
83776W        W49036  22.139  35.857  13.645
83777W        W49037  34.120   6.410   0.266
83778W        W49038  34.719  10.884   2.781
83779W        W49039  38.315  28.056  11.092
83780W        W49040  28.604  22.069   3.546
83781W        W49041  21.206  30.864  11.227
83782W        W49042  42.124  39.447   4.647
83783W        W49043  28.577  35.123   4.204
83784W        W49044   0.039  34.183   1.112
83785W        W49045   5.335   9.120  12.845
83786W        W49046   1.553  25.656  13.555
83787W        W49047  25.442  32.407  11.597
83788W        W49048   9.749  39.088  13.990
83789W        W49049  26.615  33.568   1.046
83790W        W49050  40.921   7.283   2.612
83791W        W49051  13.407  24.680  11.590
83792W        W49052  30.627   1.766  14.406
83793W        W49053  41.055  19.963  13.241
83794W        W49054  16.341  23.601   0.456
83795W        W49055  25.593  14.767   2.906
83796W        W49056  19.627   9.629   1.339
83797W        W49057  35.804  21.094  12.920
83798W        W49058  12.703   7.906   2.910
83799W        W49059   5.315  39.537   0.477
83800W        W49060  41.005  28.621  13.829
83801W        W49061  12.649  32.218   2.269
83802W        W49062  41.642   4.693  13.326
83803W        W49063  39.965  41.774   4.599
83804W        W49064  19.848  22.439  13.621
83805W        W49065  29.216  20.159  11.105
83806W        W49066  44.516  25.938  12.112
83807W        W49067   5.303  27.171  13.814
83808W        W49068  44.580  27.670   3.694
83809W        W49069   8.303  10.659  12.661
83810W        W49070  33.585  36.130  10.917
83811W        W49071  28.158  31.562  12.267
83812W        W49072  31.381   7.953  14.425
83813W        W49073  25.926   4.290   2.538
83814W        W49074   4.122  14.669  10.721
83815W        W49075   5.921  15.447  14.524
83816W        W49076   3.713  21.822   2.881
83817W        W49077  36.545  29.148   0.916
83818W        W49078   2.944   3.919   4.030
83819W        W49079  31.329  42.339  13.908
83820W        W49080  14.403  10.807  11.602
83821W        W49081  27.778  37.638  11.182
83822W        W49082  22.921  19.042   4.603
83823W        W49083   1.313  29.821  10.135
83824W        W49084  21.470  22.109  10.987
83825W        W49085  26.713  14.509  12.592
83826W        W49086  13.165  33.512   3.417
83827W        W49087  25.011   9.484  14.744
83828W        W49088  38.956   1.898  10.045
83829W        W49089  15.398  41.855   4.433
83830W        W49090  14.671   7.689   1.447
83831W        W49091  31.655  37.610   4.158
83832W        W49092  40.987  27.691  13.633
83833W        W49093  15.753  32.928   4.677
83834W        W49094   3.262  22.668   1.460
83835W        W49095  21.886  22.074  10.102
83836W        W49096   1.862  38.673  10.694
83837W        W49097   0.526  44.434   2.650
83838W        W49098  25.059  20.019  13.117
83839W        W49099  27.182  42.339  14.338
83840W        W49100  12.717  10.383   2.767
83841W        W49101  41.453  25.961  14.012
83842W        W49102  15.120  28.076   1.477
83843W        W49103  40.486   6.666  14.563
83844W        W49104  18.737  36.127   1.833
83845W        W49105   6.212   4.070  11.181
83846W        W49106  19.341   7.636   5.404
83847W        W49107  15.637  23.727   2.159
83848W        W49108  37.622  17.121   4.159
83849W        W49109  34.336  11.301   2.779
83850W        W49110  27.036  21.306   1.473
83851W        W49111  17.932  37.452   0.598
83852W        W49112  29.369  15.188   2.592
83853W        W49113  20.601   9.797  13.633
83854W        W49114  21.196  20.696  11.948
83855W        W49115  21.213  27.524  13.523
83856W        W49116  42.785  30.936  13.070
83857W        W49117   9.332  31.769   2.149
83858W        W49118  28.426   0.666  10.427
83859W        W49119  28.408  25.673   3.217
83860W        W49120  28.487  15.699  14.408
83861W        W49121  13.697  29.333   2.252
83862W        W49122  13.337  22.444  11.740
83863W        W49123  44.258  36.493   4.349
83864W        W49124  11.703  25.601  14.417
83865W        W49125   0.392  33.501   1.981
83866W        W49126  31.534  44.424   3.740
83867W        W49127  37.809  13.349  14.360
83868W        W49128   4.720  26.183  13.402
83869W        W49129  36.113   8.739   2.150
83870W        W49130  10.861  12.232   1.318
83871W        W49131  10.748  34.724   3.561
83872W        W49132   8.183  12.264  12.368
83873W        W49133  16.774  16.154   1.103
83874W        W49134   2.495  43.077  12.100
83875W        W49135  38.863   2.378   5.118
83876W        W49136  25.643  44.434   1.199
83877W        W49137  36.418  21.654  10.535
83878W        W49138   3.839  28.191  12.755
83879W        W49139  24.654  22.206   0.299
83880W        W49140   1.835  21.259  11.067
83881W        W49141  32.649  41.446   0.923
83882W        W49142  23.147  35.567  12.061
83883W        W49143  24.036  34.914   2.668
83884W        W49144   6.698   8.271  14.353
83885W        W49145  36.667   8.642   2.230
83886W        W49146  22.040  38.884   2.261
83887W        W49147   1.108  19.581  10.502
83888W        W49148  37.333  17.586   1.267
83889W        W49149  15.785  10.871   4.149
83890W        W49150  11.448  24.725   1.800
83891W        W49151  16.076  19.456   4.160
83892W        W49152   1.747  15.692  10.377
83893W        W49153  33.623  26.871  14.325
83894W        W49154  42.005  12.659  13.392
83895W        W49155   9.959  39.919   3.710
83896W        W49156   7.522  24.157   0.987
83897W        W49157  32.012  34.077   1.698
83898W        W49158  13.122  17.684   1.872
83899W        W49159   9.844  14.651  10.423
83900W        W49160  44.220  38.345   1.022
83901W        W49161  44.135  30.096  11.129
83902W        W49162  37.614   6.313  13.561
83903W        W49163  14.296   7.422  12.005
83904W        W49164  41.891   2.909   4.912
83905W        W49165  32.878  43.177  14.834
83906W        W49166  27.417  23.112   0.402
83907W        W49167   3.042  29.611  11.333
83908W        W49168  21.596   2.210   2.379
83909W        W49169  17.845  21.902   3.302
83910W        W49170  22.203  23.776  13.710
83911W        W49171   6.129  36.059  13.735
83912W        W49172  37.612  37.459   1.857
83913W        W49173   8.647  21.538   4.012
83914W        W49174  16.736  15.291  12.106
83915W        W49175   0.445   0.889   4.732
83916W        W49176   0.810  15.360   9.803
83917W        W49177  39.324  19.475   2.859
83918W        W49178  30.921  11.094  12.102
83919W        W49179  41.506  17.076  14.273
83920W        W49180   4.544   3.933   1.294
83921W        W49181  11.641  41.337   4.631
83922W        W49182  27.635  38.309   0.418
83923W        W49183  10.875   6.509  12.453
83924W        W49184  23.634  33.475   3.783
83925W        W49185  14.659  20.177   3.325
83926W        W49186  11.736   0.855   2.703
83927W        W49187  31.925  37.458  14.275
83928W        W49188   9.207  38.628  14.509
83929W        W49189   5.505  27.609  10.331
83930W        W49190  34.969  18.254  13.296
83931W        W49191   8.651  26.397  13.808
83932W        W49192   7.275  24.066  14.039
83933W        W49193   5.344  32.947   1.784
83934W        W49194  20.320  18.260  13.655
83935W        W49195  40.749   5.046   2.947
83936W        W49196  21.170  26.644   2.419
83937W        W49197  31.056  18.679   3.245
83938W        W49198  33.588  11.794   5.251
83939W        W49199  19.781  19.100   0.087
83940W        W49200  36.613  13.284   0.759
83941W        W49201   6.272  39.600   2.596
83942W        W49202  41.303  27.036   3.160
83943W        W49203  36.725  43.943  14.961
83944W        W49204  34.063  32.888   2.347
83945W        W49205  32.309  29.617  13.053
83946W        W49206   7.882  31.517   1.818
83947W        W49207  10.670  15.244  12.389
83948W        W49208  31.484  25.354   2.635
83949W        W49209  39.653  43.380   1.286
83950W        W49210  44.807  30.528   1.165
83951W        W49211  27.229  27.528  11.551
83952W        W49212   0.083   2.826   3.230
83953W        W49213   6.922  18.214   3.009
83954W        W49214  37.577   9.328   4.085
83955W        W49215   5.119  33.570   3.056
83956W        W49216   2.239  36.486   0.582
83957W        W49217  42.523  32.250  14.068
83958W        W49218  39.719  24.605   1.709
83959W        W49219  34.067  26.606  13.651
83960W        W49220  38.030  33.426   2.763
83961W        W49221  17.163  14.635   2.086
83962W        W49222  31.017  37.811  13.919
83963W        W49223  33.517   4.667  14.339
83964W        W49224  18.584  10.296   3.692
83965W        W49225  36.118  44.801  11.098
83966W        W49226  15.402  31.097  10.685
83967W        W49227  13.204  42.084   1.390
83968W        W49228  17.481  44.884   3.226
83969W        W49229  39.025  38.034  13.281
83970W        W49230  29.975  32.330   4.575
83971W        W49231  18.110  43.222   4.591
83972W        W49232  23.006  37.845   1.165
83973W        W49233  32.850  14.796   0.842
83974W        W49234   7.720   1.943  14.033
83975W        W49235  37.947   9.555   2.725
83976W        W49236   6.453  10.387   1.662
83977W        W49237   9.003  18.079   3.092
83978W        W49238  19.210  40.321   1.735
83979W        W49239  41.014  10.075   2.377
83980W        W49240  26.643  21.065   0.388
83981W        W49241  21.073  25.244  11.649
83982W        W49242  26.607  21.944   9.587
83983W        W49243  11.892  28.453  11.516
83984W        W49244  42.905  11.884  11.966
83985W        W49245  26.137  39.427  14.462
83986W        W49246   0.077  30.397  12.345
83987W        W49247  29.521  42.590   2.829
83988W        W49248   1.366  10.340   2.751
83989W        W49249  19.930   0.287  11.150
83990W        W49250  27.625  13.649   4.628
83991W        W49251  34.900  30.275  14.388
83992W        W49252  42.933  33.664   4.658
83993W        W49253  39.927   3.912  11.108
83994W        W49254  30.469  19.555   0.750
83995W        W49255   0.918  14.840   2.155
83996W        W49256   8.826  25.804   0.987
83997W        W49257  27.599  41.832   1.894
83998W        W49258  20.147  27.501   0.514
83999W        W49259  26.007  37.013  14.861
84000W        W49260  19.332   4.157  14.353
84001W        W49261  39.696  14.659  11.552
84002W        W49262  20.308  41.237   3.571
84003W        W49263  22.995  23.536   3.695
84004W        W49264  27.149  16.859  14.653
84005W        W49265  20.981  39.919  10.740
84006W        W49266  26.119  11.399   2.354
84007W        W49267  36.134  39.993  11.872
84008W        W49268  17.659  44.686  13.821
84009W        W49269  41.511  25.293  10.676
84010W        W49270  42.849  20.582   1.806
84011W        W49271  29.996   9.928  12.969
84012W        W49272  10.365  44.509   2.812
84013W        W49273   1.848  22.727   1.729
84014W        W49274  18.041  41.224  10.992
84015W        W49275   9.042  32.407   4.038
84016W        W49276  15.727  11.355   0.524
84017W        W49277  16.662  25.387   1.374
84018W        W49278   7.822  15.068   3.332
84019W        W49279  37.825  14.268  14.765
84020W        W49280  26.741   0.328   2.256
84021W        W49281  28.021  27.149   4.312
84022W        W49282  42.910  24.206  10.728
84023W        W49283   5.914  17.952  13.526
84024W        W49284  33.700  30.613   0.695
84025W        W49285  21.468  37.927  14.007
84026W        W49286  18.699  22.477   1.943
84027W        W49287   2.172  42.893   3.570
84028W        W49288   0.538  10.593   5.121
84029W        W49289   8.160  22.558  11.876
84030W        W49290  25.630  24.110  14.792
84031W        W49291  34.068  33.412   2.225
84032W        W49292  39.776  19.501  12.886
84033W        W49293  32.548   3.240   3.281
84034W        W49294  19.640  36.362   2.911
84035W        W49295  17.679   1.622  14.059
84036W        W49296  18.935   7.857   2.756
84037W        W49297  21.557   6.702  13.969
84038W        W49298  15.744  31.555  10.509
84039W        W49299  12.625   2.307   1.801
84040W        W49300  41.281  25.530  13.591
84041W        W49301  35.088  15.887  13.298
84042W        W49302  15.849  42.450   1.888
84043W        W49303   7.920  32.052   0.934
84044W        W49304  29.237  14.673   2.773
84045W        W49305  44.854  22.566  11.358
84046W        W49306  42.408  15.538   0.290
84047W        W49307  10.083  34.168   4.780
84048W        W49308  30.398  11.599   3.695
84049W        W49309  25.613  11.359  14.850
84050W        W49310  43.620  41.109   4.889
84051W        W49311  24.070  32.401   2.231
84052W        W49312  27.142   6.307  13.758
84053W        W49313   1.431  13.746   0.437
84054W        W49314  21.016  14.717   1.825
84055W        W49315   5.551   5.382  11.924
84056W        W49316  34.098  41.678   0.708
84057W        W49317  29.657  21.206   0.343
84058W        W49318  26.986   3.911   1.556
84059W        W49319  18.108  14.219   3.811
84060W        W49320   7.876   8.441  11.122
84061W        W49321  11.377  28.051   2.731
84062W        W49322   1.870  11.753   3.795
84063W        W49323  18.597   8.735  10.695
84064W        W49324   5.888  11.115  11.933
84065W        W49325  36.884  41.452  14.738
84066W        W49326   7.679  39.032  11.609
84067W        W49327   2.766  36.578  10.666
84068W        W49328  13.994  32.047  12.942
84069W        W49329  11.202  42.699   5.008
84070W        W49330  12.678  33.923  14.339
84071W        W49331  42.658   8.234  12.447
84072W        W49332   5.225   8.607   3.691
84073W        W49333  13.174  22.232   0.328
84074W        W49334  43.883   8.556  12.626
84075W        W49335  15.018  31.358  13.463
84076W        W49336  25.255  16.278  13.862
84077W        W49337   6.352  35.137  14.129
84078W        W49338   9.017  42.752   1.118
84079W        W49339  25.738  29.832   4.155
84080W        W49340  38.872  26.989   4.336
84081W        W49341  18.848  35.590  12.284
84082W        W49342  24.976   7.999   2.690
84083W        W49343   2.510  41.753  13.738
84084W        W49344  43.907  12.601   3.086
84085W        W49345  36.392  14.821   0.690
84086W        W49346  42.060  43.940   3.941
84087W        W49347  41.446  20.781  14.765
84088W        W49348  26.958  16.377   0.344
84089W        W49349  22.143  18.052   3.293
84090W        W49350  17.547  34.305   1.258
84091W        W49351  42.790   5.345   3.789
84092W        W49352   8.770  34.927   0.164
84093W        W49353   8.950  12.954   5.065
84094W        W49354  19.783  31.451  14.757
84095W        W49355  26.658  30.048   2.248
84096W        W49356  23.649  31.989   3.208
84097W        W49357  43.782  29.538   2.282
84098W        W49358   6.413  26.748  10.885
84099W        W49359  43.078  43.744  12.508
84100W        W49360  42.281   2.203  14.778
84101W        W49361  14.073  20.125  10.683
84102W        W49362  11.711  32.847   0.318
84103W        W49363  41.460   3.719  12.038
84104W        W49364  24.588   1.315  10.308
84105W        W49365   8.053  28.224   3.517
84106W        W49366  29.183  31.605  12.049
84107W        W49367  20.076  37.691   0.971
84108W        W49368   2.144  12.687   1.499
84109W        W49369   9.546  27.716   4.891
84110W        W49370   4.017  31.007   1.226
84111W        W49371  16.373  17.005   3.242
84112W        W49372  20.584  44.983  11.563
84113W        W49373  17.854  39.037  11.007
84114W        W49374  41.962  44.037   3.456
84115W        W49375  22.712  33.895   3.695
84116W        W49376  25.577  10.196   4.577
84117W        W49377  21.526  29.696  14.552
84118W        W49378   2.395   7.901  11.000
84119W        W49379  29.711   9.110  12.500
84120W        W49380  19.206  29.134   4.495
84121W        W49381  37.953  11.445   2.867
84122W        W49382  23.599  36.862  14.420
84123W        W49383  23.047  27.167  12.670
84124W        W49384   1.994  44.213   1.053
84125W        W49385  38.493  41.505  12.822
84126W        W49386  12.834  33.003   2.843
84127W        W49387  17.156  21.582   0.343
84128W        W49388  11.714  42.320  14.422
84129W        W49389  26.019  39.846   3.684
84130W        W49390   7.193   9.690   1.254
84131W        W49391  23.731  34.299   5.141
84132W        W49392  34.528   7.799  11.635
84133W        W49393  32.522  33.059  10.998
84134W        W49394  12.419  18.808   0.336
84135W        W49395   2.728  29.981  11.188
84136W        W49396  44.976  37.960   4.852
84137W        W49397  25.975  20.081  14.250
84138W        W49398   8.189  33.369   1.297
84139W        W49399  33.600  31.477  13.713
84140W        W49400  43.404  19.054   2.856
84141W        W49401  18.408  19.667   1.783
84142W        W49402   3.764  37.070   1.420
84143W        W49403   9.218  24.920   0.355
84144W        W49404  29.970   3.698  10.764
84145W        W49405  10.775  29.988   1.940
84146W        W49406  31.877  36.153  11.662
84147W        W49407  38.958  21.619   4.606
84148W        W49408  38.611   3.516  12.265
84149W        W49409  23.553  36.621  12.011
84150W        W49410   4.948  18.339   0.838
84151W        W49411   2.836  27.874  10.176
84152W        W49412  39.378  28.720  12.846
84153W        W49413  36.509  20.371   2.596
84154W        W49414  23.721  31.953   4.901
84155W        W49415  39.823  28.049  12.888
84156W        W49416  35.269  10.813  14.077
84157W        W49417  13.205  30.282   4.952
84158W        W49418   5.744  26.435   9.743
84159W        W49419  16.966  24.514   1.270
84160W        W49420  21.700  34.316   3.730
84161W        W49421  19.190  33.829   0.060
84162W        W49422  37.228   4.145  11.940
84163W        W49423  20.764  17.131   4.775
84164W        W49424   7.931  23.903   4.203
84165W        W49425  28.248  37.924  12.084
84166W        W49426  17.128  35.023   4.581
84167W        W49427  40.582   9.706   0.275
84168W        W49428   2.065  32.916   0.943
84169W        W49429  44.849  27.018  14.914
84170W        W49430  26.882  15.017  12.601
84171W        W49431  36.864   4.948   3.610
84172W        W49432  14.637   2.366  14.005
84173W        W49433  33.973  31.722   2.012
84174W        W49434   9.312  42.611  12.396
84175W        W49435  38.894  22.608  14.814
84176W        W49436   4.967  16.327   0.703
84177W        W49437  11.777   5.432   1.893
84178W        W49438   2.811  10.884  13.822
84179W        W49439  24.619  23.638  11.118
84180W        W49440  28.638  16.818   0.336
84181W        W49441  14.720  38.496   1.314
84182W        W49442  40.290   1.036  13.432
84183W        W49443  18.614  18.698  13.556
84184W        W49444  39.815  22.162   2.008
84185W        W49445  15.483  32.539  14.638
84186W        W49446   5.664  36.861   3.738
84187W        W49447  21.286  16.247   4.615
84188W        W49448  32.508  23.947   2.211
84189W        W49449   9.326   0.275   3.841
84190W        W49450  32.478   5.654   4.140
84191W        W49451  20.954  24.617  11.105
84192W        W49452   9.900  10.703  11.670
84193W        W49453  11.628  16.280   2.814
84194W        W49454  12.579   5.516   2.775
84195W        W49455  19.618   9.158  10.567
84196W        W49456  23.079  23.149   4.478
84197W        W49457  13.607  18.646   1.719
84198W        W49458   3.823  10.789  14.471
84199W        W49459  11.611  31.622  10.600
84200W        W49460  36.569   1.487   2.479
84201W        W49461  32.411  36.799   1.899
84202W        W49462  36.313  32.756  13.051
84203W        W49463   7.115  35.006  12.782
84204W        W49464  11.228  36.063  13.035
84205W        W49465  19.039  23.450   5.082
84206W        W49466  29.684  14.707   4.426
84207W        W49467   8.324  33.685   3.667
84208W        W49468  21.790  17.207   0.764
84209W        W49469  38.861  19.089   4.402
84210W        W49470  44.827  12.147  11.033
84211W        W49471  41.719  19.678  14.248
84212W        W49472  28.766  15.123  12.996
84213W        W49473  31.103  44.481  12.023
84214W        W49474   7.601   1.489   0.383
84215W        W49475  31.021  35.441  13.906
84216W        W49476  40.283   2.279   0.456
84217W        W49477   6.480  37.483  14.757
84218W        W49478  35.604  17.036  11.654
84219W        W49479  17.094  34.454   1.467
84220W        W49480  29.490  10.399   3.283
84221W        W49481   3.906  40.138  12.939
84222W        W49482  15.281  15.804   1.294
84223W        W49483  37.857  15.757  10.349
84224W        W49484  18.564   3.843  14.881
84225W        W49485  33.374  14.331   0.786
84226W        W49486  38.044   6.151  14.673
84227W        W49487  23.481  33.335   1.890
84228W        W49488  31.365  16.626   3.663
84229W        W49489  26.484  39.311  14.069
84230W        W49490  40.031  39.984  11.641
84231W        W49491  16.002  22.519  14.562
84232W        W49492   2.200  43.706  13.464
84233W        W49493   7.451   6.589   4.679
84234W        W49494  18.148   7.229   4.164
84235W        W49495   0.656  16.332  13.120
84236W        W49496  11.312  27.996   4.202
84237W        W49497  15.249  39.849  14.994
84238W        W49498  41.874  14.258   4.098
84239W        W49499   4.579  23.939   1.579
84240W        W49500   1.735  38.014   3.742
84241W        W49501   1.942  41.795  11.989
84242W        W49502   0.641   2.793  13.902
84243W        W49503  34.069  36.893   0.839
84244W        W49504  33.348  36.239   3.756
84245W        W49505  41.249   9.761  11.059
84246W        W49506   0.917  13.783   0.480
84247W        W49507  37.986  40.797  14.856
84248W        W49508   8.172  26.712   1.676
84249W        W49509  25.361  18.632  11.183
84250W        W49510   3.736  17.654  10.443
84251W        W49511   5.367  11.065  12.059
84252W        W49512  11.679  40.895  12.299
84253W        W49513  19.644  19.631  14.223
84254W        W49514  36.537  39.609  14.016
84255W        W49515   4.785  20.266   0.282
84256W        W49516  25.958  14.138  11.741
84257W        W49517  18.064   9.716  10.662
84258W        W49518  27.224   3.860   4.217
84259W        W49519  40.108  31.468  12.111
84260W        W49520  18.218  23.674  10.676
84261W        W49521  12.420  43.313   1.410
84262W        W49522  24.175  13.705  12.751
84263W        W49523   0.904   9.324  10.659
84264W        W49524  40.131   7.203   4.553
84265W        W49525   3.179  20.644   4.556
84266W        W49526   4.389  19.763   0.913
84267W        W49527  24.062  32.298   3.321
84268W        W49528  14.019  36.069  12.217
84269W        W49529  25.289  21.680  14.703
84270W        W49530  31.426  35.123   2.352
84271W        W49531  14.398  38.099  12.882
84272W        W49532  23.071   5.883   2.576
84273W        W49533  17.578  30.329   1.928
84274W        W49534  19.257  42.945   1.385
84275W        W49535  41.118  40.316  11.236
84276W        W49536  44.448  33.613   0.483
84277W        W49537  41.045  34.484   2.350
84278W        W49538  37.603  40.367   1.427
84279W        W49539  25.589  29.607   0.421
84280W        W49540   2.404  30.788  10.282
84281W        W49541   2.910  28.983   0.756
84282W        W49542   9.814  38.420  11.041
84283W        W49543   3.426  34.343  14.115
84284W        W49544  11.453  19.582   4.121
84285W        W49545  11.371  40.101  12.062
84286W        W49546  23.597  21.820   1.003
84287W        W49547  32.481  26.253  13.991
84288W        W49548  44.759  15.244  12.904
84289W        W49549  15.032  20.758   2.768
84290W        W49550  31.421  30.133  13.454
84291W        W49551  24.162   9.632   0.248
84292W        W49552  30.002  35.369  14.039
84293W        W49553  35.133  18.136   4.155
84294W        W49554  26.265  40.562  13.362
84295W        W49555  31.003  14.749  11.111
84296W        W49556  37.351  12.548  14.825
84297W        W49557  32.482  33.634   2.979
84298W        W49558  22.916  31.451   1.832
84299W        W49559  24.501   3.411  12.570
84300W        W49560  41.726  41.706  13.424
84301W        W49561  23.234  23.619   3.243
84302W        W49562  19.936  42.003   1.767
84303W        W49563   5.855  37.808   4.537
84304W        W49564   3.053   6.264  11.386
84305W        W49565   3.915  10.736   3.101
84306W        W49566  30.664  42.300   2.370
84307W        W49567  32.244   6.865  14.738
84308W        W49568  28.754  14.064   1.878
84309W        W49569  39.713  35.440  12.111
84310W        W49570  17.055  22.760  13.764
84311W        W49571  41.455  27.458   4.135
84312W        W49572  34.570  26.227   3.239
84313W        W49573  19.892  35.907  13.879
84314W        W49574  31.421  14.238   3.752
84315W        W49575  10.794  17.256  13.760
84316W        W49576  37.867  33.080  11.465
84317W        W49577  17.975  17.061  12.049
84318W        W49578   8.958  41.417   0.984
84319W        W49579   3.706   1.927   4.271
84320W        W49580  11.363  33.075   4.915
84321W        W49581  40.971  14.772   0.226
84322W        W49582  19.752  14.812  10.665
84323W        W49583   8.594  25.412  11.264
84324W        W49584   3.235  20.600  13.644
84325W        W49585   7.912  34.102   1.939
84326W        W49586  39.073  33.504   5.114
84327W        W49587  37.612  14.858   0.455
84328W        W49588  28.024  32.368  12.440
84329W        W49589   2.841   1.373   3.019
84330W        W49590  28.725  29.848  12.633
84331W        W49591  24.983  36.171   3.088
84332W        W49592  33.575   3.235   1.710
84333W        W49593   9.957  11.116   1.176
84334W        W49594  12.056  12.533  13.853
84335W        W49595  10.442  15.724  12.415
84336W        W49596  17.721  17.973  14.311
84337W        W49597  30.379  13.344   4.122
84338W        W49598  14.616  24.269   4.147
84339W        W49599  40.301   7.202  11.690
84340W        W49600  31.431  10.271  13.525
84341W        W49601  14.268  34.174  13.810
84342W        W49602  23.968   8.792   0.710
84343W        W49603   0.814  15.572  13.515
84344W        W49604  42.570  30.587   2.883
84345W        W49605  15.649  12.022  14.410
84346W        W49606  44.870  15.881   0.852
84347W        W49607  19.077   8.227  13.842
84348W        W49608  20.292  21.489   1.896
84349W        W49609  43.080  43.392   1.885
84350W        W49610  41.583  41.950  12.826
84351W        W49611  15.525  43.055  12.327
84352W        W49612  25.685  39.556   1.372
84353W        W49613  10.652  35.994   1.439
84354W        W49614   6.194  18.079   1.402
84355W        W49615   4.519  29.533  14.396
84356W        W49616  26.776  19.472   4.672
84357W        W49617   5.933  10.134  11.094
84358W        W49618   8.750  39.340   3.970
84359W        W49619  29.661   4.544   4.143
84360W        W49620  26.713  11.654  14.042
84361W        W49621  27.045  23.722  13.324
84362W        W49622   8.704  19.174   0.452
84363W        W49623   4.149  38.315   2.342
84364W        W49624  15.621  39.016  14.789
84365W        W49625  10.054  19.105   0.094
84366W        W49626  11.298   8.733   4.007
84367W        W49627  35.591  41.048  12.344
84368W        W49628   4.134  43.868   4.585
84369W        W49629   4.795  17.834   3.119
84370W        W49630   3.937  27.738   1.300
84371W        W49631  11.889  15.635  10.661
84372W        W49632   6.309   6.701   0.887
84373W        W49633  14.138  42.528  11.703
84374W        W49634  37.400  26.113   1.882
84375W        W49635  36.395  35.963  14.895
84376W        W49636  25.586  31.112   0.825
84377W        W49637  10.193  38.710  11.239
84378W        W49638  43.898  11.577   2.834
84379W        W49639  15.768  23.121  10.647
84380W        W49640  28.744  40.596  11.968
84381W        W49641  35.471   6.213  12.500
84382W        W49642  16.333  25.344   4.177
84383W        W49643   9.748   2.036   2.307
84384W        W49644  20.617  17.065  12.243
84385W        W49645  22.056  29.098  10.405
84386W        W49646  33.921  12.243  11.937
84387W        W49647  23.794  44.935   2.297
84388W        W49648  22.560  39.473   1.909
84389W        W49649  14.235   0.673  14.864
84390W        W49650  37.447  18.378  12.409
84391W        W49651  10.307  17.563   0.441
84392W        W49652  19.527  23.103   1.367
84393W        W49653  12.776  33.522  13.058
84394W        W49654  41.486  18.165   4.548
84395W        W49655  35.384  40.911  14.296
84396W        W49656  25.785  24.265   2.923
84397W        W49657   0.191  35.978  11.105
84398W        W49658   1.345  23.612   1.791
84399W        W49659  16.152  32.887   1.952
84400W        W49660  15.104  29.490  14.100
84401W        W49661  42.251  25.729   4.759
84402W        W49662   8.203   6.728   5.548
84403W        W49663  15.662   9.402  14.297
84404W        W49664   9.504   9.866   2.895
84405W        W49665  31.536  33.353   1.942
84406W        W49666   8.501  42.828   1.009
84407W        W49667  31.760  10.225   5.038
84408W        W49668  42.572  33.033   0.099
84409W        W49669   3.816   4.265   4.720
84410W        W49670  43.135  25.177  14.686
84411W        W49671  44.547  34.541   4.182
84412W        W49672   0.804  15.570  14.869
84413W        W49673  28.749  23.417   2.799
84414W        W49674  30.161  39.311  12.365
84415W        W49675  20.188  37.509  13.931
84416W        W49676  19.286  16.753   4.983
84417W        W49677  42.402   6.734   0.345
84418W        W49678  25.430  33.856   3.498
84419W        W49679  30.044  10.317   1.878
84420W        W49680  36.481  37.312   1.813
84421W        W49681   2.288  42.988  14.388
84422W        W49682  12.737  25.710   0.803
84423W        W49683  40.727  25.533   0.709
84424W        W49684  36.787  40.636   2.414
84425W        W49685   8.852  30.491  14.526
84426W        W49686   7.328   9.703  13.379
84427W        W49687  31.986  22.035   4.991
84428W        W49688  10.106  41.330  14.952
84429W        W49689  20.735  42.900   2.912
84430W        W49690  34.017   1.496  13.320
84431W        W49691   9.832  44.530   4.592
84432W        W49692  43.948  42.924   2.726
84433W        W49693  13.071  12.580  11.944
84434W        W49694  41.309  22.622   1.306
84435W        W49695  43.365  37.305   1.011
84436W        W49696  26.978   3.777   0.533
84437W        W49697  18.307  40.471  13.008
84438W        W49698  27.612  11.813  13.297
84439W        W49699  38.824   8.143  13.189
84440W        W49700  29.432  22.281  14.232
84441W        W49701  43.153  32.855   2.421
84442W        W49702  44.015  13.853  11.154
84443W        W49703  29.266  18.683  14.444
84444W        W49704   5.022  25.583   4.612
84445W        W49705  40.277  44.995   3.636
84446W        W49706  14.286  44.499   1.154
84447W        W49707   0.205  24.292   3.997
84448W        W49708  40.505  24.938  14.767
84449W        W49709  22.278  16.117  13.470
84450W        W49710   2.703   7.485  10.911
84451W        W49711   9.834  34.376   0.076
84452W        W49712  39.310  20.676   1.557
84453W        W49713  23.458   5.961  12.862
84454W        W49714  20.620  31.400   3.945
84455W        W49715  22.259  39.368   1.486
84456W        W49716  19.681  18.952   1.937
84457W        W49717  17.566   2.370  14.789
84458W        W49718  12.272   5.235  13.737
84459W        W49719  25.137   0.401   4.537
84460W        W49720  14.339  21.501  10.595
84461W        W49721  15.227  43.570  13.056
84462W        W49722  27.193  22.283   4.072
84463W        W49723  21.787   4.168   0.848
84464W        W49724  23.168   3.757   3.416
84465W        W49725  27.176  25.903   1.752
84466W        W49726   6.607  35.818   1.353
84467W        W49727  31.225   5.126   0.208
84468W        W49728  42.843  37.748  13.557
84469W        W49729  13.871  13.800  11.601
84470W        W49730  44.221  25.081   4.996
84471W        W49731  13.347  28.498   0.969
84472W        W49732  18.248  39.595   0.849
84473W        W49733  29.436  35.049   2.292
84474W        W49734  30.554  24.164   2.841
84475W        W49735  11.755   6.798   1.025
84476W        W49736  20.688  44.508   1.867
84477W        W49737  13.260  20.984  14.943
84478W        W49738  23.979  24.055   3.158
84479W        W49739  18.291   1.166   4.105
84480W        W49740  37.566  15.239  14.314
84481W        W49741  41.931  37.429  12.505
84482W        W49742  43.237   5.657  10.986
84483W        W49743  34.963   4.009   2.911
84484W        W49744  43.588   3.371   1.212
84485W        W49745  18.589   5.494   3.382
84486W        W49746  44.283  19.150   2.285
84487W        W49747  32.255  39.059  13.951
84488W        W49748  10.867  41.920  12.604
84489W        W49749  18.677   7.284   1.027
84490W        W49750  18.400  27.778   4.276
84491W        W49751  17.157  32.455  11.077
84492W        W49752  44.255  22.495   2.330
84493W        W49753  33.456  15.620   3.106
84494W        W49754  43.302  31.411   2.251
84495W        W49755  15.364  18.629  12.424
84496W        W49756   5.361  35.682  14.418
84497W        W49757  10.252  10.574  13.556
84498W        W49758  10.415  13.713  14.950
84499W        W49759  28.450  34.015  10.564
84500W        W49760  27.713  33.121  13.401
84501W        W49761  28.103   0.278   4.637
84502W        W49762  39.188   3.038  10.712
84503W        W49763   4.944  39.460   1.789
84504W        W49764  10.768  42.972  13.787
84505W        W49765   8.174   3.112  12.457
84506W        W49766  28.871   7.375   0.396
84507W        W49767  34.838   6.117  11.109
84508W        W49768   4.396  22.512  12.941
84509W        W49769  22.705  42.582  13.469
84510W        W49770  16.656  43.451  13.845
84511W        W49771  13.777  36.379   4.569
84512W        W49772  36.059   5.929   1.283
84513W        W49773  42.860  42.748   3.058
84514W        W49774   0.749  28.343  11.874
84515W        W49775  43.085  38.243  10.070
84516W        W49776  18.268  38.026  10.675
84517W        W49777  28.366   5.893   2.425
84518W        W49778   8.783  35.106  13.637
84519W        W49779  25.103  11.503  14.883
84520W        W49780  35.270  30.537  12.442
84521W        W49781  20.056  38.151  14.023
84522W        W49782  33.532  30.138   0.471
84523W        W49783   5.215  37.068   1.180
84524W        W49784  31.038  37.350  13.013
84525W        W49785  15.735  28.971   0.888
84526W        W49786  37.864  10.748   4.549
84527W        W49787  13.199  43.603   1.801
84528W        W49788  41.736  12.401   5.603
84529W        W49789  42.280  26.170  13.143
84530W        W49790  24.951  40.462  11.325
84531W        W49791  27.078  15.539   4.457
84532W        W49792  22.410   9.922  10.467
84533W        W49793  36.441  26.634   1.337
84534W        W49794   5.178   4.424  10.787
84535W        W49795  27.951  12.761  11.557
84536W        W49796  42.365  36.196   3.157
84537W        W49797   7.603  12.143  14.077
84538W        W49798  28.124  15.858   4.800
84539W        W49799  42.102   0.731  14.107
84540W        W49800  26.646   3.550   1.404
84541W        W49801  16.626  35.270   3.675
84542W        W49802  21.990   2.327  10.293
84543W        W49803  39.147  22.996  14.479
84544W        W49804  11.118   0.411   2.017
84545W        W49805  34.126  29.458   4.056
84546W        W49806  30.288  38.236  13.422
84547W        W49807  15.083  25.080   0.480
84548W        W49808  32.854   9.835   1.792
84549W        W49809   5.739  14.622   4.205
84550W        W49810   2.431   0.318  10.847
84551W        W49811  42.207   6.393  10.710
84552W        W49812   4.565  31.344   4.630
84553W        W49813  21.649  44.053  12.472
84554W        W49814  22.994  29.361   2.571
84555W        W49815   2.312  26.999   3.291
84556W        W49816  26.328   7.509   0.423
84557W        W49817   3.181  16.171  13.951
84558W        W49818  27.485  14.626  14.446
84559W        W49819  43.919  27.127   2.255
84560W        W49820  34.049  43.872  14.558
84561W        W49821  11.912  37.701   1.839
84562W        W49822  36.331   7.872  14.872
84563W        W49823  32.509  39.338  11.101
84564W        W49824  31.425  34.473  13.284
84565W        W49825  15.559   8.940  11.417
84566W        W49826  23.003  39.065  13.473
84567W        W49827   4.452  12.179   4.196
84568W        W49828  19.262  39.331   4.244
84569W        W49829  18.719  20.267  10.187
84570W        W49830  20.497  14.213  10.668
84571W        W49831  12.191   0.698  11.029
84572W        W49832  18.618  30.703   3.753
84573W        W49833  34.736  39.415   2.879
84574W        W49834  14.380  34.455  10.660
84575W        W49835  27.031  25.418  14.954
84576W        W49836  20.485  22.903   0.919
84577W        W49837  37.473  40.756  14.623
84578W        W49838  36.570  37.332  12.690
84579W        W49839   1.898   4.751   3.148
84580W        W49840  42.160  43.283  12.657
84581W        W49841  17.214  38.345   2.401
84582W        W49842  37.077   1.148   3.971
84583W        W49843  10.640  22.945   0.086
84584W        W49844  14.605  31.353  11.191
84585W        W49845  13.753  26.738  13.779
84586W        W49846   2.683  38.881  13.889
84587W        W49847  13.346   1.870   0.225
84588W        W49848  17.169  12.851   5.370
84589W        W49849   1.519   8.877  11.555
84590W        W49850   4.783  12.703  14.990
84591W        W49851  16.287  24.348   2.036
84592W        W49852   3.955  29.713  11.644
84593W        W49853  10.864  24.576  10.952
84594W        W49854  14.182  11.769   1.781
84595W        W49855   3.496   2.476  10.767
84596W        W49856  23.692  29.407  11.076
84597W        W49857   8.975  16.291   3.243
84598W        W49858  11.857  16.023   2.313
84599W        W49859  34.876  23.458  13.483
84600W        W49860  23.082  23.592  12.555
84601W        W49861   8.701  27.917  11.067
84602W        W49862  39.493  10.394   1.013
84603W        W49863  36.251   3.419   3.306
84604W        W49864   5.108  14.840   3.262
84605W        W49865   0.846  17.165  14.040
84606W        W49866   4.833  28.141   2.076
84607W        W49867  36.095  40.836   0.924
84608W        W49868  14.765  39.443  14.444
84609W        W49869  21.080  29.913  14.407
84610W        W49870  18.284  17.720   4.304
84611W        W49871  40.555   0.905   4.952
84612W        W49872  29.772   6.984   4.520
84613W        W49873  38.338  11.953   2.727
84614W        W49874  29.019  37.483  13.456
84615W        W49875  13.684   6.620  11.067
84616W        W49876  42.743   8.234  14.943
84617W        W49877  19.172   5.955  12.885
84618W        W49878  41.474   5.726  14.804
84619W        W49879  23.041  20.507   4.336
84620W        W49880  18.482   1.877   4.011
84621W        W49881   5.023  33.024  11.040
84622W        W49882  44.524  40.752   2.953
84623W        W49883  42.791   7.680  12.547
84624W        W49884  25.506  34.900  14.080
84625W        W49885  13.194  31.570  14.631
84626W        W49886  30.035  23.055   0.685
84627W        W49887   8.572  33.769  12.925
84628W        W49888  27.486  42.360   4.437
84629W        W49889  11.799   4.286   0.246
84630W        W49890  25.042  17.722   5.384
84631W        W49891  44.484  31.223   0.374
84632W        W49892  25.735  18.080   2.664
84633W        W49893   2.374  27.301   5.152
84634W        W49894  23.029  41.929  11.356
84635W        W49895  31.413  33.782  12.719
84636W        W49896  17.267   8.592  12.006
84637W        W49897  17.830   0.129   1.937
84638W        W49898  34.584  32.927   3.217
84639W        W49899   3.432  31.930  10.108
84640W        W49900  18.675  18.638  10.754
84641W        W49901  35.803  36.511   0.322
84642W        W49902  34.152   2.924   3.776
84643W        W49903   1.664  12.649  13.997
84644W        W49904  12.677  12.958  14.451
84645W        W49905  18.040  32.544  14.905
84646W        W49906   6.100  28.130   3.648
84647W        W49907  20.809  15.883   1.376
84648W        W49908   8.910   6.117  14.385
84649W        W49909  20.261  43.281  13.603
84650W        W49910  42.708  29.628   4.581
84651W        W49911  33.395  38.414   1.307
84652W        W49912   0.530  19.829  12.355
84653W        W49913   5.836  11.497  12.865
84654W        W49914   1.346  36.023   4.187
84655W        W49915  12.858  10.404  14.037
84656W        W49916  27.029  21.719  11.200
84657W        W49917  27.897   6.841   4.084
84658W        W49918  21.028   2.470   0.351
84659W        W49919  42.918  42.489  13.600
84660W        W49920  35.340  33.914   0.230
84661W        W49921   1.275   1.402   0.519
84662W        W49922  16.002   4.043   0.401
84663W        W49923   7.383  20.050  12.077
84664W        W49924   7.503  26.863  12.953
84665W        W49925   5.616  21.140   1.209
84666W        W49926  39.099  22.370  14.400
84667W        W49927   9.537  40.974   3.158
84668W        W49928  30.863  43.489   2.103
84669W        W49929  22.943  23.664  14.399
84670W        W49930  29.950  16.785  10.423
84671W        W49931   0.473  23.774   2.766
84672W        W49932   7.671  16.757  10.706
84673W        W49933  25.528  34.183   0.870
84674W        W49934  29.705  37.259   5.013
84675W        W49935  44.695  40.892  12.238
84676W        W49936  41.345  36.885  13.745
84677W        W49937  41.471  21.267  12.257
84678W        W49938  32.453  14.125  10.393
84679W        W49939  17.349  42.254  13.688
84680W        W49940  14.177  14.385   4.923
84681W        W49941  11.649  13.387  14.407
84682W        W49942   3.680  39.382  12.452
84683W        W49943   4.383  19.274   4.600
84684W        W49944   5.250  28.294  10.253
84685W        W49945  38.354   2.826   0.817
84686W        W49946  32.059  13.084  13.078
84687W        W49947  10.323  22.567  12.530
84688W        W49948  11.469  17.111   0.351
84689W        W49949  42.979  10.154  11.089
84690W        W49950  32.227  28.216   0.868
84691W        W49951  19.274  20.973  14.439
84692W        W49952  34.187  25.369   1.463
84693W        W49953  19.778  36.152   4.414
84694W        W49954   6.291  22.576   2.092
84695W        W49955  36.351  12.005   2.042
84696W        W49956  29.103   8.648   4.718
84697W        W49957   8.653  24.091   1.902
84698W        W49958  19.111  12.693   2.762
84699W        W49959  30.332   2.916  10.748
84700W        W49960  25.918  33.045   0.606
84701W        W49961  10.452  24.945   3.682
84702W        W49962  32.162  32.832   0.975
84703W        W49963  27.022  35.154   4.955
84704W        W49964   2.533  26.601   3.547
84705W        W49965   8.860  36.045   1.744
84706W        W49966  12.475  12.768  14.018
84707W        W49967   1.968  26.236  14.078
84708W        W49968  30.427   8.390  13.961
84709W        W49969  39.427  38.118  10.395
84710W        W49970  44.577  32.643   0.335
84711W        W49971  39.507  33.121  11.224
84712W        W49972  18.643   6.174  14.055
84713W        W49973  15.672  19.976   3.770
84714W        W49974  12.167   9.999  14.392
84715W        W49975  12.617   4.185  13.919
84716W        W49976   2.292  17.240   0.766
84717W        W49977   2.305   9.955  14.453
84718W        W49978  17.717   5.948  12.086
84719W        W49979  10.391  32.609   0.730
84720W        W49980  44.764  32.285   3.694
84721W        W49981  16.053  17.756  13.147
84722W        W49982  30.010  13.089  13.999
84723W        W49983  12.108  23.473  13.518
84724W        W49984  20.576  16.627  12.515
84725W        W49985  31.118  32.526  11.605
84726W        W49986  30.520  19.950  13.925
84727W        W49987  38.751  10.143   5.094
84728W        W49988  24.810  29.150   0.294
84729W        W49989  10.753   4.312   3.295
84730W        W49990  34.906   2.090   4.702
84731W        W49991  40.489  38.959   2.285
84732W        W49992  28.643  16.309   0.464
84733W        W49993  42.315  21.308  13.028
84734W        W49994  17.186  27.572   0.330
84735W        W49995  12.416  35.860  14.908
84736W        W49996   9.677  30.661  13.397
84737W        W49997  42.148   2.110  14.309
84738W        W49998  11.092  10.229  12.529
84739W        W49999  39.892  21.529  12.645
84740W        W50000  12.207  12.166   0.904
84741W        W50001  18.145  14.089   2.369
84742W        W50002  25.912  35.443  11.102
84743W        W50003  40.074   0.317   2.185
84744W        W50004  44.429   2.703   2.802
84745W        W50005   0.340  21.449   2.606
84746W        W50006  43.898  42.551  14.785
84747W        W50007  40.008   6.285  12.455
84748W        W50008  31.980  21.820   1.310
84749W        W50009   7.156  40.273  14.903
84750W        W50010  24.202  33.914  13.052
84751W        W50011   6.594  31.194   3.255
84752W        W50012  17.695  33.998  13.657
84753W        W50013  24.694  30.693  13.085
84754W        W50014  42.625  38.000   4.045
84755W        W50015  33.175   1.490   3.276
84756W        W50016  26.168  35.025  10.926
84757W        W50017  16.078  17.003   3.671
84758W        W50018  23.572  24.525  14.985
84759W        W50019  25.199  12.235  12.412
84760W        W50020  21.037  22.273   4.075
84761W        W50021  10.157  26.930  11.887
84762W        W50022  11.454   0.887   4.142
84763W        W50023  21.223  32.864  13.278
84764W        W50024  38.909  22.547   3.612
84765W        W50025  27.960  37.426  10.442
84766W        W50026   8.193  26.783  13.864
84767W        W50027  28.864  13.451   3.637
84768W        W50028   8.810   3.709  10.828
84769W        W50029  28.150  33.161  10.056
84770W        W50030   1.914  40.715   3.644
84771W        W50031  28.271   0.176  11.804
84772W        W50032  11.231  36.387   3.332
84773W        W50033  40.829   9.245  10.740
84774W        W50034  40.949  19.532  11.148
84775W        W50035  28.614  19.343  13.009
84776W        W50036  39.988  37.571  12.370
84777W        W50037  33.943  15.032  14.051
84778W        W50038  18.288  33.593   2.137
84779W        W50039  31.474  24.733  10.630
84780W        W50040  11.688  40.430   3.077
84781W        W50041  22.262  30.951   4.725
84782W        W50042   6.373  13.692   4.240
84783W        W50043  42.091  29.359  12.975
84784W        W50044  43.178  25.584  11.776
84785W        W50045  14.146  18.974   1.352
84786W        W50046  22.899   5.854   4.397
84787W        W50047   3.912   4.267  12.345
84788W        W50048  12.792  28.163  14.673
84789W        W50049   5.393  37.081   4.870
84790W        W50050  18.604  20.979   0.782
84791W        W50051  36.405   4.361  13.090
84792W        W50052   2.848  37.405   2.385
84793W        W50053  44.416   8.826   2.843
84794W        W50054  36.504  28.216   2.146
84795W        W50055  39.576  14.758   2.641
84796W        W50056  28.523  13.594  11.152
84797W        W50057  41.037  41.274  12.575
84798W        W50058  20.612  37.778  13.912
84799W        W50059   7.390  34.660   3.624
84800W        W50060  21.725  33.432  14.322
84801W        W50061   7.759  34.279  12.310
84802W        W50062  41.281  35.031  12.954
84803W        W50063   6.757  10.125  12.989
84804W        W50064  39.322  39.418  10.659
84805W        W50065  38.839  36.175  12.674
84806W        W50066  11.763  19.000  14.282
84807W        W50067  40.488   0.200  13.985
84808W        W50068   5.395  13.363  11.262
84809W        W50069  20.336   1.145   3.132
84810W        W50070  20.816  12.139  10.612
84811W        W50071  13.333  34.081  14.396
84812W        W50072  42.460  28.386   4.552
84813W        W50073  18.247  43.876  10.935
84814W        W50074  44.009  38.993   3.750
84815W        W50075  21.777  28.479  13.323
84816W        W50076   6.964   7.071   4.556
84817W        W50077  37.154  24.939   4.995
84818W        W50078  12.057  35.547  13.576
84819W        W50079  37.292  30.985   2.746
84820W        W50080  20.643  35.905  11.186
84821W        W50081   1.507  27.207   0.473
84822W        W50082  31.215  42.000  12.463
84823W        W50083   0.170   9.648  11.039
84824W        W50084  10.427  25.026  11.680
84825W        W50085  27.594  43.527  11.762
84826W        W50086  44.853  25.549   9.589
84827W        W50087  31.001  21.580   0.376
84828W        W50088  13.661  18.704   3.634
84829W        W50089  43.347  44.490   5.042
84830W        W50090  11.185   0.444   4.257
84831W        W50091  14.414  16.106  13.327
84832W        W50092  43.358  35.572  14.895
84833W        W50093  17.678  35.535  13.334
84834W        W50094   9.930   3.368   4.214
84835W        W50095  29.919   8.388   0.437
84836W        W50096  40.015   0.312  14.881
84837W        W50097  33.849  11.864   1.554
84838W        W50098  21.759  20.318  12.676
84839W        W50099  37.449  24.757   0.023
84840W        W50100  18.603  39.359  10.961
84841W        W50101  28.158  40.281   1.322
84842W        W50102  29.593  16.569  11.186
84843W        W50103  34.344   8.770  11.525
84844W        W50104  28.396  15.817   0.355
84845W        W50105  14.463  21.335  10.120
84846W        W50106  21.779   8.893  14.866
84847W        W50107   1.056  15.221   5.245
84848W        W50108  43.841   8.284  11.126
84849W        W50109  24.071   3.790   3.166
84850W        W50110  12.532  21.240  12.514
84851W        W50111  12.359   1.646  12.975
84852W        W50112   5.899   0.989   2.633
84853W        W50113  34.317  10.217  12.223
84854W        W50114  29.659  39.685  11.610
84855W        W50115  31.696  13.620   4.112
84856W        W50116  35.942  32.823   1.499
84857W        W50117  14.751  29.169   3.433
84858W        W50118  37.354  27.102   4.301
84859W        W50119  30.027   2.912  13.595
84860W        W50120  24.181   1.322   5.022
84861W        W50121   9.780  38.391   3.972
84862W        W50122  29.174   0.666  14.008
84863W        W50123  32.919  26.054  10.744
84864W        W50124  17.567   4.060  14.784
84865W        W50125  35.600  22.475  12.988
84866W        W50126   4.795  10.382   3.790
84867W        W50127  21.076  20.154   3.300
84868W        W50128   1.700  38.527   2.624
84869W        W50129  30.497  27.420  14.943
84870W        W50130  40.468  39.254   5.030
84871W        W50131  36.436   5.754  10.722
84872W        W50132  30.178  42.299   3.135
84873W        W50133   4.722   8.790  12.978
84874W        W50134   3.166  14.862  13.038
84875W        W50135  17.826  30.369   3.295
84876W        W50136  27.167  43.238   4.273
84877W        W50137  20.798  24.971  13.811
84878W        W50138  15.105  20.073  12.157
84879W        W50139  35.295  15.007   1.062
84880W        W50140  38.034  41.032   3.605
84881W        W50141  18.630   8.415   2.189
84882W        W50142   2.741  15.266  14.857
84883W        W50143  24.723  10.228   1.275
84884W        W50144  30.906   2.160  14.201
84885W        W50145  33.945   6.297  12.831
84886W        W50146  40.929  29.469  13.572
84887W        W50147   9.280  33.600   3.862
84888W        W50148  38.584  13.314  12.271
84889W        W50149  26.646   8.431  10.646
84890W        W50150  40.578  42.559  11.602
84891W        W50151  42.376  27.192  12.568
84892W        W50152  44.458  22.923   3.273
84893W        W50153   4.651  32.557  14.886
84894W        W50154  11.001  36.821   2.333
84895W        W50155  39.545  19.159   1.176
84896W        W50156  26.467   4.333   3.123
84897W        W50157  11.427  11.224  14.350
84898W        W50158  17.116  27.468   2.095
84899W        W50159  14.807  38.292   0.377
84900W        W50160   9.778  25.038   3.162
84901W        W50161  43.081   8.296  10.683
84902W        W50162   5.875   5.902   1.291
84903W        W50163  29.511   0.709   4.971
84904W        W50164  44.113   9.782  14.511
84905W        W50165  42.918  36.628  14.481
84906W        W50166  12.378   3.429  12.513
84907W        W50167   0.694  20.788   4.970
84908W        W50168   3.911   6.191  12.422
84909W        W50169  11.850  11.063  14.649
84910W        W50170   4.750  31.515  12.443
84911W        W50171  19.142  25.812   1.857
84912W        W50172  27.243  15.822  10.698
84913W        W50173  28.658   6.846   1.403
84914W        W50174  13.181  23.691   4.010
84915W        W50175  43.234  21.131   0.917
84916W        W50176   7.005  16.233  14.357
84917W        W50177   4.576  16.594   2.443
84918W        W50178   2.290  38.335  13.530
84919W        W50179  18.015   5.913   2.790
84920W        W50180  44.428  10.391   5.543
84921W        W50181  39.557  43.104  12.199
84922W        W50182  15.720  42.430   0.906
84923W        W50183  34.616  27.454  14.374
84924W        W50184  42.673  23.772   0.616
84925W        W50185   7.903  16.834  12.867
84926W        W50186  42.769  13.770   0.359
84927W        W50187  16.267  19.743  14.489
84928W        W50188  19.549  21.169   0.729
84929W        W50189  26.911  24.287  12.042
84930W        W50190   1.844   6.739   3.899
84931W        W50191  35.505   6.610   1.344
84932W        W50192  23.470   6.156   2.295
84933W        W50193  16.762  19.891  14.959
84934W        W50194  25.154  30.944   4.558
84935W        W50195  29.564   5.743  12.874
84936W        W50196  43.715  29.444  13.919
84937W        W50197  43.979   5.307  14.588
84938W        W50198   8.308   6.915   0.444
84939W        W50199   6.436  33.920   2.719
84940W        W50200   7.197  11.428   2.291
84941W        W50201  36.007   1.272  13.794
84942W        W50202  12.662  18.680   3.277
84943W        W50203  18.844  41.323  14.966
84944W        W50204  10.168  44.806   4.867
84945W        W50205  26.131  43.512  13.163
84946W        W50206  22.157  18.601   4.171
84947W        W50207  26.777  38.503  11.454
84948W        W50208   3.067  44.858  10.577
84949W        W50209  28.124  42.489   3.281
84950W        W50210  20.002  37.508  13.446
84951W        W50211  24.684  27.763   2.774
84952W        W50212  17.480  10.268  11.072
84953W        W50213  39.951  32.593   1.852
84954W        W50214  30.732  18.492  12.100
84955W        W50215  33.685  22.153   1.825
84956W        W50216  25.485  25.692  12.749
84957W        W50217  34.509  23.591   2.838
84958W        W50218   8.914  11.122   0.677
84959W        W50219  30.963  28.130   1.862
84960W        W50220  16.300  38.375  12.519
84961W        W50221   3.252  16.813   0.397
84962W        W50222  38.953  40.880   3.598
84963W        W50223  17.522  10.713  12.021
84964W        W50224  26.363   6.268  10.738
84965W        W50225   8.862  21.046  10.484
84966W        W50226  12.785  36.555  14.354
84967W        W50227  10.034  17.765   2.638
84968W        W50228  25.104   8.174  14.427
84969W        W50229  12.990  33.117  12.369
84970W        W50230  32.193   1.730  14.363
84971W        W50231  23.685  17.598  11.039
84972W        W50232  12.246  33.783   0.903
84973W        W50233  16.064  21.579  11.969
84974W        W50234   7.964   5.791  10.323
84975W        W50235  18.058   1.194  14.469
84976W        W50236  11.309   4.895  10.625
84977W        W50237  38.937  32.093   1.444
84978W        W50238   7.856  31.866   2.221
84979W        W50239   7.645   6.597   1.909
84980W        W50240  30.839  18.030  14.326
84981W        W50241  18.907   0.714   3.600
84982W        W50242   2.965  42.387  14.813
84983W        W50243  27.111  34.366  12.062
84984W        W50244  36.928  35.474  13.066
84985W        W50245  44.704  43.519   1.299
84986W        W50246  35.587  37.197   2.758
84987W        W50247  16.593   1.423   4.697
84988W        W50248  39.950  12.760  13.443
84989W        W50249   5.318  30.910   4.807
84990W        W50250   3.445  20.036  11.954
84991W        W50251  35.829  18.035  12.948
84992W        W50252  42.058  44.988   1.825
84993W        W50253  21.953  38.290  11.168
84994W        W50254  14.311   6.660  11.312
84995W        W50255  10.914   5.367   3.489
84996W        W50256  24.592  39.596  11.149
84997W        W50257  22.080  23.731  12.828
84998W        W50258  44.727  33.885  12.883
84999W        W50259  15.272  12.682  11.007
85000W        W50260  38.221  41.842   4.241
85001W        W50261  30.182   7.946   4.855
85002W        W50262  20.496  26.456  14.857
85003W        W50263   5.899  28.542   2.703
85004W        W50264  13.761   1.218   2.649
85005W        W50265  32.427  10.329   4.378
85006W        W50266   7.290   2.454  14.965
85007W        W50267   1.151   4.001  12.640
85008W        W50268  41.847  34.632   0.423
85009W        W50269  17.699   7.791  14.791
85010W        W50270  29.522  41.999   2.003
85011W        W50271  23.942  34.523   3.328
85012W        W50272  12.625  40.009  14.546
85013W        W50273  21.188  10.595  11.458
85014W        W50274  42.316  33.849   3.273
85015W        W50275  14.759  11.352   4.078
85016W        W50276  16.184   7.404   3.028
85017W        W50277  22.684  38.411   2.814
85018W        W50278  42.483  29.635  13.167
85019W        W50279  44.585  38.851  12.918
85020W        W50280   2.791  14.235  14.298
85021W        W50281  41.577  23.196   2.826
85022W        W50282  20.298  37.034  11.967
85023W        W50283  20.645   3.786   2.189
85024W        W50284  18.569   3.297   1.671
85025W        W50285   0.445  41.853   0.429
85026W        W50286  31.395  10.336  14.078
85027W        W50287  24.699   3.488   1.301
85028W        W50288  12.785  18.625  10.972
85029W        W50289  22.541  17.745   4.116
85030W        W50290  36.852  10.357   1.765
85031W        W50291  42.595   1.778  14.919
85032W        W50292   0.405   5.423   0.353
85033W        W50293  28.007  41.432   2.321
85034W        W50294  23.645  16.760   2.130
85035W        W50295  38.463  26.567  10.712
85036W        W50296   3.875  16.771  13.047
85037W        W50297  10.912  15.789  12.632
85038W        W50298  16.570   7.893   4.399
85039W        W50299  11.315  21.138   0.065
85040W        W50300   8.730  26.415   3.163
85041W        W50301  18.774  13.537   0.734
85042W        W50302  40.854  11.366   3.185
85043W        W50303  26.708  17.689   2.279
85044W        W50304  17.183   7.085   1.879
85045W        W50305  22.936   0.489  11.965
85046W        W50306  12.823   2.296  11.418
85047W        W50307   6.201  13.826  13.983
85048W        W50308  43.588   8.406  11.561
85049W        W50309  22.661  26.286  13.937
85050W        W50310  36.394  11.720  10.691
85051W        W50311  34.987  18.020  13.748
85052W        W50312   8.326   0.943   4.854
85053W        W50313  18.790   0.571   4.311
85054W        W50314   4.194  11.811   3.815
85055W        W50315  39.896  22.298  11.629
85056W        W50316   9.883   5.363   0.898
85057W        W50317   4.483  28.058   1.689
85058W        W50318   9.257  18.228   4.877
85059W        W50319   4.875   7.167   0.590
85060W        W50320  21.362   4.520   1.240
85061W        W50321   3.362  36.904   3.720
85062W        W50322  15.185   9.093   1.938
85063W        W50323  39.390   4.818  11.839
85064W        W50324  34.920  37.479   9.810
85065W        W50325   7.150  44.502  11.171
85066W        W50326  42.971  41.324  12.476
85067W        W50327  36.831   7.724  14.942
85068W        W50328  43.576  27.814  14.079
85069W        W50329  33.917  42.815   2.035
85070W        W50330   3.504  27.471   0.337
85071W        W50331  28.696  10.142  12.404
85072W        W50332   8.608   6.302  14.803
85073W        W50333  16.346  35.470   0.612
85074W        W50334   0.131  24.115   3.509
85075W        W50335   0.401  13.867   0.981
85076W        W50336  13.954  16.270   1.783
85077W        W50337  41.339  33.051   2.538
85078W        W50338  40.022  36.895   3.706
85079W        W50339  20.142  14.304  14.888
85080W        W50340  38.995  30.051  14.058
85081W        W50341  22.958  10.710   3.620
85082W        W50342  21.207  23.045  13.337
85083W        W50343  38.415  35.823  11.087
85084W        W50344  20.674  19.997  12.097
85085W        W50345  42.883  36.415   4.067
85086W        W50346  25.455  27.183  12.464
85087W        W50347  35.568  25.134  12.615
85088W        W50348  22.105  40.927  12.384
85089W        W50349  40.213  13.278   0.597
85090W        W50350   5.184   3.534  13.503
85091W        W50351  27.919  32.299  11.958
85092W        W50352  30.435  36.922   0.789
85093W        W50353  14.120  31.985   0.611
85094W        W50354  39.411   0.459  10.684
85095W        W50355  22.118  16.385   1.396
85096W        W50356  35.099   6.334   2.960
85097W        W50357  43.231  31.286  14.432
85098W        W50358  42.017  31.438   3.324
85099W        W50359  42.916  42.208   0.550
85100W        W50360  13.738  12.783   3.145
85101W        W50361  33.819  43.530   3.229
85102W        W50362  43.591   4.898  12.078
85103W        W50363   2.588  12.733   0.589
85104W        W50364  19.218  21.246  12.371
85105W        W50365   2.359  23.800   1.761
85106W        W50366  24.426   0.207   2.825
85107W        W50367  36.521  31.468  12.205
85108W        W50368   2.460   5.166   4.394
85109W        W50369  17.814  12.979   4.065
85110W        W50370   2.695   1.327   3.500
85111W        W50371  19.134   2.360   0.790
85112W        W50372  26.611  24.636  14.234
85113W        W50373  20.791  27.145   2.688
85114W        W50374  36.026  30.329  13.103
85115W        W50375   4.518   1.748  11.168
85116W        W50376   4.396   9.917   1.262
85117W        W50377  26.612  12.688   4.403
85118W        W50378  10.809  26.980  13.339
85119W        W50379  24.876  20.184   4.858
85120W        W50380  39.015   0.943  14.023
85121W        W50381  11.562  31.078  13.534
85122W        W50382   5.124  32.433  14.730
85123W        W50383   8.264  34.580  11.664
85124W        W50384   0.608  20.947   1.887
85125W        W50385  35.377   0.045   3.658
85126W        W50386  37.001  31.677   1.400
85127W        W50387  26.145   9.213  12.526
85128W        W50388  43.864  42.312  12.925
85129W        W50389  34.975   9.913  13.656
85130W        W50390   2.400  33.385  12.994
85131W        W50391  36.904  39.100   3.233
85132W        W50392  29.868  18.321   2.150
85133W        W50393  18.083  12.716  10.711
85134W        W50394  31.612  42.832   3.273
85135W        W50395  37.828  24.458   2.312
85136W        W50396  24.722  22.806  11.088
85137W        W50397  31.121   0.919  14.640
85138W        W50398  14.188   5.378  11.103
85139W        W50399  35.309   8.885   1.817
85140W        W50400  17.246  30.837  12.620
85141W        W50401  40.396  32.660  12.555
85142W        W50402  44.572  13.426   4.482
85143W        W50403  20.795  23.514   4.592
85144W        W50404   9.042  33.862   1.268
85145W        W50405  25.732  43.793   3.287
85146W        W50406  37.938  35.386   1.801
85147W        W50407  24.629  17.090   1.806
85148W        W50408   1.852  17.066   1.636
85149W        W50409  42.004   0.091  13.363
85150W        W50410  44.218  25.666   0.203
85151W        W50411  11.733   1.475  13.560
85152W        W50412  28.406  44.469  11.142
85153W        W50413  12.799  29.495   9.716
85154W        W50414   5.309  16.855  11.887
85155W        W50415   0.366   2.328  14.851
85156W        W50416   7.846  27.520  14.006
85157W        W50417  35.383  19.151  13.507
85158W        W50418   5.230   5.040  12.157
85159W        W50419   8.585  39.898  14.009
85160W        W50420  22.630  13.479  10.473
85161W        W50421  25.702  41.382   4.135
85162W        W50422   8.635  41.273  14.976
85163W        W50423  11.189  38.272   2.370
85164W        W50424  24.798  30.198   0.166
85165W        W50425  16.048  43.277  11.095
85166W        W50426  43.342  37.588  13.627
85167W        W50427  34.611  20.706   2.241
85168W        W50428   5.699  31.649   2.597
85169W        W50429  20.765  36.214   5.405
85170W        W50430  27.158  43.849   2.217
85171W        W50431  42.417  21.072   0.271
85172W        W50432  18.454  34.480  14.806
85173W        W50433  17.435  32.498   4.106
85174W        W50434  41.997  20.228   2.949
85175W        W50435   2.733   8.087  12.556
85176W        W50436  15.220  43.361  14.726
85177W        W50437  32.193  29.688  11.143
85178W        W50438  23.691  40.360   3.062
85179W        W50439   0.382  18.535   0.780
85180W        W50440   4.254  28.935  12.908
85181W        W50441  30.289   2.916   4.135
85182W        W50442  37.320  41.019   2.425
85183W        W50443   2.334  11.347  14.453
85184W        W50444  10.428  36.949   1.424
85185W        W50445  39.334  21.086  14.909
85186W        W50446   1.702  14.143   2.643
85187W        W50447   1.689  21.138   0.501
85188W        W50448   5.982  27.186   2.650
85189W        W50449  21.313  26.101  14.031
85190W        W50450  16.137   9.460   0.457
85191W        W50451  30.351   5.148  11.081
85192W        W50452   3.771   3.288  12.338
85193W        W50453   7.123  22.170  12.909
85194W        W50454  27.397  38.535   2.242
85195W        W50455  28.172  41.852   2.617
85196W        W50456  18.188  38.276  11.117
85197W        W50457   7.214  27.662   4.131
85198W        W50458   7.798  32.627   0.994
85199W        W50459  12.421  34.420  12.676
85200W        W50460   0.488  20.948  11.788
85201W        W50461  39.030  40.969  14.923
85202W        W50462  34.150  21.713  12.014
85203W        W50463  15.278  40.545   2.369
85204W        W50464   6.482  22.179   1.785
85205W        W50465  34.583  36.213  12.616
85206W        W50466   2.127  31.604  14.233
85207W        W50467  18.774  28.838  12.258
85208W        W50468   4.258  41.092   3.212
85209W        W50469  39.254  41.349   3.342
85210W        W50470  12.254  35.966   4.386
85211W        W50471  33.608  33.064  11.040
85212W        W50472   5.268  40.917  12.027
85213W        W50473  20.098  34.770  10.914
85214W        W50474  31.393  14.336   2.452
85215W        W50475  30.643  38.926   2.152
85216W        W50476   3.961  37.320   0.366
85217W        W50477  23.466  26.196  14.326
85218W        W50478  11.228  18.016   3.254
85219W        W50479   4.720  11.402   1.219
85220W        W50480  41.289  41.822  11.455
85221W        W50481  24.644  12.287   4.169
85222W        W50482   2.560  31.667  14.533
85223W        W50483  26.570   3.021   0.378
85224W        W50484   7.483  28.966   0.047
85225W        W50485   5.857   5.200   2.865
85226W        W50486   7.416  12.096  11.923
85227W        W50487   5.404  39.578   1.002
85228W        W50488  24.729  28.460   4.291
85229W        W50489   3.115  24.995  14.891
85230W        W50490  29.512  40.556  13.620
85231W        W50491  20.522  30.579  13.436
85232W        W50492  32.696  14.911   4.349
85233W        W50493  37.842  21.486   4.674
85234W        W50494  41.987  25.405  14.781
85235W        W50495  44.806  31.654   0.216
85236W        W50496  28.473  23.635  12.860
85237W        W50497  37.995  39.344   3.144
85238W        W50498  31.566   3.731   1.237
85239W        W50499  15.376  25.694   2.349
85240W        W50500   0.563  40.097   4.962
85241W        W50501  12.705  10.141   0.760
85242W        W50502  21.160  31.287  14.364
85243W        W50503  15.023  33.393   3.589
85244W        W50504  44.973   4.729  14.601
85245W        W50505  36.083  16.595  11.218
85246W        W50506  25.659   9.185  14.992
85247W        W50507  25.623   3.115  14.455
85248W        W50508  13.810  19.389   0.456
85249W        W50509  21.982  33.886  11.128
85250W        W50510   1.801  10.620  11.826
85251W        W50511  11.691   8.246  13.003
85252W        W50512  16.788  10.530   0.298
85253W        W50513  16.641   3.479   0.010
85254W        W50514  42.716  25.551   2.176
85255W        W50515  37.968  10.286  12.419
85256W        W50516   0.487  24.269   0.503
85257W        W50517  34.112  17.521  14.042
85258W        W50518  26.047  37.898   3.511
85259W        W50519   1.827  38.266   2.107
85260W        W50520  19.777   2.230   4.514
85261W        W50521  40.343   6.867   3.230
85262W        W50522  31.885   9.076   1.426
85263W        W50523  43.246   3.753  10.653
85264W        W50524   3.869  20.643  14.922
85265W        W50525  17.648  15.077   1.569
85266W        W50526   8.428  33.761  12.435
85267W        W50527  39.493   4.962   1.253
85268W        W50528  26.536  23.150   1.267
85269W        W50529  13.391  41.447  10.719
85270W        W50530  30.552  39.294   4.694
85271W        W50531  32.894  17.231  10.613
85272W        W50532  28.608   0.202  12.758
85273W        W50533   1.613  22.245   1.684
85274W        W50534  11.193  16.816   3.636
85275W        W50535  19.120  41.715   4.190
85276W        W50536  16.655  13.784   4.576
85277W        W50537   5.229  39.912   1.848
85278W        W50538  38.281  38.640   3.901
85279W        W50539  37.349   0.412  14.304
85280W        W50540  14.843   4.661  12.036
85281W        W50541   2.796  18.366   0.723
85282W        W50542  29.906   4.220   4.552
85283W        W50543  31.735  10.966   4.163
85284W        W50544  26.338  29.468   2.082
85285W        W50545  33.793  15.273  13.098
85286W        W50546  41.144  13.732  11.251
85287W        W50547  37.750  17.549   2.260
85288W        W50548  14.084   3.857   0.376
85289W        W50549  30.055   3.360  13.877
85290W        W50550  41.986  31.118   4.698
85291W        W50551   4.185  35.561   2.279
85292W        W50552   4.881  32.313  13.624
85293W        W50553  31.411  41.337   0.217
85294W        W50554  42.277  24.614  14.745
85295W        W50555  39.409  34.017   1.257
85296W        W50556  14.622  10.188   2.669
85297W        W50557  21.663  11.277  13.023
85298W        W50558   1.960  37.277   2.343
85299W        W50559  39.857  30.410   3.728
85300W        W50560  15.840  31.112  14.936
85301W        W50561  30.069  34.204  12.375
85302W        W50562   7.623   8.596   3.431
85303W        W50563  38.292  10.744   2.409
85304W        W50564  38.867  25.606  11.452
85305W        W50565  14.625  43.265   2.360
85306W        W50566  17.139   2.630  14.405
85307W        W50567   9.246  27.967   1.858
85308W        W50568  44.129  37.907   2.171
85309W        W50569   1.506  41.027  12.013
85310W        W50570  42.912  44.572  12.915
85311W        W50571  20.074  33.962   0.428
85312W        W50572  30.724  14.122  11.832
85313W        W50573  39.052  13.101  12.203
85314W        W50574  14.744  34.453   3.883
85315W        W50575  27.813  29.898  14.577
85316W        W50576  40.763  16.250  12.766
85317W        W50577  23.354  28.520   1.050
85318W        W50578  20.391  15.787  13.812
85319W        W50579  38.338  28.034   1.183
85320W        W50580  25.479  42.898   1.539
85321W        W50581  36.153  16.155   0.704
85322W        W50582  25.113  18.770   0.484
85323W        W50583  14.290  44.441  10.749
85324W        W50584  27.109  27.457   0.903
85325W        W50585  24.987  44.538   0.412
85326W        W50586  17.867  33.577  10.755
85327W        W50587  10.755  43.899  10.933
85328W        W50588  32.928   9.149   4.115
85329W        W50589  23.714  29.530   3.820
85330W        W50590  23.516   2.233   0.062
85331W        W50591  19.159   0.456  13.857
85332W        W50592  27.361  30.909   0.947
85333W        W50593  20.795  32.440   2.504
85334W        W50594  27.120  20.225  14.417
85335W        W50595  22.254  35.837  12.192
85336W        W50596  17.808  22.586  12.609
85337W        W50597   5.285   1.227  13.136
85338W        W50598   5.106  15.677   4.100
85339W        W50599   5.304  22.328   3.463
85340W        W50600  33.624  10.741   1.936
85341W        W50601  32.973  30.210  10.257
85342W        W50602   6.994  16.898  14.100
85343W        W50603  17.290  19.155  14.830
85344W        W50604  25.755  29.123   3.285
85345W        W50605  33.864  29.941  11.497
85346W        W50606  12.199  11.288   4.609
85347W        W50607  38.585   3.721   4.086
85348W        W50608  11.635  15.188  10.613
85349W        W50609  38.894  31.907   2.487
85350W        W50610  30.215  41.338   3.596
85351W        W50611   0.202   4.738  10.768
85352W        W50612   4.384  16.281  10.600
85353W        W50613   8.266  36.430   2.417
85354W        W50614  17.685  23.935  10.719
85355W        W50615  37.120  37.558   3.227
85356W        W50616  44.446  18.592   0.803
85357W        W50617   9.167  24.505   1.249
85358W        W50618  14.361  18.158   4.464
85359W        W50619  32.462  15.762   4.057
85360W        W50620   3.112  38.491   2.074
85361W        W50621  24.661   8.770   9.695
85362W        W50622  24.977  42.453  11.207
85363W        W50623  34.655  16.529   2.803
85364W        W50624  29.476  43.359   0.008
85365W        W50625  12.843  39.376   2.116
85366W        W50626  40.591  11.227   1.799
85367W        W50627  24.380  38.329   3.557
85368W        W50628  37.402  17.246   5.022
85369W        W50629  34.395  31.848  13.528
85370W        W50630  37.749  37.895   4.093
85371W        W50631   3.919  38.588  12.001
85372W        W50632  43.818  36.109   2.054
85373W        W50633  43.048   4.296  14.385
85374W        W50634  13.839  21.956  10.559
85375W        W50635   8.721  18.597   2.146
85376W        W50636  40.945  25.301   0.316
85377W        W50637   6.748   4.757  14.356
85378W        W50638  36.186  17.398   4.109
85379W        W50639  11.128  44.950   3.306
85380W        W50640   4.421  11.173   2.771
85381W        W50641  21.528  44.821   3.923
85382W        W50642  41.842  26.544   2.162
85383W        W50643  41.314   6.806  10.804
85384W        W50644  21.037  13.993   4.450
85385W        W50645  39.464  30.595  13.367
85386W        W50646  10.421  29.876   4.388
85387W        W50647  40.779   3.500  12.998
85388W        W50648  27.942  36.794   2.866
85389W        W50649  44.986  19.608  13.579
85390W        W50650  22.731  38.578  10.682
85391W        W50651  15.233   2.323  11.843
85392W        W50652   9.344   1.145   0.807
85393W        W50653  37.111  13.660   2.719
85394W        W50654  40.339  38.732   0.788
85395W        W50655  11.700  30.831   1.343
85396W        W50656  13.683  43.790   2.195
85397W        W50657  36.066  28.545   4.084
85398W        W50658  37.565  39.082   4.659
85399W        W50659  41.924  17.263   0.778
85400W        W50660  16.006  44.006  14.129
85401W        W50661   9.468  29.138   4.648
85402W        W50662  10.267  36.395   0.569
85403W        W50663  19.244  21.414   4.651
85404W        W50664  21.785  28.642   3.697
85405W        W50665   9.731   0.045   4.573
85406W        W50666   1.715  26.116   2.746
85407W        W50667  20.567  32.389   1.038
85408W        W50668  17.541   3.146   3.245
85409W        W50669  42.441  21.910   4.619
85410W        W50670  16.266   5.217   2.807
85411W        W50671   8.736  20.011  12.915
85412W        W50672  25.310  12.932   4.757
85413W        W50673  29.631  41.811   4.540
85414W        W50674  33.379  24.692   3.230
85415W        W50675   3.221  21.549   1.821
85416W        W50676   4.383   4.026   3.825
85417W        W50677  29.208  10.389   3.765
85418W        W50678   2.203  42.033   4.193
85419W        W50679  12.859   2.246   2.254
85420W        W50680   4.639  22.684   1.958
85421W        W50681  26.976  25.644  12.485
85422W        W50682   7.376  24.751   1.631
85423W        W50683  24.745   7.002  11.470
85424W        W50684  23.271  35.022   3.165
85425W        W50685  33.001  25.744  13.816
85426W        W50686  36.995  40.925   4.750
85427W        W50687  42.435   2.015   3.679
85428W        W50688  41.418  25.938  12.484
85429W        W50689   1.063  13.469  10.994
85430W        W50690  40.007  40.801   2.476
85431W        W50691  22.692  37.110  13.634
85432W        W50692   2.924  39.950   3.819
85433W        W50693  23.140  13.499  12.549
85434W        W50694  28.667  34.535   3.258
85435W        W50695  42.221  36.864  13.035
85436W        W50696  44.960  23.007  11.633
85437W        W50697   8.576  17.750  10.621
85438W        W50698   7.724   8.204   4.150
85439W        W50699   7.499   3.220  11.998
85440W        W50700   9.957   5.324  14.278
85441W        W50701   8.000  43.925  10.403
85442W        W50702   3.662  34.994  14.901
85443W        W50703  35.575  44.966  12.837
85444W        W50704   4.460   2.914  12.342
85445W        W50705   4.712  35.395   3.110
85446W        W50706  39.408  12.670  10.922
85447W        W50707   4.243  27.133   1.678
85448W        W50708  23.819   0.751  13.862
85449W        W50709  35.571  36.541  12.354
85450W        W50710  38.331  32.702  11.017
85451W        W50711  39.289  15.255   4.334
85452W        W50712  22.028   8.645  13.093
85453W        W50713  29.466   9.347   0.817
85454W        W50714   0.419   7.893  14.416
85455W        W50715  41.201  36.425   3.667
85456W        W50716  25.983  17.024   1.334
85457W        W50717  13.119  36.374  14.890
85458W        W50718   2.702  12.697  13.034
85459W        W50719  39.889   0.825  14.527
85460W        W50720  11.079  34.828  13.072
85461W        W50721   9.808   7.137   3.544
85462W        W50722  29.712  14.900   2.898
85463W        W50723  14.201  26.431  10.647
85464W        W50724  32.498  10.716   2.638
85465W        W50725  40.908   6.190  13.403
85466W        W50726  18.153  21.250   2.751
85467W        W50727   3.859  29.653   3.137
85468W        W50728  18.535  24.614  14.043
85469W        W50729  19.115  33.461   0.424
85470W        W50730  29.383  19.984   1.881
85471W        W50731  17.527   1.985   2.327
85472W        W50732  32.469  36.133   1.191
85473W        W50733  13.172  37.604   2.354
85474W        W50734  20.196  39.032  14.464
85475W        W50735  18.020  12.718  11.630
85476W        W50736  24.042  38.942  14.984
85477W        W50737  31.529  41.456  10.897
85478W        W50738   5.362  12.321   4.361
85479W        W50739  26.637  36.863   5.193
85480W        W50740  34.233   6.335  13.321
85481W        W50741  14.224  33.875  14.259
85482W        W50742  40.934  14.310  14.990
85483W        W50743  31.864  16.210   2.438
85484W        W50744  36.393  35.110   3.774
85485W        W50745  39.878  35.069   3.721
85486W        W50746   1.638  19.034   2.522
85487W        W50747  17.628  11.684  10.614
85488W        W50748  25.259   6.387  13.826
85489W        W50749  15.388  18.715   1.882
85490W        W50750  41.252  12.118  11.634
85491W        W50751  32.979  39.717   0.929
85492W        W50752  31.475  25.416  14.321
85493W        W50753  18.263  20.623  12.580
85494W        W50754  22.157  29.272  12.211
85495W        W50755  35.506  14.583  12.547
85496W        W50756  32.508   5.681   0.733
85497W        W50757  17.625  23.995   4.073
85498W        W50758  12.725  19.688  11.571
85499W        W50759  33.189  41.421   3.191
85500W        W50760  15.354  30.907  14.911
85501W        W50761  17.776  33.310   1.388
85502W        W50762  44.325  23.110   1.289
85503W        W50763  38.349  44.860   3.611
85504W        W50764  34.937   6.704   3.348
85505W        W50765  40.487  15.490   0.700
85506W        W50766  14.393   1.799  13.594
85507W        W50767  31.983  21.583   0.307
85508W        W50768  20.980  38.976  10.932
85509W        W50769  10.609  17.662  13.483
85510W        W50770  25.378  15.958   4.907
85511W        W50771   1.116  35.126   0.816
85512W        W50772  40.327   0.724   4.102
85513W        W50773   3.877  20.309   0.311
85514W        W50774  15.219  40.407  13.096
85515W        W50775  15.035  20.126  14.538
85516W        W50776   8.396  20.168   0.353
85517W        W50777  18.223  31.968   1.243
85518W        W50778  43.800  20.585   3.506
85519W        W50779  33.495  23.130   2.677
85520W        W50780  18.864  32.654   0.269
85521W        W50781  16.171   8.420  13.395
85522W        W50782  18.148  30.798  14.375
85523W        W50783  24.182   6.298  12.258
85524W        W50784  27.422  41.822   4.534
85525W        W50785  13.194  24.941   1.819
85526W        W50786  12.774  16.603  10.632
85527W        W50787  14.239  16.859  13.412
85528W        W50788  32.368  17.347   2.629
85529W        W50789  34.708  41.773  12.968
85530W        W50790  43.540  26.541  14.807
85531W        W50791  13.237  31.988   0.533
85532W        W50792   3.935  41.368  13.537
85533W        W50793  25.992   5.185   3.320
85534W        W50794   8.437  24.073   5.421
85535W        W50795  16.646  23.451  10.734
85536W        W50796  44.424  11.827  11.782
85537W        W50797  26.138  27.724  14.438
85538W        W50798  32.999  19.143   0.402
85539W        W50799  17.180  44.489   4.288
85540W        W50800  17.770  16.655   3.160
85541W        W50801  28.780  28.556   1.236
85542W        W50802  11.262   7.322   0.030
85543W        W50803  41.764  37.657  12.937
85544W        W50804   8.288  40.011  12.058
85545W        W50805  28.669  40.349   1.448
85546W        W50806  16.662  23.790  14.797
85547W        W50807   1.810  43.999  13.601
85548W        W50808  34.431   0.740  13.349
85549W        W50809  24.738   8.533   5.424
85550W        W50810  14.390  10.139   0.613
85551W        W50811  35.994  38.407   4.930
85552W        W50812  43.240  25.257  12.926
85553W        W50813  27.386  39.458   3.654
85554W        W50814   9.811  10.522   2.820
85555W        W50815   3.746  37.893  12.686
85556W        W50816  40.834  23.273  14.583
85557W        W50817  31.588  41.074  11.254
85558W        W50818  19.067  36.504   0.416
85559W        W50819  44.600  17.539   0.564
85560W        W50820  21.219  21.090   2.341
85561W        W50821  25.699   9.158   2.455
85562W        W50822  10.054  15.361  11.537
85563W        W50823  12.271  40.585  12.597
85564W        W50824  20.373  37.856  13.094
85565W        W50825  40.622  26.849  11.007
85566W        W50826  34.967   8.227   4.211
85567W        W50827  19.677  23.560   4.718
85568W        W50828  27.068  32.040   0.407
85569W        W50829  13.278  31.678   1.864
85570W        W50830  44.390  13.580   0.289
85571W        W50831  18.045  21.996  11.318
85572W        W50832  13.260  34.216   1.778
85573W        W50833  31.899  18.972  12.039
85574W        W50834  29.980  15.820   5.041
85575W        W50835   1.353  22.330   0.289
85576W        W50836  32.346   4.680  12.016
85577W        W50837  30.158  24.717  11.186
85578W        W50838  34.262  39.059   4.585
85579W        W50839  40.168  38.611   4.381
85580W        W50840  11.362  21.241   4.966
85581W        W50841   1.779  31.970   3.617
85582W        W50842   5.907  18.087  11.731
85583W        W50843  15.998  39.658  12.186
85584W        W50844   9.832   8.689  14.580
85585W        W50845  36.057  20.557  14.779
85586W        W50846   4.674   9.795   0.467
85587W        W50847   3.334  18.844  10.755
85588W        W50848   1.163  28.460   4.557
85589W        W50849  34.358  24.157  13.930
85590W        W50850  41.015  15.558   3.486
85591W        W50851  44.261  30.346  13.878
85592W        W50852  14.542  41.984   0.939
85593W        W50853  15.127  29.730   4.229
85594W        W50854  23.491  44.773  11.960
85595W        W50855   0.849  37.835   2.048
85596W        W50856  31.475  32.383   3.736
85597W        W50857  13.553  17.538   2.700
85598W        W50858   9.690  36.560   3.425
85599W        W50859  42.100  31.024   1.726
85600W        W50860  32.917  33.675   3.690
85601W        W50861  13.066  29.082  12.474
85602W        W50862  20.312  34.456   2.162
85603W        W50863  31.191  36.807  12.059
85604W        W50864  20.621  42.264  14.844
85605W        W50865  32.949   2.350   3.578
85606W        W50866  44.482   4.151  13.059
85607W        W50867  17.205   4.133   0.462
85608W        W50868  32.189  27.976  11.473
85609W        W50869  24.248  28.554  14.832
85610W        W50870  17.450  33.930  14.123
85611W        W50871   4.156  35.097  12.419
85612W        W50872   9.316  33.950  13.453
85613W        W50873  18.990   7.301  10.319
85614W        W50874  21.487   2.092  11.224
85615W        W50875  11.101  39.974  10.723
85616W        W50876  35.470  32.502  14.968
85617W        W50877   9.869  14.795  14.389
85618W        W50878  36.947  10.952  13.888
85619W        W50879  20.093  24.091   2.706
85620W        W50880  30.467   0.947  14.881
85621W        W50881   6.251  10.663   3.721
85622W        W50882  17.299  35.383   1.032
85623W        W50883   7.117  18.701  13.713
85624W        W50884  12.242  20.590   3.630
85625W        W50885  27.971  29.084  12.580
85626W        W50886  38.455  31.041   0.438
85627W        W50887  31.542   9.430   4.166
85628W        W50888   6.748  19.679   2.915
85629W        W50889  24.424  18.597   1.672
85630W        W50890  13.630  42.299  14.139
85631W        W50891   0.499   0.954  13.572
85632W        W50892   5.797  20.518  11.481
85633W        W50893  42.362  39.478  13.140
85634W        W50894  39.767  30.201   1.702
85635W        W50895   9.924  41.814  14.965
85636W        W50896  36.008  31.529   4.426
85637W        W50897   7.243  34.076  11.599
85638W        W50898  41.461  11.866   2.375
85639W        W50899   3.567  31.459   0.957
85640W        W50900  21.381  15.046   3.147
85641W        W50901  32.574  34.668  13.989
85642W        W50902  42.750   5.247   4.308
85643W        W50903  22.651  14.896  12.681
85644W        W50904  27.204  25.551  12.941
85645W        W50905  30.988  18.446  11.122
85646W        W50906   0.303  28.366   1.810
85647W        W50907  19.967  23.706   0.309
85648W        W50908  22.490  41.458   3.599
85649W        W50909   7.145  40.716   0.918
85650W        W50910   1.531   7.747  10.689
85651W        W50911   0.421  19.971   2.776
85652W        W50912  42.532   1.368  14.376
85653W        W50913  30.069  28.124   3.660
85654W        W50914  15.469  21.037   1.719
85655W        W50915  25.237  41.902   2.428
85656W        W50916  17.483   5.144  12.421
85657W        W50917  24.664   5.867   0.918
85658W        W50918  13.156  24.537   2.141
85659W        W50919  16.562  35.796   3.772
85660W        W50920  19.006  34.984   0.351
85661W        W50921  31.836  18.245   3.190
85662W        W50922  20.721  30.686  11.658
85663W        W50923  26.426  16.613   4.194
85664W        W50924  44.305  22.309  13.071
85665W        W50925  38.033  30.337  14.951
85666W        W50926  33.941  31.155  13.034
85667W        W50927  13.928  17.285   0.291
85668W        W50928  32.457   1.284  12.035
85669W        W50929  39.805  31.616  14.004
85670W        W50930   3.450  32.032   4.546
85671W        W50931   4.995  22.480  14.611
85672W        W50932   2.384   7.467  13.518
85673W        W50933  37.119  25.702  11.971
85674W        W50934  34.143  36.143  12.880
85675W        W50935  39.457  18.476   0.505
85676W        W50936  28.984  31.479  11.137
85677W        W50937   3.556   6.739  14.403
85678W        W50938  42.109  22.938  12.442
85679W        W50939  39.974  15.216  13.154
85680W        W50940  34.983  41.056   1.882
85681W        W50941  24.129  32.572   1.206
85682W        W50942  28.547  12.217   3.716
85683W        W50943  29.477  34.778  11.680
85684W        W50944  31.463  23.250   1.318
85685W        W50945  33.402  44.681  11.918
85686W        W50946  39.316  36.412   4.332
85687W        W50947  25.564   4.975  13.865
85688W        W50948  38.902  19.822  10.628
85689W        W50949  10.656  11.762  13.208
85690W        W50950  27.602  41.990  10.690
85691W        W50951  31.775  22.222  14.324
85692W        W50952  12.694  17.765   4.204
85693W        W50953  18.052  32.404  12.333
85694W        W50954   9.639  30.876   2.345
85695W        W50955  34.413  34.384  11.882
85696W        W50956  42.410   6.551  12.051
85697W        W50957   3.478  42.932  11.596
85698W        W50958  18.247  24.982  13.313
85699W        W50959  37.406  37.728   0.834
85700W        W50960   8.647   6.916   1.801
85701W        W50961  11.629   6.699  11.075
85702W        W50962  31.296  43.550  13.412
85703W        W50963  43.805  29.963   2.741
85704W        W50964  35.578   6.807   0.442
85705W        W50965  38.187   2.201   2.714
85706W        W50966  34.001  43.136  13.933
85707W        W50967   7.192  20.565  13.959
85708W        W50968  35.254  21.731  12.838
85709W        W50969  11.441  20.000  10.498
85710W        W50970  16.236  26.802   2.817
85711W        W50971  21.656  37.147   2.819
85712W        W50972  41.430  11.679  12.563
85713W        W50973  10.779   8.401   2.897
85714W        W50974   7.949   3.512   0.189
85715W        W50975  41.178   2.342  11.930
85716W        W50976  26.774  39.996  14.333
85717W        W50977  34.533   2.222   4.152
85718W        W50978  26.944  14.332   0.025
85719W        W50979  40.776   8.274   0.262
85720W        W50980  23.268  39.102  11.935
85721W        W50981  12.799  35.012  11.233
85722W        W50982  37.832   5.650  12.532
85723W        W50983  32.541  37.589   2.667
85724W        W50984  36.123   7.189   0.900
85725W        W50985  12.768  24.019  13.367
85726W        W50986  32.689  36.979  11.990
85727W        W50987  28.369  32.534   3.298
85728W        W50988  43.254  25.137   3.593
85729W        W50989  37.880  21.294  11.065
85730W        W50990  21.120  25.199   1.491
85731W        W50991   5.334   3.651  11.160
85732W        W50992  11.171   9.502   1.295
85733W        W50993   0.226  24.661   1.284
85734W        W50994  22.427  25.025   1.238
85735W        W50995  16.697   9.602  13.996
85736W        W50996  30.928   1.140  12.026
85737W        W50997  11.878  27.055   4.960
85738W        W50998  14.033  22.542   0.840
85739W        W50999  14.317  19.492   4.164
85740W        W51000  39.833  25.966  14.945
85741W        W51001  34.841  38.345  11.118
85742W        W51002  35.079  18.668   3.214
85743W        W51003  39.569  34.520  13.616
85744W        W51004  24.568  32.400   3.170
85745W        W51005   9.113   0.854   2.801
85746W        W51006  14.534  26.557  11.603
85747W        W51007  39.155   1.505   3.123
85748W        W51008  32.603  17.628   0.051
85749W        W51009  17.524  37.782  10.560
85750W        W51010  20.584  10.530   1.318
85751W        W51011   4.762   0.529   1.914
85752W        W51012  15.417  18.117   0.682
85753W        W51013  39.625  38.426   4.300
85754W        W51014   2.286  43.855  12.394
85755W        W51015  44.419  20.628  13.306
85756W        W51016  37.527  39.072  11.499
85757W        W51017  31.460  19.755   3.123
85758W        W51018  41.031  25.469  12.539
85759W        W51019   0.745  28.961   1.337
85760W        W51020  41.667  43.174   2.746
85761W        W51021  11.737   1.799  10.315
85762W        W51022  12.766  20.093  14.796
85763W        W51023  43.689  43.807   1.203
85764W        W51024   4.914  12.561  10.331
85765W        W51025  38.880   3.431   1.469
85766W        W51026  43.340  20.834  12.043
85767W        W51027   0.775   5.330   2.985
85768W        W51028  17.358  20.569  12.496
85769W        W51029  39.513  31.313   4.156
85770W        W51030  20.254  43.816   3.753
85771W        W51031  44.789  13.116  12.667
85772W        W51032   1.947  38.396  13.912
85773W        W51033  25.756  15.664  14.970
85774W        W51034   2.534  32.603  13.525
85775W        W51035  16.207  27.361  14.474
85776W        W51036  32.376  27.528   2.111
85777W        W51037  23.507  16.664   3.186
85778W        W51038  24.520   2.923  14.239
85779W        W51039   4.172  18.679   1.803
85780W        W51040  30.918  30.957   0.474
85781W        W51041  39.108  22.170  10.489
85782W        W51042  13.417  40.120   3.251
85783W        W51043  28.249  18.117   4.676
85784W        W51044  37.007  27.460   1.683
85785W        W51045   9.853  29.642   1.430
85786W        W51046  15.604  30.355   4.629
85787W        W51047  20.289   6.900  12.517
85788W        W51048  42.904  32.413   1.837
85789W        W51049  21.293  41.527   1.887
85790W        W51050  39.769  36.275  11.852
85791W        W51051  24.411  14.125   0.143
85792W        W51052  25.473  39.672   3.257
85793W        W51053  36.068  23.959   4.042
85794W        W51054  38.572  19.180   3.817
85795W        W51055  31.115   3.510  12.997
85796W        W51056   5.349  12.210  10.618
85797W        W51057  12.248  25.448  13.563
85798W        W51058  24.089  20.796   3.319
85799W        W51059  20.775  33.654  13.851
85800W        W51060  10.341  17.205  13.528
85801W        W51061  43.909  31.397  11.023
85802W        W51062   4.888  16.283  11.583
85803W        W51063  33.336   5.975  11.960
85804W        W51064  12.338   4.324   1.418
85805W        W51065  26.054   9.239   0.408
85806W        W51066   7.280  14.323  10.565
85807W        W51067  27.595  44.511  13.601
85808W        W51068   3.262  43.403  11.615
85809W        W51069  40.200  21.654   2.795
85810W        W51070   4.967  24.971  12.069
85811W        W51071  19.974  14.356  12.641
85812W        W51072  11.377  22.682   3.684
85813W        W51073   0.744   2.753   0.373
85814W        W51074  43.290  32.299   1.481
85815W        W51075  11.212   5.741  12.368
85816W        W51076  41.759   6.295  13.031
85817W        W51077  18.066  35.190  13.422
85818W        W51078  35.469  20.767  14.944
85819W        W51079   4.137  37.118  10.988
85820W        W51080   1.704  22.518   1.276
85821W        W51081   6.670   3.311   0.999
85822W        W51082  32.005  35.039   4.138
85823W        W51083  35.825   7.785  13.949
85824W        W51084   3.740  29.372   1.845
85825W        W51085  21.087  35.408   2.396
85826W        W51086  40.391  16.185   2.482
85827W        W51087  18.451  37.389  10.991
85828W        W51088  35.464  34.905   2.096
85829W        W51089  33.588  43.775   3.643
85830W        W51090   2.289  10.467  10.591
85831W        W51091   1.643   6.592   3.002
85832W        W51092   4.242  28.479   3.327
85833W        W51093  19.209  11.269  13.054
85834W        W51094  19.691  30.800   4.817
85835W        W51095   3.248  37.019  14.384
85836W        W51096  12.307   8.503   5.308
85837W        W51097  43.915  28.071  13.011
85838W        W51098  21.813   9.292   0.235
85839W        W51099  41.834  16.292  13.125
85840W        W51100  44.991   3.091  13.454
85841W        W51101  33.047   0.743  11.582
85842W        W51102  22.992  37.116   3.065
85843W        W51103  35.853  14.170   1.883
85844W        W51104   4.486  18.097  12.511
85845W        W51105  41.229   2.365   1.230
85846W        W51106  24.082  10.447  14.595
85847W        W51107   6.057  24.087   1.020
85848W        W51108   0.795   4.491   0.405
85849W        W51109  21.759  15.852   0.345
85850W        W51110  43.933  15.623   4.461
85851W        W51111   8.382   1.489   0.837
85852W        W51112   2.263  38.613   4.096
85853W        W51113  41.424   9.840   4.969
85854W        W51114  33.615   4.264   2.208
85855W        W51115  36.036  18.453   4.141
85856W        W51116  12.039  16.828  11.016
85857W        W51117  19.132  13.081   4.175
85858W        W51118   1.251  44.451   1.355
85859W        W51119  42.534  40.346  13.073
85860W        W51120  30.493  26.122   3.277
85861W        W51121  11.291  37.815  14.521
85862W        W51122  26.181  26.486   3.865
85863W        W51123   1.836   3.484  12.108
85864W        W51124   4.194   3.683  11.567
85865W        W51125  32.438  43.455   3.223
85866W        W51126   2.461  42.452   4.426
85867W        W51127  22.736  32.150   3.442
85868W        W51128  34.892  27.102  13.843
85869W        W51129  28.119  23.310  12.672
85870W        W51130  29.577  39.051   3.396
85871W        W51131  21.208  35.062  12.459
85872W        W51132  23.065  12.142   0.627
85873W        W51133  34.687  43.173   0.191
85874W        W51134   5.793  28.264   1.718
85875W        W51135  33.202  31.917  10.565
85876W        W51136  33.651   5.851  12.775
85877W        W51137  42.776  25.481   1.294
85878W        W51138  15.181   1.914  14.716
85879W        W51139  36.300  25.869   2.726
85880W        W51140  43.513  36.374   1.419
85881W        W51141  22.564   1.509   2.827
85882W        W51142  44.295  28.183  14.928
85883W        W51143   2.487  23.737   1.236
85884W        W51144  22.208  10.243  11.751
85885W        W51145  10.613  23.724   4.148
85886W        W51146  20.274  31.602   3.569
85887W        W51147  26.267   8.267  12.513
85888W        W51148   4.218  38.132   2.823
85889W        W51149   4.863  16.145   4.160
85890W        W51150  24.668   0.979   1.345
85891W        W51151  28.844  31.290   0.971
85892W        W51152  19.288  11.655  11.235
85893W        W51153  34.073  40.388   0.354
85894W        W51154  31.650   4.223   1.378
85895W        W51155  23.028  29.480  12.506
85896W        W51156  37.487  10.750  11.939
85897W        W51157  36.961  31.213  12.337
85898W        W51158   6.952  44.711   2.277
85899W        W51159  35.138  35.916   1.736
85900W        W51160  31.477  28.876   2.067
85901W        W51161  39.596  23.937  13.939
85902W        W51162  10.231  27.618  14.876
85903W        W51163  28.617  41.271   0.506
85904W        W51164  38.726  25.635   0.960
85905W        W51165   2.029  21.274  13.484
85906W        W51166  21.560  33.471   3.794
85907W        W51167   4.716  13.484  12.345
85908W        W51168  35.841   7.133   3.880
85909W        W51169  27.107  23.392  14.855
85910W        W51170  30.190  38.519  12.997
85911W        W51171  10.476  31.192  14.336
85912W        W51172  14.256  15.168  10.530
85913W        W51173   1.802  44.908  11.841
85914W        W51174   2.256  21.618   2.131
85915W        W51175  17.547   2.751  12.578
85916W        W51176  42.662  17.696  14.378
85917W        W51177  18.726  23.766   2.240
85918W        W51178  12.140  17.855   2.243
85919W        W51179   6.911  33.617  11.575
85920W        W51180  21.335  12.966   2.182
85921W        W51181  39.420  44.632  10.451
85922W        W51182   4.216  17.980   0.476
85923W        W51183  15.957   1.714   0.170
85924W        W51184   0.860  27.536   3.098
85925W        W51185  17.159   3.379   0.918
85926W        W51186   4.235  17.268  11.108
85927W        W51187  31.339   3.413  13.532
85928W        W51188  32.932  25.603   1.620
85929W        W51189  26.662   7.887   3.139
85930W        W51190   8.348  30.025   4.706
85931W        W51191  21.427  25.933   4.106
85932W        W51192  15.818  27.509   3.624
85933W        W51193  41.858  22.794  11.545
85934W        W51194  34.677   5.735   4.571
85935W        W51195  13.753  25.880   0.297
85936W        W51196  28.429   1.540  11.160
85937W        W51197  36.338   7.529  14.482
85938W        W51198   6.691  19.097   0.303
85939W        W51199  38.486  13.051   0.962
85940W        W51200   0.848  17.955  13.516
85941W        W51201  43.479  16.146  12.370
85942W        W51202  36.266  25.740  11.181
85943W        W51203  27.274  15.622  13.341
85944W        W51204   1.239  11.773   0.931
85945W        W51205  41.424  42.888  12.949
85946W        W51206  15.143  30.080   0.341
85947W        W51207  11.301  20.460   4.198
85948W        W51208  21.608  44.400   4.211
85949W        W51209   1.830  25.868  13.144
85950W        W51210  40.119  27.611   4.212
85951W        W51211  44.995  37.285   2.681
85952W        W51212   2.191  15.171   0.798
85953W        W51213   5.136  18.793   0.947
85954W        W51214  35.355   3.644  12.782
85955W        W51215   1.710  27.578  12.048
85956W        W51216  12.891  36.541   4.017
85957W        W51217  17.595   4.477   0.498
85958W        W51218  37.938  30.453  13.954
85959W        W51219  17.403  38.911  13.225
85960W        W51220   6.599  31.605   2.768
85961W        W51221  42.391   4.863   4.381
85962W        W51222  33.467  19.567  10.485
85963W        W51223  18.675  16.108   1.916
85964W        W51224   1.838   6.143   3.151
85965W        W51225   2.088  20.044   3.265
85966W        W51226  18.257  21.260  14.309
85967W        W51227  41.884   2.427   0.050
85968W        W51228  37.120  18.619   0.690
85969W        W51229   5.331   8.970   2.417
85970W        W51230  38.906  16.561  13.058
85971W        W51231  33.458  29.313  10.207
85972W        W51232  33.470  44.717   0.754
85973W        W51233  44.371  14.765   1.812
85974W        W51234   4.563  11.901   4.625
85975W        W51235  42.200  25.639  11.557
85976W        W51236  24.703  35.309   2.233
85977W        W51237  16.723   3.915   0.293
85978W        W51238  33.823   9.620  11.666
85979W        W51239  16.686  15.409   4.605
85980W        W51240  14.370  44.244  14.764
85981W        W51241   3.750  34.709  13.908
85982W        W51242  24.152   9.870  11.922
85983W        W51243  29.976   9.880   0.457
85984W        W51244   6.145  37.094  14.943
85985W        W51245  35.041  30.552  13.936
85986W        W51246   4.375   3.838   2.993
85987W        W51247  12.399  13.282  11.939
85988W        W51248  33.582  41.799  14.526
85989W        W51249  29.627  34.257  14.853
85990W        W51250  16.224  35.091  11.680
85991W        W51251   6.373  28.287  12.056
85992W        W51252  44.238  30.488  12.064
85993W        W51253  20.727  27.517   3.658
85994W        W51254  24.396  25.086   2.246
85995W        W51255  31.012  18.468   5.016
85996W        W51256  42.695  15.698   0.728
85997W        W51257  33.698  28.695   4.035
85998W        W51258  29.303   6.153   3.579
85999W        W51259  39.894  42.507  14.507
86000W        W51260   1.396  26.549  12.974
86001W        W51261  37.475  39.914  14.752
86002W        W51262  33.049  34.593   3.880
86003W        W51263   8.725  40.073  11.774
86004W        W51264  25.489  14.226   1.620
86005W        W51265  19.092   9.637   4.684
86006W        W51266  29.998  27.267  11.011
86007W        W51267   5.317   5.642  14.474
86008W        W51268  29.253  42.502  12.595
86009W        W51269  26.024  28.018  12.434
86010W        W51270   2.083  12.400   3.163
86011W        W51271  18.593  19.749  13.390
86012W        W51272  10.984   4.229  10.714
86013W        W51273  18.505  13.754  12.532
86014W        W51274  27.911  42.927   3.395
86015W        W51275   8.762  43.551   4.357
86016W        W51276  12.661  16.133  11.398
86017W        W51277   2.016   5.845  12.496
86018W        W51278  39.824   9.030  12.060
86019W        W51279  41.492  31.475   3.388
86020W        W51280  39.819  24.660   3.774
86021W        W51281  10.314   4.744  10.735
86022W        W51282   8.980  44.841   4.046
86023W        W51283  15.837   0.166  11.134
86024W        W51284   6.352   8.432   1.185
86025W        W51285  20.732  26.624  10.119
86026W        W51286   0.139  39.815  11.156
86027W        W51287  17.336   0.952  11.464
86028W        W51288  11.374   6.789   0.653
86029W        W51289   5.374  20.691  13.197
86030W        W51290  24.954  33.556  11.159
86031W        W51291  39.137  43.723   3.196
86032W        W51292  21.633  27.180   3.575
86033W        W51293  43.748  30.402   4.313
86034W        W51294   7.513  30.672   0.749
86035W        W51295   4.375  28.329  13.980
86036W        W51296   9.393  22.953   1.383
86037W        W51297  38.976  41.901   4.645
86038W        W51298   2.917   4.015  12.579
86039W        W51299  29.932  36.842   0.013
86040W        W51300  27.493  19.331  11.653
86041W        W51301  27.539  18.677   3.730
86042W        W51302   7.593  33.764   5.144
86043W        W51303  13.402  40.262   4.201
86044W        W51304   7.479  41.257   2.926
86045W        W51305  18.353  21.735  12.575
86046W        W51306  32.190  30.536   0.927
86047W        W51307  33.533  13.838   4.807
86048W        W51308  14.608  10.929  13.745
86049W        W51309   1.447  35.535   1.526
86050W        W51310  23.159  38.586   3.453
86051W        W51311   4.280  16.307  13.571
86052W        W51312  37.494  24.687   4.718
86053W        W51313  30.014   6.389   2.162
86054W        W51314  25.034  44.512  12.137
86055W        W51315  41.657  44.489  11.605
86056W        W51316  15.241  19.764  13.251
86057W        W51317  38.544  14.060  11.540
86058W        W51318  10.918  31.486  12.470
86059W        W51319  29.006  42.529  14.433
86060W        W51320   2.782   7.405   0.033
86061W        W51321  23.122   6.192  10.725
86062W        W51322  13.889   6.870   1.781
86063W        W51323   1.545   5.241   1.271
86064W        W51324  18.777   7.787   0.827
86065W        W51325  35.853  24.469   4.635
86066W        W51326  29.154  24.001  14.293
86067W        W51327  33.037  32.134  11.651
86068W        W51328  42.607  31.843   5.122
86069W        W51329  13.737  31.636  10.645
86070W        W51330   8.721   2.984  14.892
86071W        W51331  29.636   1.371   3.756
86072W        W51332  37.441  44.653   4.091
86073W        W51333  41.688   0.796   3.623
86074W        W51334  42.255  13.077  13.185
86075W        W51335  34.191  15.327  14.876
86076W        W51336  21.547  33.447  14.884
86077W        W51337   2.728  30.426  10.505
86078W        W51338  29.049  16.791  11.008
86079W        W51339  32.930  13.800   3.640
86080W        W51340  39.392   4.825  10.575
86081W        W51341  29.409  20.514  12.255
86082W        W51342  10.176  35.019   3.319
86083W        W51343  22.021   4.369   1.818
86084W        W51344  27.029   4.290  14.296
86085W        W51345  24.517  30.595  11.101
86086W        W51346  25.692  41.500  12.506
86087W        W51347  23.053  16.941  11.076
86088W        W51348  17.141  12.577   3.875
86089W        W51349  30.866  27.417  12.906
86090W        W51350  38.107  32.537   3.660
86091W        W51351   6.584   0.390  13.452
86092W        W51352  27.047  32.212   2.863
86093W        W51353  31.534   3.821  11.439
86094W        W51354  17.562  42.786   4.106
86095W        W51355  41.513   4.841   2.206
86096W        W51356  42.508  34.016  11.037
86097W        W51357  38.118  24.056  13.951
86098W        W51358  37.567  43.183   4.124
86099W        W51359  31.224   5.836   2.201
86100W        W51360  29.017  41.407   2.667
86101W        W51361  35.098  22.604  13.924
86102W        W51362  11.385   9.099   1.709
86103W        W51363  29.570  20.077  13.580
86104W        W51364   3.787   5.110   4.178
86105W        W51365  19.828  11.300  13.976
86106W        W51366  36.102  32.383   3.484
86107W        W51367  21.549  24.985   1.279
86108W        W51368  43.542  25.214  11.710
86109W        W51369  39.797  42.859   2.164
86110W        W51370  32.472   6.409  14.489
86111W        W51371  19.174  37.049  13.950
86112W        W51372   2.227   1.492   0.800
86113W        W51373  33.284  20.233   2.788
86114W        W51374  12.820   3.178   3.177
86115W        W51375   6.310  20.481  13.659
86116W        W51376   2.486  29.433  14.919
86117W        W51377   3.808  21.397  12.681
86118W        W51378  16.311  24.310  10.734
86119W        W51379   3.734  30.757  13.041
86120W        W51380  27.140  30.901   2.259
86121W        W51381  10.332  30.744  10.561
86122W        W51382  41.396  12.410   0.321
86123W        W51383   0.427  38.496  13.998
86124W        W51384  37.431   3.825   0.839
86125W        W51385   8.732   0.776  11.412
86126W        W51386  28.026  30.432  12.989
86127W        W51387  25.305   5.929   5.040
86128W        W51388  42.944  29.457  12.391
86129W        W51389   6.236  22.532   2.598
86130W        W51390  19.456  30.189  12.984
86131W        W51391  30.877   6.308   0.845
86132W        W51392  10.607  41.538   4.531
86133W        W51393  36.655   3.927   1.916
86134W        W51394   0.506  19.751  13.639
86135W        W51395  40.415  11.846  10.243
86136W        W51396  23.114   6.995   4.888
86137W        W51397  17.771  24.252   5.085
86138W        W51398   5.261  10.784  13.420
86139W        W51399   2.844   8.454   1.991
86140W        W51400  21.033  19.082  12.318
86141W        W51401  43.353   7.866   1.751
86142W        W51402  18.513  16.005   3.258
86143W        W51403   1.528   2.331  12.941
86144W        W51404  15.229  17.783   0.290
86145W        W51405  22.128  32.263  10.216
86146W        W51406  13.870  26.573  11.053
86147W        W51407  11.082   6.019  10.680
86148W        W51408  25.173  30.921  13.056
86149W        W51409  10.266  35.978  13.629
86150W        W51410  19.264  31.029  11.175
86151W        W51411  35.854  27.051   0.359
86152W        W51412  35.928  23.956  13.975
86153W        W51413   9.327  20.959   1.966
86154W        W51414  43.877  10.136   3.339
86155W        W51415   4.445  38.870   1.329
86156W        W51416  15.853  27.619  11.248
86157W        W51417  19.226  39.901  14.561
86158W        W51418  44.207   6.861  12.485
86159W        W51419  41.786  36.679  12.798
86160W        W51420  11.242  38.170  10.688
86161W        W51421   6.613  35.426  13.789
86162W        W51422  10.003   0.524  14.519
86163W        W51423  34.671  37.583   4.622
86164W        W51424  43.482  12.935  14.424
86165W        W51425  17.228  18.109   3.674
86166W        W51426  24.389  10.819   2.981
86167W        W51427  34.415   3.926  14.431
86168W        W51428  12.121  38.396   1.518
86169W        W51429  34.541   3.461  13.493
86170W        W51430  21.138  15.190   0.385
86171W        W51431   6.195  15.315   0.917
86172W        W51432  32.647  37.373   3.325
86173W        W51433  29.507  25.295   3.677
86174W        W51434   0.492  44.908   4.858
86175W        W51435  11.084  44.312  11.870
86176W        W51436  43.050  11.239  14.985
86177W        W51437   9.372  39.498   3.232
86178W        W51438  25.721   5.638  14.340
86179W        W51439  27.986  37.044   0.714
86180W        W51440  16.575  16.728   4.170
86181W        W51441  32.088  34.480  12.526
86182W        W51442  20.728  28.638   3.701
86183W        W51443  36.743  32.882   2.816
86184W        W51444  33.347   5.932   0.534
86185W        W51445   5.261   6.526  14.247
86186W        W51446  16.816  28.894   3.405
86187W        W51447   6.245  39.330   0.243
86188W        W51448   6.977  30.562  10.984
86189W        W51449  12.775  28.319  12.916
86190W        W51450  33.292  17.608  14.289
86191W        W51451  16.214   2.373  12.109
86192W        W51452  39.451   5.820  11.407
86193W        W51453  38.253  33.608  13.443
86194W        W51454  24.987  23.077   3.119
86195W        W51455  41.307  44.451  11.980
86196W        W51456  39.246  40.777   1.746
86197W        W51457  34.489  42.601  12.428
86198W        W51458  19.714  29.383   0.318
86199W        W51459  41.314  17.370  14.667
86200W        W51460  32.722  27.183   3.126
86201W        W51461  30.011   8.112  11.151
86202W        W51462  39.926  35.698  12.974
86203W        W51463  28.007   0.769   2.124
86204W        W51464  17.559  34.157  12.894
86205W        W51465  24.665  11.286   0.999
86206W        W51466  35.205   2.050  11.425
86207W        W51467  27.695  17.651   2.084
86208W        W51468   3.990  31.097  11.626
86209W        W51469   1.383  12.781  13.128
86210W        W51470  32.913  11.162   4.230
86211W        W51471   7.898   3.815   1.955
86212W        W51472  28.890  19.563   1.293
86213W        W51473  22.543  38.080   1.251
86214W        W51474  37.462   9.393  11.489
86215W        W51475  39.066  17.176   4.516
86216W        W51476   2.617  10.166  10.357
86217W        W51477   9.680  38.499   2.593
86218W        W51478  41.745   4.322   0.762
86219W        W51479  43.289  23.479  14.355
86220W        W51480  39.020   3.283  12.922
86221W        W51481   0.678  26.388  13.546
86222W        W51482  44.919  18.041   3.787
86223W        W51483  29.528   1.782  12.642
86224W        W51484  11.898   8.424  13.836
86225W        W51485   2.958  26.990   1.676
86226W        W51486  31.161  36.998   1.285
86227W        W51487  10.792   4.404  13.693
86228W        W51488  27.122   8.431  10.434
86229W        W51489  23.486   9.723  10.583
86230W        W51490  38.151   3.991   3.843
86231W        W51491   8.454  18.990   0.899
86232W        W51492  29.910  14.154   0.579
86233W        W51493  16.703  32.134  14.876
86234W        W51494  43.408  26.952   2.369
86235W        W51495  41.593  19.464   1.785
86236W        W51496   2.568  35.394  12.844
86237W        W51497  11.203  19.045  11.108
86238W        W51498  29.986   0.935   0.096
86239W        W51499  10.897  34.401  14.330
86240W        W51500  24.015  14.333   2.802
86241W        W51501   8.852  32.759  12.988
86242W        W51502  42.011  21.990   3.905
86243W        W51503  32.987   0.292  13.475
86244W        W51504  28.669  39.541   0.855
86245W        W51505   4.476   4.846  13.869
86246W        W51506  11.355  32.079  11.964
86247W        W51507  25.622  22.693  13.465
86248W        W51508  43.933  25.508  10.601
86249W        W51509  39.652  16.210  14.086
86250W        W51510  11.887   9.705   3.325
86251W        W51511   1.998  27.109  13.510
86252W        W51512  30.636   6.269   2.859
86253W        W51513  19.719  36.983   1.523
86254W        W51514  34.029  41.531   1.701
86255W        W51515  32.191  27.085   0.391
86256W        W51516  18.618  37.613  13.474
86257W        W51517  39.781  12.641   1.846
86258W        W51518  25.158  31.773   4.640
86259W        W51519   6.163  29.740  12.792
86260W        W51520  32.382  25.006  14.640
86261W        W51521  34.442  22.743  14.588
86262W        W51522  38.913  22.740  14.107
86263W        W51523  15.544  44.980  12.536
86264W        W51524  33.590  14.129   4.289
86265W        W51525  23.236  32.852   1.788
86266W        W51526  13.638  44.979   0.824
86267W        W51527  44.936  41.469   0.657
86268W        W51528  16.097  35.692  12.540
86269W        W51529  22.684  41.885   3.059
86270W        W51530   7.394  11.122   4.123
86271W        W51531  31.977  33.663   2.012
86272W        W51532  14.259  34.575   4.093
86273W        W51533   9.199  41.090  14.420
86274W        W51534  28.000  16.279  11.208
86275W        W51535  42.014  15.095   0.920
86276W        W51536  27.473  25.978  13.499
86277W        W51537   3.177  16.380   1.260
86278W        W51538  34.491  42.261   4.144
86279W        W51539  30.140  28.005  11.542
86280W        W51540  10.753  35.760   3.287
86281W        W51541  13.656  26.029  11.671
86282W        W51542  29.489  30.906   3.268
86283W        W51543  20.599  10.837   2.741
86284W        W51544  10.329  20.953   1.740
86285W        W51545  38.022  43.035   3.998
86286W        W51546   7.757  42.483  14.017
86287W        W51547  43.733  35.488  11.997
86288W        W51548  12.315  44.449   2.678
86289W        W51549  14.162  29.521   5.286
86290W        W51550  18.754  15.261   0.165
86291W        W51551   2.510  23.567   4.020
86292W        W51552   4.151  11.893  12.089
86293W        W51553   7.203  16.612  13.070
86294W        W51554  37.630  43.940   1.758
86295W        W51555  43.781  20.595  12.513
86296W        W51556   7.323  42.496  10.572
86297W        W51557  20.107  34.755  11.963
86298W        W51558  15.378   1.441  10.745
86299W        W51559  14.400   1.881  11.143
86300W        W51560  36.440  15.327   4.654
86301W        W51561  28.629   9.339   4.418
86302W        W51562   1.561  30.403   3.670
86303W        W51563  26.403   4.881   4.550
86304W        W51564   4.451  10.445   4.233
86305W        W51565  22.995  17.724  14.493
86306W        W51566   2.668  18.754   1.929
86307W        W51567  33.880  10.151  13.353
86308W        W51568   4.952  31.232  11.967
86309W        W51569  39.783  43.833  10.400
86310W        W51570   9.299  15.308  14.223
86311W        W51571   3.717  39.966   4.895
86312W        W51572  13.739  13.253   2.942
86313W        W51573  25.457  41.868   2.881
86314W        W51574  33.429  44.041   1.849
86315W        W51575  32.857  15.876   3.729
86316W        W51576  18.443   4.117   3.261
86317W        W51577  21.303  22.145  13.533
86318W        W51578  10.811  36.883  11.181
86319W        W51579  30.190  11.368   0.422
86320W        W51580  25.106  28.972  13.974
86321W        W51581  34.940  37.923   1.420
86322W        W51582  26.878  43.105   0.988
86323W        W51583  29.143  44.683   2.294
86324W        W51584  33.544  32.325   0.814
86325W        W51585   2.793  12.325  13.376
86326W        W51586   9.390  43.570   3.760
86327W        W51587  43.899  24.113  11.534
86328W        W51588  17.280  33.977   1.668
86329W        W51589  20.742  37.109   3.752
86330W        W51590   3.885  34.383   0.447
86331W        W51591   9.267  44.933  11.026
86332W        W51592  27.510  31.490  11.659
86333W        W51593  28.082  33.700   4.961
86334W        W51594   8.655  39.776   2.239
86335W        W51595  35.316  16.725  14.878
86336W        W51596  42.466  22.758  12.913
86337W        W51597  38.008  11.802   4.193
86338W        W51598   8.257  31.285   3.513
86339W        W51599  32.198  25.242   3.595
86340W        W51600  30.590  13.296   2.458
86341W        W51601  42.059  34.816  10.841
86342W        W51602   0.849  23.612  10.776
86343W        W51603  22.100  34.493   2.269
86344W        W51604  38.982   5.490   1.348
86345W        W51605  25.004  29.766  13.582
86346W        W51606  43.993  10.168   4.240
86347W        W51607  24.293  25.708   4.006
86348W        W51608  19.789  37.423  14.849
86349W        W51609  13.801  27.536   0.120
86350W        W51610  14.846  42.800   2.788
86351W        W51611   3.974  30.110   4.379
86352W        W51612  40.026  41.239  12.529
86353W        W51613  10.844  34.881   3.060
86354W        W51614  16.729  11.376   0.862
86355W        W51615  30.486   3.844  13.262
86356W        W51616  17.670   8.245  11.948
86357W        W51617  29.392  41.540   4.157
86358W        W51618  11.112  44.983   2.353
86359W        W51619  37.613  13.831   0.451
86360W        W51620  12.658  10.468  13.543
86361W        W51621  34.036  39.545   4.610
86362W        W51622  34.440  19.335  11.605
86363W        W51623  25.153  30.940   4.043
86364W        W51624  34.500  26.769  10.733
86365W        W51625   6.176   3.189  12.379
86366W        W51626  10.752  30.011  12.999
86367W        W51627  26.950  32.086   9.890
86368W        W51628  43.077  17.087  14.777
86369W        W51629  29.685  29.650   3.567
86370W        W51630  44.744  16.131  10.101
86371W        W51631  29.162  22.176  13.390
86372W        W51632  40.868   9.464   0.655
86373W        W51633  36.100  36.488  14.840
86374W        W51634  18.378  15.729  11.567
86375W        W51635  31.154   4.630   0.322
86376W        W51636   5.734  22.647   0.313
86377W        W51637  18.820   9.902  11.173
86378W        W51638   4.407  15.326  12.018
86379W        W51639  43.930  28.550  13.360
86380W        W51640  14.717  43.636  11.048
86381W        W51641  39.047  11.732   4.060
86382W        W51642  26.518  21.289   4.627
86383W        W51643  29.025  24.860   2.063
86384W        W51644  14.178  31.791  13.343
86385W        W51645  28.105  36.765  12.612
86386W        W51646  43.961  31.046  11.413
86387W        W51647  12.713   8.403  12.417
86388W        W51648  15.659  28.728  13.070
86389W        W51649  20.616  25.510  11.548
86390W        W51650  32.548  31.591  10.086
86391W        W51651  42.217  19.919   1.239
86392W        W51652  16.753  10.024   0.334
86393W        W51653  19.755  13.206   1.847
86394W        W51654  12.323  27.825  10.989
86395W        W51655  43.296  11.614  14.722
86396W        W51656  30.560  23.605   0.283
86397W        W51657  29.068   1.773   0.372
86398W        W51658  42.911   8.746  13.756
86399W        W51659  12.695  19.343   1.409
86400W        W51660  24.589   6.300   4.127
86401W        W51661  38.384  44.171   3.270
86402W        W51662  34.912  32.514   1.735
86403W        W51663  25.039  11.878   1.808
86404W        W51664  40.917  20.712   2.725
86405W        W51665  25.096  24.512   1.351
86406W        W51666  19.385  11.287   0.262
86407W        W51667  10.091  43.983   0.376
86408W        W51668  20.689   5.716   2.606
86409W        W51669   3.656  37.039  12.661
86410W        W51670   5.441  37.060   4.358
86411W        W51671  36.832  42.958  10.803
86412W        W51672   7.862   6.574  10.704
86413W        W51673  42.409  16.051  13.944
86414W        W51674  43.516  30.772   2.147
86415W        W51675  24.173  24.889  11.557
86416W        W51676   5.382  12.168   0.428
86417W        W51677  37.823   7.950   4.198
86418W        W51678   5.383  13.796  11.000
86419W        W51679  18.805   0.942   1.831
86420W        W51680  26.067  39.049   1.470
86421W        W51681   9.438   5.239  13.482
86422W        W51682  40.699  41.487   4.871
86423W        W51683   4.791  16.685  13.184
86424W        W51684  27.594  10.335   1.823
86425W        W51685   4.187   8.952   4.178
86426W        W51686  25.285  24.405  10.992
86427W        W51687  38.083  35.588  14.121
86428W        W51688   7.234  27.104   5.663
86429W        W51689  29.710  31.396   4.133
86430W        W51690   0.375   3.214  14.901
86431W        W51691  38.854   7.134   3.653
86432W        W51692  34.314  17.148  14.407
86433W        W51693  17.002  24.694  13.848
86434W        W51694  30.370  36.346   4.372
86435W        W51695  42.520  19.616   0.307
86436W        W51696  29.042  10.331  12.738
86437W        W51697   6.270  24.848  11.916
86438W        W51698  26.576  13.620   4.051
86439W        W51699   6.109   8.931  12.919
86440W        W51700  41.382  32.158   3.719
86441W        W51701  28.393  30.193   0.454
86442W        W51702  23.544  34.831  14.317
86443W        W51703  12.979  30.703  12.689
86444W        W51704  18.285  14.822  13.456
86445W        W51705  31.372  20.488  12.987
86446W        W51706  32.176  22.953  12.439
86447W        W51707  15.101  30.929  12.467
86448W        W51708  28.470  35.293  11.182
86449W        W51709   6.375  15.263  11.587
86450W        W51710  31.934  36.832   2.402
86451W        W51711  23.934  22.769  14.294
86452W        W51712  25.053  17.877  12.023
86453W        W51713  22.238   4.919   0.505
86454W        W51714   0.747  42.003   1.709
86455W        W51715  19.885  27.986  10.249
86456W        W51716  30.625   4.786   3.641
86457W        W51717  22.199  16.686   2.766
86458W        W51718  12.596  36.040   0.366
86459W        W51719  14.733  27.026  13.086
86460W        W51720  19.860   0.711   4.907
86461W        W51721   3.477   2.810  11.913
86462W        W51722  42.465  27.932   4.951
86463W        W51723  19.268  20.282   2.621
86464W        W51724  40.629   2.753  14.831
86465W        W51725  32.454  10.697  14.433
86466W        W51726  44.838  36.582  13.355
86467W        W51727  37.034  44.360  14.999
86468W        W51728   3.910  25.554   1.400
86469W        W51729  11.275  34.403   3.594
86470W        W51730   2.006  36.906  12.050
86471W        W51731  19.555  42.005  13.388
86472W        W51732   5.960  17.175  11.317
86473W        W51733  41.862  14.967  10.077
86474W        W51734   4.128  15.497   1.592
86475W        W51735  40.985   1.390   1.967
86476W        W51736   3.988  32.879  14.592
86477W        W51737   3.018   1.934  14.895
86478W        W51738  30.979  13.248   2.838
86479W        W51739  24.211   8.455   4.124
86480W        W51740  39.544   0.802   4.970
86481W        W51741  17.387  20.176  11.667
86482W        W51742   8.252  41.504   4.174
86483W        W51743  41.286  28.412  14.227
86484W        W51744  10.298  40.573  12.369
86485W        W51745   1.021  16.359   2.105
86486W        W51746  23.755  29.024  12.435
86487W        W51747  20.994  39.276   0.818
86488W        W51748  18.501  12.823  13.515
86489W        W51749   2.501  34.854  12.869
86490W        W51750  37.349  29.717   4.268
86491W        W51751  20.301  30.385   0.232
86492W        W51752   4.926   9.640   2.828
86493W        W51753   2.783  33.679   1.011
86494W        W51754   6.707   9.811  11.522
86495W        W51755  28.102  11.998  10.854
86496W        W51756  17.152  21.627   1.715
86497W        W51757   7.281  23.255   2.797
86498W        W51758  44.711  44.527  12.475
86499W        W51759  39.273  44.274  13.179
86500W        W51760  19.776  11.652  12.045
86501W        W51761   7.223  10.745  11.933
86502W        W51762  43.382   2.583   0.829
86503W        W51763  35.924  10.135   0.277
86504W        W51764  29.000  32.320   0.902
86505W        W51765  17.782  35.581   1.147
86506W        W51766  41.749   9.182   0.347
86507W        W51767  39.461   2.446   2.175
86508W        W51768  35.343  15.335  11.623
86509W        W51769  11.039   4.360  11.566
86510W        W51770  32.155  25.611   3.969
86511W        W51771  35.856  29.267  14.930
86512W        W51772  34.089   9.667   2.321
86513W        W51773  36.790  25.577   3.467
86514W        W51774  23.376   3.571   0.473
86515W        W51775  35.707  43.494  14.348
86516W        W51776  41.061  35.344   4.068
86517W        W51777   9.400  39.000   2.331
86518W        W51778  17.722  22.666  11.264
86519W        W51779  21.761   2.327  12.083
86520W        W51780  20.722   4.524   4.983
86521W        W51781  42.770  21.056   4.103
86522W        W51782  30.171  40.259   3.754
86523W        W51783  11.754   0.990  13.406
86524W        W51784  26.127   8.016  14.283
86525W        W51785  38.810  32.907  10.029
86526W        W51786  28.201  36.475  13.503
86527W        W51787   9.605  13.233  13.056
86528W        W51788   3.492  43.382  14.505
86529W        W51789  29.706   3.434   2.175
86530W        W51790  15.527  20.163   9.667
86531W        W51791  18.207  23.889  11.187
86532W        W51792   9.513  21.364   1.714
86533W        W51793  11.826  15.803   0.318
86534W        W51794   4.933   0.794   0.285
86535W        W51795  44.154  14.311   1.865
86536W        W51796   7.281   7.109   3.190
86537W        W51797  23.708   9.000   1.835
86538W        W51798  40.923  15.715   0.846
86539W        W51799  24.519  28.059  11.443
86540W        W51800  19.258   7.769  12.800
86541W        W51801  16.327  27.957   4.194
86542W        W51802  22.234  10.450  12.230
86543W        W51803   3.289  33.334  14.924
86544W        W51804  21.869  43.288  12.111
86545W        W51805  14.254  20.804  13.464
86546W        W51806   4.652  15.782   3.328
86547W        W51807   2.507  31.148  14.505
86548W        W51808  44.402   7.605   4.543
86549W        W51809  14.799  13.510  13.417
86550W        W51810  37.492  31.083   4.574
86551W        W51811  16.171   9.357  13.376
86552W        W51812  40.970  30.027   2.310
86553W        W51813  10.880  34.614   1.689
86554W        W51814   2.090   3.896   3.732
86555W        W51815   2.145   4.274  12.989
86556W        W51816  24.348  15.792  12.414
86557W        W51817   5.345  32.430  10.462
86558W        W51818  27.221  34.338  13.952
86559W        W51819  36.749   3.965  11.097
86560W        W51820  25.763  33.287  12.539
86561W        W51821  20.140  26.651  12.741
86562W        W51822  43.426  21.481  13.635
86563W        W51823   9.320  32.528   1.931
86564W        W51824   3.878  21.326  13.201
86565W        W51825  11.817  41.324   4.135
86566W        W51826  16.026  17.536  14.070
86567W        W51827  24.138  14.883  11.907
86568W        W51828  10.235  31.159   0.564
86569W        W51829   2.790  12.437   1.336
86570W        W51830  34.647  35.810  12.984
86571W        W51831  41.773  33.176   0.313
86572W        W51832  25.478  39.940  13.527
86573W        W51833  39.290  17.306   1.514
86574W        W51834   8.691   9.314  12.622
86575W        W51835  25.119   9.927   1.829
86576W        W51836  24.404  40.972   1.871
86577W        W51837  32.098  32.378  10.724
86578W        W51838   1.279  32.207  10.135
86579W        W51839  28.122   6.752  11.937
86580W        W51840   8.344   7.281  10.829
86581W        W51841  16.028  17.709  11.618
86582W        W51842  10.781   5.180   4.526
86583W        W51843   7.979  21.793   2.728
86584W        W51844  40.670  26.660   2.958
86585W        W51845  41.268   7.892  12.991
86586W        W51846  19.234  39.074   0.782
86587W        W51847  29.099  10.244   1.498
86588W        W51848  30.558  12.424  11.073
86589W        W51849   4.172  11.412  11.582
86590W        W51850   0.758   2.331  14.213
86591W        W51851  14.824  35.675  13.327
86592W        W51852  36.136  38.621   1.675
86593W        W51853   7.771  21.739  12.634
86594W        W51854   8.923  15.785   4.548
86595W        W51855   2.509  20.156   0.018
86596W        W51856  36.097   2.638  14.832
86597W        W51857  14.186  40.323  12.033
86598W        W51858  22.030  40.107   2.832
86599W        W51859  33.065  34.390  10.525
86600W        W51860  12.183  16.836   0.786
86601W        W51861  26.475  26.049  11.781
86602W        W51862  19.568  10.339   3.801
86603W        W51863  28.152  19.770  11.897
86604W        W51864   6.508  35.417  13.293
86605W        W51865  42.494  34.460   4.630
86606W        W51866  16.676  38.089  14.966
86607W        W51867   8.347  40.843   1.735
86608W        W51868  12.948  19.804   1.414
86609W        W51869  44.571  36.395  10.626
86610W        W51870  20.401  10.432   9.996
86611W        W51871   0.999   3.905   3.988
86612W        W51872  39.706  30.472   2.201
86613W        W51873  24.253  32.985  11.182
86614W        W51874  33.479  29.006  12.650
86615W        W51875   0.740  36.159  12.392
86616W        W51876   4.811  34.901   2.264
86617W        W51877  18.452  44.482   3.197
86618W        W51878  21.163   3.939  12.064
86619W        W51879  21.944   4.227  13.026
86620W        W51880   1.276  24.278   0.218
86621W        W51881  32.444   3.423  10.871
86622W        W51882  34.579   1.309   1.354
86623W        W51883  31.907  37.562  12.521
86624W        W51884  32.532   7.175   0.840
86625W        W51885   2.812   5.870  14.939
86626W        W51886   9.616   3.358   2.801
86627W        W51887  38.951  23.145  12.826
86628W        W51888  30.637  25.452  12.962
86629W        W51889  19.892  22.167   1.386
86630W        W51890  23.695  22.519  12.902
86631W        W51891  31.898  16.193   4.224
86632W        W51892  33.839  20.134  12.165
86633W        W51893  18.820   1.428   1.002
86634W        W51894  39.722  39.139   2.814
86635W        W51895  19.319  10.389  14.822
86636W        W51896  36.408  39.747  14.928
86637W        W51897  44.347  12.673  10.235
86638W        W51898  42.402  35.881  14.818
86639W        W51899  37.885  40.567  13.466
86640W        W51900  32.577  44.782  14.285
86641W        W51901  20.213   5.698  11.615
86642W        W51902  23.577  43.917  11.381
86643W        W51903  28.541   9.250   1.593
86644W        W51904   4.215  18.119   4.228
86645W        W51905   9.543  29.480  13.853
86646W        W51906  44.242  38.141   5.059
86647W        W51907  14.211  22.458   3.663
86648W        W51908   0.508  26.587  13.987
86649W        W51909  27.998   1.095   4.340
86650W        W51910   8.267  31.004   4.418
86651W        W51911  14.362  22.942  13.049
86652W        W51912  33.431  19.737   2.783
86653W        W51913  23.585  29.409   0.460
86654W        W51914  44.739  40.292   2.903
86655W        W51915  31.009  19.210   3.256
86656W        W51916  31.600  12.112  10.517
86657W        W51917  32.053   7.416  11.218
86658W        W51918  23.182  34.502  14.066
86659W        W51919  10.648  13.440  11.084
86660W        W51920   8.320  30.954   4.960
86661W        W51921  40.440  44.787   5.084
86662W        W51922  29.869  41.213  12.629
86663W        W51923  16.722  27.453  14.602
86664W        W51924  26.092  42.596   3.769
86665W        W51925  12.437   6.107  10.494
86666W        W51926   2.862   3.425  11.490
86667W        W51927   9.485  22.270   1.687
86668W        W51928   4.484  20.563   1.290
86669W        W51929  35.871  29.469  10.887
86670W        W51930  13.173  24.408  12.051
86671W        W51931  11.739  39.435   1.356
86672W        W51932   5.393  37.664  14.212
86673W        W51933  18.604  42.541  13.846
86674W        W51934  24.181  24.999   1.715
86675W        W51935  18.307  16.167  13.138
86676W        W51936  22.948  35.024   4.995
86677W        W51937   4.033  39.505   1.906
86678W        W51938  31.985   4.334  10.512
86679W        W51939  29.584  11.640  14.874
86680W        W51940  33.686   6.114   2.226
86681W        W51941  10.655  37.345  11.019
86682W        W51942  13.734   7.662   0.415
86683W        W51943  23.967  39.415  12.372
86684W        W51944  27.280   8.317   1.004
86685W        W51945  16.594  40.938  10.655
86686W        W51946   9.264  38.847  10.305
86687W        W51947   4.342   1.643   1.048
86688W        W51948   2.515  43.817  11.479
86689W        W51949  39.108  28.092  14.173
86690W        W51950  33.356   9.175  12.907
86691W        W51951  36.782  22.092   4.826
86692W        W51952  40.994   2.952   3.110
86693W        W51953   1.968  19.062  11.618
86694W        W51954  34.584   3.834  14.932
86695W        W51955  25.099  43.461   4.287
86696W        W51956  28.076  30.400   2.275
86697W        W51957  33.762   0.581  14.551
86698W        W51958  40.742  33.952  14.111
86699W        W51959  25.591   2.474   2.313
86700W        W51960  44.291   4.675   2.828
86701W        W51961  39.292  36.775   3.348
86702W        W51962  25.031  37.627  12.427
86703W        W51963  12.262  30.405   2.088
86704W        W51964  33.327   2.257  10.187
86705W        W51965  13.227  19.679  11.549
86706W        W51966   7.637  17.072  14.794
86707W        W51967  29.324   5.355  11.179
86708W        W51968   3.207  34.017  10.462
86709W        W51969  14.741   9.189  13.743
86710W        W51970  21.182  14.147  13.341
86711W        W51971  35.928  17.297  12.547
86712W        W51972   0.563  12.244  11.749
86713W        W51973  44.465  23.324   0.347
86714W        W51974  38.598  32.502  14.535
86715W        W51975  30.970   5.596   0.134
86716W        W51976  24.506   5.661   2.706
86717W        W51977   6.314  22.112  11.660
86718W        W51978   5.907   8.439   4.087
86719W        W51979  40.402  21.009  10.479
86720W        W51980  34.054  29.372  11.519
86721W        W51981  37.349   3.894  10.753
86722W        W51982  25.011   5.653  13.874
86723W        W51983  29.548  29.525   1.037
86724W        W51984  31.918  30.569   3.190
86725W        W51985  14.674   0.807   2.426
86726W        W51986  17.274  10.462   0.073
86727W        W51987  35.868  42.248   0.410
86728W        W51988   1.675  26.706  13.387
86729W        W51989  16.524   0.760   2.161
86730W        W51990   4.940  11.321  13.981
86731W        W51991   1.242  22.985   5.138
86732W        W51992  42.992  28.634  12.009
86733W        W51993  44.950   5.203  14.420
86734W        W51994  22.399  16.754   5.020
86735W        W51995  29.217  36.024   5.128
86736W        W51996  29.964  27.704  11.927
86737W        W51997  39.788  44.142   5.143
86738W        W51998  19.903  44.235   4.037
86739W        W51999  18.590  24.148   3.071
86740W        W52000  42.868   8.381   3.681
86741W        W52001   1.348  44.558  14.019
86742W        W52002  26.602  29.924  11.673
86743W        W52003  42.465  13.291   2.826
86744W        W52004  31.985  24.572   0.283
86745W        W52005  11.423  22.303  10.702
86746W        W52006   0.395  38.766  12.377
86747W        W52007  38.522  36.546  10.642
86748W        W52008  29.802   9.137  13.302
86749W        W52009  16.724  26.767   2.624
86750W        W52010  21.605  28.664   1.160
86751W        W52011   1.466  25.254   1.416
86752W        W52012   5.329  16.667  12.381
86753W        W52013   4.361  32.867   1.697
86754W        W52014  44.789  41.128   0.279
86755W        W52015  30.439  42.081   1.977
86756W        W52016  41.270  33.969   4.585
86757W        W52017   7.945  19.608  14.569
86758W        W52018   6.187   7.681   3.202
86759W        W52019   3.645  16.547   4.027
86760W        W52020  26.356   5.488  13.403
86761W        W52021  28.526  37.004   4.573
86762W        W52022  25.872   2.685   0.958
86763W        W52023  24.691  12.990   3.513
86764W        W52024   2.346  14.822  12.022
86765W        W52025  38.472  21.205   1.015
86766W        W52026  39.113  31.417   0.785
86767W        W52027  42.635   1.310   1.914
86768W        W52028  22.737   7.274  12.190
86769W        W52029  36.810  31.704  13.115
86770W        W52030  16.800  42.037   2.866
86771W        W52031  40.633  23.712   1.366
86772W        W52032  25.436  16.323   4.511
86773W        W52033  30.525  37.458   0.556
86774W        W52034  24.399  32.893   4.916
86775W        W52035   4.239   2.194  11.232
86776W        W52036   9.399  24.211  11.438
86777W        W52037  18.419   8.967   2.909
86778W        W52038  41.371   2.944   4.888
86779W        W52039  42.468  20.183   2.083
86780W        W52040   8.116   6.520  13.073
86781W        W52041  33.938   0.900   3.232
86782W        W52042  15.512  24.591  14.338
86783W        W52043  15.831   3.237   1.346
86784W        W52044  41.724  27.281  13.898
86785W        W52045  36.600  39.937  11.659
86786W        W52046  44.020  11.167   3.210
86787W        W52047  43.282  11.347   0.448
86788W        W52048  28.469  42.254   2.801
86789W        W52049  13.200  34.536   0.401
86790W        W52050  43.945  25.576  14.772
86791W        W52051   4.197   8.726  12.891
86792W        W52052  13.560  44.357  14.393
86793W        W52053   3.230   6.356  14.495
86794W        W52054  37.386  13.704   0.906
86795W        W52055   3.258  37.280  14.826
86796W        W52056  24.506  11.087  12.205
86797W        W52057   8.714  40.328   1.414
86798W        W52058   5.170  30.789  12.282
86799W        W52059  35.418  20.418  10.690
86800W        W52060  19.773  28.421  14.676
86801W        W52061   9.385   0.796   1.865
86802W        W52062   6.825  39.745   3.449
86803W        W52063  17.995  29.191  11.390
86804W        W52064   1.184  36.466  13.090
86805W        W52065  21.139  21.430   1.623
86806W        W52066  16.774  39.351   3.123
86807W        W52067  13.990  32.727   4.812
86808W        W52068  39.498   3.665  10.865
86809W        W52069  43.025  30.931   2.269
86810W        W52070  29.137  17.145   1.192
86811W        W52071  20.255   2.410   3.656
86812W        W52072  19.065  18.249  14.361
86813W        W52073  41.293  14.382   1.379
86814W        W52074  40.945  32.590  14.877
86815W        W52075  36.050  22.469   2.653
86816W        W52076   7.092   9.161   0.339
86817W        W52077  29.702  33.448  12.741
86818W        W52078  10.364  31.441   2.644
86819W        W52079  23.087  29.587   4.475
86820W        W52080  18.108  12.163   3.887
86821W        W52081   6.785   1.724   1.248
86822W        W52082  17.745  34.649   0.214
86823W        W52083  33.940  43.317   0.865
86824W        W52084   6.957  19.365  14.908
86825W        W52085   1.000  36.029  13.685
86826W        W52086  10.735  41.064  13.534
86827W        W52087  12.571  22.500   2.607
86828W        W52088  32.913  26.146  11.684
86829W        W52089  41.062  19.944  12.362
86830W        W52090  25.984  27.841  10.786
86831W        W52091   2.028  25.664   2.824
86832W        W52092   1.013  33.818   4.539
86833W        W52093  26.583   2.800  13.528
86834W        W52094  25.046  25.741  13.890
86835W        W52095  18.881  26.759   1.128
86836W        W52096   3.336  24.678  12.365
86837W        W52097   8.758  13.158   2.305
86838W        W52098   3.437   1.245  13.761
86839W        W52099  43.773  28.445   3.230
86840W        W52100  13.411  38.417   0.738
86841W        W52101  30.116  33.035   3.025
86842W        W52102  38.785  20.069   1.311
86843W        W52103   0.136  27.101   3.231
86844W        W52104  10.694   3.473  10.645
86845W        W52105  20.175  14.824  12.713
86846W        W52106  34.911  27.221  11.552
86847W        W52107   7.343  38.386   3.345
86848W        W52108  38.364  11.019  10.857
86849W        W52109  40.549  27.914  14.389
86850W        W52110  25.199  20.745   1.311
86851W        W52111   8.503  35.262   1.573
86852W        W52112  41.565  42.461  14.752
86853W        W52113  28.972  41.279  13.801
86854W        W52114  15.275   6.876  10.541
86855W        W52115  11.404   5.925   3.181
86856W        W52116   3.799  13.997   0.413
86857W        W52117  44.379   7.686   5.045
86858W        W52118  31.447  39.364   4.611
86859W        W52119  30.427  13.664   0.697
86860W        W52120  10.701  15.883   2.769
86861W        W52121   7.228  41.233  14.742
86862W        W52122  19.105  24.991  14.384
86863W        W52123  27.713  24.448  13.468
86864W        W52124  31.880  39.998   2.601
86865W        W52125   1.947  43.035  13.978
86866W        W52126  44.950  12.588  11.298
86867W        W52127  11.689  38.968  14.326
86868W        W52128  19.490  11.161  12.599
86869W        W52129  39.342  15.632   1.662
86870W        W52130  23.981  42.782   0.363
86871W        W52131  38.878  33.504   3.388
86872W        W52132  37.844   2.798  12.728
86873W        W52133  17.547   4.322   3.681
86874W        W52134  18.325  24.076  11.993
86875W        W52135   5.919  21.274   0.198
86876W        W52136  20.524   3.330  13.006
86877W        W52137  37.346   5.492  10.484
86878W        W52138  24.515  13.062  13.989
86879W        W52139  40.351  14.743   1.408
86880W        W52140  38.998  41.576   2.413
86881W        W52141   5.073  19.346  13.012
86882W        W52142  24.163  33.294   2.358
86883W        W52143  23.644   2.384  13.539
86884W        W52144  26.729  40.015   2.296
86885W        W52145  13.522  11.013   2.755
86886W        W52146  12.754  15.271   0.402
86887W        W52147  17.320   2.081   0.196
86888W        W52148   7.436  29.027   2.722
86889W        W52149  11.813  36.037   4.669
86890W        W52150   5.624  44.360  12.325
86891W        W52151  22.696  42.808  14.211
86892W        W52152   5.332  40.831  11.507
86893W        W52153   3.829  39.610  11.185
86894W        W52154  39.450   1.790   0.818
86895W        W52155  16.111  17.234  11.826
86896W        W52156  19.024   5.574   4.560
86897W        W52157  20.523   5.745   0.760
86898W        W52158  25.170  20.223   1.210
86899W        W52159  17.001  26.978  12.012
86900W        W52160  30.603  35.840  13.482
86901W        W52161  33.843  38.059  13.575
86902W        W52162  43.369  41.246  13.406
86903W        W52163  40.781  25.059   1.392
86904W        W52164  23.054  17.167   3.778
86905W        W52165  10.260  26.592  12.679
86906W        W52166  42.082  18.529  14.767
86907W        W52167   8.642   2.211  14.478
86908W        W52168  27.949  41.915  13.899
86909W        W52169  33.572  24.585  13.931
86910W        W52170  30.137  44.608  12.299
86911W        W52171  43.330  35.326  14.382
86912W        W52172  20.280   2.041   2.835
86913W        W52173  39.930   8.662   2.709
86914W        W52174   1.965  30.364  12.629
86915W        W52175   1.355  34.660   4.727
86916W        W52176  15.032   6.424   1.366
86917W        W52177  16.048   3.249  12.499
86918W        W52178  17.221  28.055   0.087
86919W        W52179   6.263   1.944  14.485
86920W        W52180  33.447  29.502  14.818
86921W        W52181  23.209  17.501  14.034
86922W        W52182  22.130  33.655   2.952
86923W        W52183   3.977  39.907  14.692
86924W        W52184  19.028  42.475  10.845
86925W        W52185  29.901   7.771  13.899
86926W        W52186  29.039  20.974  11.538
86927W        W52187  31.577   7.647   0.966
86928W        W52188  41.490  16.612  12.928
86929W        W52189  26.579  38.752  11.890
86930W        W52190  13.559  24.913   1.473
86931W        W52191  36.837  42.529  10.515
86932W        W52192   8.133  43.060  11.368
86933W        W52193  17.711   0.859  13.358
86934W        W52194  10.000  18.141  14.932
86935W        W52195  34.616   0.603  13.808
86936W        W52196  24.277  23.002  13.488
86937W        W52197  39.979  18.101  12.932
86938W        W52198  29.521   5.274   2.285
86939W        W52199   5.265  31.075   0.919
86940W        W52200   6.205  39.278  12.354
86941W        W52201  14.943  21.601   4.647
86942W        W52202  15.379  17.259   0.970
86943W        W52203  34.860  11.234   4.062
86944W        W52204  23.513  26.988   3.602
86945W        W52205  38.339  24.963   2.707
86946W        W52206  29.614  28.524   3.911
86947W        W52207  12.325  42.156  12.533
86948W        W52208  34.543  24.264  13.277
86949W        W52209   6.874  33.362   4.710
86950W        W52210   0.794  12.849   4.266
86951W        W52211  43.950  15.589  12.897
86952W        W52212  26.695  44.761  10.751
86953W        W52213  39.035  34.117  14.910
86954W        W52214  19.593  40.820  14.922
86955W        W52215   1.989  29.638  11.909
86956W        W52216  42.921  28.674   2.783
86957W        W52217  34.986  41.216   2.379
86958W        W52218   1.212  17.360  11.756
86959W        W52219  29.869   0.872  14.607
86960W        W52220  20.544  25.686   1.682
86961W        W52221  37.724   4.453  10.251
86962W        W52222  30.874  19.101  14.050
86963W        W52223  20.721  35.387  13.364
86964W        W52224   8.154  21.282   2.711
86965W        W52225   8.143  39.126  12.483
86966W        W52226  20.166  37.274  12.485
86967W        W52227  11.081  15.351   1.519
86968W        W52228  27.591   1.438   2.302
86969W        W52229   7.650  18.801  13.880
86970W        W52230  16.662   0.688  14.259
86971W        W52231  17.224  39.477   4.625
86972W        W52232   2.194   9.415  13.170
86973W        W52233  43.946  41.606  14.565
86974W        W52234   7.017  35.024   1.640
86975W        W52235  16.628   3.680   1.854
86976W        W52236  30.845   3.259  13.423
86977W        W52237  21.150  16.825  14.286
86978W        W52238   3.907  44.051   2.327
86979W        W52239  25.784  13.505  11.095
86980W        W52240  34.978  39.064  11.551
86981W        W52241  26.601  15.543   1.851
86982W        W52242  36.397   4.806  11.221
86983W        W52243   4.117  38.793   0.487
86984W        W52244  28.031  28.106   4.573
86985W        W52245   9.203  21.652  10.523
86986W        W52246  12.684  42.031   2.698
86987W        W52247  32.396  27.562   0.278
86988W        W52248  30.868  29.993  12.579
86989W        W52249  28.085  20.225   2.343
86990W        W52250  40.026   2.863  11.039
86991W        W52251  35.883  30.670  11.280
86992W        W52252  25.853  38.406   2.534
86993W        W52253  31.685   2.434  12.674
86994W        W52254  22.023  41.146   2.170
86995W        W52255  22.228   5.296  12.591
86996W        W52256  15.689  15.278   1.187
86997W        W52257  35.421   1.509  13.178
86998W        W52258  42.293  38.443   3.363
86999W        W52259  21.221  43.911   2.709
87000W        W52260   7.282   6.235  12.875
87001W        W52261  24.719  23.126  10.628
87002W        W52262   1.887  15.175  13.972
87003W        W52263   1.425   1.175   0.959
87004W        W52264   2.154  34.154  14.438
87005W        W52265  15.137  21.772   1.809
87006W        W52266  34.056  18.075  11.967
87007W        W52267  13.513  24.476   1.760
87008W        W52268   3.934  38.056   3.935
87009W        W52269   3.828  35.403  13.370
87010W        W52270   6.647   4.889   0.367
87011W        W52271  26.266   8.217  14.886
87012W        W52272  16.285  34.883  12.847
87013W        W52273  11.178  32.172  11.493
87014W        W52274   2.789   9.637   4.135
87015W        W52275  39.294  44.883   0.933
87016W        W52276   0.290  22.789   0.362
87017W        W52277   5.418  36.786  13.823
87018W        W52278  14.369  24.318  11.576
87019W        W52279  12.325  29.351  11.416
87020W        W52280   4.814  19.828  11.569
87021W        W52281  38.437  19.762  13.009
87022W        W52282  44.240  40.293   2.776
87023W        W52283   6.464   0.285   2.019
87024W        W52284   2.402  23.785  12.113
87025W        W52285   0.942  25.394   1.377
87026W        W52286  43.915  26.882   0.291
87027W        W52287  22.007  39.358  11.712
87028W        W52288   5.541  22.749  14.840
87029W        W52289  17.768  37.051   1.875
87030W        W52290  10.392  30.181  10.962
87031W        W52291   9.621   0.295  11.204
87032W        W52292   5.900   4.487  13.869
87033W        W52293  37.310  11.653  12.901
87034W        W52294  26.914  32.037  13.049
87035W        W52295  31.616  22.724  14.556
87036W        W52296  37.662  20.267   1.910
87037W        W52297  35.442  32.223   1.793
87038W        W52298   8.225  11.602   0.355
87039W        W52299  27.667  10.183   4.630
87040W        W52300  12.167   1.161   4.645
87041W        W52301  30.725  38.032  11.624
87042W        W52302  31.440  27.745   3.166
87043W        W52303  24.540  11.747   2.853
87044W        W52304  30.274  30.060   1.587
87045W        W52305   1.306  43.968  12.230
87046W        W52306   5.517  41.357   0.304
87047W        W52307  23.906  14.355  13.956
87048W        W52308   0.425  26.134   0.260
87049W        W52309  41.339  29.058  10.452
87050W        W52310   8.797  27.975   3.984
87051W        W52311   4.338  29.925   2.252
87052W        W52312  34.183  29.115  13.193
87053W        W52313  11.662  29.083   2.406
87054W        W52314  42.303  33.114   2.526
87055W        W52315  38.524  11.799   4.091
87056W        W52316   0.325  10.729   4.288
87057W        W52317  18.863  21.506   4.294
87058W        W52318   3.202  13.306  13.493
87059W        W52319   0.841  22.210   4.561
87060W        W52320  31.029  34.368  14.260
87061W        W52321  10.640  11.116   1.798
87062W        W52322  39.264   1.428  14.873
87063W        W52323  28.543  33.474   0.852
87064W        W52324  35.990  33.920   3.198
87065W        W52325   7.153   7.412  14.847
87066W        W52326   2.463  17.367   3.084
87067W        W52327  22.135  41.758   3.813
87068W        W52328  36.557  43.031  13.906
87069W        W52329  40.541  19.012  12.976
87070W        W52330  38.892  41.886  13.513
87071W        W52331  15.705  40.813   3.081
87072W        W52332  26.416  35.874   3.085
87073W        W52333  32.447  31.587   0.459
87074W        W52334  36.068   8.574   0.330
87075W        W52335   0.406  28.027  13.827
87076W        W52336  23.097  13.352  10.727
87077W        W52337  33.209  25.554   3.020
87078W        W52338  32.523   6.272  12.599
87079W        W52339  13.039  28.181  10.273
87080W        W52340   1.040  12.672  10.327
87081W        W52341  14.785   6.479  11.136
87082W        W52342  42.310  25.059   0.002
87083W        W52343  37.534   2.702   4.800
87084W        W52344  40.442  15.168   2.716
87085W        W52345  43.233  19.051  11.495
87086W        W52346  12.345  33.452  13.328
87087W        W52347  18.015  27.021  11.945
87088W        W52348  30.436  12.543  12.348
87089W        W52349   9.637  12.249  13.796
87090W        W52350  28.386  44.718  12.612
87091W        W52351  20.272  22.730  10.871
87092W        W52352   6.988  18.329  14.947
87093W        W52353  43.328  32.594  13.904
87094W        W52354  27.567  14.068  11.137
87095W        W52355  15.493  39.340   4.591
87096W        W52356   0.041   3.266   0.346
87097W        W52357   4.426  13.844  12.095
87098W        W52358  35.909  43.770  13.935
87099W        W52359  18.039  43.662  12.307
87100W        W52360   5.846  42.055  12.011
87101W        W52361   3.130  40.376   4.094
87102W        W52362  39.348  32.127  11.102
87103W        W52363  41.027  42.230   3.138
87104W        W52364  12.128  20.001   0.731
87105W        W52365   2.857  39.460   3.614
87106W        W52366  10.339  35.144   4.537
87107W        W52367  33.117  13.208   4.358
87108W        W52368  19.650   7.251   0.928
87109W        W52369   3.670  11.454  11.543
87110W        W52370  28.686  27.024  14.974
87111W        W52371  32.577  12.899  11.126
87112W        W52372  18.614   1.412   0.491
87113W        W52373  19.343   4.649  14.889
87114W        W52374  18.621  14.082  10.882
87115W        W52375  43.049  22.705  10.628
87116W        W52376  25.260   7.751   0.731
87117W        W52377   1.296  40.611  10.775
87118W        W52378  28.606   9.322   4.970
87119W        W52379   7.196  35.684  14.365
87120W        W52380  37.528  21.224  10.573
87121W        W52381   4.410  10.914   2.208
87122W        W52382   5.810  28.077   0.439
87123W        W52383   0.563  14.279   1.808
87124W        W52384  42.273   8.594   4.161
87125W        W52385  24.027  30.611  13.398
87126W        W52386  15.508  41.988   1.007
87127W        W52387  39.830   8.166   0.734
87128W        W52388  34.678   2.691   2.813
87129W        W52389  14.104  20.651   1.684
87130W        W52390  20.103  22.560   2.884
87131W        W52391  27.540   4.854   1.730
87132W        W52392   4.615  39.495   0.044
87133W        W52393  34.864  18.223   0.485
87134W        W52394  19.775  28.064   4.638
87135W        W52395  22.759  16.310  12.608
87136W        W52396  36.592   2.253   0.024
87137W        W52397  31.773  24.349  12.919
87138W        W52398  31.374   9.055   2.212
87139W        W52399  42.323   4.937  11.435
87140W        W52400  40.819  42.039   0.892
87141W        W52401  28.686   9.173  14.799
87142W        W52402  42.942  28.110  11.868
87143W        W52403  38.467   0.161   2.846
87144W        W52404   5.765  20.490   2.782
87145W        W52405  41.388  24.760  13.443
87146W        W52406  15.370  26.401  12.561
87147W        W52407  44.182   0.506  11.697
87148W        W52408  37.930  26.072   4.882
87149W        W52409  10.690  29.419  10.503
87150W        W52410   3.947  41.894  10.661
87151W        W52411  20.558  21.717   4.561
87152W        W52412  10.728   3.306   0.292
87153W        W52413  10.355  38.607  12.824
87154W        W52414   2.612  24.036  14.782
87155W        W52415   9.325   0.190   1.921
87156W        W52416  23.040  20.219   2.248
87157W        W52417  13.308  11.953   2.272
87158W        W52418  35.643  32.465  10.719
87159W        W52419  11.468  21.356  13.919
87160W        W52420  32.139  11.823   9.927
87161W        W52421  16.270  32.039  12.793
87162W        W52422  27.420  10.644   4.570
87163W        W52423  26.581  11.743   4.522
87164W        W52424   1.340  42.719   4.136
87165W        W52425  42.847  14.819  10.692
87166W        W52426  43.482   1.262  10.381
87167W        W52427  24.689  44.444   3.956
87168W        W52428  31.619  23.472  11.004
87169W        W52429  26.768  29.431  11.896
87170W        W52430  12.448  15.085  14.576
87171W        W52431   3.820  13.765   0.960
87172W        W52432  44.494   5.343  14.599
87173W        W52433  31.210  17.635   2.810
87174W        W52434  15.845  43.946   2.730
87175W        W52435   7.434  13.209   1.836
87176W        W52436   9.628  10.151   0.178
87177W        W52437  42.247   6.696   0.882
87178W        W52438  17.746  30.482   4.137
87179W        W52439  13.923   7.973   2.378
87180W        W52440  39.816  32.439  13.987
87181W        W52441  10.694  19.149  10.375
87182W        W52442  17.181   3.851   2.986
87183W        W52443  22.208  19.488  12.184
87184W        W52444  24.243   5.892  14.255
87185W        W52445  32.998   8.726  10.922
87186W        W52446  22.610  33.500   4.079
87187W        W52447   2.842  12.581   2.330
87188W        W52448  22.202  23.141  12.517
87189W        W52449  25.756   7.608   0.514
87190W        W52450  11.315  17.322   1.027
87191W        W52451  16.990   1.352   3.665
87192W        W52452   2.374  33.573   4.006
87193W        W52453  21.742   7.111  12.058
87194W        W52454  23.960  27.433   4.146
87195W        W52455  21.613   3.446  11.917
87196W        W52456  17.434  38.244  14.017
87197W        W52457  34.082  26.024  13.539
87198W        W52458  18.082  40.955  14.872
87199W        W52459  11.925   7.281   1.718
87200W        W52460  43.346  10.859   2.776
87201W        W52461  42.364  37.114  12.573
87202W        W52462  26.162   5.186   0.549
87203W        W52463  39.314  39.876   0.797
87204W        W52464  13.881  14.427   3.216
87205W        W52465  42.077  25.593   4.268
87206W        W52466  42.188  10.454   0.296
87207W        W52467  22.778   4.957   2.240
87208W        W52468   5.544  39.316  14.000
87209W        W52469  12.066   3.417  14.264
87210W        W52470   5.562  13.472   1.224
87211W        W52471  44.357  42.832   4.637
87212W        W52472  29.358  16.927   3.685
87213W        W52473   2.875  10.745   3.787
87214W        W52474  43.347  23.255  12.917
87215W        W52475  35.556  16.311   3.450
87216W        W52476  24.478   5.370   0.340
87217W        W52477  18.145  11.701  10.692
87218W        W52478   4.416   7.702  11.525
87219W        W52479   3.053   9.464   5.061
87220W        W52480   4.131  11.641  14.361
87221W        W52481  31.961   0.453  14.129
87222W        W52482  14.203   7.778   1.733
87223W        W52483  40.313  37.755   2.928
87224W        W52484   6.879   1.634   0.735
87225W        W52485  41.037  13.245   0.347
87226W        W52486  16.093  30.972   2.287
87227W        W52487   8.668   5.190  12.018
87228W        W52488  34.125  26.471   3.057
87229W        W52489  17.476  18.508  11.950
87230W        W52490  14.350  39.364   1.737
87231W        W52491  33.238  15.629   3.993
87232W        W52492  24.654  43.362   3.456
87233W        W52493   1.475  11.408   4.597
87234W        W52494  40.978  17.469   1.332
87235W        W52495   4.425  25.307  11.484
87236W        W52496  12.446  16.974   1.409
87237W        W52497   7.349  43.806   0.854
87238W        W52498  21.601  19.498  10.588
87239W        W52499   6.277  32.332  10.637
87240W        W52500  30.043   7.373   0.263
87241W        W52501  17.479   2.120   4.128
87242W        W52502  23.143  13.719   0.288
87243W        W52503  10.775  31.595   3.731
87244W        W52504   9.913  12.283  12.096
87245W        W52505  40.798  27.688  11.042
87246W        W52506  27.909  43.688   2.742
87247W        W52507  21.490  14.776   4.528
87248W        W52508  18.675   6.632   3.665
87249W        W52509  40.883  20.851  10.604
87250W        W52510  30.168  40.499   3.263
87251W        W52511  27.394  32.761  14.291
87252W        W52512   5.342  42.508   2.946
87253W        W52513   8.350  44.977  14.907
87254W        W52514   2.233  39.462  14.520
87255W        W52515  44.797  11.810  13.335
87256W        W52516   1.814   5.946  13.761
87257W        W52517  43.277  33.125   2.849
87258W        W52518  36.316  31.948   2.769
87259W        W52519   4.359  23.011  13.972
87260W        W52520  13.653  42.376  13.628
87261W        W52521  22.699  27.709   0.265
87262W        W52522  41.046   8.750   4.545
87263W        W52523  34.344   3.307  14.801
87264W        W52524  16.172  11.111   4.411
87265W        W52525  37.932  10.318  14.913
87266W        W52526   6.162  37.731  13.472
87267W        W52527  23.660  32.160   3.688
87268W        W52528  10.049  20.032  13.432
87269W        W52529  29.685  14.065   4.083
87270W        W52530   4.127  16.050   1.694
87271W        W52531   5.369   4.517   1.598
87272W        W52532   7.910   9.479  11.095
87273W        W52533  20.053  43.860   2.344
87274W        W52534   4.404  25.750   1.289
87275W        W52535   8.049  23.496   4.491
87276W        W52536   0.410  10.519   1.284
87277W        W52537  33.093  37.785   3.793
87278W        W52538  43.772  29.792  12.475
87279W        W52539  25.730  40.575   4.664
87280W        W52540   9.253  17.341   3.604
87281W        W52541  19.937  16.839  11.095
87282W        W52542   1.703  29.990   2.191
87283W        W52543  13.879   2.721  12.182
87284W        W52544  36.541  22.192  10.753
87285W        W52545  21.055  19.928   0.423
87286W        W52546  29.727  38.921   1.205
87287W        W52547  10.914  24.514   0.936
87288W        W52548   9.166   3.471  14.399
87289W        W52549  22.102   6.992   2.866
87290W        W52550   2.426   0.823   3.647
87291W        W52551  24.978   6.244   2.334
87292W        W52552  37.925   1.908   9.784
87293W        W52553   2.034  13.903   3.724
87294W        W52554  33.983   1.269  10.608
87295W        W52555   1.158  42.471  12.540
87296W        W52556   3.603  27.694  14.839
87297W        W52557   9.625  44.262   0.864
87298W        W52558  16.464  21.258  14.104
87299W        W52559  15.574   3.309  10.197
87300W        W52560  10.784  42.111   1.310
87301W        W52561  32.420  22.714   4.828
87302W        W52562   8.156   3.509   2.338
87303W        W52563   9.109  41.937  11.186
87304W        W52564   4.764   7.631  12.072
87305W        W52565  19.277  14.639   3.141
87306W        W52566  25.024   0.912  10.884
87307W        W52567   4.883  18.727   0.463
87308W        W52568   5.724   6.626  11.604
87309W        W52569   4.930  36.000  14.437
87310W        W52570   6.379  24.604  12.402
87311W        W52571  29.045  28.577  14.406
87312W        W52572  21.293   0.294  13.697
87313W        W52573  43.537  22.507  11.457
87314W        W52574  34.963  32.006   4.548
87315W        W52575  17.764  30.374  11.636
87316W        W52576  44.842  41.853   2.090
87317W        W52577  10.291  15.541   1.331
87318W        W52578   8.892   5.461   2.830
87319W        W52579  11.923   3.654  10.240
87320W        W52580  35.522   2.423  14.159
87321W        W52581  33.526  26.021   1.883
87322W        W52582  13.782  31.479  11.207
87323W        W52583  11.572  36.174   0.315
87324W        W52584  16.825   5.934  12.020
87325W        W52585  30.550   3.746   2.363
87326W        W52586  11.964  14.034  10.744
87327W        W52587  22.510  17.246   4.850
87328W        W52588  21.158   7.789  13.984
87329W        W52589  20.808  16.105   1.829
87330W        W52590  37.901   2.869   5.692
87331W        W52591  15.504  16.148   3.623
87332W        W52592  12.077  18.113   4.144
87333W        W52593  28.305  26.295   4.901
87334W        W52594   0.560  33.499  13.074
87335W        W52595  16.810   9.377   4.164
87336W        W52596   3.162  31.937   4.099
87337W        W52597  39.415  43.268   3.265
87338W        W52598  25.000  37.915  14.048
87339W        W52599  24.829  42.895   4.923
87340W        W52600  14.172  35.160  10.755
87341W        W52601   7.712  24.960  13.714
87342W        W52602   6.912  41.061   4.800
87343W        W52603  19.229   3.338  11.119
87344W        W52604  30.889  39.936   0.294
87345W        W52605  34.990   0.281  13.938
87346W        W52606  11.089  37.102  14.766
87347W        W52607  27.995  16.747   0.849
87348W        W52608  14.567   4.231   1.389
87349W        W52609  25.834  17.182  13.539
87350W        W52610  16.258   3.850   3.217
87351W        W52611  37.417  36.379  14.893
87352W        W52612  24.975  40.130   3.392
87353W        W52613  21.208  24.081  12.331
87354W        W52614  19.185  14.635  12.545
87355W        W52615  28.131  23.301   4.150
87356W        W52616  19.028  17.671   0.944
87357W        W52617   1.234  33.980   0.921
87358W        W52618  38.945   3.025   0.029
87359W        W52619  15.076  31.937   4.022
87360W        W52620  22.691  37.026   1.368
87361W        W52621  19.026  37.063   3.329
87362W        W52622  29.576  11.513  13.325
87363W        W52623  40.167  20.464  14.558
87364W        W52624  23.584  21.614   3.536
87365W        W52625  38.881  21.811   3.226
87366W        W52626  19.130  24.107   2.250
87367W        W52627  34.635   1.030   3.633
87368W        W52628  44.770   3.825  11.146
87369W        W52629   9.971  37.438  13.024
87370W        W52630  24.050   9.359  13.326
87371W        W52631  11.262  44.469  12.412
87372W        W52632  43.313  10.944   9.814
87373W        W52633  31.974  25.584  14.863
87374W        W52634  23.621  14.084  13.596
87375W        W52635  14.738  34.766  11.784
87376W        W52636  20.870  21.698   4.132
87377W        W52637  40.604  38.466  13.533
87378W        W52638   8.989  24.260  11.819
87379W        W52639  41.791  41.077  11.909
87380W        W52640  16.522   8.820  10.650
87381W        W52641  39.950   0.929  12.555
87382W        W52642   3.267  12.401   3.578
87383W        W52643  31.404   7.784   3.157
87384W        W52644  11.286  41.898  10.776
87385W        W52645  40.455  36.876  10.609
87386W        W52646  37.980  20.494   2.680
87387W        W52647  44.250  12.096  12.201
87388W        W52648  24.782  32.180  10.719
87389W        W52649   0.847  14.224  13.451
87390W        W52650  13.806   7.796   2.879
87391W        W52651  21.556  19.516   4.594
87392W        W52652  15.327  31.919  12.330
87393W        W52653  31.062  16.538  11.918
87394W        W52654   5.732   7.395  14.041
87395W        W52655  15.373  20.190  14.919
87396W        W52656  25.645  32.283   1.637
87397W        W52657  43.011   6.970  11.688
87398W        W52658  19.311  24.106   0.719
87399W        W52659   9.333  17.241  13.670
87400W        W52660  25.919  43.869  13.952
87401W        W52661  23.802  20.018  12.456
87402W        W52662  12.673  28.270  11.041
87403W        W52663   8.923   0.037   3.573
87404W        W52664  28.090  11.162  13.759
87405W        W52665  35.282  28.447  11.197
87406W        W52666  22.550  41.573  12.638
87407W        W52667  40.496  10.366   0.913
87408W        W52668  13.914   6.788   3.145
87409W        W52669  36.093   7.784  12.904
87410W        W52670  39.812  36.815  11.872
87411W        W52671   7.831   9.723  11.529
87412W        W52672   7.459  24.077   3.184
87413W        W52673   8.337  20.141   4.387
87414W        W52674  13.739   3.449  13.577
87415W        W52675  44.675  18.555   1.919
87416W        W52676  15.753  13.819   4.754
87417W        W52677  12.002  43.392   2.369
87418W        W52678  15.157  15.492  14.868
87419W        W52679  29.704  13.295  14.604
87420W        W52680  21.826  42.994   3.366
87421W        W52681  27.073   7.148   4.108
87422W        W52682  20.302  37.437   0.043
87423W        W52683  36.574  40.963  12.522
87424W        W52684  36.132  26.435   1.715
87425W        W52685  32.228  14.646  11.191
87426W        W52686  43.248  26.224   2.792
87427W        W52687  39.848  12.611   0.864
87428W        W52688  29.520  10.111  14.700
87429W        W52689  10.964  40.898  11.603
87430W        W52690  13.326   3.663  14.770
87431W        W52691   6.034  34.334  12.463
87432W        W52692  31.116  38.716   9.910
87433W        W52693  17.166   5.670   0.420
87434W        W52694   8.668  34.789  11.962
87435W        W52695   0.013   9.750   4.626
87436W        W52696  25.452  34.540  10.695
87437W        W52697   9.513  39.558   2.295
87438W        W52698  11.267  33.485   0.750
87439W        W52699  35.928   9.765   4.808
87440W        W52700  14.868  43.484  13.442
87441W        W52701  19.018  26.193   2.758
87442W        W52702  28.526  31.546   3.742
87443W        W52703   3.078  13.349  11.809
87444W        W52704  17.583  19.034   1.641
87445W        W52705   2.803   7.166   1.505
87446W        W52706  33.358  39.812   2.722
87447W        W52707  30.002  29.859   4.047
87448W        W52708  38.791  44.854   0.782
87449W        W52709  31.332  19.824  12.864
87450W        W52710  18.674  17.063  10.621
87451W        W52711  11.660  10.617  12.130
87452W        W52712  26.953   6.184  12.969
87453W        W52713  32.027  29.587   1.172
87454W        W52714  27.050   5.776   4.086
87455W        W52715  26.025  31.184   1.172
87456W        W52716   0.375  12.683  13.105
87457W        W52717   7.743  37.573  14.329
87458W        W52718  44.510  21.179  14.324
87459W        W52719  35.793   3.754   4.006
87460W        W52720  31.991  17.583   4.630
87461W        W52721  16.263  20.335   1.692
87462W        W52722  22.161  40.749   4.580
87463W        W52723  40.792   3.113  11.754
87464W        W52724   0.215   0.059  14.010
87465W        W52725  38.502  12.918  14.050
87466W        W52726  29.028  13.129  12.827
87467W        W52727  18.190   7.151   1.197
87468W        W52728  28.459  17.939  14.312
87469W        W52729  15.379  32.625   3.224
87470W        W52730  33.366  17.725  10.969
87471W        W52731  17.038  31.895  11.735
87472W        W52732   1.244  22.757   3.289
87473W        W52733  17.221  29.636   0.204
87474W        W52734  22.677  25.630   0.453
87475W        W52735   9.648  22.099  11.163
87476W        W52736  43.951  20.764  11.488
87477W        W52737  39.505   5.344  13.638
87478W        W52738  42.275  16.587   3.177
87479W        W52739  17.300  23.976  11.083
87480W        W52740  20.853  21.502  11.059
87481W        W52741  15.163  19.304  10.592
87482W        W52742   2.640  12.146   2.181
87483W        W52743  31.512  12.856   0.400
87484W        W52744  15.145   4.241   0.865
87485W        W52745   2.964  18.602   4.804
87486W        W52746  13.671   2.385   0.080
87487W        W52747   9.181  27.751  14.572
87488W        W52748  29.507  32.972   2.730
87489W        W52749  12.850  20.490  11.362
87490W        W52750  43.544  19.973  14.613
87491W        W52751  31.527  36.830  14.918
87492W        W52752   1.399  16.569  11.998
87493W        W52753  10.750  41.584   1.323
87494W        W52754  25.247  43.149  12.915
87495W        W52755  20.790  12.308   2.295
87496W        W52756  20.494  16.372  11.727
87497W        W52757  30.410  24.870  12.095
87498W        W52758   5.669  25.596  11.350
87499W        W52759  29.123   7.438   4.063
87500W        W52760  22.091  42.365   4.219
87501W        W52761  25.631   3.713   3.701
87502W        W52762   9.261  34.020  14.503
87503W        W52763  23.732  25.783   3.450
87504W        W52764   9.921  32.108  13.514
87505W        W52765  11.667  16.146  12.378
87506W        W52766  13.634   6.386   3.299
87507W        W52767  23.109   3.862   1.234
87508W        W52768   1.464  21.017   1.788
87509W        W52769   2.983   5.252  13.070
87510W        W52770  24.351   6.827   0.771
87511W        W52771  14.838  18.193   0.800
87512W        W52772   8.231   5.997  11.966
87513W        W52773   9.904   0.440  10.742
87514W        W52774  28.069  12.508  10.730
87515W        W52775   4.019  22.487   2.168
87516W        W52776  41.791   2.023  14.717
87517W        W52777   2.138  36.476   3.755
87518W        W52778   4.288  36.360  10.700
87519W        W52779  41.768  40.906  12.835
87520W        W52780   4.863   1.705  14.780
87521W        W52781  15.055  31.094   0.300
87522W        W52782  33.310  19.519   1.266
87523W        W52783  30.192  31.153  14.920
87524W        W52784  41.965  28.014  13.124
87525W        W52785  34.343  10.452  10.726
87526W        W52786  37.437  38.378   2.410
87527W        W52787  41.928   9.239   3.185
87528W        W52788  39.838  37.083   1.376
87529W        W52789  42.074   8.858   2.345
87530W        W52790  44.649   5.041   9.837
87531W        W52791  27.547  13.144   4.746
87532W        W52792  42.928  15.708   1.190
87533W        W52793  18.373  40.487  14.948
87534W        W52794  10.780  34.989  12.459
87535W        W52795  38.280  29.391   0.325
87536W        W52796  39.369   6.589  10.840
87537W        W52797  21.562  15.961   9.864
87538W        W52798  38.524  13.193   4.471
87539W        W52799  44.820  19.467  11.025
87540W        W52800  39.861   6.790  12.665
87541W        W52801  35.247  12.695  12.930
87542W        W52802  36.966  14.538   4.701
87543W        W52803  21.778  19.784  10.200
87544W        W52804  21.039   9.149   3.674
87545W        W52805  29.954  42.258   2.125
87546W        W52806  44.058  19.087   3.686
87547W        W52807  22.532  10.904  10.672
87548W        W52808  21.922   8.196  13.948
87549W        W52809  31.957  14.547  12.148
87550W        W52810   6.777  27.519   2.781
87551W        W52811   6.929   4.747   1.844
87552W        W52812  23.729  42.341   1.786
87553W        W52813   2.928  30.956   0.414
87554W        W52814  30.593  32.380   1.355
87555W        W52815   7.120  43.846   1.842
87556W        W52816  31.282  35.956  10.314
87557W        W52817  40.128   0.397  11.196
87558W        W52818  11.662  26.494   2.966
87559W        W52819  15.867   9.299  13.833
87560W        W52820  25.074  42.090   3.237
87561W        W52821  30.039  27.870  12.402
87562W        W52822  32.011   2.656  11.888
87563W        W52823   7.330  37.371  12.190
87564W        W52824  10.804  26.700   3.065
87565W        W52825   8.807  39.973   0.473
87566W        W52826  17.485  34.411   4.249
87567W        W52827  26.556  44.540   4.033
87568W        W52828  20.470  20.206  11.658
87569W        W52829  31.850   4.843  14.499
87570W        W52830   6.211  20.317   3.776
87571W        W52831  27.483  29.795  11.892
87572W        W52832  29.976  28.792  11.161
87573W        W52833  34.849   1.550   2.332
87574W        W52834   1.529  17.521   0.369
87575W        W52835  34.194  30.786   1.772
87576W        W52836   4.359  33.465  13.952
87577W        W52837   2.278  43.967  11.021
87578W        W52838  19.789  30.449   2.559
87579W        W52839   6.968   7.487  11.212
87580W        W52840   5.832  41.577   0.702
87581W        W52841  33.305  30.599  10.096
87582W        W52842  13.235   5.126   0.917
87583W        W52843  41.862  14.604   0.994
87584W        W52844  18.702  28.481   0.309
87585W        W52845  30.835   9.822   2.669
87586W        W52846  18.150  20.821   4.486
87587W        W52847   7.823   0.457   0.979
87588W        W52848   4.971  29.591  13.469
87589W        W52849  37.601  24.414   0.374
87590W        W52850  11.284  11.083   3.635
87591W        W52851  19.997  12.264   2.948
87592W        W52852  16.296  30.820  13.449
87593W        W52853   1.255  16.242   3.344
87594W        W52854  32.536  27.198   4.069
87595W        W52855  12.250  35.830   1.909
87596W        W52856  10.182  14.245   1.887
87597W        W52857  22.104  14.299  14.663
87598W        W52858  11.572  20.964   2.315
87599W        W52859   1.789   1.369  12.915
87600W        W52860   5.007   1.935  11.156
87601W        W52861  40.453   4.475   0.430
87602W        W52862   7.921  35.554   0.740
87603W        W52863   6.177  11.161  10.863
87604W        W52864  19.761  31.737   3.750
87605W        W52865  20.160  31.486  14.382
87606W        W52866   7.487  12.345  13.196
87607W        W52867   3.205  29.081   1.420
87608W        W52868   8.306  16.765  13.836
87609W        W52869  16.957  18.436  11.970
87610W        W52870  23.669  39.826  12.917
87611W        W52871  34.073   8.160  13.585
87612W        W52872   7.017  29.041  13.869
87613W        W52873  29.540  33.459   3.552
87614W        W52874  37.945  35.960  13.789
87615W        W52875  30.667  28.181  12.396
87616W        W52876  37.365  14.656   3.109
87617W        W52877  28.828  17.772  13.418
87618W        W52878   5.394  43.822  10.754
87619W        W52879  34.107   8.640  13.836
87620W        W52880  12.879  19.793   0.233
87621W        W52881   4.300  13.175   4.406
87622W        W52882  20.546  25.460  13.950
87623W        W52883  22.753   2.561   9.831
87624W        W52884  28.178  43.473   0.862
87625W        W52885  40.782  42.758  13.358
87626W        W52886  27.080  31.535   4.610
87627W        W52887  31.918  38.053   4.113
87628W        W52888  15.585  40.758   0.405
87629W        W52889   1.217  36.399   0.042
87630W        W52890   4.003  15.828  12.890
87631W        W52891  35.967  37.839  13.808
87632W        W52892  34.394  27.946  14.395
87633W        W52893  27.250  11.043  13.422
87634W        W52894  11.130  38.818  14.454
87635W        W52895  36.428  43.882   4.821
87636W        W52896  41.389  15.042  10.613
87637W        W52897  21.049  25.233   1.996
87638W        W52898  13.258   5.204   4.109
87639W        W52899  16.281  34.521  14.436
87640W        W52900   4.873   8.931   4.992
87641W        W52901  29.906  16.185   1.746
87642W        W52902  14.685  19.623   9.769
87643W        W52903   8.174  36.381   0.405
87644W        W52904   1.746   0.984  10.516
87645W        W52905   4.367  25.664  13.494
87646W        W52906  44.363  24.649  11.595
87647W        W52907  40.843  35.627  12.723
87648W        W52908  40.352  30.859  10.197
87649W        W52909  16.177  25.162   2.665
87650W        W52910  26.264  36.812   2.654
87651W        W52911  31.584  42.446  10.914
87652W        W52912  29.516  20.570  13.814
87653W        W52913  28.738   9.240  13.426
87654W        W52914  13.242  20.632  11.046
87655W        W52915  17.187  25.479  12.104
87656W        W52916  43.538  17.574  14.828
87657W        W52917   6.951  36.575  13.382
87658W        W52918  11.878  39.541   2.372
87659W        W52919  34.340   7.824   0.942
87660W        W52920  29.478  10.342  11.871
87661W        W52921  31.879  21.531   4.921
87662W        W52922  24.212  29.314   1.713
87663W        W52923  23.758  10.841  11.054
87664W        W52924  30.579  13.180   0.831
87665W        W52925   3.451   6.145   0.781
87666W        W52926  19.165   6.396  11.068
87667W        W52927  15.716  27.663   2.680
87668W        W52928   4.354  23.421  14.411
87669W        W52929  20.159  39.313   4.205
87670W        W52930  24.062  35.412  13.481
87671W        W52931  35.690   7.611  14.420
87672W        W52932  29.026   4.889   9.987
87673W        W52933  41.965   5.875   0.980
87674W        W52934   1.884  11.364   5.564
87675W        W52935  10.902   1.580   2.332
87676W        W52936  31.021  44.394   3.635
87677W        W52937   2.833  40.469   3.667
87678W        W52938  19.990  43.080  13.989
87679W        W52939  23.004  26.366  10.703
87680W        W52940  14.306  14.427  11.220
87681W        W52941  26.988   9.351   0.554
87682W        W52942  26.561  41.511  12.440
87683W        W52943  11.529   9.262   0.831
87684W        W52944  43.925   7.587  10.534
87685W        W52945  12.557  11.615  11.135
87686W        W52946  33.257  27.455   3.670
87687W        W52947  22.149  27.397  14.103
87688W        W52948  11.886  16.270   1.772
87689W        W52949  31.734  44.522  10.816
87690W        W52950  39.123  40.301  12.007
87691W        W52951   4.529  36.536   4.830
87692W        W52952   6.231  15.830   1.714
87693W        W52953   5.806  34.937  14.293
87694W        W52954  17.108   2.042   1.145
87695W        W52955  37.406  34.393  13.833
87696W        W52956  40.983   5.944  10.747
87697W        W52957  32.144  11.930   4.173
87698W        W52958  13.878  34.935  14.468
87699W        W52959   9.044   6.182   3.235
87700W        W52960  12.012   5.061   0.050
87701W        W52961   7.552  31.919  14.107
87702W        W52962  35.390   9.480   0.941
87703W        W52963  41.866  39.997   2.610
87704W        W52964  20.224  42.124   3.195
87705W        W52965  31.005  37.611  11.605
87706W        W52966  36.008  13.587   1.216
87707W        W52967  16.867  15.513  14.340
87708W        W52968  33.909  36.458  11.962
87709W        W52969  19.035  15.651  13.582
87710W        W52970  12.757  26.359   9.860
87711W        W52971  34.445  11.866   3.689
87712W        W52972  20.240   1.468   0.458
87713W        W52973  17.204  36.301  11.991
87714W        W52974  39.108   4.692  11.024
87715W        W52975  23.702   9.192   3.701
87716W        W52976  40.350  39.119   0.420
87717W        W52977   8.012  24.624  13.960
87718W        W52978  42.297  14.191  12.187
87719W        W52979  21.666  34.940  11.502
87720W        W52980   1.473  43.281   0.921
87721W        W52981   7.458  31.868  11.957
87722W        W52982  13.780  11.286  13.495
87723W        W52983  20.539  21.316  11.424
87724W        W52984   7.411  25.952   3.165
87725W        W52985  32.189  39.991   1.295
87726W        W52986   1.093  39.213   4.258
87727W        W52987   3.435   0.176  10.376
87728W        W52988   1.280  13.821   2.721
87729W        W52989  36.264  16.775  13.630
87730W        W52990  17.188   1.443  13.334
87731W        W52991  30.162  14.104  11.115
87732W        W52992  15.199  35.892   3.826
87733W        W52993  22.542  20.477   0.943
87734W        W52994  21.925   2.499   4.060
87735W        W52995  27.178  36.527  13.493
87736W        W52996  28.607   3.053   2.575
87737W        W52997   1.775   0.761  12.643
87738W        W52998  11.146  21.039   3.224
87739W        W52999  21.175   5.845  13.366
87740W        W53000  34.500  22.232  10.664
87741W        W53001  37.414  22.697   3.101
87742W        W53002  44.541  24.681   1.833
87743W        W53003  30.499  22.425   1.765
87744W        W53004  27.266  38.334  11.449
87745W        W53005  19.270  43.782   0.849
87746W        W53006  26.151  15.543  11.760
87747W        W53007  44.860   3.216  12.461
87748W        W53008  33.967  14.337   1.676
87749W        W53009   0.539  35.535   4.188
87750W        W53010  25.020   5.341   0.248
87751W        W53011   0.328  30.840  12.976
87752W        W53012  22.534  11.646   2.287
87753W        W53013  23.669   6.364   4.493
87754W        W53014  23.964  14.394  12.012
87755W        W53015  13.218  28.590  12.443
87756W        W53016  36.962  20.133   2.536
87757W        W53017  28.601   3.713  12.611
87758W        W53018  16.336  39.499   1.910
87759W        W53019  24.616  31.431   3.351
87760W        W53020   0.810   8.208   4.929
87761W        W53021  36.370  12.806  12.294
87762W        W53022   6.078   4.805   2.052
87763W        W53023   7.433  10.704  12.804
87764W        W53024  41.731   4.932   1.714
87765W        W53025  18.930  26.803   3.207
87766W        W53026  16.247  38.994   1.111
87767W        W53027   8.812  28.439   3.209
87768W        W53028  34.363   2.871  13.396
87769W        W53029   7.660  25.440   1.515
87770W        W53030  31.200   7.253  12.363
87771W        W53031  31.898  40.959   1.185
87772W        W53032  17.730   3.649   2.166
87773W        W53033   3.236  22.677  13.775
87774W        W53034  44.156  42.258  10.667
87775W        W53035  38.737  37.804  11.444
87776W        W53036  20.114  30.091  14.860
87777W        W53037   7.879  27.732   0.931
87778W        W53038   4.643  44.422   4.056
87779W        W53039  17.620  18.672  14.009
87780W        W53040  27.247  44.461  12.798
87781W        W53041  19.235  24.260   1.728
87782W        W53042  32.076  44.888  13.420
87783W        W53043  14.667  29.429  11.899
87784W        W53044  26.500   2.418   3.116
87785W        W53045   6.957  25.938  11.153
87786W        W53046  16.394  15.935  11.895
87787W        W53047  18.323  16.485   0.719
87788W        W53048  42.318  44.513  10.208
87789W        W53049   2.043  17.501   0.361
87790W        W53050  42.934  42.727  13.018
87791W        W53051  21.060  24.143  14.618
87792W        W53052  23.055   8.885   4.600
87793W        W53053  28.268  10.420   1.372
87794W        W53054  24.943  33.091   3.504
87795W        W53055   3.358  39.762   4.587
87796W        W53056  16.954   5.670   3.734
87797W        W53057  20.049   9.358   1.452
87798W        W53058  36.495  44.209  10.729
87799W        W53059  20.634  14.949  11.823
87800W        W53060  20.748   2.842  14.524
87801W        W53061  21.138  32.153   2.807
87802W        W53062  28.019   6.892  10.498
87803W        W53063  11.521  17.337   4.218
87804W        W53064  42.588  13.738  12.481
87805W        W53065  21.641  40.976   3.872
87806W        W53066  40.746  11.340   0.315
87807W        W53067  28.094   0.782  13.726
87808W        W53068   0.971  11.158   4.461
87809W        W53069  16.118  28.983  11.129
87810W        W53070  41.587  38.857   0.711
87811W        W53071  18.183  22.625  12.970
87812W        W53072  19.293  15.036   4.422
87813W        W53073  32.980  24.154   2.148
87814W        W53074  14.226   3.350   2.104
87815W        W53075  30.547  14.760   3.969
87816W        W53076  18.556  32.101   4.613
87817W        W53077  42.098  25.921  12.002
87818W        W53078  35.314  32.573  11.109
87819W        W53079  24.084  33.669  11.510
87820W        W53080  13.061  10.858  11.784
87821W        W53081   1.187  28.313   1.321
87822W        W53082   5.431  43.834   3.270
87823W        W53083   7.069  22.495  11.164
87824W        W53084  22.064   9.094   1.042
87825W        W53085  30.255  38.550   2.433
87826W        W53086   5.384   9.323  12.347
87827W        W53087   6.173  23.039   3.840
87828W        W53088  27.987  42.731   2.796
87829W        W53089  36.685  37.438   2.269
87830W        W53090  36.533  19.202  14.899
87831W        W53091  10.858  31.780  11.491
87832W        W53092  30.482  11.401   4.679
87833W        W53093  32.283  41.999   5.016
87834W        W53094   1.964   0.455   0.442
87835W        W53095  16.007   1.622   5.068
87836W        W53096  34.043  30.624   3.297
87837W        W53097  20.904  25.220   3.617
87838W        W53098  25.476  21.201   1.315
87839W        W53099  32.359  16.203  13.366
87840W        W53100  32.606   4.681  13.377
87841W        W53101  37.018  15.707  10.819
87842W        W53102  26.488  24.516   0.218
87843W        W53103   6.737  37.835  11.639
87844W        W53104  31.079  19.565  14.380
87845W        W53105  34.949  31.153   1.351
87846W        W53106  10.267  43.487   0.303
87847W        W53107  37.422   7.813   4.891
87848W        W53108  32.476  26.876  14.990
87849W        W53109  32.998   8.640  13.400
87850W        W53110  42.928  38.886  14.226
87851W        W53111  44.455   9.708   0.509
87852W        W53112  29.034  18.360  10.747
87853W        W53113  29.868  15.138  12.332
87854W        W53114   9.649  23.837  12.601
87855W        W53115  35.138  39.861   0.898
87856W        W53116  38.042   3.023  13.594
87857W        W53117  16.194  38.913   1.627
87858W        W53118  10.936   8.882   3.592
87859W        W53119   7.195   8.918   2.645
87860W        W53120  34.150  37.894   3.587
87861W        W53121  17.189  39.435   1.349
87862W        W53122  44.179  38.316  10.609
87863W        W53123  24.702   5.655  11.981
87864W        W53124  22.606  20.354  11.086
87865W        W53125  32.683  23.759   1.750
87866W        W53126  13.536  35.005   1.994
87867W        W53127   0.514   7.725   1.471
87868W        W53128  38.453   2.804   4.682
87869W        W53129  42.731  31.178   4.591
87870W        W53130  13.754   8.149   0.212
87871W        W53131  24.403  20.851   0.218
87872W        W53132  30.998  24.799  10.357
87873W        W53133   1.902  19.991   0.343
87874W        W53134  10.652  38.883  12.023
87875W        W53135  31.526  31.527  10.480
87876W        W53136  15.552  13.247  12.046
87877W        W53137  34.119  17.521   1.050
87878W        W53138  21.540  19.109   0.366
87879W        W53139  12.168  31.645  14.972
87880W        W53140  37.768   9.247  14.066
87881W        W53141  21.317  35.468  14.020
87882W        W53142  39.232  29.271  13.497
87883W        W53143  29.650  32.002  11.414
87884W        W53144   6.268   9.867  14.893
87885W        W53145  43.335   4.327   2.174
87886W        W53146  39.787  23.646   4.927
87887W        W53147   1.552  24.787  14.576
87888W        W53148  24.502  23.941  13.773
87889W        W53149  32.225  18.566   3.098
87890W        W53150  20.240  44.263   1.669
87891W        W53151  20.129  31.177   2.271
87892W        W53152  35.491  36.025   1.359
87893W        W53153  29.950  16.906  10.929
87894W        W53154  15.743  41.496  10.552
87895W        W53155  34.272  37.554   4.281
87896W        W53156   4.747   0.246  12.832
87897W        W53157  15.225  39.567   2.343
87898W        W53158  14.430   0.110  13.897
87899W        W53159  38.164  43.398  11.104
87900W        W53160   1.726  10.920   4.195
87901W        W53161  39.815  11.739   3.682
87902W        W53162   4.936   4.326  14.450
87903W        W53163  28.954  16.739  13.883
87904W        W53164  10.378  29.031   3.134
87905W        W53165  44.374   7.592   0.393
87906W        W53166  44.946  22.642   2.674
87907W        W53167  26.969  21.081   2.357
87908W        W53168  17.602  16.101   1.635
87909W        W53169  17.344  22.209  14.446
87910W        W53170  14.588  24.082  13.839
87911W        W53171  18.720  17.088  14.458
87912W        W53172  39.757   8.773   4.109
87913W        W53173   2.466  19.789   0.751
87914W        W53174  25.204  16.667   2.563
87915W        W53175  44.913  25.318   0.732
87916W        W53176  28.152  25.619  14.915
87917W        W53177  16.153   6.217   3.783
87918W        W53178  29.456  11.756   3.646
87919W        W53179  24.280  41.086   3.312
87920W        W53180  37.839  31.370   3.817
87921W        W53181  13.615   5.186  11.909
87922W        W53182   6.730  23.645   0.283
87923W        W53183  29.238   8.010  14.722
87924W        W53184  36.459  29.037  10.653
87925W        W53185  29.619  27.980  13.322
87926W        W53186  42.881  41.033   1.961
87927W        W53187   5.458  43.441   2.670
87928W        W53188  12.866   0.922   1.369
87929W        W53189  44.308   8.643  11.997
87930W        W53190  23.580   1.423  13.060
87931W        W53191   7.382   0.530  12.885
87932W        W53192  12.840  27.548  11.750
87933W        W53193  42.249  42.024   3.310
87934W        W53194  39.401  29.051   4.702
87935W        W53195  35.353   8.313  12.020
87936W        W53196  44.027   7.909   3.894
87937W        W53197  21.945  27.463   2.296
87938W        W53198   9.485   2.179   4.095
87939W        W53199   0.278   5.341   1.915
87940W        W53200   4.667  19.803   0.487
87941W        W53201  24.749   0.503   1.963
87942W        W53202   6.583  42.897   1.496
87943W        W53203  17.486   3.306   0.205
87944W        W53204  43.454  28.508  13.578
87945W        W53205  44.350  32.035   4.092
87946W        W53206   1.137  35.663  11.976
87947W        W53207  16.300  43.164  11.574
87948W        W53208  20.460  32.024   1.720
87949W        W53209  16.775  15.714   2.635
87950W        W53210  35.139  16.317  12.967
87951W        W53211  29.657  12.929  12.082
87952W        W53212   9.681  18.771   0.210
87953W        W53213  40.299  27.423  14.367
87954W        W53214  14.147  19.298  12.467
87955W        W53215  35.564  20.024  12.503
87956W        W53216  33.170  34.619   3.153
87957W        W53217   3.952  13.646   2.420
87958W        W53218  26.775  22.621   4.183
87959W        W53219   9.191  18.393   4.386
87960W        W53220  38.782  34.322   4.478
87961W        W53221  15.384   7.254  14.405
87962W        W53222  34.854  10.350  13.426
87963W        W53223  32.494   1.046  14.792
87964W        W53224  40.971  38.786   2.877
87965W        W53225  15.593   3.167   2.878
87966W        W53226  25.150  11.206   1.197
87967W        W53227  26.544  38.240  11.979
87968W        W53228  44.427  19.185  11.189
87969W        W53229  10.127  26.924  14.896
87970W        W53230   0.355   6.799  13.838
87971W        W53231  10.211  32.858  12.379
87972W        W53232   1.192  32.871  11.260
87973W        W53233  40.910  20.791   4.056
87974W        W53234  28.102   7.405  10.542
87975W        W53235  23.488   8.197   3.806
87976W        W53236  42.556   2.441  14.342
87977W        W53237  14.753  43.382  12.931
87978W        W53238  30.126  27.448   1.852
87979W        W53239   6.288  35.422   3.717
87980W        W53240  35.328   4.212   1.733
87981W        W53241  29.496  43.840  11.125
87982W        W53242  38.965  19.788   2.635
87983W        W53243  14.188  29.940   0.350
87984W        W53244   0.106  22.340  14.793
87985W        W53245  21.762  22.491   0.863
87986W        W53246  38.976  35.817  11.699
87987W        W53247  12.719  25.727  13.529
87988W        W53248  15.255   6.958  13.904
87989W        W53249   7.585  31.141  14.860
87990W        W53250  30.868  11.755   3.710
87991W        W53251  40.900   6.173   3.783
87992W        W53252  31.849  12.339   4.318
87993W        W53253  11.902  36.828   3.630
87994W        W53254  13.918  37.317   0.719
87995W        W53255  28.025   2.289  11.615
87996W        W53256  44.910  10.319  14.571
87997W        W53257   6.889  28.648  12.890
87998W        W53258  30.215  25.665   3.182
87999W        W53259  11.248  13.838  12.395
88000W        W53260  27.454  33.848   2.151
88001W        W53261  32.689  28.949  13.588
88002W        W53262  41.343  11.276  13.404
88003W        W53263  32.269   9.664  11.647
88004W        W53264  20.378   7.494   4.508
88005W        W53265  41.814  16.336   0.467
88006W        W53266  19.779  14.998   4.686
88007W        W53267   3.376  28.152  14.985
88008W        W53268  31.626  33.505  14.144
88009W        W53269  30.116  27.704   2.753
88010W        W53270  12.764  33.781  12.070
88011W        W53271  15.291  37.549   2.503
88012W        W53272  22.014  32.619   3.535
88013W        W53273  35.872  26.956   3.089
88014W        W53274  43.475  15.357  12.884
88015W        W53275   0.988  42.475  14.951
88016W        W53276  31.097  24.020   1.611
88017W        W53277  29.182  28.990   0.910
88018W        W53278  20.347  41.352  12.487
88019W        W53279  22.821   4.413   1.462
88020W        W53280  27.180  14.901   3.651
88021W        W53281  21.023  10.797   0.176
88022W        W53282  36.891   6.288   0.444
88023W        W53283   2.163  30.355   5.060
88024W        W53284   6.319  33.396  11.534
88025W        W53285  29.017  23.007   2.678
88026W        W53286   0.881  38.613   0.897
88027W        W53287  10.048  20.513  14.659
88028W        W53288   7.648  37.330   3.108
88029W        W53289  23.254  29.464  13.883
88030W        W53290  16.157  15.274  12.988
88031W        W53291  11.639  42.821  12.478
88032W        W53292  26.508  28.709  14.725
88033W        W53293  31.007  30.941   1.904
88034W        W53294  25.684   1.682   3.659
88035W        W53295  36.547  34.775   5.099
88036W        W53296   8.467  14.325  11.343
88037W        W53297  41.963  16.493   2.763
88038W        W53298  30.515  32.169   1.844
88039W        W53299  18.525  21.102   4.233
88040W        W53300  29.118  21.813  11.972
88041W        W53301  38.596  20.751   0.801
88042W        W53302  18.152  41.809  14.720
88043W        W53303  40.692  13.158   0.745
88044W        W53304  19.664  44.422   1.862
88045W        W53305   3.229  44.536   0.350
88046W        W53306   0.350  41.941   4.890
88047W        W53307  39.106  20.652  11.087
88048W        W53308   0.251  36.637  14.469
88049W        W53309  20.596   1.339  13.468
88050W        W53310  35.601  31.050  11.591
88051W        W53311  29.291  15.741  10.259
88052W        W53312  16.726  32.058  12.509
88053W        W53313  13.092  38.320   1.129
88054W        W53314  12.713  10.318   4.792
88055W        W53315  15.329   1.377  13.439
88056W        W53316  12.747  21.102  11.648
88057W        W53317  19.596  12.944   3.601
88058W        W53318   8.539  33.008   1.497
88059W        W53319  36.559   8.918  13.549
88060W        W53320  25.871  37.894   4.567
88061W        W53321  14.732  15.895   4.385
88062W        W53322  12.821  20.045  10.656
88063W        W53323   7.104   3.110  11.117
88064W        W53324  28.992  40.425  14.507
88065W        W53325  11.986  19.083   0.226
88066W        W53326  22.265  20.185  12.559
88067W        W53327  31.308  34.884  11.581
88068W        W53328   8.184   1.320  11.503
88069W        W53329  17.619  34.638   1.664
88070W        W53330  28.213   0.454   9.974
88071W        W53331  28.153  17.708   0.413
88072W        W53332  28.475  18.316   1.877
88073W        W53333   6.196  43.440  14.528
88074W        W53334  18.146   1.740   0.235
88075W        W53335  42.262  39.138   0.412
88076W        W53336   5.620  19.108   4.656
88077W        W53337  23.193  22.464  13.018
88078W        W53338  19.046  30.128  13.318
88079W        W53339  26.646  16.662  13.508
88080W        W53340  32.846  36.149  11.666
88081W        W53341  36.377  38.006  12.095
88082W        W53342  26.269  33.875   3.695
88083W        W53343  42.894  43.230  11.647
88084W        W53344  40.857  30.061   4.549
88085W        W53345  27.641  10.882   3.234
88086W        W53346  35.568   8.200   1.627
88087W        W53347  23.579  28.072  14.592
88088W        W53348  41.598  23.903   3.825
88089W        W53349  38.699  32.491  11.325
88090W        W53350   6.754  39.051   1.811
88091W        W53351  19.704  28.238   3.187
88092W        W53352  14.246  24.030   4.820
88093W        W53353   7.880  39.134  10.295
88094W        W53354  44.749  18.161  14.354
88095W        W53355  21.047   1.919  10.316
88096W        W53356  30.672   1.348  10.692
88097W        W53357  39.955  27.093  11.817
88098W        W53358  10.078  34.172   0.479
88099W        W53359  11.348  30.820   1.739
88100W        W53360  12.437   4.737  12.496
88101W        W53361  13.273  36.895   4.762
88102W        W53362  14.598  33.506   0.431
88103W        W53363  35.111  29.189   0.997
88104W        W53364  14.911  20.059   2.662
88105W        W53365  28.463  18.680   4.052
88106W        W53366  27.190   7.802  11.119
88107W        W53367  24.254  14.569   0.382
88108W        W53368  21.728   9.630  13.519
88109W        W53369  42.956   9.580   2.306
88110W        W53370  22.726  24.018   1.884
88111W        W53371  44.444  20.689   0.661
88112W        W53372  18.744  30.127  11.005
88113W        W53373   8.773  44.952  13.500
88114W        W53374  13.227  35.465   0.409
88115W        W53375  37.629  37.539  10.795
88116W        W53376   8.677   8.443  14.842
88117W        W53377  23.618  18.325   2.257
88118W        W53378  43.170  10.868  10.647
88119W        W53379  23.277  27.075   2.417
88120W        W53380   4.912  37.116   4.297
88121W        W53381  18.667  19.129  14.723
88122W        W53382  19.282   6.420  11.622
88123W        W53383  22.194   7.056  11.461
88124W        W53384  13.222  23.913  12.002
88125W        W53385  36.312  13.308   2.114
88126W        W53386  11.881  22.761  12.406
88127W        W53387  12.251  40.519  13.482
88128W        W53388  18.612  23.508   0.936
88129W        W53389  31.030  22.003   2.864
88130W        W53390  33.929  26.921  11.588
88131W        W53391  42.772  18.595   1.193
88132W        W53392  18.695  36.478  11.708
88133W        W53393  23.710  31.392   4.239
88134W        W53394  40.890  41.998  11.158
88135W        W53395  42.500  26.485  13.523
88136W        W53396  41.026  22.870  14.329
88137W        W53397  33.015  19.709   3.312
88138W        W53398  11.709  24.250   2.662
88139W        W53399  21.586  31.935   0.481
88140W        W53400  40.093  32.022  13.842
88141W        W53401  39.358   3.439   1.270
88142W        W53402   4.468  35.239   1.009
88143W        W53403   8.827  21.965  14.365
88144W        W53404  34.635  25.118   1.615
88145W        W53405  39.314  19.510   2.349
88146W        W53406   7.248  12.664  12.863
88147W        W53407  23.105  31.154   4.517
88148W        W53408  17.468  23.734  11.930
88149W        W53409  10.869  23.915  14.859
88150W        W53410  14.887  13.828  12.982
88151W        W53411   3.223  12.726   2.671
88152W        W53412  44.282  42.247  11.180
88153W        W53413  20.227  20.703   1.348
88154W        W53414  24.205  27.747  11.154
88155W        W53415   2.350  12.748   4.170
88156W        W53416  32.852  39.936   3.821
88157W        W53417  28.733   8.883  12.100
88158W        W53418   0.937  42.039  11.569
88159W        W53419  12.873   2.775  11.060
88160W        W53420  14.401  40.769   2.434
88161W        W53421  26.662  22.037  10.593
88162W        W53422  26.150  12.788  11.574
88163W        W53423   6.481  18.751   2.248
88164W        W53424  22.489  37.987  12.595
88165W        W53425  21.744   7.712  13.994
88166W        W53426  12.715  42.976   2.654
88167W        W53427   3.141  43.613  11.153
88168W        W53428   5.183  30.657  14.301
88169W        W53429  12.078   3.565   4.953
88170W        W53430  21.441  31.555  13.984
88171W        W53431   3.537   8.262  14.315
88172W        W53432   9.200  40.348   2.109
88173W        W53433  10.508  22.092  14.082
88174W        W53434  18.966   2.272   0.264
88175W        W53435  38.943  28.162   3.547
88176W        W53436   9.106  13.386  13.882
88177W        W53437   2.243  20.503   3.516
88178W        W53438  38.832  24.277   0.734
88179W        W53439  18.573  16.657  12.757
88180W        W53440  37.366  22.195  11.171
88181W        W53441  28.195  26.279  12.496
88182W        W53442  44.027   9.699   0.833
88183W        W53443  35.172  15.442   4.099
88184W        W53444   4.931  41.339  11.576
88185W        W53445  20.142  41.579  12.931
88186W        W53446  34.083  20.597  12.918
88187W        W53447  23.660   8.002   3.329
88188W        W53448  16.025  14.713   2.724
88189W        W53449  41.980  22.052  12.039
88190W        W53450  17.514  29.146  11.232
88191W        W53451  17.101  17.953   1.517
88192W        W53452  40.769  33.914  13.592
88193W        W53453  36.589  23.544  12.030
88194W        W53454  10.102  25.488  10.988
88195W        W53455  31.582  40.833  12.748
88196W        W53456   5.406  26.522   4.912
88197W        W53457  36.375  29.600   0.735
88198W        W53458  19.211  10.784  12.381
88199W        W53459  13.771   8.394   0.663
88200W        W53460   8.259   2.314   2.437
88201W        W53461  26.081  18.269  13.501
88202W        W53462  28.182   0.812   4.717
88203W        W53463  23.112  21.774   3.413
88204W        W53464  44.379  32.604   1.893
88205W        W53465  33.526  18.738  11.942
88206W        W53466  34.994   8.404   1.484
88207W        W53467  31.187  42.077   4.796
88208W        W53468  35.146  14.099  14.571
88209W        W53469   8.444  37.352   2.712
88210W        W53470   0.822  17.360   5.059
88211W        W53471  13.321  33.060   4.197
88212W        W53472  36.421   1.237   0.892
88213W        W53473  24.948  39.351  14.741
88214W        W53474  16.799  30.383   3.191
88215W        W53475  11.829  30.124   3.210
88216W        W53476  32.178   1.240   1.018
88217W        W53477  14.069   5.847   0.085
88218W        W53478  12.329  20.332  10.661
88219W        W53479  22.005  32.595   2.877
88220W        W53480  28.478  40.359  13.863
88221W        W53481  41.962   3.865   2.976
88222W        W53482  26.081   2.852   0.458
88223W        W53483  44.817  29.982   1.279
88224W        W53484  39.001   0.419  13.965
88225W        W53485   2.345  22.098  13.654
88226W        W53486  24.018  19.090   0.422
88227W        W53487  22.323  32.851   3.176
88228W        W53488  23.743  24.643   4.868
88229W        W53489  16.354   9.244  13.910
88230W        W53490  35.157   9.216  10.640
88231W        W53491  29.146  42.363  11.221
88232W        W53492  26.680   5.305   2.207
88233W        W53493  25.367  23.604   1.812
88234W        W53494  18.729  32.906  11.528
88235W        W53495   6.214  27.152  14.527
88236W        W53496  42.264  39.780   3.807
88237W        W53497   9.455   5.226   4.068
88238W        W53498   3.370  32.503   3.273
88239W        W53499  14.613  37.060   1.331
88240W        W53500  16.087  40.645   3.925
88241W        W53501  16.589  29.868   2.378
88242W        W53502  22.534   2.727  13.850
88243W        W53503  33.350  31.779  10.053
88244W        W53504  19.512  13.088  13.804
88245W        W53505  15.097  22.981  12.061
88246W        W53506  18.743  27.756  12.871
88247W        W53507  25.009  40.453  14.807
88248W        W53508  29.098  36.524  10.711
88249W        W53509  24.519   0.492   1.477
88250W        W53510  37.985   8.774  10.946
88251W        W53511  16.656  36.493   2.035
88252W        W53512  42.355  34.377   3.202
88253W        W53513  32.370  14.889   2.627
88254W        W53514  19.088  27.596  12.146
88255W        W53515  37.495  17.101   2.378
88256W        W53516  26.443   8.404  14.452
88257W        W53517  14.964  11.795  14.810
88258W        W53518  24.529  14.951   0.630
88259W        W53519  26.713  42.903   0.510
88260W        W53520  30.556  10.382   2.812
88261W        W53521  43.767   9.247   0.796
88262W        W53522   3.416  27.091   1.395
88263W        W53523  39.905  39.932  14.461
88264W        W53524   4.656  12.758  11.834
88265W        W53525  14.327  41.007  13.779
88266W        W53526   0.069   1.423   2.174
88267W        W53527   2.342  38.479  14.599
88268W        W53528  24.637  26.058   1.223
88269W        W53529   7.766  28.172  13.041
88270W        W53530  34.967  26.905  12.504
88271W        W53531  29.805   4.953   0.804
88272W        W53532  33.734   5.157  14.374
88273W        W53533  39.618   9.762   0.279
88274W        W53534  38.421  31.699  11.187
88275W        W53535   7.688   4.213  11.143
88276W        W53536  10.887  11.886   4.615
88277W        W53537  11.310   1.265  13.335
88278W        W53538  28.955  18.100   0.230
88279W        W53539  36.285  14.339  11.122
88280W        W53540   0.370   6.601   2.358
88281W        W53541  31.675  10.494   1.279
88282W        W53542  18.544  27.283  12.973
88283W        W53543  21.939   9.900  14.443
88284W        W53544  33.620  41.928   0.044
88285W        W53545  30.014  40.424  10.527
88286W        W53546  29.426  43.936  13.100
88287W        W53547  40.509  40.513   1.325
88288W        W53548   2.445   8.289   3.746
88289W        W53549  16.097  22.414   3.606
88290W        W53550  17.631  42.859   0.745
88291W        W53551  10.914  15.240  13.958
88292W        W53552  15.125  41.300   2.837
88293W        W53553   5.017  42.484  12.056
88294W        W53554  26.906  22.601   1.801
88295W        W53555  32.005   3.037   2.417
88296W        W53556  38.450  12.623  14.998
88297W        W53557  39.658   2.463  12.081
88298W        W53558  43.264  44.692   0.404
88299W        W53559  27.904  41.484   4.547
88300W        W53560   9.571  36.483  14.528
88301W        W53561  41.279  24.449  11.099
88302W        W53562   7.362   9.202   3.033
88303W        W53563  26.691   7.426   2.874
88304W        W53564  20.719  17.060  14.501
88305W        W53565  31.113  17.928  11.162
88306W        W53566   9.847  13.809   0.814
88307W        W53567  36.003  41.067  12.670
88308W        W53568  32.904  43.696  12.595
88309W        W53569  30.956  15.635   3.641
88310W        W53570  22.584  24.426  12.443
88311W        W53571  26.937   9.266   3.107
88312W        W53572  41.475   2.776   2.878
88313W        W53573   6.372   4.650  13.996
88314W        W53574  27.278   1.836   3.382
88315W        W53575  19.923  44.358  12.854
88316W        W53576  26.516   3.856   4.587
88317W        W53577   1.239  39.172  11.591
88318W        W53578   9.066   2.476   4.194
88319W        W53579  36.965  28.369   2.875
88320W        W53580  23.194  20.982   0.445
88321W        W53581  41.457   5.995   0.254
88322W        W53582  26.042  38.817   0.978
88323W        W53583  35.798  44.523  12.958
88324W        W53584  39.461  11.583  13.513
88325W        W53585  30.464  18.364  11.671
88326W        W53586  26.435   7.135  11.899
88327W        W53587  27.188  22.535  11.980
88328W        W53588  38.087  27.204  14.759
88329W        W53589  40.588  28.641  12.495
88330W        W53590  25.552  23.705  14.450
88331W        W53591   5.918   2.961   3.397
88332W        W53592  17.512  42.386   0.274
88333W        W53593  11.467  41.499   0.192
88334W        W53594   2.147   7.079  11.911
88335W        W53595  18.004  22.711   4.553
88336W        W53596   7.647  38.950  12.459
88337W        W53597  37.858  44.669  12.136
88338W        W53598   4.453   9.384   4.585
88339W        W53599   0.737  23.001   0.583
88340W        W53600  30.735   6.201  13.017
88341W        W53601   8.192   1.698   1.289
88342W        W53602  15.653  29.522  13.365
88343W        W53603   3.571   2.672   2.601
88344W        W53604  33.707  41.963  11.527
88345W        W53605  31.429  31.339  12.602
88346W        W53606  28.009  28.114  12.464
88347W        W53607  21.071   3.536   4.245
88348W        W53608  23.561  19.747  14.021
88349W        W53609  36.281  18.768  14.367
88350W        W53610  34.258  25.202  13.931
88351W        W53611  30.951  43.409   0.015
88352W        W53612  34.962  35.888   2.761
88353W        W53613   8.118  35.631  10.691
88354W        W53614  14.134   7.199  13.585
88355W        W53615   0.408  27.945   0.733
88356W        W53616  33.111   0.669  10.690
88357W        W53617   7.734  15.254  12.842
88358W        W53618  32.614  14.534   3.211
88359W        W53619  32.480   6.960   3.740
88360W        W53620  39.614  27.987   2.085
88361W        W53621  40.532  28.757  14.064
88362W        W53622  44.754  18.759  12.802
88363W        W53623  28.456  31.181   3.231
88364W        W53624  11.827  16.824  13.752
88365W        W53625  26.953   4.838   1.338
88366W        W53626  39.519   8.175  11.520
88367W        W53627   8.075  19.800   4.860
88368W        W53628   9.686  37.063  14.840
88369W        W53629  40.512  23.668  10.536
88370W        W53630   7.664  43.820   1.796
88371W        W53631   3.225   7.757   3.389
88372W        W53632   4.993  19.247   1.826
88373W        W53633  11.315  11.260  10.036
88374W        W53634   8.986  19.657  14.413
88375W        W53635   3.320   4.306  13.622
88376W        W53636  24.005  37.877   1.359
88377W        W53637  39.340   8.407   2.415
88378W        W53638   3.452   4.695   2.525
88379W        W53639  40.531   6.725   1.321
88380W        W53640  31.240  33.413   0.534
88381W        W53641   3.492  19.612   1.977
88382W        W53642  13.222  31.186   4.725
88383W        W53643  25.562  35.284  11.588
88384W        W53644  14.792  12.380   3.169
88385W        W53645  14.080  41.259  14.760
88386W        W53646  44.626   9.498   1.310
88387W        W53647  22.587  12.760   2.618
88388W        W53648  32.081   0.928   1.440
88389W        W53649  26.782  41.001  10.573
88390W        W53650  36.440  40.866   2.772
88391W        W53651  36.405   4.798   0.924
88392W        W53652  28.719   1.969  11.102
88393W        W53653  35.865  25.226   2.879
88394W        W53654   5.151  43.422   3.179
88395W        W53655  33.471   8.368   3.188
88396W        W53656  42.077  40.309   4.469
88397W        W53657  43.593  44.454   2.811
88398W        W53658  21.630  22.016  13.962
88399W        W53659   0.437   0.534  14.525
88400W        W53660   4.309   2.683  11.331
88401W        W53661  28.701  14.573   3.873
88402W        W53662   6.256  20.324  11.295
88403W        W53663  11.286  21.650   0.259
88404W        W53664  41.820  29.969  14.343
88405W        W53665  37.895  15.155   4.075
88406W        W53666  11.742  19.773  14.749
88407W        W53667  22.065  18.300  14.479
88408W        W53668  16.597  36.390   2.949
88409W        W53669   2.419  27.427   4.658
88410W        W53670  22.624  17.076   2.677
88411W        W53671  40.422  43.480  13.434
88412W        W53672  18.821  36.977   0.285
88413W        W53673   8.838  38.035  12.593
88414W        W53674   8.849  26.561  12.948
88415W        W53675  18.811  32.443  12.527
88416W        W53676  13.316  36.657  13.184
88417W        W53677  25.038  17.838  14.699
88418W        W53678  21.786  15.877  14.528
88419W        W53679   4.213  33.170   0.806
88420W        W53680  37.931  44.412  11.667
88421W        W53681   0.899  16.341  11.145
88422W        W53682  11.709  34.389   1.270
88423W        W53683  32.640  13.172  13.944
88424W        W53684  27.492  14.842   1.961
88425W        W53685  33.064  30.624  10.556
88426W        W53686   2.852   5.464  10.775
88427W        W53687  32.259   6.226   3.614
88428W        W53688  29.924  44.638  11.104
88429W        W53689  32.339  31.601  11.915
88430W        W53690  18.738  10.394  11.002
88431W        W53691  10.960  42.975  12.046
88432W        W53692  14.046  25.123  12.835
88433W        W53693  27.059   9.734   2.859
88434W        W53694  44.669  38.205   1.195
88435W        W53695  31.569  37.073  13.849
88436W        W53696  16.213   9.742  13.760
88437W        W53697  23.178  33.830   4.986
88438W        W53698  30.381  11.618   2.738
88439W        W53699  19.981  24.960  14.289
88440W        W53700  29.025  33.571  11.090
88441W        W53701  42.900  33.493   0.731
88442W        W53702  32.485  22.777  13.323
88443W        W53703   6.689  22.772  13.819
88444W        W53704  41.564   0.391  11.611
88445W        W53705  40.337   3.286  11.925
88446W        W53706   8.379   7.685   0.834
88447W        W53707   2.728   3.621   4.383
88448W        W53708   0.361   0.506  11.596
88449W        W53709   4.780  25.732  14.829
88450W        W53710  34.662  36.404  14.486
88451W        W53711  34.504  16.288  11.137
88452W        W53712  23.239  17.254  14.956
88453W        W53713  40.210  38.177   3.695
88454W        W53714  15.667  12.321   4.881
88455W        W53715   4.019  19.423  11.011
88456W        W53716  31.909  13.373  13.519
88457W        W53717  26.612  43.280   4.627
88458W        W53718  17.038  35.626  14.054
88459W        W53719   4.218   5.022   4.457
88460W        W53720  41.156   1.512  14.802
88461W        W53721  19.264  36.121   3.246
88462W        W53722  37.487  34.010   2.270
88463W        W53723  29.820  15.716  10.225
88464W        W53724  17.802  12.219  12.842
88465W        W53725  39.945   1.995  11.205
88466W        W53726  22.510  16.236  13.908
88467W        W53727  42.742  38.444  11.993
88468W        W53728  16.853  34.903   1.351
88469W        W53729  25.104  35.845  13.186
88470W        W53730   6.157   7.428  13.306
88471W        W53731   0.253  39.513  11.955
88472W        W53732   3.996  41.810  12.564
88473W        W53733   6.723  19.230   2.234
88474W        W53734   2.061  44.958  10.695
88475W        W53735   1.033  27.051   3.622
88476W        W53736   7.923  36.114   2.165
88477W        W53737  31.417  11.785  11.167
88478W        W53738  33.289  13.283   1.428
88479W        W53739  16.140  33.756  11.565
88480W        W53740   7.097  21.851  14.265
88481W        W53741  29.453  26.479  14.931
88482W        W53742  28.113  41.652   5.057
88483W        W53743  27.459   9.896   4.257
88484W        W53744  20.103  40.613  12.003
88485W        W53745  10.723  34.611   0.153
88486W        W53746   8.530  17.797   2.766
88487W        W53747  38.298  42.902   2.917
88488W        W53748  20.570   8.832   3.125
88489W        W53749  44.933  22.235  13.004
88490W        W53750  43.865  16.080   1.263
88491W        W53751  25.676  26.919  11.053
88492W        W53752  39.281  14.834   3.065
88493W        W53753  25.960  28.142   3.882
88494W        W53754  27.376   0.405   4.438
88495W        W53755  14.153   0.175  14.984
88496W        W53756  22.180   0.173  13.022
88497W        W53757   7.839  42.275   4.777
88498W        W53758   6.987   0.804   0.880
88499W        W53759  26.840  25.988  14.628
88500W        W53760  25.312   7.353  14.819
88501W        W53761  34.612  16.254  14.758
88502W        W53762  34.679  27.147  11.064
88503W        W53763   6.374   0.775   1.861
88504W        W53764  22.313  36.306   0.315
88505W        W53765  30.681  15.361  13.417
88506W        W53766  43.519  29.364  11.172
88507W        W53767  19.618  34.899  12.538
88508W        W53768   2.423  43.833   0.455
88509W        W53769  10.808  13.227  13.404
88510W        W53770  44.834  38.818   1.899
88511W        W53771   8.829  28.680   3.652
88512W        W53772  31.572  15.051   1.852
88513W        W53773  28.691   5.690  10.689
88514W        W53774   2.928  23.919  12.016
88515W        W53775  29.014  28.952   1.485
88516W        W53776  42.568  19.539  12.501
88517W        W53777  29.574  15.776  13.549
88518W        W53778  37.027  19.046  14.819
88519W        W53779   1.527  40.393  11.173
88520W        W53780  28.446  37.131  13.441
88521W        W53781  13.834  25.579  11.859
88522W        W53782   5.215  20.704  13.725
88523W        W53783   1.901  28.184   4.108
88524W        W53784  26.598   0.060   3.102
88525W        W53785  15.456  22.298  11.632
88526W        W53786  17.792   4.773   3.685
88527W        W53787  26.550   2.967  14.030
88528W        W53788  34.818  18.286  10.769
88529W        W53789  30.498   5.897   4.301
88530W        W53790   6.242  18.585   1.752
88531W        W53791  44.013   4.850  12.321
88532W        W53792  11.067   9.552   3.655
88533W        W53793  18.704  39.472   4.177
88534W        W53794  26.228   6.726  10.481
88535W        W53795   5.742  40.594  13.912
88536W        W53796   9.569  20.509  14.871
88537W        W53797  44.445  19.099   0.932
88538W        W53798  27.594   7.231  12.829
88539W        W53799  44.764   1.794   2.975
88540W        W53800  19.663   4.212  14.804
88541W        W53801  43.791  26.611  11.823
88542W        W53802  11.206   5.693   2.627
88543W        W53803  29.601  32.706  13.128
88544W        W53804  35.459  22.789   0.700
88545W        W53805  32.078  35.253  13.047
88546W        W53806  43.271  30.057  13.046
88547W        W53807  27.388  36.565   0.221
88548W        W53808  38.972  13.154   4.126
88549W        W53809  33.707  18.857  14.604
88550W        W53810  42.028  26.977  12.933
88551W        W53811   0.784  23.783  12.140
88552W        W53812   3.351  21.468   0.879
88553W        W53813  11.772   1.977  13.851
88554W        W53814  33.801   9.172  12.647
88555W        W53815   2.791  14.402  10.738
88556W        W53816  13.544  21.746   2.305
88557W        W53817  36.124  21.107   4.220
88558W        W53818  42.628  33.485   4.193
88559W        W53819  27.438   6.393   4.547
88560W        W53820  15.001  13.555   1.071
88561W        W53821  17.154  11.097   0.896
88562W        W53822  29.388   4.715   0.591
88563W        W53823  30.617  25.278  14.308
88564W        W53824  42.504  36.531  10.638
88565W        W53825  43.074   8.469  11.512
88566W        W53826  31.976  42.255   3.653
88567W        W53827  20.960  41.854  14.625
88568W        W53828   8.606   9.623   3.226
88569W        W53829  16.192  37.124   0.835
88570W        W53830   8.427  33.834  13.473
88571W        W53831   2.944   2.903  11.547
88572W        W53832  32.405  17.693  14.133
88573W        W53833  11.415   0.951  11.243
88574W        W53834   8.115  23.143  13.813
88575W        W53835  44.306   6.645   5.301
88576W        W53836   5.908  39.497   0.882
88577W        W53837  11.546  30.253  13.437
88578W        W53838  43.790  14.890  12.077
88579W        W53839  16.224  43.394   4.238
88580W        W53840   0.450  26.658   1.422
88581W        W53841  41.043  16.370   1.764
88582W        W53842   2.438  11.079  10.974
88583W        W53843   8.628  13.658   2.224
88584W        W53844   3.362   6.757   1.969
88585W        W53845  33.570   7.661   2.973
88586W        W53846  31.665  29.706  14.105
88587W        W53847  23.576  32.923  14.304
88588W        W53848  15.080  21.090  11.181
88589W        W53849   8.620  16.267   1.516
88590W        W53850  24.977   0.940   2.737
88591W        W53851   2.841  28.652   4.162
88592W        W53852  23.750  33.011   2.213
88593W        W53853  28.942  24.223  11.157
88594W        W53854  21.754  30.919   0.862
88595W        W53855  33.365  42.799   0.019
88596W        W53856  41.303  17.713   3.129
88597W        W53857  21.550  13.822  11.994
88598W        W53858   8.724  31.005   3.723
88599W        W53859  20.266   0.276  13.397
88600W        W53860  28.876  44.748  12.782
88601W        W53861  38.079  13.440   1.946
88602W        W53862  42.996   8.121   0.413
88603W        W53863  12.173  44.854  14.541
88604W        W53864  31.507  11.159   2.247
88605W        W53865  34.427  38.000  11.637
88606W        W53866   3.326  12.669   2.148
88607W        W53867  19.764  12.209  12.825
88608W        W53868  15.585  23.689   2.665
88609W        W53869  34.204  42.057  11.730
88610W        W53870  32.584   4.737  11.539
88611W        W53871  18.893  17.050   4.155
88612W        W53872   2.123  38.652   2.352
88613W        W53873   9.409  24.265   4.135
88614W        W53874  10.147  44.718  10.739
88615W        W53875  29.348  37.795  14.797
88616W        W53876  35.993  27.930   0.205
88617W        W53877  20.115  37.197   4.217
88618W        W53878  35.297  10.773  10.744
88619W        W53879  43.198  21.279  14.047
88620W        W53880  10.146  30.999   2.819
88621W        W53881   8.177   9.084   2.392
88622W        W53882  33.821  33.986  14.143
88623W        W53883  12.922  43.459   1.363
88624W        W53884   3.367  40.659   3.743
88625W        W53885   3.549  31.157   2.202
88626W        W53886  21.196  19.203   1.892
88627W        W53887   8.494  17.190  13.602
88628W        W53888   5.298  11.235  12.639
88629W        W53889  39.391  24.932   4.656
88630W        W53890  18.892  44.506   4.153
88631W        W53891  38.938  39.278  14.435
88632W        W53892  27.800   5.113  11.132
88633W        W53893  32.104   3.377   0.321
88634W        W53894  33.402   7.295   0.866
88635W        W53895   2.233  22.616  13.841
88636W        W53896  44.886  37.777  11.091
88637W        W53897  33.190  41.026   3.801
88638W        W53898   7.491  43.888  10.524
88639W        W53899  29.557  23.070  14.375
88640W        W53900  30.665  18.769  14.477
88641W        W53901  10.464  30.976   5.098
88642W        W53902  34.582  11.512  14.481
88643W        W53903  22.948  13.668   0.945
88644W        W53904   7.610  21.220  14.942
88645W        W53905  18.121  38.476   3.903
88646W        W53906  21.103  44.851  14.870
88647W        W53907  34.545  24.889   3.613
88648W        W53908  11.754  34.599   3.519
88649W        W53909  26.712  32.157   0.022
88650W        W53910  34.435  16.829   3.676
88651W        W53911   3.317  34.091  11.647
88652W        W53912  24.809  41.739  13.777
88653W        W53913  32.856   5.387  14.971
88654W        W53914  28.989  27.371  13.383
88655W        W53915  12.907  13.788  13.965
88656W        W53916  24.640  38.374  13.476
88657W        W53917  29.390  31.569  14.948
88658W        W53918  37.003  44.674  13.331
88659W        W53919   1.861  38.393   3.151
88660W        W53920  44.299  43.888  14.771
88661W        W53921  41.192  28.470   3.234
88662W        W53922  20.612   7.597  14.299
88663W        W53923  43.013  17.553   1.454
88664W        W53924  28.924  30.050  14.513
88665W        W53925  44.579  12.207  10.208
88666W        W53926  26.579  16.231   2.881
88667W        W53927  21.372  28.672  10.830
88668W        W53928  27.207   2.486   0.864
88669W        W53929  20.175   6.559   4.052
88670W        W53930  14.117  24.230   2.387
88671W        W53931  17.258   9.211   1.275
88672W        W53932  41.948  28.485  14.932
88673W        W53933  14.040  23.910   3.429
88674W        W53934  43.373  31.841  13.650
88675W        W53935   2.274  42.855   1.025
88676W        W53936   6.531  28.914  14.010
88677W        W53937  44.711   8.896   0.842
88678W        W53938  13.339  38.787   1.117
88679W        W53939   2.511  18.915   4.682
88680W        W53940  11.386   6.923   2.265
88681W        W53941  25.954   5.399  13.074
88682W        W53942  22.986  17.108  13.308
88683W        W53943  36.655  36.638   2.617
88684W        W53944  43.393  36.998  11.537
88685W        W53945   4.459  12.229   3.689
88686W        W53946  32.489  21.770   4.174
88687W        W53947  28.963   9.746   0.569
88688W        W53948  41.520  22.770   0.203
88689W        W53949  25.063  30.245  13.795
88690W        W53950  31.067  27.946  12.871
88691W        W53951  21.551  21.674  13.578
88692W        W53952  11.179  36.780   4.399
88693W        W53953  23.166  14.645  14.389
88694W        W53954  37.856  22.031   1.201
88695W        W53955  11.808  15.903   4.018
88696W        W53956  35.336  18.343   3.681
88697W        W53957  41.130   2.349  14.354
88698W        W53958  26.478  11.744   3.078
88699W        W53959  20.026  27.376  13.781
88700W        W53960  22.227   1.833   9.539
88701W        W53961  27.595   9.731   1.684
88702W        W53962  14.639   0.431   2.880
88703W        W53963  13.537  33.799   1.307
88704W        W53964   3.862   3.389   1.234
88705W        W53965   1.420  23.666  10.056
88706W        W53966  19.586  40.237   1.310
88707W        W53967  10.865  40.690   2.368
88708W        W53968  13.184  37.541  13.595
88709W        W53969   4.211  30.890  13.181
88710W        W53970  30.545  30.351  11.940
88711W        W53971  30.946  41.262  11.310
88712W        W53972  11.985  31.127   2.285
88713W        W53973  21.278  43.872   2.203
88714W        W53974  31.930  17.255  11.604
88715W        W53975  31.712  32.164   3.294
88716W        W53976  12.777  28.331  12.389
88717W        W53977   3.977  22.987   4.052
88718W        W53978   7.276  43.960   4.435
88719W        W53979  19.121   9.130  13.847
88720W        W53980   8.165  40.960   3.583
88721W        W53981   4.571   7.276   0.161
88722W        W53982  28.492  14.386   3.406
88723W        W53983  33.879  10.570   4.232
88724W        W53984  14.100   8.457   3.310
88725W        W53985  17.327   0.762  10.667
88726W        W53986  10.474   9.353   0.910
88727W        W53987  17.503  42.703  14.434
88728W        W53988   2.157  10.406  13.453
88729W        W53989  42.344  29.067   4.618
88730W        W53990  44.037   0.577   3.599
88731W        W53991  36.045  42.544   2.895
88732W        W53992  37.185  18.069  14.641
88733W        W53993   8.419   1.148  12.125
88734W        W53994   1.298  16.777   3.289
88735W        W53995  36.886  22.641  13.373
88736W        W53996  36.827   4.112   4.069
88737W        W53997  31.580  22.532   2.272
88738W        W53998  32.601  23.559  11.501
88739W        W53999  41.872  24.258  12.419
88740W        W54000  10.429  19.150  13.680
88741W        W54001  16.637   6.235  12.432
88742W        W54002  10.712   8.232  14.374
88743W        W54003  41.970   2.215  12.605
88744W        W54004  32.694  41.923  11.197
88745W        W54005  43.848   7.914  14.048
88746W        W54006  19.573   8.112  11.613
88747W        W54007  41.214  28.050   2.876
88748W        W54008  26.043   1.958   1.020
88749W        W54009  32.622  14.153   2.261
88750W        W54010   5.414  25.391   0.861
88751W        W54011  18.481  37.883  14.818
88752W        W54012  17.527  15.833   4.096
88753W        W54013  19.020  18.424  11.075
88754W        W54014  27.029  35.774  10.200
88755W        W54015  12.272   5.186   4.259
88756W        W54016   1.762   0.928  12.121
88757W        W54017  19.450  34.870  14.783
88758W        W54018  12.239  13.136   4.257
88759W        W54019   6.772  34.879   2.094
88760W        W54020  12.687   7.895   0.842
88761W        W54021  39.998   7.683   2.227
88762W        W54022  23.163  18.711  12.404
88763W        W54023  42.789  14.762  12.881
88764W        W54024  24.799  10.822   0.831
88765W        W54025  40.818  25.922   4.628
88766W        W54026  15.717   6.473   3.582
88767W        W54027  21.625  28.913   4.559
88768W        W54028  27.099  22.643  11.056
88769W        W54029  40.024  19.153   2.401
88770W        W54030  43.856  24.925   0.273
88771W        W54031  43.002  39.750   3.233
88772W        W54032   4.925  34.923   3.166
88773W        W54033  18.845  13.736  14.837
88774W        W54034  40.786  17.457  12.090
88775W        W54035   2.340  42.114  11.903
88776W        W54036  14.713  16.208  14.731
88777W        W54037   1.388  35.762   2.579
88778W        W54038  17.216  14.040  12.006
88779W        W54039  19.436  40.053   0.458
88780W        W54040  30.504  23.855   1.123
88781W        W54041  32.950  10.530  14.430
88782W        W54042  24.528  41.475   4.540
88783W        W54043  28.543  26.249   0.300
88784W        W54044  22.639   7.879  12.811
88785W        W54045   7.134  32.861  12.028
88786W        W54046  35.817  21.193  14.983
88787W        W54047  30.965  30.503  10.271
88788W        W54048   8.359  23.653   1.791
88789W        W54049  13.176  16.426  14.071
88790W        W54050  27.868  31.758  13.074
88791W        W54051  12.788  40.943   2.917
88792W        W54052  38.908  27.615  14.167
88793W        W54053  29.262  44.891   1.420
88794W        W54054  22.992  39.782  12.606
88795W        W54055  34.964   3.865  14.342
88796W        W54056  12.254  36.052   0.925
88797W        W54057  22.784  41.368   3.190
88798W        W54058  36.618  11.840  13.408
88799W        W54059  30.000  16.734   1.589
88800W        W54060   3.540  17.219   5.159
88801W        W54061   2.438  31.421   3.134
88802W        W54062  25.406  44.450  10.931
88803W        W54063  10.320  20.676   3.667
88804W        W54064  21.499   1.905   3.742
88805W        W54065  11.771  31.192   3.150
88806W        W54066  30.881  13.646  11.660
88807W        W54067  29.474  44.068  14.317
88808W        W54068  44.503  24.936   1.349
88809W        W54069  34.700  17.601  12.534
88810W        W54070  38.707   4.127   1.037
88811W        W54071  14.628  26.559   1.334
88812W        W54072   3.917  21.800  12.998
88813W        W54073  25.638  12.652   2.704
88814W        W54074  28.594  25.249  12.582
88815W        W54075   4.159  23.513  11.230
88816W        W54076   8.970  12.664  10.745
88817W        W54077  41.705   0.010   0.370
88818W        W54078  42.980  36.330  10.527
88819W        W54079  41.280   4.423   2.498
88820W        W54080  12.175   1.170  12.808
88821W        W54081  21.294  23.049   2.320
88822W        W54082  11.271   4.401   3.160
88823W        W54083  11.237  31.199   2.750
88824W        W54084  16.572  39.097  11.289
88825W        W54085  43.592  31.605  11.351
88826W        W54086  41.819  13.504   2.584
88827W        W54087  40.427  18.584  10.717
88828W        W54088  44.445  15.405  12.067
88829W        W54089  44.103  43.585  13.363
88830W        W54090  18.274  44.347   2.250
88831W        W54091  31.859  30.460   2.326
88832W        W54092  21.465   2.331  12.493
88833W        W54093   4.695  22.618  12.149
88834W        W54094  33.474  28.420   2.704
88835W        W54095  26.122   9.893   4.597
88836W        W54096  19.259  31.655   1.754
88837W        W54097  38.101  11.215   1.673
88838W        W54098  19.980  40.447   2.264
88839W        W54099  23.828  20.215   1.831
88840W        W54100   5.237  35.642  11.186
88841W        W54101  21.665  34.169  13.950
88842W        W54102  34.625  12.659   2.362
88843W        W54103  17.743  33.079  12.576
88844W        W54104   2.751  24.649   3.190
88845W        W54105  35.259  16.225  10.474
88846W        W54106   9.185  27.700   3.711
88847W        W54107   9.211  14.076  13.027
88848W        W54108  25.982  15.413  14.343
88849W        W54109  29.643  15.810   0.857
88850W        W54110  38.359  17.516  10.760
88851W        W54111  44.710  41.410  11.982
88852W        W54112  14.554   1.180   0.341
88853W        W54113  36.788  30.477   4.509
88854W        W54114  28.474  38.871   0.713
88855W        W54115   5.262   6.821   2.746
88856W        W54116  20.266  16.037   1.812
88857W        W54117  23.001  21.599  13.386
88858W        W54118   1.482   3.032   3.674
88859W        W54119   6.612  12.219  14.848
88860W        W54120  34.726   4.440  14.759
88861W        W54121  28.655   1.294  10.766
88862W        W54122  12.440  12.083   0.417
88863W        W54123  10.125  39.821  14.278
88864W        W54124  13.860  24.563   0.588
88865W        W54125  23.132  22.307   0.002
88866W        W54126  13.842  44.283   2.863
88867W        W54127  18.007  37.329  14.313
88868W        W54128  15.250  42.549  13.175
88869W        W54129  13.391  10.435  12.595
88870W        W54130  37.316   2.436   3.191
88871W        W54131  44.997  26.886   1.438
88872W        W54132  40.939  21.497   2.138
88873W        W54133  28.963  28.366  13.323
88874W        W54134  39.877   4.391   3.809
88875W        W54135   8.740   8.895   4.552
88876W        W54136  31.250   5.831  13.984
88877W        W54137  18.816  40.198   1.371
88878W        W54138  39.394   0.753   3.936
88879W        W54139  20.493   1.422   1.457
88880W        W54140   2.594  37.965  10.494
88881W        W54141  19.559  31.939   1.157
88882W        W54142   7.575   0.316   4.861
88883W        W54143   9.223  18.209  11.299
88884W        W54144  34.154  28.009  12.321
88885W        W54145  16.222  11.799  13.332
88886W        W54146  19.580   8.280  14.067
88887W        W54147  39.068   7.747   0.033
88888W        W54148  29.683   7.558   2.921
88889W        W54149  37.900   7.440  14.443
88890W        W54150  10.561   1.753  11.072
88891W        W54151   2.859   5.536   4.806
88892W        W54152  11.689  12.127   0.347
88893W        W54153   6.521  28.925   4.623
88894W        W54154   0.660   4.972   0.231
88895W        W54155  27.856  31.616  13.992
88896W        W54156  38.330  34.462  14.734
88897W        W54157  37.254  10.794  11.469
88898W        W54158  24.619  25.602   2.260
88899W        W54159   4.217  13.639  11.670
88900W        W54160  31.272  31.237   4.684
88901W        W54161  25.741  13.130   0.520
88902W        W54162  21.129   6.791  10.746
88903W        W54163   2.807  33.531   1.530
88904W        W54164   5.979  42.391  14.383
88905W        W54165   1.676  28.936  12.380
88906W        W54166   3.936  32.879  12.596
88907W        W54167   7.311  18.027  12.083
88908W        W54168   2.666  16.598   1.278
88909W        W54169  26.435  39.855   1.897
88910W        W54170  39.275   5.163   0.349
88911W        W54171  23.020  20.617  12.548
88912W        W54172  30.195  43.489  14.493
88913W        W54173   3.836   0.779  11.849
88914W        W54174  23.540  11.502  13.870
88915W        W54175  29.438  38.009  11.845
88916W        W54176  34.762  40.267   4.739
88917W        W54177   8.731   6.940   2.821
88918W        W54178  18.032  29.050  13.798
88919W        W54179  12.242  44.946  14.040
88920W        W54180  20.570  36.230   0.221
88921W        W54181  34.945  42.550  11.634
88922W        W54182  25.096  32.594  13.776
88923W        W54183  15.675  28.715  10.681
88924W        W54184   0.545  16.670   0.982
88925W        W54185  40.408  35.417  12.956
88926W        W54186   4.331  34.985   2.427
88927W        W54187  32.793  33.485   4.881
88928W        W54188  40.088  13.236  12.064
88929W        W54189  13.424  38.708   4.688
88930W        W54190  20.633  16.696   2.326
88931W        W54191  30.643   0.852  12.859
88932W        W54192  42.775  26.586  11.959
88933W        W54193  31.508  32.901   3.798
88934W        W54194  37.019  19.895   4.921
88935W        W54195  11.786   5.703   2.349
88936W        W54196  22.237  21.130   3.142
88937W        W54197   2.869  29.619   1.958
88938W        W54198  19.659  38.501   4.139
88939W        W54199   2.204  33.511  11.027
88940W        W54200  37.419  34.732  12.091
88941W        W54201   5.583  34.525  11.768
88942W        W54202  11.857  42.232  13.916
88943W        W54203  18.706   2.871   0.880
88944W        W54204   8.802  33.177  14.228
88945W        W54205  29.067  26.984   3.281
88946W        W54206  17.171  19.499  13.358
88947W        W54207  41.298   3.475   4.353
88948W        W54208  21.996  13.207   1.218
88949W        W54209  32.068  43.311  14.486
88950W        W54210  14.366  13.994   0.476
88951W        W54211  10.693  36.275   3.336
88952W        W54212  11.538  37.110  12.044
88953W        W54213  39.293  10.853   3.579
88954W        W54214   7.053  16.432   3.641
88955W        W54215   2.240   1.309   3.742
88956W        W54216  19.071  22.689   0.719
88957W        W54217  41.274  19.636  14.517
88958W        W54218  15.546   7.256  11.316
88959W        W54219  35.608  44.496   0.366
88960W        W54220   2.791  27.304  14.796
88961W        W54221  41.761  12.640  10.491
88962W        W54222   2.015  28.341   0.796
88963W        W54223  27.235   3.805  12.618
88964W        W54224  37.651   8.860  14.450
88965W        W54225  35.513  29.411  11.946
88966W        W54226  16.435   3.411   2.626
88967W        W54227  31.198  28.542   4.214
88968W        W54228  36.548  42.246   1.327
88969W        W54229  16.252  30.554  11.431
88970W        W54230   2.019  42.223  14.712
88971W        W54231  24.737  44.910   2.512
88972W        W54232   3.231  10.755   0.924
88973W        W54233   0.397   2.781  13.393
88974W        W54234  21.121   0.317   0.658
88975W        W54235   7.071  20.228  12.937
88976W        W54236  21.278   0.867  14.598
88977W        W54237  22.390  17.369   2.257
88978W        W54238  18.192  26.232  10.697
88979W        W54239  25.700  18.966   0.014
88980W        W54240  11.426   4.368   4.696
88981W        W54241  30.880  26.595   0.305
88982W        W54242  22.221   4.334  13.893
88983W        W54243   8.006  21.053   0.519
88984W        W54244  39.555  15.147  12.297
88985W        W54245   0.060  41.854  13.847
88986W        W54246  23.470  37.609  13.440
88987W        W54247  22.460  10.852   2.726
88988W        W54248   3.143  44.268   5.084
88989W        W54249  35.113  28.883  13.536
88990W        W54250  15.916  26.525   4.465
88991W        W54251  31.017  40.663   4.292
88992W        W54252  33.022  16.660  12.630
88993W        W54253  29.949   5.700   3.374
88994W        W54254  36.063  28.155   1.722
88995W        W54255  43.563  33.022   2.098
88996W        W54256  31.062  13.784  13.936
88997W        W54257  37.993  22.110   0.305
88998W        W54258   7.888  23.470   3.925
88999W        W54259  43.499  30.467  13.244
89000W        W54260   5.120   5.297   3.070
89001W        W54261   3.935  19.788  11.918
89002W        W54262   7.827  14.040   4.031
89003W        W54263  41.439  27.083   2.678
89004W        W54264  41.570   7.471  11.185
89005W        W54265  37.075   1.726  13.468
89006W        W54266  19.516  25.629  13.873
89007W        W54267  10.831  17.321   1.237
89008W        W54268  42.877  35.056  14.436
89009W        W54269   0.502   5.880   4.710
89010W        W54270  38.037  39.740   1.997
89011W        W54271  36.016  40.447  10.517
89012W        W54272   3.605  30.970   2.697
89013W        W54273  12.775   5.952   1.817
89014W        W54274  31.401  23.225   0.440
89015W        W54275  37.048   1.981  14.925
89016W        W54276  15.722   5.861  12.788
89017W        W54277   2.922  17.077  13.552
89018W        W54278  27.753  17.208   4.209
89019W        W54279  15.921  38.405  11.141
89020W        W54280  22.205  39.433   4.128
89021W        W54281  35.554  27.099  12.526
89022W        W54282  13.295  12.196   1.814
89023W        W54283  25.760  22.747   4.127
89024W        W54284  23.504   3.076  10.337
89025W        W54285  22.719  25.132   2.884
89026W        W54286  33.634  40.490  12.021
89027W        W54287  35.814  19.016  14.353
89028W        W54288  30.718  24.865  10.788
89029W        W54289   7.430  44.819  13.883
89030W        W54290   2.226  31.434   1.382
89031W        W54291  26.881  19.541   0.978
89032W        W54292  31.481  38.901   0.096
89033W        W54293   8.777   7.010  10.577
89034W        W54294   1.473  26.469   0.978
89035W        W54295  35.396  34.245  11.467
89036W        W54296  13.669  27.702  10.625
89037W        W54297  41.790  27.572   1.787
89038W        W54298  42.932  10.337  13.072
89039W        W54299  35.164  43.309   0.304
89040W        W54300  35.607   6.502   2.740
89041W        W54301   2.784  34.697  11.074
89042W        W54302  24.924  41.839   4.578
89043W        W54303  30.065   1.978   1.326
89044W        W54304   5.391  22.967  11.054
89045W        W54305   5.463  26.009  14.534
89046W        W54306   4.795  28.641   1.959
89047W        W54307  20.542  43.911  11.608
89048W        W54308   5.577  42.756   1.511
89049W        W54309   0.453   9.447  14.403
89050W        W54310  13.782  28.191  14.434
89051W        W54311  29.221  26.589  13.127
89052W        W54312  27.430   8.759   4.672
89053W        W54313  38.495  27.117   1.187
89054W        W54314  41.096  37.482  10.539
89055W        W54315  15.744  15.264  10.441
89056W        W54316   4.767  17.784   0.375
89057W        W54317  11.468   3.858   0.887
89058W        W54318  33.126  23.586  13.786
89059W        W54319  14.220  14.932   2.583
89060W        W54320  39.612   7.692   1.862
89061W        W54321  26.116  35.179   0.273
89062W        W54322   7.221   9.961   0.769
89063W        W54323   2.000  18.659   2.813
89064W        W54324  32.607  21.214   3.259
89065W        W54325  10.708   4.542   3.757
89066W        W54326   9.236  18.859   2.899
89067W        W54327  24.069  19.210   2.774
89068W        W54328  42.552  39.164   0.863
89069W        W54329   7.197  25.172  10.770
89070W        W54330  23.975  37.957  11.664
89071W        W54331  41.433  27.444  13.503
89072W        W54332  18.555  40.891  13.258
89073W        W54333  43.561  40.840  14.899
89074W        W54334  35.350  34.488  11.902
89075W        W54335  15.595   6.176  13.661
89076W        W54336  21.267  22.667  10.708
89077W        W54337  37.521  22.778   2.565
89078W        W54338   6.707  11.823  10.781
89079W        W54339  22.168  42.270   3.689
89080W        W54340  25.470  39.423  13.472
89081W        W54341  44.381  44.541  14.029
89082W        W54342  36.045  25.640   0.542
89083W        W54343  35.017  15.587   3.132
89084W        W54344  34.873  43.152  13.252
89085W        W54345  10.447   5.393  13.342
89086W        W54346  34.654  38.319   1.663
89087W        W54347  18.177  30.954  11.209
89088W        W54348  43.373  39.539   1.215
89089W        W54349  32.015  23.556   1.025
89090W        W54350  12.738  26.726   0.838
89091W        W54351   2.671  34.115  12.619
89092W        W54352  42.583  36.866  12.146
89093W        W54353   5.789   0.445  14.287
89094W        W54354   9.647  29.584   3.236
89095W        W54355   1.188  37.893   1.677
89096W        W54356  26.302   5.209   3.732
89097W        W54357   0.845   5.749  10.537
89098W        W54358  20.432  25.481  14.871
89099W        W54359  33.096  25.216  12.899
89100W        W54360  14.225  43.282  12.982
89101W        W54361  36.927  10.697  14.345
89102W        W54362   6.636   7.791  14.132
89103W        W54363   6.415  13.302  10.756
89104W        W54364   3.191  40.867  10.690
89105W        W54365   0.441  19.778   3.691
89106W        W54366  28.069  39.578  10.227
89107W        W54367  18.610  20.076   1.146
89108W        W54368  23.693   0.435   1.914
89109W        W54369  29.710  29.513   2.722
89110W        W54370  17.311  38.946   0.026
89111W        W54371  26.128  24.479   4.726
89112W        W54372  14.971  10.257   2.277
89113W        W54373   7.349  42.956   1.831
89114W        W54374  24.578  15.214  12.919
89115W        W54375  13.459  42.767   5.221
89116W        W54376  27.447  26.538  10.890
89117W        W54377  35.549  18.617   4.062
89118W        W54378   4.578  35.892  13.035
89119W        W54379  24.625  29.428  12.655
89120W        W54380  37.388   4.292  14.914
89121W        W54381  31.027  39.347  12.206
89122W        W54382  33.912   8.193   4.078
89123W        W54383  43.078   1.969   2.231
89124W        W54384  32.641  35.147  13.706
89125W        W54385  38.616  18.065  14.379
89126W        W54386   3.565  34.165   2.391
89127W        W54387  27.961  14.787   0.872
89128W        W54388  25.635  17.309   0.997
89129W        W54389  23.218   8.979   1.655
89130W        W54390   6.231  37.006  12.703
89131W        W54391  34.379   2.809   3.259
89132W        W54392  17.573  16.153  14.573
89133W        W54393  28.543  25.192   4.091
89134W        W54394  27.984   6.025  13.477
89135W        W54395  27.917  10.272  14.388
89136W        W54396  13.917  38.134   2.736
89137W        W54397  21.120   5.643   2.879
89138W        W54398   7.351  12.803   3.972
89139W        W54399  25.721  25.229   9.808
89140W        W54400  30.659   4.802  13.918
89141W        W54401   1.300   9.358  13.014
89142W        W54402  27.544  42.811  11.071
89143W        W54403   6.605   1.762  13.049
89144W        W54404  36.906   2.619  12.252
89145W        W54405  34.578  26.975   4.692
89146W        W54406  28.069   9.679   3.132
89147W        W54407  21.008   4.244   4.689
89148W        W54408  44.750   8.322   3.393
89149W        W54409   0.716  22.629   2.041
89150W        W54410  16.292  26.027   3.811
89151W        W54411  15.559   1.950  10.766
89152W        W54412  28.605   0.265   1.813
89153W        W54413  17.802  27.118  13.829
89154W        W54414   1.470  13.274  11.899
89155W        W54415  42.669  27.113   2.999
89156W        W54416  31.090  42.894  11.645
89157W        W54417  11.754  41.525   1.380
89158W        W54418  26.175  36.577  11.996
89159W        W54419  28.768  16.616  11.398
89160W        W54420  19.415  12.418  10.769
89161W        W54421  38.026  43.442  14.301
89162W        W54422   9.396  12.767   3.396
89163W        W54423   4.209  28.229   1.245
89164W        W54424  14.132  29.535  11.074
89165W        W54425  26.237  37.338   2.641
89166W        W54426  17.096  25.460   0.362
89167W        W54427  25.837  19.984   0.705
89168W        W54428  22.112   9.932  12.189
89169W        W54429   6.199  44.407   2.412
89170W        W54430  30.166  44.002   4.515
89171W        W54431  25.815  33.606   4.484
89172W        W54432   3.430  21.448  13.559
89173W        W54433  15.809   6.030   1.225
89174W        W54434  40.426  22.913   4.747
89175W        W54435  10.279  28.633   1.345
89176W        W54436   7.442  10.372   1.937
89177W        W54437  25.895  41.496   1.319
89178W        W54438  37.261  25.694  13.487
89179W        W54439  37.432  28.060  10.902
89180W        W54440  37.009  32.186   1.413
89181W        W54441  14.394  12.592   2.852
89182W        W54442  42.971  17.823  12.454
89183W        W54443  13.396  10.081   4.390
89184W        W54444  17.668  41.779  14.516
89185W        W54445   9.665  41.148  11.895
89186W        W54446  44.565  21.817  11.136
89187W        W54447  25.490  36.142   2.878
89188W        W54448  18.112  23.543  11.613
89189W        W54449   0.576  37.025   2.742
89190W        W54450   0.825  35.457  11.559
89191W        W54451  16.101  40.556   3.422
89192W        W54452  26.515  41.287   0.266
89193W        W54453  19.338   2.457  12.996
89194W        W54454  36.957  11.478   1.451
89195W        W54455  32.498   2.463  10.704
89196W        W54456  43.781  34.890   3.292
89197W        W54457  44.703   7.177   2.262
89198W        W54458   3.926  43.389   4.594
89199W        W54459  34.595  31.558   1.241
89200W        W54460   2.689  32.983  11.701
89201W        W54461  44.156  10.091  14.088
89202W        W54462  24.165  23.023   0.815
89203W        W54463  17.575  30.449  13.382
89204W        W54464  34.388  44.534   0.864
89205W        W54465  34.507  35.393  14.391
89206W        W54466  28.005  30.668   1.831
89207W        W54467  31.670   5.926   0.806
89208W        W54468   2.842  25.222  13.822
89209W        W54469   5.366   8.375   4.152
89210W        W54470  13.782  31.156  10.792
89211W        W54471   1.284   4.916   0.970
89212W        W54472   6.677  39.118  12.612
89213W        W54473  31.898  20.834   2.878
89214W        W54474  16.203  12.258  12.407
89215W        W54475   2.433  40.830   3.774
89216W        W54476  38.763   6.637   3.289
89217W        W54477   3.426   4.785  12.939
89218W        W54478  33.478  28.843   4.536
89219W        W54479  25.567   9.639   3.849
89220W        W54480   9.113  32.070   1.741
89221W        W54481   8.732  39.724  12.158
89222W        W54482  31.908  35.283  13.921
89223W        W54483  16.531  25.482   3.645
89224W        W54484  14.173  40.517   4.888
89225W        W54485  40.801  43.986  11.094
89226W        W54486   1.964  10.761  10.835
89227W        W54487  16.637  15.109  13.111
89228W        W54488   3.943   5.885   1.895
89229W        W54489  23.714  26.697  12.936
89230W        W54490  20.029  10.319   2.357
89231W        W54491  34.124   3.805  12.779
89232W        W54492  40.528   6.429   3.473
89233W        W54493  36.425  37.501  10.760
89234W        W54494  10.090  39.927   1.473
89235W        W54495   8.840  22.969   1.332
89236W        W54496   8.920  31.586   9.783
89237W        W54497  22.511   1.310  10.507
89238W        W54498  24.062  10.263  13.570
89239W        W54499   7.452   7.129  14.498
89240W        W54500  31.066  18.251   1.229
89241W        W54501  20.270  38.116   3.200
89242W        W54502  27.205  14.765  14.865
89243W        W54503  25.753   6.723  11.260
89244W        W54504  38.159  24.720  11.029
89245W        W54505  13.136   8.240   2.906
89246W        W54506   6.987  42.184   0.293
89247W        W54507  41.468  33.557  11.772
89248W        W54508  30.037  35.451  12.794
89249W        W54509   3.082  40.386   1.193
89250W        W54510  23.756  40.945   1.023
89251W        W54511   8.484  19.826  12.430
89252W        W54512  36.847  33.522  12.129
89253W        W54513   9.402   2.186  14.833
89254W        W54514  30.359  12.647   4.528
89255W        W54515  15.691  26.757  10.065
89256W        W54516  26.419   9.662   0.391
89257W        W54517  19.087   3.234   4.629
89258W        W54518  13.935  36.343   0.831
89259W        W54519   5.399  32.048   1.975
89260W        W54520  23.310  12.655   1.277
89261W        W54521  23.635  37.255   1.181
89262W        W54522  23.640  21.070  13.512
89263W        W54523   4.543  37.532  13.487
89264W        W54524  12.522  20.165  11.593
89265W        W54525  34.308  13.093   1.270
89266W        W54526   0.058  19.272   1.108
89267W        W54527  26.902  13.774  14.281
89268W        W54528   4.805  22.684  12.642
89269W        W54529   9.339  22.175  10.764
89270W        W54530  21.497  13.142   4.293
89271W        W54531  33.542  10.134   2.841
89272W        W54532  27.950  15.255  12.384
89273W        W54533  38.883   5.687   2.267
89274W        W54534  40.042  11.259  14.752
89275W        W54535  43.784  29.660   3.213
89276W        W54536  11.602  15.572   3.233
89277W        W54537  28.177  30.999  10.178
89278W        W54538  21.155   7.868  11.982
89279W        W54539  17.997  36.257  11.112
89280W        W54540  26.238   3.382   0.621
89281W        W54541  16.358  39.544   3.350
89282W        W54542  11.683  14.626  12.402
89283W        W54543  38.045  24.754   4.306
89284W        W54544  43.717  17.702  12.777
89285W        W54545  16.722   8.266   4.095
89286W        W54546  33.566   0.047   1.615
89287W        W54547  23.985  15.847  12.054
89288W        W54548  20.145   9.871   1.484
89289W        W54549   4.751  34.842   0.860
89290W        W54550  25.900  16.030   2.201
89291W        W54551  38.424   3.849  11.923
89292W        W54552  20.510  27.641   4.111
89293W        W54553  23.526  44.889   3.690
89294W        W54554  39.418  12.080  13.443
89295W        W54555  12.257  21.877  13.001
89296W        W54556  25.148  18.613  13.524
89297W        W54557  11.674  17.830  11.614
89298W        W54558  38.268  32.562   4.499
89299W        W54559  44.457   9.394  12.372
89300W        W54560  29.430  10.902  14.330
89301W        W54561   8.800  14.365   1.272
89302W        W54562  16.579  12.393   2.173
89303W        W54563   3.561   4.139   2.512
89304W        W54564  27.501  16.603   1.002
89305W        W54565  25.027  22.065  11.940
89306W        W54566  27.748  23.681   2.834
89307W        W54567  35.053  19.516  12.237
89308W        W54568   9.872   3.919   0.989
89309W        W54569  14.755  17.853   3.316
89310W        W54570   1.842   3.190  14.483
89311W        W54571   7.374   0.015   1.349
89312W        W54572  32.203  18.804   3.571
89313W        W54573  28.313   4.730  13.013
89314W        W54574  25.344  24.156   4.726
89315W        W54575  31.643  31.744  13.490
89316W        W54576  29.628  40.915   5.005
89317W        W54577  21.709  44.141   2.176
89318W        W54578  12.847  43.074  11.862
89319W        W54579  26.606  23.129   1.802
89320W        W54580  12.671  13.437   1.846
89321W        W54581  30.562   7.303   0.304
89322W        W54582   1.114   6.818   0.195
89323W        W54583  33.711   8.213  10.392
89324W        W54584  29.828   9.868   2.635
89325W        W54585  10.256  14.775   4.656
89326W        W54586   7.209  43.208   3.355
89327W        W54587  18.262  42.764   4.850
89328W        W54588  13.216   6.236  14.224
89329W        W54589  41.288  10.160  10.626
89330W        W54590  29.868  19.738  11.553
89331W        W54591   9.432  31.068   0.709
89332W        W54592  30.656  41.602   3.597
89333W        W54593  11.653  43.853   0.400
89334W        W54594  29.056   2.201  13.907
89335W        W54595  43.063   1.340  10.683
89336W        W54596  10.000  23.468   3.175
89337W        W54597   0.446  11.182   0.316
89338W        W54598   6.673  27.137  11.582
89339W        W54599  44.706  14.194   2.566
89340W        W54600  34.566   8.828   2.361
89341W        W54601  19.194  12.227   4.549
89342W        W54602  26.865   7.749  11.516
89343W        W54603  35.840   3.832  11.018
89344W        W54604   8.187   2.452  10.844
89345W        W54605  20.501  32.636  11.900
89346W        W54606  40.883  35.898  14.488
89347W        W54607  31.987   1.280  13.550
89348W        W54608  11.145  10.878   2.288
89349W        W54609   0.726   1.435  13.555
89350W        W54610  28.065  16.069   4.316
89351W        W54611  26.630  18.503  11.414
89352W        W54612   0.867  42.738   4.321
89353W        W54613  39.121   0.912   1.301
89354W        W54614  25.995  40.864   3.557
89355W        W54615   5.349  23.190  10.590
89356W        W54616   8.396  19.544   4.578
89357W        W54617  28.213   9.317  12.527
89358W        W54618  26.992  11.031   1.300
89359W        W54619  44.778  22.110  13.970
89360W        W54620   3.514  23.625   1.430
89361W        W54621  19.752   4.912   2.728
89362W        W54622   1.307  15.137  10.935
89363W        W54623  26.096  40.315   0.816
89364W        W54624  34.325  42.298   3.644
89365W        W54625  34.919  35.471  13.620
89366W        W54626  44.956  15.278  13.365
89367W        W54627  10.357   7.415  14.934
89368W        W54628  23.317  11.103   0.343
89369W        W54629  16.561   0.008  14.858
89370W        W54630  44.872  17.675  12.843
89371W        W54631  11.918  16.324  11.036
89372W        W54632  32.158  37.732  11.585
89373W        W54633  43.035  12.707   3.244
89374W        W54634  10.379  42.867  10.125
89375W        W54635  30.279  10.804  13.098
89376W        W54636  33.961  40.876   4.131
89377W        W54637  43.158  29.416  14.986
89378W        W54638   7.187  42.344   3.554
89379W        W54639   3.388  21.799  13.944
89380W        W54640  36.389  35.426  11.937
89381W        W54641  25.122  22.975   0.477
89382W        W54642  13.587  22.670  14.339
89383W        W54643  36.005  36.983   0.325
89384W        W54644   6.493  32.157   3.136
89385W        W54645  35.438  41.976   0.409
89386W        W54646  35.640  41.930   1.370
89387W        W54647  25.126  31.988   0.498
89388W        W54648  37.016  37.409   0.700
89389W        W54649  31.024   7.231   2.401
89390W        W54650  14.214  20.531  13.014
89391W        W54651   2.820  30.019   1.599
89392W        W54652  24.611  35.103  13.057
89393W        W54653  11.904   0.753   5.029
89394W        W54654  19.695  16.002   4.601
89395W        W54655  11.590  37.845   3.670
89396W        W54656  20.440  31.204   0.458
89397W        W54657  41.369  20.721  10.813
89398W        W54658  23.204  32.908   4.144
89399W        W54659  36.891  33.027  10.599
89400W        W54660   7.204  33.570   1.424
89401W        W54661  18.072  39.055  12.465
89402W        W54662  37.063  44.970   1.227
89403W        W54663  39.684  22.780  11.468
89404W        W54664  24.770  25.066   0.023
89405W        W54665  23.119   9.656  11.085
89406W        W54666  27.718  35.532   3.947
89407W        W54667  36.829  15.016  12.958
89408W        W54668  18.448  43.100   2.633
89409W        W54669  43.200  30.625  11.435
89410W        W54670  21.572  34.152  11.990
89411W        W54671  31.702   4.680  14.022
89412W        W54672   5.267   9.799   1.158
89413W        W54673  36.034  31.236  14.400
89414W        W54674  15.786  36.442   1.500
89415W        W54675   9.996  18.585   3.076
89416W        W54676  15.994  20.570   1.286
89417W        W54677   9.360  38.251   1.696
89418W        W54678  11.079  16.785   1.761
89419W        W54679  24.638  36.086   1.383
89420W        W54680  37.972   2.867  12.246
89421W        W54681   3.315  17.794   4.594
89422W        W54682  34.334  42.039   1.026
89423W        W54683  30.484   1.881  12.482
89424W        W54684  19.518  26.267   4.076
89425W        W54685  30.598  40.635   4.008
89426W        W54686  41.821   9.071  11.059
89427W        W54687  23.356  28.174  10.688
89428W        W54688  34.433  10.331   1.739
89429W        W54689   1.366   3.763  14.785
89430W        W54690  30.643   0.237   4.444
89431W        W54691  21.489  11.721   3.743
89432W        W54692   3.612  43.871   4.603
89433W        W54693  30.001  43.474   3.185
89434W        W54694   4.822  18.529   1.319
89435W        W54695   4.946  28.893  10.470
89436W        W54696  11.210  21.167  12.396
89437W        W54697  37.987  12.802  10.753
89438W        W54698  11.966  30.389  12.470
89439W        W54699   6.767  17.207   4.147
89440W        W54700  42.704  12.316  13.212
89441W        W54701   8.843  35.537   1.873
89442W        W54702  34.503  18.996   3.074
89443W        W54703  25.941   9.372  13.112
89444W        W54704  28.579  25.177  11.615
89445W        W54705  13.463  11.153   5.072
89446W        W54706  25.627  29.025  12.623
89447W        W54707  34.926   2.544  11.327
89448W        W54708  10.814  18.281   0.318
89449W        W54709  34.630  31.224  10.990
89450W        W54710   7.292  16.803   0.443
89451W        W54711   5.449  37.396   1.976
89452W        W54712  36.911   1.697  12.529
89453W        W54713  17.240  12.265   4.705
89454W        W54714  35.397  25.430   2.964
89455W        W54715   0.408  33.289  13.511
89456W        W54716  16.659  19.858  12.572
89457W        W54717  41.032  33.583  14.871
89458W        W54718   6.594   9.253   0.410
89459W        W54719  12.268   6.784  12.314
89460W        W54720   4.896  30.410   0.011
89461W        W54721  14.809  41.386   3.802
89462W        W54722  16.913   7.096  14.953
89463W        W54723  25.992  30.503   2.912
89464W        W54724  15.725  31.364   3.540
89465W        W54725   2.839  11.830   1.820
89466W        W54726  22.715  11.790  13.011
89467W        W54727  27.484  11.428  12.273
89468W        W54728  17.339  41.098  11.601
89469W        W54729  12.449  10.245   5.239
89470W        W54730   0.678  29.274   2.610
89471W        W54731   9.043  31.127  12.957
89472W        W54732  38.349  41.483   0.682
89473W        W54733  24.179  10.681   5.002
89474W        W54734  20.247  26.427   2.805
89475W        W54735  19.085  22.580   2.301
89476W        W54736  22.318  38.120   0.765
89477W        W54737  41.354  18.677   2.339
89478W        W54738  21.826  28.983   4.089
89479W        W54739  32.841   4.376   1.927
89480W        W54740  12.276  28.756   0.965
89481W        W54741  35.262  26.087  12.621
89482W        W54742  21.692  33.213   2.212
89483W        W54743   5.664   1.794   0.745
89484W        W54744  10.739  18.790   0.424
89485W        W54745  42.386  28.783   2.733
89486W        W54746  30.577  36.846   3.715
89487W        W54747   1.495  35.968  14.371
89488W        W54748  20.126  13.846  13.387
89489W        W54749  19.734  37.847  11.918
89490W        W54750  19.499   7.401   4.951
89491W        W54751  22.030   8.190   4.684
89492W        W54752  30.995  38.442  11.532
89493W        W54753   1.306  18.886  14.904
89494W        W54754   5.950  40.018  14.827
89495W        W54755  44.282  44.733  14.715
89496W        W54756  21.088  20.517  12.653
89497W        W54757  39.728  18.291  12.510
89498W        W54758  24.662  38.980   1.236
89499W        W54759  27.342   5.527  12.537
89500W        W54760  20.816  22.134   4.704
89501W        W54761  28.065   8.600   1.993
89502W        W54762   6.195  25.747   0.104
89503W        W54763  31.397   9.983  11.575
89504W        W54764  26.288  15.154   2.459
89505W        W54765  21.636  10.735   3.407
89506W        W54766  27.197   6.273   4.047
89507W        W54767  17.788  14.655  10.948
89508W        W54768  19.054  42.309   2.750
89509W        W54769  38.368  28.986  11.462
89510W        W54770  20.742  34.159   2.288
89511W        W54771   3.645   5.847   3.845
89512W        W54772   3.656  42.977   3.835
89513W        W54773  13.186  32.626  12.326
89514W        W54774  41.748   4.354   2.270
89515W        W54775  10.935   6.681   2.229
89516W        W54776   3.089  37.295  11.985
89517W        W54777  26.877  24.898   0.922
89518W        W54778  25.066  35.867   2.681
89519W        W54779  31.029   8.596   0.588
89520W        W54780  40.399  23.700  10.011
89521W        W54781  31.935  42.249   2.718
89522W        W54782   9.316   5.858   4.258
89523W        W54783  26.745  22.079  14.423
89524W        W54784  44.115  26.968   1.219
89525W        W54785  25.168  28.953  13.170
89526W        W54786   9.737  37.087   2.702
89527W        W54787  10.499  44.722  14.124
89528W        W54788  31.566  30.262  11.403
89529W        W54789   2.482   6.926   0.267
89530W        W54790   5.998  10.315   1.442
89531W        W54791  39.269  13.349  13.002
89532W        W54792  15.202   7.897  10.537
89533W        W54793  15.253  38.635   1.252
89534W        W54794   9.314  25.719   0.838
89535W        W54795   0.855   1.910   4.124
89536W        W54796   7.863  27.754  14.860
89537W        W54797  32.687  17.778  12.093
89538W        W54798  14.667  44.651  13.507
89539W        W54799  29.438   7.177  14.422
89540W        W54800  11.834  19.225  14.752
89541W        W54801  31.519  40.962  10.743
89542W        W54802  33.956  15.549  13.987
89543W        W54803  21.284   6.932  14.409
89544W        W54804   0.482  14.706   4.578
89545W        W54805  38.149  14.673   1.357
89546W        W54806   5.382  20.780   3.718
89547W        W54807  32.910  28.976   2.220
89548W        W54808   8.369  41.766   3.238
89549W        W54809  11.660  15.100   2.447
89550W        W54810  40.886   5.195   3.939
89551W        W54811   0.246  21.834  14.804
89552W        W54812  36.541  41.307  13.386
89553W        W54813   1.322  26.981   1.873
89554W        W54814  41.504  37.470   4.507
89555W        W54815   9.667  23.664   0.428
89556W        W54816  21.712  20.824   4.931
89557W        W54817   5.491  24.466  12.836
89558W        W54818  39.813  36.275   2.545
89559W        W54819  17.046  44.036   4.089
89560W        W54820  34.569   1.221  12.495
89561W        W54821   8.275  36.557  14.544
89562W        W54822  19.515  16.105   4.127
89563W        W54823  16.787  43.976  10.901
89564W        W54824  22.763  23.292  13.532
89565W        W54825  17.299  36.996   3.750
89566W        W54826   5.997   2.483   2.157
89567W        W54827  19.829  29.001   2.243
89568W        W54828   6.320  22.763   1.043
89569W        W54829  34.459   1.346   4.544
89570W        W54830  22.147  13.561  11.231
89571W        W54831  24.159  10.331   2.315
89572W        W54832  27.681  23.102   0.872
89573W        W54833  12.317  10.895  13.212
89574W        W54834   2.934  38.084  14.351
89575W        W54835  44.028  14.701  10.801
89576W        W54836   5.761  21.724   4.440
89577W        W54837  10.747   9.953   2.738
89578W        W54838  40.280  17.229  12.041
89579W        W54839  44.857  10.644   4.095
89580W        W54840  13.165  44.354  11.409
89581W        W54841   7.691  25.801  13.108
89582W        W54842  44.249  10.631  12.109
89583W        W54843  29.784  28.150   9.927
89584W        W54844  43.836  42.979   4.648
89585W        W54845  40.211   8.939   3.839
89586W        W54846  14.807  35.554  12.014
89587W        W54847  25.366  20.486   0.344
89588W        W54848  27.607  39.934   3.559
89589W        W54849  35.126  27.426  11.109
89590W        W54850  12.652  35.594   2.713
89591W        W54851  31.028  31.688   4.544
89592W        W54852  39.991   2.704   2.714
89593W        W54853  32.026  29.443  13.814
89594W        W54854  18.909  10.221  11.564
89595W        W54855  40.820  34.722   1.239
89596W        W54856  16.081  25.023  11.179
89597W        W54857   3.510  22.752  10.702
89598W        W54858  36.349   8.916   0.744
89599W        W54859  34.924  35.524  14.129
89600W        W54860   7.260  25.605   4.100
89601W        W54861  33.492  23.684   2.769
89602W        W54862  28.050  12.769   1.849
89603W        W54863   1.912   6.388  14.924
89604W        W54864  37.001  13.896   1.303
89605W        W54865  22.639  43.878   2.160
89606W        W54866   6.851  24.987  12.100
89607W        W54867  39.190  11.356  10.242
89608W        W54868   1.941  33.644  13.134
89609W        W54869  18.136  40.451  14.459
89610W        W54870  26.042  38.780   3.846
89611W        W54871   6.442  30.436  12.844
89612W        W54872   1.038  11.310   2.562
89613W        W54873  35.959  28.147   4.711
89614W        W54874  13.427  30.251  13.862
89615W        W54875  37.580  25.711  13.094
89616W        W54876  16.329  35.615   3.315
89617W        W54877  15.391   3.980  14.682
89618W        W54878  17.839   7.779   1.871
89619W        W54879  43.215  19.275  12.337
89620W        W54880  11.668   0.379   1.913
89621W        W54881  12.385  14.277  13.436
89622W        W54882  17.305   0.842   4.378
89623W        W54883  24.505  42.950   3.747
89624W        W54884  19.831   8.644   1.299
89625W        W54885  15.603  30.873   1.410
89626W        W54886  18.144  16.529  11.186
89627W        W54887  21.365  22.034   2.747
89628W        W54888  41.850   9.260   1.863
89629W        W54889  33.954  10.463  12.942
89630W        W54890  37.067   0.496  11.739
89631W        W54891   8.627  27.083  14.989
89632W        W54892  26.738  44.338  12.898
89633W        W54893  33.389  11.595  11.618
89634W        W54894  43.249  40.434  14.801
89635W        W54895   1.245   2.761   1.643
89636W        W54896  14.754  22.756   5.061
89637W        W54897  32.541  30.253  14.779
89638W        W54898   9.229  16.256   2.410
89639W        W54899  26.566  26.690  11.016
89640W        W54900  35.816  11.206  13.390
89641W        W54901  18.530  23.686   0.453
89642W        W54902   4.237  21.674   1.829
89643W        W54903  23.741   2.606   1.370
89644W        W54904   5.668   4.833  12.511
89645W        W54905   7.650  39.875  14.346
89646W        W54906  31.323  22.495   4.474
89647W        W54907  37.814  40.072   0.745
89648W        W54908  34.582  12.234  13.313
89649W        W54909   3.445  18.304  13.458
89650W        W54910  30.389  16.836   1.225
89651W        W54911  41.905  31.393  13.736
89652W        W54912  17.334  36.423  11.509
89653W        W54913  22.119  23.533   3.371
89654W        W54914   5.742  40.254   0.314
89655W        W54915  44.455  34.021  10.372
89656W        W54916   4.887   8.741   0.774
89657W        W54917  21.166  39.274   4.254
89658W        W54918  44.297  12.883  10.719
89659W        W54919  41.346  23.258   0.370
89660W        W54920   1.733  16.118  13.969
89661W        W54921  26.744  34.816   0.746
89662W        W54922   6.298  28.815   5.079
89663W        W54923  38.936  10.400  12.533
89664W        W54924  41.688  28.155  14.013
89665W        W54925  30.828  37.606   3.763
89666W        W54926  31.474   5.931  12.035
89667W        W54927   7.898   7.285   2.738
89668W        W54928  31.612  18.673  11.060
89669W        W54929  25.782  30.094   2.632
89670W        W54930  44.940  32.173   3.171
89671W        W54931  25.344  18.126  11.318
89672W        W54932  43.882  35.334  13.012
89673W        W54933   6.455  11.378   0.890
89674W        W54934  28.687  40.735   4.291
89675W        W54935  19.180  27.976  11.506
89676W        W54936   7.765  33.536   2.791
89677W        W54937  36.363   2.978  12.432
89678W        W54938  14.176  19.218  11.492
89679W        W54939   9.187  44.132  12.502
89680W        W54940  15.543  20.671  13.618
89681W        W54941  31.111  17.065   0.961
89682W        W54942   0.841  42.879  13.467
89683W        W54943  39.917  21.505  12.085
89684W        W54944  39.858   6.748  14.503
89685W        W54945  12.668  36.351   2.164
89686W        W54946  10.196   1.881  10.679
89687W        W54947   4.856  22.087   3.530
89688W        W54948  22.180  38.055   3.272
89689W        W54949  18.053  31.887  12.081
89690W        W54950  28.476   6.570  11.641
89691W        W54951  11.436  23.648   0.822
89692W        W54952  33.151  22.659  11.985
89693W        W54953   9.260  15.715  12.977
89694W        W54954  36.516  29.150  14.887
89695W        W54955  23.770  31.426  12.665
89696W        W54956  32.141  31.055  12.963
89697W        W54957  18.182  13.847   1.347
89698W        W54958  27.404  43.019   0.947
89699W        W54959  20.169  12.565  12.823
89700W        W54960   0.323  40.406  11.620
89701W        W54961  19.477  13.174  12.882
89702W        W54962  14.517  40.284   1.223
89703W        W54963   2.060  13.302   1.117
89704W        W54964  11.197  44.527  14.751
89705W        W54965  29.561  17.424   2.453
89706W        W54966  26.898  35.552  11.442
89707W        W54967  43.225  35.766  11.141
89708W        W54968  32.140  31.288  14.708
89709W        W54969  33.532  28.332   4.378
89710W        W54970   8.884  32.053   2.751
89711W        W54971   3.214  38.735  10.719
89712W        W54972  13.520  21.036  13.171
89713W        W54973   7.831  16.325  12.829
89714W        W54974  37.863  28.537  14.672
89715W        W54975  13.758  33.684  14.378
89716W        W54976   3.506  38.175  14.852
89717W        W54977  31.542   3.858  11.960
89718W        W54978   4.432   8.012  12.126
89719W        W54979  14.232   0.938   2.151
89720W        W54980  40.966   4.782   2.218
89721W        W54981  14.460   6.193   2.418
89722W        W54982  28.165  16.161  12.976
89723W        W54983  10.385  20.021  11.478
89724W        W54984  40.030   6.737   1.275
89725W        W54985  44.465  14.873  10.542
89726W        W54986  27.484  29.141   1.293
89727W        W54987   7.492   9.248   4.479
89728W        W54988  22.923  40.472   4.184
89729W        W54989  31.811  14.811  12.566
89730W        W54990  44.473  23.464  10.058
89731W        W54991   2.823   6.005   4.556
89732W        W54992  32.923   4.337   0.020
89733W        W54993  20.136  12.784   4.295
89734W        W54994  29.445  38.472  12.587
89735W        W54995  35.913  28.645  13.005
89736W        W54996   8.296  33.001   0.500
89737W        W54997  16.803  37.321   1.302
89738W        W54998  32.040  28.199  12.765
89739W        W54999  44.078  21.383   5.109
89740W        W55000  18.782  10.690  11.451
89741W        W55001  36.832  44.768  11.527
89742W        W55002   8.341  25.148   0.244
89743W        W55003  11.107  26.031   1.238
89744W        W55004   1.817  30.929   2.738
89745W        W55005  42.017  13.779   2.186
89746W        W55006  14.698  30.161  10.662
89747W        W55007  21.716  33.427  11.627
89748W        W55008  16.111  19.031   0.171
89749W        W55009  19.027   0.698   2.228
89750W        W55010   8.500  18.052   1.019
89751W        W55011  27.472  24.023  11.194
89752W        W55012  42.390  38.332  12.871
89753W        W55013  12.145  11.543   0.792
89754W        W55014  35.465  41.861   2.827
89755W        W55015  27.954   4.536   1.624
89756W        W55016   5.249  16.041  13.922
89757W        W55017  32.177  23.241   3.664
89758W        W55018  15.659  33.221  14.879
89759W        W55019   7.104  42.950   2.384
89760W        W55020  16.459  42.436  10.714
89761W        W55021  44.033  33.086  14.927
89762W        W55022  43.565  14.084  12.868
89763W        W55023  21.058  26.661  12.028
89764W        W55024   4.177  44.798   2.831
89765W        W55025  15.194  22.535   3.673
89766W        W55026  31.595  40.953   3.762
89767W        W55027   0.420  27.102  11.576
89768W        W55028  20.733  20.772   1.282
89769W        W55029  40.936  18.755   4.456
89770W        W55030  25.997   3.850   0.716
89771W        W55031  24.513  18.064  12.568
89772W        W55032  15.467  15.235   3.723
89773W        W55033  11.275  30.652  11.650
89774W        W55034  25.552  33.122  10.381
89775W        W55035   2.667  36.939  11.062
89776W        W55036  18.150  12.862   2.786
89777W        W55037   6.269  14.743   1.826
89778W        W55038  21.529  16.584   4.917
89779W        W55039  44.242  23.676  14.370
89780W        W55040   7.708  39.493   2.452
89781W        W55041  32.945   9.524  12.040
89782W        W55042  35.187  15.099   1.927
89783W        W55043   9.341  19.773   2.999
89784W        W55044  10.307  23.233   4.585
89785W        W55045  42.599  18.403   5.072
89786W        W55046  40.971  21.452   0.320
89787W        W55047   0.882   8.799   0.339
89788W        W55048  37.831   6.841   0.789
89789W        W55049  40.281  44.420  11.580
89790W        W55050  17.992  37.828  13.619
89791W        W55051  11.283  39.291  14.316
89792W        W55052   2.653  33.433   2.417
89793W        W55053  41.381  14.425   0.313
89794W        W55054  44.264  44.627  10.743
89795W        W55055  17.271  19.658  14.695
89796W        W55056   4.169  26.477   3.104
89797W        W55057   2.232  18.616   3.289
89798W        W55058  26.490  10.329  12.222
89799W        W55059  38.492  41.741  14.526
89800W        W55060  32.470  10.326  14.050
89801W        W55061   6.173  21.027  12.934
89802W        W55062   1.759  39.681  12.365
89803W        W55063  37.842  17.560   1.187
89804W        W55064  34.057  28.561  14.924
89805W        W55065  32.593  28.155   4.059
89806W        W55066  23.047  30.672  13.437
89807W        W55067   7.648  37.832  13.875
89808W        W55068  40.773  22.708   2.904
89809W        W55069  15.265   7.942  13.995
89810W        W55070  27.224  38.520   4.119
89811W        W55071   0.335   8.735   2.358
89812W        W55072  38.540  31.189  14.415
89813W        W55073  14.722  31.504   3.788
89814W        W55074  23.029  19.293   1.736
89815W        W55075  44.947  31.479  11.427
89816W        W55076  44.070  14.689   4.602
89817W        W55077  42.998  44.725  14.927
89818W        W55078   5.312   5.283  14.059
89819W        W55079   1.824  29.131   0.343
89820W        W55080  14.768  21.756   5.133
89821W        W55081  20.977  36.916   3.252
89822W        W55082  25.787  25.183   0.988
89823W        W55083  42.501  31.669   4.186
89824W        W55084  12.866  10.802   0.848
89825W        W55085   5.343  14.383  13.743
89826W        W55086  41.725  28.940   3.789
89827W        W55087  18.742  25.491   4.851
89828W        W55088   4.816  27.129   3.334
89829W        W55089  44.382  36.006   1.344
89830W        W55090  43.840  22.967   1.412
89831W        W55091   5.016  43.694  13.449
89832W        W55092  34.329  17.245  12.609
89833W        W55093  16.317  43.069  13.872
89834W        W55094  15.265  25.080  14.475
89835W        W55095  24.013  43.507  12.014
89836W        W55096  43.750  14.260   2.170
89837W        W55097  32.671  22.066  12.413
89838W        W55098  32.762   5.694   3.089
89839W        W55099  28.834  12.945   3.695
89840W        W55100  28.946  43.459   3.581
89841W        W55101  23.090  12.634   2.644
89842W        W55102  19.097  28.955  11.417
89843W        W55103  40.626  27.175   2.167
89844W        W55104  34.025  43.450  13.500
89845W        W55105  20.688  12.609   1.343
89846W        W55106  38.928  21.656   1.867
89847W        W55107  29.617   3.312  10.131
89848W        W55108  42.301  16.894   1.176
89849W        W55109  30.022  15.313   2.934
89850W        W55110  39.605   8.407  11.039
89851W        W55111  31.550  31.037  13.051
89852W        W55112  15.503  31.367   1.634
89853W        W55113  24.988  39.582   9.368
89854W        W55114   4.786   6.218   0.018
89855W        W55115  12.921  20.081   0.925
89856W        W55116  34.506  18.554   4.576
89857W        W55117  35.979  19.018  12.051
89858W        W55118  34.653  27.652  14.877
89859W        W55119  41.824  11.321   4.563
89860W        W55120  41.388  21.739   2.226
89861W        W55121  11.090  35.383   2.124
89862W        W55122  44.525  28.112  10.837
89863W        W55123  26.987  13.407  14.626
89864W        W55124   5.303  12.338  11.137
89865W        W55125  28.639  15.433   3.081
89866W        W55126  21.155   8.773   4.641
89867W        W55127  39.894   4.675  10.683
89868W        W55128  41.032  13.224   3.661
89869W        W55129  41.330   2.322   2.639
89870W        W55130  12.120   7.000   1.324
89871W        W55131  26.520  42.988  14.473
89872W        W55132  27.537  26.698   4.617
89873W        W55133  24.734  15.479  13.887
89874W        W55134  37.840  12.842  12.779
89875W        W55135  32.679  20.847   0.442
89876W        W55136  25.415  25.710  11.856
89877W        W55137   4.798  34.525  11.860
89878W        W55138   1.741   8.780   4.166
89879W        W55139   5.262   9.922  13.333
89880W        W55140  30.199  19.032  11.119
89881W        W55141  31.171   6.225  11.754
89882W        W55142  14.258  28.364  13.804
89883W        W55143  42.296  34.040  14.766
89884W        W55144  34.075   5.784   1.298
89885W        W55145  27.633  25.749  14.193
89886W        W55146  34.445   9.881   0.853
89887W        W55147   4.189  41.953  14.397
89888W        W55148  36.945  23.110  13.961
89889W        W55149  26.983  34.083   3.240
89890W        W55150  28.898  28.932   4.932
89891W        W55151  23.488  12.872   0.223
89892W        W55152   4.352  32.752   0.529
89893W        W55153   3.366  20.092   0.424
89894W        W55154   4.326  14.751   4.167
89895W        W55155  16.105   6.300  10.540
89896W        W55156  28.272   6.827   2.390
89897W        W55157   8.778   4.663  12.914
89898W        W55158  40.476  37.391  12.452
89899W        W55159  16.727   7.190  13.557
89900W        W55160  30.564  43.727  11.854
89901W        W55161  41.500  14.780   3.887
89902W        W55162  25.616   0.880  13.965
89903W        W55163  24.648  23.517  14.070
89904W        W55164  15.121   0.471  13.065
89905W        W55165  27.456  12.447  12.440
89906W        W55166  16.677  36.606  14.539
89907W        W55167   6.668  38.591  12.495
89908W        W55168  10.246  21.010   2.925
89909W        W55169  10.780  28.053   0.845
89910W        W55170   0.821   9.381   1.052
89911W        W55171  42.508  42.298  14.351
89912W        W55172  35.365  32.895  11.603
89913W        W55173  28.114  44.714   0.341
89914W        W55174   1.801   2.177   4.105
89915W        W55175   7.202  40.097   2.146
89916W        W55176  22.687  43.352  11.687
89917W        W55177  27.380  25.478   4.139
89918W        W55178  32.460  27.889   1.751
89919W        W55179   7.377  20.750  12.776
89920W        W55180  33.833  14.298  11.168
89921W        W55181  38.896   7.268  13.450
89922W        W55182  30.347   4.309  14.947
89923W        W55183  35.430  40.430  12.815
89924W        W55184   6.068  28.111  12.864
89925W        W55185  33.631  19.056   3.087
89926W        W55186  10.095   0.111  12.012
89927W        W55187  23.066   1.168  14.939
89928W        W55188  17.725  28.401  10.601
89929W        W55189  18.121  14.866  11.579
89930W        W55190   9.645  12.813  14.341
89931W        W55191   1.639  36.726   0.711
89932W        W55192   8.699  40.935  11.453
89933W        W55193  44.489  43.682  13.045
89934W        W55194  11.116  18.594   4.034
89935W        W55195   3.385  10.880   3.635
89936W        W55196   8.503  11.765   2.485
89937W        W55197  42.912  42.772  14.054
89938W        W55198  25.375  36.169  13.484
89939W        W55199  23.698  21.241   1.741
89940W        W55200  32.233   9.920  14.259
89941W        W55201  39.602   5.178  12.154
89942W        W55202  13.255  34.625  13.059
89943W        W55203  36.882  39.695   0.799
89944W        W55204  11.426  27.757   2.246
89945W        W55205   8.146  30.258  13.321
89946W        W55206  36.279  28.244  14.889
89947W        W55207  25.487  18.312   2.257
89948W        W55208  29.451  30.116   3.376
89949W        W55209  13.190  11.652   3.236
89950W        W55210  40.252  25.472   0.884
89951W        W55211  11.927  21.532   1.247
89952W        W55212  33.921  35.528  13.417
89953W        W55213  34.544  34.528  10.525
89954W        W55214  39.947  30.803   0.947
89955W        W55215  30.204  21.669  14.026
89956W        W55216   7.916  11.573   0.772
89957W        W55217  34.439  29.650   2.045
89958W        W55218  36.969   2.222  12.630
89959W        W55219  28.102  21.405   1.607
89960W        W55220  30.178  32.119   3.371
89961W        W55221  21.555  37.049  13.476
89962W        W55222  28.156  17.973  11.876
89963W        W55223  27.732   5.570  13.637
89964W        W55224   9.179   3.800   2.381
89965W        W55225  28.526  17.358  13.599
89966W        W55226  33.328  26.460   2.732
89967W        W55227  29.179  27.634   3.582
89968W        W55228   7.493   0.815   0.834
89969W        W55229  30.991  17.640   3.280
89970W        W55230  44.979  13.348   2.232
89971W        W55231  29.985  15.330   4.791
89972W        W55232   1.464  44.021  12.711
89973W        W55233  22.245   7.426   2.632
89974W        W55234  13.559  28.984  12.377
89975W        W55235  40.970  14.819   4.636
89976W        W55236   2.743   0.228   3.218
89977W        W55237   1.963  40.250  13.012
89978W        W55238  37.070  35.385   4.630
89979W        W55239  15.425  42.477  10.731
89980W        W55240  34.375  36.576   3.899
89981W        W55241  10.373  40.355   2.282
89982W        W55242  40.039  13.123   1.936
89983W        W55243  17.459   1.262  12.362
89984W        W55244  15.123   3.463  12.700
89985W        W55245  35.346  37.834  11.970
89986W        W55246  26.563  12.141   1.745
89987W        W55247  16.014   5.812  14.216
89988W        W55248  30.457  38.860   4.432
89989W        W55249  17.296  25.562   2.161
89990W        W55250  34.364   0.611   3.089
89991W        W55251  26.369  37.822  11.043
89992W        W55252   2.189  43.273  11.150
89993W        W55253  16.686  41.339   4.872
89994W        W55254   0.963  27.261   2.671
89995W        W55255  19.714  19.595  12.012
89996W        W55256  37.929  12.453  12.078
89997W        W55257  29.099   0.430  10.400
89998W        W55258  43.901   9.373  11.692
89999W        W55259  44.488  38.323   4.167
90000W        W55260  43.903   5.714  10.412
90001W        W55261   8.080  15.781   1.559
90002W        W55262   6.798  44.245   4.270
90003W        W55263   3.431  19.063   2.489
90004W        W55264  21.157  39.310  14.410
90005W        W55265  12.847  29.281   4.099
90006W        W55266  29.136   4.408  10.885
90007W        W55267  39.903  42.044   4.155
90008W        W55268   7.753  15.305   3.786
90009W        W55269  25.470  33.666  14.391
90010W        W55270  41.507  23.731   2.674
90011W        W55271  34.597  11.350  11.172
90012W        W55272  26.118   0.690  14.052
90013W        W55273  10.255  12.399  11.714
90014W        W55274  13.026  20.154  11.701
90015W        W55275  35.974   4.980  12.948
90016W        W55276  24.581   1.450  12.935
90017W        W55277  26.443   8.097  12.044
90018W        W55278  18.005  42.299   3.236
90019W        W55279  31.300   8.639   1.851
90020W        W55280  19.896  27.707  14.380
90021W        W55281  40.384   9.368   2.418
90022W        W55282   7.349   9.019   3.510
90023W        W55283  27.265  27.554   3.662
90024W        W55284  41.367  28.520  11.939
90025W        W55285  19.800  21.678  14.311
90026W        W55286  21.648  10.423  10.959
90027W        W55287  34.304  22.463   2.087
90028W        W55288  37.817  14.879   4.892
90029W        W55289  26.625   4.966   2.593
90030W        W55290   4.962  32.743  12.360
90031W        W55291   9.854  33.424   4.519
90032W        W55292   5.400  24.735  14.733
90033W        W55293  30.633  21.099   3.205
90034W        W55294  18.696  43.852  11.182
90035W        W55295  19.187  21.620   2.318
90036W        W55296  29.287  18.648   0.342
90037W        W55297  27.854  13.361   5.261
90038W        W55298   7.597  29.879  14.268
90039W        W55299  26.570  39.777  13.018
90040W        W55300  44.252  29.468  14.721
90041W        W55301  15.586   5.751   2.859
90042W        W55302   7.487  28.531   0.967
90043W        W55303  40.511  44.543   3.578
90044W        W55304   6.840  41.374   2.417
90045W        W55305   7.236  40.549  13.913
90046W        W55306  43.035   2.441   2.811
90047W        W55307  28.084   5.270   1.477
90048W        W55308  18.185  30.937   1.406
90049W        W55309  17.106  25.931  13.457
90050W        W55310  30.218  22.741   3.810
90051W        W55311  19.271   7.394  10.761
90052W        W55312  40.200   0.035   2.618
90053W        W55313  20.353  21.700  11.071
90054W        W55314  26.137  37.590   3.087
90055W        W55315  28.487  25.913   0.794
90056W        W55316  13.979  29.665   3.789
90057W        W55317  34.931  26.274  14.017
90058W        W55318  32.606  38.479   3.818
90059W        W55319  43.947   5.217   0.521
90060W        W55320  44.912  18.355   0.958
90061W        W55321  23.281  34.966   4.028
90062W        W55322  28.281  18.858  12.000
90063W        W55323  15.883   8.907  13.365
90064W        W55324  32.899  35.505  13.270
90065W        W55325  12.542  36.956   0.252
90066W        W55326  32.172  24.297   2.441
90067W        W55327   3.048  42.848   1.702
90068W        W55328  27.968   5.689  11.179
90069W        W55329  19.092  35.004  14.421
90070W        W55330  19.764   1.761   4.240
90071W        W55331   7.373  40.076   1.242
90072W        W55332  17.168   2.456   4.720
90073W        W55333  35.316   6.928  14.854
90074W        W55334  12.683  29.823  14.204
90075W        W55335  10.581   6.133   1.233
90076W        W55336  43.015  34.879   0.744
90077W        W55337  33.539  40.388  11.105
90078W        W55338   2.321  10.454   1.750
90079W        W55339  19.300  33.704  11.182
90080W        W55340  43.471  10.428  10.669
90081W        W55341  43.581  30.027  14.580
90082W        W55342  18.817  44.308   0.905
90083W        W55343   3.402  17.031   2.885
90084W        W55344  42.256  43.931   0.808
90085W        W55345  24.903  13.155  11.513
90086W        W55346  40.375  35.563  14.848
90087W        W55347  16.583  30.000  11.409
90088W        W55348  22.720   7.859   0.001
90089W        W55349   3.183  29.169  13.944
90090W        W55350  19.801  23.985   0.933
90091W        W55351  13.714  43.479   3.398
90092W        W55352   0.367   4.504   1.329
90093W        W55353  13.305  26.461  13.880
90094W        W55354   5.424  41.394   3.721
90095W        W55355  35.482   0.577  12.202
90096W        W55356   3.671  18.257   4.321
90097W        W55357  33.256  29.608   2.518
90098W        W55358  32.590  31.951   2.326
90099W        W55359  10.892   3.879  11.406
90100W        W55360  35.417  28.421   4.367
90101W        W55361   2.269  24.221   5.231
90102W        W55362  31.929  30.368  13.551
90103W        W55363  17.941  29.563  13.948
90104W        W55364   0.187  38.777  11.073
90105W        W55365   8.052   1.710  10.576
90106W        W55366  38.850  36.270   2.584
90107W        W55367  39.066  24.989   3.311
90108W        W55368  10.765  13.334  14.757
90109W        W55369   0.175   1.906  13.905
90110W        W55370  34.428  17.842   3.888
90111W        W55371   6.910  23.761  12.421
90112W        W55372   4.767  35.391   0.549
90113W        W55373  31.882  27.030   2.829
90114W        W55374  37.003  27.018   0.843
90115W        W55375   6.266   6.234   5.070
90116W        W55376  39.508  15.751  13.901
90117W        W55377  36.047  31.670  13.498
90118W        W55378  20.640  43.467   3.743
90119W        W55379   1.983  36.575   1.094
90120W        W55380  27.913  17.572   0.852
90121W        W55381  28.994   3.755  12.268
90122W        W55382  42.889   1.995  11.183
90123W        W55383  16.794  41.858   4.232
90124W        W55384   0.619  40.336   0.357
90125W        W55385  27.958  16.207  13.819
90126W        W55386   8.126  10.186  10.683
90127W        W55387  43.884  26.869  12.616
90128W        W55388  20.760  16.183   4.568
90129W        W55389  20.236   2.546   4.370
90130W        W55390   1.232   6.225   1.250
90131W        W55391  11.921  41.876  12.405
90132W        W55392  27.158  25.600  11.208
90133W        W55393  39.939  20.710   4.529
90134W        W55394  32.482  39.043   0.428
90135W        W55395   0.381  38.902  14.736
90136W        W55396  26.505  26.207  10.808
90137W        W55397   9.953  29.912  10.861
90138W        W55398   5.805  44.849  12.949
90139W        W55399  12.132   1.513  14.395
90140W        W55400  28.079  32.853   2.517
90141W        W55401  31.097  34.674   3.246
90142W        W55402  30.590  41.911  13.772
90143W        W55403  37.861  35.896  13.293
90144W        W55404  22.539  35.290   0.783
90145W        W55405  37.766  33.667  13.221
90146W        W55406  31.785  44.394   0.517
90147W        W55407   7.457  23.147   0.409
90148W        W55408  12.978  12.764  14.086
90149W        W55409  11.348  32.074  10.586
90150W        W55410  42.381   0.558   0.751
90151W        W55411  25.677  25.079  11.411
90152W        W55412  11.385  31.571  13.396
90153W        W55413  23.128   3.868  12.456
90154W        W55414   5.011  25.244  12.532
90155W        W55415  31.541   2.265   1.951
90156W        W55416  27.342  37.584   3.650
90157W        W55417  22.240  11.256  11.900
90158W        W55418  35.332  23.057   1.120
90159W        W55419  10.324  20.266   1.274
90160W        W55420  20.713  44.939  12.500
90161W        W55421  35.464  40.488   3.599
90162W        W55422  21.974  43.970   4.588
90163W        W55423  22.302  31.144   4.256
90164W        W55424  17.643  30.164  10.376
90165W        W55425  18.699  44.679  11.120
90166W        W55426  37.415  43.368   0.099
90167W        W55427  16.590  24.452  14.375
90168W        W55428  38.951  14.019   0.508
90169W        W55429  29.995  23.706   2.305
90170W        W55430  30.439  15.596   4.979
90171W        W55431  28.273  32.583  11.721
90172W        W55432   7.224  25.625  11.539
90173W        W55433   1.668   2.789   1.295
90174W        W55434   9.324  18.714  11.283
90175W        W55435  35.989  42.007   1.836
90176W        W55436  43.131   9.735  12.476
90177W        W55437  34.339  16.263  14.284
90178W        W55438  26.503  24.703  11.732
90179W        W55439  14.346  42.653   1.536
90180W        W55440  41.929  39.045  12.023
90181W        W55441  29.168  29.128  11.641
90182W        W55442  40.707  29.917  12.049
90183W        W55443  39.000  10.864   1.707
90184W        W55444  13.892   7.022   5.159
90185W        W55445  34.882  17.320  13.253
90186W        W55446   7.815  33.559   9.641
90187W        W55447  10.473  32.282  10.276
90188W        W55448  17.264  26.555  14.476
90189W        W55449   1.856  20.815  14.790
90190W        W55450  41.185  15.203   5.162
90191W        W55451   3.965  15.694   2.606
90192W        W55452  36.872  40.933   1.613
90193W        W55453  32.747  24.205  13.998
90194W        W55454  16.247  31.043   3.810
90195W        W55455  41.259  33.905  13.439
90196W        W55456   0.655   3.437  10.281
90197W        W55457  35.316  36.936  13.494
90198W        W55458  31.839  16.209  13.464
90199W        W55459  44.819  30.672   3.234
90200W        W55460  14.994   1.373  11.595
90201W        W55461  35.097  27.215   1.049
90202W        W55462  37.057  36.614  13.487
90203W        W55463  31.582  43.079  14.442
90204W        W55464  12.732  19.360   4.646
90205W        W55465  25.043  25.622   0.832
90206W        W55466  40.840  29.064  14.953
90207W        W55467  38.981  37.242  11.910
90208W        W55468   0.030  39.571  12.439
90209W        W55469  24.201  43.393   2.588
90210W        W55470  10.375  15.798  13.448
90211W        W55471  36.853   5.500   1.811
90212W        W55472  27.653  15.938   4.993
90213W        W55473  14.762  17.334  14.190
90214W        W55474  43.599  28.967   4.158
90215W        W55475  43.967   9.270   3.877
90216W        W55476  18.626  16.656   0.301
90217W        W55477  43.601  30.683  10.460
90218W        W55478   0.227  43.749   2.140
90219W        W55479  33.858  31.671  14.526
90220W        W55480  40.863   1.447  12.100
90221W        W55481  15.178   6.446  10.814
90222W        W55482  35.023  42.785  11.198
90223W        W55483  29.271  24.960   0.310
90224W        W55484  38.058  31.478  12.954
90225W        W55485   3.221  19.117  13.893
90226W        W55486  37.851  29.755   4.191
90227W        W55487   0.291  43.405   4.396
90228W        W55488  16.841  21.578  12.431
90229W        W55489   7.763  34.316  12.824
90230W        W55490  21.138  15.359  10.452
90231W        W55491  37.301  14.908   4.950
90232W        W55492  15.542  16.140  11.933
90233W        W55493  13.129  28.123  11.182
90234W        W55494  23.630  35.644  14.039
90235W        W55495  20.235   0.361  10.741
90236W        W55496  36.579  43.422   4.982
90237W        W55497  18.515  13.840  11.672
90238W        W55498   3.085  26.958  14.514
90239W        W55499  42.184   6.886  13.470
90240W        W55500   9.233  28.516   0.233
90241W        W55501  13.032  12.822   0.192
90242W        W55502  33.969  42.347   4.756
90243W        W55503  43.882  33.825  11.077
90244W        W55504  30.675  18.129   4.293
90245W        W55505  32.635  17.374  12.791
90246W        W55506  18.235   7.360  14.250
90247W        W55507   6.618   8.654  12.138
90248W        W55508  20.603   5.778  10.139
90249W        W55509  43.018  14.240  14.447
90250W        W55510  10.780  11.795  14.745
90251W        W55511  42.239  20.608  13.513
90252W        W55512  39.579  18.856  11.236
90253W        W55513   2.152  32.437   1.113
90254W        W55514  15.597  23.172  11.129
90255W        W55515  40.565  36.059   4.090
90256W        W55516  18.250   8.205   0.241
90257W        W55517  17.181  36.938   4.251
90258W        W55518  42.921  42.526   1.553
90259W        W55519  31.953  12.125   1.204
90260W        W55520  37.461  22.668  10.807
90261W        W55521  34.504  36.087  12.126
90262W        W55522  14.330  42.701  14.754
90263W        W55523   3.689   7.877   2.172
90264W        W55524  12.137  37.265   3.758
90265W        W55525  43.017   6.411   0.342
90266W        W55526   4.018  18.030  11.718
90267W        W55527  10.254  25.111   0.477
90268W        W55528   6.205  11.285   3.158
90269W        W55529  32.997   5.423   4.569
90270W        W55530   0.741  42.162  12.390
90271W        W55531  19.211   2.272   2.745
90272W        W55532   7.577  34.282   2.349
90273W        W55533   1.758  39.750  13.830
90274W        W55534  33.948  39.428   0.770
90275W        W55535   8.196  36.088  14.810
90276W        W55536  34.541   4.611   1.168
90277W        W55537  13.186  18.053   4.221
90278W        W55538  26.674   9.843   4.423
90279W        W55539  24.967  13.542  12.935
90280W        W55540   5.745  38.664  13.332
90281W        W55541  12.783   6.435  14.039
90282W        W55542  23.555  36.855  11.521
90283W        W55543   7.342   6.388   2.742
90284W        W55544  42.251  28.458  13.182
90285W        W55545  34.980  39.827  12.563
90286W        W55546  34.039  38.337  12.290
90287W        W55547  16.778  39.944  14.303
90288W        W55548  23.233  32.205   2.256
90289W        W55549   3.452  19.762  10.709
90290W        W55550  12.610   7.016   3.129
90291W        W55551  44.337  25.420  12.015
90292W        W55552  15.565  30.482   0.755
90293W        W55553   0.844  34.300  13.559
90294W        W55554  37.558  41.109  13.955
90295W        W55555  34.611  15.662  14.472
90296W        W55556   5.155   9.300   4.137
90297W        W55557   0.027  21.383  12.431
90298W        W55558   0.201   2.696   4.096
90299W        W55559  38.468  28.063   3.769
90300W        W55560  39.892  37.602   1.479
90301W        W55561  41.943  25.003   0.522
90302W        W55562  13.758  22.463  10.494
90303W        W55563  20.463  11.594  14.671
90304W        W55564  18.745  23.628  13.085
90305W        W55565  33.100  26.292  11.194
90306W        W55566   7.159  34.886   4.076
90307W        W55567  19.110  29.834   0.020
90308W        W55568   6.696   3.079   1.873
90309W        W55569   8.943  10.629   3.152
90310W        W55570  28.934  26.201   2.829
90311W        W55571  12.969  15.688   5.071
90312W        W55572  43.014  15.505   2.424
90313W        W55573   2.286  18.216  10.659
90314W        W55574  39.635   7.101  13.014
90315W        W55575   5.328  30.841  11.783
90316W        W55576  32.922  35.617  14.279
90317W        W55577  24.602   0.909   4.420
90318W        W55578  10.101   8.248   0.172
90319W        W55579  23.116  27.467  13.635
90320W        W55580  28.603  38.986  12.345
90321W        W55581  21.342   1.178   1.218
90322W        W55582   7.688   6.687  13.839
90323W        W55583  16.995  20.740   1.284
90324W        W55584  37.111   6.348  13.430
90325W        W55585  26.533  28.495  11.896
90326W        W55586   5.358  19.207  12.561
90327W        W55587  24.580  41.060   0.972
90328W        W55588  23.578  37.126   5.173
90329W        W55589  20.111   0.200   0.376
90330W        W55590  28.545  18.837   5.041
90331W        W55591   9.289  13.245  10.797
90332W        W55592  18.046  37.780   1.304
90333W        W55593  37.835  24.007  13.495
90334W        W55594   6.695  24.782  11.659
90335W        W55595  32.177  36.799   2.852
90336W        W55596  12.253  28.483  11.175
90337W        W55597  19.815  24.229   4.190
90338W        W55598  14.737   6.847  14.201
90339W        W55599  15.654  40.603  13.396
90340W        W55600  39.774   8.832  10.265
90341W        W55601  31.167  21.852   0.798
90342W        W55602  32.029   3.232   3.333
90343W        W55603  30.080   3.894   1.334
90344W        W55604  44.475  39.963   3.420
90345W        W55605  21.873  11.690  11.671
90346W        W55606  10.807  33.135   2.834
90347W        W55607   6.579  23.007  12.902
90348W        W55608   9.773  27.704  12.441
90349W        W55609  22.485  29.428  11.233
90350W        W55610  10.862  15.999   0.858
90351W        W55611   3.497  25.370  13.425
90352W        W55612  44.518  15.516   0.811
90353W        W55613  25.103  27.486   2.812
90354W        W55614  15.661  41.574  14.922
90355W        W55615   9.377  36.468   4.272
90356W        W55616  19.581  21.722  13.859
90357W        W55617  29.673   7.660   2.402
90358W        W55618  29.916  21.183   1.915
90359W        W55619  25.194  43.043  12.035
90360W        W55620  25.929   5.278  13.600
90361W        W55621  24.538  14.120  14.643
90362W        W55622  30.974  11.400   4.480
90363W        W55623  31.152   6.456  13.249
90364W        W55624  34.885  21.103   0.191
90365W        W55625  27.368  29.004   0.322
90366W        W55626  21.475  25.635  11.166
90367W        W55627   0.189  29.676  14.470
90368W        W55628  26.346  13.890   0.725
90369W        W55629  23.761   6.010   3.204
90370W        W55630   3.949  37.447  12.566
90371W        W55631  34.532  21.105  13.432
90372W        W55632  40.823  10.073   0.007
90373W        W55633  39.760  38.394   3.810
90374W        W55634  34.844  44.988   3.575
90375W        W55635  18.196  30.450   0.612
90376W        W55636  18.658   8.919  13.368
90377W        W55637  20.305  27.104  12.535
90378W        W55638  12.240  28.502   2.832
90379W        W55639  36.584  10.394   4.596
90380W        W55640  30.307  14.446   1.364
90381W        W55641  16.032   3.882  13.972
90382W        W55642  27.534  15.498  12.895
90383W        W55643   3.930  32.471   3.231
90384W        W55644   2.298  33.406   4.483
90385W        W55645  19.227  13.260   4.671
90386W        W55646   0.938   7.349  14.968
90387W        W55647  29.420   4.166   2.905
90388W        W55648  41.002   3.072   4.129
90389W        W55649  24.551  12.374  10.475
90390W        W55650   1.146  10.821   1.936
90391W        W55651  16.091   0.004   1.488
90392W        W55652  27.679  11.888  13.800
90393W        W55653  15.150   1.796   0.240
90394W        W55654   8.830  14.069  11.057
90395W        W55655  41.973  42.580  13.370
90396W        W55656  29.335   6.694   4.495
90397W        W55657  13.176  37.871   0.829
90398W        W55658   9.766  20.567   0.351
90399W        W55659  29.121   1.261  13.486
90400W        W55660  13.528  38.429  12.929
90401W        W55661  39.442  39.922   4.867
90402W        W55662  19.140   7.771   4.928
90403W        W55663  22.043  24.895   4.123
90404W        W55664  25.040  14.090  14.825
90405W        W55665  15.233  34.147   3.258
90406W        W55666  15.861  32.407  11.564
90407W        W55667  29.149  30.182  11.934
90408W        W55668  15.300  14.748   1.192
90409W        W55669  19.403  25.031   4.517
90410W        W55670  14.854  43.339  14.361
90411W        W55671  24.964  28.722   1.898
90412W        W55672   6.051  27.773  11.183
90413W        W55673  33.375  39.384   2.420
90414W        W55674  11.937  19.039  11.206
90415W        W55675  10.871   2.832  12.939
90416W        W55676   1.703  35.163  14.334
90417W        W55677  26.905  25.138  12.006
90418W        W55678  35.440  29.329   4.238
90419W        W55679  32.681   7.842   2.433
90420W        W55680  40.522  15.787  11.006
90421W        W55681   2.384   0.706   1.300
90422W        W55682  14.327  16.582   4.794
90423W        W55683  42.569  25.492   0.827
90424W        W55684  23.056  27.972   2.655
90425W        W55685  13.602   8.268   2.654
90426W        W55686  23.408  43.869   2.824
90427W        W55687  32.563   9.563   1.419
90428W        W55688  35.488  44.834   4.139
90429W        W55689  11.157  42.406   4.576
90430W        W55690  31.648   0.046   1.604
90431W        W55691  17.218  44.229  12.130
90432W        W55692  38.860  39.277  11.485
90433W        W55693  39.366  12.839  12.957
90434W        W55694  15.690  28.054  14.280
90435W        W55695  10.356  30.518   2.950
90436W        W55696  43.507  27.529  13.639
90437W        W55697  13.785   3.737   2.335
90438W        W55698   3.846  15.249   4.928
90439W        W55699  29.966  11.187  12.055
90440W        W55700  12.743   3.844  13.546
90441W        W55701  13.910  32.413   0.820
90442W        W55702  23.192  40.520  14.102
90443W        W55703   1.362  44.355   4.766
90444W        W55704   0.008  29.960  12.606
90445W        W55705  36.944  23.514  13.315
90446W        W55706  30.386  21.535  13.486
90447W        W55707  15.149  34.871   1.128
90448W        W55708   3.209  12.960  10.228
90449W        W55709  25.716  41.544  10.805
90450W        W55710   6.800  38.500   1.702
90451W        W55711  12.036  13.309  12.872
90452W        W55712  33.415  12.624  13.944
90453W        W55713   7.709  32.409   4.523
90454W        W55714  43.843  42.969   0.862
90455W        W55715  30.251  18.144   4.558
90456W        W55716  38.570  24.518   2.612
90457W        W55717  43.212  41.768   0.708
90458W        W55718  43.488  32.512   3.578
90459W        W55719  32.652  28.934   4.576
90460W        W55720  23.083  30.017  10.683
90461W        W55721  43.538   9.624  12.797
90462W        W55722  22.072  37.060  14.678
90463W        W55723   2.390  35.661   4.254
90464W        W55724  26.251  10.802   1.670
90465W        W55725  32.466  34.174   3.066
90466W        W55726  43.585  32.125   1.870
90467W        W55727  38.463  18.142   2.176
90468W        W55728   1.550  36.363  12.500
90469W        W55729  28.077   6.648   4.559
90470W        W55730   4.454  11.542  13.979
90471W        W55731  39.571  37.632  10.590
90472W        W55732  17.679  36.868   4.113
90473W        W55733   5.978  36.409   3.701
90474W        W55734   0.747  29.585   4.657
90475W        W55735  31.613   3.841  14.878
90476W        W55736  28.920  10.204  10.958
90477W        W55737  22.471  31.173   1.809
90478W        W55738  42.348  16.358  13.039
90479W        W55739  22.342  37.837  11.312
90480W        W55740  28.672  12.271   2.393
90481W        W55741  43.955   3.917  12.230
90482W        W55742  18.377   6.971   2.800
90483W        W55743   7.762  26.186  14.467
90484W        W55744   1.393  30.269   5.610
90485W        W55745  11.296   8.986   4.461
90486W        W55746   1.600   3.424  10.871
90487W        W55747  28.418  44.085  11.484
90488W        W55748  42.803   4.723  14.587
90489W        W55749  13.642   6.741   2.234
90490W        W55750  44.280  21.684  13.448
90491W        W55751   0.573  27.648   2.597
90492W        W55752  14.580  25.173   2.212
90493W        W55753  23.140  24.504  13.814
90494W        W55754  25.222  41.445  10.707
90495W        W55755  11.780  37.924   2.722
90496W        W55756   6.499   0.869  14.270
90497W        W55757  39.988  29.945  12.571
90498W        W55758   5.853  13.466  11.016
90499W        W55759  25.192  34.029  11.141
90500W        W55760  22.558  43.766  13.064
90501W        W55761   0.873   1.680   2.141
90502W        W55762  32.279  26.702   2.699
90503W        W55763  29.585   3.332   2.666
90504W        W55764  16.653   8.688   1.851
90505W        W55765  30.203  35.674   0.307
90506W        W55766  22.245  16.461   3.220
90507W        W55767  40.067  38.943   3.142
90508W        W55768  40.298  15.768   1.163
90509W        W55769  16.872  23.593   1.367
90510W        W55770  37.533  18.046  12.011
90511W        W55771   9.570  42.096  11.365
90512W        W55772  14.332   2.944   3.859
90513W        W55773  22.772   2.251  12.088
90514W        W55774  25.518  20.309  11.851
90515W        W55775   5.886   2.735   4.406
90516W        W55776  44.169  18.581   3.322
90517W        W55777  31.660   6.482  13.406
90518W        W55778  13.268  34.792   2.419
90519W        W55779  30.472  39.526   1.323
90520W        W55780   0.411  21.073  12.303
90521W        W55781   2.276  43.776   2.831
90522W        W55782  40.976  11.595  12.030
90523W        W55783  38.918   0.871   4.021
90524W        W55784  14.788  10.930  10.622
90525W        W55785  24.976  12.061  10.987
90526W        W55786  17.399  27.134   0.170
90527W        W55787  37.498  34.369   1.325
90528W        W55788  14.680  33.914  14.020
90529W        W55789  16.114  20.987  12.858
90530W        W55790   8.801  32.040   3.734
90531W        W55791  43.394  32.469   4.596
90532W        W55792  14.627  15.759  14.961
90533W        W55793   9.795  38.764   1.036
90534W        W55794   2.056  34.118   2.213
90535W        W55795  33.093   7.866   2.837
90536W        W55796  15.665   1.917   3.833
90537W        W55797  18.920  43.379  11.151
90538W        W55798  11.125   3.478   3.729
90539W        W55799  36.995  20.164  11.022
90540W        W55800  16.242  20.435  13.741
90541W        W55801  19.248   1.890  13.485
90542W        W55802  42.938   0.298   1.341
90543W        W55803  44.354  36.575  13.948
90544W        W55804   5.857  24.804  12.407
90545W        W55805  38.077  29.976   0.852
90546W        W55806  18.267  11.873  11.156
90547W        W55807  12.030  37.037   0.179
90548W        W55808   6.943  20.260  11.886
90549W        W55809   2.297   2.068   4.062
90550W        W55810  30.984  22.485   1.944
90551W        W55811  32.567  33.512  14.528
90552W        W55812  40.719   9.840  12.391
90553W        W55813  38.757  15.397  10.211
90554W        W55814  44.899   9.937  14.954
90555W        W55815  38.080  38.753  14.032
90556W        W55816  38.654  42.991   0.059
90557W        W55817  40.711  22.653  12.182
90558W        W55818  35.023  10.795   3.201
90559W        W55819  31.593  44.294  13.798
90560W        W55820  40.807   0.564   3.324
90561W        W55821   0.907  37.030   4.171
90562W        W55822   4.006  31.691  13.375
90563W        W55823   5.930  23.626   0.753
90564W        W55824   5.405   6.732  12.948
90565W        W55825  13.680  17.635   0.580
90566W        W55826  39.100  13.388   1.691
90567W        W55827  34.648   7.968   3.898
90568W        W55828  30.925   6.160   1.373
90569W        W55829  31.657  42.726   4.293
90570W        W55830  37.545  21.038  14.349
90571W        W55831   6.291   1.069   2.304
90572W        W55832  31.064  22.049   4.307
90573W        W55833  17.885  17.169   3.187
90574W        W55834  23.111  23.105  12.377
90575W        W55835   8.233  22.733   4.087
90576W        W55836  32.937  24.097  10.867
90577W        W55837  14.074   1.048   1.206
90578W        W55838  17.503  14.866   3.779
90579W        W55839  21.508  39.336  12.213
90580W        W55840   8.412  27.745  13.529
90581W        W55841  31.985  16.736  14.532
90582W        W55842  32.800   9.726   4.475
90583W        W55843   5.914  31.363  10.725
90584W        W55844  21.815  16.832  12.962
90585W        W55845  31.480  27.246  11.060
90586W        W55846   2.064  16.138   0.353
90587W        W55847  19.592  42.743  12.961
90588W        W55848  28.562  37.555  14.147
90589W        W55849  38.361  29.419   3.363
90590W        W55850  23.916  27.630  12.082
90591W        W55851  43.383  15.240   0.377
90592W        W55852  21.735  27.610  13.229
90593W        W55853   6.720  27.637   3.263
90594W        W55854  44.365  34.815  14.482
90595W        W55855  40.162   1.339  12.823
90596W        W55856   6.661  17.204   2.810
90597W        W55857  15.737  44.411   4.443
90598W        W55858   1.080  41.441  14.532
90599W        W55859   5.842  26.540  12.641
90600W        W55860  36.533  38.401   4.103
90601W        W55861  28.602   3.496   1.471
90602W        W55862  35.269  20.929   2.209
90603W        W55863  20.784  10.270  10.317
90604W        W55864  37.124  24.309   1.281
90605W        W55865  28.147  33.962  11.272
90606W        W55866  41.883  26.960   0.755
90607W        W55867  31.201   8.284   4.194
90608W        W55868  34.067   3.587  13.246
90609W        W55869  28.657  15.482  13.963
90610W        W55870  28.515  14.068   4.385
90611W        W55871  21.973  28.705  13.835
90612W        W55872   6.934  10.890  12.546
90613W        W55873   7.345   2.932   2.413
90614W        W55874   0.436  23.753   0.390
90615W        W55875   3.902  16.212   2.899
90616W        W55876  24.275  15.206   1.923
90617W        W55877  27.586  43.270  14.263
90618W        W55878  29.781  23.054   1.901
90619W        W55879  31.041  14.390   1.658
90620W        W55880  29.071  32.156   4.031
90621W        W55881  37.547  35.032   5.169
90622W        W55882   1.302  28.631   0.590
90623W        W55883  43.287  14.357   3.010
90624W        W55884  27.200   3.375   0.869
90625W        W55885  25.586  26.648  10.600
90626W        W55886  34.168  29.858   2.666
90627W        W55887  16.771   4.742   3.844
90628W        W55888  23.008  34.062  11.966
90629W        W55889  15.531   0.972   1.046
90630W        W55890  14.321  20.620  14.308
90631W        W55891   2.222  32.573   0.568
90632W        W55892  22.817  36.321   0.349
90633W        W55893  13.298  37.044   1.500
90634W        W55894  20.036   5.884   2.666
90635W        W55895  16.592  24.032   4.090
90636W        W55896  25.434  31.261   1.751
90637W        W55897  10.737  36.858   1.884
90638W        W55898  36.991  24.511   0.042
90639W        W55899  42.364  40.146  10.647
90640W        W55900  30.799  11.189  13.599
90641W        W55901  26.125  38.572  12.077
90642W        W55902  38.392  21.555   3.421
90643W        W55903  13.188  19.925  14.004
90644W        W55904  21.080   5.417   2.300
90645W        W55905   3.084  37.334   3.791
90646W        W55906   7.858  40.321   0.369
90647W        W55907  34.850  29.955   4.595
90648W        W55908  18.618   4.863  14.535
90649W        W55909  39.338  27.808  13.069
90650W        W55910  40.762  14.748  14.300
90651W        W55911  29.219  33.528  14.360
90652W        W55912  31.183  35.091   1.129
90653W        W55913  27.049  28.460  11.878
90654W        W55914  39.350   4.652   4.125
90655W        W55915  25.430   0.562  11.564
90656W        W55916  13.934   7.976   9.817
90657W        W55917  24.435   9.136  13.052
90658W        W55918  40.022  19.737  13.282
90659W        W55919   0.372  44.027  10.735
90660W        W55920  38.028   6.213  13.874
90661W        W55921  41.861  33.132  12.995
90662W        W55922  18.995  14.884   2.791
90663W        W55923  18.515  40.388  13.478
90664W        W55924   4.118   3.849   0.513
90665W        W55925  22.991  16.489   3.878
90666W        W55926  43.304  37.133   3.174
90667W        W55927   9.166  28.564   4.029
90668W        W55928   0.776  24.263   0.073
90669W        W55929  16.671  31.909   3.546
90670W        W55930  12.795   7.496   3.223
90671W        W55931  24.342   6.643   4.934
90672W        W55932  17.594  14.500   4.214
90673W        W55933  42.786  36.394   0.839
90674W        W55934   5.430  36.533  14.957
90675W        W55935  40.921  28.629  12.929
90676W        W55936   5.893  43.262   4.200
90677W        W55937   4.144   2.624   4.205
90678W        W55938  38.215  43.682  14.979
90679W        W55939  29.642  40.050  10.586
90680W        W55940   8.344   8.331  14.430
90681W        W55941  36.947  29.039   2.393
90682W        W55942  33.243   5.863   3.082
90683W        W55943   1.581  15.241   5.113
90684W        W55944  18.818  15.559   1.340
90685W        W55945   4.988  20.079  11.125
90686W        W55946  21.293  43.528  13.589
90687W        W55947  20.705  26.054  12.650
90688W        W55948   4.414  31.545  10.608
90689W        W55949  35.972  16.301   2.704
90690W        W55950  38.368  26.123   4.608
90691W        W55951  25.084  37.949   4.189
90692W        W55952  22.502   8.134  10.717
90693W        W55953  25.636  31.499   4.666
90694W        W55954  21.778  33.433   3.264
90695W        W55955  27.068  11.648  12.502
90696W        W55956  23.284  30.110   1.490
90697W        W55957  32.964  37.520  11.952
90698W        W55958   7.424   6.830   2.354
90699W        W55959  27.936  10.765   4.682
90700W        W55960  22.913  35.416   1.776
90701W        W55961  30.967  39.918   3.047
90702W        W55962  22.446  16.651   0.237
90703W        W55963  42.901   0.983  14.483
90704W        W55964  24.026  14.228   1.382
90705W        W55965  34.857   8.344   0.891
90706W        W55966   7.721  16.160  11.976
90707W        W55967  41.893  39.830  12.523
90708W        W55968   1.468  17.366   2.916
90709W        W55969  23.337  14.257  10.472
90710W        W55970  41.868  37.257   4.185
90711W        W55971  34.764  19.072   0.961
90712W        W55972  37.866  37.712  13.902
90713W        W55973  17.697  15.765  11.568
90714W        W55974  19.593  23.921   3.837
90715W        W55975   4.808  21.446  13.373
90716W        W55976  15.148  18.102   1.203
90717W        W55977  18.937  44.388  13.783
90718W        W55978  26.635   5.466   2.743
90719W        W55979  27.945  24.565  13.930
90720W        W55980   3.272  23.571   2.910
90721W        W55981  24.136  19.995   0.530
90722W        W55982  17.225  23.323  10.257
90723W        W55983  21.745  29.640  10.678
90724W        W55984   0.790   3.269  12.718
90725W        W55985  17.056  36.983  10.444
90726W        W55986  44.553  24.039   0.725
90727W        W55987   8.322  13.839  13.498
90728W        W55988   9.966   0.685  11.180
90729W        W55989   9.464  24.574  10.295
90730W        W55990   2.254   4.956   1.741
90731W        W55991  40.893  30.692   3.345
90732W        W55992  38.514  25.663  14.999
90733W        W55993  16.233  13.164   0.482
90734W        W55994   7.674  37.305   1.252
90735W        W55995  34.959  28.734  14.718
90736W        W55996  13.499  26.526  13.362
90737W        W55997  30.676  12.345  11.954
90738W        W55998  30.917   1.540   2.372
90739W        W55999  42.808  22.866   0.490
90740W        W56000  16.822  32.054  11.126
90741W        W56001  19.594  27.543  10.361
90742W        W56002  29.883  24.209  14.743
90743W        W56003  43.669   1.958   4.828
90744W        W56004   9.252   7.291  13.993
90745W        W56005   6.922   2.388  13.872
90746W        W56006  40.646  20.181  13.489
90747W        W56007  31.379   4.397   4.382
90748W        W56008   7.271  17.258   4.115
90749W        W56009  14.232  40.435   3.869
90750W        W56010  21.711  37.128  10.225
90751W        W56011  21.609  36.520   2.732
90752W        W56012  20.513  14.274  13.921
90753W        W56013   7.742  30.346  14.111
90754W        W56014  19.938   5.275   4.634
90755W        W56015  38.302  24.207   3.384
90756W        W56016  31.118   1.471   1.378
90757W        W56017  44.313  33.202   2.825
90758W        W56018   3.228  22.785   0.307
90759W        W56019  16.157  26.419  14.105
90760W        W56020   3.366  30.113   4.297
90761W        W56021  24.659  44.427  13.238
90762W        W56022  12.697  15.693  13.962
90763W        W56023  33.658  41.876  12.882
90764W        W56024   9.745  39.593  14.022
90765W        W56025  25.915  38.140   1.293
90766W        W56026  10.424   3.163  11.396
90767W        W56027  39.833  31.446   2.594
90768W        W56028  36.862  32.967   3.845
90769W        W56029  40.433  17.541  10.395
90770W        W56030  14.179  10.345   3.598
90771W        W56031  12.512  43.209   0.409
90772W        W56032  34.279  41.271   0.393
90773W        W56033  37.499  31.631   2.684
90774W        W56034  41.566  42.236  13.314
90775W        W56035  14.098  13.198   4.016
90776W        W56036  30.097  35.932  10.984
90777W        W56037  34.261  10.373   0.255
90778W        W56038   1.311  14.222  13.260
90779W        W56039   0.078   8.603   1.073
90780W        W56040  29.924   4.162   2.665
90781W        W56041  25.037  20.672  12.537
90782W        W56042  36.417   2.601  10.252
90783W        W56043  22.729  20.294  13.332
90784W        W56044   7.557  14.268   3.660
90785W        W56045  30.063  29.412  12.653
90786W        W56046  13.231  35.756   4.658
90787W        W56047  42.742  18.118   0.382
90788W        W56048  25.944  13.154  10.700
90789W        W56049  38.882  18.780  12.319
90790W        W56050  27.536  40.142  12.013
90791W        W56051  14.330  35.900  14.491
90792W        W56052  22.812   1.855  14.324
90793W        W56053   6.608   6.357   4.493
90794W        W56054  22.777  24.281   2.348
90795W        W56055  12.699  32.665   3.708
90796W        W56056  11.563  28.133  14.276
90797W        W56057  30.761  23.437  11.600
90798W        W56058  23.054   2.950   1.261
90799W        W56059   3.444  21.118  10.890
90800W        W56060   6.830   6.875  13.747
90801W        W56061   1.394  18.724   0.538
90802W        W56062  12.188  24.022  11.616
90803W        W56063  41.187  36.024  14.080
90804W        W56064   9.202  23.199   1.957
90805W        W56065   4.103   9.162   0.889
90806W        W56066  32.395  40.255  11.665
90807W        W56067   9.587  30.099   0.493
90808W        W56068  27.626  31.073  13.779
90809W        W56069  28.686   6.391  12.883
90810W        W56070  13.458  27.050   0.423
90811W        W56071  10.059  20.521   1.655
90812W        W56072  16.862   9.179  14.281
90813W        W56073  18.439   3.225   1.146
90814W        W56074  16.138  33.513  12.032
90815W        W56075  24.356  21.786  12.982
90816W        W56076   0.658  44.917   3.967
90817W        W56077  13.117  42.409   2.796
90818W        W56078  22.635  15.293   1.722
90819W        W56079  23.911   1.406   0.542
90820W        W56080  24.178  43.742  10.682
90821W        W56081   6.183  13.733  10.600
90822W        W56082  31.586  40.192   1.737
90823W        W56083  43.133   2.013   3.154
90824W        W56084  39.556  31.989  12.437
90825W        W56085  22.021  17.601   1.901
90826W        W56086  44.057  42.739   1.286
90827W        W56087  26.679  19.798   1.755
90828W        W56088  37.960  15.532   1.675
90829W        W56089  10.193  44.354   9.806
90830W        W56090  41.889  12.654  14.484
90831W        W56091   8.355  20.228   4.880
90832W        W56092   1.451  20.277   0.339
90833W        W56093  34.640  39.117   0.805
90834W        W56094   2.366  30.857   3.629
90835W        W56095  13.636   0.542  11.149
90836W        W56096  42.631  39.873  12.898
90837W        W56097  22.095   6.393   3.536
90838W        W56098  22.658  39.909   4.730
90839W        W56099   9.173  31.541  12.247
90840W        W56100   1.455  42.042   1.313
90841W        W56101  40.851  26.441  10.655
90842W        W56102  21.511   3.240   4.220
90843W        W56103  21.384  23.800  14.032
90844W        W56104   6.304  33.902   1.206
90845W        W56105   7.446  27.727  11.566
90846W        W56106  16.811  43.526  14.821
90847W        W56107  39.271  26.112   2.856
90848W        W56108  37.833  44.843   1.840
90849W        W56109  20.843   9.222   1.055
90850W        W56110  28.765  20.617  14.479
90851W        W56111  10.855  33.005   1.452
90852W        W56112  11.300   0.806  10.759
90853W        W56113  38.407  21.819   1.915
90854W        W56114   0.417  15.203   4.786
90855W        W56115  41.435  23.231  12.146
90856W        W56116  28.568  26.242   1.775
90857W        W56117  37.106  28.404  12.388
90858W        W56118  27.895  16.016  12.566
90859W        W56119  34.099  43.272   1.880
90860W        W56120  33.557  21.972   4.435
90861W        W56121  11.182  21.331  10.593
90862W        W56122  20.203  10.363  12.089
90863W        W56123   8.183  42.003   3.652
90864W        W56124  29.534  10.556  12.439
90865W        W56125   2.313   7.360   1.359
90866W        W56126  40.402  10.809   2.175
90867W        W56127  19.793   0.185  12.011
90868W        W56128  27.237  34.453   4.317
90869W        W56129  28.572  32.630  10.617
90870W        W56130  25.785  13.047  14.291
90871W        W56131   9.805   5.457   2.699
90872W        W56132  13.432   7.820  10.001
90873W        W56133  17.642  27.161  11.594
90874W        W56134  11.908  41.868   4.908
90875W        W56135  41.185  26.003  12.963
90876W        W56136  21.294  26.194  14.537
90877W        W56137  37.450  22.543   2.072
90878W        W56138  13.020  31.319   0.042
90879W        W56139  36.015  16.181   1.201
90880W        W56140  41.585   4.955  12.881
90881W        W56141   1.204  20.199   4.719
90882W        W56142  31.001  19.449   2.793
90883W        W56143  15.251  22.137   2.818
90884W        W56144  12.940  17.219   1.253
90885W        W56145  24.972  26.732  13.648
90886W        W56146  20.791  38.874  11.419
90887W        W56147  42.223  29.053   3.728
90888W        W56148  39.566  13.326   4.511
90889W        W56149  19.510   9.591   2.248
90890W        W56150  41.021  43.380   0.962
90891W        W56151  37.873  20.617  14.410
90892W        W56152   8.278  42.041   2.822
90893W        W56153  20.107   1.778  13.932
90894W        W56154  37.580  27.079  14.920
90895W        W56155  42.930  29.880  14.726
90896W        W56156  12.084  12.128   1.830
90897W        W56157  30.597  21.093   2.576
90898W        W56158  29.108  37.580   4.372
90899W        W56159  41.300  12.757   1.855
90900W        W56160  36.061  24.433  13.906
90901W        W56161  20.424  44.299   3.184
90902W        W56162   9.562  21.380   4.034
90903W        W56163  36.033  21.264  12.489
90904W        W56164   5.514   4.860  14.795
90905W        W56165  13.627   9.433  13.240
90906W        W56166  43.457  19.185   1.916
90907W        W56167  35.363  34.638   0.439
90908W        W56168  32.930  17.818   0.869
90909W        W56169  28.202  11.410   3.443
90910W        W56170  11.231  29.217  12.626
90911W        W56171   4.339  26.646  12.438
90912W        W56172  38.751  33.618  13.602
90913W        W56173  20.688  19.130   1.872
90914W        W56174  44.311  21.435  14.830
90915W        W56175  23.379  12.395  11.198
90916W        W56176  10.125   4.909   0.903
90917W        W56177  10.077   3.693   4.692
90918W        W56178  28.072  10.700  14.083
90919W        W56179  36.907  17.967   2.396
90920W        W56180  41.289  17.358  11.249
90921W        W56181   6.238  26.616   4.950
90922W        W56182  16.852  11.107  11.822
90923W        W56183   3.360  18.319  13.973
90924W        W56184  20.805  43.591   4.221
90925W        W56185   5.232  33.392   4.358
90926W        W56186   2.061  44.462   2.365
90927W        W56187   1.182  30.601  11.629
90928W        W56188  19.475  26.055  11.022
90929W        W56189  14.289   6.173   0.691
90930W        W56190  40.134  35.384   2.767
90931W        W56191  14.191   2.934   2.424
90932W        W56192  26.279  36.101  11.416
90933W        W56193  29.036  17.189   4.613
90934W        W56194  43.135  30.069  14.303
90935W        W56195  39.880  32.578   3.141
90936W        W56196  21.046  15.027   1.345
90937W        W56197  41.128  40.495   2.630
90938W        W56198   7.113   6.227   1.125
90939W        W56199  41.987  19.727  12.429
90940W        W56200  13.708  11.764   4.480
90941W        W56201   4.598  30.147  11.076
90942W        W56202  29.606  42.993  12.587
90943W        W56203  36.105   4.479  11.508
90944W        W56204  24.706   1.729  12.487
90945W        W56205  36.476  14.575   3.234
90946W        W56206  28.453  42.422  12.417
90947W        W56207  38.944   1.735   0.953
90948W        W56208  27.018  10.622   2.361
90949W        W56209  19.638  38.330  12.044
90950W        W56210   0.773  35.370   4.633
90951W        W56211  11.199   5.684  10.268
90952W        W56212  43.540  37.578   3.820
90953W        W56213   8.670  18.170   4.417
90954W        W56214   6.915  34.342   3.731
90955W        W56215   5.919  32.169  13.905
90956W        W56216  34.846   4.861   4.671
90957W        W56217   7.255  21.587   0.453
90958W        W56218  40.323  19.796  12.170
90959W        W56219  11.664  11.767   1.464
90960W        W56220  17.720  38.994   9.969
90961W        W56221   5.229   6.351   3.102
90962W        W56222  22.141  10.298  11.228
90963W        W56223  44.015   6.334   2.222
90964W        W56224  43.996   1.758  12.509
90965W        W56225  20.288  40.835  13.762
90966W        W56226   7.903   2.346   3.597
90967W        W56227   5.849  22.130   0.393
90968W        W56228  25.203  30.606  10.430
90969W        W56229  31.108  13.136  12.013
90970W        W56230  31.039  43.766   1.693
90971W        W56231  41.836  35.994   2.908
90972W        W56232  18.507  28.510   3.007
90973W        W56233  38.843  39.456   1.265
90974W        W56234  26.165  12.258   2.360
90975W        W56235  23.205  32.810   3.299
90976W        W56236  27.768  16.893   0.043
90977W        W56237   6.620  13.182   3.147
90978W        W56238   9.093  39.801   4.593
90979W        W56239   4.849  18.780   4.564
90980W        W56240  30.110  35.688  12.350
90981W        W56241  32.890  40.273  12.889
90982W        W56242  16.317   6.889   1.513
90983W        W56243  31.673  34.658  12.301
90984W        W56244  41.585  27.445   3.241
90985W        W56245  25.209  40.957   1.404
90986W        W56246  22.150  22.671  11.224
90987W        W56247  33.000  13.459   3.036
90988W        W56248  13.306  17.152  11.938
90989W        W56249  33.623   8.814  13.861
90990W        W56250  11.721   9.648  14.451
90991W        W56251   8.263  44.694  12.952
90992W        W56252  18.210  14.897  12.521
90993W        W56253  35.349  30.021   3.236
90994W        W56254  28.516   8.205   1.863
90995W        W56255  17.524  23.605  14.231
90996W        W56256  23.204   0.665  11.471
90997W        W56257  29.470  25.811   9.591
90998W        W56258  40.887  43.960   0.400
90999W        W56259  35.636  31.498   2.325
91000W        W56260   5.438  14.794  14.620
91001W        W56261  26.622  37.329   0.438
91002W        W56262  19.227  39.878   1.463
91003W        W56263   8.659  30.829  12.393
91004W        W56264   1.457  30.584   4.147
91005W        W56265  14.209  25.888   0.008
91006W        W56266  37.592   3.763   3.187
91007W        W56267  34.459  28.565   1.759
91008W        W56268  14.122  25.587  14.441
91009W        W56269   8.563   0.600  12.421
91010W        W56270   4.244  24.305  11.568
91011W        W56271  18.232  34.359   3.594
91012W        W56272  25.855   9.956   2.099
91013W        W56273  13.160  35.026   1.138
91014W        W56274   7.372  12.168  12.736
91015W        W56275  36.455  28.500  13.622
91016W        W56276  38.114  38.901  14.941
91017W        W56277  43.065  29.874   4.285
91018W        W56278  26.661  24.729  12.214
91019W        W56279   1.625  34.396  12.876
91020W        W56280  24.854  17.028   2.816
91021W        W56281  35.163  35.960   3.244
91022W        W56282  14.275  28.148   1.832
91023W        W56283  18.009  40.910   3.558
91024W        W56284   3.909  33.334   2.394
91025W        W56285  31.213  18.007   1.673
91026W        W56286  31.651  22.199  13.380
91027W        W56287  19.251   1.814  10.483
91028W        W56288  14.808  35.176  13.422
91029W        W56289  17.339   5.512  10.732
91030W        W56290  21.822  26.087  11.097
91031W        W56291  36.583   0.026  11.162
91032W        W56292  10.706  36.358   0.290
91033W        W56293   0.829   3.240  14.083
91034W        W56294   0.706  25.425   3.085
91035W        W56295  22.952  15.209   1.302
91036W        W56296  44.381   9.581  13.487
91037W        W56297  13.048  24.894   4.152
91038W        W56298   7.201  38.549   2.316
91039W        W56299   5.657  31.361  11.182
91040W        W56300  37.605  41.823   2.811
91041W        W56301  34.032  17.201   9.947
91042W        W56302   9.230  17.833   0.970
91043W        W56303  42.108   3.967   2.101
91044W        W56304  10.638  38.964  14.413
91045W        W56305   5.465  24.528  10.196
91046W        W56306  18.661   1.431  13.031
91047W        W56307  32.978  12.858  14.822
91048W        W56308   2.275  33.377   2.806
91049W        W56309  31.760   9.653  11.729
91050W        W56310  34.107   9.683   4.105
91051W        W56311  13.565   9.338   3.337
91052W        W56312  31.961  13.712  14.973
91053W        W56313  38.561  24.217   4.307
91054W        W56314  16.759  17.530  13.568
91055W        W56315  12.562  44.507  14.406
91056W        W56316  21.814  22.285   2.866
91057W        W56317  32.191  10.530   0.418
91058W        W56318  11.796   0.994  13.936
91059W        W56319  41.971  22.452  12.361
91060W        W56320   4.548  32.590  12.103
91061W        W56321   1.488   1.140   2.363
91062W        W56322  29.654  28.451  14.372
91063W        W56323   6.765   6.174   4.976
91064W        W56324   3.486  33.158   2.139
91065W        W56325  12.681   8.691   0.377
91066W        W56326  22.535  44.081   0.396
91067W        W56327  21.130  34.142   4.139
91068W        W56328   1.504  30.140  12.410
91069W        W56329  11.945  44.286   0.301
91070W        W56330  17.635  29.868   0.787
91071W        W56331   6.016  25.821  11.050
91072W        W56332  20.179   5.019  12.438
91073W        W56333  30.756   2.044  12.878
91074W        W56334  38.016  11.681   2.416
91075W        W56335  30.182  16.708  14.391
91076W        W56336  15.082   1.167   2.656
91077W        W56337  11.996  34.377  12.321
91078W        W56338  16.153   7.532  13.018
91079W        W56339   9.431  31.128   5.607
91080W        W56340   4.341  39.053   0.076
91081W        W56341  32.086   0.244  11.686
91082W        W56342  25.274  23.551  14.890
91083W        W56343  16.336  29.739  14.741
91084W        W56344   1.916  24.960   2.281
91085W        W56345  33.657  42.352  13.535
91086W        W56346   6.344  41.964   1.443
91087W        W56347  42.834   3.308  14.918
91088W        W56348  23.067  14.578   1.895
91089W        W56349  13.804  18.607  14.092
91090W        W56350  41.904  24.069   1.640
91091W        W56351  20.138  41.482   0.483
91092W        W56352  31.072   3.925  13.877
91093W        W56353  44.743   7.384   1.353
91094W        W56354  15.014  38.357   4.666
91095W        W56355  14.179  13.904   2.719
91096W        W56356  11.669  33.555  14.953
91097W        W56357   9.471  11.371  14.747
91098W        W56358  34.415  20.669  13.974
91099W        W56359   9.873  29.132   3.341
91100W        W56360  10.794  10.913   3.729
91101W        W56361  22.693  16.576   2.609
91102W        W56362  15.115  20.292  10.627
91103W        W56363  43.338   6.648  11.977
91104W        W56364   2.341   4.801  12.989
91105W        W56365   9.400  25.605   2.311
91106W        W56366  18.477  38.044   2.472
91107W        W56367  37.119  12.460   1.331
91108W        W56368  11.797   8.838   0.240
91109W        W56369  11.343  18.027  13.574
91110W        W56370   9.643  35.201   0.260
91111W        W56371   3.025  24.298   4.943
91112W        W56372   6.379   3.211   4.104
91113W        W56373   6.316   9.969   3.076
91114W        W56374  16.109   6.085  13.535
91115W        W56375  41.088  25.288   3.705
91116W        W56376  35.991   1.256  14.297
91117W        W56377  21.765   4.182   1.379
91118W        W56378  15.095  43.334   1.244
91119W        W56379  22.540  12.271  12.954
91120W        W56380   2.458   5.412   3.944
91121W        W56381  27.591  38.141  11.067
91122W        W56382  32.992   3.321  10.635
91123W        W56383  16.891  33.328  14.558
91124W        W56384   2.793  20.423   3.779
91125W        W56385  39.724  24.543  14.819
91126W        W56386  38.070  14.402   0.630
91127W        W56387  18.112  11.152  10.666
91128W        W56388  14.519  21.729   9.781
91129W        W56389  34.370  10.866  10.422
91130W        W56390  43.984  39.434   4.499
91131W        W56391  11.352  28.675  12.563
91132W        W56392  24.164  38.504  14.737
91133W        W56393  44.107  44.330  10.300
91134W        W56394   4.203  23.299  12.464
91135W        W56395  12.153  34.085   1.321
91136W        W56396  11.276   2.264  10.741
91137W        W56397  13.633  35.429   4.597
91138W        W56398  25.030  28.022   5.086
91139W        W56399  31.104  43.703   3.178
91140W        W56400   5.446  37.447   3.531
91141W        W56401   0.220  35.573   2.475
91142W        W56402   7.335  40.096   4.080
91143W        W56403  40.906  10.825  14.003
91144W        W56404   2.378  25.505   3.783
91145W        W56405  10.351  27.380  10.130
91146W        W56406  26.206  37.280  13.064
91147W        W56407  34.504  13.892  11.454
91148W        W56408   5.466   7.710   3.744
91149W        W56409   7.440  39.519  12.788
91150W        W56410  13.752  25.637  11.342
91151W        W56411  18.034  27.563  14.728
91152W        W56412  23.991  27.207   3.658
91153W        W56413   9.330  23.671   0.994
91154W        W56414  38.629  25.239  14.720
91155W        W56415  38.317  31.018  12.163
91156W        W56416  35.543  41.763  10.723
91157W        W56417  35.895  10.134   2.793
91158W        W56418   3.183  18.725   0.766
91159W        W56419  24.962  38.999   3.317
91160W        W56420  38.953  15.653  13.878
91161W        W56421  21.114   0.507  11.002
91162W        W56422  39.131  38.412  10.719
91163W        W56423  10.316  33.248   1.454
91164W        W56424  36.604  20.566  14.838
91165W        W56425  27.131  21.279  14.096
91166W        W56426   5.784  24.112  14.138
91167W        W56427  22.630   2.564  11.237
91168W        W56428  44.687  36.997   1.008
91169W        W56429  14.656  31.410  12.598
91170W        W56430  17.534  29.675  12.765
91171W        W56431  25.105   4.250   5.213
91172W        W56432   3.337  26.659   1.687
91173W        W56433  26.505  23.619  14.539
91174W        W56434   0.309  18.977   2.784
91175W        W56435  21.771   8.911  12.308
91176W        W56436  19.685  26.408   2.278
91177W        W56437  11.280  28.986   2.752
91178W        W56438  22.746   9.861   2.796
91179W        W56439  39.322  30.829   0.364
91180W        W56440  34.332  25.143  14.751
91181W        W56441   4.740  11.753   3.647
91182W        W56442  22.374  42.692   3.951
91183W        W56443   3.299  37.074   2.619
91184W        W56444  36.877  30.608   2.532
91185W        W56445  41.412  15.535  10.795
91186W        W56446  12.773  16.130   3.605
91187W        W56447   7.936  19.464   2.604
91188W        W56448   1.772  35.991  11.179
91189W        W56449   1.199  25.535   0.704
91190W        W56450   3.818  37.855   2.985
91191W        W56451  29.181  35.728  13.958
91192W        W56452  22.743  37.841  13.034
91193W        W56453  30.150  25.179  14.509
91194W        W56454  25.344   3.784   4.488
91195W        W56455   0.449  37.286   3.888
91196W        W56456  41.999  21.216  10.783
91197W        W56457  25.270  20.198   2.406
91198W        W56458  12.110  10.523  11.903
91199W        W56459   8.768  12.332  14.062
91200W        W56460  37.460  25.077  14.347
91201W        W56461  17.456  24.043  14.507
91202W        W56462   0.332  33.115   3.716
91203W        W56463  14.791   1.758  11.951
91204W        W56464   3.952  37.888   4.443
91205W        W56465  21.914  12.352   4.426
91206W        W56466   8.296   0.414  13.832
91207W        W56467  43.859   3.583  13.934
91208W        W56468  23.308   3.340  13.805
91209W        W56469  41.489  19.372   2.893
91210W        W56470   8.448  36.059  13.811
91211W        W56471  21.602   9.283   4.546
91212W        W56472  15.246  18.701   1.383
91213W        W56473  40.307  35.792  13.902
91214W        W56474  17.529   9.781   0.736
91215W        W56475  13.174  27.646  11.375
91216W        W56476  21.518  22.064   4.020
91217W        W56477  16.849  35.128  14.323
91218W        W56478  27.995  37.093   3.276
91219W        W56479  26.925   3.761   2.374
91220W        W56480  40.286   5.832  13.917
91221W        W56481  32.169  16.684   4.104
91222W        W56482  30.005  10.279  12.078
91223W        W56483  23.163   7.201  10.706
91224W        W56484  39.025   9.350   4.153
91225W        W56485   4.790  44.856  10.743
91226W        W56486  43.871  42.947   3.259
91227W        W56487  21.020  21.977  11.215
91228W        W56488  43.157  37.656  10.222
91229W        W56489  38.947  38.849   0.274
91230W        W56490  30.240  23.268   1.667
91231W        W56491  12.330   0.307   0.804
91232W        W56492  20.527   0.035   1.175
91233W        W56493   2.756  21.039  10.668
91234W        W56494  14.414  41.513  10.545
91235W        W56495  10.871  20.782  12.556
91236W        W56496  10.388  30.959   3.271
91237W        W56497  12.642  40.950  14.376
91238W        W56498  34.262   0.943   2.691
91239W        W56499  13.742  11.205  14.574
91240W        W56500   7.028  19.610  12.533
91241W        W56501  15.778  12.985   3.680
91242W        W56502  27.370  31.422   0.969
91243W        W56503  28.176  13.238  11.446
91244W        W56504  41.220  27.018   1.347
91245W        W56505  40.530  38.501  11.686
91246W        W56506  32.201  20.223   1.415
91247W        W56507  20.827  25.678  13.575
91248W        W56508  24.267  10.739  14.971
91249W        W56509   1.742  24.347  10.834
91250W        W56510  16.676  12.668  12.069
91251W        W56511  36.939  39.453   1.700
91252W        W56512  32.614  16.191   1.833
91253W        W56513  18.534  40.402  12.516
91254W        W56514  43.847  35.097  10.615
91255W        W56515  42.408  13.776   2.625
91256W        W56516  16.722  13.822  10.701
91257W        W56517   1.838   7.778  11.159
91258W        W56518  41.311  25.975   4.828
91259W        W56519  37.226  15.599   1.174
91260W        W56520  11.188  34.015  14.139
91261W        W56521   9.277  32.023  10.677
91262W        W56522  33.950  35.504   1.727
91263W        W56523  37.376  43.477  11.636
91264W        W56524  33.559  30.376   2.785
91265W        W56525  28.135   4.190   2.600
91266W        W56526  12.698  24.136  10.852
91267W        W56527   2.346  25.178   1.661
91268W        W56528  40.473  27.132  10.580
91269W        W56529  37.801  31.870   1.790
91270W        W56530   8.414  32.762  12.727
91271W        W56531  28.092  43.993  14.985
91272W        W56532  29.312   9.089   2.736
91273W        W56533  29.175  31.113  14.781
91274W        W56534  43.995  42.145  12.183
91275W        W56535  14.367   6.537  14.929
91276W        W56536  31.058  34.485   1.785
91277W        W56537   1.075  22.887   2.315
91278W        W56538  37.891  42.268   2.793
91279W        W56539  33.933  35.007   0.939
91280W        W56540   4.095  12.652   0.320
91281W        W56541  18.933  26.954   0.600
91282W        W56542  16.742  41.067   3.173
91283W        W56543   4.475  38.181  11.006
91284W        W56544  39.935  34.768   0.327
91285W        W56545  16.568  21.606  11.992
91286W        W56546  17.276  43.288   0.686
91287W        W56547   8.787  19.834   1.752
91288W        W56548  44.030  13.498  13.970
91289W        W56549  22.223  39.367  12.695
91290W        W56550  43.051  14.758  14.374
91291W        W56551   0.731  14.410  11.383
91292W        W56552  34.142   4.242   3.582
91293W        W56553   7.424  26.960  12.082
91294W        W56554  30.420  42.890  12.888
91295W        W56555  36.825  42.863  13.460
91296W        W56556   2.773  31.192   3.761
91297W        W56557  19.597  42.282  11.413
91298W        W56558  39.050  39.073  11.047
91299W        W56559  40.967  42.102  14.074
91300W        W56560  21.243  28.839   0.258
91301W        W56561  32.439   7.138  11.024
91302W        W56562  37.949  19.044  12.007
91303W        W56563  12.944   3.226  13.832
91304W        W56564  29.723  17.281  14.760
91305W        W56565  40.286  14.704  14.585
91306W        W56566  26.465  32.916   1.380
91307W        W56567  25.244  32.398   3.730
91308W        W56568   0.320  25.117  12.925
91309W        W56569  10.067  24.334   2.217
91310W        W56570   3.310  40.359   5.057
91311W        W56571  10.143  19.109  14.561
91312W        W56572   1.145  11.828  12.564
91313W        W56573  32.478  24.127  13.555
91314W        W56574   0.399  43.130  13.381
91315W        W56575   7.659  32.103  13.582
91316W        W56576   6.641  23.811   1.947
91317W        W56577  25.453  14.349   1.126
91318W        W56578  40.022   6.897  14.015
91319W        W56579   5.383  31.497   4.217
91320W        W56580   2.122  36.885  12.925
91321W        W56581  42.752  41.611   2.674
91322W        W56582  23.292   9.699   0.212
91323W        W56583   5.780   0.027  10.909
91324W        W56584  37.594  35.425   4.608
91325W        W56585  23.244  22.733   0.268
91326W        W56586  24.839  28.268  14.398
91327W        W56587  31.908  39.091   2.685
91328W        W56588  31.042  43.410   4.130
91329W        W56589  19.489   3.296  14.381
91330W        W56590  20.159   7.033  14.865
91331W        W56591  11.937  22.741   3.751
91332W        W56592  21.209   8.824   1.239
91333W        W56593   0.612  24.643  14.760
91334W        W56594  31.274  35.487  11.116
91335W        W56595  14.763   5.203  14.757
91336W        W56596  44.007  27.722   3.694
91337W        W56597  44.045  43.500  14.490
91338W        W56598  36.324   3.687   2.863
91339W        W56599  19.149   9.297  11.986
91340W        W56600  37.873  11.297  12.616
91341W        W56601  39.300  37.014   1.352
91342W        W56602  23.109  13.103  14.464
91343W        W56603   0.618  41.090  12.190
91344W        W56604  23.225  37.549  11.137
91345W        W56605   3.026  41.732  10.838
91346W        W56606   2.274  19.596   0.291
91347W        W56607  10.228  40.044  11.590
91348W        W56608  32.424  17.036   2.221
91349W        W56609  12.650  20.221   1.347
91350W        W56610  38.031  13.782  13.578
91351W        W56611  19.529  20.803  14.019
91352W        W56612   2.865  29.971  11.674
91353W        W56613  36.110  21.480   3.835
91354W        W56614  38.842  20.443  13.484
91355W        W56615   3.601  14.822   4.747
91356W        W56616  40.477   9.346   3.262
91357W        W56617  39.813  11.784   1.779
91358W        W56618  28.811   6.713   4.530
91359W        W56619  20.045  19.159  12.773
91360W        W56620   5.001   1.518  12.413
91361W        W56621  42.030  19.240   4.720
91362W        W56622  44.313  40.817   3.880
91363W        W56623  31.162  17.555   1.903
91364W        W56624  14.560  29.876   2.686
91365W        W56625  24.088  44.989  10.723
91366W        W56626   4.005  25.238  11.769
91367W        W56627  25.694   6.251   4.847
91368W        W56628  21.716  11.639   2.882
91369W        W56629  19.145  21.180   1.898
91370W        W56630   9.906  14.155   3.287
91371W        W56631  18.779   0.561   1.013
91372W        W56632  35.808  42.877   2.225
91373W        W56633  21.746  19.690  11.959
91374W        W56634   3.909  19.280  13.547
91375W        W56635  32.292  12.646  10.747
91376W        W56636  11.483  29.077   4.252
91377W        W56637  17.178  23.754   0.972
91378W        W56638  24.901  13.789  13.469
91379W        W56639  28.916   9.694   4.654
91380W        W56640  35.966  32.083  12.905
91381W        W56641   0.903  19.485   1.417
91382W        W56642  43.347  24.246   2.006
91383W        W56643  25.991  34.949   3.359
91384W        W56644  26.784  25.402   1.340
91385W        W56645  33.759  37.941   2.123
91386W        W56646  33.798  15.586   2.700
91387W        W56647  41.898  22.474  14.887
91388W        W56648  40.747  29.655   4.155
91389W        W56649  24.888  12.641  12.684
91390W        W56650   7.641  30.816   1.270
91391W        W56651  21.488  26.661  14.220
91392W        W56652   0.444   5.005   1.134
91393W        W56653  22.630   7.220   0.325
91394W        W56654  33.130   2.513  14.276
91395W        W56655  39.587   8.904   4.596
91396W        W56656  38.837   6.190   0.284
91397W        W56657   7.454   9.376  10.839
91398W        W56658  41.807  27.485   2.734
91399W        W56659   4.183  36.057   2.113
91400W        W56660  18.796  25.635   0.934
91401W        W56661  11.239  12.041  14.798
91402W        W56662  38.591   9.317  10.711
91403W        W56663  44.948   1.360   4.171
91404W        W56664   0.848  33.538   4.965
91405W        W56665  24.222  26.107   2.880
91406W        W56666  18.767  14.703   0.757
91407W        W56667   9.815  21.660  12.408
91408W        W56668   7.608  14.837   2.894
91409W        W56669   8.229  35.964   3.260
91410W        W56670  43.716   8.853  11.112
91411W        W56671   3.220  10.302   4.597
91412W        W56672   0.749  24.569   1.278
91413W        W56673  35.025  33.289  14.246
91414W        W56674  34.495  43.609  14.767
91415W        W56675  16.065  25.693  12.552
91416W        W56676  25.604  22.069   0.672
91417W        W56677   0.352  36.325   2.893
91418W        W56678  16.324  28.164   2.797
91419W        W56679   8.016  40.482  13.520
91420W        W56680  23.835  13.936   3.674
91421W        W56681  29.164   5.160   0.431
91422W        W56682  22.691   1.364  11.079
91423W        W56683  31.488  31.826  11.100
91424W        W56684  24.503   4.457   3.106
91425W        W56685  15.605  37.252  12.857
91426W        W56686  10.677   9.273  14.941
91427W        W56687  44.354  40.980  13.107
91428W        W56688  40.311  11.163   4.153
91429W        W56689  16.941  40.076   3.509
91430W        W56690  12.941  31.504   2.636
91431W        W56691  12.181  19.599  14.992
91432W        W56692  32.632   2.887   2.906
91433W        W56693  43.253  10.320  13.481
91434W        W56694   9.733  24.218   2.618
91435W        W56695  12.074  38.258   4.179
91436W        W56696  42.060  41.333  11.249
91437W        W56697  19.766   4.688   4.598
91438W        W56698  41.318  43.283   4.478
91439W        W56699   5.723  15.505   0.790
91440W        W56700  11.498  41.299   3.715
91441W        W56701  31.337  23.417  14.973
91442W        W56702  26.184  44.881  12.107
91443W        W56703   3.254  23.315   2.444
91444W        W56704  29.009  17.775   4.870
91445W        W56705  16.667  27.565   4.348
91446W        W56706  15.908  37.065  12.414
91447W        W56707  23.715  37.041  13.463
91448W        W56708  24.598   9.961   4.608
91449W        W56709   6.425  30.056   4.077
91450W        W56710  15.137  38.041   4.232
91451W        W56711  29.864  36.123  14.480
91452W        W56712  27.064  44.055   0.753
91453W        W56713  35.385   8.121  14.043
91454W        W56714   4.126  37.407  12.088
91455W        W56715  26.169   9.882   3.054
91456W        W56716  15.779  39.950   0.781
91457W        W56717  43.295  39.106  13.926
91458W        W56718  43.310   1.280  14.298
91459W        W56719  11.121  44.945  12.913
91460W        W56720  21.583   8.485   1.428
91461W        W56721  12.696   9.847   3.059
91462W        W56722   1.933   0.424  12.041
91463W        W56723  41.740  14.214   3.200
91464W        W56724  22.119   3.336   1.847
91465W        W56725   8.908   5.154   4.974
91466W        W56726   3.185  13.682   2.858
91467W        W56727  30.157   5.233  13.474
91468W        W56728  14.835  25.969  13.190
91469W        W56729  34.468  36.124   4.163
91470W        W56730   2.262   6.211  11.893
91471W        W56731   3.342   5.132  14.944
91472W        W56732  30.214  35.965   2.885
91473W        W56733  26.582   0.050   4.099
91474W        W56734  25.768  11.056   4.817
91475W        W56735  35.595  11.844   4.162
91476W        W56736   1.927  10.436   3.364
91477W        W56737  16.201  41.329   4.623
91478W        W56738  22.723  41.601   1.560
91479W        W56739   2.477   2.817   0.482
91480W        W56740  17.998  20.199   3.241
91481W        W56741  30.972   9.452   3.870
91482W        W56742  14.607   9.902   1.763
91483W        W56743  10.828  24.494  12.684
91484W        W56744   5.403  32.033  14.946
91485W        W56745  39.281  12.189   2.389
91486W        W56746  38.447   3.054  12.419
91487W        W56747  30.522  21.004  11.152
91488W        W56748  29.611  22.811   9.962
91489W        W56749  17.290  42.422   2.175
91490W        W56750  26.668  31.627  14.345
91491W        W56751   7.419  30.200   2.137
91492W        W56752   7.604  35.634  10.630
91493W        W56753  10.235  12.835  10.770
91494W        W56754  40.546  16.346   4.472
91495W        W56755  27.133   7.127  10.318
91496W        W56756   4.155  42.011  13.024
91497W        W56757  14.529  11.029  14.281
91498W        W56758  30.803  12.427   4.132
91499W        W56759  21.276  43.945  14.402
91500W        W56760   9.626  23.113  13.841
91501W        W56761  20.726  43.336   0.844
91502W        W56762  28.393  41.589   0.116
91503W        W56763  28.135  16.724  10.980
91504W        W56764  35.345  34.140  14.310
91505W        W56765   1.663  31.844  11.538
91506W        W56766  21.736  14.809  10.804
91507W        W56767  42.938  40.917  13.528
91508W        W56768   0.056  27.902   3.751
91509W        W56769  28.490  15.482   1.249
91510W        W56770  15.730  35.909  14.197
91511W        W56771  16.649  44.527   0.310
91512W        W56772   4.427  20.771  14.270
91513W        W56773  32.491  14.087   3.478
91514W        W56774   9.922  17.174  14.550
91515W        W56775  40.454  12.304  12.072
91516W        W56776   8.136  15.211   0.709
91517W        W56777  31.429   2.230   1.452
91518W        W56778  43.664   9.868  12.354
91519W        W56779   7.851  31.768   1.356
91520W        W56780   5.387  10.161   3.648
91521W        W56781  43.293  15.046   4.746
91522W        W56782   7.542  24.473  12.381
91523W        W56783  18.260   4.323  10.611
91524W        W56784  35.753  25.603  11.118
91525W        W56785  41.394   5.345  13.789
91526W        W56786   5.952  22.610  14.516
91527W        W56787  10.642   6.000  14.100
91528W        W56788   0.801  31.585   0.372
91529W        W56789  30.976  16.225   1.428
91530W        W56790  25.471   6.440   3.847
91531W        W56791  38.106   9.866   4.464
91532W        W56792  28.981  17.878   0.978
91533W        W56793  25.620  19.301  10.037
91534W        W56794  38.627  36.441   4.558
91535W        W56795  44.881   8.787   0.355
91536W        W56796  15.293  18.749  11.919
91537W        W56797  25.387  34.557   3.798
91538W        W56798   3.982  44.950   0.706
91539W        W56799   0.004  30.748  11.124
91540W        W56800  22.039  20.526  14.899
91541W        W56801  19.315  13.424  12.119
91542W        W56802  43.978  16.010   0.319
91543W        W56803  43.719  18.615   3.029
91544W        W56804  26.100  43.713   2.274
91545W        W56805  19.541  31.983   3.189
91546W        W56806  30.261  21.789   4.407
91547W        W56807   2.807  10.466   1.023
91548W        W56808  44.199  32.307  12.985
91549W        W56809  35.229   7.450  14.933
91550W        W56810   2.351  14.302   3.679
91551W        W56811  16.711  27.373  12.794
91552W        W56812  14.468  35.748   3.300
91553W        W56813  18.077   3.583   1.110
91554W        W56814  15.332  11.929  13.051
91555W        W56815  44.404  39.002  10.698
91556W        W56816  30.466  15.514  12.893
91557W        W56817  36.471  41.058  13.926
91558W        W56818  29.043  35.950   1.294
91559W        W56819  18.775  24.019   1.801
91560W        W56820  33.883  33.991  12.354
91561W        W56821  21.143  44.001  10.258
91562W        W56822  13.613   9.248   0.393
91563W        W56823  41.270   9.677   3.725
91564W        W56824   6.825  16.058   0.301
91565W        W56825  30.245   2.763  11.642
91566W        W56826   9.866   2.996  13.545
91567W        W56827  35.558  40.599   4.532
91568W        W56828  24.258  26.938   0.284
91569W        W56829   2.044   6.404  12.900
91570W        W56830   0.329  22.099  10.583
91571W        W56831  16.654  32.927   4.545
91572W        W56832   2.860  25.081  14.366
91573W        W56833  10.916  13.791  14.925
91574W        W56834  21.838  28.963   3.144
91575W        W56835   4.861  44.345   0.161
91576W        W56836  37.006  40.680   1.151
91577W        W56837  13.653  42.360   2.703
91578W        W56838  24.002  35.135   0.879
91579W        W56839  12.527   5.625  10.647
91580W        W56840  28.873  20.710   2.188
91581W        W56841  20.475  30.022   4.144
91582W        W56842  37.425   4.461   1.324
91583W        W56843  17.740  22.895   4.963
91584W        W56844  11.132  43.828  11.695
91585W        W56845  19.362  22.512   3.392
91586W        W56846  33.933  43.445   1.402
91587W        W56847  20.734  29.575   2.028
91588W        W56848  33.131  11.027  14.450
91589W        W56849   2.118  42.778   4.692
91590W        W56850  37.593  15.336  12.446
91591W        W56851  39.356   0.379  11.621
91592W        W56852   8.882  43.219  13.999
91593W        W56853  33.346  36.947   1.958
91594W        W56854  38.903  39.443   2.140
91595W        W56855  19.057   4.424  12.860
91596W        W56856  20.256  44.952   2.381
91597W        W56857  41.362  27.639  10.369
91598W        W56858   8.716   9.372  14.518
91599W        W56859  18.748   3.341  14.906
91600W        W56860  44.664  11.757   1.787
91601W        W56861   6.819   0.527   3.778
91602W        W56862  22.111  18.145  13.967
91603W        W56863  31.573  23.773   0.332
91604W        W56864   5.635  19.748   3.789
91605W        W56865   3.459  20.999  12.503
91606W        W56866   9.615  30.843  10.330
91607W        W56867  25.865   8.383   0.206
91608W        W56868  23.248  24.992   3.651
91609W        W56869  10.782  16.526   4.829
91610W        W56870   2.477  40.012  14.535
91611W        W56871   3.608  26.328   5.399
91612W        W56872   8.388  41.344   1.920
91613W        W56873   3.191  41.071   2.292
91614W        W56874  12.108  16.807  13.280
91615W        W56875  41.893  34.699  13.712
91616W        W56876  31.967  38.694  11.280
91617W        W56877  44.240   9.856  11.640
91618W        W56878  12.152  36.209  14.524
91619W        W56879  39.325  24.929  10.987
91620W        W56880   2.165  26.237  12.996
91621W        W56881   1.122  11.264   4.944
91622W        W56882   4.185  32.447  12.408
91623W        W56883   0.216   9.196   3.230
91624W        W56884  29.734  18.589  14.230
91625W        W56885  23.628   2.931  11.200
91626W        W56886  20.281  22.420  11.524
91627W        W56887   2.344  24.372  14.462
91628W        W56888  23.392   3.266   9.873
91629W        W56889  41.048   2.167  11.455
91630W        W56890  22.652  23.627  13.920
91631W        W56891  40.741   1.522   2.387
91632W        W56892  11.263   5.188   2.671
91633W        W56893  17.145  38.994   1.058
91634W        W56894   7.737   4.143  12.035
91635W        W56895  38.246   6.459  10.696
91636W        W56896  44.391  35.926  12.428
91637W        W56897   3.862   1.278  11.623
91638W        W56898  31.618  11.570   0.051
91639W        W56899   1.983   1.942   0.815
91640W        W56900  38.504  28.680  13.969
91641W        W56901  18.230  30.546  10.330
91642W        W56902   4.886  21.698   0.677
91643W        W56903  38.422  29.878  12.483
91644W        W56904  22.967  42.377  11.090
91645W        W56905  37.359  35.677   2.478
91646W        W56906  33.093  11.998   3.721
91647W        W56907  19.932   4.054   0.245
91648W        W56908  33.881  21.132   3.574
91649W        W56909  43.688   6.532   3.450
91650W        W56910   8.141  22.614   0.768
91651W        W56911   0.981   9.901   0.944
91652W        W56912  30.364  14.095   4.559
91653W        W56913  35.427  32.204   2.833
91654W        W56914  34.341  33.840   4.084
91655W        W56915  44.873  13.837  13.369
91656W        W56916   8.625   4.119   0.211
91657W        W56917  11.043  15.887   4.471
91658W        W56918  30.593  14.670   0.373
91659W        W56919   1.280   8.439  14.381
91660W        W56920   3.724  20.085  13.919
91661W        W56921  42.435   5.986  14.805
91662W        W56922  37.329  37.434  11.206
91663W        W56923   5.149  16.034  14.453
91664W        W56924  32.406  38.883  13.479
91665W        W56925  40.981  17.168  14.289
91666W        W56926  41.919  25.332   4.715
91667W        W56927   8.848  23.304  10.051
91668W        W56928   1.790  32.169   3.087
91669W        W56929   0.899  30.943   1.206
91670W        W56930  23.341   8.336  10.988
91671W        W56931  40.554  24.227  13.715
91672W        W56932  39.299   9.594   0.738
91673W        W56933  17.094  22.366   1.711
91674W        W56934  40.905  23.770  14.527
91675W        W56935  33.346  29.755  12.173
91676W        W56936   0.325  37.772   4.064
91677W        W56937  40.715  26.206   4.202
91678W        W56938   5.950  25.294  12.657
91679W        W56939   5.209  11.196   0.006
91680W        W56940  35.743   2.025   9.716
91681W        W56941  13.655  28.899   4.063
91682W        W56942  14.159  14.598  12.106
91683W        W56943  19.538  35.094   0.244
91684W        W56944  29.616  33.871   3.846
91685W        W56945  20.294   8.656   1.524
91686W        W56946  43.838  37.710   5.066
91687W        W56947   3.928  11.295  13.952
91688W        W56948  31.110  31.928  14.414
91689W        W56949  21.989   3.697   3.660
91690W        W56950  16.828  32.831  14.462
91691W        W56951  39.405   6.109  10.998
91692W        W56952  15.935  33.977  11.995
91693W        W56953  41.506  37.017  11.499
91694W        W56954  12.128  15.536   3.310
91695W        W56955  32.374  33.526   1.335
91696W        W56956   2.953  29.476  10.451
91697W        W56957   9.596  24.949  14.927
91698W        W56958  29.989  40.020   3.288
91699W        W56959   1.237   3.071   4.132
91700W        W56960  28.470  27.234  12.797
91701W        W56961  38.506  18.530  10.684
91702W        W56962  21.029  17.555   0.611
91703W        W56963  41.000  25.957   0.737
91704W        W56964  34.408  25.024   5.165
91705W        W56965  42.715  19.708  12.991
91706W        W56966   4.785  34.946   5.455
91707W        W56967  44.328  18.248   4.226
91708W        W56968   8.115   0.402   4.120
91709W        W56969  40.558  41.308  11.604
91710W        W56970  39.957  27.726   2.643
91711W        W56971  12.481  28.273  10.244
91712W        W56972  16.154  13.063   4.691
91713W        W56973  12.526  41.320  12.990
91714W        W56974  30.444  25.137  11.147
91715W        W56975   5.460  30.679   5.279
91716W        W56976  20.123   4.125  10.620
91717W        W56977  30.358  20.514  11.160
91718W        W56978  35.299  23.304  12.710
91719W        W56979   6.304   3.271  14.580
91720W        W56980  31.891  37.350   9.945
91721W        W56981  30.525  34.541  14.380
91722W        W56982  36.454  23.108   2.226
91723W        W56983  44.721  23.043  12.087
91724W        W56984  43.461  15.130  12.411
91725W        W56985  37.563  28.602  11.238
91726W        W56986  44.918  43.984   1.166
91727W        W56987  36.001  18.613   1.213
91728W        W56988   6.814  14.675  13.163
91729W        W56989  11.775  16.312  13.966
91730W        W56990  38.537  33.081  12.824
91731W        W56991   8.614  17.284   3.369
91732W        W56992  25.031  13.136   2.232
91733W        W56993   5.899   3.220   4.578
91734W        W56994  27.076  43.158   4.858
91735W        W56995  16.006  35.276   0.970
91736W        W56996  15.692  34.393   3.132
91737W        W56997   4.901  26.572  14.355
91738W        W56998  41.110  43.757  11.636
91739W        W56999  27.553  30.735  12.324
91740W        W57000  13.109  34.500  12.065
91741W        W57001  41.929  21.624   0.777
91742W        W57002  21.749  43.774  13.719
91743W        W57003  33.129  29.392  14.363
91744W        W57004  41.936   3.419   2.319
91745W        W57005   2.690   2.162  11.099
91746W        W57006  31.210   1.227   0.913
91747W        W57007  30.199  31.974  10.962
91748W        W57008  40.268  23.506  12.777
91749W        W57009  38.720   1.842  11.055
91750W        W57010  44.300  16.689  10.678
91751W        W57011  41.778  35.006   2.243
91752W        W57012  17.791  33.797   2.152
91753W        W57013  18.317   6.411   1.625
91754W        W57014   7.208  17.747   3.173
91755W        W57015  13.780  43.108  10.623
91756W        W57016  30.706   5.406   4.323
91757W        W57017  20.786  37.793   4.212
91758W        W57018  11.394  33.272   0.292
91759W        W57019  18.220  22.131   4.987
91760W        W57020  26.877  36.532  10.560
91761W        W57021  34.998  29.566   4.042
91762W        W57022  25.123  41.386   0.269
91763W        W57023  43.548  10.989   3.264
91764W        W57024  32.100   0.112   3.525
91765W        W57025  33.944  41.314  12.018
91766W        W57026  13.139  26.437   3.254
91767W        W57027  22.549  14.403  14.887
91768W        W57028  31.479  40.047  13.415
91769W        W57029  17.322   9.657  12.257
91770W        W57030  15.247  42.444   1.275
91771W        W57031  38.738  15.028  11.655
91772W        W57032  38.347  35.768   0.892
91773W        W57033  40.396  24.144   0.171
91774W        W57034  19.504  43.766  10.766
91775W        W57035  11.777  26.601   1.497
91776W        W57036  14.155  25.484   5.091
91777W        W57037  18.590  37.791   4.438
91778W        W57038  28.564   3.476  12.130
91779W        W57039   5.415  29.751   0.326
91780W        W57040   0.678  24.201   1.955
91781W        W57041  37.348   5.192  11.295
91782W        W57042   1.409   2.839  12.192
91783W        W57043  30.187  42.368   1.643
91784W        W57044  10.849  26.021  14.482
91785W        W57045  33.205  33.192   0.619
91786W        W57046  39.027  24.244   1.898
91787W        W57047  25.038   0.514   3.103
91788W        W57048  38.590  24.077   3.799
91789W        W57049  36.874  29.313  10.890
91790W        W57050  15.200  40.513   4.933
91791W        W57051  10.564  30.381   1.688
91792W        W57052   5.223  21.070   0.826
91793W        W57053  15.121  19.740  11.749
91794W        W57054   8.370   3.444  10.775
91795W        W57055  23.562  28.877  11.091
91796W        W57056   3.227   8.230  12.620
91797W        W57057   7.210  10.815  14.239
91798W        W57058  30.406  33.076  13.827
91799W        W57059  14.182   8.449   0.319
91800W        W57060  30.986  38.847  11.990
91801W        W57061  37.066  21.034  10.729
91802W        W57062  18.306  34.900  13.045
91803W        W57063  32.198  14.175  11.375
91804W        W57064  21.216  28.919   1.382
91805W        W57065   0.264   7.066  10.706
91806W        W57066  16.313   3.943   4.712
91807W        W57067  32.023  19.207   1.425
91808W        W57068   3.595  33.960   4.831
91809W        W57069   3.425   5.962  11.185
91810W        W57070   2.270  43.837   3.771
91811W        W57071  15.477  13.188  11.116
91812W        W57072  33.015   0.585   2.500
91813W        W57073  24.138  19.229  14.555
91814W        W57074   3.238  29.208   2.779
91815W        W57075  15.398  39.511   1.813
91816W        W57076  15.028   5.601  14.386
91817W        W57077  29.113  44.292  11.523
91818W        W57078  32.865  35.080   3.883
91819W        W57079  27.957  17.939   3.154
91820W        W57080  36.360  14.826  11.248
91821W        W57081  16.536   4.217  12.120
91822W        W57082  11.758  35.107   4.635
91823W        W57083  17.653  32.452  13.975
91824W        W57084  40.358  43.054  10.754
91825W        W57085  15.621  37.441   3.765
91826W        W57086  20.217  12.310   1.199
91827W        W57087  32.073  42.881  14.210
91828W        W57088  25.234  41.592   3.258
91829W        W57089   9.645  21.591   1.248
91830W        W57090  36.797   2.926  13.888
91831W        W57091  30.885  24.021   5.045
91832W        W57092  15.874  17.948  14.484
91833W        W57093  43.710  32.480  12.056
91834W        W57094   9.201  14.252  13.549
91835W        W57095  33.536  12.375  11.156
91836W        W57096  11.769   1.699   1.915
91837W        W57097  41.554  14.939   0.734
91838W        W57098  25.608   4.256  12.172
91839W        W57099   8.207  12.660  14.462
91840W        W57100  23.231  30.149  13.483
91841W        W57101  10.511  37.392  11.921
91842W        W57102   6.328  39.753   3.278
91843W        W57103  29.326  42.850   1.674
91844W        W57104  18.648  37.781   4.963
91845W        W57105  12.185   9.384  11.052
91846W        W57106  34.168   3.746   2.419
91847W        W57107  19.700  28.316  13.790
91848W        W57108   1.932   4.872  13.945
91849W        W57109  30.916  12.665  12.969
91850W        W57110  16.010  18.689  10.787
91851W        W57111  24.543  39.863  12.017
91852W        W57112   6.788   9.734   0.589
91853W        W57113  13.513   4.827  11.109
91854W        W57114  24.734  15.762  13.434
91855W        W57115  12.176  30.870  12.587
91856W        W57116  12.100  10.104  14.892
91857W        W57117  38.851  13.107   3.630
91858W        W57118   8.783  22.500   3.186
91859W        W57119  39.511  28.499  14.791
91860W        W57120  31.128  40.934   0.383
91861W        W57121   0.532  24.429  12.049
91862W        W57122  13.969   7.016   9.586
91863W        W57123   1.737  26.001   0.089
91864W        W57124  33.925  40.618  14.913
91865W        W57125  14.133  27.526  13.633
91866W        W57126   9.154  23.609   0.500
91867W        W57127  39.283  38.457   3.165
91868W        W57128  17.627  41.408  13.759
91869W        W57129   7.904  39.896   1.702
91870W        W57130  35.484   7.148  12.368
91871W        W57131  30.622  37.853   0.258
91872W        W57132   8.395  14.727  14.923
91873W        W57133   0.953  15.629   1.700
91874W        W57134  16.100  22.897   3.784
91875W        W57135  25.693  23.803  12.360
91876W        W57136  11.225  11.899  12.130
91877W        W57137  29.974  24.715  13.028
91878W        W57138   8.653  24.730   4.568
91879W        W57139  21.345  25.797   5.015
91880W        W57140  14.896   3.868  14.828
91881W        W57141  18.125   3.314   1.980
91882W        W57142  10.589  28.554  13.784
91883W        W57143  24.617  30.549   1.505
91884W        W57144   6.882  24.657   2.938
91885W        W57145  18.505  40.028   0.189
91886W        W57146  38.591   2.895   1.733
91887W        W57147   8.725  11.776   0.378
91888W        W57148  30.692  13.153  12.977
91889W        W57149  41.927  11.179   3.090
91890W        W57150  16.790  10.775  14.299
91891W        W57151  27.575  44.067   2.823
91892W        W57152  37.292  26.596   9.814
91893W        W57153  28.676   1.007   4.757
91894W        W57154   4.924  43.319   2.703
91895W        W57155  23.876  30.621   4.700
91896W        W57156  14.503   2.386   2.918
91897W        W57157   0.288  11.193  13.074
91898W        W57158  20.604   6.489   2.189
91899W        W57159  23.167   7.088  13.869
91900W        W57160  27.936  35.159   2.285
91901W        W57161  15.596  18.409   3.639
91902W        W57162  44.654  24.801  11.201
91903W        W57163  21.018  38.514  11.709
91904W        W57164  25.210  14.497  12.841
91905W        W57165  27.468  12.780  11.708
91906W        W57166  12.758  39.553  11.042
91907W        W57167  24.767  12.226   2.785
91908W        W57168  23.537  44.227  14.584
91909W        W57169  18.040  40.377  12.392
91910W        W57170  33.848   2.492   4.561
91911W        W57171  28.100   3.710  12.035
91912W        W57172  38.965  38.297   0.270
91913W        W57173   5.280  34.561   3.201
91914W        W57174  33.826  29.678   4.425
91915W        W57175  17.295   2.163   1.857
91916W        W57176  39.904  44.491   0.224
91917W        W57177  30.989  16.119  11.587
91918W        W57178  43.831  43.279  11.544
91919W        W57179  44.447  18.227   1.168
91920W        W57180   7.955  18.638   3.597
91921W        W57181  29.975   1.667   2.712
91922W        W57182  28.158  42.903  14.928
91923W        W57183  13.746  30.038  14.566
91924W        W57184  44.206  31.973   4.581
91925W        W57185  16.758  12.982  13.908
91926W        W57186   8.895  23.119  13.332
91927W        W57187   8.886  37.975   4.113
91928W        W57188   8.867  25.743   4.528
91929W        W57189  24.638  32.145  14.386
91930W        W57190  26.889  34.999  12.900
91931W        W57191   5.897   2.297  13.833
91932W        W57192  32.388  42.500  14.943
91933W        W57193  20.710  19.376  10.187
91934W        W57194  26.254  29.525  12.681
91935W        W57195   5.830   1.636   0.128
91936W        W57196  14.107  44.912  14.263
91937W        W57197  21.849  22.221   3.660
91938W        W57198   7.836  40.080   4.184
91939W        W57199  26.091  29.598  14.189
91940W        W57200  12.120  21.074   1.414
91941W        W57201   4.182  30.570   4.294
91942W        W57202  20.658  27.433  11.932
91943W        W57203  22.974  38.095  11.617
91944W        W57204  10.054  11.290   2.628
91945W        W57205  25.525   1.869  12.950
91946W        W57206  31.076   0.848  11.617
91947W        W57207   8.496  30.368  12.565
91948W        W57208  19.299   8.236  13.362
91949W        W57209   8.398  18.035  12.560
91950W        W57210  30.691   3.594   0.894
91951W        W57211  36.446  20.245   0.743
91952W        W57212   5.890   1.504   2.674
91953W        W57213  30.999  26.983  11.097
91954W        W57214   0.226  17.043   0.247
91955W        W57215  29.985   3.891  14.103
91956W        W57216  29.127  27.912  14.710
91957W        W57217  35.009  34.631   1.332
91958W        W57218  15.822   0.959   0.628
91959W        W57219  35.821  44.794   3.768
91960W        W57220  27.684  27.442  10.697
91961W        W57221  28.197  22.407   1.881
91962W        W57222  19.681   8.890   0.866
91963W        W57223  29.020   5.478   3.288
91964W        W57224  24.248  14.486  11.590
91965W        W57225   3.464   4.671  12.428
91966W        W57226  26.906  15.236  13.988
91967W        W57227  35.724   9.796  14.934
91968W        W57228  22.983  26.243   3.230
91969W        W57229  36.755  41.614  11.949
91970W        W57230  24.543  30.204   4.124
91971W        W57231  40.986  15.819   4.502
91972W        W57232  32.105  32.661   2.251
91973W        W57233   7.286  34.972   1.186
91974W        W57234  14.552  38.690  10.596
91975W        W57235  36.544  37.414   0.926
91976W        W57236   3.933  15.051   0.405
91977W        W57237  38.535  38.970   4.228
91978W        W57238  33.024  37.790   2.855
91979W        W57239  22.684  26.512   0.213
91980W        W57240  34.574  14.451  11.381
91981W        W57241  34.320  12.242  12.278
91982W        W57242  44.070  24.219   0.837
91983W        W57243   4.633   9.737  10.845
91984W        W57244  15.662   1.395   3.863
91985W        W57245  42.701  21.180  13.914
91986W        W57246  32.402  20.131  13.335
91987W        W57247  39.459  17.503   3.226
91988W        W57248   7.268  16.415   1.799
91989W        W57249  22.690  32.983   4.174
91990W        W57250  26.070  30.400  13.064
91991W        W57251  44.828  26.099   2.936
91992W        W57252   6.398   2.039   1.406
91993W        W57253  17.937  11.773   4.792
91994W        W57254  40.603  31.371  12.016
91995W        W57255  35.073   2.335  12.157
91996W        W57256   5.798  22.180   4.198
91997W        W57257  30.930   4.195   1.781
91998W        W57258  35.130  22.025  12.199
91999W        W57259  21.738  30.077   0.208
92000W        W57260  19.121  21.125   5.064
92001W        W57261  43.592  36.526  11.983
92002W        W57262  38.714  19.493   2.993
92003W        W57263  35.141  27.426  14.193
92004W        W57264  35.461  26.394   2.920
92005W        W57265  15.166  20.563  11.920
92006W        W57266   7.446   6.442  12.422
92007W        W57267  17.368   6.755   0.405
92008W        W57268   0.816  33.254  13.832
92009W        W57269   2.722  42.574   0.259
92010W        W57270  11.263   3.152   2.375
92011W        W57271   2.557  26.150   0.400
92012W        W57272   0.056  38.653   3.628
92013W        W57273  41.267  16.120   1.372
92014W        W57274  24.012  29.574  11.552
92015W        W57275  31.605  15.855  11.446
92016W        W57276  42.722  10.224  13.538
92017W        W57277  41.506  32.487   4.985
92018W        W57278   5.070  30.892  14.793
92019W        W57279  36.912  18.745   3.296
92020W        W57280   8.968  10.781  10.757
92021W        W57281  27.500  39.273  14.403
92022W        W57282  44.965  44.937   4.721
92023W        W57283   7.929  13.563  11.141
92024W        W57284  27.846  26.376  13.521
92025W        W57285   0.222  42.113   3.918
92026W        W57286  27.584   1.839   1.955
92027W        W57287  43.568   4.707   1.323
92028W        W57288   3.555  42.810   1.630
92029W        W57289  34.320   4.306   1.666
92030W        W57290  22.634  13.095  12.159
92031W        W57291   2.876  15.356   3.988
92032W        W57292  14.771  37.580   2.867
92033W        W57293  19.800  23.032  14.491
92034W        W57294   8.913  29.302   1.941
92035W        W57295  25.648  43.271  11.968
92036W        W57296   0.049  17.001   2.693
92037W        W57297  25.219  13.628   0.490
92038W        W57298   6.722  27.972  10.801
92039W        W57299  15.787  10.350   4.327
92040W        W57300  40.439   4.325   3.678
92041W        W57301  26.976  42.739  13.332
92042W        W57302  11.807  42.729  13.796
92043W        W57303   7.485   0.206   1.835
92044W        W57304  38.793  31.971  11.991
92045W        W57305   5.778  19.511  13.633
92046W        W57306  29.870   0.794   2.331
92047W        W57307  37.903  43.180   5.058
92048W        W57308  11.249  25.762   3.237
92049W        W57309   9.174  37.667  11.462
92050W        W57310   7.218   0.452   4.086
92051W        W57311  19.100  30.681  13.509
92052W        W57312   4.014  22.411  10.393
92053W        W57313  40.053  25.066  12.068
92054W        W57314  37.867  26.334  14.595
92055W        W57315  42.421  15.304   1.182
92056W        W57316  26.121  30.574   3.802
92057W        W57317  44.350  31.435  10.796
92058W        W57318   8.182   9.346   1.959
92059W        W57319  23.782  30.819  12.143
92060W        W57320  14.825  30.458  12.462
92061W        W57321  12.840  13.230  13.780
92062W        W57322  25.956  18.989  11.831
92063W        W57323   7.351  14.847  12.886
92064W        W57324  13.154  27.177  12.140
92065W        W57325   3.363  29.058  10.746
92066W        W57326  10.446  14.733   1.871
92067W        W57327  33.329  11.220   2.777
92068W        W57328  14.077  27.750   0.874
92069W        W57329  14.324  20.431  12.298
92070W        W57330   6.450   9.317   2.701
92071W        W57331  30.303  34.627   4.468
92072W        W57332  31.118   2.740  14.272
92073W        W57333  13.113  11.288  11.520
92074W        W57334  38.978  39.328   3.850
92075W        W57335  29.105  38.397  13.347
92076W        W57336  39.967  15.242   2.506
92077W        W57337  37.608  27.729   0.720
92078W        W57338  18.201  21.603  14.707
92079W        W57339  20.707  16.787   1.261
92080W        W57340  44.623  39.442  14.410
92081W        W57341  24.939  24.484   4.820
92082W        W57342  40.817  33.178   1.826
92083W        W57343  40.079  12.149   2.782
92084W        W57344  10.841  29.905  14.780
92085W        W57345   0.291   1.331   3.782
92086W        W57346   8.217  32.201  11.566
92087W        W57347  29.619  24.288  13.424
92088W        W57348   3.348  33.860   3.350
92089W        W57349   0.407   0.728  12.073
92090W        W57350  37.349  21.822   2.736
92091W        W57351  17.630  27.004   3.626
92092W        W57352  25.179   2.245   2.101
92093W        W57353  31.157   3.016  12.861
92094W        W57354  33.499  42.417   2.418
92095W        W57355  37.282  36.908   3.341
92096W        W57356   2.406  30.654  12.628
92097W        W57357  33.949   8.305  14.603
92098W        W57358  34.133  39.400   2.908
92099W        W57359  35.597  27.112  14.872
92100W        W57360  11.314  13.321  10.600
92101W        W57361  42.878   2.461   0.414
92102W        W57362   2.181  15.617   0.320
92103W        W57363  28.976  16.645   1.194
92104W        W57364   6.710   9.862   1.087
92105W        W57365  19.008  32.403  14.221
92106W        W57366  26.499  20.133  13.318
92107W        W57367  17.836  31.522  12.464
92108W        W57368  41.278  21.454   1.718
92109W        W57369  19.036  38.482   3.843
92110W        W57370  33.608  40.333   3.371
92111W        W57371  25.599   1.962   2.284
92112W        W57372  22.544  36.003   2.777
92113W        W57373  12.927  35.895  14.984
92114W        W57374   0.971   8.276   0.385
92115W        W57375  43.362   6.894   3.299
92116W        W57376   7.609  32.473  12.569
92117W        W57377   2.029  41.074   3.273
92118W        W57378  29.981  22.821  11.357
92119W        W57379  12.172   2.180  11.199
92120W        W57380  20.110  22.347  12.285
92121W        W57381  40.344  40.476   2.214
92122W        W57382  26.111  16.863   5.021
92123W        W57383   5.931  35.764   2.848
92124W        W57384  13.569   1.344  13.795
92125W        W57385  32.861  11.745  13.895
92126W        W57386  13.283  15.061  12.937
92127W        W57387  31.022   5.925   2.837
92128W        W57388  29.039  19.247   4.478
92129W        W57389  30.232  17.739  11.132
92130W        W57390  36.104  28.460  14.450
92131W        W57391  43.476  36.502  10.672
92132W        W57392   1.235   6.635  11.246
92133W        W57393  21.997  34.683   1.236
92134W        W57394  26.983  20.735  10.925
92135W        W57395  44.391  30.166  11.597
92136W        W57396  31.555  14.647   1.516
92137W        W57397   7.638  35.596   3.850
92138W        W57398  21.532  36.599   1.441
92139W        W57399  43.970   4.354  10.486
92140W        W57400  15.176   9.490  12.802
92141W        W57401   4.419  38.794   2.214
92142W        W57402  26.098  30.154   1.354
92143W        W57403  22.631  42.353  13.947
92144W        W57404  34.938  13.141   3.060
92145W        W57405   0.138  25.585   1.901
92146W        W57406   7.308  24.752  11.414
92147W        W57407  35.646  39.332  13.759
92148W        W57408  19.055   4.464  11.123
92149W        W57409  18.408  10.986   2.653
92150W        W57410   8.252   7.766  14.440
92151W        W57411  31.408  13.215   4.168
92152W        W57412  32.934  40.271  10.571
92153W        W57413  12.755  43.024  14.681
92154W        W57414  12.344   0.887   3.239
92155W        W57415  23.055  31.941  12.895
92156W        W57416  22.638  31.773  11.350
92157W        W57417  17.623   4.522  14.977
92158W        W57418  28.962  44.312   3.231
92159W        W57419   2.042   7.671  10.701
92160W        W57420  39.504  28.876   2.062
92161W        W57421   6.810  33.033   3.392
92162W        W57422  34.169  15.871  12.368
92163W        W57423  25.247  28.553  11.648
92164W        W57424   4.031  25.017  11.020
92165W        W57425   7.975  18.032   0.939
92166W        W57426  25.243  31.859   2.783
92167W        W57427   6.887  22.697   3.321
92168W        W57428  35.449   2.848   2.203
92169W        W57429  30.038  27.962   1.806
92170W        W57430   5.593   2.851  11.128
92171W        W57431  17.780  26.527   2.217
92172W        W57432  23.063  31.113  12.495
92173W        W57433  21.149  16.619   1.021
92174W        W57434  31.993   0.995   3.279
92175W        W57435  19.752  32.290  12.496
92176W        W57436  27.418  41.240   4.511
92177W        W57437   3.437  19.829   4.791
92178W        W57438  40.321  14.139   4.489
92179W        W57439  35.968  44.253   3.229
92180W        W57440  40.000  18.804   2.000
92181W        W57441  12.362  42.031   3.165
92182W        W57442  31.132  15.081  14.150
92183W        W57443  22.254  44.860   4.667
92184W        W57444  22.312  44.391  11.485
92185W        W57445  32.541  21.513   3.706
92186W        W57446  44.869  15.033  12.062
92187W        W57447   5.497   8.175  12.899
92188W        W57448  17.685  28.849   4.052
92189W        W57449   0.223  38.504   1.736
92190W        W57450  31.025  38.981   4.550
92191W        W57451  26.533   8.426   2.336
92192W        W57452  21.069  27.713   4.738
92193W        W57453  13.718  20.773  14.856
92194W        W57454  24.184  27.989   2.090
92195W        W57455   1.725  20.462   4.124
92196W        W57456  18.200   9.943   2.637
92197W        W57457   2.626  36.393   4.567
92198W        W57458  31.508  17.777  12.992
92199W        W57459   2.455  30.386  14.884
92200W        W57460  40.682   2.162   5.017
92201W        W57461  35.456   3.490  11.317
92202W        W57462   2.429  21.118  12.590
92203W        W57463  12.041  16.702   3.696
92204W        W57464  20.017   7.491  11.123
92205W        W57465  41.955  28.395  11.369
92206W        W57466  33.606  18.650   0.091
92207W        W57467   3.262  35.108  14.460
92208W        W57468  13.847  19.802  12.342
92209W        W57469  36.916  20.660   2.432
92210W        W57470   5.472  15.868   4.677
92211W        W57471  34.963  16.798  13.150
92212W        W57472  44.981  39.076  12.354
92213W        W57473  13.168  20.361   3.769
92214W        W57474  37.040  19.700   3.837
92215W        W57475  15.773  35.792  12.933
92216W        W57476  39.408  36.436  13.504
92217W        W57477  17.208  42.798   0.422
92218W        W57478  26.574  40.688  10.914
92219W        W57479   4.170   0.241   1.095
92220W        W57480   6.456   1.597  10.213
92221W        W57481  14.611  36.485   2.610
92222W        W57482  39.307  41.834  10.642
92223W        W57483  26.071  40.968  13.038
92224W        W57484   0.864   6.228   4.541
92225W        W57485  11.650  37.301  12.530
92226W        W57486  21.272  15.628  13.995
92227W        W57487  24.269  24.146  14.345
92228W        W57488  10.643  20.213   2.840
92229W        W57489  22.262  32.221   3.744
92230W        W57490  41.000  42.456   2.671
92231W        W57491  29.637  38.212  11.099
92232W        W57492  23.094  27.434   0.036
92233W        W57493   4.860   8.855   9.569
92234W        W57494  34.014  22.532  10.699
92235W        W57495  41.282  31.762  11.528
92236W        W57496  15.662  33.373  12.915
92237W        W57497  25.609  15.552   0.441
92238W        W57498  16.387  14.794   3.085
92239W        W57499   1.980   5.915   1.872
92240W        W57500  43.734  27.943  10.623
92241W        W57501   9.714  26.588   1.390
92242W        W57502  19.756  33.861  10.733
92243W        W57503  12.244  44.704  10.897
92244W        W57504  17.278  26.445   4.311
92245W        W57505  14.028  44.859   1.840
92246W        W57506  41.341  29.358   4.680
92247W        W57507  22.937   3.699  11.968
92248W        W57508  35.771  34.639  11.140
92249W        W57509  31.920  23.953   4.187
92250W        W57510  18.334  28.968   3.230
92251W        W57511  20.763   6.137  13.240
92252W        W57512  44.802   4.187   3.629
92253W        W57513  17.566   3.915   1.739
92254W        W57514  37.590   4.007  14.525
92255W        W57515  41.897  30.697  11.996
92256W        W57516  38.156   2.892   4.245
92257W        W57517  39.097  32.109   3.858
92258W        W57518  31.636  37.135  12.048
92259W        W57519  28.740   4.398  13.962
92260W        W57520  21.825  38.915  14.838
92261W        W57521   3.433  42.911  10.722
92262W        W57522   1.613  22.344  10.254
92263W        W57523   3.826  19.618   3.804
92264W        W57524  18.279  38.778  11.128
92265W        W57525  13.134  14.770  13.845
92266W        W57526  12.240   7.979  11.275
92267W        W57527  15.917  31.177  10.798
92268W        W57528  25.446   9.786  14.948
92269W        W57529  27.139  16.360  14.823
92270W        W57530  44.559  26.565   1.357
92271W        W57531  11.675  43.341   1.961
92272W        W57532  29.825  19.785  12.875
92273W        W57533  38.469  26.557   0.509
92274W        W57534   0.913  22.607  13.397
92275W        W57535  39.270   6.693   3.233
92276W        W57536  30.228   2.437   4.640
92277W        W57537  44.756  36.980  12.717
92278W        W57538  21.051   3.493   3.342
92279W        W57539  13.801  35.816  14.368
92280W        W57540  40.316  20.655  11.500
92281W        W57541  41.833  32.133   0.319
92282W        W57542  39.282  26.413   3.310
92283W        W57543  13.969  25.429  10.926
92284W        W57544  30.004   5.755  11.020
92285W        W57545   5.815   2.961  12.091
92286W        W57546  40.120   1.478   1.937
92287W        W57547  14.869  39.942   2.411
92288W        W57548   9.815  23.345  12.586
92289W        W57549  32.678  12.416  14.798
92290W        W57550  14.533  31.532  13.631
92291W        W57551  25.400  41.333  12.886
92292W        W57552  35.034  17.580  14.228
92293W        W57553  13.708   1.512  11.138
92294W        W57554  41.320  11.713   5.112
92295W        W57555  41.370  33.598   1.899
92296W        W57556  42.335  18.079   2.338
92297W        W57557  37.239  33.682  13.063
92298W        W57558  15.306  44.930  11.585
92299W        W57559  13.965  15.846   3.107
92300W        W57560  19.489  43.862   4.060
92301W        W57561   6.182   4.090   1.773
92302W        W57562  40.092  43.243   2.358
92303W        W57563  27.603   4.785   0.794
92304W        W57564   3.946  44.561   2.263
92305W        W57565  35.134  24.486  12.525
92306W        W57566  37.012   0.953  14.788
92307W        W57567  37.057  15.403   3.315
92308W        W57568  21.455  40.522   4.150
92309W        W57569  28.560  24.698  14.438
92310W        W57570  37.566  36.071   4.240
92311W        W57571  18.053  15.815  12.526
92312W        W57572  11.631  16.463   3.463
92313W        W57573   9.696  17.615   0.812
92314W        W57574  34.644   5.664  13.709
92315W        W57575  38.928  34.114   1.859
92316W        W57576  26.160  18.700   1.328
92317W        W57577  14.340  23.066   4.403
92318W        W57578  25.462   2.210  14.728
92319W        W57579   9.366   5.945   2.311
92320W        W57580  20.605  37.273   3.292
92321W        W57581  43.720  42.530   1.712
92322W        W57582  29.219  15.215  13.284
92323W        W57583  29.046  15.131  13.780
92324W        W57584  16.322  33.610   0.272
92325W        W57585   4.075  14.661   4.606
92326W        W57586  12.859   3.117   2.301
92327W        W57587  10.203  40.483  11.870
92328W        W57588   3.942  26.546  13.960
92329W        W57589   7.428   4.189   4.421
92330W        W57590  31.475  13.093  14.925
92331W        W57591  14.773   0.741  11.950
92332W        W57592  13.840  20.110   2.768
92333W        W57593  20.668   0.471   0.433
92334W        W57594   5.506   4.939   0.745
92335W        W57595   5.852  29.146   1.224
92336W        W57596   8.301  44.341  13.784
92337W        W57597   8.436  26.920  12.123
92338W        W57598  40.521  34.833  10.754
92339W        W57599   7.929  19.140  13.607
92340W        W57600   8.763   9.800  11.709
92341W        W57601   7.399  29.222   4.527
92342W        W57602  25.396   6.447  13.228
92343W        W57603  43.423  11.446  12.902
92344W        W57604  33.777  44.048  13.695
92345W        W57605  43.425  35.595  13.024
92346W        W57606  44.368  40.707  11.878
92347W        W57607  43.460  23.686   2.601
92348W        W57608   9.296  15.918  10.756
92349W        W57609  20.171  32.369   1.402
92350W        W57610  28.609  21.820  11.873
92351W        W57611  18.700  18.382  10.284
92352W        W57612  11.668  12.466  10.632
92353W        W57613  22.526  25.997  12.367
92354W        W57614  28.443   7.406  13.020
92355W        W57615  28.943  22.040  12.408
92356W        W57616  29.206  18.031   2.877
92357W        W57617  30.067  36.591  10.750
92358W        W57618   2.531  19.739  11.911
92359W        W57619   8.941   4.420  13.871
92360W        W57620  21.469  10.798   0.466
92361W        W57621   0.432  26.567   3.974
92362W        W57622   0.908   9.632   2.789
92363W        W57623  28.263  39.348  12.513
92364W        W57624  41.905   4.860   4.553
92365W        W57625  44.995  25.688  12.207
92366W        W57626  13.105  19.521   2.772
92367W        W57627  31.399  18.939   3.725
92368W        W57628  37.766   9.907  12.817
92369W        W57629  18.688  35.043   2.609
92370W        W57630   3.431  38.467   3.403
92371W        W57631  23.184  28.208   1.695
92372W        W57632   6.632   7.456   2.540
92373W        W57633  32.189  43.682  10.265
92374W        W57634  14.321  14.718  10.792
92375W        W57635  21.505  14.852   0.202
92376W        W57636  33.895  24.570   3.096
92377W        W57637  38.063  27.155  12.042
92378W        W57638  31.867  42.329  11.375
92379W        W57639   0.744  26.808  13.268
92380W        W57640  31.919  28.460  12.318
92381W        W57641  36.484   3.745  14.898
92382W        W57642  38.942  15.621   4.588
92383W        W57643   8.788  29.504   2.969
92384W        W57644  31.814  28.084   4.716
92385W        W57645  21.752  10.085  13.744
92386W        W57646   5.898   0.368   2.686
92387W        W57647  36.098  43.650   0.366
92388W        W57648  30.421  14.209  10.666
92389W        W57649  37.444   3.258  14.972
92390W        W57650  33.853  40.768   1.328
92391W        W57651  37.080  29.208  14.576
92392W        W57652  20.000  28.432  10.657
92393W        W57653  32.668  23.721   5.051
92394W        W57654  23.866  16.691   3.986
92395W        W57655   8.858   1.901   4.927
92396W        W57656  12.292   0.816   2.728
92397W        W57657   7.124  18.520   1.240
92398W        W57658  27.684  16.188   3.637
92399W        W57659  23.389  33.031  11.592
92400W        W57660   1.830  32.971   3.938
92401W        W57661   2.261  38.309  10.744
92402W        W57662   7.138  15.751  12.901
92403W        W57663   6.183  15.125  11.108
92404W        W57664  20.148  10.836   1.299
92405W        W57665  27.388  35.039  13.022
92406W        W57666   8.353  31.672  11.421
92407W        W57667   7.780  29.560   1.475
92408W        W57668  35.566  21.619  13.567
92409W        W57669  41.947  35.273   1.845
92410W        W57670  38.998  41.500   0.010
92411W        W57671   7.673  38.505  11.519
92412W        W57672  22.254  38.572  12.458
92413W        W57673  22.076  23.531   3.928
92414W        W57674  17.237  38.790   2.670
92415W        W57675  20.661  33.503   1.833
92416W        W57676  30.686  17.317   4.960
92417W        W57677  38.483  40.947   3.343
92418W        W57678  24.453  18.043  11.681
92419W        W57679  39.440  15.169  12.787
92420W        W57680  36.876  29.481   0.665
92421W        W57681  34.134  33.345   0.544
92422W        W57682   9.806  24.442   3.177
92423W        W57683  16.327  35.311   0.118
92424W        W57684  20.666  44.471   0.833
92425W        W57685   4.694  25.730  11.527
92426W        W57686   0.078  44.898  13.547
92427W        W57687  11.641   6.325   1.293
92428W        W57688   9.297  18.499   0.427
92429W        W57689  37.420   1.153   1.884
92430W        W57690   2.001  26.060   4.748
92431W        W57691  40.523   7.801   0.272
92432W        W57692  32.649  30.871   3.648
92433W        W57693  25.293  39.976  11.509
92434W        W57694  22.874  30.737  14.376
92435W        W57695  30.456  32.326  12.508
92436W        W57696  32.101  13.175  11.728
92437W        W57697  40.789  15.778  14.406
92438W        W57698  41.576  22.311   4.236
92439W        W57699  27.695  35.982  13.830
92440W        W57700  43.580  22.860   0.961
92441W        W57701   1.223   5.493  10.903
92442W        W57702  34.187  37.551  11.262
92443W        W57703  18.941  10.393  12.660
92444W        W57704  37.293  39.251  14.447
92445W        W57705   3.969  35.316   0.948
92446W        W57706  41.267  21.300   0.776
92447W        W57707  22.613  39.031   0.257
92448W        W57708  24.106   4.218  12.660
92449W        W57709  23.120  35.068   1.180
92450W        W57710   7.268  17.810  11.622
92451W        W57711  33.957  16.127  11.563
92452W        W57712  43.603  20.748  11.100
92453W        W57713  12.739  11.227   1.127
92454W        W57714  32.363   3.488   1.209
92455W        W57715  17.053   5.455   4.571
92456W        W57716  44.788   6.792   0.427
92457W        W57717  27.149  22.731   3.211
92458W        W57718  35.275  43.047   1.285
92459W        W57719  21.166  26.262  12.964
92460W        W57720  23.028  28.589   4.582
92461W        W57721   6.699   9.875   2.725
92462W        W57722  18.716   7.951  11.058
92463W        W57723  11.406  23.972  11.209
92464W        W57724  13.668   5.303  11.008
92465W        W57725  13.704  26.598   1.700
92466W        W57726  24.001   0.262   1.300
92467W        W57727   4.418  10.860   3.189
92468W        W57728  41.377  20.405   2.833
92469W        W57729  37.955  32.193  13.598
92470W        W57730  43.521  21.713   0.486
92471W        W57731  18.778   1.015  11.612
92472W        W57732   6.880  22.774  12.540
92473W        W57733  28.995   4.285   2.623
92474W        W57734  42.146  17.167   4.065
92475W        W57735  40.112  39.897  13.463
92476W        W57736  27.166  18.198   3.728
92477W        W57737  25.118   0.922   0.688
92478W        W57738  41.092  40.007   1.869
92479W        W57739   7.470  38.353   2.812
92480W        W57740  18.349  14.186  11.303
92481W        W57741  38.368  40.012  11.181
92482W        W57742  31.502  34.800  10.687
92483W        W57743   2.968   8.093  13.051
92484W        W57744   3.809   8.184  14.867
92485W        W57745   9.998  40.829  12.796
92486W        W57746   1.779  29.858  10.971
92487W        W57747   2.566  30.920   3.116
92488W        W57748  28.585  30.723  10.632
92489W        W57749  20.262  24.628   1.309
92490W        W57750  21.687  25.817   0.383
92491W        W57751  32.973  40.323   0.237
92492W        W57752  21.602  20.332  10.900
92493W        W57753   3.448  34.118   2.903
92494W        W57754  37.268   6.101  11.171
92495W        W57755   9.403  17.528   0.366
92496W        W57756   3.646  43.461   4.143
92497W        W57757  16.361  40.977  11.512
92498W        W57758   8.783   3.778   0.992
92499W        W57759   6.349  34.700  11.098
92500W        W57760  41.050   3.947   4.208
92501W        W57761   8.046  15.346   9.921
92502W        W57762  27.605  40.056  14.919
92503W        W57763  20.586   7.833   3.612
92504W        W57764  17.633  11.689  11.930
92505W        W57765  20.137  10.760  10.849
92506W        W57766  17.548  11.178  10.670
92507W        W57767  41.490   2.290   5.126
92508W        W57768  40.240  42.707  10.387
92509W        W57769   4.669  12.047  13.318
92510W        W57770  28.314  25.203  14.571
92511W        W57771  20.833  18.302   3.809
92512W        W57772  44.035  35.114  12.579
92513W        W57773  26.116  43.098   4.663
92514W        W57774  22.631  21.454  14.365
92515W        W57775  21.159  34.991  13.874
92516W        W57776   0.783  20.704  12.160
92517W        W57777  21.308  18.675  12.935
92518W        W57778  33.325  39.532  10.769
92519W        W57779  25.155   4.914  13.534
92520W        W57780  15.225  18.842   2.841
92521W        W57781  23.343  35.892   3.547
92522W        W57782  34.861   0.956  14.454
92523W        W57783  14.395  30.033  11.185
92524W        W57784  41.964  36.569   0.313
92525W        W57785  22.324   2.964   0.278
92526W        W57786   9.860  40.856  14.721
92527W        W57787  37.653  44.503   2.462
92528W        W57788  40.719  30.174   2.737
92529W        W57789  26.702   4.177   2.182
92530W        W57790  31.168  28.125  12.402
92531W        W57791   1.740  35.205   3.286
92532W        W57792   5.822  14.621  13.899
92533W        W57793  25.193  35.555   0.413
92534W        W57794  10.464  42.810  11.620
92535W        W57795   8.250  30.635   2.848
92536W        W57796   0.672   0.884  10.609
92537W        W57797  25.512  26.290   0.059
92538W        W57798   2.448  17.339   1.856
92539W        W57799  29.042  26.143  14.950
92540W        W57800  38.125  27.444   0.250
92541W        W57801  39.562  19.083  12.505
92542W        W57802  31.994   4.039  13.504
92543W        W57803   8.470  28.992  14.766
92544W        W57804  28.085  30.098  10.406
92545W        W57805   1.009   7.884   1.323
92546W        W57806  11.674  10.697  14.021
92547W        W57807  38.837  39.292  10.611
92548W        W57808  32.419  19.229  11.230
92549W        W57809  38.957  29.839  13.354
92550W        W57810  30.426  38.959   3.831
92551W        W57811  17.009   0.052   3.287
92552W        W57812  15.062  17.258  13.349
92553W        W57813  26.949   2.158  13.898
92554W        W57814  33.342  32.615   2.900
92555W        W57815  28.592   2.455  13.991
92556W        W57816  15.891   1.130   1.381
92557W        W57817   7.623  43.480  14.297
92558W        W57818  36.801  16.307   0.013
92559W        W57819  21.447  39.585   3.909
92560W        W57820  30.482   1.395   2.052
92561W        W57821  20.157   2.283  13.793
92562W        W57822  12.577   5.259   3.235
92563W        W57823   1.514   6.858  14.369
92564W        W57824  36.472  25.418  14.397
92565W        W57825   4.135  27.593   0.840
92566W        W57826  42.514   9.708  13.425
92567W        W57827  30.048   7.227   3.170
92568W        W57828  44.041  31.446  12.082
92569W        W57829  21.679   4.246  11.544
92570W        W57830  26.138   1.451   0.920
92571W        W57831  40.831  12.522  13.378
92572W        W57832  24.381  22.968   5.047
92573W        W57833  35.942  29.146   2.658
92574W        W57834  20.585  27.729   1.739
92575W        W57835  36.780   0.118   0.084
92576W        W57836  30.382   8.215  11.686
92577W        W57837  22.110   6.232  12.570
92578W        W57838  27.230  24.457   0.860
92579W        W57839  38.827  29.942   2.116
92580W        W57840  24.666  28.937  12.437
92581W        W57841  44.351  22.619   2.840
92582W        W57842  41.125   1.560  13.126
92583W        W57843  33.606  12.775   4.898
92584W        W57844  31.631  31.679   2.425
92585W        W57845  41.820  34.370  10.917
92586W        W57846  27.013  30.669   2.719
92587W        W57847  31.451  19.036  12.299
92588W        W57848   3.007  14.695   2.658
92589W        W57849  25.697  15.784   4.552
92590W        W57850  41.102   0.135   0.872
92591W        W57851  17.169  31.082   2.292
92592W        W57852   8.752   4.344   1.906
92593W        W57853  39.777  29.677   1.701
92594W        W57854   3.901  20.063  13.017
92595W        W57855  16.711  11.247  12.819
92596W        W57856  34.824  29.599  13.779
92597W        W57857  25.557  26.601   1.669
92598W        W57858  13.364  31.532   4.366
92599W        W57859  35.021  19.203   0.532
92600W        W57860  16.629  11.746  14.512
92601W        W57861   7.396   4.956  13.152
92602W        W57862   6.317  37.923  14.511
92603W        W57863  30.752  13.867  10.433
92604W        W57864  14.806   9.096  14.257
92605W        W57865   5.636  23.620   4.793
92606W        W57866  18.121   4.709   4.929
92607W        W57867  24.739   9.280  11.749
92608W        W57868  31.101  28.850  13.976
92609W        W57869  14.872  35.616  10.648
92610W        W57870  13.189  20.478  14.958
92611W        W57871  33.625  16.491  10.248
92612W        W57872   2.965   6.794  11.974
92613W        W57873  14.273  16.211  11.164
92614W        W57874   8.225   0.216  10.300
92615W        W57875  30.644  41.076   3.713
92616W        W57876  43.348  27.771   0.319
92617W        W57877  24.822  13.302  14.317
92618W        W57878  44.771  17.728   2.926
92619W        W57879  23.154  43.650   4.505
92620W        W57880  13.322  36.608   0.350
92621W        W57881  22.583  34.310  13.901
92622W        W57882  39.875  23.142  13.407
92623W        W57883  28.215  29.537   2.694
92624W        W57884  15.728  25.091  11.567
92625W        W57885  12.817  44.502   0.304
92626W        W57886  12.190  15.654  11.936
92627W        W57887   1.033   9.958   2.425
92628W        W57888   0.894   7.764   3.734
92629W        W57889  40.972  25.059  13.310
92630W        W57890  22.181  37.804  13.026
92631W        W57891  12.312  32.833  10.785
92632W        W57892  31.413  13.770  14.368
92633W        W57893  19.244  24.779   1.795
92634W        W57894  25.449  32.380  14.772
92635W        W57895   7.654  38.827   0.337
92636W        W57896  34.451  22.856   3.623
92637W        W57897  38.278  32.998   0.341
92638W        W57898   5.401  38.003  10.945
92639W        W57899  39.754   0.367   3.165
92640W        W57900  34.885  23.059  14.802
92641W        W57901  18.667   9.049   1.167
92642W        W57902   8.996  13.158  12.351
92643W        W57903  24.360  26.282  11.175
92644W        W57904  38.292  44.061   1.391
92645W        W57905  34.527  35.566   1.067
92646W        W57906  18.232   5.816   4.146
92647W        W57907  28.091  16.788  14.256
92648W        W57908   3.397  25.437  14.994
92649W        W57909  12.398  35.017  11.601
92650W        W57910  29.362  24.961   5.049
92651W        W57911  32.493  13.879  12.098
92652W        W57912  24.509  39.075  14.849
92653W        W57913   6.809   9.780  13.373
92654W        W57914  41.035  42.355  14.520
92655W        W57915  12.237  37.827   4.399
92656W        W57916  16.241  23.073  12.003
92657W        W57917  15.961  21.273  10.769
92658W        W57918   9.934  21.869  11.522
92659W        W57919   0.976  19.521   0.140
92660W        W57920  44.462  28.898   2.273
92661W        W57921  12.144  37.885   0.479
92662W        W57922  15.483   8.255   9.752
92663W        W57923   6.205  13.363   2.354
92664W        W57924  43.845  42.465   0.770
92665W        W57925  35.585  14.710  14.390
92666W        W57926  42.611  17.631   1.774
92667W        W57927  29.421  39.353   1.584
92668W        W57928  14.960  24.215  12.992
92669W        W57929  20.315  28.502   2.787
92670W        W57930  14.289  27.089  11.925
92671W        W57931  27.227  42.794   0.507
92672W        W57932  36.028  29.648   4.706
92673W        W57933  39.591  17.873  13.412
92674W        W57934  22.738   1.779  12.439
92675W        W57935   3.851   0.683  11.263
92676W        W57936  22.036  39.879   0.370
92677W        W57937  23.176  25.211   4.482
92678W        W57938  20.507  29.924   3.209
92679W        W57939   3.240  36.536  11.548
92680W        W57940  40.907  25.982  12.475
92681W        W57941  33.925  27.474   2.377
92682W        W57942  24.730  13.240   4.368
92683W        W57943  18.498  22.238  12.098
92684W        W57944   1.740  27.248   1.794
92685W        W57945  40.513  32.146  12.528
92686W        W57946  44.824   2.769  14.314
92687W        W57947  40.815  13.240   1.236
92688W        W57948  39.458   4.775   4.606
92689W        W57949  11.558  10.900   3.209
92690W        W57950   1.305  17.538  12.318
92691W        W57951   7.651  21.367   2.811
92692W        W57952   3.478   8.406  12.218
92693W        W57953  15.773  39.281  14.346
92694W        W57954  13.653  37.078   3.234
92695W        W57955   2.479  17.604   1.309
92696W        W57956   2.876  14.788   1.658
92697W        W57957   5.403  25.540  13.497
92698W        W57958  21.705  22.893  12.461
92699W        W57959  27.578  20.374  11.565
92700W        W57960  40.021   5.263   3.877
92701W        W57961   3.065  25.483   0.790
92702W        W57962  44.164  10.472   2.301
92703W        W57963   3.839  41.373   1.339
92704W        W57964  35.802  26.654  13.828
92705W        W57965  21.897  44.724   0.959
92706W        W57966  17.995   5.693   4.584
92707W        W57967  10.270  10.741   0.896
92708W        W57968  39.031   0.536  14.838
92709W        W57969   9.752   7.232  14.250
92710W        W57970  32.220  27.862   9.807
92711W        W57971  13.669  37.566   0.331
92712W        W57972   8.324   9.603   2.385
92713W        W57973   9.659   4.969   4.602
92714W        W57974  41.703  43.348  12.954
92715W        W57975  27.077  31.699   2.875
92716W        W57976  37.925   6.564  12.916
92717W        W57977  24.972  20.181   0.263
92718W        W57978  33.811  31.137   0.296
92719W        W57979  38.556  15.977   2.219
92720W        W57980  21.124  23.029   0.504
92721W        W57981  25.022  42.106   4.137
92722W        W57982   0.468  12.347  12.261
92723W        W57983   3.682  17.728  11.997
92724W        W57984  35.291   4.324   1.219
92725W        W57985  42.763  19.209   3.140
92726W        W57986   1.764  30.859  10.555
92727W        W57987  11.389  35.344  14.373
92728W        W57988   5.906  26.683   2.705
92729W        W57989   8.916  32.991   1.867
92730W        W57990  37.993  16.488   2.710
92731W        W57991   6.166   3.843  13.347
92732W        W57992  20.713  23.223  11.595
92733W        W57993  32.984   9.626  14.867
92734W        W57994  14.125   2.633   4.217
92735W        W57995  26.086  20.522   2.570
92736W        W57996   6.721  22.099   2.244
92737W        W57997  44.551  29.034   3.125
92738W        W57998  18.039   1.794  11.152
92739W        W57999  36.931  36.738  10.826
92740W        W58000   4.007   3.568  14.280
92741W        W58001   2.880  29.497   0.884
92742W        W58002  17.954   4.208   0.260
92743W        W58003  25.559  28.946  12.126
92744W        W58004   1.309  44.963  12.551
92745W        W58005   3.791  42.517  14.738
92746W        W58006   5.702  27.016  14.520
92747W        W58007  34.087  27.167   1.969
92748W        W58008  10.578   1.453   1.541
92749W        W58009   7.939  44.466   2.607
92750W        W58010   9.934  23.497  14.995
92751W        W58011  38.986  42.017  14.389
92752W        W58012  14.656  30.147   0.497
92753W        W58013  11.144   2.051  12.459
92754W        W58014   3.014  18.795   1.537
92755W        W58015  12.599  34.082   4.483
92756W        W58016   5.924  37.060   4.138
92757W        W58017  15.749  22.238   2.716
92758W        W58018   5.173  32.471   1.740
92759W        W58019   0.445  31.184   3.801
92760W        W58020  15.743  27.635   4.106
92761W        W58021   5.214  17.657   3.398
92762W        W58022  16.727   1.335   4.139
92763W        W58023   8.258  35.980  11.788
92764W        W58024  42.294  34.845   2.894
92765W        W58025  20.512  42.976  14.800
92766W        W58026  14.958   9.901  10.431
92767W        W58027  41.364  32.081   4.223
92768W        W58028   3.944   4.193  10.676
92769W        W58029   9.284   6.480   2.337
92770W        W58030  18.712  25.151  11.589
92771W        W58031  14.809  36.917   4.748
92772W        W58032   2.791   4.654  11.177
92773W        W58033  23.351  24.426   4.549
92774W        W58034   1.295  12.277  13.865
92775W        W58035  18.056   3.218   1.477
92776W        W58036   6.539  15.643   0.203
92777W        W58037  33.207  28.689   4.108
92778W        W58038   9.357  13.116   4.762
92779W        W58039  16.638  25.519  11.514
92780W        W58040  24.292  20.227   1.400
92781W        W58041   0.483  43.260  14.341
92782W        W58042  35.115  36.944   2.768
92783W        W58043   5.992  39.581  13.972
92784W        W58044  17.394  34.115  14.947
92785W        W58045  29.452  10.156  13.313
92786W        W58046  32.564   3.476  14.003
92787W        W58047  17.077  27.415   1.560
92788W        W58048  37.419  35.851  12.087
92789W        W58049  30.602   4.711   4.459
92790W        W58050   9.388  43.868  11.124
92791W        W58051   2.809  13.318  10.681
92792W        W58052   6.938   5.735   4.738
92793W        W58053  26.378  22.782  14.891
92794W        W58054   4.816  19.508  13.437
92795W        W58055  42.283   2.012  10.982
92796W        W58056  42.488  25.266   4.692
92797W        W58057   6.980  13.715  13.495
92798W        W58058   6.732  22.663   1.861
92799W        W58059  27.531  42.687   3.640
92800W        W58060  40.348   7.663   4.567
92801W        W58061  34.395  32.478   1.416
92802W        W58062   0.488   6.595  10.734
92803W        W58063   8.353  28.116   3.119
92804W        W58064   1.658  30.491  11.701
92805W        W58065   6.184  15.819  10.742
92806W        W58066  18.025  21.756   1.643
92807W        W58067  34.929  11.660   3.660
92808W        W58068  28.400  13.314   4.359
92809W        W58069  22.343   6.296  12.118
92810W        W58070  36.401   2.576  11.639
92811W        W58071   5.691  30.631   0.328
92812W        W58072  35.479   9.983  12.460
92813W        W58073  26.097  41.073  11.208
92814W        W58074  17.646  43.272  11.569
92815W        W58075   9.496  17.259  13.171
92816W        W58076  36.033   5.660  14.292
92817W        W58077   4.260  10.662  10.555
92818W        W58078   6.202   9.789  11.505
92819W        W58079  29.373  41.840  10.737
92820W        W58080  23.694  14.449   3.622
92821W        W58081  32.621  12.191   3.413
92822W        W58082  44.826  27.731  13.347
92823W        W58083  37.415  28.220   2.159
92824W        W58084  24.073  36.923  14.712
92825W        W58085   1.247  30.339  14.303
92826W        W58086  26.536  41.736  11.949
92827W        W58087  11.683  36.021  14.360
92828W        W58088  27.839   5.210   2.813
92829W        W58089  14.721  23.473  14.778
92830W        W58090   0.205  28.673   1.308
92831W        W58091  32.006  26.564   1.148
92832W        W58092  26.175  13.571  10.490
92833W        W58093   8.788  33.103   2.390
92834W        W58094  40.465   6.401   0.420
92835W        W58095  10.299  40.039   3.315
92836W        W58096  14.798   8.324  11.677
92837W        W58097   7.246   5.498   2.453
92838W        W58098  42.464   2.261   2.736
92839W        W58099  39.009  10.238  13.423
92840W        W58100  36.021  40.746   4.696
92841W        W58101  33.198   4.083   0.477
92842W        W58102  44.954   1.866   1.904
92843W        W58103   8.605  40.964  13.200
92844W        W58104  42.287  14.210   2.250
92845W        W58105  39.922  13.303   1.463
92846W        W58106  41.070   2.018   4.128
92847W        W58107  32.903  33.111   0.150
92848W        W58108  18.520  44.802   2.263
92849W        W58109  36.160   0.405  14.405
92850W        W58110  38.727  16.999  12.840
92851W        W58111  42.002  30.294  10.260
92852W        W58112   4.708  42.028  10.593
92853W        W58113  18.779  10.698  13.026
92854W        W58114  23.430  23.721   2.372
92855W        W58115  36.519  25.873   0.537
92856W        W58116  36.788  13.823   2.025
92857W        W58117   7.865   7.941  11.994
92858W        W58118  22.587  24.461   3.582
92859W        W58119  29.017  21.073   1.192
92860W        W58120  21.132  31.008   2.312
92861W        W58121  27.577  26.999   2.342
92862W        W58122  19.302  31.640  14.716
92863W        W58123  36.638   6.232  13.657
92864W        W58124   7.311  22.447  12.470
92865W        W58125   8.100   7.431  12.584
92866W        W58126   5.425   0.936  10.625
92867W        W58127   3.177  19.958   2.352
92868W        W58128  18.005  19.064  14.098
92869W        W58129  30.484  14.374  14.409
92870W        W58130  25.302  30.113  13.352
92871W        W58131  22.739   8.253  14.543
92872W        W58132   7.143  13.205   3.120
92873W        W58133  18.144  42.745  13.867
92874W        W58134  25.160  19.276   3.078
92875W        W58135  28.529  12.272   0.145
92876W        W58136  43.826  14.119   2.665
92877W        W58137  41.854   2.487  10.675
92878W        W58138  20.672  18.760   0.958
92879W        W58139  14.055  20.678   2.216
92880W        W58140   2.988  18.786  12.106
92881W        W58141  37.112  43.328  13.476
92882W        W58142  16.303  16.538   3.779
92883W        W58143  14.672  38.105  11.935
92884W        W58144  21.145   4.299  11.576
92885W        W58145  23.991  18.690   2.850
92886W        W58146   7.777  20.481   2.269
92887W        W58147  11.005  34.598   3.996
92888W        W58148  21.961   0.319   4.568
92889W        W58149  11.184  24.204  12.997
92890W        W58150   4.860  43.194  13.310
92891W        W58151  26.041  22.464   4.567
92892W        W58152  44.882  26.622   3.271
92893W        W58153  39.055  35.119   4.178
92894W        W58154   4.656  13.595   3.718
92895W        W58155   6.349  17.808  11.670
92896W        W58156  41.873  17.830   2.201
92897W        W58157  20.742  39.319   1.295
92898W        W58158  23.004  22.581  10.660
92899W        W58159   9.478  31.103  14.361
92900W        W58160  33.120   4.214   2.327
92901W        W58161  13.895  13.911  11.098
92902W        W58162  18.774  11.124   2.241
92903W        W58163  29.183  18.597  12.530
92904W        W58164  17.081  19.255   2.948
92905W        W58165  10.621  25.348  10.321
92906W        W58166   9.127  33.903  10.608
92907W        W58167   1.637  42.545   4.685
92908W        W58168  41.708   0.499  13.485
92909W        W58169  11.203   8.334   2.044
92910W        W58170   5.665  10.511  10.231
92911W        W58171   4.983  29.315   4.888
92912W        W58172  22.971   2.019  14.808
92913W        W58173  20.035  17.778   2.574
92914W        W58174  38.475  16.376  12.817
92915W        W58175   1.303  35.510  12.891
92916W        W58176  34.898  22.992  12.098
92917W        W58177   1.316  23.997   5.456
92918W        W58178   1.486  29.554   1.787
92919W        W58179  38.390  21.419  10.933
92920W        W58180  39.529   3.946   2.161
92921W        W58181  19.062  34.420   2.726
92922W        W58182  15.244  23.663  14.759
92923W        W58183   5.243  43.275   4.904
92924W        W58184  43.574  27.161   3.763
92925W        W58185  40.040  10.129  10.941
92926W        W58186  16.334   2.697   2.668
92927W        W58187  41.533  30.983   1.842
92928W        W58188  42.898  25.598   5.051
92929W        W58189  37.844  34.850   3.682
92930W        W58190   2.216  40.442  13.518
92931W        W58191   7.688  19.449   0.441
92932W        W58192  33.679  15.293   0.008
92933W        W58193  28.139   6.957   0.329
92934W        W58194  11.258   8.381  12.404
92935W        W58195   7.387  30.632   2.395
92936W        W58196  15.251  37.471  12.493
92937W        W58197  11.447  39.938  11.092
92938W        W58198  13.441  29.549   1.078
92939W        W58199  26.172  32.994  11.676
92940W        W58200  16.649  34.815   4.600
92941W        W58201  26.201  40.808   2.199
92942W        W58202  13.557  16.022  12.917
92943W        W58203   2.244  38.406   2.796
92944W        W58204  38.485  28.517   2.892
92945W        W58205  30.186  41.773   4.615
92946W        W58206   9.742  27.198  11.751
92947W        W58207  22.498  38.184   3.736
92948W        W58208  19.797  25.954  12.278
92949W        W58209  20.313  28.148  13.813
92950W        W58210  37.612  35.931   3.204
92951W        W58211   2.771  33.695   3.302
92952W        W58212   7.809   5.770   1.187
92953W        W58213  16.688  28.985   2.905
92954W        W58214  26.645  24.351   4.750
92955W        W58215   3.098  14.539  14.601
92956W        W58216   4.985   0.908   4.509
92957W        W58217  21.330   4.071  13.582
92958W        W58218   7.678  10.908   1.701
92959W        W58219  34.867  36.904   1.835
92960W        W58220  34.509  34.086  12.615
92961W        W58221  14.400  26.741  12.399
92962W        W58222  44.717   1.320   4.628
92963W        W58223   4.634   9.209   0.806
92964W        W58224  28.408  27.460   0.041
92965W        W58225  28.676  33.395  10.735
92966W        W58226  26.314  18.368  14.751
92967W        W58227  27.541  35.109  12.544
92968W        W58228  22.159  33.166  11.646
92969W        W58229  11.971   0.312  11.932
92970W        W58230  19.639   4.705   3.198
92971W        W58231   1.139  10.720  10.214
92972W        W58232  40.748  24.292   3.796
92973W        W58233   4.315  20.929   4.064
92974W        W58234  31.701   5.380  11.403
92975W        W58235  35.471  28.829   3.261
92976W        W58236   6.375  24.538   0.744
92977W        W58237  43.959  37.458  11.250
92978W        W58238   7.810   4.412   0.302
92979W        W58239  17.545  26.082  12.062
92980W        W58240   1.998  20.125  14.508
92981W        W58241  28.567  37.443   4.272
92982W        W58242  43.931   7.875   4.839
92983W        W58243  11.552   3.930  10.496
92984W        W58244  14.433  33.884  11.021
92985W        W58245  40.362   1.499   3.739
92986W        W58246  39.453  33.122   5.030
92987W        W58247   1.837  15.217  13.058
92988W        W58248  23.026  40.915   4.424
92989W        W58249  16.971  23.765   3.271
92990W        W58250  38.083   3.443   3.854
92991W        W58251  21.768  18.556  12.528
92992W        W58252  34.596  40.354   0.346
92993W        W58253   8.159   2.974   0.957
92994W        W58254  41.884  27.011  11.367
92995W        W58255  29.950  29.651  10.559
92996W        W58256  36.907  27.965  11.645
92997W        W58257  29.643   6.028  13.706
92998W        W58258  10.738  13.094  11.480
92999W        W58259  40.595  39.334  12.112
93000W        W58260  14.067  21.242  12.572
93001W        W58261  28.470  42.070   0.366
93002W        W58262  18.761  43.304  14.507
93003W        W58263  24.689  23.176  11.736
93004W        W58264   9.626  16.195  11.875
93005W        W58265  33.985  40.311  12.401
93006W        W58266  25.141   5.947   4.308
93007W        W58267  34.553  26.986  13.387
93008W        W58268  14.851  28.608  12.633
93009W        W58269   7.167  28.478   1.947
93010W        W58270  38.029  14.038   2.061
93011W        W58271   4.234  26.077  12.008
93012W        W58272  20.032   9.137  12.972
93013W        W58273  29.465   0.749  11.466
93014W        W58274  35.978  39.420   4.379
93015W        W58275  20.713  30.588   4.911
93016W        W58276  35.325  35.610   0.431
93017W        W58277   7.209  12.977  11.120
93018W        W58278  44.629  38.379  12.715
93019W        W58279  24.938  26.116   0.583
93020W        W58280   6.776  13.733   1.411
93021W        W58281  15.695  38.994   0.820
93022W        W58282  40.836  20.999  14.454
93023W        W58283  29.944   2.020   3.128
93024W        W58284  11.355  21.255   0.952
93025W        W58285  25.833  40.051   5.063
93026W        W58286   7.506  20.046  10.998
93027W        W58287   0.898  33.465   1.207
93028W        W58288  30.923  38.104  10.732
93029W        W58289  32.151  34.605   2.321
93030W        W58290  11.546  44.279   2.208
93031W        W58291   6.254  27.213   0.390
93032W        W58292  18.089  15.518  13.894
93033W        W58293  13.139  16.593   3.778
93034W        W58294  11.111  38.311  14.497
93035W        W58295  30.415  39.788  14.381
93036W        W58296  33.449  36.566   0.673
93037W        W58297  42.546   4.926   2.221
93038W        W58298  17.504  32.245   0.457
93039W        W58299  12.677   5.627   3.574
93040W        W58300   3.064  21.523   4.638
93041W        W58301  10.550  27.122  12.878
93042W        W58302  15.814  33.380  10.752
93043W        W58303   3.444  41.976  12.098
93044W        W58304   3.328  43.680  14.909
93045W        W58305  15.533   5.352  13.477
93046W        W58306  14.262   0.287  12.535
93047W        W58307  24.612  28.903  14.010
93048W        W58308   7.789   7.188   9.937
93049W        W58309  27.521  27.218   4.508
93050W        W58310  20.540  20.136  13.027
93051W        W58311   6.215   8.868   3.613
93052W        W58312  25.068  39.852   2.979
93053W        W58313  31.110  38.892  11.372
93054W        W58314  36.200  42.275   0.928
93055W        W58315  10.431  32.745   1.415
93056W        W58316  23.566   6.955   5.145
93057W        W58317   8.839  19.527   4.310
93058W        W58318  31.516  42.491   4.856
93059W        W58319   1.325  31.025   3.818
93060W        W58320  15.645  27.567  11.956
93061W        W58321  19.086  17.756   2.973
93062W        W58322  24.245   1.848   2.738
93063W        W58323  15.032   5.684   1.777
93064W        W58324  43.029   9.384  10.629
93065W        W58325  17.873  27.186   4.820
93066W        W58326  21.588   7.823   3.027
93067W        W58327  17.188  25.744  10.927
93068W        W58328  29.771  39.217  11.412
93069W        W58329  13.014  39.881   4.196
93070W        W58330  36.847   9.285  14.157
93071W        W58331  40.388  15.322   2.214
93072W        W58332  13.833  17.163  11.493
93073W        W58333   5.796  20.026  13.551
93074W        W58334  19.742  10.115   0.065
93075W        W58335  20.542  42.855   0.736
93076W        W58336  10.182  24.553  14.534
93077W        W58337  32.562  31.093   4.538
93078W        W58338   2.947   0.028   1.647
93079W        W58339  38.456  19.855   0.966
93080W        W58340  23.641  36.742  13.035
93081W        W58341   5.318  27.003   5.074
93082W        W58342  43.220   8.951   4.256
93083W        W58343  20.254  39.110   1.518
93084W        W58344  37.565   8.813   3.229
93085W        W58345   9.190  28.740  14.381
93086W        W58346   5.191  25.648  13.984
93087W        W58347  19.587  42.663   3.573
93088W        W58348  38.053  29.789   2.848
93089W        W58349  40.867  37.851  13.031
93090W        W58350  39.621  33.613  11.354
93091W        W58351  40.255  32.393  12.127
93092W        W58352  31.922  28.222  11.109
93093W        W58353  32.647   2.430  13.935
93094W        W58354   5.046  22.702   4.688
93095W        W58355   6.621   0.706  14.814
93096W        W58356  17.263  16.774  14.878
93097W        W58357   6.657  16.228   3.394
93098W        W58358  34.471  14.888  14.743
93099W        W58359  22.862  13.177   3.163
93100W        W58360  21.568   6.916   1.413
93101W        W58361  31.479  26.153   2.280
93102W        W58362  10.872  20.550   0.044
93103W        W58363   1.229   1.479   0.020
93104W        W58364  12.100   8.930   5.115
93105W        W58365  26.552  38.370   1.889
93106W        W58366   0.634  18.805   4.282
93107W        W58367  43.570  11.222  15.000
93108W        W58368  23.653  42.792  14.914
93109W        W58369  30.103  31.475   1.402
93110W        W58370  20.699  25.981   3.425
93111W        W58371  13.566   2.728   1.825
93112W        W58372  25.083  13.031  12.995
93113W        W58373  36.351   9.283   3.391
93114W        W58374  16.591  22.666  12.073
93115W        W58375  29.104  13.561  14.699
93116W        W58376   9.848  23.524   4.592
93117W        W58377  26.120  26.476  11.662
93118W        W58378  32.624  20.172  10.736
93119W        W58379  44.027  17.474   1.291
93120W        W58380   1.442  42.964   3.176
93121W        W58381  42.408  15.833   1.140
93122W        W58382  41.823   6.392   3.169
93123W        W58383  30.475  29.074   0.372
93124W        W58384  15.288  41.482   2.379
93125W        W58385   7.205   4.922  11.613
93126W        W58386  38.915  16.699  11.544
93127W        W58387  38.387  42.049  11.545
93128W        W58388  39.988  33.747  11.679
93129W        W58389  20.427  41.862  14.590
93130W        W58390  34.364  35.396   3.252
93131W        W58391  12.657   1.719  12.297
93132W        W58392  38.046   3.325  14.002
93133W        W58393  23.619  15.648  12.997
93134W        W58394  43.733  26.487  12.311
93135W        W58395  29.561  40.515  10.767
93136W        W58396  11.578  24.733   2.680
93137W        W58397  20.089  13.658  10.722
93138W        W58398  32.031  10.150  14.990
93139W        W58399  30.790  11.820  13.826
93140W        W58400   1.438   7.161  14.951
93141W        W58401  15.101  26.148   2.343
93142W        W58402  15.655  18.067  13.250
93143W        W58403  25.174  32.882   0.498
93144W        W58404   7.882  36.045   4.071
93145W        W58405  37.574  14.638   3.577
93146W        W58406  21.976  12.460  12.667
93147W        W58407  11.211  31.474   0.313
93148W        W58408   9.391  13.590  14.864
93149W        W58409  12.059  20.114   3.684
93150W        W58410  15.033   7.459   2.273
93151W        W58411  25.405   8.161  12.017
93152W        W58412   1.445  24.770   3.734
93153W        W58413  28.260  43.031   2.209
93154W        W58414  17.180  40.268  13.584
93155W        W58415  44.911  39.877   2.649
93156W        W58416   3.875   6.665  14.005
93157W        W58417   7.801  36.590  10.777
93158W        W58418  30.106  24.435  13.440
93159W        W58419   0.980  44.043  14.752
93160W        W58420  34.901   2.977   4.150
93161W        W58421  14.702   2.916  13.259
93162W        W58422  17.970  23.692  12.096
93163W        W58423  42.743  27.608   2.839
93164W        W58424  36.073  30.215  10.985
93165W        W58425   6.298  20.739   2.086
93166W        W58426  10.180  41.745   2.226
93167W        W58427  28.546   7.346   4.436
93168W        W58428  40.006  23.770  10.743
93169W        W58429  14.429  34.418  11.534
93170W        W58430  27.989   0.521   2.623
93171W        W58431   0.168   9.839  12.834
93172W        W58432  20.846  28.641  11.553
93173W        W58433   7.858  29.458   0.988
93174W        W58434   3.875  21.658  14.069
93175W        W58435  10.891  29.915   2.863
93176W        W58436  13.806  34.056   3.118
93177W        W58437  22.463  34.434   1.360
93178W        W58438  35.906   2.747   2.936
93179W        W58439   8.672  14.728   2.839
93180W        W58440  11.291  35.522  10.711
93181W        W58441  11.448  31.605  12.503
93182W        W58442  37.900  19.634  14.361
93183W        W58443  37.148   0.303   3.792
93184W        W58444   7.146  32.553   2.775
93185W        W58445  25.119  11.109   4.503
93186W        W58446   5.243   7.754  10.999
93187W        W58447  15.779  40.295   3.116
93188W        W58448  30.369   2.450  12.829
93189W        W58449   4.190  29.719  13.963
93190W        W58450   5.794  21.325   1.670
93191W        W58451  12.440  20.671  11.608
93192W        W58452  11.921   3.261  13.811
93193W        W58453  27.473  10.590   0.330
93194W        W58454  15.879  39.380  11.612
93195W        W58455   3.914  43.759  11.946
93196W        W58456  16.829  30.591  10.595
93197W        W58457  24.291  25.237   4.760
93198W        W58458   5.708  11.342  12.367
93199W        W58459  18.126  27.452  11.713
93200W        W58460  32.834  18.566  14.475
93201W        W58461   4.489   9.970  14.997
93202W        W58462  18.370  29.494   3.207
93203W        W58463   1.880  19.971  10.720
93204W        W58464  35.033  32.368   0.249
93205W        W58465  22.623  35.899   1.045
93206W        W58466  23.481  12.372  12.053
93207W        W58467  44.852  19.145  11.453
93208W        W58468  32.607  26.140  11.147
93209W        W58469  11.704  32.311   5.041
93210W        W58470   9.734  33.368   3.982
93211W        W58471   1.271  34.437   2.313
93212W        W58472  10.179  25.869  11.547
93213W        W58473  16.423  37.382   1.733
93214W        W58474  18.175  44.769  11.076
93215W        W58475  28.388  24.946   0.360
93216W        W58476  42.952  38.790   0.116
93217W        W58477  40.453  16.667  10.628
93218W        W58478  38.887  28.679   4.137
93219W        W58479  42.523   8.496   1.307
93220W        W58480   1.430  23.188  10.284
93221W        W58481   6.694  18.284   4.662
93222W        W58482  15.536  17.176  13.543
93223W        W58483  44.922  16.825  14.828
93224W        W58484  13.128  31.193  11.553
93225W        W58485  11.693  40.824   4.910
93226W        W58486  24.759   2.612   3.761
93227W        W58487  22.589  34.375   3.589
93228W        W58488  18.979  21.223   2.591
93229W        W58489   5.240  39.539  13.459
93230W        W58490  15.609  10.103  12.883
93231W        W58491  27.959  24.661   1.326
93232W        W58492   8.293  42.057   0.082
93233W        W58493   4.080  23.113  13.205
93234W        W58494   2.879   1.347   4.402
93235W        W58495  11.716  31.713   3.125
93236W        W58496  28.140  18.343   3.850
93237W        W58497   8.953  20.070  12.438
93238W        W58498  23.105   7.589  14.779
93239W        W58499   7.802   6.414  14.354
93240W        W58500  42.495  36.579   1.219
93241W        W58501  38.483  41.562   0.142
93242W        W58502  30.712  40.111   1.697
93243W        W58503  14.624  19.615  13.893
93244W        W58504  42.878   1.988   1.372
93245W        W58505  43.312  40.255   0.759
93246W        W58506  30.866   6.849  13.459
93247W        W58507  35.420  21.596  11.978
93248W        W58508  18.144  30.964  10.632
93249W        W58509  41.833   1.752   0.829
93250W        W58510  10.436  26.407   1.706
93251W        W58511   6.419  14.735   4.158
93252W        W58512  31.651  40.279   3.112
93253W        W58513  13.583  28.089   1.448
93254W        W58514  21.130  21.832  13.922
93255W        W58515   7.318  28.368   1.458
93256W        W58516  21.715  42.297  11.547
93257W        W58517  28.052  26.460   0.324
93258W        W58518  24.028  14.891   0.740
93259W        W58519  18.068   2.779   1.771
93260W        W58520  23.241  17.138   2.143
93261W        W58521   2.865  18.369   1.239
93262W        W58522   1.503  38.381  11.207
93263W        W58523  41.337  29.697  13.784
93264W        W58524  44.644  23.457  11.537
93265W        W58525  13.747  10.703  13.848
93266W        W58526  39.445  27.453  10.578
93267W        W58527   0.201  24.493   4.457
93268W        W58528  33.127  31.578  13.484
93269W        W58529  25.492  13.589  12.964
93270W        W58530   7.486  36.465  12.144
93271W        W58531   5.892  26.666  12.144
93272W        W58532  22.096  38.320   0.322
93273W        W58533  13.622   7.717  12.475
93274W        W58534  42.421  24.221   3.921
93275W        W58535  32.441  16.820  12.018
93276W        W58536  43.969  37.490   2.452
93277W        W58537  22.004   3.532   2.324
93278W        W58538  27.745  22.713  14.483
93279W        W58539   1.799   4.637  12.898
93280W        W58540  15.870  19.322  14.768
93281W        W58541  14.476  28.646   1.210
93282W        W58542   4.027  14.281   2.938
93283W        W58543  31.008  31.515   3.059
93284W        W58544  10.169  34.007  13.434
93285W        W58545   2.385   6.111   3.273
93286W        W58546  39.516  39.380  11.150
93287W        W58547  44.582  39.759   0.850
93288W        W58548  14.072  18.578   3.238
93289W        W58549   4.457  25.499   3.915
93290W        W58550  23.096  40.556   1.992
93291W        W58551  33.015  30.124  14.956
93292W        W58552  19.220  41.062   2.153
93293W        W58553  35.847  24.709   2.915
93294W        W58554  20.253  11.591  14.067
93295W        W58555  40.494  33.527   4.526
93296W        W58556  36.701   2.765  10.658
93297W        W58557  24.157   1.041   3.077
93298W        W58558  26.990   6.071  10.374
93299W        W58559  21.850   7.153  11.086
93300W        W58560  10.397  18.290  12.435
93301W        W58561  15.305   0.845   4.527
93302W        W58562   3.196  23.071  12.689
93303W        W58563  44.627  11.312  11.585
93304W        W58564  31.031  21.020   0.268
93305W        W58565  17.577   2.873   3.686
93306W        W58566  16.042  30.226  12.111
93307W        W58567  34.185   0.385   4.242
93308W        W58568  31.403  43.814  12.916
93309W        W58569  19.700  27.529   4.582
93310W        W58570   3.605  30.458  10.344
93311W        W58571  41.066  40.006   3.208
93312W        W58572   7.194  15.371   2.091
93313W        W58573   5.619   5.231  13.546
93314W        W58574  41.043  10.417   4.636
93315W        W58575  35.925  16.556  14.062
93316W        W58576   0.202   8.728  14.949
93317W        W58577  43.788  27.583   2.450
93318W        W58578  42.747  27.414   1.289
93319W        W58579  16.517  12.837  11.606
93320W        W58580   9.061  16.800   2.318
93321W        W58581  22.474  14.153   2.700
93322W        W58582  20.747  13.808   2.296
93323W        W58583  16.661  20.107  13.034
93324W        W58584  12.234   3.801  13.938
93325W        W58585  17.989  13.239  11.165
93326W        W58586  33.249  18.277  10.731
93327W        W58587  16.598  26.140   0.801
93328W        W58588  12.480  30.705   4.094
93329W        W58589   2.051  22.698  14.974
93330W        W58590   4.844  40.526  12.600
93331W        W58591  36.401  21.977  14.972
93332W        W58592  10.851  12.294  11.971
93333W        W58593  42.346  34.135  11.543
93334W        W58594  44.811   6.890  10.921
93335W        W58595   0.435   2.506  11.101
93336W        W58596  35.508   5.806  11.360
93337W        W58597  38.699  15.864  14.415
93338W        W58598   9.828  33.092  14.465
93339W        W58599  33.984  18.789   0.764
93340W        W58600  32.961  26.772  13.049
93341W        W58601  44.702  20.454  12.521
93342W        W58602  28.980  16.194  14.492
93343W        W58603  30.143  16.729   3.107
93344W        W58604  44.133  35.535  10.715
93345W        W58605  29.933  13.758  11.462
93346W        W58606   9.416  31.329  12.631
93347W        W58607  16.273   3.150   0.222
93348W        W58608  34.051  23.999   0.257
93349W        W58609   5.663  22.159  14.020
93350W        W58610   7.097  25.324  13.381
93351W        W58611  15.335  25.411  13.876
93352W        W58612  17.997  36.335   0.325
93353W        W58613  35.096  20.569   4.647
93354W        W58614  31.219  13.921   3.385
93355W        W58615  21.496  22.602  13.387
93356W        W58616   0.377  36.502  12.495
93357W        W58617  31.119  12.267  11.574
93358W        W58618   1.362  42.410  14.001
93359W        W58619  30.459  18.609  10.459
93360W        W58620   0.947  19.218   4.604
93361W        W58621   2.027  42.600  12.930
93362W        W58622   3.405  42.010   0.437
93363W        W58623  31.491  18.279   4.953
93364W        W58624  40.773   8.352   2.174
93365W        W58625  22.088   3.515  13.523
93366W        W58626  24.963  31.959   3.703
93367W        W58627  22.735  24.914   1.634
93368W        W58628  25.059   9.195  13.422
93369W        W58629  12.190  18.065  14.832
93370W        W58630  20.555  26.428   1.238
93371W        W58631   9.415  19.376   0.860
93372W        W58632  12.047  43.718   4.030
93373W        W58633  22.915  35.516  14.416
93374W        W58634  25.656   7.883  10.207
93375W        W58635   9.921   7.402  12.875
93376W        W58636  40.245  37.966   2.050
93377W        W58637  20.988  38.292   4.115
93378W        W58638  36.973   5.950  14.694
93379W        W58639  26.554  33.669   1.539
93380W        W58640  34.845  36.520   3.700
93381W        W58641  38.571  28.963   1.217
93382W        W58642  26.377  26.115  14.801
93383W        W58643  39.498  11.759   1.334
93384W        W58644  28.685  35.069   1.274
93385W        W58645  40.948   2.282   4.558
93386W        W58646   9.095  14.318   0.830
93387W        W58647  26.178  21.029   2.675
93388W        W58648  15.705  23.048   3.132
93389W        W58649  19.735  35.921   3.177
93390W        W58650   4.275  36.852   3.665
93391W        W58651  21.087   4.383   2.528
93392W        W58652   5.192  12.903  11.091
93393W        W58653  13.671   8.276  10.182
93394W        W58654  24.106  24.916  10.617
93395W        W58655  22.092   3.342  14.397
93396W        W58656  10.583   1.182   0.348
93397W        W58657  29.982  22.532  14.957
93398W        W58658  34.416  40.414  12.829
93399W        W58659  14.697  39.928  11.790
93400W        W58660   5.699  28.466   1.213
93401W        W58661   5.880  16.295   2.181
93402W        W58662  43.748  44.636   2.359
93403W        W58663  16.860  22.707  12.538
93404W        W58664  40.466  37.899  12.339
93405W        W58665   3.752  13.209  13.059
93406W        W58666  10.861  18.325  11.545
93407W        W58667  21.867  17.854  13.088
93408W        W58668  43.259  12.826   0.377
93409W        W58669   8.297  22.804  10.610
93410W        W58670  22.063  31.141   2.956
93411W        W58671  35.027  26.303  14.517
93412W        W58672  43.924  28.649   1.821
93413W        W58673  17.765   9.784  12.900
93414W        W58674   6.174  14.933  10.592
93415W        W58675  19.604  13.579  12.529
93416W        W58676   7.217  31.825  13.744
93417W        W58677  22.095  16.846  11.219
93418W        W58678  18.578  17.372  12.569
93419W        W58679  25.095  40.603   4.289
93420W        W58680  24.508  12.853   4.627
93421W        W58681  35.624  39.817   3.856
93422W        W58682  21.073  17.212  12.442
93423W        W58683   4.432  29.556  13.458
93424W        W58684  10.742  25.420   2.172
93425W        W58685  22.708  18.864  12.218
93426W        W58686   4.167  43.502   4.128
93427W        W58687   3.693  29.902  11.225
93428W        W58688  12.635  27.537  14.043
93429W        W58689  31.793  15.102   1.319
93430W        W58690  18.627  13.324   2.465
93431W        W58691   1.260  20.041   1.333
93432W        W58692  24.682   7.985   1.945
93433W        W58693  28.380  43.323  12.084
93434W        W58694  14.779  30.956   1.840
93435W        W58695  20.175  44.074   1.191
93436W        W58696  11.675   2.496   0.893
93437W        W58697   1.168  27.489  12.206
93438W        W58698  25.575  34.474   0.418
93439W        W58699  24.430  17.709   0.536
93440W        W58700   0.320  37.522   1.645
93441W        W58701   5.665  37.528   4.094
93442W        W58702   8.749  34.615   3.760
93443W        W58703   8.587  11.207  13.495
93444W        W58704   9.922  16.196   0.787
93445W        W58705  33.338  13.809   0.829
93446W        W58706  36.926   3.245   0.317
93447W        W58707  20.596  28.236   4.056
93448W        W58708  28.703   2.441  14.893
93449W        W58709  35.927  31.174  10.622
93450W        W58710  43.240  31.362   0.400
93451W        W58711  41.442  36.626   0.386
93452W        W58712  22.026  21.657   4.874
93453W        W58713  22.749  27.622  13.307
93454W        W58714  29.166   6.817   1.222
93455W        W58715  39.480  15.626  12.484
93456W        W58716  39.669  43.012  14.855
93457W        W58717  35.655  41.211   4.188
93458W        W58718  34.867   2.900   0.250
93459W        W58719  21.587  37.967   1.262
93460W        W58720  32.065  44.910   0.419
93461W        W58721  14.605   4.357  14.527
93462W        W58722  22.598  37.682   0.880
93463W        W58723  16.193  40.597  10.644
93464W        W58724  37.761   9.263   3.082
93465W        W58725  34.013  41.038   1.855
93466W        W58726   0.254  29.020  11.548
93467W        W58727  28.450  21.777  10.715
93468W        W58728  32.919  33.020  14.079
93469W        W58729  21.115  21.109   9.732
93470W        W58730  22.348   2.905  11.503
93471W        W58731   6.758   7.373  13.858
93472W        W58732  34.961  34.997  13.402
93473W        W58733  26.053  10.482  11.583
93474W        W58734  41.422  43.923   3.261
93475W        W58735  29.477  21.515   1.808
93476W        W58736  19.361  20.962   2.349
93477W        W58737  17.842  18.716   4.100
93478W        W58738  27.641   9.184   1.805
93479W        W58739  18.056  40.302   3.870
93480W        W58740  32.223  27.089   3.245
93481W        W58741  17.234  39.456   3.312
93482W        W58742  15.691  40.517   5.157
93483W        W58743  29.702  12.413   0.362
93484W        W58744  28.475  20.228   3.630
93485W        W58745   5.878  43.821   0.419
93486W        W58746  14.774  23.640   0.294
93487W        W58747  18.763  23.777   2.757
93488W        W58748   0.636   9.432  11.104
93489W        W58749  15.286  20.590  14.577
93490W        W58750  30.429   7.057   2.850
93491W        W58751  27.773  13.517   2.707
93492W        W58752  31.026  16.548  13.865
93493W        W58753  11.397  15.261   2.886
93494W        W58754   6.841  21.085   3.557
93495W        W58755  34.718  39.783  12.087
93496W        W58756  44.880  24.679   2.817
93497W        W58757  13.809  22.107   2.628
93498W        W58758   3.850  40.531   0.504
93499W        W58759  19.132  33.879   3.639
93500W        W58760  23.246   2.704  13.381
93501W        W58761  38.812  14.325   1.849
93502W        W58762  35.970  37.526  11.429
93503W        W58763  37.230  21.481   1.149
93504W        W58764  39.763  22.089   1.507
93505W        W58765  12.965   9.150   0.778
93506W        W58766   1.500  28.509  10.201
93507W        W58767   8.594  20.298   2.803
93508W        W58768  24.472  13.664   4.201
93509W        W58769  23.727   1.678  10.003
93510W        W58770   2.483  29.570  11.383
93511W        W58771   6.164  16.774  11.620
93512W        W58772  39.482  44.536  13.572
93513W        W58773  10.877  37.056  13.604
93514W        W58774  41.049  24.077  12.900
93515W        W58775  43.823   9.373  11.193
93516W        W58776  43.178  36.407  11.624
93517W        W58777  41.436   3.623   1.818
93518W        W58778  21.003  17.813  14.293
93519W        W58779  35.849   0.055   0.783
93520W        W58780  34.796  43.195   3.596
93521W        W58781  41.889  15.838  12.488
93522W        W58782   8.698  16.430  13.816
93523W        W58783  33.521  17.490   0.873
93524W        W58784  22.054  32.138  11.478
93525W        W58785  13.159  25.723   4.584
93526W        W58786   9.708  41.896   3.347
93527W        W58787  23.072  17.663   0.890
93528W        W58788  41.281  19.153   3.319
93529W        W58789  42.008  37.363  14.767
93530W        W58790   0.694  38.812  11.114
93531W        W58791  37.233   0.156   4.979
93532W        W58792   7.265  16.686  14.510
93533W        W58793  29.906  36.044   3.719
93534W        W58794  11.624  11.633  13.599
93535W        W58795  35.194  33.057   4.592
93536W        W58796  44.908  41.971   0.510
93537W        W58797   9.677  17.780  13.822
93538W        W58798  40.523   1.020  10.279
93539W        W58799  41.565   9.301  13.998
93540W        W58800   5.359  11.316   1.858
93541W        W58801  14.840  32.768   4.248
93542W        W58802  30.197  18.645   1.835
93543W        W58803  26.945  17.309   4.939
93544W        W58804  30.606  11.626  14.821
93545W        W58805  23.940   0.730   1.570
93546W        W58806  30.084  24.396  14.288
93547W        W58807  44.426  44.763  12.043
93548W        W58808   5.344  26.512  11.505
93549W        W58809  25.574  12.893  13.844
93550W        W58810  15.696  21.571  14.489
93551W        W58811  33.602  14.800   4.486
93552W        W58812  22.079  16.069  14.155
93553W        W58813  14.696  26.848   4.871
93554W        W58814  35.632  21.228   3.690
93555W        W58815   4.991  23.691  10.214
93556W        W58816  41.232  27.628  14.608
93557W        W58817  38.026  36.972   4.080
93558W        W58818  11.960   7.610  11.021
93559W        W58819   2.252   5.290  12.354
93560W        W58820  11.678  14.059  10.304
93561W        W58821   9.594  26.162   1.731
93562W        W58822  39.804   1.629   1.211
93563W        W58823   0.136   2.533   2.782
93564W        W58824  21.508  32.324   4.029
93565W        W58825  23.978   1.386   2.730
93566W        W58826  31.463  39.095  11.989
93567W        W58827  42.557  15.631  12.974
93568W        W58828  39.071  38.941   4.169
93569W        W58829  34.949   9.699   0.766
93570W        W58830   1.371   7.597   2.202
93571W        W58831  41.503  11.765  13.461
93572W        W58832  26.739  15.684  14.822
93573W        W58833  12.401  13.143   1.140
93574W        W58834  39.444  37.825   1.658
93575W        W58835  37.791  24.371   3.358
93576W        W58836   2.920  14.337   1.903
93577W        W58837   8.900   3.276   0.276
93578W        W58838  12.384  11.200  14.556
93579W        W58839  37.934  22.621  13.815
93580W        W58840   5.897  20.590  13.031
93581W        W58841  22.222  36.396  13.883
93582W        W58842   8.547  16.827  14.625
93583W        W58843   1.067   0.940  10.935
93584W        W58844   1.190   2.761   1.115
93585W        W58845  44.369  36.556   1.702
93586W        W58846   3.060  33.920   4.895
93587W        W58847   8.717   6.588   0.440
93588W        W58848  26.355  35.870  13.535
93589W        W58849  17.297  25.261  12.579
93590W        W58850  36.097  44.180   0.488
93591W        W58851  33.800  27.108   0.674
93592W        W58852  12.872  36.222  12.419
93593W        W58853   0.919  36.108   1.822
93594W        W58854  25.644   6.889  14.377
93595W        W58855  36.869  44.933  12.043
93596W        W58856   2.234  29.895  14.936
93597W        W58857  33.709  11.349   4.808
93598W        W58858  36.779  34.105   4.493
93599W        W58859  36.138  26.327   3.681
93600W        W58860  23.424  37.226  13.083
93601W        W58861  36.201  19.704   4.938
93602W        W58862  19.275  44.744  14.221
93603W        W58863   1.946  11.493   2.388
93604W        W58864  29.046  26.571   4.155
93605W        W58865  43.860  44.843   3.322
93606W        W58866  41.385  37.675   2.634
93607W        W58867  26.024  32.452  10.946
93608W        W58868  41.192  14.216  11.439
93609W        W58869  21.531  34.459   4.190
93610W        W58870  27.144  33.853   3.691
93611W        W58871  12.771  16.785   4.106
93612W        W58872   7.426  23.650   0.914
93613W        W58873  18.542  36.987  14.822
93614W        W58874   9.857  34.036  12.776
93615W        W58875  35.637  21.732   3.799
93616W        W58876  19.606  42.274   0.049
93617W        W58877  10.426  22.268   1.346
93618W        W58878   9.161  26.446  12.128
93619W        W58879  20.533   1.889   1.959
93620W        W58880  25.877   9.663   0.204
93621W        W58881  38.893  41.874  12.204
93622W        W58882  29.826   4.419   3.100
93623W        W58883  42.994  15.968   2.152
93624W        W58884   2.517  15.830  14.025
93625W        W58885  31.140  29.930   3.164
93626W        W58886  18.348  43.867  13.246
93627W        W58887  20.936  42.329   3.715
93628W        W58888  34.648  30.732   1.531
93629W        W58889  35.593   2.025   0.882
93630W        W58890  37.989  39.910   3.570
93631W        W58891  33.117  10.843   1.666
93632W        W58892  27.272   4.563   2.122
93633W        W58893  37.554  13.546  13.488
93634W        W58894  29.937   5.941   2.913
93635W        W58895  11.485  13.335   2.673
93636W        W58896  39.866   0.725  13.580
93637W        W58897  34.036  42.266   0.652
93638W        W58898  15.439  38.620  11.122
93639W        W58899  16.226  29.242  14.708
93640W        W58900  35.470  12.236   2.123
93641W        W58901  20.353  27.572  14.193
93642W        W58902  24.307   9.821   4.190
93643W        W58903  13.704  38.444  14.997
93644W        W58904  33.509  30.014  13.454
93645W        W58905  38.434  27.466  11.499
93646W        W58906  21.774   3.566   2.774
93647W        W58907  30.571  22.159   4.605
93648W        W58908  22.511  10.582   3.269
93649W        W58909  17.188   9.451  13.964
93650W        W58910   2.377  22.444   0.297
93651W        W58911  39.310  25.739  12.744
93652W        W58912  15.269  31.175   3.321
93653W        W58913  22.532   1.378   0.812
93654W        W58914  34.841  40.424   1.457
93655W        W58915   1.747  41.568   2.404
93656W        W58916  23.480  33.555   4.265
93657W        W58917  26.882  26.971  14.394
93658W        W58918  10.222   8.089   0.648
93659W        W58919  44.829  14.270   4.928
93660W        W58920   7.817  22.561  10.683
93661W        W58921  33.963  32.420   1.128
93662W        W58922   9.698  33.119   0.337
93663W        W58923   0.286  37.867  12.348
93664W        W58924  27.874  29.392  14.325
93665W        W58925  40.808  35.077   0.568
93666W        W58926   9.144  34.901   3.152
93667W        W58927  42.318  21.139   1.290
93668W        W58928   5.675   8.636  14.774
93669W        W58929  35.079  35.993   9.963
93670W        W58930  14.664   7.641   5.473
93671W        W58931  42.444  35.365   1.755
93672W        W58932  27.444   2.742  13.248
93673W        W58933  22.359  35.058   4.146
93674W        W58934  10.563  40.196  11.191
93675W        W58935  16.627  40.370   4.777
93676W        W58936  12.633  19.002  10.599
93677W        W58937   0.290  27.844   1.759
93678W        W58938  39.696  10.092   3.990
93679W        W58939   8.431   6.842   2.275
93680W        W58940  31.970   3.227   0.930
93681W        W58941   2.543  42.803   1.866
93682W        W58942  30.003  21.389   1.408
93683W        W58943  13.147  37.298  14.037
93684W        W58944   2.744  28.378  14.538
93685W        W58945  32.509   4.759   4.152
93686W        W58946  32.054  27.484  11.594
93687W        W58947  41.755  29.593   4.444
93688W        W58948  35.218  39.531   2.683
93689W        W58949  40.009  14.845  10.621
93690W        W58950  23.937  20.587   1.425
93691W        W58951  27.220  26.195   0.404
93692W        W58952  16.136  10.525   3.722
93693W        W58953   5.243  21.064   2.395
93694W        W58954  19.163   8.909  14.602
93695W        W58955   0.348  41.562  13.429
93696W        W58956  14.695  27.166  12.560
93697W        W58957   1.377  40.009  12.176
93698W        W58958  11.591  10.338  12.712
93699W        W58959  13.372  23.231   1.424
93700W        W58960  23.666  16.238   0.882
93701W        W58961  11.569  24.937   3.137
93702W        W58962  33.643  12.138  13.986
93703W        W58963  29.634  13.812   0.274
93704W        W58964   6.280  38.403   3.211
93705W        W58965  36.823  44.315  14.394
93706W        W58966  30.039  20.801   3.843
93707W        W58967   5.476  27.123  14.975
93708W        W58968   2.517  37.021  11.554
93709W        W58969  21.143  39.045  11.971
93710W        W58970  42.388   3.241   4.148
93711W        W58971  43.389  40.477  10.659
93712W        W58972  42.874  28.215   3.710
93713W        W58973   8.913  25.045  12.003
93714W        W58974  37.260  39.500  11.430
93715W        W58975  42.357  33.066  11.679
93716W        W58976  16.560  16.009   0.227
93717W        W58977   6.465   0.815   0.836
93718W        W58978  16.041  37.830   0.352
93719W        W58979  18.396  35.703   1.862
93720W        W58980  19.920  14.171   4.027
93721W        W58981  34.967  26.771   3.598
93722W        W58982  31.437  10.922  11.137
93723W        W58983  39.331  33.765   4.720
93724W        W58984  11.557  14.932   0.333
93725W        W58985  44.060  24.604  13.413
93726W        W58986  25.163  44.853   2.827
93727W        W58987   5.390  22.141  12.624
93728W        W58988  16.819  14.608  12.983
93729W        W58989  23.596  35.119  14.790
93730W        W58990  44.264  14.705  13.050
93731W        W58991  14.065  30.936  12.064
93732W        W58992  21.776  18.976   3.143
93733W        W58993   8.004   5.281   4.117
93734W        W58994  27.487  37.869  11.558
93735W        W58995   3.357  22.297  12.031
93736W        W58996   7.843  39.767   0.236
93737W        W58997  39.259  39.729   3.674
93738W        W58998   3.244  42.928  14.482
93739W        W58999  32.017  21.070   0.241
93740W        W59000  24.642   4.823  13.540
93741W        W59001   9.631  31.342  10.516
93742W        W59002  18.734  28.584   1.385
93743W        W59003  18.545  32.335  14.488
93744W        W59004  22.676  37.646   4.343
93745W        W59005  39.936  36.043   3.118
93746W        W59006  41.257   0.705   1.979
93747W        W59007  28.643  19.734   1.720
93748W        W59008  14.396  17.178   0.553
93749W        W59009  11.692  37.630  11.216
93750W        W59010   2.231  27.773   0.788
93751W        W59011  20.924  27.985   0.335
93752W        W59012  14.872  42.264  11.899
93753W        W59013  27.997   8.132   4.642
93754W        W59014   2.835  40.459  10.725
93755W        W59015  14.643  30.632  13.070
93756W        W59016  33.010  22.218  11.175
93757W        W59017   2.748  20.004  10.717
93758W        W59018  33.838   6.288  11.075
93759W        W59019   7.875  10.110  12.093
93760W        W59020  42.265  30.396   4.276
93761W        W59021  29.482  37.934  10.668
93762W        W59022  25.665  15.042   4.057
93763W        W59023  14.155   2.778   4.698
93764W        W59024  26.712  20.304  11.130
93765W        W59025  31.644  43.468  11.415
93766W        W59026  26.800   9.111   0.965
93767W        W59027  29.718  35.201  14.815
93768W        W59028  19.062  17.022  10.986
93769W        W59029   8.863  31.660  10.348
93770W        W59030  20.185  27.698   4.679
93771W        W59031  19.183  43.264   1.779
93772W        W59032  44.256   9.595   5.154
93773W        W59033   0.394  37.637   2.142
93774W        W59034   6.954  11.256   3.776
93775W        W59035   7.940  18.964   0.877
93776W        W59036   3.977   5.677  12.158
93777W        W59037  16.795   9.452   1.225
93778W        W59038   8.882   4.975   0.060
93779W        W59039  39.573  15.093  11.801
93780W        W59040  12.972  34.158  13.984
93781W        W59041  21.340   1.367  11.146
93782W        W59042  12.448  16.280  10.964
93783W        W59043  36.445  38.353  14.982
93784W        W59044  26.141  42.262   4.201
93785W        W59045  11.926  39.783  10.965
93786W        W59046  32.418  30.624  12.877
93787W        W59047  41.022   1.297  14.359
93788W        W59048   5.835  37.452   2.309
93789W        W59049  16.088  44.517  13.294
93790W        W59050  26.950  34.045   4.145
93791W        W59051  18.335  11.777  13.403
93792W        W59052  23.957  34.554   3.836
93793W        W59053  21.851  16.682  11.648
93794W        W59054  12.668  16.220  12.716
93795W        W59055   7.294  21.995  14.718
93796W        W59056  35.806  21.773  11.586
93797W        W59057  17.213  25.046  13.057
93798W        W59058  23.854  44.212  12.807
93799W        W59059   6.002   0.000   4.124
93800W        W59060  44.479  22.923  13.980
93801W        W59061   3.557  43.552  13.203
93802W        W59062  17.226  16.544   0.470
93803W        W59063  27.408  28.603  14.985
93804W        W59064  18.290  21.087   3.235
93805W        W59065  26.071   1.711   1.462
93806W        W59066  20.625  40.116   2.760
93807W        W59067  31.702  22.644  13.028
93808W        W59068  30.073   6.810   0.439
93809W        W59069  17.487  20.650   2.344
93810W        W59070  15.389  24.735   1.721
93811W        W59071  20.450  34.474  12.398
93812W        W59072  39.381   5.264   2.584
93813W        W59073  21.697  14.223   0.921
93814W        W59074  43.904  20.169   2.619
93815W        W59075  27.967  29.340  13.551
93816W        W59076   0.027  26.614  12.032
93817W        W59077  21.070   8.921   2.831
93818W        W59078   8.162  24.591  11.463
93819W        W59079   7.544  10.687   3.237
93820W        W59080  19.682  12.627  12.113
93821W        W59081  31.076  32.918  14.245
93822W        W59082  36.579  20.843  11.997
93823W        W59083   7.788  23.276   0.798
93824W        W59084  44.367  22.787  11.146
93825W        W59085  15.870   4.025   2.275
93826W        W59086  37.910   9.129  13.588
93827W        W59087   5.783  30.487   2.996
93828W        W59088  35.577   7.826  12.958
93829W        W59089  31.212  38.850   1.973
93830W        W59090  10.432   4.185  12.392
93831W        W59091   7.717   7.390   3.214
93832W        W59092   0.487   6.895   1.495
93833W        W59093  32.359  10.178  11.546
93834W        W59094  15.153   3.529  14.552
93835W        W59095  22.734  25.785   3.261
93836W        W59096   0.992  40.882  11.846
93837W        W59097  19.712  17.615  12.060
93838W        W59098  14.376  20.186  11.095
93839W        W59099  27.950  42.999   0.944
93840W        W59100  42.908  39.697   2.534
93841W        W59101  34.297  34.623   1.836
93842W        W59102   5.379  32.072  12.959
93843W        W59103  31.460  43.719   4.301
93844W        W59104  16.242  20.436   0.824
93845W        W59105  20.287  34.804   2.557
93846W        W59106  31.658  34.987   4.622
93847W        W59107  34.986   6.201   1.615
93848W        W59108  15.422  42.859   3.931
93849W        W59109  28.035  38.538   1.756
93850W        W59110  40.510   4.236  13.417
93851W        W59111  44.713  27.375   0.751
93852W        W59112  42.410  14.640   1.942
93853W        W59113  10.062  16.632  12.598
93854W        W59114   9.871   6.145   3.688
93855W        W59115  29.760  37.885   3.721
93856W        W59116   5.920  13.764   2.879
93857W        W59117   4.031  37.480  14.447
93858W        W59118  41.022  29.730   1.868
93859W        W59119  13.922  17.034  14.388
93860W        W59120  39.466  28.151   0.569
93861W        W59121  12.676  16.060   0.797
93862W        W59122  21.807  27.175   2.696
93863W        W59123  22.730   6.150   0.060
93864W        W59124  26.218   0.206  12.919
93865W        W59125  20.083  38.802  13.284
93866W        W59126  20.638  11.614  12.321
93867W        W59127  36.612  41.993   1.840
93868W        W59128  23.740  31.703  11.488
93869W        W59129  33.378   9.208   3.792
93870W        W59130  20.715  30.863   3.599
93871W        W59131  37.912  26.739  11.759
93872W        W59132  41.170   8.236  13.368
93873W        W59133  15.369  21.390  13.489
93874W        W59134  38.575  12.194   0.778
93875W        W59135  30.612  26.579  13.929
93876W        W59136  35.289   7.869   1.926
93877W        W59137  23.195  36.494   0.944
93878W        W59138  15.348  26.101   4.308
93879W        W59139   7.799   7.153   0.552
93880W        W59140  36.575  12.434  11.451
93881W        W59141  23.954  38.739  13.136
93882W        W59142  41.973  34.460   4.497
93883W        W59143  31.096  41.618  10.455
93884W        W59144  31.144  11.335  12.486
93885W        W59145  30.087  40.081  10.907
93886W        W59146   0.079  35.163  13.379
93887W        W59147  16.480  30.168   0.028
93888W        W59148   1.887  28.490  14.233
93889W        W59149  35.472  11.281  14.211
93890W        W59150   9.473   8.488  11.464
93891W        W59151  35.833   3.763   2.988
93892W        W59152  24.041  43.454  14.769
93893W        W59153  16.148  11.660  10.669
93894W        W59154  20.073  34.843  10.407
93895W        W59155  43.539  28.785  13.994
93896W        W59156  26.506  41.087   3.799
93897W        W59157  20.493  24.665   0.003
93898W        W59158  18.190  31.059   2.288
93899W        W59159  38.541  21.140   2.782
93900W        W59160  33.496  10.571   1.446
93901W        W59161   6.730  27.028   5.550
93902W        W59162  12.221  36.390   4.729
93903W        W59163  17.521   9.984   2.838
93904W        W59164  16.100  41.103  13.966
93905W        W59165  13.132  34.105  11.330
93906W        W59166  14.449  15.806   2.942
93907W        W59167  32.407  21.745  13.203
93908W        W59168   6.456  12.265   3.776
93909W        W59169  34.017  22.010  10.688
93910W        W59170  20.307  18.036   3.878
93911W        W59171  31.141  33.436   4.116
93912W        W59172  42.952  36.076   3.677
93913W        W59173   9.287  34.903   0.541
93914W        W59174  14.407  29.421   2.472
93915W        W59175   4.846  20.119   2.631
93916W        W59176  15.281  20.218  13.541
93917W        W59177  36.116  23.623  12.964
93918W        W59178  37.584   7.599   1.336
93919W        W59179  31.629  43.947  12.472
93920W        W59180  21.449  14.334   0.211
93921W        W59181  24.389  15.259  12.422
93922W        W59182  18.082  39.014   2.200
93923W        W59183  41.559   1.822   4.115
93924W        W59184  31.382  13.217  13.575
93925W        W59185  14.053  43.962   1.818
93926W        W59186  35.572  27.623  10.897
93927W        W59187  35.660  29.850  11.191
93928W        W59188  21.149   5.023   1.160
93929W        W59189  14.854  27.707  12.423
93930W        W59190  12.798   5.384   0.918
93931W        W59191  10.777  14.853  14.280
93932W        W59192   7.169  24.253   2.807
93933W        W59193  17.045  11.898  13.371
93934W        W59194   2.567  16.033   0.407
93935W        W59195  25.255  29.200  11.166
93936W        W59196  44.473  17.172  14.263
93937W        W59197  19.339  15.181  11.159
93938W        W59198   6.734  15.286   1.647
93939W        W59199  13.653   4.267   3.394
93940W        W59200  15.581   9.150  10.950
93941W        W59201  44.939  29.473  14.056
93942W        W59202  25.222  38.398  11.416
93943W        W59203  11.323   1.826  12.041
93944W        W59204  18.541  22.725  11.958
93945W        W59205  34.380  36.994  13.733
93946W        W59206  10.730  43.184  12.943
93947W        W59207   1.304   6.180   3.183
93948W        W59208  41.989  42.303  12.470
93949W        W59209  28.183  43.926   2.376
93950W        W59210   2.342   1.424   3.121
93951W        W59211   9.947  39.073  14.718
93952W        W59212  19.720  39.821   3.654
93953W        W59213  10.910  38.467   3.503
93954W        W59214   5.276  29.230   1.246
93955W        W59215  32.048  25.770  13.015
93956W        W59216  17.089  38.082  10.624
93957W        W59217   9.339  12.573  14.717
93958W        W59218  16.910  21.314   3.273
93959W        W59219  39.795  27.828   0.330
93960W        W59220  29.620  36.027  11.175
93961W        W59221   2.768  12.471  14.749
93962W        W59222  28.766  11.089  12.409
93963W        W59223   5.408   8.337   3.273
93964W        W59224   1.841  18.550   0.754
93965W        W59225   3.820  26.602  12.504
93966W        W59226  20.638  12.724  13.009
93967W        W59227  27.257   9.237  10.722
93968W        W59228  34.546  13.594  12.563
93969W        W59229   4.846   3.831  10.610
93970W        W59230  13.554  30.886  12.008
93971W        W59231  29.017   2.767  10.906
93972W        W59232   8.110  24.641   3.696
93973W        W59233  16.753  33.416   1.302
93974W        W59234  14.287  34.420  13.330
93975W        W59235   5.420  31.597  11.985
93976W        W59236  37.303  21.750  14.896
93977W        W59237  19.161  41.905  13.044
93978W        W59238   6.957  12.450   0.173
93979W        W59239  21.287  12.106   2.441
93980W        W59240  26.076  19.288  10.390
93981W        W59241  16.073   4.400  12.987
93982W        W59242  44.979   0.412  12.697
93983W        W59243  36.613   3.330  14.568
93984W        W59244  16.853  37.415  13.876
93985W        W59245   6.663  11.953   1.742
93986W        W59246   3.458  26.439  10.313
93987W        W59247   4.921  23.737  11.166
93988W        W59248  24.078  20.295   4.177
93989W        W59249   3.316  30.520  14.555
93990W        W59250  11.543  41.467  10.974
93991W        W59251  20.082  14.826  14.993
93992W        W59252  36.917  44.834   4.704
93993W        W59253  28.622  22.290  12.049
93994W        W59254  15.546  37.691   3.338
93995W        W59255  33.619  38.300   0.017
93996W        W59256  14.025   4.518   4.270
93997W        W59257  43.856   0.313  13.966
93998W        W59258  34.095  27.182  14.377
93999W        W59259  12.331  30.857  14.807
94000W        W59260  21.889  42.555  12.008
94001W        W59261  41.791  39.479   3.334
94002W        W59262  11.953  27.519   5.174
94003W        W59263   9.103  23.162  13.803
94004W        W59264  33.776  14.156  14.444
94005W        W59265  36.337   0.225   0.895
94006W        W59266  27.535  34.179  14.495
94007W        W59267  34.379  31.588   4.475
94008W        W59268  31.378  21.767  12.393
94009W        W59269  13.696  20.807  11.910
94010W        W59270  25.498  30.771  14.877
94011W        W59271  14.605  14.523   5.162
94012W        W59272  10.634  39.833  14.348
94013W        W59273  27.691  33.918  12.872
94014W        W59274  19.729  29.107   4.718
94015W        W59275  37.280  41.666   4.944
94016W        W59276  35.822  16.449  12.048
94017W        W59277  43.513   8.089  14.447
94018W        W59278  31.570   8.134  11.199
94019W        W59279   2.906  36.852   3.460
94020W        W59280  17.258   0.463  13.490
94021W        W59281  19.905   7.397   0.509
94022W        W59282   0.739  38.291  11.640
94023W        W59283  29.189  33.399  10.631
94024W        W59284   6.372   3.815   4.130
94025W        W59285  26.192  31.493   3.496
94026W        W59286  16.868  21.616   2.135
94027W        W59287  16.085  25.808  14.875
94028W        W59288  35.346  10.365   4.008
94029W        W59289  19.124  44.697   3.731
94030W        W59290  23.244  13.758   1.357
94031W        W59291  22.715  17.169   0.682
94032W        W59292  18.745  15.693   0.471
94033W        W59293  41.866   5.668  11.106
94034W        W59294   4.820  32.599   0.388
94035W        W59295  31.412  24.808   5.621
94036W        W59296  18.740  30.618  12.463
94037W        W59297   1.987  41.834  12.487
94038W        W59298   2.880   6.883   0.800
94039W        W59299  36.896  17.261  11.710
94040W        W59300  15.750  40.474   0.815
94041W        W59301   4.199   6.978  12.191
94042W        W59302  41.223  15.318   0.782
94043W        W59303  37.157   0.583  10.738
94044W        W59304  23.472  17.755  10.584
94045W        W59305   7.619  22.184  12.885
94046W        W59306   0.989  40.510  13.901
94047W        W59307   8.108   1.846  11.497
94048W        W59308  38.866   4.734   4.786
94049W        W59309   1.947  39.377   0.322
94050W        W59310  17.593   1.056   1.045
94051W        W59311  15.798  25.853   1.648
94052W        W59312  33.993  24.666   4.060
94053W        W59313  10.488  13.163   1.777
94054W        W59314  34.535  29.037   0.263
94055W        W59315  24.042  15.493  10.694
94056W        W59316  29.140  11.685   0.605
94057W        W59317  10.132   8.466   3.968
94058W        W59318  30.600  40.791   0.307
94059W        W59319  17.683   0.297   3.417
94060W        W59320  12.095  32.116  11.233
94061W        W59321   5.505  28.655  12.974
94062W        W59322  43.035   7.774  10.663
94063W        W59323  11.154   4.288   3.652
94064W        W59324  32.149   4.740   0.897
94065W        W59325  34.651  31.182  12.456
94066W        W59326  22.232   7.523   0.418
94067W        W59327   7.929   1.745   0.725
94068W        W59328   7.933  19.273   0.013
94069W        W59329  42.342  36.931   0.821
94070W        W59330  17.997  11.824  11.597
94071W        W59331   8.217  44.039  11.267
94072W        W59332  35.414   5.687   0.858
94073W        W59333  33.994  30.425  11.561
94074W        W59334  11.127  23.913  11.644
94075W        W59335  21.102  24.972   1.023
94076W        W59336  30.459   1.875  13.783
94077W        W59337  36.980   9.313  13.141
94078W        W59338  20.603   0.497  11.661
94079W        W59339  33.087  33.814   2.309
94080W        W59340  37.407  10.763  12.876
94081W        W59341   2.866   9.127   1.298
94082W        W59342   8.650  15.337   4.571
94083W        W59343  27.107  12.593   0.170
94084W        W59344  10.131  32.110   3.210
94085W        W59345  15.175  21.642   4.105
94086W        W59346  14.446   3.283  10.180
94087W        W59347  11.608  30.366  14.299
94088W        W59348   9.512  19.666  14.442
94089W        W59349  34.659   2.466  14.311
94090W        W59350  35.855   6.323   4.249
94091W        W59351  29.594  16.619  13.551
94092W        W59352  28.449  29.030  12.974
94093W        W59353  25.241  25.877  13.435
94094W        W59354   6.903  23.106  12.119
94095W        W59355  39.829  20.084   1.141
94096W        W59356  19.249   7.939   1.012
94097W        W59357  28.561  28.850   4.566
94098W        W59358  23.190  24.948  12.986
94099W        W59359  29.512  28.049  12.453
94100W        W59360   7.236  40.388  11.623
94101W        W59361  28.895   6.720  10.768
94102W        W59362  26.968   8.850   3.401
94103W        W59363  18.295  12.772  11.206
94104W        W59364  20.669  29.872  12.423
94105W        W59365   1.203  31.482   2.289
94106W        W59366  32.926   9.820  10.697
94107W        W59367   8.143  18.207   4.529
94108W        W59368  14.708   4.862   1.241
94109W        W59369  11.222  18.785  13.812
94110W        W59370  21.836  26.711   3.563
94111W        W59371  44.286   0.001   2.734
94112W        W59372  38.321   3.108  14.410
94113W        W59373   9.734  43.382  10.736
94114W        W59374  10.784  42.513  11.231
94115W        W59375  10.861  13.118   1.435
94116W        W59376  32.178  37.263   3.133
94117W        W59377  12.280  19.150  14.371
94118W        W59378  23.620  42.962   9.932
94119W        W59379   8.767  41.859   2.341
94120W        W59380  42.002  23.584   2.397
94121W        W59381  10.109  21.584  14.121
94122W        W59382  22.045  25.643   1.797
94123W        W59383   5.677  11.316   2.277
94124W        W59384  29.999  29.948   4.559
94125W        W59385  17.709  13.114   1.151
94126W        W59386  36.443  14.648   1.728
94127W        W59387  37.140  23.011  14.460
94128W        W59388   0.304   7.890   0.736
94129W        W59389   5.051  16.975  14.903
94130W        W59390  10.734  37.993  10.652
94131W        W59391  23.523  37.831   2.353
94132W        W59392   8.378  14.374   3.168
94133W        W59393  33.343   0.990  11.181
94134W        W59394  12.922  10.735  11.277
94135W        W59395  40.956  42.503  11.169
94136W        W59396   4.478  43.008  11.923
94137W        W59397  20.707  12.149   0.407
94138W        W59398  39.539  19.611  14.787
94139W        W59399  29.280  13.171   5.030
94140W        W59400  19.528   5.773  13.853
94141W        W59401  10.403  18.831   1.245
94142W        W59402  30.797  24.571   1.840
94143W        W59403  38.417  15.699  14.015
94144W        W59404  30.343  37.770   2.885
94145W        W59405  13.773   0.974   0.813
94146W        W59406  35.370  11.817  13.119
94147W        W59407  15.197  21.207  13.026
94148W        W59408  23.647   1.871  12.771
94149W        W59409  26.138   0.689   1.489
94150W        W59410  11.720  12.981  10.639
94151W        W59411  27.214  19.202   2.239
94152W        W59412  24.556  12.282  12.846
94153W        W59413  14.425  34.838   3.160
94154W        W59414  43.926  36.403  13.086
94155W        W59415  25.003  23.768   4.578
94156W        W59416  37.025  29.308  12.412
94157W        W59417  27.633   2.195   0.199
94158W        W59418  23.440  24.747  14.495
94159W        W59419   9.107  16.599   2.792
94160W        W59420   5.392   6.067   1.058
94161W        W59421  17.555   2.774  12.075
94162W        W59422  41.526  12.174  13.906
94163W        W59423  20.814  17.500  13.108
94164W        W59424  39.864  37.326  11.928
94165W        W59425  41.940  13.077   1.367
94166W        W59426   3.859  21.191  13.701
94167W        W59427  22.219  41.708  11.923
94168W        W59428  16.745  26.171   4.559
94169W        W59429  36.530  22.497  14.975
94170W        W59430  37.627   2.814   4.310
94171W        W59431  43.828  17.615  13.257
94172W        W59432   5.271  16.841   2.908
94173W        W59433  37.912  32.995  14.938
94174W        W59434  26.860   6.668   4.161
94175W        W59435  31.390  39.812  13.996
94176W        W59436  30.815  38.560   1.803
94177W        W59437  29.455  44.362  11.115
94178W        W59438   0.770  27.512  11.617
94179W        W59439  31.987  36.006   1.391
94180W        W59440  37.506   8.665  12.006
94181W        W59441  44.539   5.797  14.851
94182W        W59442   6.643  16.669   2.196
94183W        W59443  34.563  16.698  14.508
94184W        W59444  33.902  11.590   1.992
94185W        W59445  34.009  37.041  11.155
94186W        W59446  36.904  11.894   2.748
94187W        W59447  44.062  15.690  13.531
94188W        W59448  40.615  31.974  13.879
94189W        W59449  37.491  17.868   1.940
94190W        W59450  30.758  22.274  12.998
94191W        W59451  27.062  15.210   4.056
94192W        W59452  17.576   0.046   4.885
94193W        W59453  34.024   7.136  10.655
94194W        W59454  38.194  26.979   3.663
94195W        W59455   3.619  23.162   2.776
94196W        W59456  16.581  40.379   0.404
94197W        W59457   0.677  19.248   1.840
94198W        W59458  18.296  24.913  14.816
94199W        W59459   0.686  27.328  12.098
94200W        W59460  24.153  17.353  12.882
94201W        W59461  22.874   7.351  11.105
94202W        W59462   6.166  10.649  11.042
94203W        W59463  20.981  37.525  11.505
94204W        W59464  42.333   8.826   1.912
94205W        W59465  12.307   7.769  14.209
94206W        W59466  13.445  44.002  11.115
94207W        W59467  21.344  16.192   0.798
94208W        W59468   5.811  39.441  12.638
94209W        W59469  44.521  18.592  12.371
94210W        W59470   1.143  29.338  14.552
94211W        W59471   7.237   3.493  11.609
94212W        W59472   0.658  17.256  12.858
94213W        W59473  18.190   6.491  13.323
94214W        W59474   9.867   7.814   0.929
94215W        W59475  34.940  34.932  11.446
94216W        W59476  38.162   6.622   1.592
94217W        W59477  32.977  24.758   4.593
94218W        W59478  39.830  10.968   0.424
94219W        W59479  32.043  10.380  14.502
94220W        W59480  44.187  42.352   4.796
94221W        W59481  27.444  35.830   4.434
94222W        W59482   7.424  29.899   1.248
94223W        W59483   2.853  27.929  13.572
94224W        W59484   6.805  32.454  14.477
94225W        W59485   4.315  23.645   4.104
94226W        W59486  33.042  16.293   0.898
94227W        W59487  42.100   0.011   3.774
94228W        W59488  39.896  44.442   1.841
94229W        W59489  34.407  27.692   2.124
94230W        W59490   3.769   1.251  12.881
94231W        W59491   2.261  11.449  10.641
94232W        W59492  21.629  32.020  14.068
94233W        W59493   7.664  24.548   1.272
94234W        W59494  15.231  10.702  14.541
94235W        W59495   5.219  31.584  11.034
94236W        W59496   5.970  24.563  13.946
94237W        W59497  35.166  39.787   2.203
94238W        W59498  15.887   6.757   4.780
94239W        W59499  36.950  16.349  11.651
94240W        W59500  43.335   3.171  11.505
94241W        W59501  17.301  36.876   3.212
94242W        W59502  11.642   8.913  11.586
94243W        W59503  24.677  11.805  13.022
94244W        W59504  21.469  17.646   2.406
94245W        W59505  19.613  38.401  13.936
94246W        W59506  27.581  12.348   0.309
94247W        W59507  41.308  27.555   2.817
94248W        W59508  37.863   9.440  13.160
94249W        W59509  21.510   2.788   3.874
94250W        W59510  24.815  18.288   2.912
94251W        W59511  38.912  27.168   0.764
94252W        W59512  31.447  32.169  13.710
94253W        W59513   4.812  22.785  13.143
94254W        W59514  13.905   3.457  14.906
94255W        W59515  31.871  31.484  12.839
94256W        W59516   2.808  14.468  13.173
94257W        W59517  33.104  40.338  14.720
94258W        W59518   3.563  18.572   5.178
94259W        W59519  37.979  31.593   2.871
94260W        W59520  22.147  31.313   2.473
94261W        W59521  38.846  18.153  13.922
94262W        W59522   7.418  19.708   2.163
94263W        W59523   7.831  11.565  14.262
94264W        W59524  32.156  42.106   3.184
94265W        W59525  33.420  15.749  11.961
94266W        W59526  17.130  14.006   4.541
94267W        W59527   4.668   6.237  12.908
94268W        W59528  35.597  36.053   0.440
94269W        W59529   1.832   7.650   2.879
94270W        W59530  36.710  42.992  10.287
94271W        W59531  15.560  34.058   2.763
94272W        W59532  17.599  44.420   3.066
94273W        W59533  13.619  27.066   3.958
94274W        W59534  30.058  18.699  10.768
94275W        W59535   3.202  33.590  11.061
94276W        W59536  14.710  21.156   4.552
94277W        W59537   8.651  27.139   0.803
94278W        W59538  34.973  17.660   1.193
94279W        W59539  35.256  25.901   5.583
94280W        W59540  40.222  35.353  12.134
94281W        W59541  11.705  37.134  10.317
94282W        W59542  37.356  44.972   1.657
94283W        W59543  22.797   0.011  14.502
94284W        W59544  42.514  13.938  11.254
94285W        W59545  21.491  41.317   3.234
94286W        W59546  36.460  14.667  14.811
94287W        W59547  37.594  27.646  10.640
94288W        W59548  15.238  23.114   2.867
94289W        W59549  43.938  26.632   4.815
94290W        W59550  40.105  28.284  13.262
94291W        W59551  29.192   7.861   2.302
94292W        W59552  24.952  10.218   3.433
94293W        W59553  36.339  22.754   3.260
94294W        W59554  43.445  30.602   1.650
94295W        W59555  32.697  23.834   0.431
94296W        W59556  15.549  26.053  10.947
94297W        W59557   1.928   4.393   4.655
94298W        W59558   3.321   3.322  12.601
94299W        W59559  18.816   5.079  12.805
94300W        W59560  22.466  31.165  13.429
94301W        W59561   2.181  18.891   1.916
94302W        W59562  37.516   2.441   1.265
94303W        W59563  35.387  42.533  10.895
94304W        W59564  24.110  17.103  11.519
94305W        W59565  40.751  31.213   0.042
94306W        W59566  11.152   3.979  14.881
94307W        W59567  27.923  11.256  12.062
94308W        W59568  27.245  43.401   1.781
94309W        W59569  38.728  12.346  12.524
94310W        W59570  18.175  41.361   4.421
94311W        W59571  36.543  13.801   3.692
94312W        W59572  26.941  14.710   4.122
94313W        W59573  35.509  32.660   4.250
94314W        W59574   4.964  14.951  13.283
94315W        W59575   7.228  15.319  12.175
94316W        W59576   1.193  38.411  14.492
94317W        W59577  38.867  13.112   2.371
94318W        W59578  13.912  23.294  13.735
94319W        W59579  27.791  41.663  14.306
94320W        W59580  34.854  13.653  13.954
94321W        W59581  31.942  25.694   1.778
94322W        W59582  10.272  25.118  10.682
94323W        W59583  42.047  25.627   2.641
94324W        W59584   6.368  40.541  11.608
94325W        W59585  44.227  16.815  13.447
94326W        W59586  44.504   0.516  11.276
94327W        W59587  21.998   6.422  14.489
94328W        W59588  17.323  35.454  11.848
94329W        W59589   9.311  23.969  11.001
94330W        W59590   6.975   5.433  13.807
94331W        W59591   5.598  35.854   0.996
94332W        W59592  17.139  33.091   2.013
94333W        W59593  22.609  26.902   1.889
94334W        W59594  13.645  11.254   0.972
94335W        W59595  29.132  15.372   0.486
94336W        W59596  41.783   1.266   4.859
94337W        W59597  13.218  35.048  10.936
94338W        W59598  12.658  15.354  12.560
94339W        W59599  21.493  11.026   0.952
94340W        W59600   0.325  18.011   0.782
94341W        W59601  39.732  38.068  11.498
94342W        W59602  18.081  39.567  14.049
94343W        W59603  24.436  41.387  13.869
94344W        W59604  39.629   9.028   1.346
94345W        W59605  36.969  43.782  14.455
94346W        W59606  29.136   4.677   2.912
94347W        W59607   1.370  37.913  11.415
94348W        W59608  25.577   7.668   2.145
94349W        W59609   9.652  15.240   0.906
94350W        W59610  32.404  36.189   4.060
94351W        W59611  36.829  42.860   4.033
94352W        W59612  16.091  25.387  13.367
94353W        W59613  25.294   0.526  13.072
94354W        W59614  42.291  34.073   1.204
94355W        W59615  28.775  36.484   2.925
94356W        W59616  22.711   4.190  13.984
94357W        W59617  26.292  21.755   4.568
94358W        W59618  11.401  27.594  11.469
94359W        W59619  34.561  37.967   0.175
94360W        W59620   9.664  15.195   4.624
94361W        W59621  29.102  37.335  14.882
94362W        W59622  27.688   8.364  11.700
94363W        W59623   5.322  24.836   0.766
94364W        W59624  35.408  39.433  14.666
94365W        W59625  23.605   3.445  11.360
94366W        W59626   1.157  17.124  13.290
94367W        W59627  11.736  43.483  14.428
94368W        W59628  25.121  19.218   0.765
94369W        W59629  39.029  20.574   4.524
94370W        W59630  30.943  18.762   1.268
94371W        W59631  39.053  29.926  11.041
94372W        W59632  11.526  11.836   3.310
94373W        W59633  34.317  14.173  11.070
94374W        W59634   8.597   9.593  13.042
94375W        W59635  12.270   0.728  12.504
94376W        W59636  21.326  42.068  10.725
94377W        W59637  24.834   7.303  14.542
94378W        W59638  30.203  30.990   1.235
94379W        W59639   3.504  41.876   1.251
94380W        W59640  16.521  28.206  10.855
94381W        W59641  25.569  36.518   2.297
94382W        W59642  38.871  31.704   3.606
94383W        W59643   3.864   1.830   4.768
94384W        W59644  42.372  34.905  13.543
94385W        W59645  15.318  11.410  13.041
94386W        W59646  43.262  22.195  13.029
94387W        W59647  25.492   8.447  11.031
94388W        W59648  34.595  41.058   4.900
94389W        W59649   5.206  41.552  13.990
94390W        W59650   2.498  32.196  11.268
94391W        W59651  44.902   4.251   3.143
94392W        W59652  29.015  43.938   2.865
94393W        W59653  23.186   1.359   1.929
94394W        W59654  22.069   8.452   1.690
94395W        W59655  28.154  28.483   4.200
94396W        W59656  25.700   0.764  10.231
94397W        W59657  40.169   7.941  11.461
94398W        W59658   7.115  26.048  10.564
94399W        W59659  35.353  33.963   2.366
94400W        W59660  23.230  39.427   2.373
94401W        W59661  28.244  13.735  12.575
94402W        W59662  34.214  32.529   4.447
94403W        W59663  34.295  13.098  12.571
94404W        W59664  33.251  37.122   2.432
94405W        W59665  33.888  27.525   0.390
94406W        W59666  21.168  28.376   0.017
94407W        W59667  39.052  44.028  14.168
94408W        W59668  30.432   7.258  13.020
94409W        W59669  25.290   9.839  10.915
94410W        W59670  39.917  11.691  10.193
94411W        W59671   1.883   0.492  13.506
94412W        W59672  33.866   3.222  11.380
94413W        W59673  35.804  24.617  10.217
94414W        W59674  33.892  23.083   1.423
94415W        W59675  34.037  28.426   1.463
94416W        W59676  25.038  24.798   1.772
94417W        W59677   7.108  16.676   4.134
94418W        W59678  31.371   2.757   0.294
94419W        W59679  16.721  36.468  13.100
94420W        W59680  10.336  21.568   2.699
94421W        W59681  11.724  25.731  11.100
94422W        W59682   7.203  18.691  12.049
94423W        W59683   9.205  15.397  12.334
94424W        W59684  34.600  40.224  13.307
94425W        W59685  24.591  19.933   4.077
94426W        W59686  34.119  32.166   3.223
94427W        W59687  44.722  26.867   0.590
94428W        W59688  26.715  27.063  13.858
94429W        W59689  14.337  29.979   3.968
94430W        W59690   4.394  16.977  13.849
94431W        W59691   5.802  23.225   1.656
94432W        W59692  32.176   7.792   4.655
94433W        W59693   5.366  31.595   0.222
94434W        W59694  31.081  27.905   2.305
94435W        W59695   3.536  35.651  11.082
94436W        W59696  22.539   9.994   4.161
94437W        W59697  25.272   6.897  11.395
94438W        W59698  35.551  16.484  12.479
94439W        W59699  29.606  36.463   2.179
94440W        W59700  42.074  41.869   3.805
94441W        W59701   2.370  44.045  11.915
94442W        W59702  33.580   8.089  13.837
94443W        W59703  21.374  25.321   3.810
94444W        W59704  10.513  10.613  10.843
94445W        W59705   8.670  41.489  10.597
94446W        W59706  28.032   4.745  13.525
94447W        W59707  29.029   4.550  14.764
94448W        W59708  36.601  17.318   0.749
94449W        W59709   4.567  36.837  10.835
94450W        W59710   0.699   8.256  13.559
94451W        W59711  16.123   7.207  12.009
94452W        W59712   0.768  21.452   4.173
94453W        W59713   5.238  39.843   4.538
94454W        W59714   4.398  28.567   2.283
94455W        W59715  16.581  44.757  14.355
94456W        W59716  12.238  17.044  11.960
94457W        W59717  22.701   0.586   0.450
94458W        W59718  19.888  41.351   3.847
94459W        W59719  15.028  13.932   1.875
94460W        W59720  44.014  40.112   1.466
94461W        W59721  10.146   8.322  10.202
94462W        W59722  44.289  18.205   2.365
94463W        W59723  18.940  38.060   4.186
94464W        W59724  23.469  33.604  13.050
94465W        W59725   2.744  28.431   4.612
94466W        W59726  39.293   9.377   3.672
94467W        W59727  38.324  27.891  13.438
94468W        W59728  40.254  21.498  13.022
94469W        W59729  35.066  28.406  14.323
94470W        W59730  21.483   4.927  13.687
94471W        W59731  40.503  25.975   0.926
94472W        W59732   1.429  27.000   0.956
94473W        W59733  44.052  30.002   2.286
94474W        W59734  44.472  33.145   0.207
94475W        W59735   2.423  30.352   3.760
94476W        W59736   4.928  43.432   1.761
94477W        W59737  39.557  14.153   0.197
94478W        W59738  30.194  24.961  10.710
94479W        W59739  38.778  32.479   0.040
94480W        W59740  16.116  41.598   3.608
94481W        W59741  24.109  15.739   1.310
94482W        W59742  28.969  20.046   4.494
94483W        W59743  35.523   1.496  13.742
94484W        W59744  29.358  20.655  11.274
94485W        W59745  13.347   8.209  14.864
94486W        W59746   1.943  18.142   2.670
94487W        W59747  35.040  17.979   2.439
94488W        W59748  12.429  32.521  11.177
94489W        W59749  19.154  23.629   4.611
94490W        W59750  25.294  21.951   4.644
94491W        W59751   1.373   4.973  10.977
94492W        W59752  13.626  44.360  11.616
94493W        W59753  31.610  27.263   4.343
94494W        W59754  41.256  38.503   1.724
94495W        W59755  20.578  37.854  11.339
94496W        W59756   8.297  13.563  13.051
94497W        W59757  17.251  10.319  13.563
94498W        W59758  11.318  33.834   1.709
94499W        W59759  11.471   7.333  12.530
94500W        W59760   9.210   8.445   4.775
94501W        W59761   1.247  13.269   3.620
94502W        W59762   7.680  14.349  13.888
94503W        W59763   6.338  13.880   3.217
94504W        W59764  37.643   2.437   3.616
94505W        W59765  32.459  30.425   1.354
94506W        W59766   9.429  30.562  11.545
94507W        W59767  26.004   5.709  13.883
94508W        W59768   1.057  22.267   3.277
94509W        W59769  34.472  14.774  11.742
94510W        W59770   7.499   3.462  11.162
94511W        W59771  22.515  22.623  10.458
94512W        W59772  27.211  44.926   4.310
94513W        W59773   2.839  20.503  14.857
94514W        W59774   7.691  39.923   2.173
94515W        W59775  12.557  27.035  13.990
94516W        W59776  37.947  43.860  13.524
94517W        W59777  12.235  12.702  14.478
94518W        W59778  27.446  17.686   1.408
94519W        W59779   1.308  26.462  10.141
94520W        W59780   4.733  27.687   4.579
94521W        W59781  24.556  21.218  10.710
94522W        W59782  34.929  10.374   1.926
94523W        W59783  25.686  42.863  12.902
94524W        W59784  11.752  39.495   4.661
94525W        W59785  10.870  39.469   2.577
94526W        W59786   2.472  15.197   1.275
94527W        W59787  26.168   5.954  13.433
94528W        W59788  36.644  22.288   0.427
94529W        W59789  25.983  35.480  13.506
94530W        W59790  19.282  38.450  13.557
94531W        W59791  20.714  11.088  11.122
94532W        W59792  27.815  11.161   0.800
94533W        W59793  39.968  33.704  14.283
94534W        W59794  17.634  23.022  14.761
94535W        W59795  10.580  37.603   4.544
94536W        W59796   9.159  29.633  14.187
94537W        W59797  15.807  16.061   3.155
94538W        W59798   3.315  18.547   1.911
94539W        W59799   7.883  14.111  13.430
94540W        W59800  11.953  21.672  14.808
94541W        W59801  15.777  35.809   4.514
94542W        W59802  24.626  14.830  10.709
94543W        W59803  28.395  15.991   1.237
94544W        W59804   8.025  24.327  12.413
94545W        W59805  37.287  13.633  10.639
94546W        W59806  37.824  23.175   4.463
94547W        W59807  38.940  36.790   4.346
94548W        W59808   8.245  16.646   1.455
94549W        W59809  36.454  37.928   2.221
94550W        W59810  38.353  43.267  10.632
94551W        W59811  15.075  40.778   2.953
94552W        W59812   4.901   6.768   0.966
94553W        W59813  32.373  25.139   1.419
94554W        W59814  23.045  34.909  11.640
94555W        W59815   1.696   3.371   2.875
94556W        W59816  36.598  36.377   1.712
94557W        W59817  43.988  19.637  12.903
94558W        W59818  39.458  44.150   3.338
94559W        W59819   8.170  41.579   1.530
94560W        W59820  22.688  34.128  14.790
94561W        W59821  15.307  35.345  10.722
94562W        W59822  27.684  29.422   0.882
94563W        W59823  40.397  27.131   4.102
94564W        W59824   2.770  41.913  13.310
94565W        W59825  32.910  20.116  13.409
94566W        W59826  11.752  13.186  12.378
94567W        W59827  23.063  29.915  14.058
94568W        W59828  33.135  11.271   0.370
94569W        W59829  31.191  33.018  13.368
94570W        W59830  20.293  15.129  13.948
94571W        W59831  12.223  20.851   4.070
94572W        W59832  32.455  30.791  13.843
94573W        W59833  21.570  18.743   0.922
94574W        W59834  32.504   8.663  10.756
94575W        W59835  21.798  24.627  12.039
94576W        W59836   4.320   5.349   4.075
94577W        W59837  30.925  29.397   2.241
94578W        W59838   9.332  13.820   0.773
94579W        W59839  38.392  20.459   2.335
94580W        W59840  19.583   0.241  12.936
94581W        W59841  21.014  35.391  11.955
94582W        W59842  34.110  38.847   2.314
94583W        W59843   4.872  32.357   3.956
94584W        W59844  42.298  27.356   2.722
94585W        W59845  26.552  32.936  11.333
94586W        W59846  22.914  27.365   4.109
94587W        W59847  43.014  33.090  12.983
94588W        W59848  20.939  26.080   4.262
94589W        W59849  35.016   1.702  13.787
94590W        W59850   8.634  37.971   4.558
94591W        W59851  35.660  19.689   3.568
94592W        W59852  23.734   9.636   3.405
94593W        W59853  19.178  44.512   4.584
94594W        W59854  14.072   5.950   2.662
94595W        W59855  28.943  39.993   3.062
94596W        W59856  19.619  40.140  10.763
94597W        W59857  43.077  30.484   2.005
94598W        W59858  26.539  36.831   0.493
94599W        W59859  13.680  30.656   3.861
94600W        W59860   4.940  12.597  11.423
94601W        W59861  35.089  10.625   2.357
94602W        W59862   3.644  42.132  12.993
94603W        W59863  35.161   5.585  14.535
94604W        W59864  23.205  11.112  12.645
94605W        W59865  23.638  29.912  11.883
94606W        W59866  17.778  37.225  11.563
94607W        W59867  26.042  31.828   2.122
94608W        W59868   6.237  21.699   1.726
94609W        W59869  28.397  16.407  14.010
94610W        W59870  12.244   3.590   9.829
94611W        W59871   1.535  25.209  12.397
94612W        W59872  25.874  27.414  11.092
94613W        W59873  35.084  26.343   1.242
94614W        W59874  17.621  15.588   1.585
94615W        W59875   1.379  32.077   0.835
94616W        W59876  32.346   6.653   4.190
94617W        W59877  24.759  17.189  10.335
94618W        W59878   3.130  23.745   3.411
94619W        W59879  43.852  40.979   3.176
94620W        W59880  41.596  26.100  11.100
94621W        W59881  29.144  18.252  13.931
94622W        W59882  14.327   0.906  11.673
94623W        W59883  42.462   4.143  13.052
94624W        W59884  29.582   5.649  14.038
94625W        W59885  13.624   0.830  10.699
94626W        W59886  26.916  20.761   4.152
94627W        W59887  29.407   8.384   0.484
94628W        W59888  12.907  31.132  13.004
94629W        W59889  20.575   1.262  12.119
94630W        W59890  36.075  11.296   2.708
94631W        W59891  41.927  16.318  10.726
94632W        W59892  36.501   8.304   4.896
94633W        W59893  12.657  14.179  14.787
94634W        W59894   7.143  23.928   1.939
94635W        W59895  33.166   4.684  12.676
94636W        W59896  42.430   7.836  14.764
94637W        W59897  27.449  14.309  14.877
94638W        W59898  15.481  18.062  11.406
94639W        W59899  24.649  34.409  14.074
94640W        W59900  41.900  35.431   4.526
94641W        W59901  30.141  10.749  11.826
94642W        W59902   1.242  28.924   1.175
94643W        W59903  12.564   1.490  14.695
94644W        W59904  17.828  25.658   4.004
94645W        W59905  36.884  30.789  10.486
94646W        W59906  15.504  16.632  12.099
94647W        W59907   7.810  26.239   0.962
94648W        W59908  18.738   6.454   2.745
94649W        W59909  28.662   4.237   4.100
94650W        W59910  19.675   2.198   2.152
94651W        W59911  17.845   6.461   1.857
94652W        W59912  35.226   4.422  14.579
94653W        W59913  17.498  38.809   1.400
94654W        W59914  32.348  30.161   4.604
94655W        W59915  22.402   7.781  12.364
94656W        W59916  21.113  31.468  13.595
94657W        W59917  30.663  12.872  12.034
94658W        W59918   6.916  39.298  13.050
94659W        W59919  21.013  19.311   5.593
94660W        W59920  19.830  43.050  13.397
94661W        W59921   2.420  39.854   3.718
94662W        W59922   5.184  24.467  11.973
94663W        W59923   8.248  41.739  13.415
94664W        W59924  39.134   7.165  13.008
94665W        W59925   5.314  32.819  11.548
94666W        W59926  38.481  40.858   2.342
94667W        W59927  30.832  37.121   3.321
94668W        W59928  17.683  40.779   3.121
94669W        W59929  31.927   7.746  12.058
94670W        W59930  30.066  30.258   2.739
94671W        W59931  43.899  36.336  13.997
94672W        W59932  37.978  23.605  14.223
94673W        W59933  15.731  40.310  12.959
94674W        W59934  40.989  37.030  11.525
94675W        W59935  10.293  29.371  14.305
94676W        W59936  30.075  30.943   2.210
94677W        W59937  10.693  35.942  14.430
94678W        W59938   4.954  25.679   2.820
94679W        W59939  40.538  18.742  12.520
94680W        W59940  25.173  22.114   0.390
94681W        W59941  26.110  43.847   2.775
94682W        W59942  25.293   4.117  11.664
94683W        W59943  25.533   1.710  14.879
94684W        W59944   4.774  43.613   9.946
94685W        W59945  14.409   0.387  10.786
94686W        W59946  13.766  12.713   4.679
94687W        W59947  37.887  34.348   2.924
94688W        W59948   0.011  22.691   3.977
94689W        W59949  29.366  28.065  13.772
94690W        W59950  34.533   7.883  13.563
94691W        W59951  15.509  38.544  12.819
94692W        W59952   6.410  17.941  13.924
94693W        W59953  42.766   0.667   1.698
94694W        W59954  39.615   9.352  14.034
94695W        W59955  21.792  12.092   2.614
94696W        W59956  40.426  28.898   0.867
94697W        W59957   4.336  41.605   3.150
94698W        W59958  27.189   8.879  12.860
94699W        W59959  37.428  21.715  10.705
94700W        W59960  32.675  31.609   3.252
94701W        W59961  20.703   3.703   1.665
94702W        W59962  41.028  15.576  12.138
94703W        W59963   8.756  34.057   0.288
94704W        W59964   9.911   1.274   3.181
94705W        W59965  44.216  15.534  11.615
94706W        W59966   4.769  30.356  10.637
94707W        W59967  40.851  20.072   0.257
94708W        W59968  15.920  11.103  11.899
94709W        W59969  43.369  18.973  14.368
94710W        W59970  23.588  32.558  12.462
94711W        W59971  12.273  28.133  12.966
94712W        W59972  34.365   0.123   2.896
94713W        W59973  19.231  42.079  12.090
94714W        W59974  28.736  11.742  11.997
94715W        W59975  39.021  41.808   3.595
94716W        W59976  19.727   0.405  10.681
94717W        W59977   2.382  19.935   2.806
94718W        W59978  23.729   5.278   2.757
94719W        W59979   1.247  43.497  13.038
94720W        W59980  35.341  43.409  11.413
94721W        W59981  20.597  36.457   4.630
94722W        W59982  34.850  25.058  14.715
94723W        W59983  42.619   1.233  14.894
94724W        W59984   0.512  35.167  11.836
94725W        W59985  24.027  13.176  14.053
94726W        W59986  41.291  34.042   0.968
94727W        W59987  22.735  18.063   0.730
94728W        W59988  31.386  14.838  11.608
94729W        W59989  22.997  20.389  13.770
94730W        W59990  26.148  20.166   2.945
94731W        W59991  19.679  17.124   0.375
94732W        W59992   3.811  27.063  14.059
94733W        W59993  13.310  16.541   2.320
94734W        W59994  23.240  17.349   1.261
94735W        W59995  22.788  18.508   9.908
94736W        W59996  10.834  34.516   1.190
94737W        W59997   3.643  34.099  14.544
94738W        W59998  13.878  25.778  14.004
94739W        W59999  13.810  12.916   1.361
94740W        W60000   5.000  41.074   3.653
94741W        W60001  15.165  11.560  11.691
94742W        W60002   3.147   3.686  12.270
94743W        W60003   7.672  22.588  12.048
94744W        W60004  42.508  10.819   0.469
94745W        W60005   4.458  42.036  11.801
94746W        W60006  25.403  27.571  12.122
94747W        W60007  23.074   4.377   0.165
94748W        W60008  27.423  23.292   2.729
94749W        W60009  24.254  16.707   1.874
94750W        W60010   2.755  33.638  12.388
94751W        W60011   1.007  23.950  14.295
94752W        W60012  33.506   4.951  13.904
94753W        W60013   9.763  28.606   1.398
94754W        W60014   2.809  29.929  10.703
94755W        W60015  13.152  37.457   1.202
94756W        W60016  37.653  12.589  13.252
94757W        W60017  40.738  21.671   1.688
94758W        W60018  21.540  41.004   0.135
94759W        W60019  15.319  10.340   1.898
94760W        W60020  41.095  37.424   3.620
94761W        W60021  21.163  13.319   0.837
94762W        W60022  21.205  22.353  14.003
94763W        W60023   6.406  43.767   1.215
94764W        W60024  19.772  24.040   4.978
94765W        W60025  36.489   0.029   4.500
94766W        W60026  25.123  37.462  11.454
94767W        W60027  25.122  16.982  10.022
94768W        W60028  12.680  27.992  10.616
94769W        W60029  11.619   2.423   3.953
94770W        W60030  20.821  27.480  14.806
94771W        W60031  35.058   5.231   3.883
94772W        W60032  25.151  24.110   3.900
94773W        W60033  35.938  31.013  14.863
94774W        W60034  26.369  17.816  14.735
94775W        W60035  29.106   3.963   4.072
94776W        W60036   0.725  25.604   0.931
94777W        W60037  26.531  16.121   4.274
94778W        W60038  25.031  24.695   0.871
94779W        W60039  33.170  11.751  12.556
94780W        W60040  11.261  28.029  13.293
94781W        W60041  31.920  40.830   3.307
94782W        W60042  31.072  37.855  13.082
94783W        W60043  25.532   4.842   5.553
94784W        W60044  29.162  43.395  11.512
94785W        W60045  19.582  18.616  14.973
94786W        W60046  26.982  31.691   1.907
94787W        W60047   7.567  38.521  10.815
94788W        W60048  14.829   6.336  11.620
94789W        W60049  18.091   4.972   2.841
94790W        W60050   6.116   9.149  11.189
94791W        W60051  25.441   3.009   0.896
94792W        W60052  23.540  15.229  12.704
94793W        W60053  17.503   8.345   4.811
94794W        W60054  28.968  29.240  12.154
94795W        W60055   8.819  35.376  10.760
94796W        W60056  36.082  16.283  11.621
94797W        W60057   4.160  37.606   9.837
94798W        W60058   8.451  33.002   4.547
94799W        W60059  37.017  14.112  12.884
94800W        W60060   4.708  16.740  14.419
94801W        W60061  43.948  22.603  13.290
94802W        W60062  23.296  28.054   4.574
94803W        W60063  26.988  14.795  13.080
94804W        W60064  12.126  14.029  12.569
94805W        W60065  32.184  27.875  14.909
94806W        W60066   9.887  10.323  12.888
94807W        W60067  20.110   1.195  10.743
94808W        W60068   1.807  18.509   1.798
94809W        W60069  27.627  26.229  13.070
94810W        W60070   5.643  42.775   2.155
94811W        W60071  29.643  11.163  10.733
94812W        W60072  11.658  33.510   2.611
94813W        W60073   9.841  25.913   3.487
94814W        W60074  15.289  15.850  10.326
94815W        W60075  23.472  36.808   9.781
94816W        W60076  33.463  37.506   4.632
94817W        W60077  39.198  24.580  13.032
94818W        W60078   0.682  18.322  12.058
94819W        W60079   8.316  29.610   0.826
94820W        W60080  44.466  11.238   1.710
94821W        W60081  36.122  41.347   4.026
94822W        W60082  41.833  12.788   0.903
94823W        W60083   9.812  25.547  10.140
94824W        W60084   0.673  16.087  14.889
94825W        W60085  40.505  11.343  11.114
94826W        W60086  31.059   7.863   2.750
94827W        W60087  16.266   8.931  14.881
94828W        W60088  18.058  12.335  11.056
94829W        W60089   5.758  35.268   0.366
94830W        W60090  42.580  34.895  12.088
94831W        W60091  22.274  24.940  13.057
94832W        W60092   5.015  19.938  12.493
94833W        W60093   0.005  22.228   4.175
94834W        W60094  20.035  29.074   2.711
94835W        W60095   3.174   4.330  12.898
94836W        W60096  37.562  17.075   3.297
94837W        W60097  30.502   3.697  11.346
94838W        W60098  14.221   6.747  10.818
94839W        W60099  38.059  20.012  13.438
94840W        W60100  24.064  27.445  13.060
94841W        W60101   7.437  22.987  13.424
94842W        W60102  24.631  32.561  10.422
94843W        W60103  41.787  38.053   3.657
94844W        W60104  31.442   8.299  13.982
94845W        W60105  12.640  35.009  10.740
94846W        W60106  11.031  22.633  12.044
94847W        W60107  18.985  17.083  11.961
94848W        W60108  18.016  21.968  12.874
94849W        W60109  35.560   5.682  10.847
94850W        W60110  21.560  19.466   3.225
94851W        W60111  14.703   5.386   2.769
94852W        W60112  16.117  12.799  13.372
94853W        W60113  25.401  26.067   3.673
94854W        W60114  37.353  33.645   1.788
94855W        W60115  14.052   2.169   4.004
94856W        W60116   5.828   5.886   0.775
94857W        W60117  40.784  20.713  13.462
94858W        W60118  15.175   7.347  10.992
94859W        W60119   8.830  34.356  10.724
94860W        W60120  12.852  22.266  11.630
94861W        W60121  18.373  27.942   5.030
94862W        W60122  43.930   8.854  13.051
94863W        W60123   7.386  34.156   1.862
94864W        W60124  36.441   5.251   4.648
94865W        W60125  32.435  33.261   0.886
94866W        W60126  21.789  30.061   1.421
94867W        W60127  18.544   2.467  10.683
94868W        W60128   6.630  44.550   1.027
94869W        W60129  35.484  38.302  12.410
94870W        W60130   8.283  23.472  13.433
94871W        W60131  20.992  39.368   3.258
94872W        W60132  36.574  33.065  12.159
94873W        W60133   6.873  26.544  14.060
94874W        W60134  43.417  19.809   0.514
94875W        W60135  33.312  16.125  10.506
94876W        W60136  24.028   2.314   2.846
94877W        W60137   4.883  26.398   5.026
94878W        W60138   2.090  12.788   0.718
94879W        W60139   7.122  18.074   4.497
94880W        W60140  39.925  15.388  12.651
94881W        W60141  14.834   1.825  13.935
94882W        W60142  26.902  17.615  12.525
94883W        W60143  29.399  27.592  13.039
94884W        W60144  28.497  30.764   4.018
94885W        W60145  44.532  19.336   3.686
94886W        W60146   5.190  44.909  14.922
94887W        W60147   9.738  14.872   2.339
94888W        W60148  36.812  37.868  12.340
94889W        W60149  20.497   6.201   1.696
94890W        W60150  10.926  20.480   3.382
94891W        W60151   4.325  26.146  13.754
94892W        W60152  43.687   5.505   0.920
94893W        W60153   0.723  36.931  12.540
94894W        W60154   4.541  25.898  12.854
94895W        W60155  42.065  10.132   3.815
94896W        W60156   0.584  16.555  13.606
94897W        W60157   7.738  21.968   1.351
94898W        W60158  18.927  31.403  11.080
94899W        W60159  30.851  11.081   2.151
94900W        W60160  30.625  35.128   2.810
94901W        W60161   7.235  26.027   1.167
94902W        W60162  12.295  19.264  12.421
94903W        W60163  41.428   9.127   1.506
94904W        W60164  29.642  12.215   2.889
94905W        W60165  18.285  11.107  11.939
94906W        W60166  34.512  41.084  10.380
94907W        W60167   1.451  24.538  12.047
94908W        W60168  43.327  41.861  10.851
94909W        W60169  41.576  20.358  11.147
94910W        W60170  36.022  11.137  14.922
94911W        W60171  36.244  35.807   4.577
94912W        W60172  23.155  10.268  10.632
94913W        W60173   9.293  22.012  13.501
94914W        W60174   9.257  24.022  12.304
94915W        W60175  13.254  13.696  12.651
94916W        W60176  15.050  42.080   1.833
94917W        W60177  16.592  34.959   2.736
94918W        W60178  33.471  19.309  14.530
94919W        W60179  31.478  29.590  13.644
94920W        W60180  36.561  15.574   3.292
94921W        W60181  34.472  35.911   0.070
94922W        W60182   9.187  43.524  14.777
94923W        W60183  25.167  26.412   1.369
94924W        W60184  39.939  43.890  14.565
94925W        W60185  20.489  30.694  12.128
94926W        W60186  12.708   8.937  12.570
94927W        W60187  29.761   8.799   3.528
94928W        W60188   3.768  23.641  13.844
94929W        W60189   1.546  39.252  13.545
94930W        W60190  28.963  18.308   4.136
94931W        W60191  17.667  41.901  10.614
94932W        W60192   7.726  42.019  11.744
94933W        W60193  11.627  20.137  12.125
94934W        W60194   7.101  36.371   1.788
94935W        W60195   6.962  36.112  10.580
94936W        W60196  12.655   7.450   2.309
94937W        W60197  21.876   3.742   0.574
94938W        W60198   1.740  14.577  14.964
94939W        W60199  25.065  15.804  10.449
94940W        W60200  42.349  29.153  14.847
94941W        W60201   6.847  18.019  11.361
94942W        W60202   3.569  32.549  11.782
94943W        W60203  13.856  30.878  11.551
94944W        W60204  29.699  31.987  10.913
94945W        W60205  22.700  36.254  14.037
94946W        W60206  38.569  19.911   3.297
94947W        W60207  41.672  20.998  13.865
94948W        W60208  12.168  11.739   2.230
94949W        W60209  43.382  27.536   4.102
94950W        W60210  26.975  27.533   0.264
94951W        W60211  25.740   0.350  12.916
94952W        W60212   3.191  29.365   0.483
94953W        W60213  43.965  23.832   4.488
94954W        W60214  34.049  34.397   0.791
94955W        W60215  12.629  25.476  11.229
94956W        W60216   8.250  32.771   2.442
94957W        W60217   6.188  19.103   0.418
94958W        W60218  27.256  13.635  12.431
94959W        W60219  15.449  15.322   2.186
94960W        W60220   3.027  21.162  13.420
94961W        W60221  34.037  25.512  12.099
94962W        W60222  34.431  35.080  11.102
94963W        W60223   1.499  13.139  12.380
94964W        W60224  29.950  24.711  10.310
94965W        W60225  11.884   3.143   3.174
94966W        W60226  25.169  44.522   4.201
94967W        W60227  39.961  28.683   1.832
94968W        W60228  32.085  32.835  12.082
94969W        W60229  18.393  37.292  10.202
94970W        W60230  22.491  40.916   3.710
94971W        W60231  11.084  44.904   1.848
94972W        W60232  27.627  20.340   0.033
94973W        W60233  14.212  18.144  11.675
94974W        W60234  32.670  26.060   1.684
94975W        W60235   5.568  32.062   5.014
94976W        W60236  18.296   1.315   0.981
94977W        W60237  10.113  18.331  10.171
94978W        W60238   5.825  34.573  12.869
94979W        W60239   7.500  23.742  14.972
94980W        W60240  27.558   4.976  14.308
94981W        W60241  20.297   8.323  14.925
94982W        W60242  13.689   9.338  14.071
94983W        W60243  20.642   5.416  11.627
94984W        W60244   6.908   4.913   3.670
94985W        W60245   0.932   2.367  13.752
94986W        W60246  23.642   8.697  12.151
94987W        W60247  38.073  39.121  14.440
94988W        W60248   7.301  43.895   1.360
94989W        W60249  32.468  11.170   2.364
94990W        W60250  10.741   9.402   2.745
94991W        W60251  13.718   0.411  12.514
94992W        W60252  14.541  31.144   2.259
94993W        W60253  35.212  17.024   3.296
94994W        W60254  30.775   4.418   1.340
94995W        W60255  28.196  36.309   0.822
94996W        W60256   5.322  27.968  12.546
94997W        W60257  24.253   0.963   3.577
94998W        W60258   5.677  35.767   0.461
94999W        W60259  40.653   1.362  14.726
95000W        W60260  35.143   2.975   1.787
95001W        W60261  41.796  35.445  10.528
95002W        W60262  34.057  24.534   1.107
95003W        W60263  27.892  40.606   4.062
95004W        W60264   5.863  38.383  14.347
95005W        W60265   2.878   6.214  13.127
95006W        W60266  42.324  24.648   3.603
95007W        W60267  41.290   3.481  12.916
95008W        W60268  14.427  38.752  14.685
95009W        W60269  25.307  15.201   0.720
95010W        W60270  14.347   8.442  11.127
95011W        W60271  27.015   5.606   3.070
95012W        W60272   5.114   9.680  12.066
95013W        W60273  24.540  11.152  11.207
95014W        W60274  41.464   2.434  14.739
95015W        W60275  35.066   0.265  12.037
95016W        W60276  25.975  39.463   4.640
95017W        W60277  11.069  30.073   0.204
95018W        W60278  27.777  35.427   4.462
95019W        W60279  15.124  14.989  14.925
95020W        W60280   5.947  34.045  12.969
95021W        W60281  41.850  18.141  13.156
95022W        W60282   6.256   5.743   2.380
95023W        W60283  38.062  29.123  14.482
95024W        W60284  32.386  22.503   0.672
95025W        W60285  33.135  29.197  13.439
95026W        W60286   9.428  19.964   1.154
95027W        W60287  40.300  36.588   4.559
95028W        W60288  12.656  25.914  13.040
95029W        W60289  18.966  13.312  12.927
95030W        W60290  33.187  41.983   3.208
95031W        W60291  22.688   0.536  11.541
95032W        W60292  37.308  10.363  14.478
95033W        W60293  31.380   7.793   4.130
95034W        W60294   9.275  42.845  12.852
95035W        W60295  19.588  35.715   1.220
95036W        W60296  27.683   0.167  14.861
95037W        W60297  38.405   6.257   0.568
95038W        W60298  22.060  36.039   1.334
95039W        W60299  42.022   2.041   2.252
95040W        W60300  21.612  41.000  11.116
95041W        W60301  12.587  38.336   1.294
95042W        W60302  39.931  36.411  11.388
95043W        W60303  20.341   0.750  14.185
95044W        W60304  11.417  17.795   3.672
95045W        W60305  27.563  14.488   1.106
95046W        W60306  39.261  28.393   1.374
95047W        W60307  11.312  35.380   4.673
95048W        W60308  22.105  27.011  12.388
95049W        W60309  25.268  44.007   4.229
95050W        W60310   4.229   6.718   3.202
95051W        W60311   5.818  30.084   0.330
95052W        W60312  31.579  33.664   2.389
95053W        W60313   4.380  11.879   1.723
95054W        W60314  19.632  37.358  12.534
95055W        W60315  15.867  39.308   1.749
95056W        W60316   9.263   6.684  11.828
95057W        W60317  41.542  31.573  11.122
95058W        W60318  19.612   6.708   1.848
95059W        W60319  38.682  44.408   1.458
95060W        W60320  10.703  29.916  10.644
95061W        W60321  26.694  23.634   2.020
95062W        W60322  43.879  40.774  12.631
95063W        W60323  18.289  38.298  14.548
95064W        W60324  21.494  42.071   1.854
95065W        W60325  44.894  13.504   0.532
95066W        W60326  37.596  11.202  12.188
95067W        W60327  18.825  17.870  11.145
95068W        W60328  34.621   8.384   3.606
95069W        W60329  43.334  38.758   1.344
95070W        W60330   1.026  39.638   0.748
95071W        W60331  44.284   9.264  14.434
95072W        W60332  39.958  18.508   4.749
95073W        W60333  43.291  36.731   4.162
95074W        W60334  42.601   3.438   1.325
95075W        W60335  41.701  17.755   0.810
95076W        W60336   7.780  37.661  13.034
95077W        W60337  34.171  27.514  14.941
95078W        W60338  33.137  15.746  11.532
95079W        W60339   8.565  44.538   4.163
95080W        W60340  28.629  15.197  14.408
95081W        W60341  21.806  19.914   1.921
95082W        W60342  14.334  16.634  12.926
95083W        W60343  29.884  11.824   4.983
95084W        W60344  31.930  23.676  13.570
95085W        W60345  22.131  13.400  14.912
95086W        W60346  14.503  27.548  13.273
95087W        W60347   0.459  16.562  11.540
95088W        W60348   0.369  15.071  11.033
95089W        W60349  10.656   9.828   1.784
95090W        W60350   8.166  40.359   1.791
95091W        W60351  26.563  20.709   2.384
95092W        W60352   4.642  39.456   4.146
95093W        W60353  10.422  39.328   2.311
95094W        W60354  43.239  28.555  12.585
95095W        W60355   5.424   2.031  13.778
95096W        W60356   3.388  37.804  11.134
95097W        W60357   4.606  32.015  13.947
95098W        W60358  41.199  38.785  10.260
95099W        W60359  25.525  34.970  13.148
95100W        W60360  21.533  22.549   3.213
95101W        W60361  18.588  26.129   3.648
95102W        W60362  10.391   4.694   2.706
95103W        W60363   3.265  14.751   3.838
95104W        W60364  20.594  44.569   1.377
95105W        W60365  30.657   1.964   2.145
95106W        W60366   8.165  34.872   1.493
95107W        W60367  26.162  18.575  11.617
95108W        W60368  22.776   8.497   4.260
95109W        W60369  15.779  40.541  14.971
95110W        W60370  22.684  28.598  14.999
95111W        W60371  28.396   7.924  12.941
95112W        W60372  17.528  10.063  12.538
95113W        W60373  11.298  35.042   2.884
95114W        W60374  14.978  17.978   1.852
95115W        W60375  28.978  34.135  11.097
95116W        W60376  33.241  43.382   3.614
95117W        W60377  14.860  20.378   4.210
95118W        W60378  27.419  10.161  14.519
95119W        W60379  37.444  19.570  13.052
95120W        W60380  43.770   2.332  11.695
95121W        W60381  12.594  35.075   4.295
95122W        W60382   3.873  44.320   4.784
95123W        W60383  12.195  39.834  14.188
95124W        W60384  14.264  30.141  14.490
95125W        W60385  20.222  17.209  10.407
95126W        W60386  17.294  39.275   1.866
95127W        W60387  11.726  24.208  10.893
95128W        W60388  23.166  32.233   1.479
95129W        W60389  20.431  38.452  10.224
95130W        W60390  16.321   6.176  11.050
95131W        W60391  12.476  21.608  14.770
95132W        W60392   2.674   0.691  14.911
95133W        W60393  30.356   3.450   4.412
95134W        W60394  30.950  27.889  12.000
95135W        W60395  16.328  44.950  10.362
95136W        W60396  40.332  44.589  10.469
95137W        W60397  14.018  42.991  14.397
95138W        W60398  33.922  16.139   1.565
95139W        W60399  11.448  28.574  14.033
95140W        W60400   4.165   1.218   1.327
95141W        W60401  18.053   6.766   4.336
95142W        W60402  35.947  25.840   3.705
95143W        W60403   6.797  41.509  12.473
95144W        W60404  27.454  28.084   0.461
95145W        W60405  40.844  15.521  12.622
95146W        W60406  13.972  14.559   1.331
95147W        W60407  23.636  25.971  12.574
95148W        W60408  37.893   8.918  13.113
95149W        W60409   1.786   8.919  14.684
95150W        W60410  18.250  35.443   1.370
95151W        W60411   5.453  42.330  12.249
95152W        W60412  24.264  13.669   1.334
95153W        W60413  22.123   1.729   2.643
95154W        W60414  37.058  35.956  12.885
95155W        W60415  42.018   0.557   2.415
95156W        W60416  28.142  31.522   1.402
95157W        W60417  15.094   5.427  13.190
95158W        W60418  43.236  13.334  11.815
95159W        W60419  16.760  28.656  13.227
95160W        W60420  24.274  19.864  11.625
95161W        W60421  19.499  25.100   0.922
95162W        W60422   0.872  38.933  12.490
95163W        W60423   0.332   4.895  14.230
95164W        W60424  42.535   1.448  12.577
95165W        W60425   5.200  24.250   2.178
95166W        W60426  10.096  39.805  10.750
95167W        W60427  20.908  14.188   3.012
95168W        W60428  31.489  14.871  12.970
95169W        W60429  33.331  40.630  11.511
95170W        W60430   0.927   2.927   2.908
95171W        W60431  13.456  24.264   0.447
95172W        W60432  35.800  24.333   5.312
95173W        W60433  39.951   7.676   3.671
95174W        W60434  30.093  20.248  12.815
95175W        W60435  12.600   4.455   2.753
95176W        W60436  16.314   3.511   4.420
95177W        W60437  14.867  32.393  12.671
95178W        W60438  22.596  44.713  11.779
95179W        W60439  39.060  39.915   2.018
95180W        W60440  30.179  43.453  13.105
95181W        W60441  26.516   0.664  10.638
95182W        W60442   3.783  43.293  10.756
95183W        W60443  31.214  20.943   4.176
95184W        W60444  33.618   1.674  14.381
95185W        W60445  25.212  26.078  12.458
95186W        W60446   9.769  34.751  10.565
95187W        W60447  36.665   4.882   3.131
95188W        W60448  35.090  29.181  13.952
95189W        W60449   4.559  30.868  13.578
95190W        W60450   3.687  24.974   0.308
95191W        W60451  37.789   2.964   5.189
95192W        W60452  26.958  39.744  13.359
95193W        W60453  16.381  28.048   3.286
95194W        W60454   6.962  20.214   4.121
95195W        W60455  35.891   9.217   0.747
95196W        W60456  31.978  17.862   4.184
95197W        W60457   0.466   5.488   3.390
95198W        W60458  12.750  43.456   3.309
95199W        W60459  28.513  26.885  14.070
95200W        W60460  27.696  40.564  14.925
95201W        W60461  29.200   2.133   0.763
95202W        W60462  43.968  21.609   2.764
95203W        W60463   2.475   3.857  12.836
95204W        W60464  15.758  40.370  11.452
95205W        W60465  41.268  30.413   4.595
95206W        W60466  21.166  24.591  12.479
95207W        W60467  42.057  10.225  12.551
95208W        W60468  18.577  43.544  14.065
95209W        W60469  35.798  15.153   0.954
95210W        W60470  26.224  41.781  14.160
95211W        W60471  18.055  12.376  12.424
95212W        W60472  19.726  30.587  10.698
95213W        W60473  26.678  26.991   2.251
95214W        W60474   5.313  10.321   3.151
95215W        W60475  16.230  40.948   3.120
95216W        W60476  23.515  11.736   1.437
95217W        W60477  15.212  32.549  10.692
95218W        W60478  24.174  18.192  13.038
95219W        W60479  27.479   4.550   1.297
95220W        W60480   0.693  30.501   1.357
95221W        W60481   3.182   7.478  14.682
95222W        W60482   8.905  19.607  11.142
95223W        W60483  43.120  39.523  14.428
95224W        W60484   2.680   1.437   1.045
95225W        W60485  35.814   7.353  13.623
95226W        W60486   8.198  41.489   3.656
95227W        W60487   7.068  17.651  14.390
95228W        W60488  21.740  41.985   3.544
95229W        W60489  43.795  33.170   2.780
95230W        W60490  19.793   1.265   3.239
95231W        W60491  13.557  38.871   3.612
95232W        W60492   8.555  13.651   2.765
95233W        W60493  44.003  35.634  12.584
95234W        W60494  13.840  43.119   4.554
95235W        W60495  34.003   0.844   4.072
95236W        W60496  17.032  33.054   2.535
95237W        W60497  18.629   9.854   3.958
95238W        W60498   6.905  10.887   0.463
95239W        W60499   4.019  19.469  13.065
95240W        W60500   3.988   0.269   0.269
95241W        W60501  37.356   1.426   0.288
95242W        W60502   5.447   7.777  14.276
95243W        W60503  44.062  13.841   2.152
95244W        W60504   0.765  27.202  14.991
95245W        W60505  38.348  28.611   0.884
95246W        W60506  33.965   5.652  14.921
95247W        W60507  12.853   5.349   0.011
95248W        W60508  31.645  22.751   1.332
95249W        W60509  27.782  32.564   2.193
95250W        W60510  29.641  18.565  13.253
95251W        W60511  30.479  13.547  13.235
95252W        W60512   7.151  40.445   2.841
95253W        W60513   4.941  22.610   4.178
95254W        W60514  11.357   8.469   1.174
95255W        W60515  11.327  26.980  13.388
95256W        W60516  14.649  13.296  13.899
95257W        W60517   8.500   0.753   1.027
95258W        W60518  20.732   4.719  13.071
95259W        W60519  18.424  27.439  11.306
95260W        W60520   3.601  15.634  11.682
95261W        W60521  41.446  42.688   2.770
95262W        W60522   8.019   1.771   4.701
95263W        W60523   6.672  31.490   4.617
95264W        W60524  12.168   7.696   1.899
95265W        W60525  28.901  40.862   1.409
95266W        W60526  39.466  22.404  12.862
95267W        W60527  14.606  18.966  11.591
95268W        W60528  42.268  25.960  14.125
95269W        W60529  33.668  24.624  11.147
95270W        W60530  10.359  34.162  12.972
95271W        W60531  43.324  40.251  13.436
95272W        W60532   1.070  27.796   2.650
95273W        W60533  24.858  10.197  14.334
95274W        W60534  42.989  35.534   1.939
95275W        W60535   8.779  13.175  14.741
95276W        W60536  13.818  21.782  14.820
95277W        W60537  13.369  21.682  10.559
95278W        W60538   7.407  27.778  13.916
95279W        W60539  31.038   1.500  13.487
95280W        W60540  14.836   7.301   9.820
95281W        W60541  25.219  22.604  11.110
95282W        W60542  16.193  33.159   4.509
95283W        W60543  23.725   9.209   4.213
95284W        W60544   8.760  10.852   4.664
95285W        W60545   2.093  12.255  14.246
95286W        W60546  35.390  44.320  11.457
95287W        W60547  38.479  40.952   3.863
95288W        W60548   0.360  39.504   1.452
95289W        W60549   3.052  25.113  12.355
95290W        W60550  42.900  41.965  13.624
95291W        W60551  39.426   3.920  12.382
95292W        W60552  31.087  40.252  11.383
95293W        W60553  37.763   5.483   0.779
95294W        W60554  43.975  18.973  11.063
95295W        W60555  14.188  17.799  13.334
95296W        W60556   7.642  44.355  11.132
95297W        W60557  20.444  31.475   4.462
95298W        W60558  27.221  13.333  13.108
95299W        W60559  29.024  29.800  13.778
95300W        W60560  16.769  26.580   4.264
95301W        W60561  10.121   0.127   2.010
95302W        W60562  17.068  11.225  11.369
95303W        W60563   0.957   5.845  12.391
95304W        W60564  35.563  21.558   3.280
95305W        W60565   2.463  13.158  11.040
95306W        W60566  37.777  27.609  14.914
95307W        W60567  31.438  22.992  13.284
95308W        W60568   9.787   1.819   1.827
95309W        W60569  15.549  14.181   4.124
95310W        W60570   8.785  31.169  10.087
95311W        W60571  10.906   5.217   0.803
95312W        W60572  26.581  12.103   2.660
95313W        W60573  17.608   0.171  14.012
95314W        W60574  20.126  29.987   3.716
95315W        W60575  42.009   2.795   1.485
95316W        W60576  33.788  11.798   4.578
95317W        W60577  10.523   4.192  11.559
95318W        W60578   9.622  20.155   2.808
95319W        W60579  23.396  38.358   3.868
95320W        W60580  36.404  30.575   2.711
95321W        W60581  12.708   0.426  12.542
95322W        W60582  44.406  24.062  12.566
95323W        W60583  14.318  29.160  12.151
95324W        W60584  12.795  17.772   0.056
95325W        W60585   3.247  28.969  11.647
95326W        W60586   3.125  29.069  12.141
95327W        W60587  39.466  29.014   4.115
95328W        W60588  21.683   2.975   1.933
95329W        W60589   8.859  40.433   4.157
95330W        W60590  16.142   7.243   1.171
95331W        W60591  19.443  33.904   4.077
95332W        W60592   6.549  19.758  12.598
95333W        W60593  24.542  22.675  11.543
95334W        W60594   2.244  11.852   1.871
95335W        W60595  14.873  38.791  12.453
95336W        W60596  10.416  23.765   0.879
95337W        W60597  28.607  27.462   0.925
95338W        W60598  38.291  27.008  12.483
95339W        W60599  27.460   3.306  14.317
95340W        W60600  13.264  36.481  12.184
95341W        W60601  40.269  16.167  12.879
95342W        W60602  38.654   2.721   4.199
95343W        W60603  12.375  37.855   2.020
95344W        W60604  11.068  44.485   2.172
95345W        W60605  24.563  17.577  14.639
95346W        W60606   0.254  13.118  14.894
95347W        W60607   8.962  14.047   2.338
95348W        W60608  19.230  11.254   0.851
95349W        W60609   6.224  30.670   1.190
95350W        W60610  10.210  38.614  14.635
95351W        W60611  19.675  43.606   2.796
95352W        W60612  42.366  14.278   2.779
95353W        W60613  40.234  17.117  12.898
95354W        W60614  25.188   2.177   4.450
95355W        W60615  26.419  35.945   0.863
95356W        W60616  15.566  28.997  11.928
95357W        W60617  39.967  11.668  11.903
95358W        W60618  26.377  23.004   0.380
95359W        W60619  35.913  38.377   4.425
95360W        W60620  13.761  43.754   0.425
95361W        W60621   3.277  25.300   2.581
95362W        W60622   6.780  15.170  14.334
95363W        W60623   6.285   1.748  14.001
95364W        W60624  39.815  26.184   3.263
95365W        W60625  31.133  22.976   1.851
95366W        W60626  43.876  22.400   3.621
95367W        W60627  21.983  26.008   3.932
95368W        W60628  28.205  19.510   4.633
95369W        W60629  12.857  36.579   4.541
95370W        W60630  39.421  38.584   1.223
95371W        W60631  13.855  28.760   0.884
95372W        W60632  42.366  27.486   4.115
95373W        W60633  40.268   0.106  10.373
95374W        W60634  18.699   4.192   1.260
95375W        W60635  14.086   2.314  12.513
95376W        W60636   4.438  25.700   2.847
95377W        W60637   1.399  35.380   4.348
95378W        W60638   3.844  13.576  10.387
95379W        W60639  11.849  35.572   4.961
95380W        W60640  43.078  29.597   1.765
95381W        W60641   6.879  23.488   3.660
95382W        W60642  20.772   7.783   1.179
95383W        W60643  37.003  17.557  10.877
95384W        W60644   9.145  32.452   2.928
95385W        W60645  30.834  21.231   1.363
95386W        W60646  42.297   8.577  12.263
95387W        W60647  43.302   0.266   2.875
95388W        W60648   9.246  35.998   4.037
95389W        W60649   5.196  21.174  14.511
95390W        W60650  13.063  34.190  10.804
95391W        W60651  20.031   3.856   1.891
95392W        W60652  26.141   9.753   1.720
95393W        W60653   1.517  25.997   1.842
95394W        W60654  36.586  19.799  11.038
95395W        W60655  44.249  24.510  14.449
95396W        W60656  11.804  31.711   9.904
95397W        W60657   7.424   7.904   2.687
95398W        W60658   0.881  31.943   3.551
95399W        W60659  27.057  22.056   4.548
95400W        W60660  31.005  36.139  14.692
95401W        W60661  26.301  25.475  14.350
95402W        W60662  37.586  28.728   3.402
95403W        W60663  18.680  35.359   1.114
95404W        W60664  40.515  14.570  13.279
95405W        W60665  28.387  31.813  11.710
95406W        W60666   2.151  35.377  11.959
95407W        W60667  44.284  36.436   2.818
95408W        W60668   6.255   7.910  11.653
95409W        W60669  26.035  44.377   0.430
95410W        W60670  14.459  26.781  10.115
95411W        W60671  34.094  28.841   0.907
95412W        W60672   4.212  31.257  13.569
95413W        W60673  17.516  19.187  13.906
95414W        W60674   1.343  18.145   2.357
95415W        W60675  40.558  33.177   0.314
95416W        W60676  29.981  22.938  12.290
95417W        W60677  15.828  11.822   5.031
95418W        W60678   8.137  22.353   1.395
95419W        W60679  40.854  25.883  11.577
95420W        W60680   4.195  43.297   2.279
95421W        W60681   3.354  16.833  12.914
95422W        W60682   4.423   8.801  12.425
95423W        W60683  13.647  25.745   4.720
95424W        W60684  17.648   8.291   0.086
95425W        W60685  39.463  13.132  12.552
95426W        W60686  15.595  42.447  10.230
95427W        W60687  41.381  30.584  13.390
95428W        W60688  24.676   1.384   4.216
95429W        W60689   5.499  17.792  11.933
95430W        W60690  43.470   7.298   0.947
95431W        W60691  24.635  35.986   1.902
95432W        W60692  23.045  44.890   2.226
95433W        W60693   2.351   3.699  14.674
95434W        W60694  33.952   6.744   3.289
95435W        W60695  38.627  40.834  11.240
95436W        W60696  37.463   7.103   4.188
95437W        W60697  19.222  36.557   0.939
95438W        W60698   4.425   0.451  11.481
95439W        W60699  26.747  19.310   1.968
95440W        W60700   4.374  29.707  14.873
95441W        W60701   6.306  15.109  14.521
95442W        W60702  21.986  24.867   1.044
95443W        W60703   3.736  37.618   0.723
95444W        W60704  30.669   1.517  14.900
95445W        W60705   1.845  14.067  14.943
95446W        W60706  26.229  31.879  10.313
95447W        W60707  42.457  41.039   4.220
95448W        W60708  37.009  26.674  13.455
95449W        W60709   1.979  18.047  12.520
95450W        W60710  18.242  19.664  14.269
95451W        W60711  23.916  20.192   2.470
95452W        W60712  26.595   7.919   1.426
95453W        W60713  41.303  44.438   3.128
95454W        W60714  42.459  32.942   4.866
95455W        W60715  32.110  15.768  13.506
95456W        W60716  42.427   1.358  13.092
95457W        W60717  28.052  29.843  13.410
95458W        W60718  30.663  30.872   0.947
95459W        W60719  38.001  32.669   2.281
95460W        W60720  15.041  21.103  11.697
95461W        W60721  32.682  23.112   3.091
95462W        W60722  26.734  42.097   0.885
95463W        W60723  28.098  28.975   3.430
95464W        W60724  22.213  34.687  11.565
95465W        W60725  44.840  39.246   2.217
95466W        W60726  20.180  35.543  12.150
95467W        W60727  30.134   3.799  13.625
95468W        W60728  15.159   7.712   1.823
95469W        W60729  36.957  12.216   1.751
95470W        W60730  31.642  35.047   0.909
95471W        W60731  18.745   1.861  13.313
95472W        W60732  22.255   8.831   2.046
95473W        W60733  23.701   9.439   0.408
95474W        W60734  37.893  40.048  11.021
95475W        W60735  37.051  19.091  12.961
95476W        W60736  36.474  12.818  10.054
95477W        W60737  27.050  36.204   0.455
95478W        W60738  32.203  22.652  12.874
95479W        W60739  38.859  10.961   0.384
95480W        W60740  28.199   8.951  12.164
95481W        W60741  10.839  36.576   4.750
95482W        W60742  18.361  35.368  13.865
95483W        W60743  35.118  20.522  14.588
95484W        W60744   1.445  36.580  10.907
95485W        W60745   7.279  19.533   4.107
95486W        W60746  11.708   9.005   5.417
95487W        W60747  17.961  37.034   0.922
95488W        W60748  19.880  15.326   5.079
95489W        W60749  10.505  41.377   3.450
95490W        W60750  40.075  16.226  11.844
95491W        W60751  33.011  12.651   0.786
95492W        W60752   9.399  18.009   0.534
95493W        W60753  23.556  17.006  12.614
95494W        W60754  30.703  29.671   1.837
95495W        W60755  42.759   2.688  12.593
95496W        W60756  11.798  19.887  11.212
95497W        W60757  39.617  44.063   3.864
95498W        W60758  20.501  26.005   2.701
95499W        W60759  28.712  23.259   0.765
95500W        W60760  31.744  20.227   2.206
95501W        W60761  44.525  33.826  14.698
95502W        W60762   9.939  44.774   4.158
95503W        W60763   1.974   1.673   4.177
95504W        W60764  21.284  13.224   1.735
95505W        W60765  23.072  14.615  11.523
95506W        W60766  13.123  42.917  14.307
95507W        W60767  14.182  20.601  10.860
95508W        W60768  18.641  16.800  10.188
95509W        W60769  39.842   9.555   0.743
95510W        W60770  13.863  41.269   3.597
95511W        W60771  24.160  23.707  14.064
95512W        W60772  43.280  36.816   2.256
95513W        W60773  32.190   7.350  13.436
95514W        W60774  25.678  27.960   0.718
95515W        W60775  38.355   6.321  12.080
95516W        W60776  27.560  33.600  12.477
95517W        W60777  43.552   8.474  10.748
95518W        W60778   5.006  39.423  13.902
95519W        W60779  24.101  19.601   2.136
95520W        W60780   4.889   6.667   4.235
95521W        W60781  44.744  23.708  14.537
95522W        W60782   7.601   4.658   4.210
95523W        W60783  13.734  11.305   4.237
95524W        W60784   2.297  22.069  14.935
95525W        W60785  34.844   8.354  12.968
95526W        W60786  42.937  11.170   0.937
95527W        W60787   5.121  43.944  14.812
95528W        W60788  33.963  31.289   3.753
95529W        W60789  41.857  30.152  13.874
95530W        W60790  20.556   7.414  14.967
95531W        W60791  29.241  13.049  14.678
95532W        W60792   5.790  33.162  13.847
95533W        W60793  31.063  16.325   2.807
95534W        W60794   0.648  38.464   1.380
95535W        W60795   9.687  32.473   4.157
95536W        W60796  39.898  18.228   0.712
95537W        W60797  24.489  31.935  13.913
95538W        W60798  22.095  44.781  13.918
95539W        W60799  10.954  39.031  10.725
95540W        W60800  19.684  31.060  10.903
95541W        W60801  21.253  36.423   1.033
95542W        W60802  29.562   8.799   0.230
95543W        W60803  13.355  27.067  13.131
95544W        W60804  33.901  42.980   2.519
95545W        W60805  12.251  25.961  10.947
95546W        W60806   2.735  13.029  12.024
95547W        W60807  34.988  11.696  13.787
95548W        W60808  38.107  39.244  13.877
95549W        W60809  31.356  28.241   3.284
95550W        W60810  41.501  21.215  10.836
95551W        W60811  32.975  28.674  11.494
95552W        W60812  20.256  15.455  10.937
95553W        W60813  30.928   5.116  12.118
95554W        W60814  37.908  15.226  14.707
95555W        W60815   0.661   7.012  11.164
95556W        W60816  14.289  13.632   1.339
95557W        W60817  33.946   8.198   4.587
95558W        W60818  20.814   9.813  11.638
95559W        W60819   5.887  26.398   4.272
95560W        W60820  13.223  17.048   4.055
95561W        W60821  35.850  42.345  11.130
95562W        W60822   6.786  22.059  10.982
95563W        W60823  29.127   1.068   5.012
95564W        W60824  43.458  10.362  13.976
95565W        W60825  27.054  42.751   4.457
95566W        W60826  15.728  36.939   0.287
95567W        W60827  40.987  12.124  13.807
95568W        W60828  15.850  18.973   1.815
95569W        W60829  40.416  32.952  12.127
95570W        W60830  34.299  33.581  13.432
95571W        W60831  19.261  31.939   3.870
95572W        W60832  26.989  36.723   4.623
95573W        W60833   6.853  39.861  11.864
95574W        W60834  28.525  10.636  12.471
95575W        W60835  25.028  18.157  12.510
95576W        W60836  24.886  13.218   0.358
95577W        W60837  12.175  36.661  14.826
95578W        W60838  32.408   3.719  13.556
95579W        W60839  40.240   4.058  10.596
95580W        W60840   8.804  38.847  11.173
95581W        W60841  17.915  24.731   3.223
95582W        W60842  39.333  15.293  13.775
95583W        W60843  12.804   4.953  11.613
95584W        W60844   8.852  43.341  11.976
95585W        W60845   2.693   2.397  11.924
95586W        W60846  29.291   1.924  10.871
95587W        W60847  44.974  17.510   1.366
95588W        W60848  13.178  34.259  10.288
95589W        W60849  26.101   2.233   1.484
95590W        W60850  32.680  42.773  12.897
95591W        W60851  31.445  42.102  11.589
95592W        W60852  14.854  41.670  11.080
95593W        W60853  17.813  22.053   1.284
95594W        W60854  33.399  12.904   1.048
95595W        W60855  16.479   6.211  11.627
95596W        W60856  24.841  38.046   0.898
95597W        W60857   2.145  29.640  14.485
95598W        W60858  11.857   6.235  11.056
95599W        W60859   2.243  25.192  14.762
95600W        W60860  43.953  22.486   1.838
95601W        W60861   6.151   2.218   3.743
95602W        W60862   6.406  36.303  13.001
95603W        W60863  29.880  40.316   0.897
95604W        W60864  43.715  43.592   2.640
95605W        W60865  21.943  32.595  14.270
95606W        W60866  21.177  18.072   0.668
95607W        W60867  44.500   3.919   1.304
95608W        W60868  20.200   7.810   4.904
95609W        W60869  40.347  11.712   2.823
95610W        W60870  43.459  10.535   0.759
95611W        W60871  16.769   1.164   1.398
95612W        W60872  36.431  12.439   2.432
95613W        W60873  23.971  31.464  11.107
95614W        W60874   5.668   2.208  13.359
95615W        W60875  25.477  13.543   3.281
95616W        W60876  18.667  20.149   1.728
95617W        W60877   0.314  21.367  11.030
95618W        W60878  43.897  12.435   1.861
95619W        W60879  20.273  14.818   4.605
95620W        W60880   6.631   3.711   1.317
95621W        W60881  13.197   6.170   3.132
95622W        W60882  21.613  34.869   0.908
95623W        W60883  36.533  28.646  14.643
95624W        W60884  11.103  35.273  13.314
95625W        W60885   3.334  42.449  10.504
95626W        W60886  31.009  25.448   2.800
95627W        W60887  33.886  27.543   4.250
95628W        W60888   6.163  20.010   0.364
95629W        W60889  34.135  18.770  14.868
95630W        W60890  15.256  40.594   3.875
95631W        W60891  10.851  13.929  11.121
95632W        W60892   7.617   9.858   3.364
95633W        W60893   8.298  19.168  14.000
95634W        W60894  33.859   5.196   1.808
95635W        W60895   6.821  26.227  10.184
95636W        W60896  16.579  11.400   4.088
95637W        W60897  27.509  32.938   1.655
95638W        W60898  44.359   0.048  11.057
95639W        W60899  40.392  19.626   4.052
95640W        W60900  17.057  18.692  14.979
95641W        W60901  41.483  26.772   1.732
95642W        W60902  33.339   9.681   2.898
95643W        W60903  20.165  31.106  11.079
95644W        W60904  37.241  17.573   2.397
95645W        W60905  40.277  37.167  12.870
95646W        W60906  21.025  31.828   4.631
95647W        W60907   5.693   1.433  11.891
95648W        W60908  26.259  27.645   4.089
95649W        W60909  21.311  16.619   1.507
95650W        W60910  44.367  19.482  10.474
95651W        W60911  23.497  15.178   0.378
95652W        W60912  10.546  16.281   3.650
95653W        W60913  39.882  40.381   1.223
95654W        W60914  39.458  39.102   0.295
95655W        W60915   7.980   1.500  13.990
95656W        W60916  41.096  31.932  12.006
95657W        W60917  32.944  35.100  10.865
95658W        W60918  33.580  13.694   1.350
95659W        W60919  41.755  12.239  10.110
95660W        W60920  25.025  25.744   1.921
95661W        W60921  16.330  33.493   3.709
95662W        W60922  21.756  12.867  12.391
95663W        W60923   8.421  35.148   2.814
95664W        W60924   6.437  26.154   0.313
95665W        W60925  14.752  24.674   0.335
95666W        W60926  34.874  14.650   2.780
95667W        W60927  13.919  17.405  14.770
95668W        W60928  17.730  28.336   4.119
95669W        W60929  44.272   3.254  11.624
95670W        W60930  39.629  34.981   0.806
95671W        W60931  18.559  26.287  13.319
95672W        W60932   4.590  28.531   4.608
95673W        W60933  15.546   7.772   4.188
95674W        W60934  41.901  33.592   3.092
95675W        W60935  19.803  14.604   3.176
95676W        W60936  24.562   2.671  10.846
95677W        W60937   1.321  27.245   3.242
95678W        W60938  27.039   8.781   2.318
95679W        W60939  17.270  29.585   1.393
95680W        W60940  41.027   8.178   3.121
95681W        W60941  27.497   5.498  11.036
95682W        W60942  44.801  43.762  14.934
95683W        W60943   2.269  32.408  13.133
95684W        W60944  26.638   0.776   3.700
95685W        W60945  17.594   1.240  13.715
95686W        W60946  38.869  14.608  11.930
95687W        W60947  23.686  24.748   4.341
95688W        W60948   6.393  26.494  13.795
95689W        W60949  39.864   2.773   2.215
95690W        W60950  30.526  30.671  13.118
95691W        W60951   3.463  12.211   1.858
95692W        W60952   6.122   1.795   0.527
95693W        W60953  23.929  36.516   1.820
95694W        W60954  32.602  37.089   2.867
95695W        W60955  42.707  37.873  10.066
95696W        W60956  38.250  12.115   2.239
95697W        W60957  24.148  31.223  11.568
95698W        W60958  25.745  11.903   4.733
95699W        W60959   8.268  32.601   3.404
95700W        W60960  25.272  44.426   0.835
95701W        W60961  13.302  16.502  11.345
95702W        W60962  14.556  38.603   2.664
95703W        W60963  30.522  35.987   3.753
95704W        W60964  18.514  13.132   1.492
95705W        W60965   7.141  38.939  13.401
95706W        W60966  18.877   1.833   4.362
95707W        W60967  10.225  40.611   5.097
95708W        W60968  44.304  34.938  11.864
95709W        W60969  43.377  34.895  11.482
95710W        W60970  37.627  24.903  11.561
95711W        W60971  18.074  39.805   0.377
95712W        W60972  44.929  29.998  11.592
95713W        W60973  43.554  21.183  10.413
95714W        W60974  37.471   6.750   1.156
95715W        W60975  31.742  31.098  14.379
95716W        W60976  37.000  32.429   2.942
95717W        W60977  13.057  40.008  14.269
95718W        W60978  32.038  18.879  14.432
95719W        W60979  20.197  20.242   3.888
95720W        W60980   7.434  11.728   4.596
95721W        W60981  21.769   6.318  11.605
95722W        W60982  20.938  19.621   0.839
95723W        W60983   1.559  24.046   3.667
95724W        W60984   1.276   8.710   3.835
95725W        W60985   0.274  42.994  12.890
95726W        W60986  21.486  39.562   1.932
95727W        W60987  18.794  10.108  13.889
95728W        W60988  39.818  15.790   3.283
95729W        W60989  44.336  26.054  10.662
95730W        W60990   2.999  17.577   2.609
95731W        W60991  15.467  13.646   1.984
95732W        W60992  31.508  36.975  11.046
95733W        W60993   0.845  21.967  10.703
95734W        W60994   0.229   0.828   3.820
95735W        W60995   0.413  39.974   1.186
95736W        W60996   8.885  35.981  10.998
95737W        W60997  21.705   5.805   3.563
95738W        W60998  33.103  22.264   2.921
95739W        W60999  32.633   7.144   3.255
95740W        W61000  33.308  44.257  14.265
95741W        W61001  13.108   8.400   3.886
95742W        W61002   4.666  39.059   0.858
95743W        W61003  40.593  16.580  11.531
95744W        W61004   1.340  41.455   2.702
95745W        W61005   9.624   3.211   3.700
95746W        W61006  25.785  35.259  14.863
95747W        W61007  33.441   0.536   1.408
95748W        W61008  29.084   3.789   2.760
95749W        W61009  20.210  15.331   4.603
95750W        W61010  23.064  12.352   3.568
95751W        W61011   3.678  32.168   1.885
95752W        W61012  14.085  11.712  13.574
95753W        W61013  19.231  36.986  12.617
95754W        W61014   2.854   8.746  14.956
95755W        W61015  25.774  27.084   2.417
95756W        W61016   9.003  28.957   4.713
95757W        W61017  19.065   1.204   3.637
95758W        W61018  40.351  20.229  13.921
95759W        W61019  33.945   5.620   4.240
95760W        W61020   8.660  21.487   3.232
95761W        W61021  34.831  37.750  11.903
95762W        W61022  34.964  41.822   0.516
95763W        W61023   3.797  44.358   0.325
95764W        W61024  29.240  44.914  11.985
95765W        W61025  18.127  33.564   0.729
95766W        W61026  18.642  25.022   5.024
95767W        W61027  28.714  36.330   0.707
95768W        W61028   6.149  15.267   4.122
95769W        W61029  16.865  37.097  12.472
95770W        W61030  27.453  22.010   2.226
95771W        W61031   9.275  42.254  14.441
95772W        W61032  30.544  16.147   4.563
95773W        W61033  22.198   1.298   1.708
95774W        W61034  24.763  15.696  11.411
95775W        W61035  27.025   3.273  14.860
95776W        W61036  23.571  22.132   3.393
95777W        W61037   5.384   5.831   1.523
95778W        W61038  18.656  34.144   3.787
95779W        W61039   0.134  33.180   1.142
95780W        W61040   0.601  42.995   2.614
95781W        W61041  10.214  37.943   1.014
95782W        W61042  14.582  17.680  10.165
95783W        W61043  37.440   9.867  12.407
95784W        W61044   9.948   1.015  13.313
95785W        W61045  42.462  31.442   1.742
95786W        W61046  16.641  27.654   2.012
95787W        W61047  21.955  42.693   4.589
95788W        W61048  11.055  12.447  13.912
95789W        W61049  11.387  12.207   1.296
95790W        W61050  32.169  20.067  13.777
95791W        W61051  35.096  33.574   1.401
95792W        W61052   4.472  43.871  11.200
95793W        W61053  28.175  27.207   0.988
95794W        W61054  21.845  42.108  10.744
95795W        W61055  18.471  16.738   3.713
95796W        W61056  38.859  34.321  10.785
95797W        W61057  25.729   4.124  13.516
95798W        W61058  21.676  30.911   2.710
95799W        W61059  21.179  24.632  12.980
95800W        W61060   8.752  40.494   1.887
95801W        W61061   2.734  11.835   3.414
95802W        W61062  23.920  26.129  12.046
95803W        W61063   5.139  24.476   2.636
95804W        W61064  23.100   5.869   2.067
95805W        W61065  42.147  37.006  11.338
95806W        W61066   7.280  37.620   4.838
95807W        W61067   9.344   1.896   0.291
95808W        W61068  22.037  37.464  13.901
95809W        W61069  12.180  33.423   4.881
95810W        W61070  26.047  10.329   3.297
95811W        W61071  38.664   2.708  14.395
95812W        W61072  41.493  32.972   4.752
95813W        W61073  25.272  11.425   4.127
95814W        W61074  10.336  41.320   4.143
95815W        W61075  41.470  42.218  14.266
95816W        W61076  19.561  25.264  14.320
95817W        W61077  27.233   2.291  11.753
95818W        W61078   8.638  17.160   0.013
95819W        W61079  43.837  29.023   1.419
95820W        W61080  19.749   0.750   3.213
95821W        W61081  11.806  18.293   1.410
95822W        W61082  19.848  24.276   3.270
95823W        W61083  15.525  16.544   3.272
95824W        W61084   6.204  21.723   3.656
95825W        W61085  10.775   5.941   0.478
95826W        W61086  43.064  40.513   2.014
95827W        W61087  23.709   8.202  14.477
95828W        W61088  26.450  15.731  10.802
95829W        W61089  35.979   7.386   4.307
95830W        W61090  12.169   3.052   5.010
95831W        W61091  28.942  11.074  13.857
95832W        W61092  40.237   7.909   5.007
95833W        W61093  31.368  38.998  13.506
95834W        W61094   1.958  18.823   1.435
95835W        W61095   6.818  22.222  14.967
95836W        W61096  33.860  17.719  13.025
95837W        W61097  39.777  13.359   0.360
95838W        W61098  11.763   5.779   4.473
95839W        W61099  36.898  17.123   4.712
95840W        W61100  34.386   9.791  12.546
95841W        W61101   4.741  15.500   3.788
95842W        W61102  14.665  27.525  13.808
95843W        W61103  12.166  29.649   3.344
95844W        W61104  11.206  10.700  12.373
95845W        W61105  10.173  19.973  14.796
95846W        W61106   8.764  31.369  11.565
95847W        W61107  19.392  38.025  13.310
95848W        W61108  10.727  25.209   0.700
95849W        W61109  36.924  44.723   0.371
95850W        W61110   9.845  35.423  13.039
95851W        W61111  18.925  11.402   0.461
95852W        W61112  42.878  32.144  11.860
95853W        W61113  23.238  44.161  12.543
95854W        W61114  34.364  28.844   4.623
95855W        W61115  11.859  40.073   1.769
95856W        W61116  44.812  22.660   1.658
95857W        W61117  18.268   8.093   1.959
95858W        W61118  19.936   4.361  12.297
95859W        W61119  13.700  34.450   4.755
95860W        W61120   4.485  17.104  11.515
95861W        W61121  42.481   6.776   2.186
95862W        W61122   8.209  18.504   0.899
95863W        W61123   8.138  28.143   4.034
95864W        W61124   6.942   3.562  13.268
95865W        W61125  16.615  17.627   4.734
95866W        W61126  33.177   7.584  12.479
95867W        W61127  12.641  13.945   1.909
95868W        W61128  11.247  41.357   1.289
95869W        W61129  10.864   1.064  14.484
95870W        W61130   6.672   3.394   3.241
95871W        W61131  30.221   1.376  11.487
95872W        W61132  13.850  44.797   1.321
95873W        W61133  27.899  24.266  10.961
95874W        W61134  29.189  36.036  11.506
95875W        W61135  44.752  34.708  11.945
95876W        W61136  25.992  29.387   0.166
95877W        W61137  35.834   5.079  10.402
95878W        W61138  41.114   6.805  14.135
95879W        W61139  18.314  19.780   0.795
95880W        W61140  10.132   5.694   3.773
95881W        W61141   9.569  37.326  11.607
95882W        W61142  14.932  16.510   0.820
95883W        W61143  29.323  24.495  10.833
95884W        W61144   4.986  34.761  11.169
95885W        W61145  24.172  21.325  12.892
95886W        W61146  14.561  13.297  12.169
95887W        W61147  44.722  27.932   0.076
95888W        W61148  25.142  20.790  10.788
95889W        W61149  34.687  14.318  14.683
95890W        W61150  42.416   3.874   1.135
95891W        W61151  36.118   3.941  11.442
95892W        W61152  32.949  22.733  14.132
95893W        W61153  17.071   8.223  13.322
95894W        W61154  39.488  25.575  14.792
95895W        W61155   6.895  14.430   3.087
95896W        W61156  42.884  29.147   4.602
95897W        W61157  37.197  22.861   1.528
95898W        W61158  17.905  22.946   3.211
95899W        W61159  34.405  35.611  11.065
95900W        W61160  32.437   8.212   1.174
95901W        W61161  18.163  27.650  12.185
95902W        W61162  41.872  34.627  12.664
95903W        W61163  23.597  40.917  13.357
95904W        W61164  11.144  28.615   1.908
95905W        W61165  17.356  17.991   9.856
95906W        W61166   1.936  32.885  12.438
95907W        W61167  43.934  25.568  10.072
95908W        W61168  39.867  11.902   0.397
95909W        W61169  26.020  38.976   3.371
95910W        W61170  12.396  29.534  10.043
95911W        W61171  16.887  22.906  14.251
95912W        W61172  18.453   2.723   3.437
95913W        W61173   1.996  30.453   2.548
95914W        W61174  40.095  38.287   0.684
95915W        W61175  20.719  29.094   1.359
95916W        W61176  15.241  28.793  11.481
95917W        W61177  37.422   1.879   1.262
95918W        W61178  22.652  29.462   3.759
95919W        W61179  11.438  26.324   4.113
95920W        W61180   9.029  23.855   4.602
95921W        W61181  15.534  13.649   1.041
95922W        W61182  26.346  27.072   2.638
95923W        W61183  15.212  36.461  14.791
95924W        W61184  34.441   2.740   4.178
95925W        W61185  15.735  31.614   2.005
95926W        W61186  39.378  38.911   0.766
95927W        W61187  15.396  34.726   5.039
95928W        W61188  44.036  11.156  14.732
95929W        W61189  43.333  41.406  13.900
95930W        W61190  39.394  40.854   3.269
95931W        W61191  13.554  34.878   1.459
95932W        W61192  17.224  44.744  10.745
95933W        W61193  13.331  39.922   4.599
95934W        W61194  21.189   7.379   0.790
95935W        W61195  14.679  32.914  13.781
95936W        W61196  40.080  15.454   2.958
95937W        W61197  42.083   1.742   4.204
95938W        W61198  37.393   2.358  10.961
95939W        W61199  32.379  36.511   4.747
95940W        W61200  26.649   1.034   4.194
95941W        W61201  28.506  43.781  11.889
95942W        W61202  27.002  35.170  12.420
95943W        W61203  31.929   7.008   4.209
95944W        W61204  19.031  39.404  10.607
95945W        W61205  32.577  18.176   3.077
95946W        W61206  36.465   9.133  11.890
95947W        W61207  31.603  23.651  11.470
95948W        W61208   7.004  36.421  11.868
95949W        W61209  28.244  16.279   0.799
95950W        W61210  34.519   7.526   3.655
95951W        W61211  37.846  15.813  12.244
95952W        W61212  30.386  21.619  11.571
95953W        W61213  24.873   0.440   2.622
95954W        W61214  31.025  36.332   0.165
95955W        W61215  43.381   6.703  14.680
95956W        W61216  16.754  37.812   3.697
95957W        W61217   6.717   5.354  12.874
95958W        W61218  42.349   5.251   3.542
95959W        W61219  18.530  28.918   2.684
95960W        W61220   8.394  19.027   4.800
95961W        W61221  23.129   8.688  12.824
95962W        W61222   8.719  28.838   1.719
95963W        W61223  28.507  33.639   2.654
95964W        W61224   0.006  33.741  14.813
95965W        W61225  20.544  34.537   3.579
95966W        W61226  22.060  30.228   1.845
95967W        W61227  19.120  38.763   2.117
95968W        W61228  43.355  38.024   2.706
95969W        W61229  39.770  39.070  10.733
95970W        W61230  37.566  34.857  11.616
95971W        W61231  25.829   1.154  12.423
95972W        W61232  21.853  28.695   2.649
95973W        W61233  24.483  10.644  10.573
95974W        W61234  27.983  36.584   0.434
95975W        W61235  43.214  22.295   2.656
95976W        W61236  43.529  10.469   4.202
95977W        W61237  12.621  40.435   2.879
95978W        W61238  22.817  34.810   4.189
95979W        W61239  33.101  37.431  12.449
95980W        W61240   9.376  17.819  14.544
95981W        W61241  35.104   4.847  11.526
95982W        W61242  42.489   6.051  10.452
95983W        W61243  15.292  22.610  12.412
95984W        W61244  37.488   8.291   2.247
95985W        W61245  20.719  42.725  13.539
95986W        W61246  19.438  38.080   2.714
95987W        W61247  38.904  16.051  12.983
95988W        W61248   4.348  22.165   1.973
95989W        W61249  12.240   1.659   2.137
95990W        W61250  30.536  40.311   2.482
95991W        W61251  17.492   4.472   1.819
95992W        W61252  34.921   2.524   1.935
95993W        W61253  12.703  32.497   2.765
95994W        W61254  36.596  23.131   3.501
95995W        W61255  24.501   6.737  13.403
95996W        W61256  33.951  13.658   2.627
95997W        W61257  26.469  35.212  11.593
95998W        W61258  15.606  25.550   0.790
95999W        W61259  38.051   2.499  13.716
96000W        W61260  21.804  23.947   2.265
96001W        W61261   6.684   4.653  13.427
96002W        W61262  44.651  30.796  11.994
96003W        W61263  29.916  42.065  11.316
96004W        W61264   8.948  11.049  13.828
96005W        W61265  39.703  38.040   2.079
96006W        W61266  35.727  10.566   3.728
96007W        W61267  24.639  33.531  13.936
96008W        W61268  18.776  15.159   1.671
96009W        W61269   0.427  29.860  11.661
96010W        W61270   0.566  11.663   0.084
96011W        W61271  37.002   2.472   0.879
96012W        W61272  14.598  43.224   3.837
96013W        W61273   4.393  10.343  10.992
96014W        W61274  36.105   7.645   0.257
96015W        W61275   6.097  25.235   4.582
96016W        W61276  15.266  23.267  11.552
96017W        W61277  22.007  28.014  14.744
96018W        W61278  11.655  23.286   2.916
96019W        W61279   3.358  33.106  11.049
96020W        W61280  28.058  27.080  10.592
96021W        W61281  40.851  17.990  12.091
96022W        W61282  10.704  39.415   3.636
96023W        W61283   7.575   4.650  13.872
96024W        W61284  27.214   5.079  11.012
96025W        W61285  38.118  41.292  14.876
96026W        W61286  28.718  18.729  12.328
96027W        W61287  15.646  39.529  14.821
96028W        W61288   8.619  19.065   3.115
96029W        W61289  11.741  16.290  13.445
96030W        W61290  32.058  30.046   0.329
96031W        W61291  11.319  21.797   3.611
96032W        W61292  26.640   3.002  13.031
96033W        W61293  31.631  24.390   2.176
96034W        W61294  44.398  39.212   4.053
96035W        W61295  14.306  20.020  13.881
96036W        W61296  14.566  27.974   2.256
96037W        W61297  17.717  33.677   0.448
96038W        W61298   4.652  42.599   4.582
96039W        W61299  40.815  23.488  10.963
96040W        W61300  43.524  25.725  10.369
96041W        W61301  36.959   6.780   4.527
96042W        W61302  36.345  22.711  12.486
96043W        W61303  15.051  11.955   1.380
96044W        W61304  18.653  29.276   0.730
96045W        W61305   8.936   2.807   3.120
96046W        W61306   4.876  15.998   5.024
96047W        W61307  33.427  32.242   2.150
96048W        W61308  21.775  28.060  12.953
96049W        W61309  32.617  40.930   4.662
96050W        W61310  27.542  33.625  13.264
96051W        W61311  13.628   7.666   3.760
96052W        W61312  26.655  25.605  12.077
96053W        W61313  33.622  37.588   3.157
96054W        W61314  12.303  34.685  13.149
96055W        W61315  25.531  44.699   4.793
96056W        W61316  36.569   9.788   2.686
96057W        W61317  22.189  18.003  14.999
96058W        W61318  26.613   5.949  10.060
96059W        W61319  32.428  44.487   1.142
96060W        W61320  42.990  31.890   4.124
96061W        W61321  36.479   5.787   4.026
96062W        W61322  30.088   2.181  12.442
96063W        W61323  27.016  18.335  14.454
96064W        W61324  11.790  27.512  13.040
96065W        W61325  43.962  19.992  13.921
96066W        W61326  18.828   9.383   0.296
96067W        W61327  38.476  25.077  10.395
96068W        W61328  30.628  41.439   1.404
96069W        W61329  37.296   8.266  10.757
96070W        W61330  27.531  38.297   1.772
96071W        W61331  10.371  39.664   1.848
96072W        W61332  41.716  19.498   5.032
96073W        W61333   3.259  44.771  12.466
96074W        W61334  12.063  29.230   0.337
96075W        W61335  10.762  29.175  14.398
96076W        W61336  15.832   3.752  14.458
96077W        W61337  41.401  12.357   2.154
96078W        W61338  33.470  38.629  14.368
96079W        W61339  19.033   8.416  11.570
96080W        W61340   4.739  39.764  11.856
96081W        W61341   5.349  30.521   0.763
96082W        W61342  34.945  37.139  14.848
96083W        W61343   1.962  11.091  11.661
96084W        W61344  16.398   3.223  12.884
96085W        W61345  44.798  13.557   2.703
96086W        W61346   3.214  24.064   1.970
96087W        W61347   9.755  29.806  13.531
96088W        W61348  35.401  42.581  12.411
96089W        W61349  25.166  42.804  14.585
96090W        W61350   8.731  32.516   1.673
96091W        W61351  42.325  41.309   1.351
96092W        W61352   1.501  18.074   0.344
96093W        W61353   0.838   9.672   3.580
96094W        W61354  33.466   0.491   4.573
96095W        W61355  44.264  39.609   4.889
96096W        W61356  43.949   5.183  10.454
96097W        W61357  10.839   4.279   1.898
96098W        W61358   0.227  11.946  12.093
96099W        W61359  39.466  36.616  11.534
96100W        W61360  43.018  38.823   3.728
96101W        W61361  37.286  36.496   4.143
96102W        W61362  41.147  17.774   4.589
96103W        W61363  32.175  13.649  12.557
96104W        W61364  21.998  21.226   2.615
96105W        W61365   1.774   7.244  10.591
96106W        W61366  22.563  19.327   0.299
96107W        W61367  17.781   1.271   3.197
96108W        W61368  42.034   8.733   0.462
96109W        W61369   9.246  19.080  14.050
96110W        W61370   5.358  29.205   3.850
96111W        W61371  34.094  24.074  14.410
96112W        W61372   5.783  14.407  14.498
96113W        W61373  20.810  31.562  11.733
96114W        W61374  28.952  33.868  10.657
96115W        W61375   2.330  30.037   1.362
96116W        W61376  16.011  31.907  11.501
96117W        W61377  15.848  40.371  10.944
96118W        W61378  32.898  31.349   0.432
96119W        W61379  27.066  12.860   1.931
96120W        W61380  40.505  40.929   4.259
96121W        W61381  22.912  39.923  10.755
96122W        W61382  30.422  16.415   1.536
96123W        W61383  20.009  32.054   3.384
96124W        W61384  29.036  11.135   3.299
96125W        W61385  41.670   6.450   1.810
96126W        W61386   3.978  37.814   2.473
96127W        W61387  26.697   6.059   3.851
96128W        W61388  44.800   2.744   1.393
96129W        W61389  23.721  34.234   5.733
96130W        W61390  34.918   6.987  10.792
96131W        W61391  44.760   0.890   3.999
96132W        W61392   0.477   8.348   2.710
96133W        W61393   6.288   4.209   2.290
96134W        W61394   5.839  14.721   2.149
96135W        W61395  14.168  14.875  14.439
96136W        W61396  22.353  23.935   2.244
96137W        W61397  32.886  43.340  10.671
96138W        W61398   6.901  12.985   0.111
96139W        W61399  30.723  21.051   4.185
96140W        W61400  23.560  29.473  12.553
96141W        W61401  19.199  20.416  13.927
96142W        W61402  35.119  37.484   0.384
96143W        W61403   0.873  25.244  13.948
96144W        W61404   3.291  39.854  10.550
96145W        W61405   7.961  32.584  13.376
96146W        W61406  35.139   9.401   3.025
96147W        W61407  32.227  43.015   1.217
96148W        W61408  10.243  30.480   5.026
96149W        W61409  16.375  14.845  12.755
96150W        W61410   1.984  21.283   0.906
96151W        W61411  31.869  34.953  14.329
96152W        W61412   1.461   2.266   3.722
96153W        W61413  31.596  16.374  13.902
96154W        W61414  14.854  29.946  14.038
96155W        W61415  12.146   7.241   3.216
96156W        W61416  28.662  42.906  13.730
96157W        W61417  15.997  15.234   0.171
96158W        W61418   8.120  30.154   1.669
96159W        W61419   5.398  41.024   3.327
96160W        W61420   0.722   1.430  14.834
96161W        W61421   4.126  10.343   0.020
96162W        W61422  33.585  11.445   3.195
96163W        W61423   5.886  18.117  14.002
96164W        W61424  33.951  41.855   3.568
96165W        W61425   1.926  13.126  13.953
96166W        W61426   2.838  16.106  12.644
96167W        W61427   7.690  31.042  10.922
96168W        W61428  23.461  26.485  14.753
96169W        W61429  23.490   9.735  12.005
96170W        W61430  14.344  36.065   1.973
96171W        W61431  39.523   9.229   4.195
96172W        W61432  36.884  31.494  14.513
96173W        W61433   2.700  19.627  12.445
96174W        W61434  29.707  12.026  11.980
96175W        W61435  40.958  37.093   1.220
96176W        W61436  23.522  32.969   2.668
96177W        W61437  25.776  23.626  14.946
96178W        W61438  10.225   3.807  13.975
96179W        W61439  14.762  44.140  14.398
96180W        W61440   5.895  43.080   1.797
96181W        W61441   2.520   1.087   4.120
96182W        W61442  12.377  21.603   1.824
96183W        W61443  40.993  34.876  13.358
96184W        W61444  10.657  10.407   3.641
96185W        W61445   6.216  11.616  11.692
96186W        W61446  39.823  20.132   2.055
96187W        W61447  40.849  42.583  12.040
96188W        W61448   1.078  24.267   3.715
96189W        W61449  41.728  11.446  10.580
96190W        W61450   2.792  20.956   3.782
96191W        W61451   1.911  24.119  13.510
96192W        W61452  28.618   5.329   1.710
96193W        W61453  24.238  27.529   1.840
96194W        W61454  13.845  22.541   2.339
96195W        W61455  42.501  22.410  13.480
96196W        W61456  22.671  43.077   3.647
96197W        W61457  20.703  32.474   1.528
96198W        W61458  36.392  43.759   4.329
96199W        W61459  21.146   4.258  10.699
96200W        W61460  19.825  38.360  13.462
96201W        W61461  25.449   6.138  10.577
96202W        W61462  26.937  22.417  14.930
96203W        W61463  36.494  14.136  14.754
96204W        W61464  33.653  19.924  10.783
96205W        W61465  21.926  38.542   4.152
96206W        W61466  25.797  39.279  12.569
96207W        W61467   2.158  23.999   2.218
96208W        W61468  16.582  42.311   4.811
96209W        W61469   6.449   7.850  13.645
96210W        W61470  30.309  14.357   3.283
96211W        W61471  30.373  13.219   1.595
96212W        W61472  11.712  33.632   3.648
96213W        W61473  25.775  23.593   3.238
96214W        W61474  25.479  44.917  12.832
96215W        W61475  26.902  14.035  12.472
96216W        W61476  10.603  18.097  12.919
96217W        W61477  38.356  35.474   2.124
96218W        W61478  37.270  44.801   0.786
96219W        W61479  18.679  40.506  13.970
96220W        W61480   6.742  23.354  11.009
96221W        W61481  44.533  23.432   2.402
96222W        W61482  27.160  38.093   2.172
96223W        W61483  21.630   7.846  11.506
96224W        W61484  26.212  21.051  14.903
96225W        W61485  31.642  15.736  10.710
96226W        W61486  38.505  37.144   3.842
96227W        W61487   4.286  18.297  12.069
96228W        W61488  17.836  18.211  13.792
96229W        W61489   4.463  17.537   2.292
96230W        W61490  16.905  33.077  12.001
96231W        W61491  15.513   3.881  11.375
96232W        W61492  12.171   1.695  12.487
96233W        W61493  16.085  29.210   0.583
96234W        W61494  39.535  22.240  14.699
96235W        W61495  35.883  37.969  14.763
96236W        W61496  31.050  10.315   4.203
96237W        W61497  27.987   8.732   4.589
96238W        W61498  15.376  28.219  12.227
96239W        W61499  41.699  13.560  11.429
96240W        W61500   8.535  13.294   5.048
96241W        W61501  13.071  40.450  13.238
96242W        W61502  26.428  39.283  11.011
96243W        W61503  18.985  37.396  14.292
96244W        W61504  37.483  37.334   0.423
96245W        W61505  42.078  43.285  12.156
96246W        W61506  42.053  31.909  14.908
96247W        W61507  15.994  12.350   1.953
96248W        W61508  14.725  40.373  11.421
96249W        W61509  15.527  11.787   4.612
96250W        W61510   8.803  43.414   4.878
96251W        W61511  37.497  38.110  11.678
96252W        W61512  29.965  37.792   0.765
96253W        W61513   4.203  44.999  14.812
96254W        W61514  23.691  12.271  10.792
96255W        W61515  39.577   9.946   1.773
96256W        W61516  39.138   7.009   1.376
96257W        W61517  18.192  31.188   0.929
96258W        W61518  42.827  44.971   2.367
96259W        W61519  30.963   0.332   2.657
96260W        W61520   2.146  33.113  11.607
96261W        W61521  37.930  25.275   2.766
96262W        W61522   8.737  43.885   1.799
96263W        W61523  39.528  41.455  13.813
96264W        W61524  27.056  27.783  14.807
96265W        W61525  43.236   7.437  12.374
96266W        W61526   4.069  11.820  13.380
96267W        W61527  17.700  20.717  11.493
96268W        W61528   3.022  16.704  14.941
96269W        W61529  30.623   4.829  13.022
96270W        W61530   8.158  33.624  10.661
96271W        W61531  36.083   0.398   0.475
96272W        W61532  11.283  23.294  10.580
96273W        W61533  32.170  10.396  13.635
96274W        W61534  21.755  31.718   3.120
96275W        W61535  17.542  26.083   2.169
96276W        W61536  28.730   2.428   0.783
96277W        W61537  23.745  20.878  13.984
96278W        W61538  19.527   4.465  13.053
96279W        W61539  19.568   1.038   3.648
96280W        W61540   3.780  33.576  12.303
96281W        W61541  36.852  22.769   3.197
96282W        W61542  33.359  31.663  12.065
96283W        W61543  29.553  32.659   1.323
96284W        W61544  36.346  27.086  13.084
96285W        W61545  32.369  33.883  11.595
96286W        W61546   0.327   7.599  12.987
96287W        W61547   8.452   2.793  11.181
96288W        W61548  19.453  18.288   9.796
96289W        W61549   7.757  34.447   4.564
96290W        W61550  32.023  24.716   2.172
96291W        W61551  23.665  10.712   1.838
96292W        W61552  32.860  30.968   4.095
96293W        W61553   1.971  18.795  12.061
96294W        W61554  24.544  23.148  12.702
96295W        W61555  38.011  28.562  11.488
96296W        W61556  12.512  20.392   0.837
96297W        W61557  20.619   9.258   1.963
96298W        W61558  24.914  18.307  14.902
96299W        W61559  20.782  35.924  14.260
96300W        W61560  39.975  14.327  10.674
96301W        W61561  19.174  27.806   1.911
96302W        W61562  12.724  19.991  14.235
96303W        W61563  27.532  44.985   3.128
96304W        W61564  33.111   8.114   2.338
96305W        W61565  31.172  19.658   4.561
96306W        W61566  13.774  40.489   3.238
96307W        W61567  30.586  37.265  10.471
96308W        W61568  42.294   1.884   0.595
96309W        W61569  12.605   9.116  13.648
96310W        W61570  17.229  36.800  14.753
96311W        W61571  18.700   0.075   0.892
96312W        W61572  41.107  29.949  13.378
96313W        W61573  43.963   5.208  13.085
96314W        W61574  22.609   5.721   0.863
96315W        W61575  27.529   0.981   4.593
96316W        W61576  30.000  32.890   0.272
96317W        W61577   1.240  28.431  11.943
96318W        W61578  14.756   0.975  14.894
96319W        W61579  24.027  18.059   0.916
96320W        W61580  40.090  11.848   2.332
96321W        W61581  30.739  11.248   3.875
96322W        W61582  29.027  38.338  12.291
96323W        W61583  28.965  39.865  12.030
96324W        W61584  31.080  13.758   2.902
96325W        W61585  38.302  12.059  12.556
96326W        W61586  32.708  27.123   2.085
96327W        W61587  23.921   9.136  12.860
96328W        W61588  14.533  30.075  14.983
96329W        W61589  33.033  10.052  13.252
96330W        W61590  25.683  42.497   3.472
96331W        W61591  35.862  11.182  11.556
96332W        W61592  18.696  38.035   0.261
96333W        W61593  19.308  18.161   2.725
96334W        W61594   7.792  41.508   3.295
96335W        W61595  17.010  27.645  13.828
96336W        W61596  35.528  38.189   3.864
96337W        W61597   7.238  39.304  11.531
96338W        W61598  10.375  38.100  13.510
96339W        W61599   3.188  28.548  13.951
96340W        W61600  17.323  13.652  14.955
96341W        W61601  17.593   6.205   4.793
96342W        W61602  22.029   7.208   1.366
96343W        W61603  14.628  14.859   3.321
96344W        W61604  24.125  38.304  12.372
96345W        W61605  16.609  39.832  10.562
96346W        W61606  19.812  39.230   1.267
96347W        W61607  41.765   5.506  12.409
96348W        W61608  24.121  28.369  10.718
96349W        W61609  17.227  33.026  13.321
96350W        W61610   7.907  31.444  11.266
96351W        W61611  11.574   5.959  10.696
96352W        W61612  30.173  20.104   4.112
96353W        W61613  25.120  32.451   0.786
96354W        W61614  33.324   9.496  11.566
96355W        W61615  16.316  10.413   3.248
96356W        W61616  34.602  38.947   4.174
96357W        W61617  18.130  33.083  14.950
96358W        W61618  19.069   5.281   3.271
96359W        W61619  30.598  30.155  10.988
96360W        W61620  19.409  24.979  10.819
96361W        W61621  37.823  39.849   2.614
96362W        W61622   4.491   5.659  13.526
96363W        W61623  34.574  27.955   4.840
96364W        W61624  25.110  28.024  12.566
96365W        W61625  40.081  32.568   0.877
96366W        W61626  43.296  28.668   3.154
96367W        W61627  33.605  35.918  11.659
96368W        W61628   6.764  44.361  12.945
96369W        W61629   1.019  43.097  10.097
96370W        W61630   1.915  13.379   3.420
96371W        W61631  35.377  22.159  13.949
96372W        W61632   1.896  29.563   2.462
96373W        W61633   4.948  10.313  10.768
96374W        W61634  38.685   1.863   3.023
96375W        W61635  21.038  42.815  12.588
96376W        W61636  34.383  19.483  14.435
96377W        W61637   7.719  40.822  11.232
96378W        W61638  41.713   4.829   0.853
96379W        W61639  33.906  11.139  14.934
96380W        W61640  28.440  43.131   4.391
96381W        W61641  43.911  29.878  10.670
96382W        W61642  11.688  32.399  13.535
96383W        W61643  15.299  24.298  11.595
96384W        W61644  25.086  43.462  13.923
96385W        W61645  36.646  16.855   1.371
96386W        W61646  40.894  34.891  11.856
96387W        W61647   5.489   0.698  11.604
96388W        W61648  12.591   4.716   3.215
96389W        W61649  14.043   4.892  11.057
96390W        W61650  31.910  38.889  12.621
96391W        W61651  35.655  15.888   1.423
96392W        W61652  13.941  42.579  10.540
96393W        W61653  35.242  39.393  13.457
96394W        W61654  38.466   5.483  11.122
96395W        W61655  30.025  15.752   1.461
96396W        W61656  44.346   8.367  12.556
96397W        W61657  16.164   4.405  11.339
96398W        W61658  35.752  30.495  12.281
96399W        W61659  41.606  17.223   4.254
96400W        W61660  30.441  28.410  11.292
96401W        W61661   2.788  13.666  14.914
96402W        W61662   5.731  36.897  12.551
96403W        W61663  15.101  17.528   4.446
96404W        W61664   8.483  12.813   4.294
96405W        W61665  36.940  32.004  14.229
96406W        W61666   3.274   1.331   2.500
96407W        W61667  17.344  32.536   3.454
96408W        W61668  42.345  22.745  14.771
96409W        W61669  32.481  30.014   2.700
96410W        W61670  12.184   8.608   4.746
96411W        W61671  38.661  31.345   3.327
96412W        W61672   0.382  12.518  14.362
96413W        W61673   4.211  18.497   2.822
96414W        W61674   5.054  25.326  11.130
96415W        W61675  43.278   5.698  13.405
96416W        W61676   4.928  13.368  11.025
96417W        W61677  19.974   4.981  11.028
96418W        W61678   0.119  24.143  12.845
96419W        W61679  36.678  39.882   1.397
96420W        W61680   3.059  39.647  12.161
96421W        W61681  28.514   7.139  13.998
96422W        W61682  31.934  27.547  12.076
96423W        W61683  21.146  12.435   0.792
96424W        W61684  27.568  27.984   3.686
96425W        W61685   5.948   9.622  11.105
96426W        W61686  10.710  11.801  11.996
96427W        W61687   5.439   8.868   4.106
96428W        W61688  34.155  11.371  11.963
96429W        W61689  29.501  35.320  13.979
96430W        W61690  44.420   4.304  10.742
96431W        W61691  11.079  29.252  12.156
96432W        W61692  44.178  39.533   3.366
96433W        W61693   4.582  23.665   2.356
96434W        W61694  23.257  38.516  10.682
96435W        W61695  13.362  22.837  12.113
96436W        W61696  25.828   4.788  10.119
96437W        W61697   1.862  11.075   4.699
96438W        W61698  32.567   5.656  11.214
96439W        W61699   4.910   2.504  12.947
96440W        W61700  32.782  25.275  13.777
96441W        W61701  34.099  35.033  13.468
96442W        W61702   9.887  21.496   3.602
96443W        W61703   3.150  44.488  14.329
96444W        W61704  21.717  17.641   3.389
96445W        W61705  13.291  19.981  14.921
96446W        W61706  18.132  30.707  13.003
96447W        W61707   5.382  22.571  13.807
96448W        W61708  11.476  41.867  12.151
96449W        W61709  29.698  19.175  10.988
96450W        W61710  30.636  20.684  10.748
96451W        W61711  25.156  29.513  14.490
96452W        W61712   6.950  20.348   0.805
96453W        W61713   9.255  34.846   2.121
96454W        W61714  38.571  33.115   0.779
96455W        W61715  20.576  12.648   0.502
96456W        W61716  15.808  34.512   2.651
96457W        W61717  14.425  24.877  14.928
96458W        W61718  12.095  41.508   2.283
96459W        W61719  28.247   4.608   2.282
96460W        W61720  37.888  37.053   0.211
96461W        W61721   1.848   4.733  11.112
96462W        W61722  36.419  23.750   4.673
96463W        W61723  43.165   5.510   0.917
96464W        W61724  28.154  41.271   3.274
96465W        W61725   9.312  23.384   4.497
96466W        W61726  15.419  36.983  12.466
96467W        W61727  19.570  30.686  11.686
96468W        W61728  12.307  22.638   0.877
96469W        W61729  33.138  25.934  14.381
96470W        W61730  31.605  24.884   1.925
96471W        W61731   0.309  23.785   0.904
96472W        W61732  31.954  18.813  10.668
96473W        W61733  37.603  30.949   0.816
96474W        W61734  33.070  39.380   1.979
96475W        W61735   5.898  35.609  12.508
96476W        W61736  20.101  24.413  11.136
96477W        W61737  28.718  22.797  10.778
96478W        W61738  13.833  35.960   1.891
96479W        W61739   8.638  29.299   4.542
96480W        W61740   6.723  26.999  12.491
96481W        W61741  18.686  36.112   0.338
96482W        W61742  38.024  41.421  13.931
96483W        W61743  32.513   2.490  13.110
96484W        W61744   3.258   5.922   0.284
96485W        W61745  38.512  31.939   2.138
96486W        W61746  34.180  23.694  14.870
96487W        W61747  10.803  39.395   3.106
96488W        W61748   6.810  17.903  13.383
96489W        W61749   2.199  41.576  11.210
96490W        W61750  34.132  23.606   2.168
96491W        W61751  41.496  37.315  14.005
96492W        W61752   9.100  44.636  10.640
96493W        W61753  12.653   7.009   2.614
96494W        W61754  23.095  31.101   1.280
96495W        W61755  40.388   1.249   0.163
96496W        W61756  27.987  32.494  13.544
96497W        W61757  21.435  31.483   4.559
96498W        W61758   6.760  43.491  13.368
96499W        W61759   1.821  33.553   3.100
96500W        W61760   2.998   3.171   4.540
96501W        W61761  15.851  21.621   3.228
96502W        W61762  37.816  34.427   1.821
96503W        W61763  23.570  37.417   5.595
96504W        W61764  31.008  13.317  14.932
96505W        W61765  30.925  21.783  12.962
96506W        W61766  13.662  39.929  11.968
96507W        W61767  37.886  36.408  13.394
96508W        W61768  30.313  12.577  11.620
96509W        W61769  11.793   6.045   5.243
96510W        W61770  32.340  15.959  14.960
96511W        W61771  13.972  39.773   0.368
96512W        W61772   3.191  10.272   0.722
96513W        W61773  26.441  30.465   1.115
96514W        W61774  12.966  17.056   4.507
96515W        W61775   7.169  22.028  13.804
96516W        W61776  24.861   3.790  10.341
96517W        W61777  12.109   4.216   3.579
96518W        W61778  16.649  36.366   0.967
96519W        W61779  43.190  32.009   4.681
96520W        W61780  19.676   9.127  11.585
96521W        W61781  33.148   7.167   3.188
96522W        W61782  24.193  16.042  10.309
96523W        W61783  12.680  43.953   3.420
96524W        W61784  38.844  40.712   5.145
96525W        W61785  43.100   8.366   1.403
96526W        W61786   0.048   7.567   2.181
96527W        W61787  30.530   2.199   1.315
96528W        W61788  34.288   2.361  12.944
96529W        W61789  37.541  12.082  11.645
96530W        W61790  28.715  41.977   4.748
96531W        W61791  17.054  29.906   3.245
96532W        W61792  15.710  15.294  13.345
96533W        W61793  13.245  38.753  11.129
96534W        W61794   3.722  38.814  10.679
96535W        W61795  37.295  15.790   3.621
96536W        W61796   7.669   2.521   0.331
96537W        W61797  16.707  13.368   0.664
96538W        W61798  22.073  42.797   1.366
96539W        W61799  18.479  41.842   2.253
96540W        W61800  25.951  31.483  14.783
96541W        W61801  42.724  16.017  14.969
96542W        W61802  35.830  33.898  14.225
96543W        W61803  18.145  42.476   1.682
96544W        W61804  15.788  19.578   2.829
96545W        W61805   0.276  36.030   4.202
96546W        W61806   0.940  34.339   4.568
96547W        W61807  39.091  13.652  14.441
96548W        W61808  31.002  43.983   2.176
96549W        W61809  21.188  12.294   0.298
96550W        W61810   7.484  31.685  11.459
96551W        W61811   6.721  20.227  13.332
96552W        W61812   2.607  19.507  10.835
96553W        W61813   6.459  19.692   2.235
96554W        W61814  35.565  17.968  12.506
96555W        W61815  32.839  12.225  12.467
96556W        W61816  29.394   7.335  11.139
96557W        W61817  23.930  17.206   2.653
96558W        W61818  17.715  39.786  10.966
96559W        W61819  11.301  34.711   1.412
96560W        W61820  44.794  41.403  13.750
96561W        W61821  21.499  40.545   2.877
96562W        W61822  39.837  39.956   0.897
96563W        W61823  32.524   2.441  12.614
96564W        W61824  18.754  40.466   4.154
96565W        W61825   0.585   8.530  10.198
96566W        W61826  20.037  34.916  14.354
96567W        W61827  10.375  14.869  12.159
96568W        W61828  41.209  37.558   3.119
96569W        W61829  33.306   4.383  11.104
96570W        W61830  29.692  29.664  14.039
96571W        W61831  43.763  24.053  12.984
96572W        W61832  26.972  21.779   3.284
96573W        W61833  36.973   4.605   3.999
96574W        W61834  17.360  31.547  11.503
96575W        W61835  36.696  44.076   1.362
96576W        W61836  37.743   4.157   2.755
96577W        W61837  42.371  16.504  11.585
96578W        W61838  36.905  27.208  13.076
96579W        W61839  38.804   9.899  10.095
96580W        W61840  11.995   9.918  13.370
96581W        W61841  25.723  37.476  12.999
96582W        W61842  34.444  24.619   1.438
96583W        W61843  17.849  29.059   0.380
96584W        W61844  22.796  32.433   0.285
96585W        W61845   4.361  37.126   0.659
96586W        W61846  16.342   1.355  12.472
96587W        W61847  34.400   1.232   4.051
96588W        W61848  32.114  15.587   1.282
96589W        W61849   3.730  25.049   2.622
96590W        W61850  29.902  13.110   1.387
96591W        W61851  22.222  26.247  13.318
96592W        W61852  20.998  40.383  12.405
96593W        W61853  30.118  21.183  13.817
96594W        W61854  43.281  20.747   3.594
96595W        W61855  39.410   4.488   3.621
96596W        W61856  30.384   1.870  11.501
96597W        W61857  26.290  19.970   1.044
96598W        W61858  22.715  33.430   2.240
96599W        W61859  40.468  43.991   4.544
96600W        W61860   9.025   0.853   4.076
96601W        W61861  14.187  28.184  12.014
96602W        W61862  21.701  32.748  13.490
96603W        W61863  32.368  26.064  10.244
96604W        W61864  35.691  36.503   1.256
96605W        W61865  20.589   7.961  13.462
96606W        W61866  35.732  28.694   2.830
96607W        W61867  43.325   1.307  11.909
96608W        W61868  15.225  11.151  13.487
96609W        W61869   7.887  13.751  12.081
96610W        W61870  18.019  32.984   4.638
96611W        W61871  35.871  15.204   4.717
96612W        W61872  19.618  14.668   1.819
96613W        W61873  36.127  10.803  13.480
96614W        W61874  11.152  40.390   4.767
96615W        W61875  16.574   3.994  10.703
96616W        W61876  30.903  42.272  13.616
96617W        W61877  20.297   0.949   1.347
96618W        W61878  30.941   7.275  13.150
96619W        W61879  16.710  16.817  13.771
96620W        W61880  43.779  31.006  13.873
96621W        W61881  29.717  16.785   0.517
96622W        W61882  21.515  30.450  11.137
96623W        W61883   6.905   0.227   2.278
96624W        W61884   5.376  27.107   4.083
96625W        W61885  42.792  27.198   2.500
96626W        W61886  36.237   1.883   2.681
96627W        W61887  23.584   5.004   3.207
96628W        W61888  41.350  25.484   5.026
96629W        W61889  37.130  28.367  10.530
96630W        W61890  38.789  17.733   2.199
96631W        W61891   1.049  30.587   3.806
96632W        W61892  37.711   0.331   1.599
96633W        W61893  11.216  29.989  14.330
96634W        W61894  32.049  24.911   4.451
96635W        W61895  37.969   7.921   2.657
96636W        W61896  32.496  19.614   2.502
96637W        W61897  44.365  33.492  11.034
96638W        W61898  18.391  34.489  10.687
96639W        W61899  26.025  26.260  13.965
96640W        W61900  43.292  23.506  13.372
96641W        W61901  22.177  35.334  14.877
96642W        W61902  32.296  30.613  11.082
96643W        W61903  35.813   7.455   1.203
96644W        W61904  11.821  14.416   4.106
96645W        W61905   7.036   0.603  13.518
96646W        W61906  30.909   9.789   4.265
96647W        W61907  13.837  20.593   3.098
96648W        W61908  20.996  42.180   0.231
96649W        W61909   5.385  31.135   2.477
96650W        W61910  27.792   8.922  11.426
96651W        W61911   8.304  39.587  14.478
96652W        W61912  25.440   9.857  13.864
96653W        W61913  30.229  43.589   0.401
96654W        W61914  31.087  38.541  13.522
96655W        W61915  14.885  34.883  14.282
96656W        W61916  10.444  22.716   9.989
96657W        W61917   5.354  33.321   2.644
96658W        W61918  32.708  33.472  10.181
96659W        W61919  35.313  25.008   4.657
96660W        W61920  38.829  37.547   0.706
96661W        W61921   4.856   0.452  13.687
96662W        W61922  42.002  21.660  10.540
96663W        W61923  35.148  14.186  11.954
96664W        W61924  38.425  18.735   0.865
96665W        W61925  22.549  14.311   1.130
96666W        W61926   6.703  32.146  14.902
96667W        W61927  31.530  19.753  11.064
96668W        W61928   7.583  38.515   1.585
96669W        W61929   8.417  14.710  10.996
96670W        W61930  11.865   1.509  13.044
96671W        W61931  29.881   8.253  11.636
96672W        W61932  42.471  34.915   4.919
96673W        W61933  32.852  15.721   0.795
96674W        W61934  42.479  28.653  12.204
96675W        W61935  38.110  29.381  12.397
96676W        W61936   3.390   2.087   0.695
96677W        W61937  16.713  15.730   5.140
96678W        W61938  10.044   5.856   3.285
96679W        W61939  10.203  18.370   0.813
96680W        W61940  33.171   8.288  12.001
96681W        W61941  25.171   3.011  12.443
96682W        W61942   1.413  15.395  10.095
96683W        W61943   5.803  37.489   0.042
96684W        W61944  27.509   3.258   1.714
96685W        W61945   3.297  40.864   1.422
96686W        W61946  25.967  22.388   5.334
96687W        W61947  32.924  36.941   3.268
96688W        W61948  11.126  25.521  14.388
96689W        W61949   0.504  23.789  12.884
96690W        W61950   2.795  40.697   1.465
96691W        W61951  20.606  33.134  10.660
96692W        W61952  23.195  21.177   0.968
96693W        W61953  38.405  19.910   2.215
96694W        W61954  38.492   8.054   4.659
96695W        W61955  34.088  29.306   2.229
96696W        W61956   2.669  39.377   2.089
96697W        W61957  32.486   3.928   0.911
96698W        W61958  44.821  41.379   1.161
96699W        W61959  30.977  40.267  13.360
96700W        W61960  44.308  14.299   4.833
96701W        W61961   7.687  31.561  13.182
96702W        W61962   1.172   0.773   2.163
96703W        W61963  39.698  12.642  13.923
96704W        W61964  25.286   1.787   4.788
96705W        W61965  26.627  33.578   3.395
96706W        W61966   9.346  16.140   0.755
96707W        W61967  20.252  34.619  14.771
96708W        W61968   3.293  43.812  12.838
96709W        W61969  27.456  29.041  14.355
96710W        W61970  30.457  30.315  12.473
96711W        W61971  17.858  15.084  13.519
96712W        W61972   4.921  43.885   1.104
96713W        W61973  23.232  21.133   1.943
96714W        W61974  22.602   0.108   2.493
96715W        W61975  16.646   5.707   0.454
96716W        W61976  15.951   6.492   0.398
96717W        W61977  27.636  10.719   1.010
96718W        W61978   8.271  41.464   4.720
96719W        W61979  37.614  33.854  14.968
96720W        W61980  31.185  42.269   3.237
96721W        W61981  24.254   1.377  11.161
96722W        W61982  20.204  26.737   5.021
96723W        W61983   1.999  18.231  14.813
96724W        W61984  30.700  40.944  11.910
96725W        W61985  37.418  22.607  13.441
96726W        W61986  18.541   1.536   1.955
96727W        W61987  28.357   9.783   4.612
96728W        W61988  39.103   7.689   2.409
96729W        W61989  30.107  24.449  12.595
96730W        W61990  21.090   9.365  12.194
96731W        W61991  28.538  36.430   1.759
96732W        W61992  12.138   4.134   4.081
96733W        W61993  19.757   3.980  10.254
96734W        W61994  31.575  24.304   0.479
96735W        W61995  41.449  30.394  14.223
96736W        W61996  25.618  22.038   1.700
96737W        W61997  41.777  23.184   4.613
96738W        W61998  21.303  41.804   4.135
96739W        W61999  39.300  27.264   1.309
96740W        W62000  39.828   8.346  10.495
96741W        W62001  35.465   7.258  11.870
96742W        W62002  26.674   9.830  11.060
96743W        W62003  35.085  17.796   0.683
96744W        W62004  30.071  40.527   4.775
96745W        W62005  29.498  22.262   3.731
96746W        W62006  38.388  14.685   3.104
96747W        W62007  38.852  20.833   4.108
96748W        W62008  37.440  43.668   4.114
96749W        W62009  12.886   2.632   0.607
96750W        W62010   4.096  36.805  13.797
96751W        W62011  42.231  23.581   3.329
96752W        W62012  43.530   5.488   1.691
96753W        W62013   1.331   0.331  14.962
96754W        W62014   5.706  12.279   0.015
96755W        W62015   1.466   4.411  11.406
96756W        W62016   3.791  36.931   3.430
96757W        W62017  24.588  10.882   0.364
96758W        W62018   4.759  40.100  10.776
96759W        W62019  18.900  38.214   2.855
96760W        W62020  38.953  34.299   1.352
96761W        W62021  38.491   5.372   3.260
96762W        W62022  38.968  31.416   2.651
96763W        W62023  19.677  17.353  12.533
96764W        W62024  35.631  12.325   1.627
96765W        W62025  19.533  42.997   0.582
96766W        W62026  12.797   5.994  12.783
96767W        W62027   9.104  10.266  12.499
96768W        W62028  37.982  26.385  10.544
96769W        W62029  42.854   5.633  14.598
96770W        W62030   2.581  13.196   4.165
96771W        W62031  29.564  10.062  12.301
96772W        W62032  36.334  18.336  14.095
96773W        W62033  16.629  29.671   1.909
96774W        W62034  10.017   6.494  11.489
96775W        W62035  20.280   1.129   1.851
96776W        W62036  11.119  11.402   4.566
96777W        W62037  44.510   5.169  12.992
96778W        W62038  43.283  32.818  11.653
96779W        W62039  43.705   5.901   2.289
96780W        W62040  35.620  13.220   1.668
96781W        W62041   2.026  25.614  14.953
96782W        W62042  17.161   4.632   2.710
96783W        W62043  18.107  34.041  10.733
96784W        W62044  10.358   3.029   1.925
96785W        W62045  31.391  12.137  12.500
96786W        W62046  33.001  28.995  14.013
96787W        W62047  28.337  31.980   4.054
96788W        W62048  24.600  17.460   4.588
96789W        W62049  14.130  12.732   0.019
96790W        W62050  25.209  16.549   0.951
96791W        W62051   5.486  37.878   1.728
96792W        W62052  16.798  12.017   3.208
96793W        W62053  41.868  37.875  13.966
96794W        W62054  39.880  14.334   3.082
96795W        W62055  36.086   2.339   0.250
96796W        W62056  37.879  19.970   4.555
96797W        W62057  30.201  33.222   2.203
96798W        W62058  33.114  26.994   3.394
96799W        W62059  16.244  40.011   2.094
96800W        W62060   7.475  36.105  10.386
96801W        W62061  32.625  23.211  12.470
96802W        W62062  25.633  39.760   0.887
96803W        W62063  40.277  13.915   3.630
96804W        W62064   6.784   3.143  14.771
96805W        W62065   3.963  42.950   0.680
96806W        W62066  41.409   9.602  14.406
96807W        W62067  31.552  33.737  10.732
96808W        W62068  18.155   6.483  11.917
96809W        W62069   7.361  12.567  13.905
96810W        W62070  18.705  38.061  14.387
96811W        W62071  44.716   4.653   5.200
96812W        W62072   4.839  13.226  13.229
96813W        W62073  22.601  34.802   0.606
96814W        W62074  21.188  13.759   3.087
96815W        W62075  28.677  28.671   4.067
96816W        W62076  35.363  36.052  12.069
96817W        W62077   8.150  39.642   2.202
96818W        W62078  35.106  25.524   0.510
96819W        W62079  42.404  30.023   4.602
96820W        W62080  23.160  23.913  12.968
96821W        W62081   7.588  26.135   1.909
96822W        W62082  34.966  19.027  13.956
96823W        W62083  34.461   0.378   0.506
96824W        W62084   3.726   0.555   1.225
96825W        W62085  21.194  25.397  12.123
96826W        W62086  29.009  15.646  14.336
96827W        W62087  24.054  13.860   1.761
96828W        W62088  27.472  23.596  14.514
96829W        W62089   1.158  39.741  11.094
96830W        W62090   1.767  18.985  12.490
96831W        W62091  31.437  18.810   0.069
96832W        W62092  10.011  41.753  12.761
96833W        W62093  29.112   1.428   3.710
96834W        W62094  24.904  11.821  12.519
96835W        W62095  21.511  14.261  13.836
96836W        W62096  41.033   6.335  11.505
96837W        W62097   2.008   5.116   0.343
96838W        W62098   3.354  13.673  11.085
96839W        W62099  24.645   0.887  13.620
96840W        W62100  31.875  13.273   2.813
96841W        W62101  35.458  14.425   1.675
96842W        W62102  33.943  40.073  14.930
96843W        W62103  36.032  25.229  12.859
96844W        W62104  29.687  41.539   1.437
96845W        W62105  37.663   1.827  10.257
96846W        W62106  44.354   4.660  13.041
96847W        W62107  42.802  32.694  13.788
96848W        W62108   5.775  41.865   1.705
96849W        W62109  35.330  25.658  13.396
96850W        W62110  21.985   4.905  13.596
96851W        W62111  14.396  21.563   4.606
96852W        W62112  38.592   8.721   3.188
96853W        W62113  35.228  22.716   1.475
96854W        W62114  13.428  38.076   2.451
96855W        W62115  41.342  11.777  10.702
96856W        W62116  24.487  11.139  13.052
96857W        W62117  30.139  38.061  10.943
96858W        W62118  38.869  27.684   2.615
96859W        W62119  28.140  11.178  14.805
96860W        W62120  26.517  31.975   4.504
96861W        W62121  43.288  15.092  10.611
96862W        W62122  11.543  39.163  12.026
96863W        W62123   9.468   0.465   2.761
96864W        W62124  28.837   8.813   3.301
96865W        W62125  41.906  16.284  11.570
96866W        W62126  38.578   6.448   1.004
96867W        W62127  24.400  35.870  12.685
96868W        W62128  21.224  25.461   0.953
96869W        W62129   3.727   9.236  11.714
96870W        W62130  23.079  26.381  12.973
96871W        W62131   3.699  39.866  11.610
96872W        W62132   5.826   7.686  12.972
96873W        W62133  23.248  26.708  14.340
96874W        W62134   2.514  34.135  14.058
96875W        W62135   5.886  38.269  12.097
96876W        W62136  25.689  18.787  13.923
96877W        W62137   4.849  41.730  11.896
96878W        W62138  21.035  15.264   2.798
96879W        W62139  17.191   8.209  14.286
96880W        W62140  34.458  28.692   1.251
96881W        W62141  13.372  28.739   4.719
96882W        W62142  33.583   3.211  12.153
96883W        W62143  27.580  35.142  14.235
96884W        W62144  18.096  32.133   3.067
96885W        W62145  28.273   1.662  13.399
96886W        W62146  13.227   8.891   3.996
96887W        W62147  38.220   5.128  14.366
96888W        W62148  33.348  24.664   0.733
96889W        W62149  43.817   6.561  14.942
96890W        W62150   2.681  29.081  13.986
96891W        W62151  22.789  40.860  13.989
96892W        W62152  36.451  22.780  14.537
96893W        W62153  31.115  19.153   0.979
96894W        W62154  26.116   8.413  13.718
96895W        W62155  22.935   6.874  12.478
96896W        W62156  16.447   0.421  10.617
96897W        W62157   5.362  31.301  11.587
96898W        W62158   4.910  20.650   2.147
96899W        W62159   8.906  29.470  12.994
96900W        W62160   4.941  27.204  14.956
96901W        W62161  15.682   3.514  14.008
96902W        W62162  29.358  30.649  10.675
96903W        W62163  38.686   0.197   4.909
96904W        W62164  40.531  24.146   1.673
96905W        W62165  33.428  16.123  12.590
96906W        W62166  22.519  36.549   2.617
96907W        W62167  38.061  25.949  13.859
96908W        W62168  18.306  42.819   1.310
96909W        W62169  22.326  14.616  14.005
96910W        W62170  30.595  18.767   4.129
96911W        W62171   1.722  20.698  12.042
96912W        W62172  44.719   8.814  11.062
96913W        W62173  34.765  17.106   0.340
96914W        W62174  13.851  36.960   3.712
96915W        W62175  28.113  38.633   3.490
96916W        W62176  19.333  15.667   3.247
96917W        W62177  33.475  44.370  11.511
96918W        W62178  19.501  34.237  13.458
96919W        W62179  12.492  18.355   2.288
96920W        W62180  37.976  44.335   1.743
96921W        W62181  41.437  40.502  12.823
96922W        W62182   7.926  18.772   2.087
96923W        W62183   2.979  11.761   2.339
96924W        W62184  15.052  28.061   2.373
96925W        W62185  33.543  28.891   2.915
96926W        W62186  27.193  43.865   4.238
96927W        W62187  41.801  22.960  10.860
96928W        W62188  35.396  42.461   4.650
96929W        W62189  21.862   6.190  13.030
96930W        W62190  10.700  38.552  14.772
96931W        W62191  10.344  13.401  12.476
96932W        W62192  17.097  19.579  12.511
96933W        W62193  21.755  43.226  14.950
96934W        W62194  22.919  30.529  11.954
96935W        W62195  39.080  14.827  12.466
96936W        W62196  23.149  22.334  14.479
96937W        W62197  37.516   4.521  14.430
96938W        W62198  21.063  19.693   3.039
96939W        W62199  11.491  32.705  14.851
96940W        W62200  26.728  30.257  14.596
96941W        W62201  16.615  21.310   4.321
96942W        W62202  44.850  28.116   1.753
96943W        W62203  15.111  42.314  13.619
96944W        W62204  34.839  23.070  13.926
96945W        W62205  31.559  13.400  11.079
96946W        W62206  33.984  14.815   1.464
96947W        W62207  43.803  19.692   1.257
96948W        W62208   6.929  37.967   2.210
96949W        W62209   1.287  37.153  13.812
96950W        W62210  33.942   3.107   1.221
96951W        W62211   5.445  20.045   1.687
96952W        W62212  12.840  10.851   3.058
96953W        W62213  39.758  14.581   3.889
96954W        W62214  15.242  38.070   2.458
96955W        W62215  21.107   5.882  10.238
96956W        W62216  22.739  44.334   0.842
96957W        W62217   2.257  41.239  11.600
96958W        W62218  12.316  39.644  12.674
96959W        W62219   3.177  15.698  10.695
96960W        W62220  33.354  12.125  14.471
96961W        W62221  27.136  30.564   0.490
96962W        W62222  31.831  25.555   0.822
96963W        W62223  43.070   1.092  11.142
96964W        W62224  33.541  15.960   4.604
96965W        W62225  43.804  14.524  12.953
96966W        W62226  28.024  21.438  13.258
96967W        W62227  18.682  33.285  10.193
96968W        W62228  41.768  15.240   3.244
96969W        W62229  34.010   3.412   4.133
96970W        W62230   1.099  38.751   1.520
96971W        W62231  24.135   0.608   3.951
96972W        W62232  22.031   1.539   4.090
96973W        W62233  11.364  40.849   2.252
96974W        W62234   1.256  18.459   3.068
96975W        W62235  34.612  33.035  11.131
96976W        W62236  30.655  15.681  14.791
96977W        W62237  13.762  15.947   3.579
96978W        W62238   2.930  37.137  13.444
96979W        W62239  31.773  39.786   4.587
96980W        W62240  23.974  24.611  13.323
96981W        W62241  29.845  11.654   2.800
96982W        W62242  11.521  29.409   2.010
96983W        W62243  42.791  44.690   4.297
96984W        W62244  33.959   6.772   1.054
96985W        W62245  27.797  22.994  14.032
96986W        W62246  43.035   8.858   2.810
96987W        W62247  27.497  35.529   2.928
96988W        W62248  21.579  41.359   4.731
96989W        W62249  22.288  25.429  11.513
96990W        W62250  15.589   4.935  12.431
96991W        W62251  41.935  11.597   2.229
96992W        W62252   3.312  38.650   0.555
96993W        W62253  19.769  25.146  13.838
96994W        W62254  17.311   1.299  12.856
96995W        W62255   6.251  20.251   2.342
96996W        W62256  19.000  22.979   4.699
96997W        W62257   5.109   9.311  10.840
96998W        W62258  18.079  31.392  10.971
96999W        W62259  40.455  18.670   4.654
97000W        W62260  25.082   4.911  12.177
97001W        W62261  21.708  22.743   3.721
97002W        W62262  33.790  12.892  13.348
97003W        W62263  30.156  12.377   2.235
97004W        W62264  10.930  41.637  12.162
97005W        W62265  10.931  39.792  12.144
97006W        W62266   5.435  31.644   1.253
97007W        W62267   2.343   4.238   1.062
97008W        W62268  41.468  38.614  13.060
97009W        W62269  33.071  28.757   2.674
97010W        W62270  22.717  27.598  11.515
97011W        W62271  41.355  15.832   0.015
97012W        W62272  27.577  25.099   3.019
97013W        W62273  16.426  43.110   0.957
97014W        W62274  33.102   2.820   1.646
97015W        W62275  38.553  10.903   4.080
97016W        W62276  32.833  24.455   5.002
97017W        W62277  17.561  44.259   0.417
97018W        W62278  32.295  26.992   0.914
97019W        W62279  10.298   4.494  11.984
97020W        W62280  18.997  26.200  11.037
97021W        W62281   7.656  28.236   0.172
97022W        W62282  19.692  40.534  13.869
97023W        W62283   0.829  16.391   0.296
97024W        W62284   4.380  29.247   1.240
97025W        W62285  37.904  38.304   1.682
97026W        W62286  32.588  43.536  13.852
97027W        W62287  33.027  19.327  14.758
97028W        W62288  36.130  38.943   1.259
97029W        W62289  44.869   3.761   0.370
97030W        W62290  29.035  22.134   2.816
97031W        W62291   5.930  32.041  11.930
97032W        W62292  40.249  27.167   1.318
97033W        W62293  25.605  38.154   3.634
97034W        W62294  25.979  10.309   0.808
97035W        W62295   3.910  42.077  13.888
97036W        W62296  26.200  27.099  13.855
97037W        W62297  24.261  21.639  13.914
97038W        W62298  23.121  17.046   3.296
97039W        W62299  40.529  39.859   0.690
97040W        W62300  18.638  42.858  11.230
97041W        W62301  41.315  10.732  14.942
97042W        W62302  24.433  41.345   1.376
97043W        W62303  10.429  19.078   1.748
97044W        W62304  38.550  42.257  14.515
97045W        W62305  28.575  10.862   3.144
97046W        W62306  36.355  39.163  12.035
97047W        W62307  41.635  22.198   0.511
97048W        W62308  22.417   8.986  10.254
97049W        W62309  28.917  36.862  12.225
97050W        W62310  32.352   3.359  14.848
97051W        W62311   4.986   3.821   1.064
97052W        W62312  33.654   6.458   3.593
97053W        W62313  32.298  15.082  10.923
97054W        W62314  43.139   4.145  13.474
97055W        W62315   9.867  40.376  14.530
97056W        W62316  14.071  31.831   3.261
97057W        W62317   5.756   8.122  10.595
97058W        W62318   7.610  39.031  10.740
97059W        W62319  19.972  40.277  12.576
97060W        W62320   2.095   3.686   1.314
97061W        W62321  34.528   1.028  14.851
97062W        W62322  21.094   3.497   2.195
97063W        W62323  30.234  43.134   4.673
97064W        W62324  42.474  30.951  12.602
97065W        W62325  42.258  17.270  12.941
97066W        W62326   0.379  13.364   0.858
97067W        W62327  25.919  11.726  12.418
97068W        W62328  18.791  24.492  12.612
97069W        W62329  30.073  14.678   0.416
97070W        W62330  13.115  15.648   4.592
97071W        W62331  10.724  38.938   2.827
97072W        W62332  17.374  39.308   4.146
97073W        W62333   4.284  42.354   3.770
97074W        W62334  40.593  13.416  13.499
97075W        W62335  24.768  31.679  12.806
97076W        W62336   5.973  29.960  11.466
97077W        W62337  28.006  40.083   1.792
97078W        W62338  35.527  14.445   2.211
97079W        W62339  43.026  27.123   0.295
97080W        W62340  28.814  36.946   2.634
97081W        W62341  34.820   6.017  11.966
97082W        W62342   4.914  27.138  11.113
97083W        W62343   9.613  37.039  12.975
97084W        W62344  29.513  25.516   0.004
97085W        W62345  21.301  22.280   0.737
97086W        W62346  10.154  40.461  13.140
97087W        W62347  26.954  16.053  12.447
97088W        W62348  43.870   7.174  10.879
97089W        W62349  26.620  24.150   2.161
97090W        W62350  43.164  44.257  12.445
97091W        W62351   1.808   6.435  13.515
97092W        W62352  43.985  15.082  14.274
97093W        W62353  37.352   3.466  10.488
97094W        W62354  37.133   8.869   0.367
97095W        W62355  10.165   6.331  13.131
97096W        W62356   6.945  27.526  12.299
97097W        W62357  29.412  22.446  12.954
97098W        W62358  32.438  11.874   1.105
97099W        W62359   5.299  29.096  14.414
97100W        W62360  22.801  28.067   1.360
97101W        W62361  41.921   6.639   1.329
97102W        W62362  39.905  14.042  14.507
97103W        W62363  32.045  11.705  12.350
97104W        W62364  10.149  18.696   3.660
97105W        W62365  30.848  30.687   2.682
97106W        W62366   0.566  12.940  11.130
97107W        W62367  32.940  26.741  14.804
97108W        W62368  14.278  37.954   1.850
97109W        W62369  40.858  12.613  12.048
97110W        W62370  32.182   5.008   2.838
97111W        W62371  14.960  26.266  11.627
97112W        W62372  20.335  27.668   3.331
97113W        W62373  21.039   3.290  14.438
97114W        W62374  10.853  39.423  14.553
97115W        W62375   6.671  34.231   0.480
97116W        W62376   4.261   7.168  10.737
97117W        W62377  14.017  21.238   2.880
97118W        W62378  12.458  44.603  12.532
97119W        W62379  37.017   6.890   4.011
97120W        W62380  41.360  32.179  11.214
97121W        W62381   4.655  24.464   1.327
97122W        W62382  10.836  10.430   2.540
97123W        W62383  17.247  12.939  13.026
97124W        W62384   1.704  14.164  11.565
97125W        W62385  26.437   1.854   4.039
97126W        W62386   1.924   2.628   5.106
97127W        W62387  10.801  28.577   0.261
97128W        W62388  40.402  30.549  12.318
97129W        W62389  35.885  13.090   1.198
97130W        W62390  10.325  43.584   3.671
97131W        W62391  16.842  35.853   0.899
97132W        W62392  33.039  25.735  12.942
97133W        W62393  37.818   3.297   4.262
97134W        W62394  35.039  14.563   3.263
97135W        W62395  10.290  11.733  14.593
97136W        W62396  16.649   4.812   2.888
97137W        W62397   4.185  36.317  11.556
97138W        W62398  17.204  31.671   4.591
97139W        W62399  42.392  33.536   4.645
97140W        W62400  38.008  30.868  14.981
97141W        W62401  38.808  42.680  12.042
97142W        W62402   3.287   5.641  14.821
97143W        W62403  24.920  44.413  10.764
97144W        W62404  34.340  27.224   4.280
97145W        W62405  38.292   0.181  13.984
97146W        W62406   1.825   0.902   3.552
97147W        W62407   2.952  44.072  13.810
97148W        W62408  43.740  24.845   4.591
97149W        W62409  19.723  32.085   4.109
97150W        W62410  25.598  33.526  12.954
97151W        W62411  27.858  19.437   1.728
97152W        W62412  22.275  43.357  14.829
97153W        W62413   5.512   9.150   4.531
97154W        W62414  43.013   0.555  11.107
97155W        W62415  14.110  29.157  13.525
97156W        W62416  42.771  11.252   0.430
97157W        W62417  15.131  14.426  10.439
97158W        W62418  39.209  10.914  12.668
97159W        W62419  31.994  23.996  10.729
97160W        W62420  16.606  24.513  11.514
97161W        W62421  17.383  21.350  14.582
97162W        W62422  34.603  37.953   3.862
97163W        W62423   4.166   3.390   3.202
97164W        W62424  31.016   5.665  13.535
97165W        W62425  12.512   9.907  13.317
97166W        W62426   4.934  42.880  14.060
97167W        W62427  23.114   9.058  11.741
97168W        W62428  17.795  15.342   1.140
97169W        W62429   7.402  11.799  14.452
97170W        W62430  39.344   1.898  11.993
97171W        W62431  27.222   0.162   4.872
97172W        W62432  22.026  29.521  14.379
97173W        W62433  26.255  20.581  12.542
97174W        W62434  27.652   1.358  13.601
97175W        W62435   9.126  13.792  14.450
97176W        W62436  37.036  15.156  13.435
97177W        W62437   5.945  42.755   4.153
97178W        W62438  29.488   0.427  12.608
97179W        W62439   7.668   3.877  11.583
97180W        W62440  14.183  24.921   3.644
97181W        W62441  28.401  23.796  12.024
97182W        W62442  21.064   6.366   4.131
97183W        W62443  29.144  30.656  14.497
97184W        W62444  23.971  42.400   0.015
97185W        W62445   1.214  26.012   2.622
97186W        W62446  34.383  24.036  11.137
97187W        W62447  14.559  43.283  12.457
97188W        W62448  39.737  28.860  10.690
97189W        W62449  27.799  39.864   4.459
97190W        W62450  17.441  31.567  14.317
97191W        W62451  30.512   1.382  12.607
97192W        W62452  34.641  26.559  12.027
97193W        W62453  40.540  17.248   3.482
97194W        W62454  22.200  24.463   3.912
97195W        W62455  18.595  26.008   4.686
97196W        W62456  27.038  24.501  14.486
97197W        W62457  35.404   7.137   1.349
97198W        W62458  16.591  38.926  13.852
97199W        W62459   2.656   4.316  12.944
97200W        W62460  15.013  14.512  12.533
97201W        W62461  19.669   9.184  14.465
97202W        W62462  27.099  19.179   0.701
97203W        W62463  21.932   0.888   0.356
97204W        W62464  16.503  12.909   3.088
97205W        W62465  41.289  17.303   1.863
97206W        W62466  15.862   9.444  10.615
97207W        W62467  32.028  34.973   3.151
97208W        W62468   6.518   6.799  14.903
97209W        W62469   6.147  15.044  13.968
97210W        W62470  43.627  34.821   0.237
97211W        W62471  38.361   6.960   3.346
97212W        W62472   8.349  16.460   1.949
97213W        W62473  29.131  24.670  14.903
97214W        W62474  42.326  29.122  12.490
97215W        W62475  16.103  35.461   2.859
97216W        W62476   8.791  25.236   4.583
97217W        W62477  38.915   7.466   2.826
97218W        W62478  30.030   3.882   2.235
97219W        W62479  38.606   0.774   1.277
97220W        W62480  21.260  43.836   4.083
97221W        W62481   5.879   4.457  11.191
97222W        W62482  15.208  30.982   4.751
97223W        W62483  24.120  20.687  11.165
97224W        W62484  11.204   3.144   0.384
97225W        W62485   8.741  23.789  11.725
97226W        W62486   4.661  13.706  13.357
97227W        W62487  17.265  40.583  11.634
97228W        W62488  18.684  39.625  14.310
97229W        W62489  19.320  25.630  11.308
97230W        W62490  33.934   1.493  10.127
97231W        W62491  12.746  33.164  11.922
97232W        W62492  25.941  32.610  11.421
97233W        W62493  41.356  15.820   0.550
97234W        W62494   7.297  22.670  12.919
97235W        W62495  36.083   2.975   0.838
97236W        W62496   0.905  17.992  10.671
97237W        W62497  19.631  35.795   4.066
97238W        W62498  31.230  19.226   2.398
97239W        W62499  27.489  43.415   1.311
97240W        W62500   7.385  20.066  13.829
97241W        W62501  17.217   8.751  11.153
97242W        W62502  32.085   3.847   4.005
97243W        W62503   8.598   6.263  11.687
97244W        W62504  12.426  28.488   3.741
97245W        W62505   8.629  18.540   1.202
97246W        W62506  13.225  43.582  14.010
97247W        W62507  20.974   6.677   2.826
97248W        W62508  34.855   3.485   4.178
97249W        W62509  18.296   9.603  12.637
97250W        W62510  29.275   1.493   4.198
97251W        W62511  27.628  24.986  13.422
97252W        W62512  31.629   5.621  14.913
97253W        W62513  43.193  39.282  12.064
97254W        W62514  28.656  16.080  12.013
97255W        W62515   7.743  26.763   0.027
97256W        W62516  41.752  23.374   1.399
97257W        W62517  19.228  28.996  12.931
97258W        W62518   9.616  36.441   2.473
97259W        W62519  28.953  33.871  13.893
97260W        W62520  23.215  16.995  13.954
97261W        W62521   0.789  43.007  11.473
97262W        W62522   0.690  43.703  14.481
97263W        W62523  40.405  18.243  12.004
97264W        W62524  27.686   8.842   0.670
97265W        W62525   2.279  23.259  12.050
97266W        W62526   2.382  44.402   1.974
97267W        W62527  30.913   9.269  11.357
97268W        W62528  29.429  27.108  13.880
97269W        W62529   0.421  18.190   3.124
97270W        W62530   3.024   4.405   1.810
97271W        W62531  18.752  16.662  14.774
97272W        W62532  30.103   1.151  12.348
97273W        W62533   3.270  31.368   0.454
97274W        W62534  35.352  32.005   0.809
97275W        W62535   2.321  25.269  13.747
97276W        W62536   2.190  42.399   3.407
97277W        W62537   6.869  17.090   0.393
97278W        W62538  29.217   7.084   1.931
97279W        W62539   5.702  10.627  12.032
97280W        W62540  24.985  34.490   4.137
97281W        W62541  19.288  16.073  13.442
97282W        W62542  37.730  38.521  14.981
97283W        W62543  10.727  34.007   1.244
97284W        W62544  33.471  10.618  12.855
97285W        W62545  23.129  18.402   2.134
97286W        W62546  38.785  27.596  11.860
97287W        W62547  17.281  10.164  10.601
97288W        W62548  18.481  14.728   2.755
97289W        W62549  17.117  32.953   3.633
97290W        W62550  22.520  17.742   5.037
97291W        W62551  16.177   5.321   0.883
97292W        W62552   9.606   3.505   2.307
97293W        W62553  31.952  24.496  12.450
97294W        W62554   6.179  17.985  13.077
97295W        W62555   4.731  24.533   3.365
97296W        W62556   0.623  32.588  10.690
97297W        W62557  28.106  31.487  10.399
97298W        W62558  27.689   8.776  14.182
97299W        W62559  34.466  34.317   4.832
97300W        W62560  43.577  15.910   0.866
97301W        W62561   7.291  14.225   0.249
97302W        W62562  19.004  38.890   1.215
97303W        W62563  30.360  23.155  13.808
97304W        W62564  17.438  36.879  11.731
97305W        W62565  15.961  38.540   0.829
97306W        W62566  32.373  10.418  11.086
97307W        W62567  33.987  20.797   0.373
97308W        W62568  44.426  10.179   1.914
97309W        W62569  27.394  21.852  11.573
97310W        W62570   8.394  29.159   2.001
97311W        W62571  34.144   2.196  10.634
97312W        W62572  27.139  10.092   2.393
97313W        W62573  35.403  18.837   3.602
97314W        W62574   2.021  18.131   0.344
97315W        W62575  24.916  21.708   0.596
97316W        W62576  39.566  22.226   3.217
97317W        W62577  41.164  32.427  14.422
97318W        W62578  37.951  44.900   2.828
97319W        W62579   4.128  33.634  10.082
97320W        W62580   7.746  27.373  14.507
97321W        W62581  17.325   9.106  13.494
97322W        W62582   5.627  23.603   2.207
97323W        W62583  34.457  25.363  10.740
97324W        W62584  22.760   2.652   5.249
97325W        W62585   5.833  35.368  14.849
97326W        W62586   3.741  15.359   2.302
97327W        W62587  18.186  33.549   0.208
97328W        W62588  29.729  32.841   0.855
97329W        W62589  22.084  16.565  13.316
97330W        W62590  30.310  26.156   1.348
97331W        W62591  16.559  37.927  12.542
97332W        W62592  18.865  20.260  11.596
97333W        W62593   5.391  15.650   1.222
97334W        W62594  39.391  41.889   2.231
97335W        W62595  14.330  27.031  14.412
97336W        W62596   8.942  44.823   2.779
97337W        W62597   1.901  28.862  13.005
97338W        W62598  33.028   6.124  12.417
97339W        W62599  40.824  13.733  12.544
97340W        W62600  27.678  21.829   4.838
97341W        W62601  14.737  39.776   4.508
97342W        W62602  19.559  25.676   2.725
97343W        W62603   0.337   4.429  13.981
97344W        W62604  13.890  30.579   1.930
97345W        W62605   2.371  20.239   0.499
97346W        W62606  17.601   7.741   0.820
97347W        W62607  28.221   4.147   0.738
97348W        W62608  10.793   3.423  11.158
97349W        W62609  35.888   2.851  14.393
97350W        W62610   4.926   4.214   0.460
97351W        W62611  25.502  40.783  13.457
97352W        W62612  28.894  25.533  10.729
97353W        W62613  19.088   6.267  13.464
97354W        W62614  22.253   9.111   4.142
97355W        W62615  25.567  38.383  13.524
97356W        W62616  44.401   0.056  11.579
97357W        W62617  20.013  13.891   1.158
97358W        W62618  37.556  18.011   0.412
97359W        W62619  28.598   2.722  12.620
97360W        W62620  16.899   5.911   2.378
97361W        W62621  40.914   1.633   0.684
97362W        W62622  38.430  16.484  10.633
97363W        W62623   7.834  42.139  10.730
97364W        W62624   0.418  22.745   3.688
97365W        W62625  11.581  33.803  10.063
97366W        W62626  11.223  40.480   2.832
97367W        W62627  16.141  34.453  12.102
97368W        W62628  10.383  42.978   0.972
97369W        W62629  42.509  24.002  11.418
97370W        W62630  35.117   2.783  12.986
97371W        W62631  24.764  36.965  10.341
97372W        W62632  23.204  35.532   1.361
97373W        W62633  24.604  27.575  14.874
97374W        W62634   0.766  36.548  14.866
97375W        W62635  39.059  10.595   0.828
97376W        W62636  24.348   4.850  13.086
97377W        W62637  43.873  34.990  12.124
97378W        W62638  42.868  41.431  11.991
97379W        W62639  16.215   8.428   5.015
97380W        W62640  26.626  21.553   1.707
97381W        W62641  26.418   4.743   3.560
97382W        W62642  11.817  13.313   1.744
97383W        W62643  23.552  38.361   3.234
97384W        W62644  41.515  27.288   1.006
97385W        W62645   6.185  10.229   0.253
97386W        W62646  20.258  42.955  11.280
97387W        W62647  39.954  42.219  12.529
97388W        W62648  33.527  22.225  12.516
97389W        W62649  26.186  44.766   4.323
97390W        W62650  26.254   0.670  13.107
97391W        W62651  12.619  12.659  11.187
97392W        W62652   5.718  26.253  11.193
97393W        W62653  23.529  28.194  13.021
97394W        W62654  14.152  32.467   0.366
97395W        W62655  40.258   5.246   1.719
97396W        W62656  32.829  11.144   0.758
97397W        W62657  12.732   9.418   3.421
97398W        W62658   2.873  32.602  14.741
97399W        W62659  31.740  16.766  12.868
97400W        W62660  12.204  27.149  11.556
97401W        W62661  39.467  37.087  12.212
97402W        W62662  42.369  17.100   2.447
97403W        W62663  35.592  16.005  12.301
97404W        W62664  44.301  15.873  14.849
97405W        W62665   4.753  17.338   1.819
97406W        W62666   5.245  42.575  13.078
97407W        W62667  28.976   5.786  11.151
97408W        W62668  36.544   3.939  12.379
97409W        W62669  14.082  15.194   4.807
97410W        W62670  19.639  16.839  12.470
97411W        W62671  19.763   7.821  14.298
97412W        W62672  41.089  27.569   3.306
97413W        W62673  11.635  22.246   3.766
97414W        W62674  13.425  44.105   1.178
97415W        W62675  37.834  24.535   3.866
97416W        W62676  15.911  44.345   0.955
97417W        W62677  38.983   9.916   4.291
97418W        W62678  11.363  42.987  12.892
97419W        W62679  22.619  20.590   1.446
97420W        W62680  36.020   4.736   3.249
97421W        W62681  13.151  37.830  14.857
97422W        W62682  40.552  43.961   3.668
97423W        W62683  10.019  18.072   1.344
97424W        W62684  21.484  18.763  14.965
97425W        W62685  38.261  38.985  13.142
97426W        W62686  18.205  25.027  12.803
97427W        W62687  32.399  22.621  14.795
97428W        W62688   8.686  42.514  13.558
97429W        W62689  40.352   7.382   5.004
97430W        W62690   0.424  33.435  11.165
97431W        W62691   5.859   5.195   1.042
97432W        W62692  12.328  38.882   0.343
97433W        W62693  37.351  12.788   3.741
97434W        W62694  21.108  38.881   1.202
97435W        W62695  19.541  36.985  10.471
97436W        W62696  12.912   5.741   3.145
97437W        W62697   2.994  36.754   4.482
97438W        W62698  16.809   9.104  11.029
97439W        W62699  28.718  12.340  12.527
97440W        W62700  41.714   1.784  12.986
97441W        W62701  29.675  16.560   2.940
97442W        W62702  41.347   4.189   0.012
97443W        W62703  22.241  33.199  12.459
97444W        W62704  10.305  33.080   4.576
97445W        W62705  42.456  41.404   0.205
97446W        W62706  23.464  15.357  11.315
97447W        W62707  38.530   6.753   3.783
97448W        W62708  16.097  27.109   0.312
97449W        W62709  28.682  42.909  11.958
97450W        W62710   8.153  34.055  13.068
97451W        W62711  11.639  16.729   1.654
97452W        W62712  14.295  42.164  11.329
97453W        W62713  40.296  16.404   0.495
97454W        W62714  14.684  18.155  12.903
97455W        W62715   6.314  13.813  14.903
97456W        W62716  39.097  18.045   3.887
97457W        W62717  40.337   6.329  12.075
97458W        W62718  24.233   5.197  12.548
97459W        W62719  18.998  27.046  12.854
97460W        W62720   2.760  15.515  14.393
97461W        W62721  38.121  26.499  12.586
97462W        W62722  23.980  23.135   3.457
97463W        W62723  29.121  35.449   4.276
97464W        W62724   6.254  23.610   1.168
97465W        W62725  27.650   6.879   3.278
97466W        W62726  14.651   9.355   3.180
97467W        W62727  43.989  22.994  10.782
97468W        W62728   4.036  43.742  11.445
97469W        W62729  13.492   2.334   3.806
97470W        W62730  41.512  41.268  13.899
97471W        W62731  21.349  10.955   4.373
97472W        W62732  32.047  16.651   2.236
97473W        W62733  43.940  10.006   1.945
97474W        W62734  34.950  38.288   3.132
97475W        W62735  21.938  13.740   0.897
97476W        W62736  28.972  27.990   0.463
97477W        W62737   1.782  30.492   3.006
97478W        W62738  23.655  24.182  13.029
97479W        W62739   6.314  40.970  13.155
97480W        W62740  41.042  17.293  11.676
97481W        W62741   5.967  29.647  11.035
97482W        W62742   2.661  42.804   5.131
97483W        W62743   4.918  17.028   4.327
97484W        W62744  20.917  35.515   4.166
97485W        W62745  16.634   9.563   3.306
97486W        W62746  30.116  31.871  14.290
97487W        W62747  33.878   1.011   1.969
97488W        W62748  24.978  13.195  10.687
97489W        W62749  44.921   5.302   0.509
97490W        W62750   8.858   4.609   0.447
97491W        W62751  19.488  23.048   3.547
97492W        W62752  33.312  24.224  14.828
97493W        W62753   9.624  30.387   1.720
97494W        W62754  24.244  36.535   0.940
97495W        W62755   1.377   6.695   4.766
97496W        W62756   1.842  20.557  10.662
97497W        W62757   8.772   3.048  13.897
97498W        W62758  39.458   6.604  13.854
97499W        W62759  16.377  27.664  11.012
97500W        W62760  40.984  37.565   4.110
97501W        W62761   2.459  34.570  12.415
97502W        W62762  30.948   9.128  13.103
97503W        W62763  28.065   1.919   0.282
97504W        W62764  43.513  15.333  11.034
97505W        W62765   0.093  14.392   0.395
97506W        W62766  34.428  10.731   1.412
97507W        W62767  36.880   5.517  14.938
97508W        W62768  21.242  35.090   4.093
97509W        W62769   8.433  28.654  11.558
97510W        W62770  18.754   7.556   3.599
97511W        W62771  25.587  44.874  13.816
97512W        W62772  19.578  29.757  11.263
97513W        W62773  42.273  10.883  14.979
97514W        W62774   2.461  25.522  13.318
97515W        W62775  26.218  20.196  14.696
97516W        W62776   8.198  37.830   1.806
97517W        W62777  30.131  22.978   1.196
97518W        W62778  30.455   4.961   1.792
97519W        W62779   2.571  36.056   0.224
97520W        W62780  30.623  20.153  10.859
97521W        W62781  13.638  11.693  13.858
97522W        W62782  18.205  17.607  10.311
97523W        W62783  22.120  15.933  11.198
97524W        W62784   5.359   9.292  11.809
97525W        W62785  16.991  12.689   2.089
97526W        W62786   7.299   7.829  11.551
97527W        W62787  29.468   6.961  13.946
97528W        W62788  36.872  18.706   1.918
97529W        W62789  33.516   4.790   1.738
97530W        W62790  18.635   6.785   2.360
97531W        W62791  38.407   6.456  13.632
97532W        W62792  43.585  37.586   2.897
97533W        W62793  18.063  43.696   3.219
97534W        W62794   4.027  36.556  12.487
97535W        W62795  31.673  10.612  12.340
97536W        W62796  28.075  13.020  10.604
97537W        W62797  14.521  27.547  11.556
97538W        W62798  28.354  30.459   2.744
97539W        W62799  31.157   5.343  11.722
97540W        W62800  12.976   3.461  10.259
97541W        W62801  27.419  38.067   3.782
97542W        W62802  29.470  41.267   4.603
97543W        W62803  11.985  18.354   2.213
97544W        W62804  32.180  33.997   1.215
97545W        W62805  12.351  10.238   3.121
97546W        W62806   1.551  22.989  14.220
97547W        W62807   4.799  42.297   1.827
97548W        W62808  27.564  32.629   1.228
97549W        W62809  40.272  14.431  13.725
97550W        W62810   3.901  10.239   2.835
97551W        W62811  44.832   3.776   5.009
97552W        W62812  15.058  39.872   1.951
97553W        W62813  38.979  40.578   4.641
97554W        W62814  36.513  38.240   1.779
97555W        W62815  14.130   3.186  14.407
97556W        W62816  28.049  21.510   4.644
97557W        W62817   8.464  18.755  14.304
97558W        W62818  43.209  39.755   0.777
97559W        W62819  24.302   5.896   5.455
97560W        W62820  35.554  31.838  12.753
97561W        W62821  41.054  26.586   2.013
97562W        W62822  15.612  16.125   0.248
97563W        W62823  25.781  30.073   3.176
97564W        W62824   9.217  13.362   4.277
97565W        W62825  17.175  27.170   4.776
97566W        W62826  24.168  24.853   4.450
97567W        W62827  15.757  42.532   3.627
97568W        W62828  24.480   7.691  10.732
97569W        W62829  22.206  21.600   3.385
97570W        W62830  13.497  12.729   2.694
97571W        W62831  27.955  13.273   1.616
97572W        W62832  37.926  30.704  13.504
97573W        W62833  42.648  14.427   3.670
97574W        W62834  36.419  17.750  12.113
97575W        W62835  31.299  33.517   0.013
97576W        W62836  17.750  37.092   3.086
97577W        W62837  16.677  39.052   4.162
97578W        W62838   2.252  12.824   0.206
97579W        W62839  17.614  26.286   1.697
97580W        W62840  31.748  43.248   1.416
97581W        W62841  40.040  15.968   3.722
97582W        W62842  21.694  19.076   2.077
97583W        W62843   0.302  12.390   0.972
97584W        W62844  43.780  37.753   0.286
97585W        W62845   2.969   4.363  11.564
97586W        W62846  23.716  17.443  10.225
97587W        W62847  22.265  44.458  13.459
97588W        W62848  39.783  19.139   0.703
97589W        W62849  20.903  22.413  15.000
97590W        W62850  22.524   8.896   0.889
97591W        W62851  27.628   3.766   1.867
97592W        W62852  26.411  28.701   0.706
97593W        W62853  29.168  31.170  11.556
97594W        W62854  25.114   6.142   0.286
97595W        W62855  25.937  15.162  11.468
97596W        W62856  15.022   8.557   5.560
97597W        W62857  39.147  25.701  10.921
97598W        W62858  36.871  33.450   0.875
97599W        W62859  23.019  15.265  12.620
97600W        W62860   1.856  33.279  10.643
97601W        W62861  12.671  34.027   1.052
97602W        W62862  33.984  36.288   3.689
97603W        W62863  42.814  20.040   0.175
97604W        W62864  39.876  38.934   0.572
97605W        W62865  36.569  18.318   2.195
97606W        W62866  11.229  41.269  11.347
97607W        W62867  14.872   9.385  14.902
97608W        W62868  14.669  39.225  10.638
97609W        W62869  26.968  23.028   2.722
97610W        W62870  13.581  15.369  11.268
97611W        W62871  10.303   7.399  12.537
97612W        W62872  33.422   5.461  13.028
97613W        W62873  11.652   3.965   4.312
97614W        W62874  36.468  16.539   4.148
97615W        W62875  39.724   2.352   0.344
97616W        W62876  12.790  29.939  11.509
97617W        W62877  29.274  33.556  11.901
97618W        W62878  24.554   8.013  11.573
97619W        W62879  17.731  17.005   2.688
97620W        W62880   1.733  27.513  11.513
97621W        W62881  27.675  39.861   0.918
97622W        W62882  13.753  24.634   3.334
97623W        W62883  34.999  23.165  13.091
97624W        W62884  23.527  30.002   3.533
97625W        W62885  32.703  43.214   1.272
97626W        W62886  24.520  31.009   0.728
97627W        W62887  23.937  26.957  11.656
97628W        W62888  28.639  34.886  13.144
97629W        W62889  18.955  13.329   1.639
97630W        W62890  15.850   1.487  12.506
97631W        W62891  28.964  44.900   1.859
97632W        W62892  18.490  22.190  12.971
97633W        W62893  24.037  41.329   2.693
97634W        W62894  34.656  15.326  11.144
97635W        W62895   0.594  35.060   0.867
97636W        W62896  23.853  38.231   3.649
97637W        W62897  24.642   9.878   0.168
97638W        W62898  36.167  42.713   4.555
97639W        W62899   1.463  21.998   2.160
97640W        W62900  28.572  36.988  11.454
97641W        W62901  34.419  27.020   0.731
97642W        W62902  17.463  14.150  14.882
97643W        W62903   4.409   5.486  12.495
97644W        W62904  26.589  34.356  12.070
97645W        W62905   5.377   9.546  10.425
97646W        W62906  42.822  26.514   2.194
97647W        W62907  31.312  41.089  11.686
97648W        W62908  41.825  42.815  14.433
97649W        W62909  37.182   5.900  14.220
97650W        W62910  25.244  14.149  10.601
97651W        W62911  24.555  26.647  12.871
97652W        W62912  11.229  40.472   3.344
97653W        W62913  22.885  24.291   3.200
97654W        W62914  30.584   5.552  10.178
97655W        W62915  33.500  31.193  12.732
97656W        W62916  23.455  10.087   3.188
97657W        W62917   3.297  33.569  12.531
97658W        W62918  41.523  31.451   0.655
97659W        W62919  26.534  25.221   5.087
97660W        W62920   5.337  19.645   0.682
97661W        W62921  31.487  35.843   1.402
97662W        W62922  17.758  42.490   2.402
97663W        W62923  33.348  13.729   3.309
97664W        W62924  11.315  11.319   0.323
97665W        W62925   8.522  19.047  12.934
97666W        W62926  24.488  28.093  14.764
97667W        W62927  20.589  11.704   0.163
97668W        W62928   7.572  30.198   2.939
97669W        W62929  41.448  15.158  14.367
97670W        W62930   6.869  32.410  12.019
97671W        W62931  24.102   1.982   3.247
97672W        W62932   7.973  12.647  11.664
97673W        W62933   8.401  35.439  12.026
97674W        W62934  42.961  17.587  12.896
97675W        W62935  11.769  33.998  14.458
97676W        W62936  21.178  35.901  14.602
97677W        W62937  24.759  27.766  14.357
97678W        W62938   8.207   0.837  11.657
97679W        W62939   2.296  38.878   1.733
97680W        W62940  16.815  39.987  12.359
97681W        W62941  13.661   2.669   4.609
97682W        W62942  28.001  10.680  12.496
97683W        W62943  27.147  15.417   3.584
97684W        W62944   0.901  42.695   3.784
97685W        W62945  16.127   2.931   1.696
97686W        W62946  16.188  35.906  12.092
97687W        W62947  20.711  34.679   0.329
97688W        W62948  18.525  20.270   3.219
97689W        W62949   7.273   3.501  12.850
97690W        W62950  30.283  36.435   0.928
97691W        W62951  21.037  10.774   1.287
97692W        W62952   0.733  36.066   3.281
97693W        W62953  44.602  14.698   4.674
97694W        W62954   1.748  19.743   1.396
97695W        W62955  17.190  44.099  12.627
97696W        W62956   9.656  18.726   2.615
97697W        W62957  12.906  25.994   2.656
97698W        W62958  23.307  44.991  12.422
97699W        W62959  13.761  44.453   3.337
97700W        W62960   9.315  10.730   3.529
97701W        W62961  42.047  10.755  13.421
97702W        W62962  32.100  21.727  11.844
97703W        W62963   2.924   8.845  10.832
97704W        W62964   9.690  22.414   2.463
97705W        W62965   3.686  14.054   2.607
97706W        W62966  32.444  31.160   0.170
97707W        W62967  33.098  24.316   1.655
97708W        W62968  21.429  23.513  13.381
97709W        W62969  20.350   5.451   5.162
97710W        W62970   5.304  17.351   3.812
97711W        W62971   7.360  28.810  11.564
97712W        W62972  24.501   8.860  14.932
97713W        W62973  22.085  12.456  11.943
97714W        W62974  44.402  13.912   5.581
97715W        W62975  27.525  22.390  11.590
97716W        W62976  25.787   7.297   2.456
97717W        W62977   0.330  30.532  10.765
97718W        W62978  19.741  15.117   4.185
97719W        W62979   6.470  19.471  14.791
97720W        W62980  11.857  18.414  11.648
97721W        W62981  15.138  44.399  13.616
97722W        W62982  27.424   6.897  12.426
97723W        W62983  13.773  12.630  11.075
97724W        W62984  42.074   5.899  13.960
97725W        W62985   0.637  39.022   4.404
97726W        W62986  20.597  42.409   4.129
97727W        W62987  19.449  35.508   1.715
97728W        W62988  42.305   5.401   2.256
97729W        W62989  18.708  22.333  11.628
97730W        W62990  36.626  23.163  12.484
97731W        W62991   7.910  31.167   2.722
97732W        W62992   9.321  27.694  13.564
97733W        W62993   1.374  19.220   4.289
97734W        W62994  27.848  21.588   3.542
97735W        W62995  24.211  35.620   2.162
97736W        W62996  15.254  22.094  14.814
97737W        W62997  17.060  16.641   5.455
97738W        W62998  39.461  16.558  12.299
97739W        W62999  28.648  27.685   2.825
97740W        W63000   5.852  13.218  12.041
97741W        W63001  32.368  32.746   2.837
97742W        W63002  23.619  28.891   0.284
97743W        W63003  19.173  22.281  14.702
97744W        W63004  43.012  17.094   4.205
97745W        W63005   0.948   4.257  10.690
97746W        W63006  16.784   3.782   3.318
97747W        W63007  18.155  11.707   3.607
97748W        W63008   9.899  10.818  14.081
97749W        W63009  12.322  31.501   1.874
97750W        W63010  37.626  16.058  12.847
97751W        W63011  33.901  25.146   2.774
97752W        W63012  15.808  29.869   1.281
97753W        W63013   8.216  19.183   2.218
97754W        W63014  38.908  41.425  10.658
97755W        W63015  10.091  22.649  14.904
97756W        W63016  15.539   6.827   4.363
97757W        W63017  25.509   1.140  13.514
97758W        W63018  13.330  30.891  14.948
97759W        W63019  37.983  37.567   0.252
97760W        W63020  44.807  10.211  10.630
97761W        W63021  21.991  11.187   1.844
97762W        W63022   4.060  10.953   3.558
97763W        W63023  18.237  34.045   1.874
97764W        W63024  29.877   4.488  14.875
97765W        W63025   6.232  37.780  12.407
97766W        W63026   6.305  30.245  13.562
97767W        W63027  33.181  30.473   0.283
97768W        W63028  11.802  12.741  10.167
97769W        W63029  21.781  13.263   1.680
97770W        W63030  33.931   7.709  13.823
97771W        W63031   4.132  41.000  11.478
97772W        W63032  36.899  29.378   2.769
97773W        W63033   6.934  14.049  11.972
97774W        W63034  25.591   6.446  12.727
97775W        W63035  27.540  36.173  14.324
97776W        W63036   3.121  23.918  12.998
97777W        W63037  38.263  12.580   0.879
97778W        W63038  21.122  36.804   1.700
97779W        W63039  30.984  13.002   2.390
97780W        W63040   9.434  33.383  11.083
97781W        W63041  39.726  26.350   0.686
97782W        W63042   8.779  20.453   4.691
97783W        W63043  25.284  10.740  11.028
97784W        W63044  31.828  29.555   3.810
97785W        W63045  40.698  26.674   0.560
97786W        W63046  19.226  20.152  13.396
97787W        W63047  43.761   7.459  11.667
97788W        W63048   5.673  20.719   4.137
97789W        W63049   5.292   7.495  11.604
97790W        W63050  35.143  12.253   4.932
97791W        W63051   6.145   8.278  11.336
97792W        W63052  22.198  34.646  10.672
97793W        W63053  11.712  36.120  11.112
97794W        W63054   8.169  24.589  14.468
97795W        W63055  23.241   7.319  12.424
97796W        W63056   9.582  17.828   1.787
97797W        W63057  37.217  42.889  10.325
97798W        W63058  18.809  11.872   4.499
97799W        W63059  22.337  16.859  12.993
97800W        W63060  29.892   7.716   3.880
97801W        W63061  44.402  12.630   3.325
97802W        W63062  17.801  29.588  11.102
97803W        W63063  33.313  32.629  12.978
97804W        W63064  32.894   6.695   3.285
97805W        W63065  36.114  42.840   5.050
97806W        W63066   4.738  37.886  13.173
97807W        W63067  25.175  18.059   1.938
97808W        W63068  41.843  41.949   0.864
97809W        W63069  41.972   5.779  14.966
97810W        W63070  32.199  28.178  10.683
97811W        W63071  36.994  42.890   0.760
97812W        W63072  30.172  12.113  11.251
97813W        W63073   5.649  30.680  12.142
97814W        W63074  19.276   6.900   0.723
97815W        W63075  38.340  20.403  14.319
97816W        W63076   6.694  18.191   1.253
97817W        W63077  12.581   1.363   0.544
97818W        W63078  32.065  19.405  14.505
97819W        W63079  12.154  12.652   2.288
97820W        W63080   0.173  42.092  10.681
97821W        W63081  16.696  44.436   2.252
97822W        W63082  42.355   9.026  11.036
97823W        W63083   0.559   0.767  14.048
97824W        W63084  32.687   7.336  13.459
97825W        W63085  31.529  31.324  10.952
97826W        W63086  11.211  14.811  11.199
97827W        W63087   5.141  19.208   3.194
97828W        W63088   8.593   9.919   1.434
97829W        W63089  34.682  19.086   4.246
97830W        W63090  11.812  26.009   3.967
97831W        W63091  38.391  16.796   2.843
97832W        W63092   0.221  15.436   3.246
97833W        W63093  39.406  21.590  12.028
97834W        W63094  18.485   3.244  11.501
97835W        W63095  29.087   5.481  13.989
97836W        W63096  29.477  34.497  13.601
97837W        W63097   2.026   0.438  13.002
97838W        W63098   0.863  23.464  13.112
97839W        W63099  24.301  24.213   2.155
97840W        W63100  43.668  38.507  13.467
97841W        W63101  34.019  44.290  10.790
97842W        W63102  43.027  17.480   2.011
97843W        W63103  21.939   4.095   2.686
97844W        W63104  20.043  27.928   0.251
97845W        W63105  36.959  25.092   2.288
97846W        W63106  37.066  18.223   2.849
97847W        W63107  26.722   8.857  14.386
97848W        W63108  43.825  27.618  13.222
97849W        W63109  27.418  36.477  13.029
97850W        W63110  26.561  33.062  14.944
97851W        W63111  12.199  28.430  12.501
97852W        W63112  41.365   0.883  14.286
97853W        W63113  37.588  29.352  12.496
97854W        W63114  13.111   6.078   4.112
97855W        W63115  34.107  44.944  11.187
97856W        W63116  43.982  31.490  13.104
97857W        W63117  13.829  14.573   4.354
97858W        W63118  38.982  40.393   0.249
97859W        W63119   8.146  17.165  14.642
97860W        W63120  28.615  13.676   4.058
97861W        W63121   3.995  28.271   3.744
97862W        W63122  16.482   9.818   0.755
97863W        W63123  20.507  38.760  11.015
97864W        W63124  13.885  25.970  13.133
97865W        W63125  43.985  42.457   3.517
97866W        W63126  11.232  36.333  11.156
97867W        W63127   1.355  38.828  14.771
97868W        W63128   6.090  33.422   1.687
97869W        W63129  40.573  41.477   0.408
97870W        W63130  20.376  44.549  12.961
97871W        W63131  35.653  27.514  10.415
97872W        W63132  33.671  31.090  11.971
97873W        W63133  16.494  40.870   4.580
97874W        W63134  34.333  14.448   1.302
97875W        W63135  10.137   5.174   0.456
97876W        W63136  27.082  40.363  13.796
97877W        W63137  24.117  36.654   2.287
97878W        W63138  26.635  20.511   3.397
97879W        W63139  28.183   3.855  13.041
97880W        W63140  23.912   8.298   1.821
97881W        W63141   6.302  20.832   9.949
97882W        W63142   1.812  19.413   4.049
97883W        W63143  24.427  31.999  13.057
97884W        W63144  10.869  30.806   3.363
97885W        W63145  29.061  42.343   2.775
97886W        W63146  35.487  23.987  11.627
97887W        W63147  36.082  27.529  10.708
97888W        W63148   5.888   8.648  12.049
97889W        W63149  26.691  43.551  14.371
97890W        W63150   5.611  38.849  14.349
97891W        W63151   2.516  16.784  13.891
97892W        W63152  28.411   4.905   0.366
97893W        W63153   7.997  18.788  12.203
97894W        W63154  41.932  16.838  14.473
97895W        W63155  17.364  31.030   1.797
97896W        W63156  23.152  12.255  11.659
97897W        W63157  12.628  12.568  11.679
97898W        W63158  12.365  28.494  13.915
97899W        W63159   2.853  42.841   2.334
97900W        W63160  26.439   8.649  14.013
97901W        W63161  31.942   9.774   4.187
97902W        W63162  34.888  25.083  10.718
97903W        W63163  41.406  24.150   4.235
97904W        W63164  40.112  24.241  14.334
97905W        W63165  26.660   3.930  14.403
97906W        W63166   8.741  12.288  11.002
97907W        W63167   8.208   6.486   9.887
97908W        W63168  10.291  28.855  11.744
97909W        W63169   7.429  35.944  13.954
97910W        W63170  12.458  14.711   3.700
97911W        W63171  22.259  10.599  12.746
97912W        W63172   4.387  13.650   4.148
97913W        W63173  20.394   9.457   2.377
97914W        W63174  41.544  32.148  11.710
97915W        W63175  18.055  34.909  10.703
97916W        W63176   4.844  42.927  12.283
97917W        W63177  44.215  43.867   4.694
97918W        W63178  28.083   1.180  13.352
97919W        W63179   9.770  22.541  14.503
97920W        W63180  43.516  29.969   4.059
97921W        W63181  37.613  21.367   0.156
97922W        W63182  22.576  12.164   1.964
97923W        W63183  15.810  30.103  13.003
97924W        W63184  37.006  44.260  13.670
97925W        W63185  25.002  17.167   4.488
97926W        W63186  40.529  19.307  14.843
97927W        W63187   2.115  34.868  11.180
97928W        W63188  37.338   3.543   9.988
97929W        W63189  12.207  17.163   4.667
97930W        W63190  34.122  20.689  14.409
97931W        W63191  39.884   4.135  14.758
97932W        W63192  11.977  40.880   0.712
97933W        W63193  25.456  32.623   2.362
97934W        W63194   9.043  28.454   1.989
97935W        W63195  19.174  42.758   1.915
97936W        W63196  21.779  20.798   3.895
97937W        W63197   1.205  30.719  13.962
97938W        W63198  32.129  16.733   3.207
97939W        W63199  12.619  41.549   0.949
97940W        W63200  41.371  43.604   1.244
97941W        W63201  20.232  36.563   2.710
97942W        W63202  27.962  39.002   3.162
97943W        W63203  29.004  32.336   2.806
97944W        W63204  18.637  32.845   1.648
97945W        W63205  26.613  19.474  10.349
97946W        W63206  16.652  29.460   0.925
97947W        W63207   8.427  42.014   4.687
97948W        W63208   7.271  24.639   2.506
97949W        W63209  31.613  14.193  12.378
97950W        W63210   3.875   3.487   2.284
97951W        W63211  40.753   8.934  13.935
97952W        W63212  24.639  10.446   2.175
97953W        W63213  20.686  10.387   4.178
97954W        W63214  12.915  34.604   3.732
97955W        W63215  36.369  34.596   1.287
97956W        W63216   9.868  10.057   3.228
97957W        W63217  24.912  20.654  13.889
97958W        W63218  22.048  17.732  10.591
97959W        W63219  39.124   2.370  12.053
97960W        W63220  15.647  24.456   4.892
97961W        W63221  10.339  23.571  12.473
97962W        W63222   9.188   9.792  10.698
97963W        W63223  16.822  13.371   2.139
97964W        W63224  37.082  13.096   2.044
97965W        W63225  16.996  37.937   2.695
97966W        W63226   4.277  36.014  11.095
97967W        W63227  30.424  37.306   3.613
97968W        W63228  20.053  16.208   0.423
97969W        W63229  43.315  13.055  14.909
97970W        W63230  21.295   1.777   0.942
97971W        W63231  34.979  19.529   4.149
97972W        W63232  21.271   6.520  11.570
97973W        W63233  24.527  21.823  14.349
97974W        W63234   0.135  21.198   2.201
97975W        W63235  14.492  27.521   1.306
97976W        W63236  31.730  34.527  11.060
97977W        W63237  14.320  21.255   4.189
97978W        W63238  19.704  32.139   0.240
97979W        W63239  40.532  32.956   3.571
97980W        W63240  38.255  41.181   4.859
97981W        W63241  21.708  34.492  13.496
97982W        W63242  21.535   1.984  11.771
97983W        W63243   0.347  20.749   0.245
97984W        W63244  29.122  20.206  13.347
97985W        W63245  36.388  37.557  10.260
97986W        W63246  15.547  41.994   2.752
97987W        W63247   2.625  14.100  11.611
97988W        W63248  12.404  41.079  14.862
97989W        W63249  24.507  20.958  12.967
97990W        W63250  21.982  27.025  11.892
97991W        W63251  28.700   7.845   0.527
97992W        W63252  13.515  23.776   3.610
97993W        W63253  19.033  21.386   3.810
97994W        W63254  23.550  34.564   4.172
97995W        W63255  17.728  38.775  14.282
97996W        W63256  43.935  42.055  14.828
97997W        W63257  16.878  23.667   4.352
97998W        W63258  22.955   6.862   1.769
97999W        W63259  22.712  10.570  12.434
98000W        W63260  28.924  11.268  13.345
98001W        W63261   1.552  13.464   1.210
98002W        W63262  28.979  29.010   2.963
98003W        W63263   4.723  39.435  13.406
98004W        W63264   3.020   8.140  13.944
98005W        W63265  44.719  15.813  12.313
98006W        W63266   0.970  43.110   0.933
98007W        W63267  11.848  27.619   4.124
98008W        W63268  15.192  32.323   1.855
98009W        W63269  13.741   1.393  13.293
98010W        W63270  20.568  42.949   3.616
98011W        W63271  35.405  20.088  14.470
98012W        W63272  12.636   9.434  14.882
98013W        W63273   9.765   7.053   2.666
98014W        W63274   5.191  37.891  12.882
98015W        W63275  43.773  12.073  12.428
98016W        W63276  38.381   4.606   4.000
98017W        W63277  20.630  18.978   5.517
98018W        W63278  22.879  23.165  11.085
98019W        W63279  32.207  40.461   0.907
98020W        W63280  27.495  33.146   0.251
98021W        W63281  41.742  32.502  11.081
98022W        W63282  11.432   4.407  10.625
98023W        W63283   1.890  27.208   2.698
98024W        W63284   3.494  39.284  12.933
98025W        W63285  40.013  28.171   1.770
98026W        W63286  33.092  24.516  13.791
98027W        W63287  40.752  35.433  12.262
98028W        W63288   5.705  38.323   1.214
98029W        W63289  23.728  13.201  13.332
98030W        W63290   9.137  44.653   3.235
98031W        W63291  13.614  38.936  12.936
98032W        W63292  10.575   1.864   1.200
98033W        W63293   1.248  37.117   0.667
98034W        W63294  44.541   3.348   0.391
98035W        W63295  37.369  17.875   3.130
98036W        W63296  21.603  29.575   1.506
98037W        W63297  41.671  34.406  14.964
98038W        W63298  33.093  21.272   1.719
98039W        W63299  35.913  30.849  13.081
98040W        W63300  37.513  35.201   2.386
98041W        W63301  38.726  41.033   4.728
98042W        W63302   8.591   4.716   3.811
98043W        W63303  16.510  17.348   3.984
98044W        W63304   4.604  10.850   3.690
98045W        W63305  15.914  23.090  13.373
98046W        W63306  28.517  33.515   1.737
98047W        W63307  29.484   9.622   1.384
98048W        W63308  14.193   1.738   0.706
98049W        W63309  18.339   4.158   1.623
98050W        W63310  27.443  44.028  12.993
98051W        W63311  12.102  31.599   2.438
98052W        W63312  39.579   3.661  11.409
98053W        W63313  24.591  20.231  11.399
98054W        W63314  30.203  33.871  13.308
98055W        W63315  32.885   9.598   3.178
98056W        W63316  24.780   9.371  12.458
98057W        W63317   3.445   2.434  13.994
98058W        W63318  25.606  18.780  10.716
98059W        W63319  30.512  24.498   0.480
98060W        W63320  14.211   5.685   0.560
98061W        W63321  36.837  35.490  14.690
98062W        W63322  35.638  20.750   0.787
98063W        W63323  23.584  42.908   4.671
98064W        W63324  24.259  44.731   2.701
98065W        W63325  41.082  30.143  11.111
98066W        W63326   6.484  27.063   2.732
98067W        W63327  34.882  28.130  14.881
98068W        W63328  21.515   3.663  14.013
98069W        W63329  28.556  18.335   5.021
98070W        W63330  39.613  37.479   4.035
98071W        W63331  26.097   5.716   3.326
98072W        W63332  22.033  18.644  11.117
98073W        W63333  27.161  35.529   3.336
98074W        W63334  27.498  25.605   0.793
98075W        W63335  35.619  14.059   1.306
98076W        W63336  25.482  11.464   4.685
98077W        W63337  41.412  17.250   0.659
98078W        W63338  19.755  12.614  11.098
98079W        W63339  12.899  43.070   3.592
98080W        W63340  10.387  30.891  10.002
98081W        W63341  22.729   1.986  12.932
98082W        W63342  19.472   6.965   2.783
98083W        W63343  41.084  39.076  11.546
98084W        W63344  24.568  31.437   1.438
98085W        W63345  34.990  36.973   0.366
98086W        W63346  26.419  27.980  11.609
98087W        W63347   9.112  22.127  10.306
98088W        W63348  10.144  25.119   4.273
98089W        W63349  37.444  26.579   2.816
98090W        W63350  18.622   1.431  11.372
98091W        W63351  11.169  13.664  11.912
98092W        W63352  14.703  19.647  13.379
98093W        W63353  10.158  27.979   2.015
98094W        W63354  27.077  42.585  11.104
98095W        W63355  31.928  36.427  11.188
98096W        W63356  12.055  17.747  11.162
98097W        W63357  25.277  21.646   1.622
98098W        W63358  25.090  30.440  14.285
98099W        W63359  43.289  13.745   0.382
98100W        W63360  23.478  21.864  11.287
98101W        W63361  43.731  43.914  14.244
98102W        W63362  16.730  40.829  14.446
98103W        W63363   2.788  20.573   1.986
98104W        W63364  30.589   5.973  12.302
98105W        W63365  25.266  22.991  13.227
98106W        W63366  14.428  41.779   4.131
98107W        W63367  32.639  41.563   4.973
98108W        W63368  21.519  31.199  10.616
98109W        W63369  41.400  13.354   2.295
98110W        W63370  43.030  44.940   3.903
98111W        W63371  19.671  15.344   0.683
98112W        W63372  19.541  28.360  10.472
98113W        W63373   0.427   8.433  14.541
98114W        W63374  35.999   0.254  10.045
98115W        W63375  12.989  22.339   4.228
98116W        W63376  39.944   9.180   2.253
98117W        W63377   7.413  12.058   4.171
98118W        W63378  31.608  15.598   1.215
98119W        W63379  19.454   5.167   4.524
98120W        W63380  22.949  17.449   5.060
98121W        W63381  43.531  24.712   1.844
98122W        W63382  36.018   4.478  14.964
98123W        W63383   1.993  38.805   0.370
98124W        W63384  27.479  41.560   0.191
98125W        W63385  21.672   2.192  10.710
98126W        W63386  15.698  15.336  14.306
98127W        W63387  11.760  38.078   0.861
98128W        W63388  30.671  29.546   0.233
98129W        W63389  33.046  20.793   1.974
98130W        W63390  17.723   9.289  14.847
98131W        W63391   0.778  18.753  13.842
98132W        W63392   1.821  12.204  14.692
98133W        W63393   3.435  24.538   1.918
98134W        W63394  24.420  17.005  12.614
98135W        W63395  31.905   0.434   1.383
98136W        W63396  44.414  19.941  14.584
98137W        W63397  40.914  27.023   1.768
98138W        W63398  18.233   7.013  11.897
98139W        W63399  12.268  42.932   2.243
98140W        W63400  29.753  16.201  13.811
98141W        W63401   4.322  30.906   0.755
98142W        W63402  20.752  13.577   4.264
98143W        W63403  13.148  17.731   2.406
98144W        W63404  43.356  32.419   2.638
98145W        W63405  23.552  30.822  14.978
98146W        W63406  24.194  29.206  11.208
98147W        W63407  20.345  22.207   3.709
98148W        W63408  19.755  19.336   1.583
98149W        W63409   1.224   5.396  14.386
98150W        W63410  25.710  38.799   2.963
98151W        W63411  42.560   3.346   0.391
98152W        W63412   6.991  20.025  11.054
98153W        W63413  36.449  44.336  14.728
98154W        W63414  41.883  13.525  14.472
98155W        W63415  40.888  24.070   4.275
98156W        W63416  11.335  24.317   4.446
98157W        W63417  38.723   8.725   0.951
98158W        W63418  12.825  29.959  14.667
98159W        W63419  25.176  32.113  11.999
98160W        W63420   7.911   2.704   2.264
98161W        W63421   0.074  39.999   4.777
98162W        W63422  11.796  34.612  13.276
98163W        W63423  41.368  38.102   0.221
98164W        W63424  17.136   5.256   0.774
98165W        W63425  23.590  14.756   4.535
98166W        W63426  38.844  18.918  10.195
98167W        W63427   7.330   2.224  12.528
98168W        W63428  39.544  21.910  12.534
98169W        W63429   8.865  25.772  12.489
98170W        W63430  40.234   3.250  11.422
98171W        W63431  28.635  19.186  13.499
98172W        W63432   0.020  31.968   0.885
98173W        W63433  37.954  12.950  12.252
98174W        W63434  43.989  39.921   4.258
98175W        W63435   4.368  18.812   1.334
98176W        W63436  37.866  43.093   2.158
98177W        W63437  16.806   7.278  14.500
98178W        W63438  40.529  22.076   2.625
98179W        W63439  19.287  36.052  11.998
98180W        W63440  36.106  44.973  12.903
98181W        W63441  17.263  26.726   0.963
98182W        W63442  13.815   4.418  11.123
98183W        W63443  41.436  13.288  14.391
98184W        W63444  22.253  37.984   1.859
98185W        W63445   4.710  24.976   1.295
98186W        W63446   3.946   9.108   0.136
98187W        W63447   6.682  13.271  13.888
98188W        W63448   7.747  20.484  12.482
98189W        W63449   1.903   5.033  12.044
98190W        W63450  30.421  16.850  10.642
98191W        W63451  26.527  32.148   2.305
98192W        W63452  33.387   8.972  10.704
98193W        W63453  26.874  23.648   0.660
98194W        W63454  13.149   5.369   0.461
98195W        W63455  31.672  33.390  11.629
98196W        W63456  29.445  43.531  14.001
98197W        W63457  15.542   1.067   4.978
98198W        W63458  10.169  13.003  10.292
98199W        W63459  22.328  28.971  14.945
98200W        W63460   0.284  13.540  14.384
98201W        W63461  40.540   5.819  10.497
98202W        W63462   2.684  36.182  13.278
98203W        W63463   9.133   0.835   1.367
98204W        W63464   2.166  18.835  13.378
98205W        W63465  11.410   7.996  10.368
98206W        W63466   9.880  26.233   2.540
98207W        W63467  16.938  14.273  14.890
98208W        W63468   5.957  13.703  11.929
98209W        W63469  30.134  32.523   3.061
98210W        W63470  31.664  10.684  13.773
98211W        W63471   9.453  31.411  14.913
98212W        W63472  29.818  11.035  13.258
98213W        W63473   2.838  41.775  12.817
98214W        W63474  31.176  16.666   3.189
98215W        W63475  17.257  25.521   3.290
98216W        W63476  25.446  36.938  12.669
98217W        W63477  14.398  27.996   0.497
98218W        W63478  27.973   1.484   1.241
98219W        W63479  15.199  13.151  13.478
98220W        W63480  20.651  33.988   4.065
98221W        W63481   8.483  39.392   3.150
98222W        W63482  11.510  40.947  11.621
98223W        W63483  23.105  12.280   4.069
98224W        W63484  40.807   4.416  12.992
98225W        W63485  39.681  41.364   0.510
98226W        W63486   0.424   7.111   2.749
98227W        W63487   0.618  29.606  13.019
98228W        W63488  26.940   8.058  11.933
98229W        W63489   3.174  26.470  14.874
98230W        W63490  43.056  20.679  13.045
98231W        W63491  13.633  21.089   0.293
98232W        W63492  11.872  19.923   3.257
98233W        W63493   4.327  13.948  14.729
98234W        W63494   0.868  24.627  11.375
98235W        W63495   7.168   1.799  12.243
98236W        W63496  34.916   4.375  13.608
98237W        W63497   0.949  13.380   4.527
98238W        W63498  20.077  33.414   0.462
98239W        W63499   2.964  27.519   3.810
98240W        W63500  25.423  35.243   0.840
98241W        W63501  15.841  33.127  12.501
98242W        W63502  10.872  35.770   2.424
98243W        W63503  11.444  24.416  13.414
98244W        W63504  33.491  40.749  13.263
98245W        W63505  36.588  36.464  13.388
98246W        W63506  25.247  20.032  10.337
98247W        W63507  40.225  20.098   4.866
98248W        W63508  25.392  19.782  11.935
98249W        W63509  27.525  25.256  14.956
98250W        W63510  41.047   2.841   1.685
98251W        W63511  17.911  19.457   1.730
98252W        W63512  30.549   9.947   3.094
98253W        W63513  35.069  12.699  12.443
98254W        W63514  28.091  24.545  11.390
98255W        W63515  36.330  24.881   3.747
98256W        W63516  14.885  44.695   0.296
98257W        W63517  43.323  10.638   1.667
98258W        W63518   5.719  15.130   2.588
98259W        W63519  42.077  17.494   2.714
98260W        W63520  31.432   3.534   4.673
98261W        W63521  42.550  28.295   2.787
98262W        W63522  40.200  34.468   1.782
98263W        W63523  41.092  12.234   2.653
98264W        W63524  21.586  18.632  13.456
98265W        W63525  16.301   3.713   2.243
98266W        W63526  21.739  43.616   2.035
98267W        W63527   2.446  30.570  12.116
98268W        W63528   1.254  23.788  13.870
98269W        W63529   7.210  15.347   0.742
98270W        W63530  38.532  19.203   4.819
98271W        W63531  26.557   7.137  12.878
98272W        W63532  35.348  28.397  13.043
98273W        W63533  27.234  11.185  14.798
98274W        W63534  26.601  37.537  11.446
98275W        W63535  41.463  22.489   2.651
98276W        W63536  15.575  29.263   0.482
98277W        W63537  10.353  36.573  13.082
98278W        W63538  42.607   8.870   2.336
98279W        W63539  14.916  41.565  14.332
98280W        W63540   1.475   6.645  14.839
98281W        W63541  28.198  10.814  12.042
98282W        W63542  16.590  42.333   4.288
98283W        W63543   8.306  15.750  10.615
98284W        W63544   5.951  10.748  14.028
98285W        W63545  14.950  34.368  11.554
98286W        W63546   2.278  41.824  14.496
98287W        W63547  34.815   9.428  11.944
98288W        W63548  41.579   2.698  11.919
98289W        W63549  18.625  19.546  13.886
98290W        W63550  30.319   4.928   0.728
98291W        W63551  26.190  10.959  11.710
98292W        W63552  39.499   2.800   1.715
98293W        W63553  33.338  30.469   3.813
98294W        W63554  13.102   9.177   2.607
98295W        W63555   3.268  41.807  13.104
98296W        W63556  17.008  27.099   0.534
98297W        W63557  42.467  32.641   4.021
98298W        W63558  43.180   7.264   2.383
98299W        W63559   8.255  18.166  10.601
98300W        W63560  28.034  29.500   2.135
98301W        W63561  33.817   4.328   1.659
98302W        W63562  38.252  16.847  12.780
98303W        W63563  11.835   8.304  11.440
98304W        W63564  27.367  36.599  10.684
98305W        W63565  42.784  31.489   1.321
98306W        W63566  35.290  44.518  12.907
98307W        W63567  19.026  36.369  10.747
98308W        W63568  10.472   0.480   3.493
98309W        W63569  23.297  28.098   3.086
98310W        W63570  23.473   6.618  10.871
98311W        W63571  15.792  36.620  10.645
98312W        W63572   9.910  22.081   1.385
98313W        W63573   5.307  13.850   3.137
98314W        W63574  28.152  15.788  10.656
98315W        W63575  44.791  21.594   2.314
98316W        W63576   9.298  18.563   1.417
98317W        W63577   9.994   4.417   2.145
98318W        W63578  26.931  14.578  14.490
98319W        W63579  19.248  26.567   1.473
98320W        W63580   9.609  36.956   4.243
98321W        W63581  21.628  17.266  10.247
98322W        W63582  34.940  27.110   0.561
98323W        W63583   5.330  22.393   2.108
98324W        W63584  35.441   2.437  10.669
98325W        W63585  36.430  17.804   0.833
98326W        W63586   1.353  26.102  14.789
98327W        W63587  33.538   1.515   1.203
98328W        W63588   2.360   7.148   0.724
98329W        W63589  39.847  34.817   1.644
98330W        W63590   5.892  40.880  10.351
98331W        W63591   8.805  37.274   0.451
98332W        W63592  19.635   0.453   1.960
98333W        W63593  14.104   9.386   3.219
98334W        W63594  22.757   2.412   1.317
98335W        W63595   0.922  19.459   2.305
98336W        W63596   8.274  23.252  14.334
98337W        W63597  29.442  44.336  10.248
98338W        W63598  40.291  22.299  13.961
98339W        W63599  20.123  37.430  10.231
98340W        W63600  40.496  20.158   0.835
98341W        W63601  14.126  30.104  12.125
98342W        W63602  39.487  40.123   0.355
98343W        W63603  27.172   7.299  14.110
98344W        W63604  16.494  42.881  14.465
98345W        W63605  20.585  28.440   3.229
98346W        W63606  28.180  30.124   0.928
98347W        W63607  19.815   5.422  10.722
98348W        W63608  40.486  36.880  12.458
98349W        W63609  40.909   2.767   1.171
98350W        W63610  35.783  21.265  11.590
98351W        W63611  31.588   9.998  12.090
98352W        W63612  26.719  35.424   4.273
98353W        W63613  21.129  31.837  11.002
98354W        W63614  16.348  13.607   2.164
98355W        W63615  28.129  31.597  14.429
98356W        W63616  26.754  19.957   1.276
98357W        W63617  21.473  37.826  14.924
98358W        W63618   0.548  40.449   1.808
98359W        W63619  41.094   0.368   4.155
98360W        W63620  25.514  27.579   0.382
98361W        W63621   4.925  42.795   0.083
98362W        W63622   5.740  26.151  12.077
98363W        W63623  22.976  25.682   1.758
98364W        W63624  15.900  15.519   3.108
98365W        W63625   1.338  19.588   1.685
98366W        W63626  15.374   6.726   0.841
98367W        W63627   9.347  16.013  11.468
98368W        W63628  13.073  21.681  10.976
98369W        W63629  23.230  35.374  11.596
98370W        W63630   5.989  20.050  10.948
98371W        W63631  15.166  34.359  13.413
98372W        W63632   7.007   9.600  11.130
98373W        W63633   2.587  18.944  14.634
98374W        W63634  21.776  42.491   3.404
98375W        W63635  38.467  14.568  13.380
98376W        W63636  39.396  20.269  12.338
98377W        W63637  20.762  21.454   3.191
98378W        W63638  20.084  40.885  10.620
98379W        W63639  33.334  12.253  12.622
98380W        W63640   6.734  33.640  10.707
98381W        W63641  20.465  22.410   0.794
98382W        W63642  39.337  40.793   4.165
98383W        W63643  25.049   5.728   2.499
98384W        W63644  15.333  30.463  12.426
98385W        W63645  39.358  37.534  11.037
98386W        W63646  19.020  16.081   3.225
98387W        W63647  11.592  43.409   0.903
98388W        W63648  36.119   8.780  12.084
98389W        W63649  44.135  13.714  12.619
98390W        W63650  14.755  29.935  12.392
98391W        W63651  21.069  14.602  10.811
98392W        W63652   1.088  39.549   3.359
98393W        W63653  26.074  21.110  10.365
98394W        W63654  28.111  23.965   1.905
98395W        W63655  39.840  34.227   0.453
98396W        W63656   6.922  40.006   0.518
98397W        W63657  26.351  37.640  11.868
98398W        W63658   8.886  11.805  14.295
98399W        W63659  19.456  33.403  14.971
98400W        W63660  32.067  26.545  14.762
98401W        W63661  30.442  37.558   1.047
98402W        W63662  39.200  35.667   1.019
98403W        W63663  10.135  10.349  14.440
98404W        W63664   4.161   0.217   2.546
98405W        W63665  29.602  37.846  13.903
98406W        W63666  17.669  44.425   4.128
98407W        W63667  25.059  23.051  14.940
98408W        W63668   4.984  41.433  14.434
98409W        W63669  31.487  28.307  12.026
98410W        W63670  10.620  21.418   2.259
98411W        W63671  40.310  28.640  11.605
98412W        W63672  16.098   7.275   2.527
98413W        W63673  33.901   6.005   2.716
98414W        W63674  25.070  21.261   4.079
98415W        W63675   6.385  34.111   2.243
98416W        W63676  16.545  18.105   2.879
98417W        W63677  40.021   5.895   0.342
98418W        W63678   1.424   7.403  11.554
98419W        W63679  33.420  27.311   3.120
98420W        W63680   7.763  22.059   2.311
98421W        W63681   0.193  42.277   0.210
98422W        W63682  25.267  29.394  12.936
98423W        W63683  22.568   9.250   2.778
98424W        W63684  40.588  37.990  11.825
98425W        W63685  42.371  20.114  10.877
98426W        W63686  35.559  10.206  11.204
98427W        W63687  25.160  10.273  11.929
98428W        W63688  28.482  29.244   1.782
98429W        W63689  38.057  36.901  11.431
98430W        W63690  42.039  43.744  12.851
98431W        W63691  44.051  10.590  14.033
98432W        W63692  17.568  32.358   1.407
98433W        W63693  40.684   8.362  13.328
98434W        W63694  41.884  30.135   5.178
98435W        W63695  20.455  42.329  10.759
98436W        W63696  33.380  41.486   2.710
98437W        W63697  24.153   2.034  14.043
98438W        W63698  31.621   3.346  13.951
98439W        W63699  39.186  14.307  12.289
98440W        W63700  36.640  33.719  10.291
98441W        W63701  12.086  18.556  11.199
98442W        W63702  18.125  12.338   2.835
98443W        W63703  37.477   9.186  11.974
98444W        W63704   5.198  40.056   0.960
98445W        W63705  13.758  19.291  12.147
98446W        W63706  15.169  10.334  10.202
98447W        W63707  35.021  36.489  12.483
98448W        W63708   1.249  19.854   2.144
98449W        W63709  33.536  15.639  10.522
98450W        W63710  18.848  42.060  11.591
98451W        W63711   2.909  11.117   5.378
98452W        W63712  44.338  27.582  13.271
98453W        W63713  42.899  29.397  14.521
98454W        W63714  12.764  29.707  12.374
98455W        W63715  43.273  31.996   2.284
98456W        W63716  44.840  20.310  12.009
98457W        W63717  29.487   5.871  11.062
98458W        W63718  16.067  11.238  11.189
98459W        W63719  38.556  10.376   0.914
98460W        W63720  21.862   8.976   2.355
98461W        W63721   2.074   2.377   3.668
98462W        W63722  12.737  41.399  14.621
98463W        W63723   5.987  36.944  14.447
98464W        W63724   2.515   9.105  12.129
98465W        W63725  33.477  34.449  10.192
98466W        W63726  18.658  31.341  11.799
98467W        W63727  17.768  31.386  11.930
98468W        W63728   5.302  12.594  12.325
98469W        W63729  13.268  21.240  10.263
98470W        W63730  42.116  43.132  10.232
98471W        W63731  18.816  28.040  13.948
98472W        W63732  35.323  31.906   2.272
98473W        W63733  33.501  34.186   4.185
98474W        W63734   7.126   2.491   0.452
98475W        W63735  31.566   2.463  11.660
98476W        W63736  21.578   2.921  13.307
98477W        W63737  40.968   3.408   1.829
98478W        W63738  33.056  21.581   0.848
98479W        W63739  41.833   7.815   2.426
98480W        W63740  32.713  19.051  11.624
98481W        W63741  18.001  13.751   2.744
98482W        W63742   5.386  19.798  13.775
98483W        W63743  25.359   6.042   2.789
98484W        W63744  15.814   9.667   2.434
98485W        W63745  24.620  43.726  13.985
98486W        W63746  22.068  25.779   1.282
98487W        W63747   9.416   1.459   4.497
98488W        W63748  37.931   3.719   2.418
98489W        W63749  16.548  26.814  13.404
98490W        W63750  12.248  41.333  12.111
98491W        W63751  24.491  33.483   4.004
98492W        W63752   8.074  36.837   3.401
98493W        W63753  29.461  28.626   0.677
98494W        W63754  34.470  43.270  11.900
98495W        W63755   9.830  34.591   4.610
98496W        W63756  10.557  28.872   5.116
98497W        W63757  24.635  37.865   0.430
98498W        W63758   4.201  39.397  13.417
98499W        W63759  23.700  43.330   4.956
98500W        W63760  11.414  11.317   2.335
98501W        W63761   1.469   3.953   3.083
98502W        W63762  11.939   8.857   2.626
98503W        W63763  39.367  25.556   0.301
98504W        W63764  33.043  32.091   2.898
98505W        W63765  44.448  35.565   1.697
98506W        W63766   3.893   5.598   4.220
98507W        W63767  29.659   6.324   4.320
98508W        W63768  42.354   1.149  13.948
98509W        W63769  23.744  20.188  13.301
98510W        W63770  19.874  24.641  13.423
98511W        W63771   6.770  14.343  10.703
98512W        W63772   6.872  25.018   0.456
98513W        W63773   0.232  13.139   0.404
98514W        W63774  34.843   1.258   0.481
98515W        W63775  43.487  21.754  12.848
98516W        W63776  31.252  22.019  10.674
98517W        W63777  31.468  21.114  10.742
98518W        W63778  16.811   9.250  10.489
98519W        W63779   8.622   5.641   3.688
98520W        W63780   3.685  34.561   2.741
98521W        W63781  15.765  24.553   0.360
98522W        W63782  28.239  44.426  13.030
98523W        W63783  20.615  16.336  12.941
98524W        W63784  41.442  31.166  12.556
98525W        W63785  14.121  37.660  11.430
98526W        W63786  14.277  26.607  13.866
98527W        W63787  18.156  24.626  14.400
98528W        W63788   8.200  33.949   0.507
98529W        W63789   7.284  44.133  11.499
98530W        W63790  38.612  37.284  10.665
98531W        W63791   0.448  42.562  12.630
98532W        W63792  39.046  22.291   3.169
98533W        W63793  17.351  13.551   3.351
98534W        W63794  16.653  15.049   1.180
98535W        W63795  37.897  21.865  13.335
98536W        W63796  28.634  24.014  12.526
98537W        W63797  44.248  44.116  10.769
98538W        W63798  25.252  20.724  11.679
98539W        W63799   6.794  34.431   4.577
98540W        W63800  20.529   4.990   5.020
98541W        W63801   5.655  14.926  10.644
98542W        W63802   7.780  39.098   2.752
98543W        W63803  38.028  37.319   9.781
98544W        W63804  11.673  43.458  12.939
98545W        W63805   5.950  37.063  11.169
98546W        W63806  30.067  28.532  11.608
98547W        W63807   5.423  28.760   0.412
98548W        W63808  41.441  24.232   2.853
98549W        W63809  37.130  32.889  14.406
98550W        W63810  12.351   4.633   4.982
98551W        W63811   6.587  25.349   2.205
98552W        W63812  39.500  22.509   2.230
98553W        W63813  28.060   5.220  14.730
98554W        W63814  21.690  13.449  14.623
98555W        W63815  11.130  11.939  12.995
98556W        W63816  35.186   4.301   3.685
98557W        W63817  15.349  38.550   3.355
98558W        W63818  13.083  17.578  10.464
98559W        W63819  32.485   0.877   1.787
98560W        W63820  43.240  19.840  13.066
98561W        W63821  27.230  34.817   0.885
98562W        W63822   6.313  26.510  12.398
98563W        W63823  31.717   8.176   4.208
98564W        W63824  38.422  13.903  13.963
98565W        W63825  29.748   6.039   2.429
98566W        W63826  37.793  24.239   1.809
98567W        W63827  10.443  30.411  11.432
98568W        W63828  37.459  40.502  11.712
98569W        W63829   4.421  43.965  11.719
98570W        W63830  27.630  35.103  11.199
98571W        W63831   6.867  20.629   3.823
98572W        W63832  22.522  21.735  13.250
98573W        W63833   0.771  37.545  10.104
98574W        W63834  38.993  11.273   2.877
98575W        W63835  22.678  44.432  14.432
98576W        W63836  12.891  38.010  14.422
98577W        W63837  28.463  34.309  11.035
98578W        W63838   9.181  25.438   1.326
98579W        W63839  40.893   0.070  12.930
98580W        W63840  31.615   4.689  14.979
98581W        W63841  38.484  36.622  11.510
98582W        W63842  40.631  22.026  12.033
98583W        W63843  23.284  40.107   4.180
98584W        W63844  30.174  36.936  12.040
98585W        W63845  28.900  20.477  11.392
98586W        W63846  39.940   4.645  12.976
98587W        W63847  18.869   5.912  14.931
98588W        W63848  25.491  25.138  14.609
98589W        W63849   1.619  24.154  13.944
98590W        W63850  28.150   6.724   3.224
98591W        W63851  18.119  23.309  14.874
98592W        W63852  32.614  30.561   4.359
98593W        W63853   3.102  26.705   2.169
98594W        W63854   1.894  10.232   1.919
98595W        W63855  20.418   7.486   2.039
98596W        W63856   8.651  12.579  10.351
98597W        W63857  18.149  42.888   0.428
98598W        W63858  37.345  29.672  14.077
98599W        W63859  12.619  36.655  12.476
98600W        W63860   9.831  25.211   2.657
98601W        W63861  11.710  31.418   2.700
98602W        W63862   9.131  14.671   0.422
98603W        W63863  15.186  44.109   3.921
98604W        W63864  13.774   4.349   0.233
98605W        W63865  28.048  25.485   1.712
98606W        W63866  22.041   0.035  12.093
98607W        W63867  35.407  35.443  14.933
98608W        W63868  34.907  38.277  14.125
98609W        W63869   8.855   6.639  14.423
98610W        W63870  34.887  41.416  10.275
98611W        W63871   0.977  29.616   2.860
98612W        W63872  28.227  20.637  14.336
98613W        W63873  20.746  28.939   0.575
98614W        W63874  13.428  39.458  11.525
98615W        W63875   8.723   4.911  11.545
98616W        W63876  25.025   3.520  12.454
98617W        W63877  26.385  44.426  11.005
98618W        W63878   8.128  34.138   3.284
98619W        W63879   2.280  38.990  14.773
98620W        W63880  44.623  34.823  11.443
98621W        W63881  35.825   1.338   3.194
98622W        W63882   2.317  25.196  12.907
98623W        W63883  33.190   6.253   3.417
98624W        W63884  20.338  10.315  13.446
98625W        W63885  20.525  28.997   2.768
98626W        W63886  28.240   7.358   1.136
98627W        W63887  37.870   8.766   0.641
98628W        W63888  36.137  30.140   2.758
98629W        W63889  11.714  43.083   1.288
98630W        W63890  17.336   7.695   1.290
98631W        W63891  43.386  32.800  14.424
98632W        W63892   6.190  32.367  11.563
98633W        W63893  34.896  15.786   0.887
98634W        W63894   8.117  30.725  14.179
98635W        W63895  15.088  14.578   0.258
98636W        W63896  25.709  41.218  12.052
98637W        W63897   6.938  17.071   1.317
98638W        W63898  41.772  38.171  12.978
98639W        W63899  14.643   2.818  10.323
98640W        W63900  29.842   3.703  12.617
98641W        W63901  39.106  28.120   0.945
98642W        W63902  26.213   7.775  10.897
98643W        W63903   0.980   8.342   2.446
98644W        W63904   4.840  14.816  12.042
98645W        W63905  13.045  34.190   0.747
98646W        W63906  41.982   4.857  10.634
98647W        W63907  33.670   9.334  13.678
98648W        W63908  26.492  39.714  12.180
98649W        W63909  40.006  10.213   2.288
98650W        W63910  20.155  20.117   0.853
98651W        W63911  44.323  20.249  12.011
98652W        W63912  26.944  26.185  12.530
98653W        W63913  21.071  15.287   0.892
98654W        W63914  38.824  35.141  13.552
98655W        W63915  27.523  35.652  11.044
98656W        W63916  43.850  41.884  11.141
98657W        W63917   4.684  23.102  12.367
98658W        W63918   3.433  11.691   1.664
98659W        W63919  16.876  12.155   3.719
98660W        W63920  36.896   8.825   3.823
98661W        W63921   4.988  31.503   1.034
98662W        W63922  23.189  33.984  12.848
98663W        W63923  33.582  32.938  13.954
98664W        W63924  28.291  25.424   2.616
98665W        W63925  15.819  10.425  10.689
98666W        W63926   8.749  37.308   2.296
98667W        W63927  19.186  33.295   2.853
98668W        W63928  31.446  10.210   0.025
98669W        W63929   1.504  34.355   2.869
98670W        W63930  18.800  18.367   3.202
98671W        W63931  26.057   4.801  13.815
98672W        W63932  28.118  43.507   4.611
98673W        W63933  11.250  34.970  11.603
98674W        W63934  20.049  16.828   4.502
98675W        W63935   6.897   5.447   2.865
98676W        W63936  21.544  22.055  11.484
98677W        W63937  17.803  26.450  10.389
98678W        W63938  44.451  19.405  11.657
98679W        W63939  17.467  36.327   4.273
98680W        W63940  39.598  40.340  11.137
98681W        W63941   8.363  23.436  10.240
98682W        W63942  40.290  44.092  12.556
98683W        W63943  25.098  39.476  11.412
98684W        W63944   6.311  21.963  12.625
98685W        W63945  28.161  22.561   0.367
98686W        W63946   1.550  35.631   3.923
98687W        W63947  17.566  44.494   1.354
98688W        W63948   9.854   6.274   0.816
98689W        W63949  31.937  16.583   4.562
98690W        W63950  36.336   5.275  14.460
98691W        W63951  39.111  40.809  10.572
98692W        W63952  31.580  39.396  12.383
98693W        W63953  15.751   9.777  13.970
98694W        W63954  12.832   8.348   1.617
98695W        W63955  26.518  40.547   3.985
98696W        W63956  38.000  24.069  11.166
98697W        W63957   9.733  19.014   4.891
98698W        W63958  13.249  40.330   0.651
98699W        W63959   7.936  43.049  10.898
98700W        W63960  24.355  32.688   3.613
98701W        W63961  24.183  21.753   4.179
98702W        W63962   7.743  34.230  11.806
98703W        W63963   6.716  43.252   3.252
98704W        W63964  10.877  39.411   4.136
98705W        W63965  24.042  29.858   3.597
98706W        W63966  25.103  40.510  13.034
98707W        W63967  44.521   9.195   2.129
98708W        W63968  20.185  36.061  14.921
98709W        W63969  24.107  27.747  14.762
98710W        W63970  22.075  31.102  11.637
98711W        W63971  39.234  43.271  10.651
98712W        W63972  29.948  29.073   0.378
98713W        W63973   5.849  28.068   3.176
98714W        W63974  10.365  12.158  14.308
98715W        W63975  29.493  37.284   1.829
98716W        W63976   7.702  17.812   3.387
98717W        W63977  10.684  21.957  11.166
98718W        W63978  10.847  41.613   5.130
98719W        W63979  11.357  14.391   4.478
98720W        W63980  44.913   5.720   3.624
98721W        W63981  14.714  27.410  12.021
98722W        W63982  35.926  29.707  12.043
98723W        W63983  11.098  36.651  10.755
98724W        W63984  19.784  43.564   3.771
98725W        W63985  35.327   7.596  13.985
98726W        W63986  31.647  23.278   3.160
98727W        W63987  36.027  38.961   3.099
98728W        W63988  30.467  39.033  14.876
98729W        W63989  21.280  38.384   2.654
98730W        W63990   0.409  37.442  13.336
98731W        W63991   1.292   1.036   4.468
98732W        W63992   1.786  10.345  10.574
98733W        W63993  14.569   7.105   0.438
98734W        W63994   9.870   4.048   3.403
98735W        W63995  41.442  24.245   0.957
98736W        W63996  11.021  16.654  12.439
98737W        W63997  33.335  33.053  10.589
98738W        W63998  27.433  36.843   2.810
98739W        W63999  26.370  31.603   0.764
98740W        W64000  25.715   5.717  11.113
98741W        W64001  10.944  21.149   4.002
98742W        W64002  35.608   8.766   2.223
98743W        W64003  10.714  30.475  13.942
98744W        W64004  20.498  32.619  11.016
98745W        W64005  18.355  22.833  12.534
98746W        W64006  27.029  26.698   3.691
98747W        W64007  34.337  35.266   1.470
98748W        W64008  11.663   1.049  10.396
98749W        W64009  32.620  44.945   2.827
98750W        W64010  16.567  15.718  12.341
98751W        W64011  24.619   3.004   1.272
98752W        W64012   9.994  17.423  13.089
98753W        W64013  35.783  16.179  10.668
98754W        W64014   8.804  35.918   4.890
98755W        W64015  29.202  26.048   0.957
98756W        W64016   5.216  20.987   4.181
98757W        W64017  16.346  16.755   4.728
98758W        W64018  37.522   6.797   3.786
98759W        W64019  21.309   8.104  14.882
98760W        W64020  19.813   3.106  10.627
98761W        W64021  10.647  30.973  13.897
98762W        W64022  11.142  44.739   2.832
98763W        W64023  17.278  34.582   3.804
98764W        W64024  22.614  23.733   4.064
98765W        W64025  35.642  17.621  13.519
98766W        W64026  19.446  34.323   1.459
98767W        W64027   0.702  30.232   3.961
98768W        W64028  24.477  11.983   3.769
98769W        W64029  27.259  28.423  10.514
98770W        W64030  32.824  20.016  12.049
98771W        W64031   4.732   0.890   2.302
98772W        W64032  18.738  37.041   1.557
98773W        W64033   8.195  43.889   4.208
98774W        W64034  22.182  25.298   4.416
98775W        W64035  15.405  23.098  13.438
98776W        W64036  11.322   0.786   1.707
98777W        W64037  44.324  22.535  10.126
98778W        W64038  10.749   0.173  14.232
98779W        W64039  10.632  17.845  11.090
98780W        W64040  22.586  27.185  12.457
98781W        W64041  44.179  25.443   2.229
98782W        W64042  38.814  12.753   4.504
98783W        W64043  42.269   0.042  11.386
98784W        W64044  28.257  19.888  13.863
98785W        W64045  27.173  31.343  10.596
98786W        W64046  27.135   1.811   0.213
98787W        W64047  39.477   9.924   4.505
98788W        W64048  21.035   6.368  11.029
98789W        W64049  24.740  18.185   1.257
98790W        W64050   2.016  36.236   2.315
98791W        W64051  16.636   6.262  10.662
98792W        W64052  11.406  12.177  14.293
98793W        W64053  34.505  27.964  11.943
98794W        W64054  44.624  22.990   5.092
98795W        W64055  38.508  39.009  13.611
98796W        W64056   0.833  25.112  13.116
98797W        W64057  37.340  18.863  11.057
98798W        W64058  26.675  28.412   2.871
98799W        W64059  21.016  37.785  11.060
98800W        W64060  20.659  27.910   4.988
98801W        W64061  23.696  40.436   0.904
98802W        W64062  12.699  23.367   1.953
98803W        W64063  28.057  12.508   2.825
98804W        W64064  16.741   6.672   4.986
98805W        W64065  24.687  14.743  11.649
98806W        W64066  37.916  16.631   4.554
98807W        W64067  27.800  40.641   1.390
98808W        W64068  13.765  11.207  14.034
98809W        W64069  27.572   8.277   2.303
98810W        W64070   6.458  24.115   0.389
98811W        W64071  16.834   0.193  14.426
98812W        W64072  11.696  18.113   4.523
98813W        W64073  10.910  40.136  13.470
98814W        W64074  26.256   5.401   0.999
98815W        W64075  26.297   9.879   4.067
98816W        W64076  22.128  30.960   1.209
98817W        W64077  38.632  16.421   1.159
98818W        W64078  10.898  30.905   9.994
98819W        W64079  30.347  19.770   3.329
98820W        W64080   1.204   7.248   3.207
98821W        W64081   7.328   6.865   4.255
98822W        W64082  35.679   4.147   3.690
98823W        W64083  37.473  18.062  10.614
98824W        W64084  31.518  19.212   3.292
98825W        W64085  14.612  27.625   0.790
98826W        W64086   1.714  15.682  14.361
98827W        W64087  43.564  35.505   0.391
98828W        W64088  16.592  12.724   1.722
98829W        W64089  17.044  20.309  14.863
98830W        W64090   4.382   7.700  13.440
98831W        W64091  12.101  30.566   3.633
98832W        W64092  16.811  22.692   1.381
98833W        W64093  10.964  36.789   3.163
98834W        W64094  16.766  36.023  12.825
98835W        W64095  37.310  21.730   3.848
98836W        W64096  28.703  24.143   4.281
98837W        W64097  29.836   3.430  14.880
98838W        W64098  32.595  35.982  13.132
98839W        W64099  24.088   6.467   3.239
98840W        W64100   6.681  44.304  10.717
98841W        W64101  41.263  39.528   3.172
98842W        W64102  19.488  36.555  12.022
98843W        W64103  35.402  42.498   0.478
98844W        W64104  42.463  20.421   3.086
98845W        W64105   9.795  44.592   1.246
98846W        W64106  10.906  11.034  12.672
98847W        W64107  17.833  16.967  14.304
98848W        W64108  31.450  40.171   4.407
98849W        W64109  13.257  19.734  10.492
98850W        W64110   9.649   8.160   4.638
98851W        W64111  19.065  28.934  14.783
98852W        W64112   6.586   5.063  13.756
98853W        W64113   6.246  19.545  12.966
98854W        W64114  14.578  20.783   0.962
98855W        W64115   0.484  43.536  10.711
98856W        W64116  11.149  16.205  12.173
98857W        W64117  36.904   8.267  13.975
98858W        W64118  36.065  11.593   1.267
98859W        W64119   6.383  39.443  13.374
98860W        W64120  23.494  14.815   2.110
98861W        W64121  19.557  26.517  13.982
98862W        W64122  32.115  44.948  10.667
98863W        W64123   8.332   7.660  11.201
98864W        W64124   6.153  35.740  11.090
98865W        W64125  34.817  35.779  11.328
98866W        W64126   9.342  36.850  12.583
98867W        W64127  27.105  24.012  14.342
98868W        W64128  34.056  24.095  13.503
98869W        W64129  42.413  10.063  11.980
98870W        W64130  25.072  11.560   3.660
98871W        W64131   0.762  20.543   3.984
98872W        W64132  44.011  32.797  12.953
98873W        W64133   5.444   2.572  13.873
98874W        W64134  42.300   1.478  13.576
98875W        W64135   0.027  25.234  13.377
98876W        W64136  41.555  32.111  14.862
98877W        W64137  10.896   0.415   2.518
98878W        W64138  32.431  26.274  12.546
98879W        W64139  30.661  37.339   2.855
98880W        W64140   5.916  40.132   3.110
98881W        W64141  37.257  28.229  11.925
98882W        W64142  43.023   1.245  12.332
98883W        W64143  23.594  27.874   2.722
98884W        W64144  17.691  38.610   4.224
98885W        W64145  28.522  23.468   4.494
98886W        W64146  16.906  16.982   3.246
98887W        W64147  30.451  24.105   4.124
98888W        W64148  23.391   1.051   3.220
98889W        W64149  24.519   9.940   0.891
98890W        W64150  42.525  27.636   2.352
98891W        W64151  42.125  33.950   4.386
98892W        W64152  18.881  27.159   4.823
98893W        W64153  30.293  32.111   4.247
98894W        W64154   5.762  17.484   1.867
98895W        W64155  32.906   8.292   0.974
98896W        W64156  12.911  28.423   3.646
98897W        W64157  42.640   4.992  13.479
98898W        W64158  22.632  14.129  13.138
98899W        W64159  21.110  11.656   2.720
98900W        W64160  44.299  40.370  14.797
98901W        W64161   6.893  36.930   1.835
98902W        W64162  37.618  25.693  10.988
98903W        W64163  20.721   6.711   4.346
98904W        W64164  40.814  24.188  10.669
98905W        W64165  38.632   0.029  12.978
98906W        W64166  23.422  34.188  10.182
98907W        W64167   2.074  26.469   0.682
98908W        W64168   3.140  38.846  12.904
98909W        W64169  28.002  36.314  14.085
98910W        W64170  25.674   0.710   1.727
98911W        W64171  41.286  34.927   2.259
98912W        W64172   3.805  43.890  12.916
98913W        W64173  24.683  24.131  14.724
98914W        W64174   1.083  32.278  13.976
98915W        W64175  35.697  43.437  11.059
98916W        W64176  39.845  22.006   0.971
98917W        W64177  40.430  43.807  13.856
98918W        W64178   8.271   2.183  12.382
98919W        W64179  10.116  19.597   0.325
98920W        W64180  41.855  29.441  12.092
98921W        W64181  22.486  31.366   3.813
98922W        W64182  29.230  18.309   3.695
98923W        W64183   3.628  24.973  14.791
98924W        W64184  27.557   9.352  11.138
98925W        W64185  27.115  43.097  11.099
98926W        W64186  36.847  15.679   0.813
98927W        W64187  15.738  29.156  14.002
98928W        W64188   2.563  36.857   0.790
98929W        W64189  40.513  32.139  11.546
98930W        W64190  19.366   8.847  11.179
98931W        W64191  40.585  32.457   2.679
98932W        W64192   6.127  13.567  12.584
98933W        W64193  30.390   1.759   2.997
98934W        W64194  23.681  38.716   3.590
98935W        W64195  35.570  19.247  14.766
98936W        W64196  33.126  28.546  14.806
98937W        W64197   3.230  32.427   1.832
98938W        W64198  41.921  40.797  12.356
98939W        W64199  16.030  16.530  14.033
98940W        W64200   2.888  21.001  14.799
98941W        W64201  34.595   6.764   2.321
98942W        W64202  30.567  11.614   4.205
98943W        W64203  17.106  12.921  13.528
98944W        W64204  26.075  32.020   1.578
98945W        W64205  32.328  15.687   0.805
98946W        W64206  36.104  20.068   2.719
98947W        W64207  28.662  28.913  14.034
98948W        W64208  43.121  26.607   3.147
98949W        W64209   3.815   2.584   3.404
98950W        W64210  44.388  39.517   1.265
98951W        W64211  35.795  35.635   0.214
98952W        W64212  28.894   7.584   3.606
98953W        W64213  23.097  13.199   2.680
98954W        W64214   9.905  20.172  11.632
98955W        W64215  11.747  11.805  12.200
98956W        W64216   4.894  35.382  14.487
98957W        W64217   8.336  10.700  11.477
98958W        W64218  15.086   6.294   5.001
98959W        W64219  18.513  20.370  11.989
98960W        W64220  27.524  15.272   4.342
98961W        W64221  14.097  23.001   3.404
98962W        W64222  44.420   3.100   0.841
98963W        W64223   6.405  12.133  10.501
98964W        W64224   4.892  28.325  14.201
98965W        W64225  26.488   2.341  12.435
98966W        W64226  31.594  20.251   0.460
98967W        W64227  27.518  29.526  11.459
98968W        W64228  40.090  31.457  13.036
98969W        W64229   7.052  26.608   5.601
98970W        W64230   9.888  29.601  12.529
98971W        W64231  23.078   0.259   0.271
98972W        W64232  34.025  19.662   4.589
98973W        W64233  40.490  17.108  14.467
98974W        W64234  15.287  34.076  11.286
98975W        W64235  35.624   6.144   1.519
98976W        W64236  21.491  13.862  14.388
98977W        W64237  25.031  14.263   3.362
98978W        W64238  30.115  40.408   2.206
98979W        W64239  33.766  25.058  13.947
98980W        W64240  12.697  28.250   4.117
98981W        W64241  26.516  26.641  14.798
98982W        W64242  44.923  26.600   2.768
98983W        W64243  16.859  42.471   1.922
98984W        W64244  36.410  29.067  12.897
98985W        W64245   4.494  22.660   3.403
98986W        W64246   6.794  41.433   1.495
98987W        W64247  31.215   1.461  14.832
98988W        W64248   0.793   4.682   3.605
98989W        W64249  42.982   9.807   4.155
98990W        W64250  29.624  40.437  12.258
98991W        W64251  41.667  24.076  11.052
98992W        W64252  34.534  42.100   0.550
98993W        W64253  20.218   3.227  13.445
98994W        W64254  34.516   4.808   0.183
98995W        W64255  28.005  43.861   1.896
98996W        W64256   0.393   1.675   4.133
98997W        W64257  15.996  22.278   1.702
98998W        W64258   1.775  30.026   2.725
98999W        W64259  15.120  36.124  13.963
99000W        W64260  38.393  14.705   0.022
99001W        W64261  17.238  31.067  14.435
99002W        W64262  27.442  38.351  12.512
99003W        W64263  31.829   7.243   1.229
99004W        W64264  28.230  17.760   5.750
99005W        W64265  13.771  20.196   4.335
99006W        W64266  38.552  34.461  11.660
99007W        W64267  16.682  12.130  12.493
99008W        W64268  35.033  26.382   5.472
99009W        W64269  44.915   3.886   2.764
99010W        W64270  27.538  39.011  12.977
99011W        W64271  29.915  37.150  12.446
99012W        W64272  32.155   9.942   3.624
99013W        W64273  29.681  20.980  14.134
99014W        W64274  36.116   2.099  14.808
99015W        W64275  36.770  21.562  14.948
99016W        W64276  38.879   4.284  14.024
99017W        W64277  25.737  39.366  10.637
99018W        W64278  28.763   4.204  10.592
99019W        W64279  42.906   5.945   0.023
99020W        W64280  16.109  36.904  11.945
99021W        W64281  19.311   4.720   0.867
99022W        W64282  32.730   6.380   1.454
99023W        W64283  37.357   0.890   0.387
99024W        W64284  22.674   1.364  12.025
99025W        W64285   8.488  25.602   3.640
99026W        W64286  19.783  29.535   2.793
99027W        W64287  23.591   8.179   0.907
99028W        W64288  16.604   5.706  12.489
99029W        W64289  29.577   2.988   0.660
99030W        W64290  31.648  33.680   3.281
99031W        W64291  20.307   0.605   1.758
99032W        W64292   5.609   3.520   0.250
99033W        W64293  15.875  19.286   4.633
99034W        W64294  19.319  38.864   4.023
99035W        W64295  23.760  29.438  13.863
99036W        W64296  22.976  26.379  10.072
99037W        W64297  35.424  33.636   2.779
99038W        W64298  14.269  10.951   4.054
99039W        W64299  29.176  20.221   1.066
99040W        W64300  21.275  16.997   2.772
99041W        W64301  32.368  43.877   2.943
99042W        W64302  32.203   2.198  12.004
99043W        W64303  12.740   3.027  13.003
99044W        W64304  17.878  32.693  11.321
99045W        W64305  43.902  26.855   3.514
99046W        W64306   9.686  28.103  12.115
99047W        W64307  26.364  16.802   3.726
99048W        W64308  29.888  23.300  11.473
99049W        W64309   4.894  26.505   0.259
99050W        W64310  40.505  41.530   2.271
99051W        W64311  25.485   8.674   0.003
99052W        W64312   0.866   8.148  14.488
99053W        W64313  18.718  17.331  14.971
99054W        W64314  30.480  27.426  13.340
99055W        W64315  31.940  44.877  11.141
99056W        W64316  12.591  23.869   2.148
99057W        W64317  41.985  17.304  14.226
99058W        W64318  22.897  30.635   2.224
99059W        W64319  37.964  34.415   3.424
99060W        W64320  44.731   8.469  14.918
99061W        W64321  35.395   4.177  11.913
99062W        W64322  10.698  20.993   0.275
99063W        W64323  18.187   1.429  14.029
99064W        W64324  38.062  40.911  13.994
99065W        W64325  24.461  19.317   1.892
99066W        W64326  40.739   9.378  12.615
99067W        W64327  16.113  12.562   1.479
99068W        W64328  33.002  14.230  13.564
99069W        W64329  44.564  33.660   2.826
99070W        W64330  14.295  23.620  10.764
99071W        W64331  25.207  27.988   0.456
99072W        W64332  36.322  39.016  10.816
99073W        W64333  16.250  43.005   0.491
99074W        W64334  31.688  13.713  10.682
99075W        W64335  10.892  33.121   4.633
99076W        W64336  29.017   2.998   2.283
99077W        W64337   2.710  20.253   1.458
99078W        W64338  40.361   6.212  13.362
99079W        W64339  20.136  17.031  12.469
99080W        W64340  14.294   6.625  14.418
99081W        W64341  36.072   4.011   0.760
99082W        W64342  41.256  15.194  14.847
99083W        W64343  24.797  21.202  12.466
99084W        W64344  20.792  10.229  10.834
99085W        W64345  36.694  28.065   3.804
99086W        W64346   1.239   0.866   1.308
99087W        W64347  37.958  42.975  10.760
99088W        W64348  24.308  37.277   1.945
99089W        W64349   3.298  26.665  12.456
99090W        W64350   8.352   2.643  12.571
99091W        W64351  30.624  43.406   4.918
99092W        W64352  20.839  34.950  14.283
99093W        W64353  25.542  27.258   4.747
99094W        W64354   9.540  12.289  12.479
99095W        W64355  36.460  30.182  11.348
99096W        W64356  24.872  15.769   1.517
99097W        W64357   4.940  15.662   1.552
99098W        W64358  32.135  21.997  10.735
99099W        W64359  21.256   0.300  10.543
99100W        W64360  42.091  44.505   3.646
99101W        W64361   1.430  43.041   2.292
99102W        W64362  37.562  10.289  12.119
99103W        W64363  37.923  22.744  12.428
99104W        W64364  32.978  34.241   3.514
99105W        W64365  11.095  33.011   3.292
99106W        W64366  24.640  22.535   2.358
99107W        W64367   5.976  31.014  12.336
99108W        W64368  34.537  27.357   0.315
99109W        W64369  28.228  25.281   4.914
99110W        W64370  36.040  35.118  14.453
99111W        W64371  11.031  37.333  12.069
99112W        W64372  11.840  19.149   2.881
99113W        W64373   6.310  28.958   1.893
99114W        W64374  24.540  44.506  11.139
99115W        W64375  40.910  34.627  14.081
99116W        W64376  18.707  14.593  12.683
99117W        W64377  34.785  41.281  11.183
99118W        W64378  27.319  35.408   9.950
99119W        W64379  34.143  14.425  14.773
99120W        W64380   5.439  12.120   3.875
99121W        W64381   5.458  34.101   1.225
99122W        W64382  22.173  18.304   3.748
99123W        W64383  38.655  44.400   2.321
99124W        W64384  33.432  32.388  14.240
99125W        W64385  34.413  10.844   2.376
99126W        W64386  41.845  26.740   1.227
99127W        W64387  14.545  33.100  10.637
99128W        W64388  21.742   1.664  11.432
99129W        W64389  37.502   2.751  13.485
99130W        W64390  38.131  33.372  13.001
99131W        W64391  34.674  33.457  12.375
99132W        W64392   1.699  18.292  12.057
99133W        W64393  16.765  42.406   0.708
99134W        W64394  38.022  18.079   4.329
99135W        W64395  29.791  43.717  13.433
99136W        W64396  41.841  41.707   2.926
99137W        W64397  38.397   7.724   2.914
99138W        W64398   3.368  44.193   4.142
99139W        W64399   5.936  42.345   0.226
99140W        W64400  16.651  25.369  14.523
99141W        W64401  32.852  37.105   2.100
99142W        W64402  22.730   2.786  13.371
99143W        W64403  36.931   2.867  10.211
99144W        W64404  38.744  12.132   1.467
99145W        W64405  42.258   4.927   0.911
99146W        W64406  43.040  11.855  12.946
99147W        W64407  28.779  33.844  11.927
99148W        W64408  32.433  12.117   2.938
99149W        W64409  34.673  16.352   3.294
99150W        W64410  19.669  14.818  14.249
99151W        W64411   8.636  37.422   3.217
99152W        W64412  43.542  44.000  11.596
99153W        W64413  12.243  20.272   3.216
99154W        W64414  12.721  14.580   2.902
99155W        W64415  44.901  18.163   3.269
99156W        W64416   4.919  32.888  12.855
99157W        W64417  36.121  20.183   4.148
99158W        W64418  42.960  16.550  12.785
99159W        W64419   1.468  20.927   3.065
99160W        W64420  34.886  12.959   0.280
99161W        W64421  37.785  15.119  11.553
99162W        W64422  24.192  36.397  10.790
99163W        W64423  11.342  13.870  10.646
99164W        W64424  43.982  15.183  11.131
99165W        W64425  16.254  38.931  11.652
99166W        W64426  32.884  25.103  14.518
99167W        W64427  21.170   2.361  13.889
99168W        W64428  29.920  20.057   2.603
99169W        W64429  14.560  23.771   3.312
99170W        W64430  40.771  15.073   1.387
99171W        W64431  15.649   0.814   4.122
99172W        W64432  29.423   2.011   1.978
99173W        W64433  30.481  32.384   0.447
99174W        W64434  16.415  27.319  13.436
99175W        W64435  39.255  41.131   0.355
99176W        W64436  27.640  35.244  10.708
99177W        W64437  19.113  33.001   3.598
99178W        W64438  22.717   6.838   3.132
99179W        W64439   6.890  43.204   1.779
99180W        W64440  30.818   3.403  14.895
99181W        W64441  29.720  32.412  12.078
99182W        W64442  25.018  12.683  12.183
99183W        W64443  18.530  33.061   4.703
99184W        W64444   2.896  36.127  10.408
99185W        W64445  43.011  17.190  10.346
99186W        W64446  43.916   9.728  10.837
99187W        W64447   4.723  24.056   2.051
99188W        W64448  14.533  21.469   2.887
99189W        W64449   9.054  20.620  13.482
99190W        W64450  26.081  31.679   2.966
99191W        W64451  27.529  27.424  14.496
99192W        W64452  29.139  31.249  12.875
99193W        W64453  39.834  30.018  11.681
99194W        W64454  31.936  33.778  11.840
99195W        W64455  30.461  19.447  13.961
99196W        W64456  35.661   8.324  10.975
99197W        W64457  28.714   8.665  14.036
99198W        W64458  17.218  16.598  13.373
99199W        W64459  23.011  20.003   4.456
99200W        W64460  38.745  44.783  14.777
99201W        W64461  18.281  28.111  12.495
99202W        W64462  21.352  17.755  13.020
99203W        W64463  23.344  28.173  11.612
99204W        W64464  23.568  20.586  14.749
99205W        W64465  17.232   1.122  14.567
99206W        W64466  41.582  14.562  11.548
99207W        W64467  41.192  41.787  11.976
99208W        W64468  14.718  38.751   0.120
99209W        W64469  32.498  29.240  14.005
99210W        W64470  41.878  22.493   0.909
99211W        W64471  20.165  39.516  14.298
99212W        W64472   1.359  30.262   3.159
99213W        W64473  32.930  16.654  12.117
99214W        W64474  33.658  24.273   0.866
99215W        W64475  32.026  41.237   3.693
99216W        W64476  18.912   8.890   3.053
99217W        W64477  34.499  24.164   4.775
99218W        W64478  42.712  42.857   1.186
99219W        W64479  11.907  37.363  11.637
99220W        W64480   2.526  22.680   0.942
99221W        W64481   7.211  30.129   4.830
99222W        W64482  37.594  11.098  10.237
99223W        W64483   6.323  41.819   2.325
99224W        W64484   2.957   5.986   0.985
99225W        W64485  10.126  43.892  14.874
99226W        W64486  32.896  28.916   3.769
99227W        W64487  31.501  22.519   1.774
99228W        W64488  29.479  32.141  10.470
99229W        W64489  11.009  43.944   3.188
99230W        W64490  28.633  28.440   4.950
99231W        W64491   0.926  36.819   0.292
99232W        W64492  31.878  24.073   0.907
99233W        W64493  31.078  12.139   1.237
99234W        W64494  17.800  23.155   0.709
99235W        W64495  41.794  25.127   1.401
99236W        W64496  27.682   1.919   3.706
99237W        W64497  14.585   4.183   0.058
99238W        W64498  38.104   8.144  11.157
99239W        W64499   9.097  32.489  14.393
99240W        W64500  17.483  35.367  14.153
99241W        W64501  35.500  24.576   2.377
99242W        W64502  40.257  35.768  10.244
99243W        W64503  10.561  27.713   1.823
99244W        W64504  34.289  43.714   1.668
99245W        W64505  17.780   2.740  11.618
99246W        W64506  17.283  24.791   0.948
99247W        W64507  17.696  16.687   4.070
99248W        W64508  38.922  29.316  14.772
99249W        W64509  22.496  11.504   0.028
99250W        W64510  29.680  20.362   2.261
99251W        W64511   2.842   5.474   0.953
99252W        W64512  15.671  26.978  11.903
99253W        W64513  35.551   4.699  14.894
99254W        W64514  13.651  23.180  14.175
99255W        W64515  28.460  32.624  13.325
99256W        W64516  32.465  33.128  14.860
99257W        W64517  14.339  13.861  14.576
99258W        W64518  35.116  36.618   2.275
99259W        W64519  27.715  35.023  12.062
99260W        W64520  22.451  33.247   2.823
99261W        W64521  29.902  22.121  14.338
99262W        W64522  16.969  36.461   4.281
99263W        W64523  13.684  32.379  14.218
99264W        W64524  23.133  32.925  11.030
99265W        W64525  22.856   6.244  12.143
99266W        W64526  20.886   8.157  12.773
99267W        W64527  33.155  42.891  10.638
99268W        W64528  15.715  17.078  10.556
99269W        W64529   9.258  42.010   4.609
99270W        W64530  29.212  24.697   0.757
99271W        W64531   1.155  22.925  12.054
99272W        W64532  31.393  40.823   3.223
99273W        W64533   4.334   9.306  12.390
99274W        W64534  35.704  27.275   5.567
99275W        W64535  22.860  40.856   3.345
99276W        W64536  11.036  29.362   5.020
99277W        W64537  25.840   5.468   3.710
99278W        W64538   9.758   7.424   0.301
99279W        W64539  28.914  42.546   3.677
99280W        W64540  40.545   9.878   3.330
99281W        W64541  27.082   1.388  11.375
99282W        W64542   6.217   2.050  10.079
99283W        W64543  29.134   9.778  14.023
99284W        W64544   3.362  29.730   1.821
99285W        W64545  44.001  19.789  14.833
99286W        W64546  39.752  40.987  13.073
99287W        W64547  44.865  29.970  10.678
99288W        W64548   2.051  42.512  11.692
99289W        W64549  19.303  36.636   3.202
99290W        W64550   9.875  29.368   1.870
99291W        W64551  29.178  21.099  13.391
99292W        W64552   3.273  43.493   0.400
99293W        W64553  23.554  41.364   2.838
99294W        W64554   6.941  28.030  13.997
99295W        W64555   1.799  37.943  11.154
99296W        W64556  39.655  36.241  10.997
99297W        W64557  20.557  23.085   1.902
99298W        W64558  37.056   0.724  11.254
99299W        W64559  17.527  24.200   2.364
99300W        W64560   9.710  21.293  14.719
99301W        W64561   8.854  21.526  12.851
99302W        W64562  32.339  19.805  12.075
99303W        W64563   2.714  30.389   4.994
99304W        W64564  15.086   3.742  12.068
99305W        W64565  21.258  31.068  13.888
99306W        W64566  16.861   5.362  10.654
99307W        W64567  26.726  11.072  13.426
99308W        W64568   0.960   3.674  13.003
99309W        W64569  29.109   5.426   4.218
99310W        W64570  44.973  43.286  14.285
99311W        W64571  14.400   5.767  10.787
99312W        W64572  42.785  31.647   3.696
99313W        W64573   9.720  26.686   2.333
99314W        W64574  23.187  43.072  14.945
99315W        W64575  43.813  13.651  14.409
99316W        W64576   5.208   1.988  12.489
99317W        W64577  25.129  38.280   3.798
99318W        W64578  24.416   7.405   1.261
99319W        W64579  36.605  44.013   5.290
99320W        W64580  26.532  23.956   3.036
99321W        W64581  42.833  21.504   4.358
99322W        W64582  30.421  42.515  14.913
99323W        W64583  10.612  44.748   4.598
99324W        W64584  41.448   6.174  13.439
99325W        W64585  44.461  26.643  12.918
99326W        W64586   9.596  12.398   3.051
99327W        W64587  10.609  15.677   3.247
99328W        W64588  44.196  32.307  12.077
99329W        W64589  17.294   4.394   4.523
99330W        W64590  19.806  35.773  10.240
99331W        W64591  30.213  10.768   2.630
99332W        W64592  14.301   3.351  13.368
99333W        W64593   6.647  10.325  11.602
99334W        W64594  10.540  36.294  13.926
99335W        W64595  24.766  30.694  10.679
99336W        W64596  13.693   3.029   3.615
99337W        W64597  39.391  22.733  14.836
99338W        W64598  25.436  10.884   3.997
99339W        W64599   1.471   9.556   4.414
99340W        W64600  39.477  13.054   4.072
99341W        W64601  44.276  18.435   1.609
99342W        W64602  23.441   7.679  10.689
99343W        W64603  10.697  15.760   4.100
99344W        W64604   9.843  42.560   0.287
99345W        W64605   8.939   5.679   4.605
99346W        W64606  19.000  43.772  12.072
99347W        W64607   7.898  38.263  11.123
99348W        W64608   0.543   6.949   0.949
99349W        W64609  23.981  26.302   2.447
99350W        W64610  36.964  24.338  11.722
99351W        W64611  44.748  34.151   2.808
99352W        W64612  32.653  23.152   4.997
99353W        W64613  40.888  11.231   0.793
99354W        W64614  41.503  39.120  10.613
99355W        W64615   4.889   0.032   0.967
99356W        W64616   4.646  31.892   3.239
99357W        W64617  41.781  16.974   3.694
99358W        W64618   7.194  26.524  11.884
99359W        W64619  23.500  36.104  13.432
99360W        W64620   2.821  16.191  11.202
99361W        W64621  26.209  41.913  10.949
99362W        W64622  39.408  10.581  10.762
99363W        W64623   9.044   4.940   0.812
99364W        W64624  28.549   5.445  11.987
99365W        W64625  10.355  22.709   4.570
99366W        W64626  43.838   4.928   2.645
99367W        W64627  23.075  44.766   0.419
99368W        W64628  33.566  27.432  12.493
99369W        W64629  30.647  14.762   3.446
99370W        W64630  13.320  31.653  11.431
99371W        W64631  26.716  34.145   3.697
99372W        W64632  42.236  35.379  12.887
99373W        W64633  35.278  40.000  10.632
99374W        W64634  32.954  14.138   4.029
99375W        W64635  43.400  43.997   2.734
99376W        W64636  43.095  11.745   3.444
99377W        W64637  34.604  12.671   1.455
99378W        W64638  27.500  30.121   1.424
99379W        W64639  28.552  22.474   3.240
99380W        W64640  36.064  43.232  12.043
99381W        W64641  19.313  39.542   2.420
99382W        W64642  13.174  38.433  13.844
99383W        W64643  12.148  43.580   0.525
99384W        W64644   5.672  10.678   0.949
99385W        W64645  20.235  15.311   3.641
99386W        W64646  41.005  17.197  10.874
99387W        W64647  42.098  25.691  13.279
99388W        W64648  39.084  34.278  14.336
99389W        W64649  30.911  15.002  11.578
99390W        W64650  34.552  36.596  12.245
99391W        W64651   7.744   1.705  11.028
99392W        W64652   8.633  34.270  12.017
99393W        W64653  28.694  36.665  13.442
99394W        W64654  26.763  38.316  12.937
99395W        W64655  26.669  31.437  11.531
99396W        W64656  40.984  34.477   2.870
99397W        W64657   9.189   5.750   0.553
99398W        W64658  16.788  13.170   2.644
99399W        W64659  36.932  16.061  11.198
99400W        W64660   0.750  43.682   3.640
99401W        W64661  25.559  22.298  11.373
99402W        W64662   7.405  25.725  12.394
99403W        W64663  34.473  41.256   1.871
99404W        W64664  34.437  24.829  10.592
99405W        W64665  21.733  12.580  14.715
99406W        W64666  25.104  12.898   1.788
99407W        W64667  43.586  28.890   0.953
99408W        W64668  25.512  12.680   5.362
99409W        W64669  20.159  16.333   3.790
99410W        W64670  27.940  31.068  14.570
99411W        W64671  14.712   7.658  13.188
99412W        W64672   3.447  40.319  11.491
99413W        W64673  30.526  34.132   4.625
99414W        W64674  29.637   5.618  13.384
99415W        W64675   2.480  33.622   0.560
99416W        W64676  11.406  37.493  11.710
99417W        W64677  26.252  35.472  12.041
99418W        W64678  37.051   6.866  10.376
99419W        W64679  10.293  30.588  13.598
99420W        W64680   3.825  42.510   3.934
99421W        W64681   2.120  38.790   1.241
99422W        W64682  41.363   3.995   2.195
99423W        W64683  13.721  42.732   0.405
99424W        W64684  16.497   5.824  14.400
99425W        W64685  18.704   5.227  10.614
99426W        W64686  17.788  30.813  11.920
99427W        W64687  36.245  34.028  11.989
99428W        W64688  26.493   6.112  11.671
99429W        W64689  40.454   4.799  13.010
99430W        W64690  18.641  12.554  10.311
99431W        W64691  27.438  23.093   4.673
99432W        W64692  37.970  19.721   0.768
99433W        W64693  29.983   5.262   3.663
99434W        W64694  24.872  38.039  11.283
99435W        W64695  29.990  37.583  10.770
99436W        W64696   6.995  37.037   0.481
99437W        W64697   1.273  31.201   1.843
99438W        W64698  27.605  14.516  12.065
99439W        W64699  17.880  19.862   3.670
99440W        W64700  21.026  21.216  14.811
99441W        W64701  19.340  26.686  12.112
99442W        W64702  32.501  18.410   4.943
99443W        W64703  43.499  37.987  10.983
99444W        W64704   4.741  17.053  10.152
99445W        W64705   5.172  19.624   4.101
99446W        W64706   8.367   5.855  14.969
99447W        W64707   4.688  44.884  14.949
99448W        W64708  14.847  18.480   0.336
99449W        W64709  30.157  10.841   1.693
99450W        W64710  23.937  39.881  10.686
99451W        W64711  12.202   6.522   2.138
99452W        W64712   4.680  25.557   2.386
99453W        W64713  38.546  42.841   1.959
99454W        W64714  24.692  22.226   1.897
99455W        W64715  17.490  34.463  14.193
99456W        W64716   3.419  40.793  13.838
99457W        W64717  40.475  29.133   3.538
99458W        W64718  36.618  17.690   4.152
99459W        W64719  11.107   7.595  12.847
99460W        W64720  43.902  11.589  12.927
99461W        W64721   7.002  31.416  11.303
99462W        W64722  42.058   2.492  13.580
99463W        W64723   7.703  13.114   0.817
99464W        W64724   7.358  26.501  14.782
99465W        W64725  13.235  38.525  13.343
99466W        W64726  28.553  39.569  14.972
99467W        W64727  41.341  24.499  13.003
99468W        W64728   0.884  16.231  11.637
99469W        W64729  38.828  31.814   2.985
99470W        W64730  29.528  27.705  14.984
99471W        W64731  37.594  39.352  11.070
99472W        W64732  31.843  15.073  11.635
99473W        W64733  44.380  14.070  13.477
99474W        W64734  42.010   0.337  14.441
99475W        W64735  10.347  36.316  14.521
99476W        W64736  14.371  17.998   3.681
99477W        W64737   1.883  12.145   4.907
99478W        W64738   9.267  32.930  11.964
99479W        W64739   9.272  31.587  13.067
99480W        W64740  42.143  25.845  14.592
99481W        W64741  18.240   6.339   3.569
99482W        W64742  10.725  29.119  12.533
99483W        W64743  31.411  10.597   5.086
99484W        W64744  25.208  26.250   4.765
99485W        W64745  41.416  14.285  14.806
99486W        W64746  28.790  21.092  12.482
99487W        W64747  22.121  16.697   3.709
99488W        W64748  14.190  33.818   0.387
99489W        W64749  35.325  25.494   3.465
99490W        W64750   9.574   7.470  10.101
99491W        W64751  12.707  35.162  13.833
99492W        W64752  39.577  15.165   3.824
99493W        W64753  19.662  41.238  13.029
99494W        W64754  33.163  12.334  14.912
99495W        W64755  28.562  33.000   1.652
99496W        W64756   2.154  40.080   4.102
99497W        W64757  43.065  40.939  14.049
99498W        W64758  31.971  31.064   0.513
99499W        W64759   7.339  29.974  12.071
99500W        W64760  43.600  15.849   1.654
99501W        W64761  34.588  22.051  14.328
99502W        W64762  13.176  39.069  14.377
99503W        W64763  41.176  21.922   0.353
99504W        W64764   2.651  39.576   4.088
99505W        W64765  26.015  36.623   0.445
99506W        W64766  14.057  18.028   1.395
99507W        W64767  27.104  13.376   1.875
99508W        W64768  25.678  28.603   4.543
99509W        W64769  44.877  36.069   0.021
99510W        W64770  26.222  41.411  10.838
99511W        W64771   5.431   7.310  12.501
99512W        W64772  33.038  29.069  12.920
99513W        W64773   1.546  20.566   1.525
99514W        W64774   4.802  13.023   4.271
99515W        W64775  19.754   0.263   4.175
99516W        W64776  40.291  26.860   4.518
99517W        W64777  42.470  34.385   0.456
99518W        W64778  19.817  39.300  12.960
99519W        W64779  11.903  40.419   4.124
99520W        W64780  38.998  13.105   1.027
99521W        W64781  20.717  34.140  14.025
99522W        W64782  42.266  10.210  11.510
99523W        W64783  34.391  41.324  12.988
99524W        W64784   0.734  14.313  13.952
99525W        W64785  36.944  27.081  12.563
99526W        W64786   5.788  37.760  12.135
99527W        W64787  32.535  29.108  12.561
99528W        W64788  12.555  39.215  13.912
99529W        W64789  15.718   5.667   3.369
99530W        W64790   2.160   8.145  14.837
99531W        W64791  41.345  21.222   3.231
99532W        W64792  44.394   2.727  11.831
99533W        W64793  40.470   5.230   3.632
99534W        W64794  40.824  14.161   1.498
99535W        W64795   4.017  31.086   3.007
99536W        W64796  40.076  26.418  12.463
99537W        W64797  31.023  36.095  13.377
99538W        W64798  42.861   2.912  14.509
99539W        W64799   8.645  14.127   1.754
99540W        W64800  33.308  27.674  12.872
99541W        W64801  29.247  40.331   1.449
99542W        W64802  44.163  30.438  14.934
99543W        W64803  28.527  29.973   2.763
99544W        W64804  42.766  32.951  12.544
99545W        W64805   3.794  37.768  14.066
99546W        W64806   2.462  14.662   1.364
99547W        W64807  41.060  22.100  14.807
99548W        W64808  42.787   5.103   1.341
99549W        W64809   9.350  27.625   3.218
99550W        W64810  16.269  31.659   4.637
99551W        W64811  21.771  37.842   2.076
99552W        W64812  20.623   9.640   1.615
99553W        W64813   0.498  34.556   4.368
99554W        W64814   5.503   4.836  13.905
99555W        W64815  29.112  35.744   4.714
99556W        W64816  20.431  41.477   4.026
99557W        W64817  28.452   9.776   1.551
99558W        W64818   3.083  19.158  14.876
99559W        W64819  34.251   4.488   2.827
99560W        W64820  23.642  23.573   0.497
99561W        W64821   4.025  27.425   0.367
99562W        W64822  33.385  15.861  10.970
99563W        W64823  15.667  17.195   1.464
99564W        W64824  34.500   8.847   0.858
99565W        W64825  44.404  12.304   2.724
99566W        W64826  22.703   4.187  13.468
99567W        W64827  21.805  39.252  13.549
99568W        W64828   1.761  28.688   2.316
99569W        W64829  30.012   1.508   3.249
99570W        W64830   3.256  29.055   5.355
99571W        W64831  34.339  41.318   2.748
99572W        W64832  27.167  29.191  11.614
99573W        W64833   2.522   2.440  12.852
99574W        W64834  23.977  28.104   3.626
99575W        W64835  14.826  41.439   0.276
99576W        W64836   4.211  33.587  11.059
99577W        W64837  33.872  34.867  12.545
99578W        W64838  44.873  42.858   4.609
99579W        W64839  39.867   1.798  12.947
99580W        W64840  43.750  32.732   2.510
99581W        W64841   7.143  10.391  11.575
99582W        W64842   6.851  14.733  11.742
99583W        W64843  43.956   4.252  10.986
99584W        W64844  29.392  43.846  11.615
99585W        W64845  14.033   3.428   3.526
99586W        W64846  40.487  16.675   2.762
99587W        W64847   7.933  33.963  13.549
99588W        W64848  12.912  42.580  12.002
99589W        W64849  21.824   8.291   3.088
99590W        W64850  18.541  17.509   0.888
99591W        W64851   8.701  24.615  13.177
99592W        W64852  32.887  22.440   4.151
99593W        W64853  37.935  22.523   1.359
99594W        W64854  44.784  32.064  13.870
99595W        W64855   0.458  29.655   4.142
99596W        W64856   2.228  13.373  14.522
99597W        W64857  28.762  17.737   2.772
99598W        W64858  43.342  43.415   3.309
99599W        W64859  14.719  19.460  11.565
99600W        W64860  28.579  44.848   0.571
99601W        W64861  14.843  19.206  10.200
99602W        W64862  17.116  40.596   2.358
99603W        W64863  10.955   0.706  12.428
99604W        W64864  15.699  32.207   0.053
99605W        W64865  29.722  28.377  12.978
99606W        W64866  22.675  31.407   1.360
99607W        W64867  39.026   2.842   4.862
99608W        W64868  13.310  23.060   1.904
99609W        W64869  29.067   9.402  10.709
99610W        W64870  22.447   1.037   0.378
99611W        W64871  33.580  38.854   4.153
99612W        W64872  32.907  12.604   3.209
99613W        W64873   4.771  37.009  12.601
99614W        W64874   1.732  25.667  12.292
99615W        W64875  27.523   1.984   2.969
99616W        W64876  41.465  32.960  13.792
99617W        W64877  27.100  31.677  11.454
99618W        W64878  16.992  38.819   4.736
99619W        W64879  10.540  35.053  10.805
99620W        W64880  36.912  38.928  11.591
99621W        W64881   2.170  29.045  11.723
99622W        W64882  16.546  29.518   4.141
99623W        W64883  37.040  21.263   3.814
99624W        W64884  31.595  10.132   3.743
99625W        W64885  23.800  41.017   4.891
99626W        W64886  15.286   3.304  13.735
99627W        W64887  14.366   9.210   0.783
99628W        W64888  31.866  41.058   1.794
99629W        W64889   0.363  25.984   2.169
99630W        W64890  40.877  10.378  13.656
99631W        W64891  38.913  23.581  12.516
99632W        W64892  13.147  24.676  13.778
99633W        W64893  19.227  26.712   9.935
99634W        W64894  31.644  13.792   4.600
99635W        W64895  44.683  29.384   3.504
99636W        W64896  42.098  32.215  10.126
99637W        W64897  10.164  44.082  13.505
99638W        W64898  16.274  32.173  10.224
99639W        W64899  24.571  26.419   3.283
99640W        W64900  23.118  11.811  13.901
99641W        W64901  37.278  34.670   1.730
99642W        W64902   0.875  42.802   1.347
99643W        W64903  10.908  31.746  13.524
99644W        W64904  27.155  14.178   2.248
99645W        W64905  26.714   4.089   2.721
99646W        W64906  36.835   1.908  13.007
99647W        W64907  14.284  32.856   1.645
99648W        W64908  26.732  26.547  13.447
99649W        W64909  13.173  40.863   5.116
99650W        W64910  43.736  19.006  11.499
99651W        W64911  29.491   5.714   1.201
99652W        W64912  35.052  37.999   0.355
99653W        W64913  19.850   2.661   2.361
99654W        W64914  22.134  20.080  12.063
99655W        W64915   1.148  16.688  12.429
99656W        W64916  27.695  13.226  12.923
99657W        W64917  26.063  16.105  14.980
99658W        W64918   4.138  13.735  13.406
99659W        W64919  18.213  14.573  12.927
99660W        W64920  21.303  30.988   4.397
99661W        W64921   8.816  41.952   3.412
99662W        W64922  32.608  32.394  11.479
99663W        W64923  24.397  15.614  14.985
99664W        W64924  27.042  33.688  13.299
99665W        W64925  19.292   5.165  12.186
99666W        W64926   1.351  42.426   3.149
99667W        W64927   6.586  10.825  14.609
99668W        W64928   9.300  35.817   3.198
99669W        W64929  37.045  38.132   3.229
99670W        W64930  20.883  28.474  12.049
99671W        W64931  17.655  32.597   0.879
99672W        W64932   0.346  19.274  13.447
99673W        W64933  35.430   3.313  13.171
99674W        W64934  37.680  12.343   0.449
99675W        W64935   2.936  32.090   9.909
99676W        W64936  27.049   3.807  14.969
99677W        W64937   0.891  42.491   1.747
99678W        W64938  14.522   7.682   4.183
99679W        W64939  15.849  11.705  11.098
99680W        W64940   8.177  12.735   1.758
99681W        W64941  38.482  27.556  10.975
99682W        W64942   0.757  36.951  11.377
99683W        W64943   4.302   6.932   2.717
99684W        W64944  42.531  28.631   3.671
99685W        W64945  13.064  13.356   3.725
99686W        W64946  37.432  36.298  12.999
99687W        W64947  19.175  37.910   1.927
99688W        W64948  33.567  19.154  11.252
99689W        W64949  36.576  44.260  12.509
99690W        W64950  15.226  41.409   4.623
99691W        W64951  15.679   2.163  13.321
99692W        W64952  13.376  17.266   1.628
99693W        W64953  25.466  30.509   3.052
99694W        W64954  32.113  26.403  11.973
99695W        W64955  20.131  27.202   2.389
99696W        W64956  39.856   3.696  13.112
99697W        W64957  27.948  39.487  13.466
99698W        W64958   3.407  34.864   1.297
99699W        W64959  37.303  30.617   1.660
99700W        W64960  27.197  24.271  11.593
99701W        W64961  13.626   9.659   4.104
99702W        W64962   7.822  12.999  14.380
99703W        W64963   0.355  40.226  14.366
99704W        W64964  37.453  43.508  14.603
99705W        W64965   1.302  26.466   1.857
99706W        W64966  34.515  39.854  11.107
99707W        W64967  32.084  13.815   3.340
99708W        W64968  40.408  33.478   1.721
99709W        W64969  20.297  33.378  11.255
99710W        W64970   3.715  40.568   2.750
99711W        W64971   0.386   2.214   1.935
99712W        W64972  22.703  39.443   0.549
99713W        W64973  32.717  20.932  11.118
99714W        W64974  31.945  26.659   2.186
99715W        W64975  43.131  23.533   1.563
99716W        W64976   8.657  27.729   2.489
99717W        W64977  18.638  36.890  12.061
99718W        W64978  44.879  36.425  12.862
99719W        W64979  42.454  16.247  12.056
99720W        W64980  17.698  26.036  10.731
99721W        W64981  39.397  20.251   4.313
99722W        W64982  39.541   1.847  13.957
99723W        W64983  25.025  41.892   1.037
99724W        W64984  30.438  42.019   2.737
99725W        W64985  24.685  15.447   0.569
99726W        W64986  26.150  38.107   2.195
99727W        W64987  34.639  32.462  13.964
99728W        W64988   9.513  36.935   4.806
99729W        W64989   0.823  20.681  13.543
99730W        W64990  42.030  27.508   2.261
99731W        W64991  32.124  35.482  12.593
99732W        W64992  24.000   7.031   4.873
99733W        W64993  26.684  29.389  10.869
99734W        W64994  23.840  30.649  12.883
99735W        W64995   7.303  27.685   2.342
99736W        W64996  23.638  10.311  14.398
99737W        W64997  19.064   2.015  12.943
99738W        W64998   4.682  43.473   2.218
99739W        W64999   2.488  13.689   1.331
99740W        W65000  41.319  17.122   1.173
99741W        W65001  28.133  43.549  12.984
99742W        W65002  34.083   8.354   1.368
99743W        W65003   3.712  17.993  13.764
99744W        W65004  11.378  32.271   2.765
99745W        W65005  24.252  27.006   1.189
99746W        W65006  20.439  14.568   0.310
99747W        W65007   2.450  12.745   1.093
99748W        W65008  38.237   4.342  11.927
99749W        W65009  35.386  33.396  14.821
99750W        W65010   1.900   1.442  13.821
99751W        W65011   3.538  26.740   4.660
99752W        W65012  31.785  32.479   0.214
99753W        W65013  39.507  16.143  14.560
99754W        W65014  12.635  42.513  11.573
99755W        W65015   8.325  36.792   1.770
99756W        W65016  37.570  16.804   3.735
99757W        W65017   1.465   9.832   2.742
99758W        W65018  26.149  29.529  14.709
99759W        W65019  12.703  38.931   4.171
99760W        W65020  13.754  36.080   2.875
99761W        W65021   5.185  44.398  11.197
99762W        W65022  23.153   0.818  13.272
99763W        W65023  36.439  38.185  13.922
99764W        W65024  31.215   2.394  12.443
99765W        W65025  25.595  16.200  11.367
99766W        W65026   3.179  43.345  14.096
99767W        W65027  18.720   6.623   1.873
99768W        W65028  16.768  38.789   3.723
99769W        W65029   1.661  40.733   4.969
99770W        W65030   2.494  21.074  11.155
99771W        W65031  25.004   0.435  10.657
99772W        W65032  21.958  20.364   4.621
99773W        W65033  14.109  27.582   4.626
99774W        W65034  20.218  17.813   2.089
99775W        W65035  13.763  42.448   0.846
99776W        W65036  15.735   7.403  12.283
99777W        W65037  36.930  19.776  12.621
99778W        W65038   1.515  37.078   3.527
99779W        W65039   7.114  31.871  11.078
99780W        W65040   8.550  28.503   0.820
99781W        W65041   6.838   8.692   1.328
99782W        W65042  10.284   8.865  13.838
99783W        W65043  12.871  42.139   3.180
99784W        W65044  18.385  39.408  12.675
99785W        W65045  35.110  25.288   1.279
99786W        W65046  42.563   2.789  13.035
99787W        W65047  13.234  32.951  11.941
99788W        W65048  43.754  17.013   2.231
99789W        W65049   9.108  12.222   0.039
99790W        W65050   5.622   9.849   0.764
99791W        W65051  37.292  25.617   0.961
99792W        W65052  34.516  22.606   2.573
99793W        W65053   6.310   2.958   0.964
99794W        W65054  18.435  30.586  14.002
99795W        W65055  18.123   6.004   1.906
99796W        W65056   2.206  15.716  11.593
99797W        W65057  29.914  43.875  11.647
99798W        W65058   5.623  20.806  10.582
99799W        W65059  19.460  35.318   3.902
99800W        W65060  35.348  41.886   0.925
99801W        W65061   3.392  36.872   1.123
99802W        W65062  15.016   7.754  13.594
99803W        W65063  15.315   1.488  14.440
99804W        W65064   1.406  13.342   4.762
99805W        W65065  13.294  36.923   2.861
99806W        W65066  36.886  30.439   0.746
99807W        W65067   5.025  27.640   2.067
99808W        W65068  40.043  14.420  12.433
99809W        W65069  15.847  26.755  12.512
99810W        W65070  14.683  37.239  11.514
99811W        W65071  31.459  19.278  12.806
99812W        W65072  19.165  30.069   2.358
99813W        W65073  18.292  27.108  14.819
99814W        W65074   0.902  32.087   0.396
99815W        W65075  41.291   1.010  14.783
99816W        W65076  44.727  26.665  12.465
99817W        W65077  39.107  20.004  13.520
99818W        W65078  30.135  21.207  14.344
99819W        W65079  35.573  25.444   2.468
99820W        W65080   0.272   2.775   2.248
99821W        W65081   1.434  28.761  10.663
99822W        W65082  14.675  23.337   9.675
99823W        W65083  44.686  28.148  12.535
99824W        W65084  20.194   6.817  10.739
99825W        W65085  24.038  25.694   2.573
99826W        W65086   2.963  24.737   3.660
99827W        W65087  22.750  16.393   2.128
99828W        W65088  28.264  12.346   3.287
99829W        W65089   5.212  36.119   2.210
99830W        W65090  18.370  18.041  13.046
99831W        W65091  16.196  16.549   1.847
99832W        W65092  16.625  39.996  14.799
99833W        W65093   1.011  29.003   3.506
99834W        W65094  39.397  34.592  12.051
99835W        W65095   5.944   1.905   4.572
99836W        W65096  14.671  34.090   3.116
99837W        W65097  25.038  32.129  11.180
99838W        W65098  17.776  26.660   0.869
99839W        W65099  28.502  22.752   0.833
99840W        W65100  39.526  40.620  13.893
99841W        W65101  23.743  38.088  13.573
99842W        W65102   8.302   7.231  13.576
99843W        W65103  39.316  43.653  13.924
99844W        W65104  18.227  26.600  11.112
99845W        W65105   8.796  19.582   3.796
99846W        W65106  24.445  37.413  13.419
99847W        W65107  38.142  38.567   0.332
99848W        W65108  41.484   9.729  11.645
99849W        W65109   2.828  11.358   3.606
99850W        W65110  34.363  10.103   3.161
99851W        W65111   9.816  32.943   4.359
99852W        W65112  38.514  40.108  13.064
99853W        W65113  16.325  26.320   4.230
99854W        W65114   0.999   0.913   4.073
99855W        W65115  29.045  26.614   0.866
99856W        W65116  13.787  31.907   2.823
99857W        W65117  44.671  33.500   4.191
99858W        W65118  28.940  15.064   2.897
99859W        W65119   5.691   8.350   2.841
99860W        W65120  16.194   2.980  14.122
99861W        W65121   1.563  15.286   3.284
99862W        W65122  23.689  25.658  12.188
99863W        W65123  31.863  12.660  13.945
99864W        W65124   7.840  36.883   4.698
99865W        W65125  12.223  29.699  14.448
99866W        W65126  17.062   5.947  12.530
99867W        W65127   4.524  19.413  13.011
99868W        W65128  35.858   8.386  14.179
99869W        W65129  20.644   5.110  13.527
99870W        W65130  16.519  28.471   4.531
99871W        W65131   7.918  27.918  11.605
99872W        W65132  24.118  28.983   2.390
99873W        W65133   4.752   7.206  14.697
99874W        W65134  29.532   4.760  14.559
99875W        W65135  16.796  32.677   1.713
99876W        W65136  18.122  39.467   3.874
99877W        W65137  35.910  29.528   4.203
99878W        W65138   9.382  33.572  12.789
99879W        W65139  29.292  20.986  12.416
99880W        W65140  30.601  36.832  10.917
99881W        W65141  13.637  14.242  14.786
99882W        W65142   9.869  25.708   1.669
99883W        W65143  24.974  42.029   5.049
99884W        W65144   2.492  22.315   4.999
99885W        W65145  35.612   2.527   2.582
99886W        W65146  30.145  23.946   0.135
99887W        W65147  33.487   1.481  10.869
99888W        W65148  40.267   8.107  13.455
99889W        W65149  15.764  22.886   4.979
99890W        W65150  27.432  12.121   4.869
99891W        W65151  44.266  20.606   4.195
99892W        W65152  24.984   9.023   4.254
99893W        W65153  33.356  17.011  11.516
99894W        W65154  25.345  43.708  11.917
99895W        W65155  13.782  36.904   4.588
99896W        W65156  36.394  28.504  13.092
99897W        W65157  13.430  11.558   2.770
99898W        W65158  37.487   8.139  12.012
99899W        W65159  29.013   2.744  11.402
99900W        W65160   6.843  36.812   1.304
99901W        W65161  35.879  42.530  11.646
99902W        W65162  26.582   3.774   3.684
99903W        W65163  25.020  25.504  14.893
99904W        W65164  12.485  23.597  11.543
99905W        W65165  36.537   6.161   1.283
99906W        W65166  12.865  39.451   2.635
99907W        W65167  16.384   6.763  10.590
99908W        W65168  32.557  27.086  14.417
99909W        W65169  20.210  40.620   0.223
99910W        W65170  35.010   3.720   2.480
99911W        W65171  12.033  32.994   1.957
99912W        W65172   0.263  29.023  12.451
99913W        W65173  33.030  23.535  12.412
99914W        W65174  10.333  27.973  11.944
99915W        W65175  20.037  18.249   4.249
99916W        W65176  44.313  14.043  14.468
99917W        W65177  44.817  27.546  14.725
99918W        W65178  37.847  16.620   2.242
99919W        W65179   1.705  23.218  13.384
99920W        W65180  12.231  26.577  14.722
99921W        W65181  12.244   8.659  13.125
99922W        W65182  20.684  10.728   3.233
99923W        W65183  11.235  43.348  11.467
99924W        W65184  28.077  24.947   1.742
99925W        W65185  40.034  34.327  12.432
99926W        W65186  43.487   2.120   2.812
99927W        W65187   7.910  11.351  12.385
99928W        W65188  28.431  10.727   2.311
99929W        W65189  11.728   9.719   4.192
99930W        W65190  24.934  32.499  14.694
99931W        W65191  12.798   5.922   5.313
99932W        W65192  40.250   4.296  12.033
99933W        W65193   4.934  11.824  12.532
99934W        W65194  37.475   8.032  12.532
99935W        W65195  14.355  18.522   3.673
99936W        W65196  33.864   2.816   5.390
99937W        W65197   3.795   7.151  13.889
99938W        W65198  25.090  38.332  13.762
99939W        W65199  39.385  18.763  12.114
99940W        W65200  29.728   6.282  12.782
99941W        W65201  36.118  25.236  11.117
99942W        W65202  25.538   2.414  12.952
99943W        W65203   9.571  14.615   2.756
99944W        W65204   5.416  28.285  11.147
99945W        W65205  37.818   4.659  10.737
99946W        W65206  23.458  13.564   0.922
99947W        W65207  12.347   7.886  10.769
99948W        W65208  35.964   7.151  11.750
99949W        W65209   8.344  27.967   1.320
99950W        W65210  42.236  32.732   2.145
99951W        W65211  18.617   3.270  13.244
99952W        W65212  38.202  24.042  14.487
99953W        W65213  20.677  44.422  12.427
99954W        W65214  16.466  13.008   0.916
99955W        W65215  25.618  10.464  12.528
99956W        W65216   0.325   4.438   4.516
99957W        W65217  35.203  10.197   0.450
99958W        W65218  11.190  15.216   0.761
99959W        W65219   8.646  12.233   2.795
99960W        W65220   4.681  23.649   0.480
99961W        W65221  27.432  44.419   0.396
99962W        W65222  41.997  18.673  11.898
99963W        W65223  15.624   0.931   3.628
99964W        W65224  38.015  17.789  11.660
99965W        W65225  29.498  21.245   1.330
99966W        W65226  19.693  29.535  10.818
99967W        W65227  11.793  20.509   2.295
99968W        W65228  20.994  41.385  13.879
99969W        W65229  38.057  22.284  11.549
99970W        W65230  11.055   0.533  14.499
99971W        W65231  41.899  42.064   1.387
99972W        W65232   4.024  29.699   4.073
99973W        W65233  19.687  37.557   5.005
99974W        W65234  20.640  13.385   0.905
99975W        W65235  14.772   0.254  12.276
99976W        W65236   0.365  41.237   2.772
99977W        W65237  15.836  24.134  10.728
99978W        W65238  17.627  23.697  11.445
99979W        W65239  34.026  33.432   3.939
99980W        W65240   2.724   8.163  13.515
99981W        W65241  29.994  20.269  14.941
99982W        W65242  28.575  16.377   3.184
99983W        W65243  17.693   8.745  12.305
99984W        W65244  37.251  40.561   2.635
99985W        W65245  24.737  26.505  14.455
99986W        W65246  26.539  10.315  11.236
99987W        W65247  38.239  11.342   4.175
99988W        W65248  42.027  27.575  11.188
99989W        W65249  32.214  26.659   9.651
99990W        W65250  28.349  33.149  12.994
99991W        W65251  15.208  32.134  10.363
99992W        W65252  27.855   7.357   0.533
99993W        W65253  37.842  29.329   1.922
99994W        W65254  44.340   9.714  14.985
99995W        W65255  39.262  16.706   2.296
99996W        W65256  29.773  18.278   4.620
99997W        W65257  39.392   4.722   0.802
99998W        W65258   0.799  10.713   1.572
99999W        W65259  21.337  19.143   2.912
    0W        W65260  32.043  15.289   1.724
    1W        W65261  30.007  38.195  13.865
    2W        W65262  12.438  13.786   0.037
    3W        W65263  15.672  19.079   2.730
    4W        W65264  11.922  37.148  11.160
    5W        W65265  18.474   6.668  14.014
    6W        W65266  40.920  27.647   0.044
    7W        W65267  24.677  31.855   0.254
    8W        W65268  19.361  32.525  12.709
    9W        W65269  22.255  30.424  13.060
   10W        W65270  16.790   0.377   2.381
   11W        W65271  15.215  27.733   1.882
   12W        W65272   0.328  44.738   2.253
   13W        W65273   5.876  22.468  13.428
   14W        W65274  10.652   4.792  14.480
   15W        W65275  30.557   1.677   1.247
   16W        W65276  27.054  21.518   4.603
   17W        W65277  20.142  22.891   1.648
   18W        W65278  13.663   0.414  13.579
   19W        W65279   5.112  27.006  10.658
   20W        W65280  18.846   5.523  14.545
   21W        W65281  38.575  29.884  10.814
   22W        W65282  44.907  40.067  11.561
   23W        W65283   7.403   0.767  14.145
   24W        W65284  11.759  35.983   3.626
   25W        W65285  35.085  28.608  11.663
   26W        W65286  28.863  31.142   0.478
   27W        W65287   7.918   0.224   3.663
   28W        W65288   8.855  17.349   2.450
   29W        W65289   5.663  26.144   4.650
   30W        W65290  13.916  24.616  11.566
   31W        W65291  16.844  26.280   2.730
   32W        W65292   9.379  40.516  13.037
   33W        W65293  34.677  11.194   0.884
   34W        W65294  41.888   7.284  14.694
   35W        W65295  39.274  11.421  14.913
   36W        W65296  23.237  25.119  11.106
   37W        W65297  38.042  24.551  14.450
   38W        W65298  33.554   4.840  14.829
   39W        W65299   4.739  26.691   0.790
   40W        W65300  33.737  27.627  13.826
   41W        W65301  24.590  44.477  11.844
   42W        W65302  12.879  43.386   0.051
   43W        W65303  40.379  28.571   2.645
   44W        W65304  13.404  43.611   1.318
   45W        W65305  11.158  33.104  12.969
   46W        W65306  30.420  42.595  14.027
   47W        W65307  14.197   3.214   0.972
   48W        W65308  42.987  15.268   4.231
   49W        W65309  35.315  12.337   2.601
   50W        W65310  18.584  26.817  12.635
   51W        W65311  32.531   0.249   3.267
   52W        W65312   9.780  42.506  13.115
   53W        W65313  34.891   1.500   0.993
   54W        W65314  28.409  11.931  14.334
   55W        W65315  23.185   0.532  10.655
   56W        W65316   5.373  30.058   3.851
   57W        W65317  26.069  39.075  12.161
   58W        W65318  22.594  32.154  11.000
   59W        W65319  39.550   7.793   0.334
   60W        W65320  28.053  25.708   4.606
   61W        W65321  39.374   3.242  11.152
   62W        W65322   0.046  12.673  12.676
   63W        W65323  40.989   0.644   0.807
   64W        W65324   4.663   8.385  11.795
   65W        W65325   4.269   3.147   0.930
   66W        W65326   7.323   6.979  13.593
   67W        W65327  31.418  23.584   3.602
   68W        W65328  42.911  32.380   3.296
   69W        W65329  32.360  25.615   0.784
   70W        W65330  21.797  23.512  14.266
   71W        W65331  20.045   8.324   4.176
   72W        W65332  41.135  43.579  11.153
   73W        W65333  30.695  20.592   3.423
   74W        W65334  39.853  31.695   4.474
   75W        W65335   4.335  17.572   0.208
   76W        W65336  10.526   8.834  10.777
   77W        W65337  42.240  19.615  14.340
   78W        W65338  25.721  28.036  14.199
   79W        W65339  35.806  30.499  14.737
   80W        W65340  32.983  37.171  11.573
   81W        W65341  34.363  31.095   4.281
   82W        W65342  12.676   7.906  12.052
   83W        W65343  22.008  44.059   3.385
   84W        W65344   0.734   0.899  14.837
   85W        W65345  31.629  35.332   1.353
   86W        W65346   3.853  29.488   0.978
   87W        W65347  40.479  12.015   0.174
   88W        W65348  31.649  44.021   4.678
   89W        W65349  27.603  42.576   3.133
   90W        W65350  10.285  18.474   4.106
   91W        W65351  31.652   3.972   3.714
   92W        W65352  18.084  44.593   1.797
   93W        W65353  30.993   5.735  12.019
   94W        W65354  24.299  33.638  13.497
   95W        W65355  41.093  11.254   1.895
   96W        W65356  18.706  21.773  14.443
   97W        W65357  19.655   2.937  12.838
   98W        W65358   2.985  24.729  13.993
   99W        W65359  31.282  43.254   5.093
  100W        W65360  12.107  37.592   1.032
  101W        W65361   0.954   4.878  13.030
  102W        W65362  18.081  19.183   4.174
  103W        W65363  37.559  15.191   1.601
  104W        W65364  40.819  36.879  14.521
  105W        W65365  37.072  33.558   0.224
  106W        W65366   0.117  13.853  12.396
  107W        W65367  16.880  28.008   3.325
  108W        W65368  38.939  29.828  14.598
  109W        W65369  42.120  43.779   2.195
  110W        W65370  39.626   2.088   3.490
  111W        W65371  10.101  39.828  13.733
  112W        W65372   3.351  39.023  13.343
  113W        W65373  39.351  15.829  11.585
  114W        W65374  13.759  15.297   1.372
  115W        W65375  19.948  42.587  11.115
  116W        W65376  29.244  13.172   1.382
  117W        W65377  39.923  13.566  14.074
  118W        W65378  19.700  25.818   1.428
  119W        W65379  24.443  31.406   0.368
  120W        W65380  37.049  31.965  11.231
  121W        W65381  27.622  19.986   3.263
  122W        W65382  43.316  28.000   3.895
  123W        W65383  34.491  17.789   1.449
  124W        W65384  31.056  18.108   4.640
  125W        W65385  36.081  15.795   3.237
  126W        W65386  17.239  10.793   3.153
  127W        W65387  22.424  39.330   3.651
  128W        W65388  20.835   7.482   4.821
  129W        W65389   2.415  35.928  10.430
  130W        W65390  37.571   3.356   3.738
  131W        W65391  35.957  28.940  10.746
  132W        W65392   4.229  19.921  11.497
  133W        W65393  40.393  28.419   3.132
  134W        W65394   6.614  38.798   3.139
  135W        W65395   3.688  39.536   2.782
  136W        W65396  27.643  14.594  12.593
  137W        W65397  35.441  44.799  14.975
  138W        W65398  38.037  42.039  11.181
  139W        W65399  31.050  21.314  14.836
  140W        W65400   0.988  31.326  12.334
  141W        W65401  14.650  43.799  14.007
  142W        W65402  15.815  19.086  13.429
  143W        W65403  44.828  25.278  13.910
  144W        W65404  11.620  23.694  10.800
  145W        W65405  23.566  31.877  13.838
  146W        W65406   7.327  38.084   1.377
  147W        W65407  31.405  20.655   2.949
  148W        W65408  12.834  14.089   4.561
  149W        W65409  17.347   6.151  11.255
  150W        W65410  15.538  30.565  10.899
  151W        W65411  32.195  28.703   0.733
  152W        W65412  42.859  24.424  12.954
  153W        W65413  32.106  42.842   4.570
  154W        W65414  30.711  44.437  14.715
  155W        W65415  32.831   4.355   3.997
  156W        W65416  41.564  16.481   3.674
  157W        W65417  30.608  27.841  13.064
  158W        W65418  43.630  33.550  12.024
  159W        W65419  37.958  14.756   4.407
  160W        W65420  18.484  20.606   1.183
  161W        W65421  39.818   2.415   1.675
  162W        W65422  36.911  19.338   1.286
  163W        W65423  28.684  19.545   0.449
  164W        W65424  39.151   2.848   3.373
  165W        W65425  42.284  25.659   0.339
  166W        W65426  33.926   2.726   2.304
  167W        W65427  29.599  18.940  12.372
  168W        W65428   2.825  35.525  14.722
  169W        W65429   8.737  14.077  14.276
  170W        W65430   0.841  34.656   3.216
  171W        W65431  25.736   8.848   0.420
  172W        W65432  30.428  23.646  11.143
  173W        W65433  35.592  16.669  14.440
  174W        W65434   2.815  27.473  13.315
  175W        W65435  25.161  11.614  12.976
  176W        W65436  32.623  22.458   3.686
  177W        W65437   4.252  13.212   2.425
  178W        W65438   2.842  11.360   2.065
  179W        W65439  18.159  43.562   2.690
  180W        W65440  12.105  21.399  12.790
  181W        W65441   4.285  12.681  14.839
  182W        W65442  43.422  28.160   2.954
  183W        W65443   8.179  31.657   0.427
  184W        W65444   3.053  24.602   2.731
  185W        W65445   8.180   6.844   5.036
  186W        W65446  30.646  29.643  13.805
  187W        W65447  18.018  42.254  12.470
  188W        W65448   3.368  17.075  14.004
  189W        W65449  27.880  10.309   5.099
  190W        W65450  11.166  37.537  12.550
  191W        W65451  38.914  43.196  13.875
  192W        W65452  37.612  14.089   4.233
  193W        W65453   3.175   7.225   1.862
  194W        W65454  35.422  26.775   3.298
  195W        W65455  26.398  31.000   1.471
  196W        W65456  34.495  23.788  10.686
  197W        W65457   4.878  25.144  10.679
  198W        W65458  34.076  43.906   2.619
  199W        W65459  35.041   7.693   0.440
  200W        W65460   4.338  41.700  10.400
  201W        W65461  43.826  34.595   1.464
  202W        W65462  39.756  20.780   0.341
  203W        W65463  41.134  16.856   2.147
  204W        W65464  34.834  25.506  13.395
  205W        W65465  19.510  18.459   1.883
  206W        W65466  20.000   3.485   0.444
  207W        W65467  28.856  19.108   1.711
  208W        W65468   2.984   4.505  12.451
  209W        W65469  40.395  39.496   3.977
  210W        W65470   6.510  22.622  10.328
  211W        W65471  34.718  27.607  10.851
  212W        W65472   6.198   8.321  13.554
  213W        W65473  29.845  42.454   1.141
  214W        W65474   6.937  10.633   2.321
  215W        W65475   2.530  19.783   5.043
  216W        W65476   5.810  12.628   2.911
  217W        W65477  33.008  20.665   4.426
  218W        W65478  33.932  39.958  14.406
  219W        W65479  36.737  37.904   0.847
  220W        W65480  34.353  39.296   1.503
  221W        W65481   8.359  44.330   2.868
  222W        W65482  15.978  26.112  11.948
  223W        W65483  24.415   1.819   2.214
  224W        W65484   8.335   8.659  11.076
  225W        W65485   8.505  43.727  12.043
  226W        W65486   9.407   5.846  11.997
  227W        W65487  43.716  25.046   5.078
  228W        W65488   4.760  39.977   2.357
  229W        W65489  40.229   7.116  10.742
  230W        W65490  17.018   5.257  14.609
  231W        W65491  33.543  38.335  10.091
  232W        W65492  32.032   5.376   0.535
  233W        W65493  36.613  30.453  13.552
  234W        W65494  42.377   2.935  14.330
  235W        W65495   7.090  30.089  12.536
  236W        W65496   0.829   6.893  13.648
  237W        W65497  24.648  17.149  11.471
  238W        W65498  18.836   0.011  14.475
  239W        W65499  37.497  11.189  11.681
  240W        W65500  32.099  22.034   2.926
  241W        W65501   5.387  29.901  12.182
  242W        W65502   4.295  15.003   0.786
  243W        W65503  39.238   5.030   4.990
  244W        W65504   4.361  26.432  11.101
  245W        W65505  34.470  22.118   1.279
  246W        W65506  36.852  13.804  14.932
  247W        W65507  31.408  13.594  11.543
  248W        W65508   8.451  15.850  13.370
  249W        W65509   3.191  12.210   2.307
  250W        W65510  37.831  32.142  14.567
  251W        W65511  36.573  21.771  11.046
  252W        W65512   4.179  38.969  10.840
  253W        W65513  32.952  40.861   4.242
  254W        W65514   8.758  28.730   2.764
  255W        W65515  12.736  42.489   4.434
  256W        W65516   1.818  27.986  11.681
  257W        W65517  15.329   2.365   1.307
  258W        W65518  37.433   2.809   0.921
  259W        W65519  27.753  12.791  13.986
  260W        W65520  21.569  22.301  14.380
  261W        W65521  26.812  28.946  11.099
  262W        W65522  30.397  16.534  14.837
  263W        W65523   9.704  38.748  14.402
  264W        W65524  41.568   5.890  13.875
  265W        W65525  21.160  26.075   3.203
  266W        W65526  33.494  43.023  14.030
  267W        W65527  28.981  17.498  11.569
  268W        W65528  22.576  18.003   3.660
  269W        W65529  41.308  36.931  14.298
  270W        W65530  38.198  11.656   0.971
  271W        W65531  40.882   1.381  12.665
  272W        W65532  31.505  33.717   0.907
  273W        W65533  15.895  24.491   4.385
  274W        W65534  28.249  41.242   0.907
  275W        W65535   4.285  30.557  12.454
  276W        W65536  17.681  39.519   1.540
  277W        W65537  23.639   5.802   0.922
  278W        W65538  37.594   5.873   1.955
  279W        W65539  29.685   7.361  11.565
  280W        W65540  32.511  32.585  11.959
  281W        W65541  22.860  12.017   3.249
  282W        W65542   1.178   5.705  11.414
  283W        W65543  29.425   2.937   1.938
  284W        W65544  26.818  30.138  13.013
  285W        W65545  30.181   2.247   0.480
  286W        W65546   4.648  25.470  10.091
  287W        W65547   6.535  19.003   2.706
  288W        W65548  40.301  13.061   4.138
  289W        W65549   3.049  22.180   1.371
  290W        W65550  31.981  15.843  14.433
  291W        W65551  24.038  19.613  14.216
  292W        W65552  40.594  42.563  10.750
  293W        W65553  44.322   0.805   1.290
  294W        W65554  21.081  21.529   0.281
  295W        W65555  36.874  43.530   3.658
  296W        W65556   2.468  10.395   9.904
  297W        W65557  41.045   9.592   3.235
  298W        W65558   0.192  37.123  12.971
  299W        W65559  37.498  43.402  12.121
  300W        W65560  25.442  29.276   2.199
  301W        W65561  37.939  20.743   1.684
  302W        W65562  24.471   0.480  13.359
  303W        W65563  13.897  28.062   2.851
  304W        W65564  26.130   1.993  12.394
  305W        W65565  29.677  40.473   3.066
  306W        W65566   1.647  41.034   2.417
  307W        W65567   5.811  28.475  14.238
  308W        W65568   9.103  38.864  12.695
  309W        W65569  29.346  29.897   0.439
  310W        W65570  27.052   5.824   1.701
  311W        W65571   4.940  19.162   2.727
  312W        W65572   3.758  38.262  10.746
  313W        W65573  18.700   4.859   1.618
  314W        W65574   9.716   5.170  10.932
  315W        W65575  18.049  40.102  10.727
  316W        W65576  37.894  32.654   0.398
  317W        W65577  11.203  22.148  11.953
  318W        W65578   5.945   2.272   4.200
  319W        W65579  21.777   1.158   3.313
  320W        W65580   4.370  26.190   2.139
  321W        W65581   6.966  19.170   0.877
  322W        W65582  10.319  12.880   3.871
  323W        W65583  12.640  15.742  14.495
  324W        W65584  28.508  13.656   4.734
  325W        W65585  25.794  31.494   4.164
  326W        W65586  17.771  30.075  13.974
  327W        W65587  28.619  21.457   1.178
  328W        W65588  42.100  24.566   4.208
  329W        W65589  41.953  34.128   2.334
  330W        W65590  21.069  23.291   1.505
  331W        W65591  15.369  28.168   5.062
  332W        W65592   2.784  38.195  13.453
  333W        W65593  17.895   4.764   0.991
  334W        W65594  35.813  18.161   3.764
  335W        W65595  34.771  10.211  14.293
  336W        W65596  36.889  14.689  10.623
  337W        W65597   1.759  20.321  14.924
  338W        W65598   1.266  22.519   4.603
  339W        W65599  32.835  38.890   2.854
  340W        W65600  18.974  11.610  14.146
  341W        W65601  15.799  11.838  13.621
  342W        W65602   7.350  11.329  14.225
  343W        W65603  28.235  44.201   3.566
  344W        W65604  18.910  11.750   0.857
  345W        W65605   4.269   4.401  13.039
  346W        W65606   0.130   6.298   3.827
  347W        W65607  19.620  26.216  14.397
  348W        W65608   1.513   3.984   4.052
  349W        W65609  15.539  35.676   2.090
  350W        W65610   1.291  27.361  11.720
  351W        W65611   7.934  23.046  10.302
  352W        W65612  29.651  43.231   3.824
  353W        W65613  12.693  19.200   3.218
  354W        W65614   3.614  11.796  11.985
  355W        W65615  44.879  10.069   2.874
  356W        W65616  33.081  22.048   1.054
  357W        W65617   1.026  44.373   2.305
  358W        W65618  28.027  33.425   0.867
  359W        W65619  22.626   0.200  14.999
  360W        W65620  17.144  35.010  13.389
  361W        W65621   8.154  37.277   3.142
  362W        W65622  41.040  40.200  12.110
  363W        W65623  33.035  37.349  11.077
  364W        W65624  33.626  26.428   2.221
  365W        W65625  20.348  12.800   2.352
  366W        W65626   0.015   3.272  11.261
  367W        W65627  42.447  30.167   3.147
  368W        W65628  13.244  16.620  14.548
  369W        W65629  24.064   1.487  12.113
  370W        W65630  43.697  12.203   3.314
  371W        W65631   1.225  38.842  11.165
  372W        W65632   5.641   3.325   2.140
  373W        W65633  44.713  25.030   4.756
  374W        W65634  11.725  32.067   3.651
  375W        W65635   6.791  23.466  14.501
  376W        W65636  25.186  11.687  13.505
  377W        W65637  31.493  35.298  13.451
  378W        W65638  38.962  19.143   2.281
  379W        W65639   1.258   6.589  13.487
  380W        W65640  16.799  29.422   3.246
  381W        W65641  28.307  27.709  12.617
  382W        W65642  23.247  10.664   4.655
  383W        W65643  28.430   3.579   4.618
  384W        W65644  12.816  30.663  13.196
  385W        W65645  28.488   3.920  14.001
  386W        W65646  21.550  22.122   9.676
  387W        W65647  11.864  40.851   1.909
  388W        W65648  13.132  10.070   2.899
  389W        W65649   3.483  25.992   3.284
  390W        W65650  41.440  44.042  13.939
  391W        W65651  15.787  11.334   3.876
  392W        W65652  44.436  39.082   3.472
  393W        W65653  21.946  16.057   3.276
  394W        W65654   5.754  33.496   2.374
  395W        W65655   8.383   4.631   4.631
  396W        W65656  14.080  44.393  14.315
  397W        W65657  40.338   8.105  10.552
  398W        W65658  13.849  11.151   1.940
  399W        W65659  26.400  22.441   2.846
  400W        W65660  26.996   4.834  13.516
  401W        W65661   3.894  40.629  13.080
  402W        W65662  29.925  37.702  12.496
  403W        W65663  14.692  19.382  12.535
  404W        W65664  23.041  41.745  13.408
  405W        W65665  31.080  12.167   2.779
  406W        W65666  34.956  30.277   2.252
  407W        W65667  24.769  27.682   3.734
  408W        W65668   1.257   5.450   0.902
  409W        W65669   3.204  13.041  13.042
  410W        W65670  21.585  21.160  12.142
  411W        W65671  23.994  27.711  12.596
  412W        W65672  21.835  37.818  12.064
  413W        W65673   6.249  21.718  13.100
  414W        W65674  33.070  36.092  12.424
  415W        W65675  26.265   1.904   3.111
  416W        W65676  13.642  29.042  13.354
  417W        W65677   5.559   4.201  11.760
  418W        W65678  31.824  42.864  11.190
  419W        W65679  43.488  20.165   2.274
  420W        W65680  23.476  26.075   3.819
  421W        W65681  32.444  30.951   0.657
  422W        W65682  34.484  35.781   0.563
  423W        W65683  14.204  22.159   3.087
  424W        W65684  35.983  35.404  10.710
  425W        W65685  19.069   9.853  10.713
  426W        W65686  40.523  37.464   4.377
  427W        W65687  42.266   7.542   0.849
  428W        W65688  22.971  32.014  11.979
  429W        W65689  38.376  37.930  13.909
  430W        W65690  33.194   4.986  13.100
  431W        W65691  31.874  34.507   4.718
  432W        W65692  20.637  18.250  12.604
  433W        W65693  41.609   9.831  13.962
  434W        W65694   0.361  22.410  12.053
  435W        W65695  37.877  34.858   4.670
  436W        W65696  22.253   6.836   3.335
  437W        W65697  20.298  20.025  13.495
  438W        W65698  11.235  40.956  12.047
  439W        W65699  14.247  34.780  11.099
  440W        W65700  37.573  11.253  10.737
  441W        W65701  35.835  34.862   4.604
  442W        W65702  29.168  10.875  12.643
  443W        W65703  31.971   3.197  10.369
  444W        W65704  40.480   5.202  11.241
  445W        W65705  24.022   3.913   0.959
  446W        W65706   3.004  23.204  13.693
  447W        W65707   1.494  26.241  14.288
  448W        W65708  26.154  12.937   4.099
  449W        W65709  29.287  29.666  13.093
  450W        W65710  35.041  31.136   3.256
  451W        W65711   3.294  30.472  12.829
  452W        W65712  35.144  10.360  12.014
  453W        W65713   8.445   6.893  13.964
  454W        W65714  26.257   9.804   3.553
  455W        W65715  11.133  22.239   3.825
  456W        W65716  10.147  23.674  14.493
  457W        W65717  35.466  13.059   4.587
  458W        W65718  39.995  17.651   0.038
  459W        W65719  26.506  27.054   4.605
  460W        W65720  36.432   4.433   3.223
  461W        W65721  42.384  28.091  12.826
  462W        W65722   1.330  27.755  10.736
  463W        W65723  28.086  21.003  10.438
  464W        W65724  35.565  31.849  12.042
  465W        W65725  23.117  18.167   9.684
  466W        W65726  24.597  35.092   1.177
  467W        W65727  19.518  12.147  12.364
  468W        W65728  30.431   5.137   4.697
  469W        W65729  15.535  43.894   1.832
  470W        W65730   3.624  42.462  11.487
  471W        W65731  40.786  36.049   1.502
  472W        W65732  32.041  38.970   2.171
  473W        W65733   0.734  27.726  13.549
  474W        W65734   1.022  41.244   1.435
  475W        W65735   5.828  20.642   2.294
  476W        W65736  20.126  39.045   4.650
  477W        W65737  29.555   5.628   2.695
  478W        W65738   0.224   4.486   3.587
  479W        W65739  39.349  43.088   3.779
  480W        W65740  13.843   4.429  13.446
  481W        W65741   7.822   1.842  14.542
  482W        W65742  16.234  19.316   1.764
  483W        W65743  32.821  35.130  11.817
  484W        W65744  26.683  29.338  11.392
  485W        W65745  36.471  33.103   3.221
  486W        W65746  23.936  13.087   3.070
  487W        W65747  11.326  17.202  13.103
  488W        W65748  31.849  41.751  12.044
  489W        W65749   6.363  36.895   1.907
  490W        W65750  32.999  19.455   1.694
  491W        W65751  29.011  10.847   0.231
  492W        W65752   8.133  15.741  13.884
  493W        W65753  16.555  17.567  14.794
  494W        W65754  12.247   6.411  14.440
  495W        W65755   4.387  16.994   0.972
  496W        W65756  39.568  42.307   3.399
  497W        W65757  24.578  16.176  13.110
  498W        W65758   9.116  37.787   4.620
  499W        W65759  29.200  22.545   0.407
  500W        W65760   0.384  29.237  11.095
  501W        W65761  19.408  11.145  11.176
  502W        W65762  38.900   6.856  11.028
  503W        W65763   4.164   6.226  12.875
  504W        W65764  16.985  20.783   3.241
  505W        W65765  32.071   5.840  14.623
  506W        W65766   6.842  37.279   4.713
  507W        W65767  24.418  44.390  12.784
  508W        W65768  42.584  14.810  11.143
  509W        W65769  22.134  33.925  10.277
  510W        W65770  13.727  29.510   3.115
  511W        W65771   7.863  25.622  10.326
  512W        W65772  21.962  25.453  11.100
  513W        W65773  29.493  38.934  14.867
  514W        W65774  43.962  34.849   0.634
  515W        W65775  13.633  21.969   1.568
  516W        W65776  43.598  26.107  12.016
  517W        W65777  24.790  38.933   0.700
  518W        W65778  33.952   4.238  11.397
  519W        W65779  16.171  24.415  13.645
  520W        W65780  41.724  17.114  13.797
  521W        W65781  44.401  43.209   1.937
  522W        W65782  22.290  40.728   1.391
  523W        W65783   0.800  16.209   3.607
  524W        W65784  43.970  23.456   0.473
  525W        W65785  44.227   9.121  13.351
  526W        W65786   7.501   0.920  14.627
  527W        W65787  21.683   6.850  10.702
  528W        W65788  26.028  31.864   4.717
  529W        W65789  36.827  11.711  11.654
  530W        W65790  38.998   1.256  14.439
  531W        W65791  21.982  24.408   4.383
  532W        W65792   4.457  12.277   0.553
  533W        W65793   0.773  24.259   4.141
  534W        W65794  13.701  27.385  13.363
  535W        W65795  33.628   0.600  10.950
  536W        W65796  38.073  20.061  14.685
  537W        W65797   1.078  34.257  12.872
  538W        W65798  40.308  17.293  11.214
  539W        W65799  18.196  13.270  10.694
  540W        W65800  37.352   6.580   2.798
  541W        W65801  17.784  43.305   0.481
  542W        W65802  19.261  26.399   3.180
  543W        W65803   9.103   8.717  13.062
  544W        W65804   1.722   8.388   3.282
  545W        W65805  34.782   7.072   0.627
  546W        W65806  38.529   6.296  14.565
  547W        W65807  39.773   4.873  12.553
  548W        W65808  29.065  10.341   2.004
  549W        W65809  40.158  37.086   0.148
  550W        W65810  15.888   6.712  14.939
  551W        W65811  22.748  19.498  14.423
  552W        W65812  31.493  28.504   4.630
  553W        W65813  22.526  23.015   1.657
  554W        W65814   6.810  18.699   4.302
  555W        W65815  37.064   7.195  14.085
  556W        W65816  31.599  15.577   1.736
  557W        W65817  41.741  38.287  14.323
  558W        W65818  15.647   0.707   2.168
  559W        W65819  27.202  32.464  13.006
  560W        W65820  39.426  44.199   1.371
  561W        W65821  34.864  22.035  14.776
  562W        W65822  17.198  28.951   4.223
  563W        W65823  14.117  19.613   2.578
  564W        W65824  10.083  19.734   1.269
  565W        W65825  26.292  40.878   1.335
  566W        W65826  14.649  40.644   5.084
  567W        W65827  22.738  26.668   3.049
  568W        W65828   6.474  10.319   1.150
  569W        W65829   1.949   2.481   2.356
  570W        W65830  43.501  18.931   1.423
  571W        W65831   9.966   1.196  12.016
  572W        W65832   4.267  12.375  12.981
  573W        W65833   6.898  41.319  14.332
  574W        W65834  31.399  35.467   4.431
  575W        W65835  17.661  24.505  14.769
  576W        W65836  44.399  28.680  14.964
  577W        W65837  20.742  10.297  11.874
  578W        W65838   5.206  31.205   1.437
  579W        W65839  27.757  19.633   2.880
  580W        W65840  16.756  18.336   2.443
  581W        W65841   2.422  44.204  12.741
  582W        W65842  23.646  29.971  14.481
  583W        W65843  18.232   9.449  11.833
  584W        W65844  44.925  25.525  14.451
  585W        W65845   0.736   0.577   1.924
  586W        W65846  11.862  20.749  13.459
  587W        W65847  14.066  26.485   3.227
  588W        W65848  36.024  15.668   0.463
  589W        W65849  25.198  15.573   3.952
  590W        W65850  41.414   3.508   2.330
  591W        W65851  36.330  34.138   3.599
  592W        W65852  22.439  13.774   0.958
  593W        W65853  36.265  14.878  11.738
  594W        W65854  19.073  22.380   4.800
  595W        W65855   4.237  29.111   0.365
  596W        W65856  21.658   4.333  10.704
  597W        W65857  25.945  35.175  12.871
  598W        W65858  37.089  15.854   4.109
  599W        W65859  25.544  43.423   3.804
  600W        W65860  33.959  14.391   3.097
  601W        W65861  40.391   0.513   4.689
  602W        W65862  39.621  39.321  14.848
  603W        W65863  41.546  43.465  11.510
  604W        W65864  27.963   6.719  12.430
  605W        W65865  29.525  33.360   1.661
  606W        W65866  43.768  27.012   4.434
  607W        W65867  11.174  23.521  14.422
  608W        W65868   2.664  18.119  13.030
  609W        W65869  11.514   7.251   0.870
  610W        W65870  20.554  24.721   4.099
  611W        W65871  16.179   5.575  12.226
  612W        W65872   0.205  33.102   2.268
  613W        W65873  32.836  13.089   3.383
  614W        W65874  43.661  22.833  14.804
  615W        W65875  14.288  14.120  10.825
  616W        W65876  36.630  28.519  11.419
  617W        W65877   1.390  14.852   1.855
  618W        W65878  32.915  43.907   1.829
  619W        W65879  26.974   8.342   0.564
  620W        W65880  10.403  32.375   3.570
  621W        W65881  10.897  28.071  11.884
  622W        W65882  30.383  12.528   3.820
  623W        W65883  41.148  25.742   3.187
  624W        W65884  38.698   6.940   2.452
  625W        W65885  39.787  43.877   1.046
  626W        W65886  25.658  10.648   3.565
  627W        W65887  29.555  31.128  10.661
  628W        W65888  14.964  29.562  11.478
  629W        W65889  18.177  16.095   1.019
  630W        W65890  31.036  24.951  12.580
  631W        W65891   7.193  28.003   2.764
  632W        W65892   1.843  34.027  11.799
  633W        W65893  30.381  32.203  13.899
  634W        W65894  35.978  38.459   0.259
  635W        W65895   4.198   3.163  11.547
  636W        W65896  34.403  17.174   1.928
  637W        W65897   7.418   7.835   2.174
  638W        W65898  19.211   9.661   0.529
  639W        W65899  36.976  15.712   1.965
  640W        W65900  31.547   1.023  10.737
  641W        W65901  31.748  17.199  12.546
  642W        W65902  15.589  41.538   0.789
  643W        W65903  26.118   8.480  13.023
  644W        W65904  11.717  12.877  14.421
  645W        W65905   2.360   9.444  11.759
  646W        W65906   5.695  18.181  14.501
  647W        W65907  16.261   0.011  10.877
  648W        W65908  21.341   6.276  13.072
  649W        W65909   1.351  24.566   1.092
  650W        W65910  31.183  36.984   2.724
  651W        W65911  22.555  38.396  12.918
  652W        W65912   7.658  26.030   2.730
  653W        W65913  35.569  22.767   1.838
  654W        W65914  39.310  10.825  14.501
  655W        W65915   7.388  38.008  12.854
  656W        W65916  42.324   8.148  12.948
  657W        W65917  25.580  39.475   0.438
  658W        W65918  11.322  31.749   2.732
  659W        W65919  39.724  13.169   2.337
  660W        W65920   8.314  10.386  13.926
  661W        W65921  25.045   1.427   2.896
  662W        W65922  31.480  17.234   2.653
  663W        W65923   1.929   3.311  14.976
  664W        W65924  43.215   1.804  12.060
  665W        W65925  16.164  13.574   4.559
  666W        W65926   9.479   2.937  11.813
  667W        W65927  30.555  33.184   1.736
  668W        W65928   8.102  20.271  13.555
  669W        W65929  33.456  28.258   0.536
  670W        W65930  35.113  40.111  13.039
  671W        W65931  43.881  13.060   2.716
  672W        W65932   6.602  14.140   4.902
  673W        W65933  13.491  22.494   4.130
  674W        W65934  28.232  24.615  14.980
  675W        W65935  26.697   9.790  12.907
  676W        W65936  39.470  24.432   4.551
  677W        W65937  32.778   1.599   2.332
  678W        W65938  22.104   2.732   2.704
  679W        W65939  22.488   3.742  13.781
  680W        W65940  36.310  11.101   4.083
  681W        W65941  34.160  11.065  13.238
  682W        W65942  21.786   5.145  14.893
  683W        W65943   4.665  42.375   0.782
  684W        W65944  41.979  18.759  10.547
  685W        W65945   9.685  37.083   1.912
  686W        W65946  36.909  37.916  13.940
  687W        W65947  37.939   3.843  12.043
  688W        W65948  30.672  35.073   4.655
  689W        W65949   8.787  23.044  12.821
  690W        W65950  32.918  27.554   4.127
  691W        W65951  44.843  38.398   0.759
  692W        W65952   0.764  28.174   1.786
  693W        W65953  26.471  11.754  12.519
  694W        W65954   6.204  42.972   2.819
  695W        W65955   7.873  34.938  13.201
  696W        W65956  12.540  41.524   1.852
  697W        W65957  24.220  27.569   2.829
  698W        W65958   4.815  14.394   3.210
  699W        W65959  32.220  34.192   2.612
  700W        W65960  32.493   0.222  13.373
  701W        W65961  44.901  17.533   3.935
  702W        W65962  15.460  43.931  10.715
  703W        W65963  22.400   7.028  12.563
  704W        W65964  38.572   1.429  11.981
  705W        W65965   2.880  36.600  13.536
  706W        W65966  10.305  25.744  12.817
  707W        W65967  21.186   0.790  11.472
  708W        W65968  13.195   2.060   0.683
  709W        W65969  17.697  33.544   4.615
  710W        W65970  38.623   8.572   4.581
  711W        W65971  38.972   0.155   1.227
  712W        W65972  15.368  38.464  13.683
  713W        W65973   4.636  43.459   3.170
  714W        W65974  37.999  26.895  12.890
  715W        W65975  32.004  34.836  11.954
  716W        W65976   7.009  42.786  11.601
  717W        W65977  35.000  23.782  11.599
  718W        W65978  41.779  37.910   4.604
  719W        W65979   9.786  32.392  13.956
  720W        W65980  40.439  40.967  10.540
  721W        W65981   3.116  23.593  11.353
  722W        W65982  24.419  43.807  14.958
  723W        W65983  15.829  11.334   2.009
  724W        W65984   4.969  21.700   4.530
  725W        W65985  26.433  18.735  14.378
  726W        W65986  40.776  10.804   0.507
  727W        W65987  37.738  33.866   2.749
  728W        W65988  28.508  36.058   2.171
  729W        W65989  29.010  22.814   0.823
  730W        W65990  28.503  26.649  13.522
  731W        W65991  39.985  32.548  10.696
  732W        W65992  14.564  23.605   4.830
  733W        W65993  10.437  22.787   2.209
  734W        W65994  18.481  26.203  12.380
  735W        W65995  42.325  16.333  14.897
  736W        W65996  37.117  22.481   3.525
  737W        W65997   7.270  40.842   3.174
  738W        W65998   4.343   6.242   1.959
  739W        W65999  44.377  27.113  13.523
  740W        W66000  35.672  35.866   3.202
  741W        W66001  36.987  32.588  13.584
  742W        W66002   8.477  41.738   5.152
  743W        W66003  24.517  24.763   4.075
  744W        W66004  28.912  16.271  13.538
  745W        W66005  26.049  25.980  13.479
  746W        W66006  38.386   0.649   3.033
  747W        W66007  34.807  23.613  11.136
  748W        W66008   8.836   4.655  11.120
  749W        W66009   9.827   7.881   5.034
  750W        W66010   7.760  31.308   3.639
  751W        W66011  28.489  14.095   0.530
  752W        W66012  25.566  25.510   2.650
  753W        W66013   8.902   7.253  12.539
  754W        W66014  36.804  19.329  10.106
  755W        W66015  15.484   1.544   1.857
  756W        W66016   8.017  32.474  12.895
  757W        W66017  43.233  31.128   4.691
  758W        W66018  16.299  10.715   1.526
  759W        W66019  37.521  25.224   3.054
  760W        W66020  37.978  31.159   1.315
  761W        W66021  12.800  30.240   3.157
  762W        W66022  37.973  21.756  10.770
  763W        W66023  22.739  35.431   0.329
  764W        W66024  40.499  14.684   1.894
  765W        W66025   9.864  38.458  12.907
  766W        W66026  12.826   9.162  14.441
  767W        W66027  35.558  12.228   3.049
  768W        W66028  10.251  22.026  12.489
  769W        W66029  14.771   5.830   2.243
  770W        W66030  34.015  33.720  14.967
  771W        W66031  27.236   1.289   3.552
  772W        W66032  13.654  15.706   2.289
  773W        W66033  35.559   1.957   3.222
  774W        W66034  44.397  26.654   0.267
  775W        W66035  23.152   4.238   3.228
  776W        W66036  44.782  20.288  13.478
  777W        W66037  40.173  22.743  11.584
  778W        W66038  43.850  25.335   4.627
  779W        W66039  35.070   6.619  13.713
  780W        W66040  32.600  39.911  13.103
  781W        W66041  24.165  31.581  12.376
  782W        W66042  13.337  13.947   4.523
  783W        W66043  39.443  43.382  11.464
  784W        W66044  15.021  11.612   2.365
  785W        W66045   2.304  15.853  13.551
  786W        W66046  17.122  33.677   3.987
  787W        W66047  15.690  32.557  13.341
  788W        W66048  40.358  28.962   1.712
  789W        W66049   8.393  10.055  12.052
  790W        W66050   4.962  26.041  14.379
  791W        W66051  10.288  33.161   3.191
  792W        W66052   1.273  15.683   5.137
  793W        W66053  28.501  38.368   3.774
  794W        W66054  27.129   8.308   4.729
  795W        W66055  40.034   2.275  13.018
  796W        W66056   7.562   4.383  14.840
  797W        W66057  36.599  27.177  11.127
  798W        W66058  35.019   4.360  10.692
  799W        W66059  14.242  33.088  12.034
  800W        W66060  13.948  36.218   9.568
  801W        W66061   4.128   9.902   0.382
  802W        W66062  31.982   8.868  13.409
  803W        W66063  22.943  10.629  10.935
  804W        W66064  19.532  19.117  14.083
  805W        W66065   7.004  32.134   0.776
  806W        W66066  10.859  22.701  12.539
  807W        W66067  41.013  27.110  14.338
  808W        W66068   5.882  14.652   2.672
  809W        W66069  34.036   9.620  13.392
  810W        W66070  25.994  44.281  14.287
  811W        W66071  26.371  41.395   1.413
  812W        W66072   4.468   5.891   4.231
  813W        W66073  17.543  14.881  14.323
  814W        W66074  12.395  11.649  10.397
  815W        W66075  23.560  14.667  10.780
  816W        W66076  42.731  34.574  13.804
  817W        W66077  40.215   0.816  11.600
  818W        W66078  27.110  37.298   2.723
  819W        W66079  33.329  37.869   1.388
  820W        W66080  17.998  43.979  11.380
  821W        W66081   6.191  34.630   4.203
  822W        W66082  19.699  16.256  11.210
  823W        W66083  28.597  26.857  10.188
  824W        W66084  18.258  32.028  11.273
  825W        W66085  40.677  28.059  13.862
  826W        W66086  13.168   9.258   3.645
  827W        W66087  21.660   9.776   1.903
  828W        W66088  18.383  17.047   3.319
  829W        W66089   8.923   6.682   4.424
  830W        W66090   2.710  38.359  11.634
  831W        W66091  18.073   2.844  12.611
  832W        W66092   1.729  38.858  11.157
  833W        W66093   5.852  32.128   2.300
  834W        W66094   1.809  31.359  13.352
  835W        W66095  39.929  23.584   3.783
  836W        W66096  36.888  36.953   0.931
  837W        W66097   5.032  18.078  13.546
  838W        W66098   5.867   7.795   2.255
  839W        W66099  30.099  36.931  13.077
  840W        W66100  15.722  29.035  13.472
  841W        W66101  33.637  31.139  14.407
  842W        W66102  34.428  34.069   0.991
  843W        W66103   8.806  14.530   2.237
  844W        W66104   2.768  23.448  11.968
  845W        W66105  28.055  25.000   3.950
  846W        W66106  34.621  39.089   5.133
  847W        W66107  23.439  29.900  14.987
  848W        W66108   2.887  37.348  10.874
  849W        W66109  37.004  21.505   2.528
  850W        W66110  11.041  25.178   0.268
  851W        W66111  33.085  32.599   4.546
  852W        W66112  11.467   3.339  12.290
  853W        W66113  43.568  18.030  10.685
  854W        W66114  33.988  30.623  12.040
  855W        W66115  11.174  13.882   0.381
  856W        W66116  37.896  17.904   3.094
  857W        W66117   9.794   2.283  14.288
  858W        W66118  42.269  37.851   3.651
  859W        W66119  28.555   0.716  12.826
  860W        W66120  28.178  30.067   9.637
  861W        W66121  29.489  31.626  10.584
  862W        W66122  15.149  19.535  12.242
  863W        W66123  33.710  43.600   1.915
  864W        W66124  41.144  22.411   0.205
  865W        W66125  22.064  10.835   1.485
  866W        W66126  21.484  27.967  11.119
  867W        W66127   2.405  11.785  14.151
  868W        W66128  20.554  43.832   1.919
  869W        W66129  18.170  18.915   3.737
  870W        W66130   9.138  27.197   3.012
  871W        W66131  27.049  12.150  12.588
  872W        W66132   3.503  17.275   1.371
  873W        W66133  16.399  11.777   0.844
  874W        W66134  38.792  35.563   4.182
  875W        W66135  17.032   3.381  13.560
  876W        W66136  10.786   3.904  10.375
  877W        W66137  26.972   2.814   3.156
  878W        W66138  10.247  22.240  12.023
  879W        W66139  35.200  20.921   5.037
  880W        W66140  16.069   5.133   3.693
  881W        W66141  29.908  13.855  14.327
  882W        W66142   4.685  10.193   0.914
  883W        W66143  24.470   5.618  13.850
  884W        W66144  16.334  24.930  13.439
  885W        W66145  39.579  18.535  11.661
  886W        W66146  21.613  24.231   0.839
  887W        W66147  32.246  29.543   0.265
  888W        W66148  20.172   0.331  13.914
  889W        W66149  32.972  10.138  14.803
  890W        W66150  36.488  21.028   3.184
  891W        W66151  10.333  18.430   5.043
  892W        W66152   4.060  36.844   4.798
  893W        W66153  19.098  10.649   2.105
  894W        W66154  37.221   7.157  14.827
  895W        W66155   4.790   1.286   4.188
  896W        W66156  41.228  38.009   1.915
  897W        W66157  35.965  23.085   3.608
  898W        W66158  25.438  19.900   5.597
  899W        W66159  26.424  40.506  10.453
  900W        W66160  20.511  17.798  11.554
  901W        W66161  33.564  12.317   4.630
  902W        W66162  23.269  26.023  14.960
  903W        W66163  13.316  15.042  14.298
  904W        W66164  32.544  19.054  12.555
  905W        W66165   7.262  32.119  14.519
  906W        W66166  27.947  12.615  14.495
  907W        W66167  28.320   8.805   3.211
  908W        W66168  39.062  22.110  14.840
  909W        W66169   5.260  24.757  10.663
  910W        W66170   3.004  30.805  13.107
  911W        W66171   9.325  21.983   2.318
  912W        W66172   8.925  25.018   5.452
  913W        W66173  14.436  11.815  14.808
  914W        W66174  21.156  37.155  12.200
  915W        W66175  26.971  39.838  13.869
  916W        W66176  38.056  23.478   2.143
  917W        W66177   7.428  44.280   1.904
  918W        W66178  12.235  17.224   2.865
  919W        W66179  12.734  38.216   5.080
  920W        W66180  26.562  33.987   0.754
  921W        W66181  17.070  18.987   3.410
  922W        W66182   4.359  26.465   3.584
  923W        W66183  12.826  36.706   3.528
  924W        W66184  44.003  26.675   2.559
  925W        W66185   2.660  31.639   2.240
  926W        W66186  22.671  14.299  11.623
  927W        W66187  29.119  17.699  12.054
  928W        W66188  14.236   6.924   3.525
  929W        W66189  15.356  42.022  13.266
  930W        W66190  10.629  16.662   4.371
  931W        W66191  15.584  24.747   3.538
  932W        W66192  40.930  20.555  11.021
  933W        W66193  22.090  11.350  14.254
  934W        W66194  41.603  11.491  12.998
  935W        W66195  11.144  25.197  12.928
  936W        W66196  21.030   9.992   4.161
  937W        W66197   1.286  23.070  11.178
  938W        W66198  44.036  14.075  13.077
  939W        W66199  24.151  40.308   2.737
  940W        W66200  38.059  20.523  14.920
  941W        W66201  27.177   7.117   3.252
  942W        W66202   0.397  26.157   1.183
  943W        W66203  19.587  11.915   4.622
  944W        W66204  10.094  31.923  12.503
  945W        W66205  25.563   1.897  13.836
  946W        W66206  23.060  30.582   4.136
  947W        W66207   1.328  31.604  11.156
  948W        W66208  21.788  27.543  11.137
  949W        W66209  35.819  17.108  13.013
  950W        W66210  22.221  19.659   1.150
  951W        W66211  41.640  15.827  12.944
  952W        W66212  40.179  30.147   1.287
  953W        W66213   1.339   1.359  11.622
  954W        W66214  16.414   0.779   4.644
  955W        W66215   5.187  36.161   1.214
  956W        W66216  21.953  10.341   1.635
  957W        W66217   4.467  40.403   1.922
  958W        W66218   2.454   7.946  14.418
  959W        W66219  20.185  15.267   1.391
  960W        W66220  27.404  28.061   2.268
  961W        W66221   7.421  30.005  13.802
  962W        W66222  29.992  38.451  14.329
  963W        W66223  17.805  40.560  10.503
  964W        W66224   0.158  24.157   1.403
  965W        W66225  44.657  12.363  14.961
  966W        W66226  17.597   3.650   3.222
  967W        W66227  23.146  44.522  10.912
  968W        W66228   4.620  26.452   1.221
  969W        W66229   5.665   6.267  14.879
  970W        W66230  25.462  16.764   4.243
  971W        W66231   1.690  13.027   3.712
  972W        W66232  17.661  30.888   2.334
  973W        W66233   9.858  26.670  12.219
  974W        W66234  19.271  18.144   3.267
  975W        W66235  22.477  23.674  11.888
  976W        W66236  20.243  30.883  11.545
  977W        W66237  42.321  44.358   4.129
  978W        W66238  28.512   9.328  12.008
  979W        W66239  30.892  15.262   4.289
  980W        W66240   3.439  41.660  11.198
  981W        W66241  19.779  17.091   4.081
  982W        W66242   9.586  33.463   0.727
  983W        W66243  10.820  32.103   3.718
  984W        W66244  10.503  14.059   0.349
  985W        W66245  25.520  44.443  14.458
  986W        W66246  44.899  32.145  10.731
  987W        W66247  25.544  33.678   1.942
  988W        W66248   1.320  27.464  13.010
  989W        W66249  31.029   7.692   1.864
  990W        W66250  40.039  30.112  11.236
  991W        W66251   2.303   3.912  11.064
  992W        W66252  29.971  43.164   2.181
  993W        W66253  10.707  27.940   1.363
  994W        W66254  22.093  21.290   1.223
  995W        W66255  30.179  30.444   2.264
  996W        W66256   1.768  20.235  13.013
  997W        W66257  26.604  15.247   2.879
  998W        W66258  36.717  29.103   1.954
  999W        W66259   0.696  41.472  14.184
 1000W        W66260  22.590  39.561  12.356
 1001W        W66261   8.881  25.950  13.689
 1002W        W66262  39.679   1.407  11.159
 1003W        W66263  20.529  18.393   4.209
 1004W        W66264  16.582  14.433  13.808
 1005W        W66265  40.408  22.613  10.705
 1006W        W66266  18.738  41.294   1.678
 1007W        W66267  28.532  29.072   1.279
 1008W        W66268  33.622  33.063  12.913
 1009W        W66269  34.133  23.501   0.388
 1010W        W66270  43.422   4.725  12.529
 1011W        W66271  10.983   3.625   4.939
 1012W        W66272  32.186  27.662  10.691
 1013W        W66273   7.637   6.835   2.829
 1014W        W66274   2.084  36.370   4.549
 1015W        W66275  25.524   3.818  14.865
 1016W        W66276  43.229  33.538  13.905
 1017W        W66277  27.986  30.220  11.073
 1018W        W66278  35.771  25.901   5.727
 1019W        W66279  22.675  40.047   1.762
 1020W        W66280  26.684  34.195  13.901
 1021W        W66281  12.857   7.938   1.931
 1022W        W66282  15.766  41.304   3.880
 1023W        W66283  10.230  43.539   2.803
 1024W        W66284  31.691  14.739   4.731
 1025W        W66285   0.358   8.983  12.657
 1026W        W66286  43.132   7.154   4.129
 1027W        W66287   7.326  10.173  12.007
 1028W        W66288   0.331  10.393   2.709
 1029W        W66289  19.069  27.133  11.927
 1030W        W66290  33.195  38.429   4.367
 1031W        W66291  41.034  40.930   4.286
 1032W        W66292  16.481  36.636   4.299
 1033W        W66293  36.494  44.731   1.754
 1034W        W66294   0.532  20.282   3.511
 1035W        W66295  41.363  26.033  11.547
 1036W        W66296  27.957  15.140  10.401
 1037W        W66297  10.058  16.092  13.162
 1038W        W66298   4.153  27.174  11.543
 1039W        W66299  26.055  24.664  14.999
 1040W        W66300  33.019  23.108  10.666
 1041W        W66301  44.427   5.430   0.538
 1042W        W66302   4.408  32.315   0.277
 1043W        W66303  20.309  26.023  12.989
 1044W        W66304  16.204   1.865   1.121
 1045W        W66305  18.535  10.449  13.377
 1046W        W66306   2.413  17.185  14.420
 1047W        W66307  33.160  33.994   1.057
 1048W        W66308  44.863  31.909   4.058
 1049W        W66309  15.639  12.235  10.981
 1050W        W66310  37.847   5.465  11.162
 1051W        W66311   3.829  18.099  11.255
 1052W        W66312  33.625  28.700  13.034
 1053W        W66313  17.394  41.272   2.894
 1054W        W66314  25.651   7.467   9.888
 1055W        W66315  37.498  43.453   2.355
 1056W        W66316  31.285  28.369  13.817
 1057W        W66317  35.397  21.882   4.267
 1058W        W66318  12.687  12.225  10.907
 1059W        W66319  33.976  31.593  13.324
 1060W        W66320  31.831  10.211   2.258
 1061W        W66321  14.193  33.127  13.759
 1062W        W66322  33.939   3.717  11.367
 1063W        W66323   3.506  14.295   3.060
 1064W        W66324  20.744   7.203   1.745
 1065W        W66325  10.595  15.315  13.555
 1066W        W66326  31.164  27.089   1.399
 1067W        W66327  34.926   2.867   2.320
 1068W        W66328  41.975   2.923   2.474
 1069W        W66329  13.886  38.382   0.992
 1070W        W66330  13.411  44.019  13.352
 1071W        W66331  32.918   5.390  12.898
 1072W        W66332  23.251   6.577  12.074
 1073W        W66333  28.711   1.703  12.636
 1074W        W66334  33.295  12.898   3.450
 1075W        W66335  30.272  43.270   1.317
 1076W        W66336   4.399   6.352   0.347
 1077W        W66337  12.229  42.597  12.848
 1078W        W66338  31.606   7.354   4.009
 1079W        W66339  17.508  17.637  13.040
 1080W        W66340  32.948   4.378   2.791
 1081W        W66341  22.561  42.809   2.659
 1082W        W66342  35.062  20.004  12.445
 1083W        W66343  33.324  18.101  13.994
 1084W        W66344  44.976   6.337  12.715
 1085W        W66345  20.979  10.706   4.630
 1086W        W66346  43.967  16.695   2.907
 1087W        W66347  20.721  19.414   4.183
 1088W        W66348  15.239  41.919  11.757
 1089W        W66349  20.331  20.552   3.320
 1090W        W66350  31.357   6.062  13.514
 1091W        W66351  44.550   3.463  14.548
 1092W        W66352  30.013  18.744  13.572
 1093W        W66353  44.437  24.100   1.235
 1094W        W66354  30.056   9.818  10.582
 1095W        W66355  13.700  38.534  13.970
 1096W        W66356  33.608  19.200  11.766
 1097W        W66357  27.922  15.259   4.685
 1098W        W66358  42.425  19.906   2.932
 1099W        W66359  25.734   6.252  13.567
 1100W        W66360   0.012  21.123   0.016
 1101W        W66361  18.038  15.856   1.856
 1102W        W66362  35.132   0.259  14.431
 1103W        W66363  19.486  16.865   2.645
 1104W        W66364  11.370  30.935   3.322
 1105W        W66365  41.860   9.325  11.578
 1106W        W66366   5.100  21.635   2.738
 1107W        W66367  26.060  10.953  13.166
 1108W        W66368  28.586  25.829   2.754
 1109W        W66369  41.488  33.610  14.582
 1110W        W66370  25.968  16.429  14.560
 1111W        W66371  20.597  21.103   3.521
 1112W        W66372  34.110  21.228  11.131
 1113W        W66373  42.867  15.229   0.958
 1114W        W66374  37.889   7.193   3.645
 1115W        W66375  10.800  30.503   5.738
 1116W        W66376  15.716  26.548   0.782
 1117W        W66377   2.008   1.987  10.709
 1118W        W66378  34.155  15.042  12.064
 1119W        W66379  34.481  36.606  14.057
 1120W        W66380  19.764   7.179  10.739
 1121W        W66381  36.947  18.041  11.146
 1122W        W66382  13.715  10.834   3.193
 1123W        W66383   0.557  42.318  14.393
 1124W        W66384   3.684  12.598   4.826
 1125W        W66385  27.961   9.759  12.439
 1126W        W66386  23.178  20.035   3.968
 1127W        W66387  44.480  41.603   2.375
 1128W        W66388   5.717  21.985   0.866
 1129W        W66389   3.366  30.991  12.772
 1130W        W66390   2.380  19.314  14.313
 1131W        W66391  17.731   8.705  12.802
 1132W        W66392   8.143  12.313  10.985
 1133W        W66393  44.884  18.791   0.046
 1134W        W66394  27.018  19.701   2.208
 1135W        W66395  42.425  18.150  14.337
 1136W        W66396  24.738  29.735   3.979
 1137W        W66397  19.038  27.099   4.299
 1138W        W66398  39.348  41.231  14.600
 1139W        W66399  18.506   2.267   3.160
 1140W        W66400  30.880   0.539  13.357
 1141W        W66401  34.358  11.828   0.317
 1142W        W66402   1.701  22.192   3.551
 1143W        W66403  37.339  16.702  11.650
 1144W        W66404   6.827  43.202  12.895
 1145W        W66405   5.397  25.419  12.043
 1146W        W66406   1.910  22.979   1.284
 1147W        W66407  42.976  21.516   2.756
 1148W        W66408   2.480   0.223   2.502
 1149W        W66409  35.314  24.061  10.608
 1150W        W66410  33.433  33.400  12.190
 1151W        W66411  32.935   7.483   0.726
 1152W        W66412  20.182   6.360   2.614
 1153W        W66413   5.763  32.208   1.132
 1154W        W66414  38.434  20.011   4.199
 1155W        W66415  43.798  15.637   2.464
 1156W        W66416  10.100  25.125   4.801
 1157W        W66417  23.002  36.030   0.711
 1158W        W66418   0.671  17.869   1.252
 1159W        W66419  39.844   0.841   4.151
 1160W        W66420  13.786  19.758  11.843
 1161W        W66421  29.417  37.411  10.750
 1162W        W66422  24.954   8.063   4.500
 1163W        W66423  10.799  40.228   2.582
 1164W        W66424  10.258   5.456  11.528
 1165W        W66425   0.981  34.621   1.879
 1166W        W66426  11.693   8.883   4.811
 1167W        W66427  20.044  29.092   1.324
 1168W        W66428  11.864  35.557   3.926
 1169W        W66429  43.708  28.348  10.958
 1170W        W66430   3.943  44.780  14.389
 1171W        W66431  25.417   9.155   1.488
 1172W        W66432   1.902   9.184   2.834
 1173W        W66433  15.145  41.039   4.283
 1174W        W66434   0.814  16.226   3.069
 1175W        W66435  13.763  13.272  12.567
 1176W        W66436   2.283  18.281   0.847
 1177W        W66437  33.605  17.347   2.698
 1178W        W66438  28.682   4.042  14.474
 1179W        W66439  30.440  32.513  13.466
 1180W        W66440  40.827  23.266  10.483
 1181W        W66441   4.726  36.643   4.235
 1182W        W66442  40.571  23.536  13.217
 1183W        W66443  23.438  18.145  14.359
 1184W        W66444  42.581  16.570   3.596
 1185W        W66445  11.530  20.763   0.835
 1186W        W66446  16.010  11.794  12.527
 1187W        W66447   5.267  31.821   2.885
 1188W        W66448   1.066  38.858   4.672
 1189W        W66449   5.774  30.198   1.964
 1190W        W66450  30.164  29.103  13.073
 1191W        W66451  30.570  36.407  14.837
 1192W        W66452  36.528  18.584   1.294
 1193W        W66453  26.489  23.319  11.217
 1194W        W66454   9.293  40.258  10.784
 1195W        W66455  10.239  20.572  11.569
 1196W        W66456   9.504  33.411  10.273
 1197W        W66457  33.375  16.822  13.847
 1198W        W66458  14.308  40.375  12.866
 1199W        W66459  11.760  43.913   2.554
 1200W        W66460  22.746  31.460  10.387
 1201W        W66461  13.231  27.161   2.269
 1202W        W66462  44.500  43.231  13.335
 1203W        W66463  44.422  38.950   5.061
 1204W        W66464  27.422  43.340  12.758
 1205W        W66465  29.600  18.005  13.897
 1206W        W66466  29.925  17.788   0.151
 1207W        W66467  41.067  36.913   3.770
 1208W        W66468  17.851  22.630  10.714
 1209W        W66469  33.240  44.318  10.756
 1210W        W66470  23.452  15.178   2.487
 1211W        W66471   3.885  23.217   3.215
 1212W        W66472  21.586  16.146   4.178
 1213W        W66473  15.788  15.180   0.659
 1214W        W66474  40.764  33.388   1.342
 1215W        W66475  37.081  34.080   1.260
 1216W        W66476  15.188  16.563   4.661
 1217W        W66477  18.751  15.766   2.352
 1218W        W66478  43.892  13.361   2.282
 1219W        W66479  38.529  11.829  12.127
 1220W        W66480   5.794  19.278   1.394
 1221W        W66481  24.427  41.757   0.427
 1222W        W66482  37.810  37.243  10.404
 1223W        W66483  27.775  31.085  11.495
 1224W        W66484   7.421  16.549  11.117
 1225W        W66485  37.030  17.598  12.813
 1226W        W66486  25.996  31.832   3.854
 1227W        W66487  24.442  20.173   4.529
 1228W        W66488  28.176  39.086   3.777
 1229W        W66489  29.523  26.622  14.071
 1230W        W66490  38.752  35.366   0.287
 1231W        W66491  27.722   1.436   3.898
 1232W        W66492  17.694   4.320  14.025
 1233W        W66493   5.285  20.590  11.355
 1234W        W66494  33.389  14.310   3.820
 1235W        W66495  36.546  12.628   0.324
 1236W        W66496  10.765  25.428  12.105
 1237W        W66497   0.722  44.916  13.963
 1238W        W66498   4.000  24.014  12.111
 1239W        W66499  16.069  20.112   0.455
 1240W        W66500  30.386  10.309  13.233
 1241W        W66501   3.843  23.704   0.995
 1242W        W66502  30.930  41.573   4.015
 1243W        W66503  33.485  19.676  11.493
 1244W        W66504  20.252  31.248   3.154
 1245W        W66505   9.814  44.135  14.461
 1246W        W66506  29.120  32.472   4.440
 1247W        W66507  31.506  29.739   0.977
 1248W        W66508  31.395   4.568   4.870
 1249W        W66509   1.466  28.467  14.543
 1250W        W66510  13.380  27.545  12.458
 1251W        W66511  23.035  11.711  10.520
 1252W        W66512  44.973   5.832   4.118
 1253W        W66513  44.305  26.993  10.651
 1254W        W66514  42.344  14.198  14.055
 1255W        W66515  30.748  43.527   1.327
 1256W        W66516  36.167  34.971   1.702
 1257W        W66517  11.653   7.393   3.118
 1258W        W66518  17.533  20.140  13.551
 1259W        W66519  29.976  20.571   4.309
 1260W        W66520  15.732  35.375  11.013
 1261W        W66521  13.248  19.931  12.624
 1262W        W66522  18.676  39.273   1.362
 1263W        W66523  13.307  42.250   0.907
 1264W        W66524  15.686   4.382  11.544
 1265W        W66525  19.478  43.146   2.694
 1266W        W66526  16.504  20.748  13.426
 1267W        W66527  23.740  14.662  11.628
 1268W        W66528  24.009  25.580   0.850
 1269W        W66529   4.487  16.983  14.833
 1270W        W66530  41.478  35.886  10.599
 1271W        W66531  33.632   3.317   0.815
 1272W        W66532  20.796   5.443  14.839
 1273W        W66533   2.754  39.867   1.254
 1274W        W66534  40.030   4.865   2.611
 1275W        W66535  15.770   7.303  10.304
 1276W        W66536  30.442   3.904   1.877
 1277W        W66537  10.743  31.848  12.806
 1278W        W66538  31.079   4.813   9.857
 1279W        W66539  29.055   5.551  14.903
 1280W        W66540   7.180  20.754  11.901
 1281W        W66541  22.554  29.842  11.587
 1282W        W66542  12.263  34.961   3.311
 1283W        W66543  22.974   9.926  12.134
 1284W        W66544   9.819  38.786   4.324
 1285W        W66545  19.235  23.101   2.266
 1286W        W66546  43.942   1.321  10.605
 1287W        W66547  38.276  12.149   1.201
 1288W        W66548  16.378  28.067   1.874
 1289W        W66549   9.237  27.421  13.132
 1290W        W66550  38.308   7.293  10.746
 1291W        W66551   9.877  12.458   2.225
 1292W        W66552  13.563  13.531  11.168
 1293W        W66553  40.978   1.492   3.345
 1294W        W66554  21.165  30.956   1.355
 1295W        W66555  21.481  28.411   4.586
 1296W        W66556  26.199  17.366  13.233
 1297W        W66557   9.426   0.196  11.704
 1298W        W66558  36.565   3.280   1.871
 1299W        W66559  15.825  12.534  13.042
 1300W        W66560  19.031  28.215  13.506
 1301W        W66561  32.985  42.730   4.819
 1302W        W66562  10.316   7.966   1.134
 1303W        W66563  40.537  34.871   3.370
 1304W        W66564  35.942  29.032  12.638
 1305W        W66565  17.333   2.871  14.818
 1306W        W66566  24.729  31.356  11.572
 1307W        W66567   9.436   7.088   0.499
 1308W        W66568  29.068  36.545  12.598
 1309W        W66569  33.779  12.337   2.841
 1310W        W66570  28.174  10.446   3.778
 1311W        W66571  16.150  42.524  13.067
 1312W        W66572   0.485   8.928   4.424
 1313W        W66573   3.881  20.434  11.160
 1314W        W66574  12.875  35.180   2.447
 1315W        W66575  40.291  37.208   3.378
 1316W        W66576  42.696  44.762  13.990
 1317W        W66577  42.861  33.599   9.916
 1318W        W66578  20.173   0.320  14.861
 1319W        W66579   2.351  42.959  14.912
 1320W        W66580   0.924  34.845   2.371
 1321W        W66581  31.958  23.990  11.607
 1322W        W66582  25.866  18.632   1.783
 1323W        W66583  19.043   5.470  12.509
 1324W        W66584   6.387  23.230   2.957
 1325W        W66585  17.705   7.805  13.756
 1326W        W66586  26.463   9.346   2.288
 1327W        W66587  13.637   9.919  11.198
 1328W        W66588  17.439  28.090   1.014
 1329W        W66589  11.732  28.900  11.719
 1330W        W66590  24.799  15.799   2.037
 1331W        W66591   8.945  30.041  13.918
 1332W        W66592  39.774   2.490  11.329
 1333W        W66593  40.373  33.457   3.513
 1334W        W66594  28.201  27.375  11.032
 1335W        W66595  29.058  21.980   4.844
 1336W        W66596  29.098  22.334   1.896
 1337W        W66597  10.296  43.292  11.418
 1338W        W66598  21.185  35.079  10.271
 1339W        W66599  34.111  38.558   4.899
 1340W        W66600   6.691  28.683   3.119
 1341W        W66601   4.768  39.798  14.227
 1342W        W66602   5.035   6.051  14.258
 1343W        W66603  14.832   4.824   3.761
 1344W        W66604  32.235   4.900  12.505
 1345W        W66605   0.971  10.143   4.449
 1346W        W66606  38.631  33.780   2.179
 1347W        W66607  40.367  42.750  12.900
 1348W        W66608  39.199  28.616  12.391
 1349W        W66609   9.267  25.709  13.951
 1350W        W66610  35.032  26.054  10.611
 1351W        W66611  20.584  30.466   4.401
 1352W        W66612   9.562   8.235   1.016
 1353W        W66613   1.438  31.511  12.105
 1354W        W66614  32.929   5.702  14.312
 1355W        W66615  20.634   8.478  12.061
 1356W        W66616  11.799  17.768  14.940
 1357W        W66617  38.421  36.803  14.494
 1358W        W66618   6.796  18.025  11.879
 1359W        W66619  42.134  11.422   1.745
 1360W        W66620  23.589   5.961  11.506
 1361W        W66621  37.982  38.777  11.588
 1362W        W66622  42.410  29.537  12.173
 1363W        W66623  14.845   6.392   2.785
 1364W        W66624  27.420  44.352  10.990
 1365W        W66625  23.630  43.891   4.656
 1366W        W66626  11.930  27.547   1.554
 1367W        W66627  35.332  36.975  10.750
 1368W        W66628  28.518  26.790   2.674
 1369W        W66629  40.977  41.889   4.557
 1370W        W66630  37.056  11.564   4.247
 1371W        W66631  15.605  14.749  13.979
 1372W        W66632  44.374  43.583  10.744
 1373W        W66633  24.090  39.789   1.878
 1374W        W66634  31.628  26.218  12.091
 1375W        W66635  21.059  29.504   5.092
 1376W        W66636  22.484  27.226  13.540
 1377W        W66637   0.027  40.451   4.352
 1378W        W66638  14.655   2.927   1.745
 1379W        W66639   2.334  35.357  14.759
 1380W        W66640  12.801  39.994  13.268
 1381W        W66641  21.717  41.878   0.271
 1382W        W66642  22.046  26.188   1.601
 1383W        W66643   9.390  17.091   1.350
 1384W        W66644   4.534  20.756  12.467
 1385W        W66645  18.805  12.644  14.994
 1386W        W66646  19.802  37.477   1.380
 1387W        W66647  14.309  27.953   3.237
 1388W        W66648  17.661  19.056  14.477
 1389W        W66649  42.271  38.088  14.215
 1390W        W66650  22.712  12.998  10.677
 1391W        W66651  10.557  22.945  11.152
 1392W        W66652  30.920  41.813   3.202
 1393W        W66653  33.524   6.423   4.588
 1394W        W66654  37.884   5.026  13.142
 1395W        W66655  34.557  17.776  13.920
 1396W        W66656  29.525  36.229   4.021
 1397W        W66657  32.769  44.137   2.663
 1398W        W66658  36.590  19.180   4.627
 1399W        W66659   7.343   4.003  12.694
 1400W        W66660  29.637  29.108  11.372
 1401W        W66661  39.310  27.699   4.614
 1402W        W66662  16.195  14.383  14.183
 1403W        W66663  30.554  31.606   0.015
 1404W        W66664  42.791   5.245  12.333
 1405W        W66665  40.256  35.402   1.597
 1406W        W66666   5.624  30.554   1.626
 1407W        W66667  13.674  43.286  13.887
 1408W        W66668  14.033  38.916   3.410
 1409W        W66669   9.306  36.757   0.817
 1410W        W66670  27.930  37.735   2.788
 1411W        W66671   5.393  15.366  10.753
 1412W        W66672  29.742  30.954   0.834
 1413W        W66673   9.315  27.279   3.995
 1414W        W66674  12.938  29.052   4.752
 1415W        W66675   5.430  39.411   4.303
 1416W        W66676   4.051  26.636   4.662
 1417W        W66677  28.652  31.112  10.971
 1418W        W66678  35.376  26.590  12.510
 1419W        W66679  17.791  16.446  14.207
 1420W        W66680  27.573  27.378  12.116
 1421W        W66681   1.239   8.431  11.573
 1422W        W66682   3.451  14.846  13.464
 1423W        W66683  24.074  22.557  14.776
 1424W        W66684   4.587   0.748  14.908
 1425W        W66685  35.525  43.757   2.745
 1426W        W66686  33.448  14.672  10.727
 1427W        W66687  10.766  14.326  14.311
 1428W        W66688  18.453  40.903   4.289
 1429W        W66689  16.178  36.439   1.821
 1430W        W66690  17.217  16.012   0.396
 1431W        W66691   3.964  35.323  12.860
 1432W        W66692   3.774   6.343   3.242
 1433W        W66693  15.138   9.536   2.405
 1434W        W66694  10.927  14.157   3.231
 1435W        W66695  27.926   0.225   3.636
 1436W        W66696  15.578  44.886  10.733
 1437W        W66697  28.079  17.996   1.795
 1438W        W66698   9.443  16.101   3.406
 1439W        W66699  26.997  24.039  13.747
 1440W        W66700  12.552  35.504   2.194
 1441W        W66701  42.095  20.246   3.451
 1442W        W66702  26.160  30.241  11.900
 1443W        W66703  12.080  19.174  11.955
 1444W        W66704  25.652   0.434  11.073
 1445W        W66705  11.793  39.086   3.305
 1446W        W66706  44.534  33.554   1.004
 1447W        W66707   8.226  23.322   0.242
 1448W        W66708  44.372  31.828  13.011
 1449W        W66709  20.707  29.378  12.031
 1450W        W66710  16.575  41.414  13.314
 1451W        W66711  40.753  29.271   1.801
 1452W        W66712  12.356  17.948   4.547
 1453W        W66713  26.059  41.849   0.936
 1454W        W66714  29.003  23.649  11.122
 1455W        W66715  22.064  10.150  12.649
 1456W        W66716  18.964  40.344   0.895
 1457W        W66717   9.094   5.648   3.269
 1458W        W66718  24.661  15.883  10.120
 1459W        W66719  34.087  33.624  14.429
 1460W        W66720   1.963   2.338  13.840
 1461W        W66721  36.760  24.628  11.373
 1462W        W66722  32.200   8.648   1.419
 1463W        W66723  41.262  40.871   0.472
 1464W        W66724  30.175   0.567  10.880
 1465W        W66725  26.935  24.010   3.747
 1466W        W66726  25.532   4.271  14.426
 1467W        W66727  39.464  42.948   2.857
 1468W        W66728  12.350  17.916   0.336
 1469W        W66729  35.411  11.796  12.623
 1470W        W66730   1.235   0.848   3.617
 1471W        W66731   8.283  34.970  14.438
 1472W        W66732  29.152  40.263  10.521
 1473W        W66733  36.206  38.766   4.294
 1474W        W66734  28.115  17.198  11.260
 1475W        W66735  11.796  39.087  13.035
 1476W        W66736  35.175  27.198   4.748
 1477W        W66737  21.029  19.811  14.450
 1478W        W66738   2.462  17.752  12.680
 1479W        W66739  33.920  39.541  13.178
 1480W        W66740  12.755  19.885   4.586
 1481W        W66741  13.807   2.771  13.027
 1482W        W66742  13.239   0.383   1.712
 1483W        W66743   5.385   4.057   3.217
 1484W        W66744  24.612   9.363   0.054
 1485W        W66745  39.235   4.332  12.030
 1486W        W66746  36.869  23.084   4.142
 1487W        W66747   5.374  41.890   0.943
 1488W        W66748  17.031  18.759   2.844
 1489W        W66749   4.129   3.506   3.709
 1490W        W66750   9.203  42.536  14.873
 1491W        W66751  33.129  16.974  13.027
 1492W        W66752  20.317  19.080  14.744
 1493W        W66753  32.665  31.598   1.389
 1494W        W66754  19.146   4.774   1.894
 1495W        W66755  32.126  17.520  13.331
 1496W        W66756  29.120  27.562   4.085
 1497W        W66757   0.486  43.997   1.164
 1498W        W66758  34.863  16.709  12.034
 1499W        W66759  16.007  43.904   0.476
 1500W        W66760  22.757  38.537   1.451
 1501W        W66761  31.673  26.632  13.402
 1502W        W66762   6.788  23.008  14.265
 1503W        W66763  28.151  40.567   1.782
 1504W        W66764  23.380  30.186   2.302
 1505W        W66765   7.776  40.319  12.111
 1506W        W66766  11.173  30.786   3.773
 1507W        W66767  15.192   0.162   3.656
 1508W        W66768  16.548  42.632   0.294
 1509W        W66769  20.577  39.974   1.280
 1510W        W66770  35.519   6.930   4.548
 1511W        W66771   2.232  37.906   0.903
 1512W        W66772  20.574  25.603   3.729
 1513W        W66773  21.308   4.481  13.866
 1514W        W66774  18.209   9.801   1.248
 1515W        W66775   0.864  40.455  11.575
 1516W        W66776  39.472  11.427  14.020
 1517W        W66777  30.725  44.985   1.391
 1518W        W66778  28.062  16.724  13.716
 1519W        W66779  32.926  10.119   3.175
 1520W        W66780  11.867  24.014  13.356
 1521W        W66781  44.970  44.782   1.884
 1522W        W66782   5.388  42.350   3.917
 1523W        W66783  13.136  40.121  12.393
 1524W        W66784  21.056  13.716  12.006
 1525W        W66785   4.341  21.599   1.275
 1526W        W66786  34.435   8.973   1.882
 1527W        W66787  41.903  14.314  13.004
 1528W        W66788   6.477  30.627   0.734
 1529W        W66789   3.017  19.764   0.723
 1530W        W66790  21.453   6.006   1.139
 1531W        W66791  31.655  44.092  14.387
 1532W        W66792   2.778  38.973  10.855
 1533W        W66793  11.914  26.129   1.668
 1534W        W66794  41.853  30.151  12.593
 1535W        W66795  22.311  22.531   0.807
 1536W        W66796  40.466  14.627  10.578
 1537W        W66797   8.919   7.246  14.772
 1538W        W66798  20.642  26.940  12.091
 1539W        W66799  16.173  12.327   2.768
 1540W        W66800  12.629  19.462   3.720
 1541W        W66801  43.889  41.706   1.342
 1542W        W66802  17.977  35.702  12.112
 1543W        W66803  12.643  18.559   2.763
 1544W        W66804   1.366   2.932   2.639
 1545W        W66805   7.689  21.726   0.871
 1546W        W66806  11.874  12.406   4.095
 1547W        W66807  38.697   4.201  13.471
 1548W        W66808  30.069  40.738  13.385
 1549W        W66809   8.931  34.003   3.679
 1550W        W66810  32.184  24.613  11.984
 1551W        W66811  40.850  34.473  10.619
 1552W        W66812   2.754   7.898   3.893
 1553W        W66813  18.615  21.154   1.829
 1554W        W66814   7.493  29.857  10.590
 1555W        W66815  31.840  30.535   4.550
 1556W        W66816  16.756  26.109   4.028
 1557W        W66817  35.356  30.768   2.837
 1558W        W66818  11.308  39.488  12.887
 1559W        W66819  30.961  21.538  14.321
 1560W        W66820  28.641  20.191   2.298
 1561W        W66821  15.527  35.097   0.343
 1562W        W66822  39.065   1.385   3.875
 1563W        W66823  42.019   9.518   4.214
 1564W        W66824   7.568   5.660   3.904
 1565W        W66825  30.554   7.738  11.875
 1566W        W66826  33.523   2.271   4.227
 1567W        W66827  16.258  44.345   4.495
 1568W        W66828  25.603   6.014  13.988
 1569W        W66829  39.892  10.629  11.013
 1570W        W66830  32.105   0.703   0.970
 1571W        W66831   5.657  15.804  10.694
 1572W        W66832  41.982   9.792  11.773
 1573W        W66833   9.777   2.279  12.453
 1574W        W66834  10.324  24.262   3.156
 1575W        W66835  27.701  32.563   4.307
 1576W        W66836  25.857  24.030   4.657
 1577W        W66837   2.290  23.654  14.899
 1578W        W66838  29.488  33.861  12.504
 1579W        W66839  38.878  35.758   2.766
 1580W        W66840  16.263  36.641  14.866
 1581W        W66841  27.210  44.977  12.105
 1582W        W66842  35.535  25.650   1.991
 1583W        W66843  33.596  42.202   1.428
 1584W        W66844   8.841  29.160  14.260
 1585W        W66845  10.160   6.223   4.481
 1586W        W66846  25.416  21.601   0.662
 1587W        W66847  30.875  40.345  11.864
 1588W        W66848  25.129  12.695   2.831
 1589W        W66849  10.635  38.108   3.797
 1590W        W66850  37.899  17.208   3.705
 1591W        W66851  30.816   5.806  10.612
 1592W        W66852  25.596  42.975  14.768
 1593W        W66853   6.314  30.768  13.750
 1594W        W66854  21.769  20.619  14.368
 1595W        W66855  18.802  21.497  12.552
 1596W        W66856  21.612  36.940  12.080
 1597W        W66857  38.392   4.411  13.866
 1598W        W66858  37.331  14.253  14.544
 1599W        W66859  16.580  29.639  12.874
 1600W        W66860   9.346  23.191   2.733
 1601W        W66861  39.410   0.916  12.914
 1602W        W66862  17.644  14.726  13.832
 1603W        W66863  20.579  41.791  12.715
 1604W        W66864  42.388  39.622   0.388
 1605W        W66865  17.539  10.706   4.615
 1606W        W66866  24.557  16.606   2.280
 1607W        W66867  34.167   6.838  12.045
 1608W        W66868  23.714  36.321   2.240
 1609W        W66869  44.356   3.515  10.088
 1610W        W66870  19.040  29.446  11.655
 1611W        W66871  33.771  31.332   2.814
 1612W        W66872  15.560  18.053  11.908
 1613W        W66873  43.074   5.784  12.151
 1614W        W66874  22.059  21.432  11.666
 1615W        W66875   2.837  32.297  10.706
 1616W        W66876  20.968  27.874  11.128
 1617W        W66877  24.102  26.618   2.872
 1618W        W66878  13.815  38.491   2.374
 1619W        W66879  40.658  33.562   2.160
 1620W        W66880  34.871  25.084   2.640
 1621W        W66881   0.214   4.640   3.073
 1622W        W66882  25.971  38.336  13.910
 1623W        W66883  18.137  20.171  14.400
 1624W        W66884  29.413  10.282  11.033
 1625W        W66885  39.815  43.883   0.535
 1626W        W66886  42.289  12.728   0.679
 1627W        W66887  35.871  29.979   3.218
 1628W        W66888   6.533  17.638  14.317
 1629W        W66889  35.985  29.218  12.157
 1630W        W66890  30.551  38.489   4.079
 1631W        W66891  36.878  19.840   1.389
 1632W        W66892  36.315  24.706  10.106
 1633W        W66893   5.781  31.907   1.638
 1634W        W66894  19.008  25.583   1.412
 1635W        W66895  32.167  37.576   4.086
 1636W        W66896  36.403  12.142   4.376
 1637W        W66897   9.673  32.952  13.083
 1638W        W66898   6.971  11.283   0.820
 1639W        W66899   5.742  24.756  14.348
 1640W        W66900   2.477  11.336  13.878
 1641W        W66901  19.387  25.035   3.656
 1642W        W66902  27.434  34.917   1.606
 1643W        W66903  10.212  40.480   1.421
 1644W        W66904   6.848  11.575   2.633
 1645W        W66905  24.516  23.321   1.086
 1646W        W66906   6.774   0.375  11.515
 1647W        W66907  36.025  38.457  14.700
 1648W        W66908   4.277  29.447  12.968
 1649W        W66909  13.384  33.017  14.747
 1650W        W66910   5.269  30.304   3.034
 1651W        W66911  23.755  10.843   0.105
 1652W        W66912  34.583  16.747  14.013
 1653W        W66913  38.423   4.859  11.999
 1654W        W66914  30.193  18.508  14.000
 1655W        W66915  29.968  39.469   2.016
 1656W        W66916  38.351  41.786  12.008
 1657W        W66917  23.582  16.159  12.032
 1658W        W66918  19.216   5.692  14.245
 1659W        W66919   9.273  31.396   4.100
 1660W        W66920  36.532  15.233  11.977
 1661W        W66921  14.827  43.980  13.549
 1662W        W66922   8.896  23.675  12.195
 1663W        W66923  43.890  28.113   1.656
 1664W        W66924   8.239  17.627   3.575
 1665W        W66925  29.024  12.669   1.337
 1666W        W66926  26.177  28.716  13.232
 1667W        W66927  29.722  42.471   3.285
 1668W        W66928  35.178  30.642  12.935
 1669W        W66929  31.285  39.480  10.727
 1670W        W66930  34.085   2.840  12.942
 1671W        W66931  16.615   3.019   0.943
 1672W        W66932  18.649  42.019  13.936
 1673W        W66933   6.140  38.826   0.230
 1674W        W66934  21.764  32.041   0.961
 1675W        W66935  15.664  42.012  10.629
 1676W        W66936  34.027  13.249  11.004
 1677W        W66937  38.044  18.055  12.111
 1678W        W66938   8.889  29.787   4.627
 1679W        W66939  43.231  38.859   4.190
 1680W        W66940  31.590   9.907   1.325
 1681W        W66941  12.862  44.250   4.619
 1682W        W66942   3.224   6.346  11.866
 1683W        W66943  16.094   0.341  12.895
 1684W        W66944  39.967   6.711   4.602
 1685W        W66945  27.499  40.555   2.500
 1686W        W66946  18.411  41.552  10.734
 1687W        W66947  10.364  31.779   1.705
 1688W        W66948  17.145  29.476  12.464
 1689W        W66949  24.584   3.429   3.310
 1690W        W66950  14.490  10.279   3.179
 1691W        W66951   7.825   4.775  10.358
 1692W        W66952  12.607  35.694   0.782
 1693W        W66953   8.162  19.067   2.894
 1694W        W66954  21.744   9.759  12.664
 1695W        W66955  12.797  23.596   1.288
 1696W        W66956  32.983   0.833   0.981
 1697W        W66957   9.793   1.883   4.376
 1698W        W66958  42.875  40.909  12.158
 1699W        W66959  37.983  25.407  12.956
 1700W        W66960   2.502   1.060   2.730
 1701W        W66961   6.319  23.537   1.672
 1702W        W66962   1.745  15.074  11.172
 1703W        W66963  24.309  44.818  12.109
 1704W        W66964  21.708  29.464   2.479
 1705W        W66965  12.590   3.303   3.632
 1706W        W66966  31.588  35.606   0.926
 1707W        W66967   3.254  13.761  12.596
 1708W        W66968  36.521   2.498  14.033
 1709W        W66969  18.401  11.387  11.055
 1710W        W66970  38.816  17.784  12.434
 1711W        W66971   2.393  28.711   2.663
 1712W        W66972   8.451   4.633  12.416
 1713W        W66973   8.946  16.654  14.230
 1714W        W66974  26.705  41.230  10.089
 1715W        W66975  38.606  20.680  13.893
 1716W        W66976  24.419  11.236  14.096
 1717W        W66977  36.272  17.984  14.945
 1718W        W66978  21.982  10.287   2.143
 1719W        W66979  36.867   3.799  11.993
 1720W        W66980  42.948  22.955   2.858
 1721W        W66981   2.135  40.630   4.136
 1722W        W66982  19.728   9.832   1.823
 1723W        W66983  21.588  13.398  13.613
 1724W        W66984   1.972  20.830   1.722
 1725W        W66985   0.334  13.373   1.849
 1726W        W66986  16.997   4.890   2.312
 1727W        W66987  12.100  11.429  12.047
 1728W        W66988  35.331  21.577  11.476
 1729W        W66989  40.456   9.652   1.203
 1730W        W66990  23.977  42.792   0.880
 1731W        W66991  32.902  24.202  14.512
 1732W        W66992  10.113   8.711   2.924
 1733W        W66993  12.341  41.220   1.375
 1734W        W66994  42.148  24.443  12.037
 1735W        W66995  44.960  32.438  11.492
 1736W        W66996  14.288   5.641   4.509
 1737W        W66997   8.420  38.944   2.729
 1738W        W66998   6.126  44.186  12.405
 1739W        W66999  20.173   6.178   2.135
 1740W        W67000  10.698   2.768   0.245
 1741W        W67001   3.200  10.306  12.494
 1742W        W67002  41.549  14.743   2.372
 1743W        W67003  34.100  16.990   4.050
 1744W        W67004  31.848  35.010   3.654
 1745W        W67005  24.510  39.314   3.264
 1746W        W67006  43.651   1.888   0.187
 1747W        W67007  23.587  26.648  10.926
 1748W        W67008  33.123  40.069  11.210
 1749W        W67009  31.875  31.917  11.999
 1750W        W67010  17.012  29.905  12.710
 1751W        W67011  27.521  33.491  13.757
 1752W        W67012   5.275  11.847   4.680
 1753W        W67013  37.121   6.523   0.840
 1754W        W67014  44.864   6.861   3.618
 1755W        W67015   5.032  26.204  12.965
 1756W        W67016  28.012  28.103  10.565
 1757W        W67017   0.393  10.247  11.945
 1758W        W67018  39.575   7.329  11.268
 1759W        W67019  27.685  26.340  12.376
 1760W        W67020  11.978   2.436   2.227
 1761W        W67021  39.256  31.555  14.985
 1762W        W67022  18.760  43.860   3.569
 1763W        W67023  27.919   4.835   1.210
 1764W        W67024   8.661   0.735  11.924
 1765W        W67025   8.356   6.290  10.352
 1766W        W67026  23.736   8.146  10.613
 1767W        W67027   0.431  36.870  12.013
 1768W        W67028  17.264  43.062  13.646
 1769W        W67029  31.997   7.889  11.045
 1770W        W67030  43.049  32.429  10.555
 1771W        W67031  35.816  18.996   2.291
 1772W        W67032  22.530  12.256   0.509
 1773W        W67033  20.630  16.592   3.816
 1774W        W67034  38.011  21.293   0.802
 1775W        W67035  28.882  18.708   3.753
 1776W        W67036  26.693  36.034  10.486
 1777W        W67037  30.748   9.740  12.025
 1778W        W67038  32.572   0.461   2.782
 1779W        W67039  16.121  25.294  10.709
 1780W        W67040  13.827  20.097   4.878
 1781W        W67041  29.485  42.318   2.402
 1782W        W67042  33.069  37.493  14.308
 1783W        W67043   8.186  36.026  11.281
 1784W        W67044   6.189   8.825   2.648
 1785W        W67045  23.511  31.647   3.772
 1786W        W67046  10.655  40.744  14.382
 1787W        W67047  40.581  31.920   0.627
 1788W        W67048  17.627  37.840  13.135
 1789W        W67049  25.937  12.578  14.432
 1790W        W67050  36.006  43.746  12.013
 1791W        W67051  10.773   3.007  13.458
 1792W        W67052  23.938  33.845   0.313
 1793W        W67053  20.331  42.038   4.400
 1794W        W67054  16.505  41.834   2.483
 1795W        W67055   3.198  13.084   0.362
 1796W        W67056  10.288   3.560  11.071
 1797W        W67057  20.564  29.210  12.502
 1798W        W67058   7.207   2.291  14.477
 1799W        W67059   6.681  41.113   0.847
 1800W        W67060  35.546   2.286   1.324
 1801W        W67061  20.361   6.965   3.230
 1802W        W67062  30.571  23.356   3.651
 1803W        W67063  17.679  27.588   0.092
 1804W        W67064   6.036  11.772  13.861
 1805W        W67065  18.651   6.961   1.467
 1806W        W67066  34.435  35.503   1.934
 1807W        W67067  38.966  15.327  13.404
 1808W        W67068  26.511  34.094   1.262
 1809W        W67069  10.321  10.605   2.120
 1810W        W67070   4.933   1.936  14.299
 1811W        W67071  42.194  41.819   0.363
 1812W        W67072   3.917   7.354  12.419
 1813W        W67073  42.806  27.240  10.882
 1814W        W67074  24.100   0.467  11.590
 1815W        W67075  32.177  12.570   1.008
 1816W        W67076  11.528   2.374  14.089
 1817W        W67077  24.737   8.142  14.067
 1818W        W67078  19.160  18.310  13.130
 1819W        W67079   3.805  21.608   2.421
 1820W        W67080  25.185  22.998  14.422
 1821W        W67081   4.450  39.592   1.572
 1822W        W67082  39.376   5.499   0.718
 1823W        W67083  14.353   9.112  11.994
 1824W        W67084  43.976   5.955   1.827
 1825W        W67085  14.788  33.819  14.927
 1826W        W67086  22.177  40.790  12.871
 1827W        W67087  12.900  14.774  11.620
 1828W        W67088  43.371  23.159   2.584
 1829W        W67089  29.415  29.934  14.436
 1830W        W67090   4.520  19.445  13.874
 1831W        W67091  17.751  20.002   2.802
 1832W        W67092  40.562  42.561  12.460
 1833W        W67093  41.064  13.071  12.039
 1834W        W67094   9.373  19.388   4.179
 1835W        W67095  25.452   8.127   0.408
 1836W        W67096  17.313  17.581  14.249
 1837W        W67097   1.388  10.882   4.580
 1838W        W67098  23.751  39.274   1.441
 1839W        W67099  34.739   8.878   4.229
 1840W        W67100  11.378  16.304  11.052
 1841W        W67101  11.860  26.110   2.636
 1842W        W67102   3.499   0.616  13.012
 1843W        W67103  36.721  16.800  11.885
 1844W        W67104  15.866  13.101   4.176
 1845W        W67105  37.939  30.414   3.572
 1846W        W67106  42.295  44.044   4.539
 1847W        W67107  37.250  15.278   2.005
 1848W        W67108  18.577  38.780   4.597
 1849W        W67109   8.207  34.157  10.664
 1850W        W67110   7.601  15.711   1.293
 1851W        W67111  33.976   3.457  10.931
 1852W        W67112  42.472  27.078   4.849
 1853W        W67113  24.634   7.675  13.375
 1854W        W67114   3.179  34.082  12.555
 1855W        W67115  41.346  16.696  12.443
 1856W        W67116   7.910  38.214  12.106
 1857W        W67117   8.792  32.935  11.406
 1858W        W67118  16.449  14.662   0.902
 1859W        W67119   3.828  44.976  13.501
 1860W        W67120  30.630   2.411  14.644
 1861W        W67121  43.254  19.802   3.772
 1862W        W67122  43.027  37.884   0.789
 1863W        W67123   5.366  11.708  13.890
 1864W        W67124  12.359  38.093  13.049
 1865W        W67125  35.480  13.651  12.652
 1866W        W67126  22.182  34.285   0.002
 1867W        W67127  24.541   3.824   4.132
 1868W        W67128  32.520  42.358   2.374
 1869W        W67129  42.815  24.926  12.854
 1870W        W67130  42.209  17.996  13.505
 1871W        W67131   9.706   7.398   3.106
 1872W        W67132   0.429  38.965   0.821
 1873W        W67133  10.078   9.214   2.308
 1874W        W67134  13.624  19.038   1.336
 1875W        W67135  37.862  36.105  11.935
 1876W        W67136  24.869   5.919   2.963
 1877W        W67137  19.608   4.854   2.178
 1878W        W67138  13.732  41.013   1.776
 1879W        W67139  29.075  33.480   0.844
 1880W        W67140  31.903  28.697   1.716
 1881W        W67141  32.269   1.895   2.363
 1882W        W67142   7.844  11.774  11.696
 1883W        W67143  22.450   4.139  13.013
 1884W        W67144  19.420  32.597  12.179
 1885W        W67145  41.488  14.907   0.210
 1886W        W67146  26.995   2.851   9.774
 1887W        W67147  15.551  21.988   4.109
 1888W        W67148  37.829  39.426   3.659
 1889W        W67149   3.575   2.290   3.048
 1890W        W67150  24.546  10.834   4.173
 1891W        W67151  35.010  14.105  10.634
 1892W        W67152  10.298  23.784   4.549
 1893W        W67153  40.276   3.743  13.404
 1894W        W67154  28.096   0.740   3.415
 1895W        W67155  32.162   4.837  10.615
 1896W        W67156  14.817  36.020   1.745
 1897W        W67157  25.034  19.899  13.606
 1898W        W67158  43.683  29.126  11.672
 1899W        W67159  14.608  28.464   4.522
 1900W        W67160  43.210  18.088  11.473
 1901W        W67161  36.062  44.689  13.353
 1902W        W67162  13.307   2.423  14.339
 1903W        W67163   9.199  42.373  10.442
 1904W        W67164  43.585  30.027  14.049
 1905W        W67165   2.351  26.666   2.688
 1906W        W67166  24.155  26.970   4.117
 1907W        W67167  25.729  34.763   4.226
 1908W        W67168  38.097   0.396  14.954
 1909W        W67169  18.980   5.373  11.026
 1910W        W67170  24.030  12.161   4.793
 1911W        W67171  32.130  26.270  10.992
 1912W        W67172  10.288  43.803  11.183
 1913W        W67173  37.660   7.655  11.876
 1914W        W67174  22.409  40.741   0.382
 1915W        W67175  22.158  11.659   2.647
 1916W        W67176   6.352  23.013   2.395
 1917W        W67177  24.967   7.876  12.831
 1918W        W67178   4.200   9.667  10.580
 1919W        W67179  31.407  16.669   4.552
 1920W        W67180   1.292  37.431   4.376
 1921W        W67181  16.694  44.028  12.515
 1922W        W67182  19.846  22.112   0.358
 1923W        W67183  31.625  18.766  13.539
 1924W        W67184  27.973  14.567  13.027
 1925W        W67185  11.993  25.604  13.982
 1926W        W67186  14.758   4.505   0.414
 1927W        W67187  31.121   0.338  12.070
 1928W        W67188   7.766  13.389   1.255
 1929W        W67189  35.955  39.704  10.921
 1930W        W67190  43.984   0.308  13.005
 1931W        W67191  29.172  43.504  12.992
 1932W        W67192  16.687  19.734  13.486
 1933W        W67193   6.742  19.569  11.201
 1934W        W67194  14.341  27.887  13.988
 1935W        W67195  38.320  28.506   1.411
 1936W        W67196  38.496  16.234   4.177
 1937W        W67197  29.562  30.430  12.991
 1938W        W67198   6.911  24.507   0.745
 1939W        W67199   9.152  14.696  12.954
 1940W        W67200  16.551  40.822   3.589
 1941W        W67201   2.903  28.635  11.956
 1942W        W67202  12.211  29.454  14.903
 1943W        W67203  14.296  26.992   1.332
 1944W        W67204  32.136   4.677  14.900
 1945W        W67205   7.221  24.253  14.531
 1946W        W67206  24.392  42.160   2.813
 1947W        W67207   8.356   9.737   0.582
 1948W        W67208  16.681  14.078   0.327
 1949W        W67209  23.917   3.396   0.846
 1950W        W67210  10.886  35.694  13.010
 1951W        W67211   2.501  24.024   3.801
 1952W        W67212  29.883  22.619  13.049
 1953W        W67213  40.140   9.244  13.926
 1954W        W67214  39.039  36.149   3.066
 1955W        W67215   1.696  21.260  12.935
 1956W        W67216  42.574  27.518   3.316
 1957W        W67217  18.922  39.940  12.518
 1958W        W67218   0.001   9.189   2.348
 1959W        W67219  36.313  13.739   1.795
 1960W        W67220  17.117  16.205  11.725
 1961W        W67221   3.271  42.528   1.315
 1962W        W67222  21.306  28.958   3.234
 1963W        W67223  28.942  28.058   1.386
 1964W        W67224  41.907  38.044   0.044
 1965W        W67225  21.014  21.224   1.171
 1966W        W67226   2.836   1.493   0.060
 1967W        W67227  39.101  35.200  12.614
 1968W        W67228   2.161  28.615   3.659
 1969W        W67229   9.008  28.205   4.385
 1970W        W67230  18.696   0.414   1.909
 1971W        W67231  23.641  33.079   3.170
 1972W        W67232  44.362  20.192  13.002
 1973W        W67233  26.898  11.921   4.915
 1974W        W67234  21.024  30.190   4.908
 1975W        W67235   4.501  12.781   0.685
 1976W        W67236  18.773   1.175   2.306
 1977W        W67237   1.860  10.567   4.553
 1978W        W67238   6.151  40.286  12.558
 1979W        W67239  20.993  22.105  13.111
 1980W        W67240  28.551  15.021  11.196
 1981W        W67241  18.518  18.564  13.064
 1982W        W67242  32.647   4.927  13.832
 1983W        W67243  20.641   4.486   9.804
 1984W        W67244  37.779  29.205  13.363
 1985W        W67245  16.770  20.869  14.894
 1986W        W67246   3.693  39.824  13.908
 1987W        W67247  31.219   5.953  14.864
 1988W        W67248   9.174   4.384  11.977
 1989W        W67249   6.839  17.138  11.849
 1990W        W67250   3.094  10.889   2.755
 1991W        W67251  16.579  38.298   3.612
 1992W        W67252   0.893  12.686   0.433
 1993W        W67253  18.642  11.634   1.297
 1994W        W67254  14.443  28.106   0.994
 1995W        W67255  20.977  17.106   0.909
 1996W        W67256  33.681  30.568   0.195
 1997W        W67257  23.571  15.863   4.453
 1998W        W67258  14.220  33.939  11.501
 1999W        W67259   8.236  25.668  14.014
 2000W        W67260   3.721   8.861   2.275
 2001W        W67261  24.367   8.489  13.395
 2002W        W67262  33.417  41.412  12.121
 2003W        W67263   0.194  30.726   0.297
 2004W        W67264  27.195  44.850  10.791
 2005W        W67265  32.924   9.177  11.633
 2006W        W67266  17.667   6.134  12.552
 2007W        W67267   4.679   5.374  14.426
 2008W        W67268   0.319  36.678   2.088
 2009W        W67269  23.282  34.619   0.974
 2010W        W67270   9.330  21.398   0.385
 2011W        W67271  23.848  35.878   3.570
 2012W        W67272  28.723  14.846  13.436
 2013W        W67273   8.618  25.105  14.813
 2014W        W67274  25.403  17.063   3.719
 2015W        W67275  11.539  39.695  10.629
 2016W        W67276  34.562  29.959  11.208
 2017W        W67277  20.939  16.280  11.518
 2018W        W67278  36.017   4.258  14.018
 2019W        W67279  15.658  26.706  13.870
 2020W        W67280  36.122  26.876  12.138
 2021W        W67281  19.227  18.999   5.480
 2022W        W67282   0.768   6.795  14.191
 2023W        W67283   9.316  29.306  11.242
 2024W        W67284  23.384  38.911  13.791
 2025W        W67285   9.411  24.086  14.649
 2026W        W67286   7.940   6.745   4.577
 2027W        W67287  43.498  31.116   1.745
 2028W        W67288  23.467  40.008  14.207
 2029W        W67289   4.182  23.497   0.392
 2030W        W67290  36.992  38.324  14.281
 2031W        W67291  29.751  36.342   0.777
 2032W        W67292   3.076  41.949   2.183
 2033W        W67293   5.287  31.385  14.769
 2034W        W67294  36.559  35.609   0.903
 2035W        W67295  37.320  23.498   0.854
 2036W        W67296  28.139  28.599  12.381
 2037W        W67297  14.752  31.023   0.962
 2038W        W67298   9.340  32.796  12.466
 2039W        W67299  20.176  21.255   2.871
 2040W        W67300   8.394  35.927   0.278
 2041W        W67301  11.527  23.237  11.040
 2042W        W67302  42.853  43.314   1.397
 2043W        W67303  17.097  20.253  12.096
 2044W        W67304  25.241   4.986  12.656
 2045W        W67305  27.808   2.404   4.951
 2046W        W67306   0.673  22.790  11.985
 2047W        W67307  37.552  36.373  11.585
 2048W        W67308  13.537  12.668  11.588
 2049W        W67309  26.938  33.348  14.292
 2050W        W67310  27.659  24.047  14.329
 2051W        W67311   4.478  17.863  14.792
 2052W        W67312   4.302   8.758   5.105
 2053W        W67313  21.478  17.009   9.812
 2054W        W67314  20.987   4.404  13.415
 2055W        W67315   6.205  12.583  10.699
 2056W        W67316  14.908  11.178  11.958
 2057W        W67317  26.316   3.277  13.706
 2058W        W67318  16.527  18.762  10.721
 2059W        W67319  17.113  38.957   3.166
 2060W        W67320  13.767  38.885   0.262
 2061W        W67321  26.962  32.961   2.366
 2062W        W67322  31.176  44.258   1.772
 2063W        W67323  26.453  12.606  14.492
 2064W        W67324  33.753   0.954   2.772
 2065W        W67325   6.382  40.844   3.231
 2066W        W67326   0.004   6.243  11.432
 2067W        W67327   5.771  26.987   0.438
 2068W        W67328  42.958  16.663   4.512
 2069W        W67329  38.269  12.607   3.672
 2070W        W67330   3.239  41.235   0.254
 2071W        W67331  42.417  10.189   3.429
 2072W        W67332  28.085   4.640  11.659
 2073W        W67333  10.731  23.654  10.702
 2074W        W67334  31.354  10.239  12.488
 2075W        W67335  37.890  35.774   2.789
 2076W        W67336  29.733   3.003  14.568
 2077W        W67337  20.859  39.093   4.985
 2078W        W67338  41.684  12.453  14.911
 2079W        W67339  43.825  13.689  10.701
 2080W        W67340  31.474  10.452  11.869
 2081W        W67341  18.207  16.716  14.027
 2082W        W67342  25.274  28.625   4.871
 2083W        W67343  43.911  27.979  12.098
 2084W        W67344  33.639   2.775   0.951
 2085W        W67345   3.712  30.360   0.499
 2086W        W67346   9.214  17.735  12.527
 2087W        W67347   3.195  22.065   4.522
 2088W        W67348  19.152  42.851   3.812
 2089W        W67349  34.525  19.773  13.754
 2090W        W67350  23.299  30.026   4.277
 2091W        W67351  40.331  33.433  11.904
 2092W        W67352   0.696  21.083   2.710
 2093W        W67353  27.941   8.734  10.961
 2094W        W67354  26.721  25.742  12.960
 2095W        W67355  36.957  26.499   0.876
 2096W        W67356  34.891  36.723  11.623
 2097W        W67357  14.700   0.865   1.916
 2098W        W67358  13.634   4.902  13.500
 2099W        W67359  23.177  20.501  12.068
 2100W        W67360   5.955  29.285  14.712
 2101W        W67361   1.735  16.864  14.397
 2102W        W67362   7.654  43.255   4.629
 2103W        W67363  32.455   7.360  13.932
 2104W        W67364  29.804  34.333  13.195
 2105W        W67365   2.003   4.505   1.723
 2106W        W67366  13.285  36.551   3.362
 2107W        W67367  31.938   5.950   1.493
 2108W        W67368  28.439  44.769   1.847
 2109W        W67369  36.017  23.433   2.234
 2110W        W67370  42.286   2.108   4.597
 2111W        W67371  16.402   5.753  14.987
 2112W        W67372   4.403   7.595  10.466
 2113W        W67373  11.939  15.361  13.790
 2114W        W67374  43.183   5.625  12.623
 2115W        W67375  32.854   6.227  14.083
 2116W        W67376  19.753  21.522   3.367
 2117W        W67377  32.392  20.250  11.197
 2118W        W67378  43.000  38.866   3.197
 2119W        W67379   9.612  25.265   4.955
 2120W        W67380  32.336  18.179  13.876
 2121W        W67381  30.167  25.078  13.981
 2122W        W67382  36.065  37.934   4.681
 2123W        W67383  24.765  24.220  10.322
 2124W        W67384  27.622  13.557  11.179
 2125W        W67385  37.148  39.422   2.904
 2126W        W67386  31.655  44.966  11.578
 2127W        W67387  15.419  33.267   4.942
 2128W        W67388  24.889  37.091   0.701
 2129W        W67389   8.355  27.957  13.029
 2130W        W67390  26.946  43.876  13.096
 2131W        W67391  27.615  30.110   2.335
 2132W        W67392  28.884  23.908  12.994
 2133W        W67393  13.772   4.052  12.076
 2134W        W67394  20.803   3.754  14.419
 2135W        W67395  19.487  19.838  12.451
 2136W        W67396   5.751  31.662   2.079
 2137W        W67397  36.743  25.199   5.059
 2138W        W67398  18.070  14.863   1.279
 2139W        W67399  37.395  40.522  12.221
 2140W        W67400  12.336  15.167  12.043
 2141W        W67401  44.315   0.438   4.650
 2142W        W67402  14.676  40.330   1.713
 2143W        W67403  19.661  40.734  10.884
 2144W        W67404   2.396  29.606  12.845
 2145W        W67405  44.205  24.506   1.453
 2146W        W67406  15.782  36.116  10.739
 2147W        W67407  28.593  27.893  14.116
 2148W        W67408  42.839  43.214   4.033
 2149W        W67409  37.808   3.649  10.713
 2150W        W67410  42.343  28.750  11.229
 2151W        W67411   3.021  28.373  10.112
 2152W        W67412  19.164  44.160   3.674
 2153W        W67413   3.390  30.420   3.667
 2154W        W67414  19.260  30.587  10.483
 2155W        W67415   0.320  42.222   2.911
 2156W        W67416  41.000  28.933  12.519
 2157W        W67417  40.996  17.504   3.564
 2158W        W67418  25.915   5.715   2.257
 2159W        W67419  34.014  32.923   0.877
 2160W        W67420   5.260  42.716  12.550
 2161W        W67421  24.596  33.649  14.462
 2162W        W67422  32.467  38.901   2.457
 2163W        W67423  24.926  15.784   3.016
 2164W        W67424  21.607  18.065   2.659
 2165W        W67425  16.223  10.178  12.240
 2166W        W67426  21.746  20.414   3.061
 2167W        W67427  27.026  40.534  14.289
 2168W        W67428  27.115  29.296  13.072
 2169W        W67429  39.360   3.199  13.567
 2170W        W67430   7.403  35.045   1.998
 2171W        W67431  37.940  18.328  12.544
 2172W        W67432  33.154  23.830   1.488
 2173W        W67433  38.865  20.212   2.331
 2174W        W67434  31.511  41.173   4.878
 2175W        W67435  27.180  30.513  12.625
 2176W        W67436  17.568  33.124  10.717
 2177W        W67437  10.553  13.499  14.015
 2178W        W67438   7.766  26.483  13.895
 2179W        W67439   2.931  28.657   1.530
 2180W        W67440  41.335  18.378   2.820
 2181W        W67441   5.931   8.655   3.200
 2182W        W67442  16.675  29.723   0.446
 2183W        W67443  10.610  39.825   2.874
 2184W        W67444  11.281  17.148  10.642
 2185W        W67445  27.418  17.667  12.515
 2186W        W67446  37.006  24.592  13.651
 2187W        W67447  30.082  15.121   0.746
 2188W        W67448  42.994  18.745  14.802
 2189W        W67449  28.073  29.773  10.820
 2190W        W67450  44.718  30.161   1.748
 2191W        W67451  20.773   5.288  12.132
 2192W        W67452  36.617  12.907   2.242
 2193W        W67453  40.267  30.880   4.520
 2194W        W67454  36.478   9.340  14.963
 2195W        W67455   5.357  30.789   2.893
 2196W        W67456   5.248  40.160  10.446
 2197W        W67457  39.911  11.554   0.813
 2198W        W67458  23.463  43.551  14.970
 2199W        W67459  28.997  29.585   0.201
 2200W        W67460  44.804  19.612  14.516
 2201W        W67461  23.798  13.752   2.831
 2202W        W67462  11.821   2.778   3.605
 2203W        W67463  38.862  37.952   4.153
 2204W        W67464   5.303  16.790   4.637
 2205W        W67465  25.365  17.676   0.703
 2206W        W67466  21.749  21.253  13.086
 2207W        W67467  15.614  34.504  11.263
 2208W        W67468  26.531   5.310  14.326
 2209W        W67469  31.383  30.560  12.890
 2210W        W67470  18.656  13.356  11.596
 2211W        W67471  34.864  43.427   3.130
 2212W        W67472  11.868   6.670  12.016
 2213W        W67473  22.890  39.345  10.985
 2214W        W67474   4.748  10.775  10.754
 2215W        W67475   4.904  29.452  11.642
 2216W        W67476   1.789  23.591   2.101
 2217W        W67477  22.689  16.040   3.985
 2218W        W67478  36.276  41.436  11.948
 2219W        W67479  17.028  34.194   3.572
 2220W        W67480  39.060   6.000   4.177
 2221W        W67481  17.802  41.335  12.266
 2222W        W67482  29.883  38.737  12.641
 2223W        W67483  22.718   4.199   0.998
 2224W        W67484  41.241  37.050  11.058
 2225W        W67485  30.003  44.110   0.881
 2226W        W67486  27.682  38.609   2.675
 2227W        W67487  14.961  23.415   3.247
 2228W        W67488   5.072  14.079   2.753
 2229W        W67489   5.189  15.913  13.414
 2230W        W67490   2.178   8.756   3.888
 2231W        W67491  40.058  24.648  10.400
 2232W        W67492  37.223  41.046  10.841
 2233W        W67493  21.169  39.762   0.847
 2234W        W67494  32.301  21.004   2.174
 2235W        W67495   0.312  18.014  14.859
 2236W        W67496  24.990  14.977  14.800
 2237W        W67497  26.998  44.190  11.637
 2238W        W67498  22.082  32.424   0.744
 2239W        W67499  40.458  33.574  11.433
 2240W        W67500  44.929  15.328  11.103
 2241W        W67501  19.744  12.123   2.434
 2242W        W67502  26.753  19.344   2.481
 2243W        W67503  24.606   7.293   0.779
 2244W        W67504  32.431   4.264  11.693
 2245W        W67505  27.235  22.169   1.771
 2246W        W67506  39.695  30.466  11.398
 2247W        W67507   1.461  18.781  12.121
 2248W        W67508  42.391  21.610  13.964
 2249W        W67509  34.292  24.651   0.304
 2250W        W67510   0.074  16.350  10.447
 2251W        W67511   9.262  23.537   3.672
 2252W        W67512  29.473  25.941   1.422
 2253W        W67513  31.715  40.836  13.846
 2254W        W67514  12.632   4.930   1.877
 2255W        W67515   9.773   0.285  14.922
 2256W        W67516   0.383  28.577  12.172
 2257W        W67517  41.872  40.920  14.023
 2258W        W67518  27.900  14.805   2.914
 2259W        W67519  24.687  31.979   4.604
 2260W        W67520  40.088  17.659  11.635
 2261W        W67521   5.300  28.726   2.201
 2262W        W67522  25.681  27.192  12.948
 2263W        W67523  32.100  34.305  13.042
 2264W        W67524  39.884  34.951   2.667
 2265W        W67525  10.236   9.983  14.824
 2266W        W67526  16.816   8.206   1.686
 2267W        W67527  23.514   0.172   1.473
 2268W        W67528  26.217   6.204   3.590
 2269W        W67529  15.972  37.611  12.905
 2270W        W67530  29.048  16.529  12.898
 2271W        W67531   9.616  39.238   1.914
 2272W        W67532  18.486  32.534  12.940
 2273W        W67533  34.848  25.740   0.895
 2274W        W67534  17.841  23.488   1.160
 2275W        W67535  10.140  23.034  13.823
 2276W        W67536  21.245  21.639   3.256
 2277W        W67537  42.082  42.498  10.638
 2278W        W67538   6.922  28.018  11.635
 2279W        W67539  27.661  40.574  12.934
 2280W        W67540  42.536  25.705   1.691
 2281W        W67541  24.013  27.939   4.116
 2282W        W67542  44.131  22.634  14.867
 2283W        W67543  12.289  39.777   1.840
 2284W        W67544  43.796  24.291   2.761
 2285W        W67545  31.424  19.755  14.033
 2286W        W67546   4.243  18.295   1.416
 2287W        W67547  28.258  13.404   2.510
 2288W        W67548  40.310  38.385   4.838
 2289W        W67549  36.921  35.860  10.352
 2290W        W67550  11.749  28.444  10.605
 2291W        W67551  37.874  42.504   3.929
 2292W        W67552  21.056  40.932  13.450
 2293W        W67553  12.732   4.462   4.179
 2294W        W67554  28.880   6.696   1.851
 2295W        W67555  36.417  13.204   4.585
 2296W        W67556   8.695  23.135   0.030
 2297W        W67557  30.997  40.448   0.288
 2298W        W67558   9.200   6.013   1.007
 2299W        W67559  26.216   8.363   5.096
 2300W        W67560   0.026  11.194   0.598
 2301W        W67561  38.902  38.078   3.180
 2302W        W67562  44.811   3.469   0.808
 2303W        W67563  25.183  41.870   0.085
 2304W        W67564  39.740  16.154  10.672
 2305W        W67565   5.218  31.635   1.735
 2306W        W67566  16.715  13.409   3.899
 2307W        W67567  28.073  14.561   0.353
 2308W        W67568   5.428   3.563   3.730
 2309W        W67569  40.682  10.291   0.434
 2310W        W67570  36.824   3.243   4.975
 2311W        W67571  26.066  17.524   1.182
 2312W        W67572  41.420  39.448  13.659
 2313W        W67573  33.065  16.435   4.401
 2314W        W67574  38.820  37.105   2.500
 2315W        W67575  21.048  25.407  13.973
 2316W        W67576  11.214  42.283  12.830
 2317W        W67577  36.851  29.012   4.605
 2318W        W67578   4.723  29.210  13.130
 2319W        W67579  33.910   0.244  11.572
 2320W        W67580  32.877  43.150   2.390
 2321W        W67581   6.166  26.541  14.887
 2322W        W67582  13.226  15.367   2.976
 2323W        W67583  18.192  24.727   2.632
 2324W        W67584  16.287  40.150  13.585
 2325W        W67585  10.749   3.388   4.546
 2326W        W67586  33.010  13.788   2.197
 2327W        W67587   7.301  35.111  11.491
 2328W        W67588  31.108  24.997   1.075
 2329W        W67589  20.197  35.674   0.890
 2330W        W67590   9.120  31.038  14.734
 2331W        W67591  21.307   7.201   1.763
 2332W        W67592  12.302  25.174  14.004
 2333W        W67593  30.033  25.549  14.184
 2334W        W67594  39.268  44.949  13.865
 2335W        W67595  25.406  41.466   2.233
 2336W        W67596  26.032   6.619   2.602
 2337W        W67597  10.882  10.061  13.997
 2338W        W67598  42.406  23.702  12.993
 2339W        W67599  14.251  11.334  10.700
 2340W        W67600  10.668   4.392   1.393
 2341W        W67601  33.773  33.943  12.854
 2342W        W67602   7.346   6.998  13.072
 2343W        W67603  41.274  43.771  12.525
 2344W        W67604  28.557  11.361   1.712
 2345W        W67605   3.756  32.565  14.991
 2346W        W67606  42.492  31.555   3.140
 2347W        W67607  19.139  22.523  14.205
 2348W        W67608  37.813   3.148  10.681
 2349W        W67609  37.539   5.397   1.233
 2350W        W67610  18.781   0.804   2.669
 2351W        W67611   1.473  16.879  11.029
 2352W        W67612   9.806   7.704  11.901
 2353W        W67613  26.104   3.911   3.818
 2354W        W67614   6.305  25.631  12.512
 2355W        W67615  27.645  25.992  10.396
 2356W        W67616  40.631  10.725   1.684
 2357W        W67617  33.543  14.801  14.343
 2358W        W67618   1.026  18.319   1.952
 2359W        W67619  30.146  22.964  13.341
 2360W        W67620   8.114  12.350  14.842
 2361W        W67621  13.784   7.360   1.561
 2362W        W67622  44.498  17.237   1.320
 2363W        W67623  34.383   5.715  11.628
 2364W        W67624   4.034  42.190   2.385
 2365W        W67625   2.208  31.935   1.241
 2366W        W67626   9.471  21.745  14.849
 2367W        W67627  23.790   1.817  14.319
 2368W        W67628   7.494  41.520   0.411
 2369W        W67629  28.945  21.338  11.901
 2370W        W67630   1.792   0.572   3.126
 2371W        W67631  17.008   4.333   3.675
 2372W        W67632   1.944   6.905   2.360
 2373W        W67633   6.566  22.379  11.294
 2374W        W67634  29.613  40.056  11.106
 2375W        W67635  13.747  22.623   1.358
 2376W        W67636  12.841  35.564  10.454
 2377W        W67637  29.970  28.216   0.350
 2378W        W67638  19.064   0.411   2.847
 2379W        W67639  16.981   8.501  11.534
 2380W        W67640   0.341  20.036  11.542
 2381W        W67641  24.491  32.515  12.937
 2382W        W67642  22.868  33.904  12.457
 2383W        W67643  25.024  40.415   2.909
 2384W        W67644  11.864   1.948   2.369
 2385W        W67645  12.087  24.738   2.674
 2386W        W67646  13.747  21.805   0.769
 2387W        W67647  17.085  44.710   1.234
 2388W        W67648  18.295  23.209   1.943
 2389W        W67649  25.104  44.790  14.509
 2390W        W67650  12.389  37.459   4.749
 2391W        W67651  11.691  32.367   1.239
 2392W        W67652  28.292  31.628   2.739
 2393W        W67653  20.820  12.329   1.768
 2394W        W67654  27.420  30.917  11.151
 2395W        W67655  28.842  44.286  12.003
 2396W        W67656  22.202   6.774  10.935
 2397W        W67657  20.435  38.945  12.326
 2398W        W67658  15.743  28.428   0.811
 2399W        W67659   4.375  12.698   4.167
 2400W        W67660  43.289  21.368  11.971
 2401W        W67661  16.883  14.587   3.040
 2402W        W67662   4.508  25.769   0.377
 2403W        W67663  20.437  25.523   2.853
 2404W        W67664  17.471  36.913   1.092
 2405W        W67665  35.854  20.215   1.878
 2406W        W67666  44.692  26.576   3.748
 2407W        W67667  41.734   2.484   2.354
 2408W        W67668  16.101  40.306  14.076
 2409W        W67669  19.021   2.974   2.212
 2410W        W67670  43.207  21.770   3.145
 2411W        W67671  43.970   2.458   0.170
 2412W        W67672  14.278  29.232   4.498
 2413W        W67673  30.613   8.070  12.679
 2414W        W67674  40.575  42.762   0.015
 2415W        W67675   3.233  10.800   0.044
 2416W        W67676  27.368  35.240   3.697
 2417W        W67677  31.707  29.688  14.620
 2418W        W67678   7.091   9.707  12.102
 2419W        W67679  10.938  17.187  11.738
 2420W        W67680   0.469  29.157   4.255
 2421W        W67681   5.456  40.865   3.814
 2422W        W67682   5.312  33.723   2.174
 2423W        W67683   8.261  19.943   0.828
 2424W        W67684  21.500  42.429  11.043
 2425W        W67685  11.618  38.412   1.383
 2426W        W67686  32.094  40.996  12.991
 2427W        W67687  14.146   2.214  13.385
 2428W        W67688  42.442   0.962  13.468
 2429W        W67689  29.482   7.231   1.063
 2430W        W67690  13.364   7.655  12.936
 2431W        W67691  13.597  19.172   3.831
 2432W        W67692  38.997  20.822  10.616
 2433W        W67693   3.177  40.548  12.555
 2434W        W67694  10.579   5.325   2.229
 2435W        W67695  18.548  13.386   1.962
 2436W        W67696  16.391  23.549  11.188
 2437W        W67697  32.557  11.862   0.209
 2438W        W67698  23.747  15.616  11.646
 2439W        W67699  39.159  19.236   3.299
 2440W        W67700  38.454  22.547   1.301
 2441W        W67701  25.676  22.681  13.978
 2442W        W67702  31.557  35.327  10.709
 2443W        W67703  23.897  33.114  11.592
 2444W        W67704  13.312   8.654   1.186
 2445W        W67705  15.609   6.365   5.074
 2446W        W67706  41.857  35.310   4.027
 2447W        W67707  37.069  10.231  12.374
 2448W        W67708   0.817   3.705   1.182
 2449W        W67709   2.201   2.856  12.729
 2450W        W67710  32.747   6.805  14.891
 2451W        W67711  28.541  20.660  12.291
 2452W        W67712  34.319  10.262  11.602
 2453W        W67713  13.633  18.153  13.778
 2454W        W67714  13.178  35.366  12.635
 2455W        W67715  24.848   7.227  14.006
 2456W        W67716   4.005  44.950   4.299
 2457W        W67717   2.359   8.833  12.534
 2458W        W67718   2.664  32.420   4.652
 2459W        W67719   5.707  19.763  10.604
 2460W        W67720  32.916  18.164   4.086
 2461W        W67721   4.409   9.253   2.772
 2462W        W67722  25.065  26.630   4.445
 2463W        W67723  43.235  35.869   3.269
 2464W        W67724  40.152  12.554   4.020
 2465W        W67725   8.164   5.666   3.205
 2466W        W67726  22.611   7.674  11.907
 2467W        W67727  36.923   4.905  11.267
 2468W        W67728  22.156  15.542   1.691
 2469W        W67729  15.323  24.545   4.498
 2470W        W67730  13.634  15.780   0.460
 2471W        W67731  23.123  30.924  11.051
 2472W        W67732  41.933  15.348  14.352
 2473W        W67733  13.306  18.039  10.636
 2474W        W67734  33.314  24.221  12.643
 2475W        W67735  22.289   0.965  14.504
 2476W        W67736  18.121   5.020  11.093
 2477W        W67737  31.032  12.635   0.485
 2478W        W67738  32.812  27.257  14.843
 2479W        W67739  35.068  34.301  13.876
 2480W        W67740   5.253  41.887   3.741
 2481W        W67741  26.599  36.525   3.820
 2482W        W67742  14.147  13.378  14.473
 2483W        W67743  26.440  29.601   0.786
 2484W        W67744  27.435  26.194  13.974
 2485W        W67745   2.334  16.522   2.400
 2486W        W67746  26.012  17.718   1.649
 2487W        W67747  12.639  44.431  13.479
 2488W        W67748  14.320  34.115  12.907
 2489W        W67749  11.268  14.334  12.591
 2490W        W67750   1.880  44.996  13.367
 2491W        W67751   2.504  15.631   2.698
 2492W        W67752   9.092  35.589   4.360
 2493W        W67753  15.245  38.138  11.054
 2494W        W67754  32.595  41.063   0.066
 2495W        W67755  11.049  10.823   3.264
 2496W        W67756   8.848   0.841   4.902
 2497W        W67757  20.448  10.257   3.296
 2498W        W67758  34.577   1.949  14.406
 2499W        W67759  32.486  37.976  11.078
 2500W        W67760   3.699  14.286  12.454
 2501W        W67761  28.680  37.170   0.549
 2502W        W67762  41.124  44.599   3.616
 2503W        W67763  18.208  34.168  13.588
 2504W        W67764  23.463  25.235   0.345
 2505W        W67765   6.956  33.921   2.747
 2506W        W67766  17.078  33.079   1.512
 2507W        W67767  39.462  35.840   1.756
 2508W        W67768   4.276  36.420   4.412
 2509W        W67769  29.423  40.728   4.573
 2510W        W67770   6.571   0.135  11.063
 2511W        W67771  19.039  12.886   1.359
 2512W        W67772  19.800  41.490   0.873
 2513W        W67773  21.052  24.613  14.080
 2514W        W67774  41.591  24.676   4.170
 2515W        W67775   5.120  40.474  13.309
 2516W        W67776   0.876  28.754  12.221
 2517W        W67777  35.565  44.576   3.082
 2518W        W67778  17.178  21.910  11.494
 2519W        W67779  13.533  13.119  13.038
 2520W        W67780   9.872  41.780  10.516
 2521W        W67781   5.112  38.424   2.672
 2522W        W67782   9.867   0.464  11.631
 2523W        W67783  44.320  23.176   2.836
 2524W        W67784  20.590  13.207  13.740
 2525W        W67785  30.599  37.304  11.958
 2526W        W67786  31.001   2.502  13.383
 2527W        W67787   2.171  21.201  12.155
 2528W        W67788  24.066   7.242   0.900
 2529W        W67789  26.770   3.048  10.852
 2530W        W67790   7.350  40.549   2.361
 2531W        W67791   3.247  30.878  11.874
 2532W        W67792   2.126  12.306  10.392
 2533W        W67793  17.654  39.285  14.203
 2534W        W67794   0.281   4.542   0.418
 2535W        W67795   9.170  18.741   2.378
 2536W        W67796   9.177  32.491   1.402
 2537W        W67797  39.941   4.840   3.124
 2538W        W67798  31.893  27.096   1.878
 2539W        W67799  21.389  38.871  12.429
 2540W        W67800   8.314  40.102  14.441
 2541W        W67801  17.783  40.122   4.281
 2542W        W67802   2.136   8.435   2.527
 2543W        W67803  13.323  42.590   1.327
 2544W        W67804  17.445  32.489  11.514
 2545W        W67805   8.888  30.138  14.899
 2546W        W67806  33.372  38.054   4.741
 2547W        W67807  22.285  34.188  11.432
 2548W        W67808  22.553  38.540  14.497
 2549W        W67809   4.197  15.221  14.828
 2550W        W67810  44.800   4.254   2.204
 2551W        W67811  44.023  28.898   3.191
 2552W        W67812  28.250  17.042   0.009
 2553W        W67813  43.306  38.545  10.746
 2554W        W67814  35.891   4.898  11.227
 2555W        W67815  11.509  25.782   5.044
 2556W        W67816  27.947  35.062  12.942
 2557W        W67817  43.356   9.614  12.026
 2558W        W67818  13.117  20.425  13.884
 2559W        W67819  10.375   1.749  13.756
 2560W        W67820  23.044  15.187   3.542
 2561W        W67821  14.798  26.158   3.244
 2562W        W67822   6.205   3.594   1.601
 2563W        W67823   5.462   0.817   0.876
 2564W        W67824  25.114  15.368  14.399
 2565W        W67825  19.113   7.101   1.221
 2566W        W67826  33.706   0.192   4.233
 2567W        W67827   5.463  25.054  13.337
 2568W        W67828  30.728  33.791   4.143
 2569W        W67829  20.535  40.105   4.145
 2570W        W67830  22.227  18.075   0.794
 2571W        W67831  16.997  39.206  10.996
 2572W        W67832   2.152  35.495  13.352
 2573W        W67833  11.195  39.067   4.609
 2574W        W67834   9.110  35.454   1.406
 2575W        W67835  41.755  36.931  14.983
 2576W        W67836  31.129  42.863   3.417
 2577W        W67837   2.755  38.280   0.333
 2578W        W67838   8.780   7.761  12.436
 2579W        W67839   2.460  39.345  10.986
 2580W        W67840  29.468  39.344   2.609
 2581W        W67841  27.002  32.438   3.320
 2582W        W67842  10.770  29.372   0.970
 2583W        W67843  41.945   9.711   2.414
 2584W        W67844  15.604  23.068   0.264
 2585W        W67845  11.873  24.435   1.659
 2586W        W67846   8.558  29.116  13.782
 2587W        W67847  26.542   4.925   0.275
 2588W        W67848  40.990  13.070   2.158
 2589W        W67849  39.679  43.928   4.693
 2590W        W67850  14.291   2.715  14.602
 2591W        W67851  34.243   4.197  13.081
 2592W        W67852   5.321  18.714  10.587
 2593W        W67853   4.359   0.768  11.049
 2594W        W67854  44.503  14.100  12.549
 2595W        W67855  41.618  41.416  11.551
 2596W        W67856  43.877  19.151  14.260
 2597W        W67857  34.391  23.087   2.706
 2598W        W67858   4.750   1.461   2.445
 2599W        W67859  37.096  40.950   3.351
 2600W        W67860  42.656  24.576   3.200
 2601W        W67861  39.382  19.929  11.375
 2602W        W67862  39.453  31.057  14.916
 2603W        W67863  27.906  44.451  12.618
 2604W        W67864  23.425   5.878   4.485
 2605W        W67865   9.164  20.802  13.958
 2606W        W67866  44.191  23.526  12.443
 2607W        W67867  17.150  18.465  12.461
 2608W        W67868  15.405   5.324   2.653
 2609W        W67869  28.111  21.241   1.138
 2610W        W67870  16.218  25.648   1.266
 2611W        W67871  33.090  19.561  14.273
 2612W        W67872  26.706  42.584  10.720
 2613W        W67873   4.962  13.149   3.780
 2614W        W67874  39.570  12.126   2.813
 2615W        W67875  33.921  39.250   4.189
 2616W        W67876   8.945  35.968  14.007
 2617W        W67877  33.890  34.092   3.371
 2618W        W67878  17.740  14.075   1.469
 2619W        W67879  12.701  36.819  13.392
 2620W        W67880  33.887   8.964   3.625
 2621W        W67881   4.242  24.827  11.478
 2622W        W67882  38.306  24.135   4.765
 2623W        W67883  10.292  25.735   2.331
 2624W        W67884  42.450   4.208   3.079
 2625W        W67885  31.875  41.341   2.501
 2626W        W67886  24.450   9.896  13.779
 2627W        W67887  27.492  36.617   3.951
 2628W        W67888  20.033  33.926  11.896
 2629W        W67889  21.510  23.592   1.529
 2630W        W67890  24.208  29.053  12.227
 2631W        W67891  33.902  37.056   1.341
 2632W        W67892  41.034  10.291  12.594
 2633W        W67893  24.969  40.980   2.725
 2634W        W67894  40.530  23.417   4.631
 2635W        W67895  17.020  43.403  13.323
 2636W        W67896   1.803  16.552   2.583
 2637W        W67897  24.643  27.073  13.845
 2638W        W67898  19.400  44.383   3.268
 2639W        W67899  41.529  19.486   0.351
 2640W        W67900  18.113   5.674  13.749
 2641W        W67901  35.193  16.998  10.994
 2642W        W67902  16.417   9.604   3.881
 2643W        W67903  33.646  14.496   1.229
 2644W        W67904  12.182  38.152  11.677
 2645W        W67905  34.679  33.827   2.546
 2646W        W67906  15.787  10.128  14.921
 2647W        W67907  14.852  34.321  12.583
 2648W        W67908   2.632  27.154   5.580
 2649W        W67909  44.707  22.294   4.594
 2650W        W67910  34.942   5.877  14.934
 2651W        W67911  20.787   1.937   0.958
 2652W        W67912  29.138  14.583  14.421
 2653W        W67913  26.449  35.421   0.838
 2654W        W67914  44.332  33.063  10.092
 2655W        W67915  25.417  41.315  11.183
 2656W        W67916  14.791  18.502   1.226
 2657W        W67917  10.126  29.924   0.861
 2658W        W67918  20.163  26.902  13.620
 2659W        W67919  37.703  11.712  10.537
 2660W        W67920   8.889  38.467   3.901
 2661W        W67921  23.282   9.400   3.925
 2662W        W67922  36.097  39.956   3.626
 2663W        W67923  44.783  35.787   4.227
 2664W        W67924   3.577  17.690   3.236
 2665W        W67925  42.400   7.424   4.679
 2666W        W67926  39.341  36.327   1.910
 2667W        W67927  40.590  38.780  10.806
 2668W        W67928  32.242  24.137  13.053
 2669W        W67929  28.305   9.876   2.097
 2670W        W67930   5.030  22.830  11.422
 2671W        W67931  22.589   6.407  10.564
 2672W        W67932  35.843  13.539  11.635
 2673W        W67933  19.269  10.824   1.149
 2674W        W67934  39.808  20.944   0.832
 2675W        W67935   4.825  41.608   3.687
 2676W        W67936  42.478  42.897   4.197
 2677W        W67937  36.763  29.555   1.720
 2678W        W67938  43.632   6.629   2.920
 2679W        W67939  25.444  20.633  14.859
 2680W        W67940  36.077  36.044   1.982
 2681W        W67941  28.457  33.042   4.013
 2682W        W67942   1.409  19.039  14.434
 2683W        W67943   4.449   8.486   4.205
 2684W        W67944  27.997  32.897   4.602
 2685W        W67945  38.994  15.125   2.580
 2686W        W67946  26.708  11.093   1.743
 2687W        W67947  16.577   5.914   1.942
 2688W        W67948  36.001   2.074   4.815
 2689W        W67949  13.684  27.950   1.939
 2690W        W67950  31.179  11.196  14.460
 2691W        W67951  19.226  38.332  10.570
 2692W        W67952  39.565  31.114   3.334
 2693W        W67953   1.754  41.898   2.837
 2694W        W67954  15.783  10.393  13.347
 2695W        W67955  10.321   9.221   1.829
 2696W        W67956  40.381  44.870   4.118
 2697W        W67957  28.931  23.716   3.240
 2698W        W67958  31.671  12.681   0.873
 2699W        W67959  38.631  39.057  14.848
 2700W        W67960   8.363  44.464  14.759
 2701W        W67961  32.087   2.291   3.606
 2702W        W67962  14.340   4.687  11.890
 2703W        W67963  11.182  28.396   0.921
 2704W        W67964  35.901   6.602   4.730
 2705W        W67965  20.614  26.413  11.988
 2706W        W67966  20.019   1.742  14.863
 2707W        W67967  40.491  17.773  14.976
 2708W        W67968  30.467  40.746   2.796
 2709W        W67969  16.347   5.466   1.788
 2710W        W67970   2.275   4.243  13.837
 2711W        W67971  37.918  26.891   0.892
 2712W        W67972   8.334  21.209   4.528
 2713W        W67973  16.701   9.627  12.975
 2714W        W67974   3.795  37.131   0.877
 2715W        W67975  23.213   9.345   3.424
 2716W        W67976   1.720  14.411  13.490
 2717W        W67977  40.739   6.656   1.814
 2718W        W67978  40.997  15.194  11.789
 2719W        W67979  24.790  43.430   1.876
 2720W        W67980   2.986  24.215   3.660
 2721W        W67981   7.425  37.292   0.758
 2722W        W67982  24.616  11.870   0.322
 2723W        W67983  21.258  11.260  11.996
 2724W        W67984  14.222  26.704   1.836
 2725W        W67985  23.974  27.390   0.362
 2726W        W67986   1.585  34.878  13.076
 2727W        W67987  10.428  35.031  12.099
 2728W        W67988  27.676  17.297  12.008
 2729W        W67989  32.491  21.355  11.107
 2730W        W67990  33.066  42.145   2.222
 2731W        W67991  39.016  26.172   3.731
 2732W        W67992  29.036   7.195  12.411
 2733W        W67993  39.457  26.708  10.435
 2734W        W67994   3.457  18.582  13.009
 2735W        W67995  21.482  35.708   2.214
 2736W        W67996   7.906  10.719   3.604
 2737W        W67997  22.999   7.410   3.684
 2738W        W67998  13.576   1.604  14.258
 2739W        W67999  21.589   5.724   5.269
 2740W        W68000  12.980  14.951   2.044
 2741W        W68001  18.804  22.832  11.522
 2742W        W68002  28.385   6.814   1.873
 2743W        W68003  12.247  44.083   1.720
 2744W        W68004  37.564  28.546  10.731
 2745W        W68005   3.377  44.726  13.412
 2746W        W68006  37.465  31.433   1.285
 2747W        W68007  37.661  23.172  12.596
 2748W        W68008  43.417   6.112  11.900
 2749W        W68009  36.412   7.377  11.644
 2750W        W68010  32.337   7.303   1.303
 2751W        W68011  27.135  34.531   0.453
 2752W        W68012  19.605  44.967   0.698
 2753W        W68013  16.871   8.245   0.329
 2754W        W68014  43.378   2.755  10.620
 2755W        W68015   0.624   0.830   2.400
 2756W        W68016  40.891  10.652  12.955
 2757W        W68017  22.717  28.465  11.163
 2758W        W68018  40.883   2.204  10.652
 2759W        W68019   9.225  44.234   1.321
 2760W        W68020  34.631  36.605   1.447
 2761W        W68021   5.714  10.576  12.887
 2762W        W68022   7.399  43.393  12.553
 2763W        W68023  30.946  19.177  13.507
 2764W        W68024   2.876  25.147   3.341
 2765W        W68025   6.227  24.341  11.959
 2766W        W68026  24.581  34.130  13.340
 2767W        W68027  24.584  26.097   0.181
 2768W        W68028  43.839   5.158   1.291
 2769W        W68029  10.714  30.599   3.866
 2770W        W68030  34.501   4.056   2.670
 2771W        W68031  18.064  27.114  14.294
 2772W        W68032  39.726  35.221  11.023
 2773W        W68033  20.569  10.563  14.925
 2774W        W68034  40.106   2.890   3.700
 2775W        W68035   2.545  14.100   4.120
 2776W        W68036   6.797  10.633   4.606
 2777W        W68037  23.554  26.945   1.750
 2778W        W68038  31.045  30.497   0.683
 2779W        W68039   9.564  28.147  12.614
 2780W        W68040  11.010  23.095  10.969
 2781W        W68041  42.048  11.570   2.763
 2782W        W68042  34.063  30.599  13.856
 2783W        W68043  26.525  43.582   3.802
 2784W        W68044  26.143  14.565   1.182
 2785W        W68045   2.846  10.133  12.078
 2786W        W68046  41.271   2.611   5.461
 2787W        W68047  22.443  28.888   9.741
 2788W        W68048  38.934  31.677  13.809
 2789W        W68049  33.636  32.624   4.545
 2790W        W68050  27.087  15.305  10.716
 2791W        W68051   4.232  44.364   3.085
 2792W        W68052   0.680   4.820   3.127
 2793W        W68053  16.992   2.841  13.463
 2794W        W68054  34.032  15.671  11.845
 2795W        W68055   5.729  35.567   1.427
 2796W        W68056   4.400  19.461  10.600
 2797W        W68057  35.114  36.818  12.088
 2798W        W68058  21.087  10.321   3.735
 2799W        W68059  23.326  38.055   0.807
 2800W        W68060   2.375  29.096  13.044
 2801W        W68061   6.462  27.084  12.930
 2802W        W68062  13.828   4.283  11.628
 2803W        W68063   9.751  44.310  13.237
 2804W        W68064   6.345  16.051  12.337
 2805W        W68065  42.286   8.517  11.127
 2806W        W68066  25.466   6.904   3.644
 2807W        W68067  19.635  44.956  11.556
 2808W        W68068  35.972  25.215   5.081
 2809W        W68069  19.734  18.954   3.184
 2810W        W68070  34.150  15.762   0.368
 2811W        W68071  20.714  33.081  14.986
 2812W        W68072  32.390  16.805   3.646
 2813W        W68073  10.790  30.505  10.425
 2814W        W68074  29.651  31.442   1.773
 2815W        W68075   1.579  32.942   3.499
 2816W        W68076  40.810  18.218  13.370
 2817W        W68077   0.464  41.250  13.047
 2818W        W68078  36.850  12.032   4.102
 2819W        W68079   3.661  32.698   1.900
 2820W        W68080   3.371  27.684   1.245
 2821W        W68081   1.228  21.957   3.658
 2822W        W68082  42.855   4.257  14.880
 2823W        W68083  43.125  31.091  11.733
 2824W        W68084  32.754  26.806   4.990
 2825W        W68085  44.072   2.237   1.676
 2826W        W68086   3.794  25.455   3.286
 2827W        W68087  16.816  20.225   0.371
 2828W        W68088  25.202   2.734   1.542
 2829W        W68089  34.324  33.100  12.506
 2830W        W68090  10.437  24.693   0.036
 2831W        W68091  39.955  21.020   1.887
 2832W        W68092  32.595  44.005   4.931
 2833W        W68093  33.044   8.704  11.412
 2834W        W68094  24.125  37.075   0.199
 2835W        W68095  34.080   8.606   2.242
 2836W        W68096  16.323   0.884  10.864
 2837W        W68097   0.735   7.745   2.756
 2838W        W68098  25.067   0.907  13.325
 2839W        W68099  31.523  38.995  14.479
 2840W        W68100  24.050  40.601   2.233
 2841W        W68101  16.064  40.933  12.025
 2842W        W68102   5.618  36.980  11.598
 2843W        W68103   4.183  25.724   2.361
 2844W        W68104  44.824  10.736   0.770
 2845W        W68105  34.640  15.224  12.003
 2846W        W68106  42.293   4.355   4.038
 2847W        W68107  18.819  44.910   1.852
 2848W        W68108  37.842  16.168   0.042
 2849W        W68109  34.676  30.180   1.435
 2850W        W68110   6.721  30.390   0.348
 2851W        W68111  15.780  32.930   2.354
 2852W        W68112  37.030  36.313   4.562
 2853W        W68113   7.760  27.745   4.087
 2854W        W68114  25.951   1.803  11.947
 2855W        W68115  13.570   0.347  14.107
 2856W        W68116  33.363  42.389   2.938
 2857W        W68117  40.852  42.853  14.568
 2858W        W68118  25.261  33.527   0.251
 2859W        W68119  31.169  26.109  14.045
 2860W        W68120  21.465  34.141   3.266
 2861W        W68121  24.458  16.780   1.385
 2862W        W68122   9.892   5.240   3.633
 2863W        W68123  44.426  28.048  13.564
 2864W        W68124   5.383  29.743   2.155
 2865W        W68125   2.936  44.956  14.267
 2866W        W68126  28.072  22.921  14.937
 2867W        W68127  33.462  18.835   3.795
 2868W        W68128  42.735  22.630  11.932
 2869W        W68129  30.562  24.157  12.569
 2870W        W68130  16.558  27.106   0.812
 2871W        W68131   2.597   3.740   1.352
 2872W        W68132  29.501   1.958   4.333
 2873W        W68133  36.419  34.562   2.720
 2874W        W68134  34.953  15.355   4.963
 2875W        W68135  34.088  31.499  10.852
 2876W        W68136   1.259  36.512   1.892
 2877W        W68137  21.589  16.592   3.899
 2878W        W68138  15.728   2.700   1.406
 2879W        W68139  23.051  40.111  12.190
 2880W        W68140  35.049  44.579  11.139
 2881W        W68141  10.883  35.259  14.332
 2882W        W68142  32.354   2.954  10.632
 2883W        W68143   4.843  38.537  13.365
 2884W        W68144  27.561  21.652  13.400
 2885W        W68145  18.509   2.485   0.140
 2886W        W68146  20.128  11.870  11.754
 2887W        W68147  25.747  19.196   2.379
 2888W        W68148  20.136  11.364   0.029
 2889W        W68149  11.007  16.869   0.277
 2890W        W68150  16.401   0.396   3.631
 2891W        W68151  27.150   5.866   4.911
 2892W        W68152  38.730  13.280  11.793
 2893W        W68153  10.725  39.962  11.670
 2894W        W68154  22.629  29.160   3.325
 2895W        W68155  13.839  21.116   4.307
 2896W        W68156   7.249  17.259  13.571
 2897W        W68157   4.719  16.060  13.770
 2898W        W68158  17.254  44.226  10.808
 2899W        W68159   2.724   6.774  11.493
 2900W        W68160  24.731  16.586   3.245
 2901W        W68161   9.641  38.280   3.474
 2902W        W68162   4.663  36.894   5.158
 2903W        W68163   4.421   4.328   2.813
 2904W        W68164  20.804  38.255   3.154
 2905W        W68165  27.751  30.575   3.592
 2906W        W68166   0.549   3.331  13.154
 2907W        W68167  43.909  14.102   5.486
 2908W        W68168  42.144  38.971   2.393
 2909W        W68169  28.793  24.677  10.869
 2910W        W68170  15.082  21.735  13.219
 2911W        W68171  18.630  18.539   0.919
 2912W        W68172   8.620  29.651  10.759
 2913W        W68173  39.365  41.138   2.814
 2914W        W68174  24.309  27.872   0.232
 2915W        W68175   5.021  37.743  14.561
 2916W        W68176   7.846  19.681   1.352
 2917W        W68177  11.440  26.173   0.361
 2918W        W68178  28.423  23.415   1.327
 2919W        W68179   6.479   0.701  10.643
 2920W        W68180  22.731  15.074   4.303
 2921W        W68181  17.136   3.455  14.826
 2922W        W68182   1.488   8.363   0.354
 2923W        W68183  42.012  38.048   1.423
 2924W        W68184  19.210  39.110  10.985
 2925W        W68185  22.494  12.678   0.162
 2926W        W68186  33.891  40.890   0.390
 2927W        W68187   1.648  43.004   4.921
 2928W        W68188  19.081   6.392  12.615
 2929W        W68189  26.520   0.887  12.003
 2930W        W68190  18.288  27.940  11.184
 2931W        W68191  40.325  39.889   2.824
 2932W        W68192   7.642  38.067   0.741
 2933W        W68193  22.565   0.073  11.394
 2934W        W68194  11.786  29.925  10.629
 2935W        W68195  22.011  15.392   1.204
 2936W        W68196  27.563   6.823  10.153
 2937W        W68197   5.061   5.208   0.749
 2938W        W68198  41.951  28.860  12.995
 2939W        W68199   8.274  14.649   2.176
 2940W        W68200  15.568  16.653  11.175
 2941W        W68201  29.168  39.644   0.805
 2942W        W68202  23.286  31.610  12.546
 2943W        W68203  13.629  26.137  11.166
 2944W        W68204   7.275  15.903  12.436
 2945W        W68205  23.302  35.318  12.506
 2946W        W68206  43.806  21.245  13.032
 2947W        W68207   9.136   8.663   4.304
 2948W        W68208   4.839  20.603   0.677
 2949W        W68209  33.571  20.981  13.876
 2950W        W68210  21.541   4.536   1.735
 2951W        W68211  34.496  15.583  12.631
 2952W        W68212   7.913   0.036   1.264
 2953W        W68213  18.203  38.552  10.658
 2954W        W68214   1.810  23.722  12.475
 2955W        W68215  18.630  38.272   4.572
 2956W        W68216  27.690  13.830  14.029
 2957W        W68217   4.066  23.279  11.662
 2958W        W68218  15.395  11.245   2.369
 2959W        W68219  40.402  25.546  13.736
 2960W        W68220  35.315  34.660  13.602
 2961W        W68221   8.821  15.667  10.722
 2962W        W68222  44.145  26.110  11.146
 2963W        W68223  39.378  31.661  13.455
 2964W        W68224  30.987  37.109  11.675
 2965W        W68225  14.392   5.348  12.497
 2966W        W68226  40.876  18.220   1.643
 2967W        W68227  32.015  30.642  12.071
 2968W        W68228  10.235  37.253  12.371
 2969W        W68229   4.680   9.772  14.079
 2970W        W68230  26.524  16.224  13.772
 2971W        W68231  44.782  32.462  14.225
 2972W        W68232  37.103  27.561   0.673
 2973W        W68233  24.811  13.898   2.736
 2974W        W68234  27.830  27.549   3.572
 2975W        W68235  38.848  17.519  12.917
 2976W        W68236  13.542  21.020   3.254
 2977W        W68237  25.043  19.130  14.301
 2978W        W68238  16.784   5.304   2.775
 2979W        W68239   2.406  13.599  11.308
 2980W        W68240   7.282  29.686   2.792
 2981W        W68241  13.884  28.791   3.631
 2982W        W68242   9.390   6.504   0.928
 2983W        W68243  10.127  35.070  14.052
 2984W        W68244  31.964  42.331   4.188
 2985W        W68245  12.995  42.969   3.095
 2986W        W68246  14.683   5.306  11.181
 2987W        W68247  40.799  38.321   1.967
 2988W        W68248  33.654  34.990  13.800
 2989W        W68249  35.773   0.575   3.223
 2990W        W68250  30.527  23.263  14.882
 2991W        W68251  36.942  15.879   1.490
 2992W        W68252  36.607   8.305  14.923
 2993W        W68253  27.304  31.210  12.430
 2994W        W68254   0.296  21.127   3.626
 2995W        W68255  34.635   2.427   2.364
 2996W        W68256  24.491  25.365   3.219
 2997W        W68257   5.147   3.474   4.196
 2998W        W68258   2.972  22.756   3.314
 2999W        W68259  40.012  28.152  11.985
 3000W        W68260  14.756  12.263   0.666
 3001W        W68261  17.151  15.090   2.847
 3002W        W68262  11.735  23.287   1.065
 3003W        W68263   3.931  29.439  11.215
 3004W        W68264  36.539  25.943  10.770
 3005W        W68265   8.664  31.650   4.314
 3006W        W68266  40.586  40.458   4.469
 3007W        W68267   4.201  22.582   4.832
 3008W        W68268  17.860  41.978  11.547
 3009W        W68269   5.199  33.821  11.624
 3010W        W68270  21.067  42.983  12.122
 3011W        W68271   0.036  35.881   3.764
 3012W        W68272  25.628  32.288   4.050
 3013W        W68273  40.517  12.696   1.388
 3014W        W68274  44.323   4.400   2.365
 3015W        W68275   7.226  13.569  14.727
 3016W        W68276  17.759  17.490  13.478
 3017W        W68277   8.472  10.143   2.336
 3018W        W68278   7.172  31.033  10.970
 3019W        W68279  15.315  17.301   2.351
 3020W        W68280  35.324   0.540   0.384
 3021W        W68281   1.875  10.646   1.447
 3022W        W68282   8.187  42.424   4.439
 3023W        W68283  10.292  42.593   3.686
 3024W        W68284  12.583  22.061   3.513
 3025W        W68285   5.313   9.612   4.571
 3026W        W68286  38.930  42.790   3.700
 3027W        W68287  14.598  33.585   3.813
 3028W        W68288   9.156  27.699   4.240
 3029W        W68289   4.526  36.535  12.529
 3030W        W68290  44.821   7.372  10.737
 3031W        W68291   0.152  15.775  14.231
 3032W        W68292  22.126  17.759   3.733
 3033W        W68293  40.927  16.104  14.884
 3034W        W68294  35.652   4.832  12.438
 3035W        W68295  34.411   6.492  11.187
 3036W        W68296  25.727   2.151  13.375
 3037W        W68297  10.266  12.243  14.801
 3038W        W68298  14.464  21.512   1.991
 3039W        W68299   7.595  33.684   1.882
 3040W        W68300   3.853  35.812   0.817
 3041W        W68301  40.073  25.529  10.415
 3042W        W68302  31.174  26.389  12.765
 3043W        W68303   8.187   3.219   3.214
 3044W        W68304   3.227   4.852  10.961
 3045W        W68305   5.682   0.522   4.650
 3046W        W68306   2.521  10.835  13.369
 3047W        W68307   7.499  19.103   1.762
 3048W        W68308  43.261  35.078   1.162
 3049W        W68309  28.999   6.161  12.515
 3050W        W68310  43.880  11.081   2.713
 3051W        W68311  30.210  11.223  11.597
 3052W        W68312  28.164   2.836   5.071
 3053W        W68313  41.517  16.339  12.058
 3054W        W68314   5.400  21.525   1.978
 3055W        W68315  37.160   0.203  10.326
 3056W        W68316  29.697  31.282   2.343
 3057W        W68317  41.948  20.612  14.806
 3058W        W68318   9.496   7.905   5.431
 3059W        W68319  10.295   4.311   3.603
 3060W        W68320   9.198   1.976   1.185
 3061W        W68321  43.409  43.874  12.101
 3062W        W68322  21.985  34.274   3.277
 3063W        W68323  20.744  28.506  14.323
 3064W        W68324  33.042   3.815   3.132
 3065W        W68325  37.871  22.391  13.316
 3066W        W68326   2.449  41.066  12.048
 3067W        W68327   4.892   6.706  12.934
 3068W        W68328   4.471  20.229   0.712
 3069W        W68329  16.645  37.857  14.529
 3070W        W68330  43.854  41.943   3.648
 3071W        W68331  17.725  21.553   0.875
 3072W        W68332   0.728   5.382   0.912
 3073W        W68333   8.557  44.447  11.249
 3074W        W68334  15.356  20.063  11.031
 3075W        W68335  33.407  34.026   0.343
 3076W        W68336  26.941  13.439  11.582
 3077W        W68337  15.411  33.454   2.167
 3078W        W68338  24.028  35.831   2.648
 3079W        W68339  16.692   1.068   5.076
 3080W        W68340  27.304  21.624  10.163
 3081W        W68341  23.765  26.067  13.449
 3082W        W68342   3.294  18.637  11.657
 3083W        W68343   4.352  42.459   1.660
 3084W        W68344  21.052   8.758   3.333
 3085W        W68345  35.407  37.341   0.807
 3086W        W68346   3.247  42.402   2.329
 3087W        W68347   6.122  43.203  12.199
 3088W        W68348  27.230  15.127  11.184
 3089W        W68349  29.034  14.191  12.154
 3090W        W68350  19.739  28.556  13.342
 3091W        W68351  20.361  30.040  13.354
 3092W        W68352   4.514  44.385  12.843
 3093W        W68353  32.121   7.263  14.334
 3094W        W68354  21.535  27.416   4.026
 3095W        W68355  22.989   8.603  11.925
 3096W        W68356  32.935  10.335   0.277
 3097W        W68357  26.702  29.625   5.074
 3098W        W68358  32.616  20.576  12.512
 3099W        W68359  23.529  15.362  13.513
 3100W        W68360   7.306  39.352   3.739
 3101W        W68361  28.569  12.382   2.870
 3102W        W68362  25.442   6.174   1.183
 3103W        W68363   1.908   9.221   4.366
 3104W        W68364  40.399  30.176   2.319
 3105W        W68365  16.102  15.617  10.650
 3106W        W68366  24.667  25.061  12.231
 3107W        W68367   4.715  37.988   2.826
 3108W        W68368  17.171  23.053   3.823
 3109W        W68369  31.583  31.250   5.087
 3110W        W68370  20.772  37.063   2.533
 3111W        W68371   2.988  28.832  14.343
 3112W        W68372  43.513   8.683   2.910
 3113W        W68373  24.533  20.986   1.200
 3114W        W68374  15.075  35.341  14.444
 3115W        W68375  26.767  23.784   4.191
 3116W        W68376  28.243  10.249  14.826
 3117W        W68377  26.304   4.841  14.282
 3118W        W68378   5.875  39.778   3.700
 3119W        W68379  41.799  31.508  12.394
 3120W        W68380  16.124  34.446   3.869
 3121W        W68381  23.060  26.465   0.671
 3122W        W68382   4.943  35.067  12.002
 3123W        W68383  23.283   8.944   4.138
 3124W        W68384  27.644   3.429  12.044
 3125W        W68385  14.697  40.302   4.672
 3126W        W68386   6.536  25.474   3.284
 3127W        W68387  24.037  11.385   0.811
 3128W        W68388   8.308   0.747  10.677
 3129W        W68389  29.524  28.997  10.401
 3130W        W68390  43.743  21.611  11.871
 3131W        W68391  11.279  34.097  12.532
 3132W        W68392  29.398  40.863   3.718
 3133W        W68393  44.382  36.949   0.362
 3134W        W68394  17.201  15.288   1.398
 3135W        W68395   5.717   3.426  12.349
 3136W        W68396  13.065  29.892   2.805
 3137W        W68397   3.792  16.017  11.968
 3138W        W68398  43.045  19.575   0.263
 3139W        W68399   5.494  38.793   2.693
 3140W        W68400  22.017  36.296  13.415
 3141W        W68401  15.498  41.344   1.294
 3142W        W68402  31.340  14.300   1.195
 3143W        W68403  11.954  43.778  13.500
 3144W        W68404  19.224  24.472  14.405
 3145W        W68405  44.364  41.933   4.539
 3146W        W68406  20.814  33.152   2.203
 3147W        W68407  28.122  44.910  11.055
 3148W        W68408  24.509  24.957  14.604
 3149W        W68409  21.864  19.307   1.319
 3150W        W68410   1.814  10.129   1.410
 3151W        W68411  24.543  14.348   2.824
 3152W        W68412  23.011  25.312   3.276
 3153W        W68413  19.758   3.336  12.479
 3154W        W68414  21.703   4.567   2.729
 3155W        W68415  21.440   0.471  14.278
 3156W        W68416  37.902  34.389   4.431
 3157W        W68417  38.009  16.306   3.888
 3158W        W68418  13.407  37.550   3.236
 3159W        W68419  39.120  38.569  14.883
 3160W        W68420  14.870  19.645  14.396
 3161W        W68421  43.764  28.036   1.115
 3162W        W68422  42.871  27.451   4.188
 3163W        W68423   0.493   4.746   2.642
 3164W        W68424  22.716  27.459   1.821
 3165W        W68425  21.062  39.318   1.731
 3166W        W68426   5.825  27.686   0.772
 3167W        W68427   8.958  15.768  11.205
 3168W        W68428  25.666  39.333   2.908
 3169W        W68429   6.977  30.449   2.129
 3170W        W68430  42.077  27.491   3.202
 3171W        W68431  37.137  22.610  12.936
 3172W        W68432  25.599  15.199   1.681
 3173W        W68433   0.240  20.692   3.272
 3174W        W68434  44.363  41.962   1.358
 3175W        W68435   6.703   9.910   1.765
 3176W        W68436  27.351  33.492  12.018
 3177W        W68437  33.552  40.259   2.535
 3178W        W68438  18.733  20.710  10.458
 3179W        W68439  26.423   2.902   2.203
 3180W        W68440  35.076  10.144   4.660
 3181W        W68441  15.684  25.549  10.782
 3182W        W68442  22.018   1.861  10.043
 3183W        W68443  36.423  21.988   3.154
 3184W        W68444  38.412   8.068   2.378
 3185W        W68445  38.843  18.040  12.905
 3186W        W68446  30.621   3.968  14.642
 3187W        W68447  36.950  12.390  14.021
 3188W        W68448   3.246  11.165   2.338
 3189W        W68449  33.568  41.195   2.248
 3190W        W68450  34.674   9.351  12.906
 3191W        W68451  38.344  10.593  10.564
 3192W        W68452  42.393  16.218   4.417
 3193W        W68453  20.342   7.889   0.235
 3194W        W68454  14.761  16.058  11.253
 3195W        W68455  27.768  19.628  10.483
 3196W        W68456   9.930  15.103  11.986
 3197W        W68457  12.062  11.685  13.859
 3198W        W68458   8.872  18.741  11.519
 3199W        W68459  18.776  15.057  11.115
 3200W        W68460   5.707  19.051   0.256
 3201W        W68461  20.447  22.965  12.210
 3202W        W68462  28.501  26.196   3.150
 3203W        W68463  39.770   0.423  14.248
 3204W        W68464  35.191  26.664   2.206
 3205W        W68465   7.274  39.788   0.814
 3206W        W68466  25.890  18.003  14.831
 3207W        W68467  17.044   7.171   0.446
 3208W        W68468  14.139  31.740  13.879
 3209W        W68469   6.283   2.720  13.808
 3210W        W68470  12.758  42.978   1.222
 3211W        W68471   2.584   8.426  12.956
 3212W        W68472  37.886   7.748   0.883
 3213W        W68473   4.464  14.615   2.890
 3214W        W68474   5.285  13.903  13.925
 3215W        W68475   2.218  27.628  11.607
 3216W        W68476   2.781  18.229  10.776
 3217W        W68477  34.001  11.794  11.732
 3218W        W68478   3.661  22.179  13.228
 3219W        W68479  41.401  23.988  14.438
 3220W        W68480  40.527  35.316   3.104
 3221W        W68481  10.460  11.888   4.289
 3222W        W68482  15.329  35.308   1.353
 3223W        W68483  33.313  32.947  12.469
 3224W        W68484  19.164  21.981  14.273
 3225W        W68485  18.028  17.713  13.946
 3226W        W68486  37.319  20.528  13.361
 3227W        W68487  21.216  43.933   0.403
 3228W        W68488  36.784  30.456  11.646
 3229W        W68489  11.341  26.262  13.760
 3230W        W68490  11.382  39.935  13.543
 3231W        W68491  35.965  17.185   4.586
 3232W        W68492  35.348   4.856   2.476
 3233W        W68493  33.893   4.664   3.742
 3234W        W68494  33.547  32.106  11.929
 3235W        W68495  34.086  44.925  13.599
 3236W        W68496  40.765  13.791  14.512
 3237W        W68497  10.555  16.566  11.036
 3238W        W68498  29.464   6.158   2.859
 3239W        W68499  11.085  16.799  13.318
 3240W        W68500   5.317  19.287  13.514
 3241W        W68501  30.125  13.287  11.410
 3242W        W68502  35.148  25.824  14.659
 3243W        W68503  17.221  39.633   2.251
 3244W        W68504  23.472  44.331  14.042
 3245W        W68505  36.530  27.589   4.035
 3246W        W68506   4.907  16.922  13.977
 3247W        W68507  39.055  22.537  10.087
 3248W        W68508  39.270   6.896   0.867
 3249W        W68509  28.731  17.149  14.902
 3250W        W68510  32.222  27.898  14.033
 3251W        W68511  40.633   7.270   3.299
 3252W        W68512  31.443  29.403  10.585
 3253W        W68513   5.311   8.652   0.495
 3254W        W68514  44.472  14.218   1.048
 3255W        W68515   6.052   9.337   1.378
 3256W        W68516  32.424   6.473  12.104
 3257W        W68517  11.645  15.850  11.067
 3258W        W68518  11.012   9.232   0.841
 3259W        W68519   2.325  19.932  10.993
 3260W        W68520   2.304  12.309   0.693
 3261W        W68521   2.242  30.150   2.912
 3262W        W68522  28.425   6.685   0.956
 3263W        W68523  31.414  38.573  11.951
 3264W        W68524  24.600  32.657   0.090
 3265W        W68525  44.813  17.318  11.691
 3266W        W68526  35.556  38.909   3.253
 3267W        W68527  22.013  18.247  10.326
 3268W        W68528  29.677  34.100  10.761
 3269W        W68529  19.440  44.979  10.533
 3270W        W68530  15.884   8.221   0.607
 3271W        W68531  23.561  31.931   0.719
 3272W        W68532   4.333  42.898   1.955
 3273W        W68533  12.835  21.955  12.049
 3274W        W68534  13.183  13.323  11.500
 3275W        W68535  32.786   5.136  14.501
 3276W        W68536   8.051   7.803  13.919
 3277W        W68537  29.676  20.473  14.288
 3278W        W68538   7.717   5.604   2.208
 3279W        W68539  21.314   2.859  14.483
 3280W        W68540  40.633   4.041  11.526
 3281W        W68541  43.028  36.606   0.432
 3282W        W68542  16.148  32.792  13.377
 3283W        W68543  18.272   5.171  12.873
 3284W        W68544  30.565  22.045   4.097
 3285W        W68545  17.545  12.671   4.508
 3286W        W68546  41.917  27.195   4.299
 3287W        W68547  32.141  31.723  13.526
 3288W        W68548  27.163  43.834   3.371
 3289W        W68549   8.197  11.345   2.467
 3290W        W68550  40.537  43.642   1.689
 3291W        W68551   4.732   3.252  13.566
 3292W        W68552  17.784  42.352   0.754
 3293W        W68553   6.959  35.102  13.530
 3294W        W68554  18.003  18.722   1.507
 3295W        W68555  19.575  27.005  11.116
 3296W        W68556   4.610   9.261  10.651
 3297W        W68557  11.531  40.061   0.395
 3298W        W68558  23.671  32.847  12.006
 3299W        W68559  31.659  14.695   3.353
 3300W        W68560  42.745   4.198   1.350
 3301W        W68561  36.690  22.717   3.812
 3302W        W68562  25.230  32.998  14.495
 3303W        W68563  42.239   3.839  14.310
 3304W        W68564  42.064  25.425   0.811
 3305W        W68565  16.345   0.529  12.475
 3306W        W68566  18.741   6.292   0.870
 3307W        W68567  16.529   0.812   3.151
 3308W        W68568  43.407  23.396   4.984
 3309W        W68569  24.002  29.242   4.182
 3310W        W68570   8.617   7.817   3.283
 3311W        W68571  30.983  42.369  11.608
 3312W        W68572  38.924  15.597   2.809
 3313W        W68573  30.928  42.461   3.652
 3314W        W68574   6.667  43.829   4.565
 3315W        W68575   1.459  30.726   0.641
 3316W        W68576  34.893  18.199  10.263
 3317W        W68577  14.702  32.546   1.603
 3318W        W68578  35.235  31.272   2.793
 3319W        W68579   0.286  23.335  10.917
 3320W        W68580   5.245  44.274   1.895
 3321W        W68581  29.226   4.455   2.197
 3322W        W68582  26.750  35.633   2.297
 3323W        W68583  21.745   1.677   3.367
 3324W        W68584  35.148  28.603  10.711
 3325W        W68585  37.394  22.488   4.579
 3326W        W68586  34.257  19.281   1.505
 3327W        W68587  19.388  30.818   2.691
 3328W        W68588  43.522  37.057  12.037
 3329W        W68589  30.531   1.786  10.437
 3330W        W68590  26.198  13.435   4.664
 3331W        W68591  30.526  22.993   0.853
 3332W        W68592  25.474   8.113   3.569
 3333W        W68593  34.320  36.555   3.371
 3334W        W68594  15.632  42.929  10.572
 3335W        W68595  13.890  22.151   1.151
 3336W        W68596  27.041  42.001   1.736
 3337W        W68597  18.975  25.611  13.757
 3338W        W68598  43.389  38.167  12.928
 3339W        W68599  27.157  22.190  13.733
 3340W        W68600  15.749  36.436   0.499
 3341W        W68601  14.258  21.688   3.275
 3342W        W68602  22.543  32.615   3.589
 3343W        W68603   1.964  41.893   1.263
 3344W        W68604  24.445  25.151   1.303
 3345W        W68605  12.105  20.656   1.767
 3346W        W68606  29.416  39.316  13.835
 3347W        W68607  25.519   5.490  13.891
 3348W        W68608  26.071  44.912   2.806
 3349W        W68609  42.825  42.336  11.124
 3350W        W68610   3.302  32.146  14.313
 3351W        W68611  19.160  19.411   1.372
 3352W        W68612  35.682  39.783   2.217
 3353W        W68613  23.247   9.145  14.525
 3354W        W68614  32.057  17.602   0.062
 3355W        W68615   5.285   2.783  11.524
 3356W        W68616  37.166   8.715   2.342
 3357W        W68617  31.519  18.679   4.158
 3358W        W68618   7.828   5.740   0.683
 3359W        W68619  26.169  35.965  10.439
 3360W        W68620  15.209  37.390  11.618
 3361W        W68621  16.391  22.245  13.429
 3362W        W68622  28.284  19.767   3.780
 3363W        W68623   4.428  11.092   0.925
 3364W        W68624  27.943  38.174   3.694
 3365W        W68625   7.873  34.185   1.042
 3366W        W68626  25.697   1.739   1.816
 3367W        W68627  20.773  25.230   0.724
 3368W        W68628  23.095  40.944  12.769
 3369W        W68629  21.313  39.121   4.722
 3370W        W68630  23.495  38.356   2.390
 3371W        W68631  21.002   5.415  10.009
 3372W        W68632   6.781  29.979   2.273
 3373W        W68633  30.475  44.049  12.481
 3374W        W68634   6.801   4.818   4.605
 3375W        W68635  35.928  10.889   3.316
 3376W        W68636  10.112  22.956  10.583
 3377W        W68637  34.133   1.496  12.436
 3378W        W68638  38.566   0.048  12.465
 3379W        W68639  10.429  32.903  13.420
 3380W        W68640  20.543  25.908   1.205
 3381W        W68641  14.091  21.709  10.147
 3382W        W68642  32.954  29.632  10.694
 3383W        W68643  30.628   3.032   0.743
 3384W        W68644  12.362   4.272  11.650
 3385W        W68645  33.415   2.029   1.186
 3386W        W68646  42.765  14.383   3.151
 3387W        W68647   9.813  37.344   4.878
 3388W        W68648  33.950  43.506  11.724
 3389W        W68649  34.434  15.392   3.399
 3390W        W68650   1.517  19.143   1.416
 3391W        W68651   4.938   1.279  10.546
 3392W        W68652   7.714  28.096  12.035
 3393W        W68653   6.094  42.953   2.305
 3394W        W68654  15.164  17.174   1.481
 3395W        W68655  33.473   0.435  13.572
 3396W        W68656  41.077  31.410  13.318
 3397W        W68657  39.976  15.283  14.139
 3398W        W68658   7.914   9.699  12.408
 3399W        W68659  24.007  33.146  10.306
 3400W        W68660  42.392   4.580  10.504
 3401W        W68661  23.593  18.007  12.635
 3402W        W68662  37.013  19.055   2.310
 3403W        W68663  38.507  37.306  14.413
 3404W        W68664  17.160  14.833   4.154
 3405W        W68665  10.381  40.880   2.165
 3406W        W68666  20.638  28.389  12.869
 3407W        W68667  21.991   4.465   3.142
 3408W        W68668  24.527  39.660  10.205
 3409W        W68669  21.781   0.998  14.489
 3410W        W68670  42.401   1.057   4.693
 3411W        W68671   0.185  12.766  13.955
 3412W        W68672   6.965  42.794   0.355
 3413W        W68673   6.807   6.739  11.769
 3414W        W68674   2.237  14.829  12.522
 3415W        W68675  43.034  28.697   3.624
 3416W        W68676  38.088   0.284   0.467
 3417W        W68677  15.043  38.251  11.526
 3418W        W68678  26.620   4.399  13.377
 3419W        W68679  35.244  33.588   4.619
 3420W        W68680   2.762  20.643  12.020
 3421W        W68681  27.967  39.364   2.288
 3422W        W68682   0.382  10.261  13.826
 3423W        W68683  30.294  10.686   4.043
 3424W        W68684  32.408  12.109   2.411
 3425W        W68685  29.975  19.773   2.129
 3426W        W68686   3.257  23.641   0.244
 3427W        W68687  36.288   9.158  10.740
 3428W        W68688  40.372  27.150   3.587
 3429W        W68689  31.587  16.694  13.390
 3430W        W68690  40.797  30.477   4.887
 3431W        W68691   6.715  28.711  11.997
 3432W        W68692  40.767   8.481   0.741
 3433W        W68693  37.435  37.991  13.826
 3434W        W68694  25.345  15.017  10.275
 3435W        W68695  14.993   3.401  11.092
 3436W        W68696   0.969  30.790   1.703
 3437W        W68697  29.499   0.310   1.655
 3438W        W68698  32.324   6.157   1.834
 3439W        W68699   4.419  39.852  13.333
 3440W        W68700  36.116  20.558  11.122
 3441W        W68701  41.425  22.032   1.402
 3442W        W68702   6.021   0.123  12.145
 3443W        W68703  26.052   4.721  12.453
 3444W        W68704  35.029  14.102  13.726
 3445W        W68705   5.885  39.027  11.455
 3446W        W68706  24.433   9.194   2.444
 3447W        W68707  40.623  20.527  14.335
 3448W        W68708  42.245  40.368  12.115
 3449W        W68709  28.609  37.988   1.239
 3450W        W68710   5.828  14.082  12.994
 3451W        W68711  21.237  37.759  14.464
 3452W        W68712  30.054   6.331  13.739
 3453W        W68713  11.943   1.994  12.864
 3454W        W68714  40.598   8.746  12.980
 3455W        W68715  31.204   9.653  11.144
 3456W        W68716  37.832  41.096  14.434
 3457W        W68717   8.750  21.512  13.972
 3458W        W68718  43.524  12.895  13.535
 3459W        W68719  24.558  39.562  13.172
 3460W        W68720  36.783  14.033   4.484
 3461W        W68721  34.839  43.806  10.356
 3462W        W68722  20.966  39.308  14.898
 3463W        W68723  16.204  38.490   1.302
 3464W        W68724   6.396  41.120   3.708
 3465W        W68725   5.936  25.236  11.091
 3466W        W68726  25.091  19.509  11.198
 3467W        W68727  19.822  32.537   1.772
 3468W        W68728  13.821   8.850   1.205
 3469W        W68729  16.542  34.888  13.979
 3470W        W68730  44.362   2.849  11.319
 3471W        W68731  15.652  44.313   3.099
 3472W        W68732  28.587  43.250   3.890
 3473W        W68733  42.435   1.213   2.854
 3474W        W68734  10.399  12.138  12.216
 3475W        W68735  24.483  29.150  13.531
 3476W        W68736  26.142  36.308   3.635
 3477W        W68737   0.834  37.454  10.994
 3478W        W68738  33.612  29.150   0.904
 3479W        W68739  16.608  21.116  13.090
 3480W        W68740  22.170  39.788   1.790
 3481W        W68741   3.195  30.228  10.566
 3482W        W68742  38.705  21.334   5.012
 3483W        W68743  12.351   0.412  13.509
 3484W        W68744  16.760  43.632   4.745
 3485W        W68745  34.305   1.975  12.560
 3486W        W68746  17.825  38.600  11.945
 3487W        W68747  15.648   2.786   1.906
 3488W        W68748   4.972  15.885  12.036
 3489W        W68749  41.003  20.140   1.885
 3490W        W68750  38.198  12.565  12.511
 3491W        W68751  22.620   1.349  14.342
 3492W        W68752  31.973  26.995  13.916
 3493W        W68753  28.157   3.788   1.842
 3494W        W68754  14.330  28.110  10.273
 3495W        W68755  20.946  44.020   4.913
 3496W        W68756  35.376  35.611   4.182
 3497W        W68757  32.892  11.215   3.675
 3498W        W68758  34.117  36.319  12.401
 3499W        W68759  32.591  13.643   4.957
 3500W        W68760  28.017   0.599  12.077
 3501W        W68761  15.148  20.346   0.453
 3502W        W68762  33.339  14.423  11.192
 3503W        W68763  20.773  23.538  10.407
 3504W        W68764  21.842  12.399   3.062
 3505W        W68765  25.102  16.386  13.022
 3506W        W68766  24.275  21.214  12.406
 3507W        W68767  41.991   4.708   1.312
 3508W        W68768  34.067  25.702  13.956
 3509W        W68769  16.394  27.070  14.888
 3510W        W68770   9.187  37.370   3.195
 3511W        W68771  29.532  42.743   3.693
 3512W        W68772  11.139   6.721  13.821
 3513W        W68773  26.558  32.153  12.237
 3514W        W68774  26.150  34.615  11.907
 3515W        W68775  27.968  16.083  14.780
 3516W        W68776  23.674  41.579   4.175
 3517W        W68777  16.579  27.271   1.679
 3518W        W68778   5.822   8.682  14.264
 3519W        W68779  16.546  41.055   1.764
 3520W        W68780  26.406  38.462   0.724
 3521W        W68781  20.516  35.599   2.087
 3522W        W68782   1.365  19.193   0.305
 3523W        W68783  44.995  21.730  10.768
 3524W        W68784   7.163   9.668   3.154
 3525W        W68785  26.427  44.098   3.801
 3526W        W68786  41.991  31.181  11.869
 3527W        W68787  39.070  39.985  13.320
 3528W        W68788  13.989   5.885  11.723
 3529W        W68789   8.687  31.577   0.405
 3530W        W68790  33.995  34.467   4.644
 3531W        W68791  44.503   0.293  12.962
 3532W        W68792  32.144  16.938  11.036
 3533W        W68793  11.464   8.460   0.428
 3534W        W68794  15.714  18.307  14.820
 3535W        W68795  33.374   2.387   4.723
 3536W        W68796  24.984   8.750  12.525
 3537W        W68797  42.862  11.665   0.755
 3538W        W68798   0.704  30.701   0.266
 3539W        W68799   0.765   7.135   0.426
 3540W        W68800  30.436  44.334  14.262
 3541W        W68801  44.752  11.864  12.818
 3542W        W68802   6.690  28.087  14.441
 3543W        W68803  15.023  13.394   2.026
 3544W        W68804  37.338  39.111  10.672
 3545W        W68805  24.512  29.608   0.867
 3546W        W68806  42.355  11.961   3.645
 3547W        W68807  10.249  11.039  13.320
 3548W        W68808  14.266   2.743  11.093
 3549W        W68809  37.359  19.190   4.384
 3550W        W68810  19.998  37.748  12.671
 3551W        W68811  27.196  34.006  14.894
 3552W        W68812  39.847  19.174   1.592
 3553W        W68813  43.315  16.246   3.311
 3554W        W68814  34.568  37.443   2.180
 3555W        W68815  30.096   8.771  13.959
 3556W        W68816   5.252  27.929   3.688
 3557W        W68817  15.085  16.245   3.329
 3558W        W68818  24.026  15.101  12.790
 3559W        W68819  25.093  15.256   0.263
 3560W        W68820   6.175  17.604   1.595
 3561W        W68821  13.221   1.259  13.377
 3562W        W68822   8.006   3.099  11.973
 3563W        W68823   0.499  20.677  12.625
 3564W        W68824  23.219   1.869  11.444
 3565W        W68825  19.604  44.801   4.655
 3566W        W68826  43.507  35.358   2.441
 3567W        W68827  40.865   6.284   2.171
 3568W        W68828  31.195   5.240   1.464
 3569W        W68829  33.409   0.594   2.834
 3570W        W68830  40.440  27.368  11.915
 3571W        W68831   3.659  43.921   1.852
 3572W        W68832   1.407  38.492   0.764
 3573W        W68833  23.989  23.720   3.722
 3574W        W68834  27.000  43.677  11.693
 3575W        W68835  13.250  27.451   4.164
 3576W        W68836  12.665  24.072   1.130
 3577W        W68837  17.997  20.237   4.122
 3578W        W68838  36.163  13.015  13.525
 3579W        W68839  13.159  43.760  10.756
 3580W        W68840  24.982  14.324   1.361
 3581W        W68841  17.301  13.745  10.692
 3582W        W68842   6.235   8.723   0.785
 3583W        W68843  28.482  39.314   1.851
 3584W        W68844  39.805   7.348   0.264
 3585W        W68845   8.955  36.870  11.229
 3586W        W68846  14.457  43.700   2.596
 3587W        W68847  12.816  28.938   3.583
 3588W        W68848  17.753  15.277  12.110
 3589W        W68849  24.198  30.210   0.784
 3590W        W68850   0.422  19.066   0.800
 3591W        W68851  15.495  29.657  13.830
 3592W        W68852  43.617  19.318   4.602
 3593W        W68853  40.293  15.826  12.086
 3594W        W68854   6.095  18.079   1.906
 3595W        W68855  12.281  11.238   1.993
 3596W        W68856  19.696  32.460   3.092
 3597W        W68857  36.067   1.378   1.266
 3598W        W68858  39.949  18.336  10.659
 3599W        W68859  33.490  11.861  12.136
 3600W        W68860  31.633  13.667  12.390
 3601W        W68861   0.020  14.658   2.668
 3602W        W68862  43.404  18.053   3.631
 3603W        W68863  20.705  30.390  12.490
 3604W        W68864  36.453  22.271   4.009
 3605W        W68865  12.861   9.167  11.761
 3606W        W68866  40.300  28.839   9.971
 3607W        W68867  40.361  21.740  13.850
 3608W        W68868  31.527  40.690   1.795
 3609W        W68869  23.538   3.562  14.274
 3610W        W68870   1.949  15.217   4.278
 3611W        W68871  40.128  36.496  10.844
 3612W        W68872  14.213  25.809  11.462
 3613W        W68873  40.680  27.840   4.685
 3614W        W68874   4.645   6.860  12.473
 3615W        W68875  28.596  24.125   0.985
 3616W        W68876  26.814  11.642   4.067
 3617W        W68877   3.837  44.495  10.821
 3618W        W68878   1.235  33.564  13.823
 3619W        W68879  44.306  16.573   4.140
 3620W        W68880  14.340  11.906  11.511
 3621W        W68881  35.083  21.966   0.333
 3622W        W68882  31.711   2.587   3.826
 3623W        W68883  10.205  37.748   4.974
 3624W        W68884  23.747   3.254  12.940
 3625W        W68885  26.985  42.322  12.314
 3626W        W68886  26.125  16.164   0.890
 3627W        W68887  10.099  17.717   3.729
 3628W        W68888   7.763  19.674  13.746
 3629W        W68889  21.025   7.334   1.319
 3630W        W68890  26.555   0.849  14.907
 3631W        W68891  30.224  29.055   0.854
 3632W        W68892  39.075  30.496  12.035
 3633W        W68893  19.046   7.806  14.680
 3634W        W68894  38.460  13.415  14.039
 3635W        W68895  26.932   4.418   1.742
 3636W        W68896   7.528  22.732   4.988
 3637W        W68897  42.813  40.688   0.997
 3638W        W68898   5.017  37.972   2.397
 3639W        W68899   5.231   5.300   4.624
 3640W        W68900  25.624  26.978   4.176
 3641W        W68901  25.594  20.510  12.653
 3642W        W68902  23.486  16.668  11.378
 3643W        W68903  24.050  37.854   4.957
 3644W        W68904  12.088   2.344   3.786
 3645W        W68905  10.257   1.927  14.234
 3646W        W68906  22.189  11.685  10.729
 3647W        W68907   9.888  38.187  11.965
 3648W        W68908   7.154  16.618   1.349
 3649W        W68909  24.011  22.556  11.579
 3650W        W68910  12.546  37.422   4.262
 3651W        W68911   0.399   5.161  14.691
 3652W        W68912  37.100  36.973  12.227
 3653W        W68913  10.951  11.303  11.601
 3654W        W68914  31.583  17.407   2.186
 3655W        W68915  11.648  14.274   3.592
 3656W        W68916  17.662  18.796  11.559
 3657W        W68917  37.381  10.628   0.348
 3658W        W68918  13.629  16.744  12.129
 3659W        W68919  33.354  18.268  11.665
 3660W        W68920  40.586  16.235  11.920
 3661W        W68921  22.157   3.317  11.213
 3662W        W68922   2.490   7.651   0.691
 3663W        W68923   4.763  17.694  11.392
 3664W        W68924  17.255  41.187   1.289
 3665W        W68925  42.416  32.514   1.675
 3666W        W68926  37.949  12.796  13.705
 3667W        W68927  13.241   3.155  14.785
 3668W        W68928   5.212  29.103  12.024
 3669W        W68929  21.505  40.062   4.373
 3670W        W68930  23.576  36.366   0.391
 3671W        W68931  31.441  23.503  13.454
 3672W        W68932  43.524  19.632  13.499
 3673W        W68933   0.696  10.048  11.601
 3674W        W68934  32.544  18.628   3.942
 3675W        W68935  36.140  36.101   0.339
 3676W        W68936  18.248  17.407  13.370
 3677W        W68937  41.359  21.726  13.068
 3678W        W68938  16.764  28.574  10.589
 3679W        W68939  10.237  43.561  13.425
 3680W        W68940  43.057  35.551  10.704
 3681W        W68941  27.318   6.515  13.264
 3682W        W68942  42.475  37.400   0.618
 3683W        W68943  31.132  24.965   1.728
 3684W        W68944  26.720  10.673  10.419
 3685W        W68945   4.086   9.705   3.591
 3686W        W68946  35.775  10.196   0.762
 3687W        W68947  27.933   3.738   4.666
 3688W        W68948  21.248  43.290  14.448
 3689W        W68949  28.423  21.675   4.308
 3690W        W68950  39.514  17.079  13.524
 3691W        W68951   1.399  35.878   0.733
 3692W        W68952   8.265  29.567   2.785
 3693W        W68953  37.983  31.449  11.014
 3694W        W68954  36.136  36.549   2.107
 3695W        W68955  25.813  20.576   4.516
 3696W        W68956  41.545  30.084   0.405
 3697W        W68957  16.738  29.161   1.903
 3698W        W68958  44.769  41.922  11.254
 3699W        W68959   8.129  38.778  11.561
 3700W        W68960  31.614  33.273   5.356
 3701W        W68961   6.504   9.265   4.605
 3702W        W68962   7.299  11.854   3.683
 3703W        W68963  27.498   1.919   4.229
 3704W        W68964  32.372  12.334   0.388
 3705W        W68965  14.645  24.280  11.994
 3706W        W68966  15.306  19.502  14.116
 3707W        W68967   2.338   8.980  13.544
 3708W        W68968   5.351  31.040  13.497
 3709W        W68969   5.408  39.747  12.492
 3710W        W68970  23.716  20.139  14.963
 3711W        W68971  24.049   7.680  11.645
 3712W        W68972  18.715  26.119  10.601
 3713W        W68973  34.921  23.721   3.715
 3714W        W68974   5.226  26.026   4.360
 3715W        W68975  33.922  19.986   0.637
 3716W        W68976  11.101  37.157  10.817
 3717W        W68977  21.333  10.173   2.907
 3718W        W68978  17.281   5.871   1.445
 3719W        W68979   2.931  15.113   4.427
 3720W        W68980  43.911  25.036  10.785
 3721W        W68981  13.303  21.493  12.152
 3722W        W68982   1.672  28.428   3.727
 3723W        W68983  24.489  13.022   2.850
 3724W        W68984   5.455  41.387  11.653
 3725W        W68985  25.444  10.644   2.693
 3726W        W68986   9.308   9.446   3.823
 3727W        W68987  17.342  35.612   3.335
 3728W        W68988  32.954  15.696   3.257
 3729W        W68989   4.205  18.164   1.932
 3730W        W68990  27.090  11.109   2.173
 3731W        W68991   3.431  35.544   1.825
 3732W        W68992  34.791  44.285   2.779
 3733W        W68993  29.636  23.379  13.968
 3734W        W68994  24.527   8.345   0.044
 3735W        W68995  32.680  32.131   3.281
 3736W        W68996  30.666   3.276  10.559
 3737W        W68997   4.057   3.381   1.808
 3738W        W68998  22.532  17.270   4.292
 3739W        W68999  42.983  22.064  14.439
 3740W        W69000  18.781  24.516   1.921
 3741W        W69001  44.660  35.697  12.045
 3742W        W69002  41.067  41.732   1.241
 3743W        W69003  20.844  27.633  14.319
 3744W        W69004  34.572  33.487  11.412
 3745W        W69005  26.276  24.546   2.212
 3746W        W69006  44.423  13.717  11.652
 3747W        W69007   8.614   0.547   4.069
 3748W        W69008   3.477  20.448  11.485
 3749W        W69009   4.336   5.531   4.584
 3750W        W69010  24.488  43.021  11.591
 3751W        W69011  39.829   0.184  11.562
 3752W        W69012   2.428   0.712   2.324
 3753W        W69013  29.953  23.133   4.585
 3754W        W69014  41.212   6.341  10.505
 3755W        W69015  15.173  22.603  13.564
 3756W        W69016  16.514  15.053   3.670
 3757W        W69017  29.731  20.990   3.120
 3758W        W69018  38.873  28.182   4.053
 3759W        W69019   4.127  36.839  10.554
 3760W        W69020  33.072  43.008   0.959
 3761W        W69021  35.329  30.485  11.900
 3762W        W69022  31.443  31.547   4.288
 3763W        W69023   2.384  42.748  13.897
 3764W        W69024  18.529   6.875  11.142
 3765W        W69025  31.553   1.530  13.395
 3766W        W69026  20.772  25.178   2.711
 3767W        W69027   9.536  20.435  13.348
 3768W        W69028  36.850  12.814  12.017
 3769W        W69029   6.160   9.189  13.541
 3770W        W69030   0.649  31.083  12.639
 3771W        W69031  31.596   4.566   3.265
 3772W        W69032  23.521  43.270  11.165
 3773W        W69033  39.013  28.566  13.929
 3774W        W69034   9.864  17.786   0.316
 3775W        W69035  27.934  28.940  12.068
 3776W        W69036   1.754  22.819  11.195
 3777W        W69037  20.522   2.909  10.266
 3778W        W69038   2.279  44.327  14.271
 3779W        W69039   9.864  40.905   4.850
 3780W        W69040  34.790  12.269  12.029
 3781W        W69041  26.499  14.626  11.769
 3782W        W69042  32.992  22.974   0.981
 3783W        W69043  38.907  27.128  11.661
 3784W        W69044  19.123  37.548  12.147
 3785W        W69045  23.031  29.784   3.480
 3786W        W69046  13.332   8.457   0.355
 3787W        W69047  17.677  21.098  14.976
 3788W        W69048  38.039  30.307   1.849
 3789W        W69049  22.998   2.253   0.803
 3790W        W69050  10.296  30.656  11.887
 3791W        W69051   7.972  34.405  14.350
 3792W        W69052  12.695  39.539  14.732
 3793W        W69053  28.663  30.002   4.550
 3794W        W69054  43.567  40.533  11.136
 3795W        W69055  19.498  38.954  13.839
 3796W        W69056  44.166  21.251   3.672
 3797W        W69057  44.970  39.042  11.481
 3798W        W69058   1.951  21.969   4.180
 3799W        W69059  11.971  31.673  12.493
 3800W        W69060   9.751  21.087   1.093
 3801W        W69061  14.516   6.112   0.222
 3802W        W69062  26.028  33.205   2.785
 3803W        W69063   6.966  21.374  14.325
 3804W        W69064   6.060  23.505   5.048
 3805W        W69065  25.416  17.330  12.192
 3806W        W69066  18.103  21.759   2.829
 3807W        W69067  43.335  27.690  10.400
 3808W        W69068   8.752  13.777  13.822
 3809W        W69069   4.621  21.773  12.414
 3810W        W69070  33.987  28.033  14.071
 3811W        W69071  43.716  42.073  14.350
 3812W        W69072  27.564  41.556  13.827
 3813W        W69073  32.302   5.784   3.275
 3814W        W69074  13.093  15.866   3.046
 3815W        W69075   9.153  41.987  11.702
 3816W        W69076  27.372  31.945   1.701
 3817W        W69077   6.531  16.165  13.568
 3818W        W69078  23.464  20.463   1.293
 3819W        W69079   1.940   5.337  11.624
 3820W        W69080  26.744  29.847  14.964
 3821W        W69081  28.840  33.926   1.541
 3822W        W69082  21.001  11.152   2.905
 3823W        W69083  13.412  42.246  11.846
 3824W        W69084  10.192  30.829   4.608
 3825W        W69085  43.937   5.964   3.741
 3826W        W69086  32.509   0.018  11.455
 3827W        W69087  19.128  21.859   4.022
 3828W        W69088  39.860  24.151   4.387
 3829W        W69089  29.097   1.984  12.849
 3830W        W69090  12.271  30.644   1.212
 3831W        W69091  15.717  12.875  10.731
 3832W        W69092   3.728  40.838  10.685
 3833W        W69093  26.726  10.144  13.560
 3834W        W69094  10.863  27.542  13.017
 3835W        W69095  16.392  44.545   3.621
 3836W        W69096  41.195   5.969   1.388
 3837W        W69097   7.810  19.435   5.087
 3838W        W69098   4.110  20.034  14.288
 3839W        W69099  35.074  21.960  10.777
 3840W        W69100   6.002  10.241   4.924
 3841W        W69101  25.456   5.955   1.674
 3842W        W69102  42.909   3.802   1.687
 3843W        W69103  40.442   1.237  11.379
 3844W        W69104  34.370  13.850  13.913
 3845W        W69105  18.121   7.369  10.666
 3846W        W69106   1.858  43.703  12.649
 3847W        W69107  27.246   1.775  12.498
 3848W        W69108  30.916  43.439  10.510
 3849W        W69109  10.362  15.796   0.842
 3850W        W69110  23.005  38.113   3.631
 3851W        W69111  42.369  21.242  11.633
 3852W        W69112  31.243  10.835   4.398
 3853W        W69113  35.130  39.874   4.156
 3854W        W69114  12.414   2.927  12.441
 3855W        W69115  20.724  23.296  12.483
 3856W        W69116   6.936   9.922  12.549
 3857W        W69117  24.194   8.928   2.057
 3858W        W69118  24.199   3.801  14.519
 3859W        W69119  22.538  16.321   1.667
 3860W        W69120  11.135  28.402  14.415
 3861W        W69121  38.112  17.242   4.259
 3862W        W69122   4.181  28.633  11.605
 3863W        W69123  11.589  21.167   0.504
 3864W        W69124  23.924  17.697   1.837
 3865W        W69125   7.699  20.020   0.434
 3866W        W69126   2.668  22.974  12.881
 3867W        W69127  38.912   0.488   3.021
 3868W        W69128  15.676  30.127   2.098
 3869W        W69129  24.511  12.345   4.713
 3870W        W69130  14.788  28.690   2.192
 3871W        W69131  41.939  40.792   2.614
 3872W        W69132  17.777  17.180  11.514
 3873W        W69133  39.026  37.973   3.664
 3874W        W69134  16.329   0.980  14.945
 3875W        W69135  15.641  19.455   3.740
 3876W        W69136   5.769  21.630   1.240
 3877W        W69137   2.782   3.342  14.867
 3878W        W69138  35.873  34.540   2.758
 3879W        W69139  40.450   5.414  12.729
 3880W        W69140  12.909   8.771  12.104
 3881W        W69141  14.774  10.423  13.819
 3882W        W69142  37.129  13.547   1.748
 3883W        W69143  28.473  12.688  12.053
 3884W        W69144   1.091  44.970   1.323
 3885W        W69145   9.677  15.689  11.700
 3886W        W69146  32.969  43.163  12.652
 3887W        W69147   8.578   1.442   3.562
 3888W        W69148  25.714  21.976  14.525
 3889W        W69149  13.855   1.314  10.683
 3890W        W69150  20.440  36.780   3.332
 3891W        W69151  26.313  26.107   0.687
 3892W        W69152  10.328  15.812  11.597
 3893W        W69153   2.538  35.154  13.301
 3894W        W69154  44.966  26.704  10.695
 3895W        W69155  42.872  19.808   0.696
 3896W        W69156  32.701  29.179   0.805
 3897W        W69157  12.422   2.622  12.858
 3898W        W69158  21.210  10.542  13.069
 3899W        W69159   3.276  38.777   4.742
 3900W        W69160  34.631   2.986  11.459
 3901W        W69161  19.681  18.621   4.989
 3902W        W69162  39.945  19.213  11.120
 3903W        W69163  18.983  19.717   1.778
 3904W        W69164   2.407   4.667   1.346
 3905W        W69165  39.835  25.685   3.130
 3906W        W69166   9.970  27.012   1.197
 3907W        W69167   0.471   8.270   3.829
 3908W        W69168  37.330  14.432   9.948
 3909W        W69169  15.129  31.265  11.146
 3910W        W69170   4.733   1.480  12.872
 3911W        W69171   2.313   1.535  11.626
 3912W        W69172  17.318  11.251  14.959
 3913W        W69173  33.033  31.147  14.969
 3914W        W69174   8.653  12.523  13.516
 3915W        W69175  11.442  36.477  13.990
 3916W        W69176  14.531  11.155   2.764
 3917W        W69177  25.589  28.560  10.668
 3918W        W69178  38.780   5.292   0.428
 3919W        W69179  25.198  41.721  12.489
 3920W        W69180  40.494  24.658   4.115
 3921W        W69181  39.308  11.458  10.981
 3922W        W69182   5.493  42.814  10.537
 3923W        W69183   7.828  25.035   0.191
 3924W        W69184  23.211  14.577   2.927
 3925W        W69185  33.479   3.810   0.849
 3926W        W69186  11.212  22.543  13.530
 3927W        W69187   4.664  30.847   0.324
 3928W        W69188  17.603  25.739  14.464
 3929W        W69189  28.962  41.485   4.514
 3930W        W69190  16.026  42.283  12.080
 3931W        W69191  28.411  33.818   1.307
 3932W        W69192  29.345   9.621   2.710
 3933W        W69193  29.333  37.085   4.279
 3934W        W69194  27.246   2.752  12.471
 3935W        W69195  25.399  37.706   4.542
 3936W        W69196  34.647  38.913   1.278
 3937W        W69197  24.206  24.216   3.640
 3938W        W69198  24.189  34.458  13.814
 3939W        W69199  18.041  22.422  14.895
 3940W        W69200  23.404  20.628  13.535
 3941W        W69201   1.875  19.824   0.869
 3942W        W69202  28.874  44.213  13.710
 3943W        W69203  29.890   1.822  14.669
 3944W        W69204  13.132  37.628   0.338
 3945W        W69205   1.664  42.116  10.761
 3946W        W69206  28.906  22.999   4.486
 3947W        W69207  32.490  18.991   2.992
 3948W        W69208  14.049  25.481  13.222
 3949W        W69209  36.849  32.900  11.542
 3950W        W69210  25.403  41.435   4.540
 3951W        W69211   5.996  34.379   5.016
 3952W        W69212  12.558  31.331  14.779
 3953W        W69213   5.792  13.704  14.841
 3954W        W69214  35.400  36.125  12.579
 3955W        W69215  31.852  31.067   3.292
 3956W        W69216   5.353   3.954  10.699
 3957W        W69217  43.694  35.050   2.819
 3958W        W69218  22.028  19.996   3.792
 3959W        W69219   4.711  20.967   1.020
 3960W        W69220  43.244  32.038   3.671
 3961W        W69221  12.162  11.921  11.849
 3962W        W69222  22.155  37.544   4.191
 3963W        W69223   3.399   9.068  12.981
 3964W        W69224   2.865  14.555   9.792
 3965W        W69225   5.609  28.668  10.695
 3966W        W69226  35.400  16.630   4.645
 3967W        W69227  42.966  36.915   3.826
 3968W        W69228  38.315  31.109   3.697
 3969W        W69229   2.890   6.726   2.864
 3970W        W69230  44.329  10.918  10.513
 3971W        W69231  40.396   6.095   3.059
 3972W        W69232  17.630  12.784   2.733
 3973W        W69233  16.040  36.894   4.212
 3974W        W69234  36.888  25.576   0.217
 3975W        W69235  34.513   0.861   0.689
 3976W        W69236  20.870  22.802  12.516
 3977W        W69237   1.625   6.296   1.727
 3978W        W69238   9.149   3.742  13.421
 3979W        W69239  18.547  40.054   3.214
 3980W        W69240  12.263   8.910   4.126
 3981W        W69241  15.504  20.632  11.469
 3982W        W69242  27.388  18.579  13.483
 3983W        W69243   1.519  11.228  13.267
 3984W        W69244   1.899  28.956   4.609
 3985W        W69245  28.092  26.746  10.122
 3986W        W69246  18.258  26.724  10.595
 3987W        W69247  38.049  10.779   1.934
 3988W        W69248   0.959   5.627   9.985
 3989W        W69249  37.250  19.687   0.290
 3990W        W69250   6.420   3.662  12.483
 3991W        W69251  26.489  27.919   0.244
 3992W        W69252  39.317   3.534  14.356
 3993W        W69253   9.322  38.270   4.647
 3994W        W69254   9.264  31.931   1.224
 3995W        W69255  41.794  13.631   3.456
 3996W        W69256  12.200  25.929  14.334
 3997W        W69257  41.009  26.931   2.402
 3998W        W69258  15.797  24.946  13.369
 3999W        W69259  37.528  19.175   2.384
 4000W        W69260  19.430  25.633  14.679
 4001W        W69261  15.075   5.164  13.670
 4002W        W69262   5.773  27.502   3.118
 4003W        W69263  35.442  33.393  12.909
 4004W        W69264  37.550  26.670  11.414
 4005W        W69265   1.664  24.123   2.148
 4006W        W69266   0.445  18.536  12.976
 4007W        W69267   1.361  29.553  13.547
 4008W        W69268  17.798  22.638   2.329
 4009W        W69269   4.819  15.259   4.290
 4010W        W69270  15.270   5.815   2.225
 4011W        W69271  27.158  34.916  14.826
 4012W        W69272  25.667  23.704  13.373
 4013W        W69273  21.753  43.354  13.409
 4014W        W69274   5.181  37.106   0.680
 4015W        W69275  36.508  25.616  11.624
 4016W        W69276  20.527  37.614  12.657
 4017W        W69277   3.231  35.306  14.996
 4018W        W69278  15.058  25.170  11.040
 4019W        W69279  35.495  44.812  13.308
 4020W        W69280  12.804  26.928  12.456
 4021W        W69281  16.837  28.104   2.816
 4022W        W69282  39.198   8.452  11.884
 4023W        W69283   4.384  12.386  12.075
 4024W        W69284  21.077  33.046   1.770
 4025W        W69285  44.568  43.388   0.276
 4026W        W69286   3.161  17.986   3.377
 4027W        W69287  36.588  13.929  11.071
 4028W        W69288  10.079  38.729   1.713
 4029W        W69289  44.295  27.779   4.124
 4030W        W69290  35.522  29.425  13.313
 4031W        W69291  11.695  22.698  14.648
 4032W        W69292  21.501  27.399   1.310
 4033W        W69293  28.644  37.968  12.403
 4034W        W69294   3.303  44.097  11.150
 4035W        W69295  38.349  21.042   4.125
 4036W        W69296  37.154   5.443   3.213
 4037W        W69297  20.618  14.444   4.536
 4038W        W69298  12.503  36.870   2.209
 4039W        W69299   5.635  36.596  13.001
 4040W        W69300  27.061  39.911  14.759
 4041W        W69301  21.528  16.126   3.657
 4042W        W69302   6.528  11.715   5.183
 4043W        W69303  32.637  26.901   1.397
 4044W        W69304  31.883  21.048  14.715
 4045W        W69305   4.957  15.624  13.846
 4046W        W69306  22.762  32.868  13.927
 4047W        W69307  23.854   1.430  11.531
 4048W        W69308  29.599  22.604   2.410
 4049W        W69309   0.288  27.527  11.324
 4050W        W69310  43.407   9.163   3.146
 4051W        W69311  33.627  18.502   1.121
 4052W        W69312   2.387  21.613   1.136
 4053W        W69313  41.531  36.924  10.651
 4054W        W69314  34.529  14.396   3.247
 4055W        W69315   8.122  11.479  10.322
 4056W        W69316   1.924  30.870  13.454
 4057W        W69317  33.510   3.364  10.624
 4058W        W69318  32.577  14.074   5.269
 4059W        W69319  35.054  10.691  11.542
 4060W        W69320  28.428  31.940   4.587
 4061W        W69321  29.592   7.691  14.479
 4062W        W69322  15.847  13.046  12.972
 4063W        W69323  41.021   0.863  10.267
 4064W        W69324  32.400   6.361   2.341
 4065W        W69325  22.638  13.577   4.087
 4066W        W69326   9.878   0.187   2.633
 4067W        W69327  19.011  44.874  14.970
 4068W        W69328  24.827  31.040  11.119
 4069W        W69329  33.406  34.784  12.336
 4070W        W69330   0.873  29.944  10.414
 4071W        W69331  40.782  20.420  12.339
 4072W        W69332  36.681  27.633  14.047
 4073W        W69333  13.019  10.563   2.394
 4074W        W69334   8.654  24.552   1.326
 4075W        W69335  35.887  23.758  11.412
 4076W        W69336  38.074  21.827  11.756
 4077W        W69337   1.771  28.966   3.267
 4078W        W69338  27.068  42.585  13.892
 4079W        W69339  15.838   7.368   3.640
 4080W        W69340  30.595  43.876  14.506
 4081W        W69341  21.978   0.455  12.658
 4082W        W69342  21.709   0.863  11.530
 4083W        W69343  44.047  15.795   2.914
 4084W        W69344   5.406  24.172   3.257
 4085W        W69345  37.949   1.841   1.338
 4086W        W69346  19.105  25.278  12.364
 4087W        W69347  42.472  38.972  14.006
 4088W        W69348  19.574  31.400  11.729
 4089W        W69349  43.446  23.265   1.248
 4090W        W69350  11.136  18.062   2.405
 4091W        W69351   0.219  43.841  11.185
 4092W        W69352  20.767   0.573   0.948
 4093W        W69353  26.798  23.986  12.880
 4094W        W69354  25.253   5.996  13.492
 4095W        W69355  44.774  16.266   5.083
 4096W        W69356   4.438  44.367   0.480
 4097W        W69357  17.083   2.911   1.951
 4098W        W69358   3.040  32.650  13.518
 4099W        W69359  18.149  42.823  14.930
 4100W        W69360  31.187  13.124  12.893
 4101W        W69361  16.725  14.259  11.977
 4102W        W69362  44.098   4.860   2.187
 4103W        W69363  41.600  12.329   0.772
 4104W        W69364  26.236  24.877   3.435
 4105W        W69365  19.285  15.209   2.460
 4106W        W69366   9.147  21.448   2.200
 4107W        W69367  26.036   8.892   3.244
 4108W        W69368  15.701  15.888  12.453
 4109W        W69369  42.712  33.970   0.683
 4110W        W69370   6.681  23.742   3.252
 4111W        W69371   4.188  40.303  13.333
 4112W        W69372   7.867  31.590  14.924
 4113W        W69373  11.855   4.425  13.182
 4114W        W69374  13.179  13.157   4.182
 4115W        W69375  38.119  16.125   2.385
 4116W        W69376   7.261   7.912  14.879
 4117W        W69377  16.181  31.580   2.659
 4118W        W69378  33.935  42.840   3.985
 4119W        W69379  44.221   7.170  14.988
 4120W        W69380  23.161   9.825   2.211
 4121W        W69381  32.300  29.114  14.462
 4122W        W69382  41.281  15.626  14.517
 4123W        W69383  28.168  20.647  11.944
 4124W        W69384  42.833  14.347  11.137
 4125W        W69385   4.214   0.927  11.527
 4126W        W69386  33.391  25.079   2.369
 4127W        W69387  29.592  23.775  13.613
 4128W        W69388  25.517   3.372  12.593
 4129W        W69389  34.351  25.494  14.369
 4130W        W69390   8.757  44.279   3.186
 4131W        W69391  27.270  27.696  10.469
 4132W        W69392  35.271  39.809   0.381
 4133W        W69393  17.834  43.228   2.001
 4134W        W69394   3.150  24.377  11.998
 4135W        W69395  43.782  17.295   0.860
 4136W        W69396   1.302  36.847   1.128
 4137W        W69397   8.720  34.728   2.814
 4138W        W69398  27.530  43.832  10.954
 4139W        W69399  35.454  32.910   3.145
 4140W        W69400  23.554   9.898   1.333
 4141W        W69401   6.077  36.982  10.649
 4142W        W69402  27.009  19.240  13.499
 4143W        W69403  33.587   6.852  10.792
 4144W        W69404  41.889  28.375  11.903
 4145W        W69405  14.133  16.160   3.894
 4146W        W69406  32.057  29.150  12.882
 4147W        W69407  10.607  33.893  10.672
 4148W        W69408  33.531  37.898  11.736
 4149W        W69409  10.271  18.310   2.430
 4150W        W69410  28.972   8.156   2.758
 4151W        W69411  43.865   1.056   3.728
 4152W        W69412  14.681  32.289   4.180
 4153W        W69413  35.155  21.480   3.653
 4154W        W69414  40.505  43.173   4.180
 4155W        W69415  34.327  32.550  12.045
 4156W        W69416   4.404  40.785   2.799
 4157W        W69417  17.612   5.209   0.983
 4158W        W69418  38.072  24.266   0.449
 4159W        W69419  18.235   7.570   4.563
 4160W        W69420  38.525  29.591  13.979
 4161W        W69421  27.879  28.040   4.085
 4162W        W69422  40.478   6.914  12.874
 4163W        W69423  13.396  28.597   3.710
 4164W        W69424   7.201  20.291   3.636
 4165W        W69425  12.908   6.338  10.398
 4166W        W69426  34.535  17.261  14.893
 4167W        W69427  27.519   3.851  11.350
 4168W        W69428  11.486   0.320   3.389
 4169W        W69429  12.100  19.095  12.899
 4170W        W69430  41.673  42.759   3.654
 4171W        W69431  26.118   0.667   2.382
 4172W        W69432  30.162  27.156  14.651
 4173W        W69433   8.844   2.864  12.543
 4174W        W69434  37.304  22.957  11.638
 4175W        W69435   1.242  17.868  12.883
 4176W        W69436   1.188  10.083  13.582
 4177W        W69437   4.897   8.979  12.542
 4178W        W69438  20.861  16.513   3.341
 4179W        W69439  38.801   4.308   1.834
 4180W        W69440  34.440  31.038  12.919
 4181W        W69441  44.757  15.109   2.567
 4182W        W69442  33.658   5.911   4.714
 4183W        W69443   6.890   5.732   1.200
 4184W        W69444  28.808  29.432   3.703
 4185W        W69445  44.583   7.436   3.602
 4186W        W69446  32.456  11.482  14.831
 4187W        W69447  44.562  28.694   4.332
 4188W        W69448  31.170  37.974   3.602
 4189W        W69449  37.482  15.125   4.455
 4190W        W69450  16.551  34.090   0.306
 4191W        W69451   1.394  32.548   3.189
 4192W        W69452  34.328   0.992   1.682
 4193W        W69453  28.357  28.089   2.281
 4194W        W69454  32.348  44.381   2.870
 4195W        W69455  30.996   5.451  13.077
 4196W        W69456  39.539   3.710  14.825
 4197W        W69457  24.771  40.964  12.059
 4198W        W69458   4.522  28.625  13.509
 4199W        W69459   9.935  15.698  12.576
 4200W        W69460  42.675  39.490   3.909
 4201W        W69461   4.177  39.519  12.482
 4202W        W69462  31.562  12.786  14.354
 4203W        W69463   2.053  40.868   0.595
 4204W        W69464  35.380  12.150  11.388
 4205W        W69465   7.767  30.093  10.966
 4206W        W69466  34.923   0.073  11.216
 4207W        W69467  25.615  44.109  11.669
 4208W        W69468  34.532  42.766   3.714
 4209W        W69469  30.526   9.662   1.310
 4210W        W69470   5.094  11.693  14.357
 4211W        W69471   5.310   3.767   2.768
 4212W        W69472   5.264  36.467  12.036
 4213W        W69473   6.123  36.507   3.187
 4214W        W69474  19.824  39.318  13.495
 4215W        W69475  29.534   4.861  12.458
 4216W        W69476  27.295   1.651  13.355
 4217W        W69477  34.744  21.256   3.358
 4218W        W69478   8.367  11.676  14.417
 4219W        W69479  41.733  22.594   2.220
 4220W        W69480  41.501   9.601   1.290
 4221W        W69481  30.656  17.690   1.883
 4222W        W69482  32.559  29.280  14.909
 4223W        W69483  36.560  36.169  10.716
 4224W        W69484  43.930   4.725  13.307
 4225W        W69485   6.430  33.658  11.123
 4226W        W69486  24.455   2.200  12.467
 4227W        W69487  23.252  17.177  14.431
 4228W        W69488   4.577   6.346   1.475
 4229W        W69489  26.599   2.856   4.198
 4230W        W69490  20.006  32.453  11.090
 4231W        W69491  24.775   2.196  10.760
 4232W        W69492  23.707   7.890   0.474
 4233W        W69493  35.656  34.083   2.782
 4234W        W69494  30.536  34.822  13.469
 4235W        W69495  21.608   0.443   2.788
 4236W        W69496  27.647  17.527  10.270
 4237W        W69497  31.962  18.006  11.058
 4238W        W69498  43.449  23.241   4.076
 4239W        W69499   2.929  18.699   4.285
 4240W        W69500  15.152  20.211   1.346
 4241W        W69501  40.881   0.818  14.476
 4242W        W69502   5.683  31.811  10.928
 4243W        W69503  30.405  12.147   0.832
 4244W        W69504   6.809  32.971   4.365
 4245W        W69505  11.297  39.283  10.386
 4246W        W69506  22.001   6.843   4.292
 4247W        W69507  14.782  37.430   2.356
 4248W        W69508  31.170  28.173   2.778
 4249W        W69509  36.964  19.206  13.471
 4250W        W69510  38.320  27.151   1.715
 4251W        W69511  18.670  17.148  13.440
 4252W        W69512  41.877  16.790  12.476
 4253W        W69513  43.787  16.573   1.363
 4254W        W69514  11.655  25.600   1.709
 4255W        W69515  40.101  26.017  11.173
 4256W        W69516  40.769  11.680  14.015
 4257W        W69517  24.177  36.916   1.618
 4258W        W69518  25.368   1.341  14.054
 4259W        W69519  26.910   3.467  12.897
 4260W        W69520  44.014   1.572   9.909
 4261W        W69521  29.714  31.540   2.800
 4262W        W69522  39.374  42.702  13.032
 4263W        W69523  29.545   9.763   4.570
 4264W        W69524   6.868   5.371   3.388
 4265W        W69525   7.222  32.451  12.965
 4266W        W69526   7.128   6.189   4.611
 4267W        W69527   1.466  23.975  11.960
 4268W        W69528  24.656  35.954   0.422
 4269W        W69529  39.495  12.873  12.065
 4270W        W69530  23.591  30.224  10.856
 4271W        W69531  31.469   6.191   4.597
 4272W        W69532  40.362  18.021  14.508
 4273W        W69533  28.434  30.636  12.013
 4274W        W69534  31.491  12.571  14.814
 4275W        W69535   7.316  23.178   4.140
 4276W        W69536  26.259   4.211  13.002
 4277W        W69537  27.486  44.467   3.151
 4278W        W69538  20.654   2.448  11.468
 4279W        W69539  34.445  24.978   4.120
 4280W        W69540  17.987  36.470  14.477
 4281W        W69541  15.762  24.185  14.526
 4282W        W69542  16.872   0.365   3.836
 4283W        W69543  13.302  38.575  12.462
 4284W        W69544   5.944  14.083   1.419
 4285W        W69545  14.723  39.392  11.134
 4286W        W69546  20.100  20.521   1.894
 4287W        W69547   6.693  30.430   3.847
 4288W        W69548  38.817   7.978   1.526
 4289W        W69549  29.441  25.577   1.053
 4290W        W69550  17.308  22.104   1.325
 4291W        W69551   9.389   9.827  13.393
 4292W        W69552  15.956  13.753  13.412
 4293W        W69553  28.608  32.242  11.496
 4294W        W69554  40.499  21.224  14.839
 4295W        W69555   1.755   2.157  14.298
 4296W        W69556  33.410   0.320   3.819
 4297W        W69557   2.177  40.033   3.226
 4298W        W69558  11.414  27.583   1.419
 4299W        W69559  24.046  22.191   4.455
 4300W        W69560   4.805  16.295   3.313
 4301W        W69561   4.974  14.069  13.542
 4302W        W69562  17.748  29.332   0.844
 4303W        W69563  33.198  37.137   0.136
 4304W        W69564  37.728   8.233  13.491
 4305W        W69565   8.636  33.606  14.495
 4306W        W69566  25.144  27.522  11.657
 4307W        W69567  43.843   2.407   3.093
 4308W        W69568   1.239   4.331   2.798
 4309W        W69569  44.348   6.087  11.999
 4310W        W69570  39.171  21.284  14.300
 4311W        W69571  39.409  31.890   1.305
 4312W        W69572  20.186   9.550   1.904
 4313W        W69573  31.588  28.122   0.988
 4314W        W69574  14.795  37.684   4.077
 4315W        W69575  19.408  33.482  10.731
 4316W        W69576   7.350  41.386   2.453
 4317W        W69577  32.977   7.117  14.271
 4318W        W69578  38.522  21.793   4.832
 4319W        W69579   4.775  10.382   3.193
 4320W        W69580  27.309  44.625  14.825
 4321W        W69581   6.976  15.376  10.643
 4322W        W69582  33.810  27.332  11.261
 4323W        W69583  22.488   3.921   2.294
 4324W        W69584  30.242  42.764   1.283
 4325W        W69585  32.028  32.950  10.747
 4326W        W69586  33.841  13.857  11.591
 4327W        W69587  27.183  12.652   1.484
 4328W        W69588  17.215  24.156  10.599
 4329W        W69589   6.934   5.126  13.373
 4330W        W69590  12.393  20.695   0.421
 4331W        W69591  22.761  16.165   0.743
 4332W        W69592  44.768   1.039  14.898
 4333W        W69593  42.312   1.408   0.295
 4334W        W69594  27.182  24.703  11.890
 4335W        W69595  16.292  26.703  10.981
 4336W        W69596  30.733   3.150  11.160
 4337W        W69597   8.224  29.096   0.803
 4338W        W69598  27.480   9.373   4.291
 4339W        W69599  28.528  42.080   2.295
 4340W        W69600  15.566   6.231  11.692
 4341W        W69601  13.693  31.417  14.559
 4342W        W69602  15.705  32.118   1.818
 4343W        W69603  26.655  17.913  12.927
 4344W        W69604   6.892  28.033   2.318
 4345W        W69605  17.926  22.745  14.063
 4346W        W69606  18.856   9.340  14.769
 4347W        W69607  10.288   4.621  11.224
 4348W        W69608   8.816  21.963   1.373
 4349W        W69609  26.511  34.344  13.440
 4350W        W69610  38.906  36.141   4.888
 4351W        W69611  10.356  31.266   1.756
 4352W        W69612   4.750  10.980  14.834
 4353W        W69613  41.103  14.665   0.706
 4354W        W69614   2.781   1.815   3.287
 4355W        W69615  36.488   0.887   0.358
 4356W        W69616  20.524  27.626  10.899
 4357W        W69617   0.516  40.392   3.644
 4358W        W69618  21.313   7.280  10.747
 4359W        W69619  35.455  35.054  11.037
 4360W        W69620  30.168   6.198   4.061
 4361W        W69621  44.484   4.451   1.397
 4362W        W69622  32.914   1.095   2.386
 4363W        W69623  14.416   8.907   1.200
 4364W        W69624  26.637   5.779  12.098
 4365W        W69625  32.541  27.549  13.449
 4366W        W69626  20.590   8.200   1.437
 4367W        W69627  43.967   1.920  14.775
 4368W        W69628   3.890  14.307   3.439
 4369W        W69629  32.879  16.871  13.985
 4370W        W69630  33.652  44.292   4.127
 4371W        W69631  35.301  14.308   2.736
 4372W        W69632  28.714  28.699   3.380
 4373W        W69633  18.261  44.143  12.363
 4374W        W69634  37.588  23.396   0.435
 4375W        W69635  26.976  41.456  12.870
 4376W        W69636  26.030   9.960  13.383
 4377W        W69637   8.920  23.915  12.678
 4378W        W69638  36.873  26.184  14.662
 4379W        W69639   8.606  22.756  14.698
 4380W        W69640  29.400  30.967   1.782
 4381W        W69641  21.677   9.591  11.618
 4382W        W69642  34.427  14.931   3.177
 4383W        W69643  13.367  44.486  10.956
 4384W        W69644  19.649  33.499   1.858
 4385W        W69645  18.163  38.948   3.674
 4386W        W69646  44.978  38.472  13.129
 4387W        W69647  33.776  42.213   3.219
 4388W        W69648  30.921  30.852  10.652
 4389W        W69649  10.194  23.649  10.570
 4390W        W69650  30.423  31.425  14.505
 4391W        W69651   9.098  35.144   4.125
 4392W        W69652   4.310  36.066   1.614
 4393W        W69653   2.929   7.343   3.211
 4394W        W69654  20.001  29.005  13.368
 4395W        W69655  40.470   1.426   3.240
 4396W        W69656  33.832  38.712   9.872
 4397W        W69657  20.299  30.520   2.671
 4398W        W69658  32.545   0.842   3.752
 4399W        W69659  32.393  29.898   2.191
 4400W        W69660   1.418  37.821  14.996
 4401W        W69661  44.763  31.036   1.949
 4402W        W69662  35.767  28.161  14.786
 4403W        W69663  34.142  32.833   0.360
 4404W        W69664   1.917  34.615  12.467
 4405W        W69665  42.581   0.406  10.501
 4406W        W69666   4.631   1.310   1.965
 4407W        W69667  25.550  10.889   1.303
 4408W        W69668  42.564  38.842  12.816
 4409W        W69669  27.747  22.043   1.374
 4410W        W69670  19.566  34.663   3.626
 4411W        W69671  41.355  14.769  12.042
 4412W        W69672  13.288  19.584  13.019
 4413W        W69673   9.636  17.729  12.828
 4414W        W69674  24.425   7.699  12.023
 4415W        W69675  37.437  19.249  12.641
 4416W        W69676  19.400  19.934  13.818
 4417W        W69677  32.671  22.543   2.824
 4418W        W69678  16.255  32.648   2.424
 4419W        W69679  40.561  11.265   3.688
 4420W        W69680  10.105   8.622  13.014
 4421W        W69681  37.542  18.282  14.939
 4422W        W69682  19.298   1.877   0.980
 4423W        W69683  30.025   6.356   1.143
 4424W        W69684  20.593   6.334   4.704
 4425W        W69685  29.738  32.849  11.308
 4426W        W69686   7.409  36.773   1.944
 4427W        W69687  31.800   9.906   1.817
 4428W        W69688  21.221  13.730   2.583
 4429W        W69689  43.551   4.643  11.639
 4430W        W69690  24.533   9.423   2.909
 4431W        W69691  11.725   4.154   3.254
 4432W        W69692  31.476   7.495  11.985
 4433W        W69693   6.666   8.293  11.518
 4434W        W69694  31.442  23.514   2.664
 4435W        W69695  23.273  40.069   2.904
 4436W        W69696  23.140  13.244  12.039
 4437W        W69697  39.486  33.215  13.764
 4438W        W69698  21.565  12.675  11.971
 4439W        W69699   4.697  24.701   2.818
 4440W        W69700  28.584  18.416   1.236
 4441W        W69701  23.539  35.387   2.889
 4442W        W69702  20.170   2.320   1.367
 4443W        W69703  43.795  19.535   0.744
 4444W        W69704  26.933  35.491   3.802
 4445W        W69705  30.465   8.796  14.807
 4446W        W69706  23.159  20.730   2.273
 4447W        W69707  29.760  43.331   0.479
 4448W        W69708  26.083  23.400  13.460
 4449W        W69709  11.054  29.420  14.763
 4450W        W69710  28.861   2.796   4.327
 4451W        W69711  35.970  18.593   0.689
 4452W        W69712  25.229   6.302   4.670
 4453W        W69713  16.393  14.332  12.849
 4454W        W69714  22.596  12.302  14.352
 4455W        W69715   0.375   2.251  12.488
 4456W        W69716  32.816  27.994  12.138
 4457W        W69717  38.574  44.849  13.457
 4458W        W69718  21.117  42.868   2.242
 4459W        W69719  43.964   2.893   2.929
 4460W        W69720  16.249  15.146  10.449
 4461W        W69721  32.543  40.033   0.909
 4462W        W69722  17.317  19.737  12.058
 4463W        W69723  44.745   8.656  12.354
 4464W        W69724  42.771  35.598  11.673
 4465W        W69725  19.108  42.956   3.260
 4466W        W69726  41.396  19.608   0.833
 4467W        W69727  21.518  36.331   1.890
 4468W        W69728  21.220  22.732  12.913
 4469W        W69729  38.781   4.027   2.747
 4470W        W69730  27.038  12.627   3.219
 4471W        W69731  39.803  11.312  13.227
 4472W        W69732   1.559  34.355   0.344
 4473W        W69733  17.754  10.139   0.427
 4474W        W69734  29.186   7.276   1.457
 4475W        W69735   7.781   4.835   3.387
 4476W        W69736  33.966  37.372   2.807
 4477W        W69737   2.255  33.138   2.204
 4478W        W69738  23.423  26.935  11.750
 4479W        W69739  28.039  33.848  12.506
 4480W        W69740  40.104   8.173   2.801
 4481W        W69741   0.533  42.359  11.633
 4482W        W69742  28.056  43.917   4.291
 4483W        W69743  44.848   4.527  12.987
 4484W        W69744  33.381  20.082  11.195
 4485W        W69745  29.922  13.053  10.991
 4486W        W69746  12.662  27.384  12.639
 4487W        W69747  29.164  30.718   3.630
 4488W        W69748   8.357  43.030  14.981
 4489W        W69749  44.003  17.133  14.501
 4490W        W69750  27.186  36.282   2.751
 4491W        W69751   3.769  25.966   2.603
 4492W        W69752  38.421  43.603   0.444
 4493W        W69753   4.856  41.330   0.957
 4494W        W69754  15.591  10.317  14.423
 4495W        W69755  43.204  10.390   1.219
 4496W        W69756  40.325  26.572   1.312
 4497W        W69757  21.282   5.918   0.323
 4498W        W69758  20.836  35.611  13.856
 4499W        W69759  34.777  44.418  12.912
 4500W        W69760   1.440  43.559  10.774
 4501W        W69761  32.026  36.330   2.648
 4502W        W69762  27.248  26.452  13.394
 4503W        W69763  14.266  31.577  14.370
 4504W        W69764   7.897   4.147   2.344
 4505W        W69765  32.095  32.427  13.934
 4506W        W69766  36.088  43.769  11.128
 4507W        W69767  21.135  14.236   2.559
 4508W        W69768  11.092   8.703   0.787
 4509W        W69769   3.714  17.401  14.862
 4510W        W69770  25.399   6.414  11.030
 4511W        W69771   3.924   6.962  13.135
 4512W        W69772  14.005  12.820  12.454
 4513W        W69773   5.182   6.869  11.152
 4514W        W69774  35.018  43.367   2.294
 4515W        W69775  43.258  28.147  10.042
 4516W        W69776  23.725  40.091   1.686
 4517W        W69777  41.742  14.057  11.599
 4518W        W69778   3.899   7.423  13.420
 4519W        W69779  24.669  32.077  12.041
 4520W        W69780   5.233  36.657  13.338
 4521W        W69781  26.219  25.297   0.247
 4522W        W69782  32.410   1.413   4.486
 4523W        W69783  18.679  37.940  11.621
 4524W        W69784  36.947  27.475  10.889
 4525W        W69785  39.125  43.968   3.699
 4526W        W69786  35.446   7.517   2.711
 4527W        W69787  32.187  38.489   4.102
 4528W        W69788   1.781  43.778   3.627
 4529W        W69789  32.773  30.879  12.361
 4530W        W69790  11.896  32.525   9.968
 4531W        W69791  43.858  21.132   3.274
 4532W        W69792   6.887   9.892  14.279
 4533W        W69793   5.841  40.959   3.067
 4534W        W69794  22.363   2.209   9.872
 4535W        W69795  34.497  26.017   9.902
 4536W        W69796   0.369  38.048   0.348
 4537W        W69797  33.848  23.302  14.975
 4538W        W69798   8.176  26.933  14.754
 4539W        W69799  38.974  13.931   1.543
 4540W        W69800  31.878  25.456  12.650
 4541W        W69801   7.856   4.216   4.120
 4542W        W69802  21.741  36.141  13.871
 4543W        W69803  26.751  27.002   0.133
 4544W        W69804  11.115  34.015   2.173
 4545W        W69805  32.051   0.612   1.862
 4546W        W69806  25.164   5.982  14.231
 4547W        W69807  11.247   6.284   3.997
 4548W        W69808  14.002  20.490  13.878
 4549W        W69809  43.691   7.270   2.401
 4550W        W69810  21.591  15.371   0.232
 4551W        W69811   8.758   7.260  10.101
 4552W        W69812  23.774   8.429  13.099
 4553W        W69813  26.343   7.871  11.390
 4554W        W69814  33.682  21.450  11.995
 4555W        W69815   4.465   1.900  14.484
 4556W        W69816  15.806   0.720  13.574
 4557W        W69817  19.830  10.565  14.798
 4558W        W69818  11.837  17.290  11.319
 4559W        W69819  18.815  44.010   2.653
 4560W        W69820  28.105   4.805   3.709
 4561W        W69821  28.712  27.161  10.981
 4562W        W69822   1.345  39.355  14.032
 4563W        W69823   5.331   2.755  12.036
 4564W        W69824  41.144   9.613  13.960
 4565W        W69825  13.095  41.391   0.021
 4566W        W69826  36.606  28.259  10.967
 4567W        W69827   2.275  33.703  12.590
 4568W        W69828  23.930  20.586  13.603
 4569W        W69829   5.802  34.643  10.556
 4570W        W69830  28.721  23.905   1.443
 4571W        W69831  18.520  21.770   0.322
 4572W        W69832  33.022  22.497  10.467
 4573W        W69833  32.845  24.756   1.776
 4574W        W69834   6.167  22.279  13.824
 4575W        W69835  33.668  41.214   3.091
 4576W        W69836  36.975  36.259  11.048
 4577W        W69837  26.806  20.642  14.468
 4578W        W69838   1.505  11.362   4.096
 4579W        W69839  32.451  32.915  13.774
 4580W        W69840  20.470  11.885   3.672
 4581W        W69841  30.865  23.458   4.844
 4582W        W69842  36.161  38.938  14.586
 4583W        W69843  17.511  12.084  13.286
 4584W        W69844   5.164   1.866   4.149
 4585W        W69845  19.154  31.097  14.067
 4586W        W69846  17.149  20.766  13.876
 4587W        W69847   7.392  16.150  13.092
 4588W        W69848  36.524  31.465  13.520
 4589W        W69849  41.716  18.417  10.250
 4590W        W69850  23.667  42.514  12.429
 4591W        W69851  39.012  40.469   3.235
 4592W        W69852  42.071   3.895   3.940
 4593W        W69853   7.178  15.767  13.431
 4594W        W69854   8.389  19.505   1.777
 4595W        W69855   0.520  10.398  14.828
 4596W        W69856  22.074   9.650   3.260
 4597W        W69857   6.129  21.632  10.615
 4598W        W69858  30.350   1.851   3.498
 4599W        W69859  11.593  44.911   3.091
 4600W        W69860  13.318  23.630  12.415
 4601W        W69861  24.199  35.100   2.184
 4602W        W69862  34.923  31.676   0.831
 4603W        W69863  44.438  43.313   0.849
 4604W        W69864  27.935   3.483  10.694
 4605W        W69865  10.211  12.042  13.107
 4606W        W69866  19.816  25.756   3.241
 4607W        W69867   9.293  30.894   4.200
 4608W        W69868  36.020  31.641  12.594
 4609W        W69869  36.007   9.719   3.407
 4610W        W69870  16.667  13.655  14.461
 4611W        W69871  41.017  39.014  12.077
 4612W        W69872   8.594   2.755  10.688
 4613W        W69873  14.808  24.747  11.874
 4614W        W69874  26.818   4.896  14.416
 4615W        W69875   4.228  23.007  11.127
 4616W        W69876  16.720  12.804  14.744
 4617W        W69877  39.358   8.857  10.986
 4618W        W69878  31.117  35.494   1.453
 4619W        W69879  17.952  21.216  10.838
 4620W        W69880  38.092  34.916  14.477
 4621W        W69881  22.914   7.727  11.494
 4622W        W69882  44.090   3.341  14.331
 4623W        W69883  42.155  23.691   1.391
 4624W        W69884  36.168  21.741  13.917
 4625W        W69885   4.033  32.018   0.066
 4626W        W69886  41.872  44.962  12.865
 4627W        W69887  21.326  29.720   3.188
 4628W        W69888  16.215  36.593   0.769
 4629W        W69889   5.385   6.609   1.174
 4630W        W69890  42.589   8.821   0.545
 4631W        W69891  13.891  26.285  13.969
 4632W        W69892  26.669  13.641   1.942
 4633W        W69893   4.831  19.250   4.361
 4634W        W69894  23.580  21.629  12.523
 4635W        W69895   6.311  12.169  13.534
 4636W        W69896  16.378  28.953  10.637
 4637W        W69897   5.658   9.885  10.743
 4638W        W69898  12.219  11.220  11.167
 4639W        W69899  41.975  20.099  14.968
 4640W        W69900  40.802  17.823   2.316
 4641W        W69901  21.559  12.794   2.864
 4642W        W69902  11.303   0.718  14.035
 4643W        W69903  11.906  11.561  10.605
 4644W        W69904  40.906   1.702   5.040
 4645W        W69905   3.056  39.079   3.904
 4646W        W69906  20.978  36.604  10.226
 4647W        W69907   4.429  42.447   2.172
 4648W        W69908  23.257  25.800   3.251
 4649W        W69909  32.815  19.629   1.159
 4650W        W69910  41.511   8.307   2.915
 4651W        W69911  20.958  37.481   2.163
 4652W        W69912  19.350  23.283   9.666
 4653W        W69913   9.382  18.144  13.544
 4654W        W69914  21.783   8.277   4.199
 4655W        W69915  43.917  40.962   4.225
 4656W        W69916  11.884  17.319   3.714
 4657W        W69917  32.049   2.140   1.936
 4658W        W69918  28.337  17.110   9.713
 4659W        W69919  13.823   3.156   1.673
 4660W        W69920  36.585  11.479   2.679
 4661W        W69921  43.903   9.657   4.279
 4662W        W69922  33.035  10.052  12.082
 4663W        W69923  22.602  28.978  13.541
 4664W        W69924  34.468  36.482   0.941
 4665W        W69925  27.624   8.372  11.195
 4666W        W69926  35.567  16.645   2.650
 4667W        W69927  30.442  30.645  14.856
 4668W        W69928   8.185  37.134  10.700
 4669W        W69929  20.945   7.391   2.184
 4670W        W69930  38.782  22.258  13.975
 4671W        W69931   1.187   9.759   3.201
 4672W        W69932  19.349   5.181   2.546
 4673W        W69933  43.273   3.638  13.458
 4674W        W69934  23.021  32.391   4.919
 4675W        W69935   2.988  41.026   3.075
 4676W        W69936  44.462   5.674   2.685
 4677W        W69937  22.809   7.655   2.422
 4678W        W69938  11.686  27.611  14.014
 4679W        W69939   2.207  35.043  12.470
 4680W        W69940  25.689  11.164  11.690
 4681W        W69941  39.564   9.230  14.530
 4682W        W69942  26.416  18.624   1.827
 4683W        W69943  13.249  26.688  12.315
 4684W        W69944  34.447  11.802  12.029
 4685W        W69945  34.905  29.680   1.308
 4686W        W69946  10.748  29.365  11.042
 4687W        W69947   4.246  31.480  11.091
 4688W        W69948  23.326   5.439  11.072
 4689W        W69949  42.973  31.352  14.905
 4690W        W69950  42.895  25.517  12.188
 4691W        W69951   1.724  30.940   1.891
 4692W        W69952   5.596   6.637   4.711
 4693W        W69953  16.181  38.898  10.000
 4694W        W69954  17.092  40.592  10.687
 4695W        W69955  37.230  40.201  13.945
 4696W        W69956  37.498   0.479  11.137
 4697W        W69957   0.229  35.364  14.514
 4698W        W69958  43.742   6.416   0.913
 4699W        W69959   7.897   2.383  13.801
 4700W        W69960  19.314  43.682   3.566
 4701W        W69961   3.700  36.091  12.322
 4702W        W69962  27.045  15.178   1.280
 4703W        W69963  41.403  40.900   4.874
 4704W        W69964  43.806  28.052  13.508
 4705W        W69965  18.784  29.485  12.137
 4706W        W69966  25.038   9.486  13.838
 4707W        W69967  33.472  10.363  10.378
 4708W        W69968  39.997  10.454   3.829
 4709W        W69969   4.872  35.722  10.825
 4710W        W69970   8.848  32.922  12.465
 4711W        W69971  37.042  26.713   4.176
 4712W        W69972  43.252  24.120   4.456
 4713W        W69973   7.473  29.021   3.552
 4714W        W69974  16.872  36.833   4.652
 4715W        W69975   6.103  35.869   1.133
 4716W        W69976   2.841  31.942   0.683
 4717W        W69977   6.802  11.042  13.994
 4718W        W69978  42.900  39.653  11.125
 4719W        W69979  32.467  24.501  14.526
 4720W        W69980   8.761  12.071   4.125
 4721W        W69981  20.905  15.844  13.681
 4722W        W69982  25.980  31.093   3.723
 4723W        W69983  29.076  18.481  14.887
 4724W        W69984   7.560  13.237   2.761
 4725W        W69985  17.844  33.857  14.966
 4726W        W69986  20.005  16.843   2.817
 4727W        W69987  34.786   0.296   3.154
 4728W        W69988  18.620  41.213  11.987
 4729W        W69989  29.210  38.563   0.293
 4730W        W69990  13.146  44.956   2.036
 4731W        W69991  26.235   0.214  13.841
 4732W        W69992  31.053   2.725   0.853
 4733W        W69993   0.457  12.250  12.774
 4734W        W69994  28.977  43.186   0.782
 4735W        W69995  20.144  39.293  10.579
 4736W        W69996  38.314  22.468   1.912
 4737W        W69997  31.040  26.383   3.215
 4738W        W69998  29.102  18.819  11.022
 4739W        W69999  12.407  39.951  11.005
 4740W        W70000   5.888  33.918  14.459
 4741W        W70001  24.165  44.224   2.663
 4742W        W70002  15.823  27.477   0.834
 4743W        W70003  24.318  43.382   2.089
 4744W        W70004  44.565   3.376   1.289
 4745W        W70005  18.025  32.142   4.666
 4746W        W70006  10.820  24.039   1.112
 4747W        W70007  44.520  39.308  12.606
 4748W        W70008   5.193  18.693   2.726
 4749W        W70009  43.461   0.714   1.425
 4750W        W70010  29.357   0.670   2.292
 4751W        W70011  36.267  40.909   3.801
 4752W        W70012  23.099  20.814   1.330
 4753W        W70013  29.270  11.790   4.131
 4754W        W70014   4.465  15.810   1.333
 4755W        W70015  23.020  33.370   4.373
 4756W        W70016   7.780   1.659   1.989
 4757W        W70017  42.469  15.109   0.652
 4758W        W70018  34.984  15.708  10.724
 4759W        W70019  33.750  22.556   0.345
 4760W        W70020  28.572  16.963  11.066
 4761W        W70021  26.058  28.965  14.875
 4762W        W70022  33.353  13.152  12.596
 4763W        W70023  37.110  22.592   4.070
 4764W        W70024  14.370  18.796  11.158
 4765W        W70025  12.586  41.128   3.360
 4766W        W70026  15.673  12.762   2.208
 4767W        W70027  13.292  14.275   3.683
 4768W        W70028  43.997  31.433  14.890
 4769W        W70029  41.398  13.383   3.258
 4770W        W70030  40.957  36.875   2.931
 4771W        W70031  33.266  14.233  14.511
 4772W        W70032  35.898   2.534  10.410
 4773W        W70033  10.267  31.966   1.209
 4774W        W70034   9.884  37.953  14.671
 4775W        W70035  36.300  25.510   3.304
 4776W        W70036  25.183  38.772   3.717
 4777W        W70037  27.145   9.664   4.589
 4778W        W70038  16.094  35.539   1.966
 4779W        W70039  28.495  25.225   1.729
 4780W        W70040  38.794  13.623   2.420
 4781W        W70041  37.470  40.916   4.946
 4782W        W70042  41.559  16.022  14.357
 4783W        W70043  38.916  28.537  11.975
 4784W        W70044  34.924   3.454  13.002
 4785W        W70045  11.057  31.109   1.407
 4786W        W70046  19.320  11.830  11.936
 4787W        W70047  12.173  36.154  12.887
 4788W        W70048   0.946  16.756  14.939
 4789W        W70049  33.149  33.674  10.974
 4790W        W70050  18.537  28.057   3.796
 4791W        W70051  23.019  17.144  11.926
 4792W        W70052  37.598   5.614  12.018
 4793W        W70053  34.830   8.796  11.587
 4794W        W70054  14.933  38.980   1.476
 4795W        W70055  36.829   3.349  13.361
 4796W        W70056  29.399  14.210   0.520
 4797W        W70057   6.402  29.135  14.522
 4798W        W70058   4.965   2.188  14.904
 4799W        W70059  11.346  38.290  12.091
 4800W        W70060  43.831  20.695  12.008
 4801W        W70061  34.009   0.245   2.261
 4802W        W70062  36.226  44.735   0.915
 4803W        W70063  31.454  30.507  10.452
 4804W        W70064   2.422  41.581  11.984
 4805W        W70065  41.232  26.565   4.176
 4806W        W70066   4.947   8.643  14.741
 4807W        W70067  38.667  10.259   2.189
 4808W        W70068  40.700   3.969  10.784
 4809W        W70069  33.614  43.738   0.993
 4810W        W70070  11.160  44.158   3.715
 4811W        W70071  39.531  15.138  11.304
 4812W        W70072  36.322  35.521  14.605
 4813W        W70073  14.272  18.995   4.294
 4814W        W70074  29.182  11.362   0.192
 4815W        W70075  32.190  41.620  12.555
 4816W        W70076  12.537  11.811  14.857
 4817W        W70077   8.810  44.232  13.762
 4818W        W70078  39.807  19.687   2.380
 4819W        W70079   6.474  34.767   0.417
 4820W        W70080  19.158  11.372  14.572
 4821W        W70081  31.945  19.101  13.182
 4822W        W70082  37.015   3.426   4.496
 4823W        W70083  14.330  20.630   3.276
 4824W        W70084   6.549  41.631   1.084
 4825W        W70085  32.681  22.835  12.812
 4826W        W70086  18.110  27.015  11.418
 4827W        W70087  29.296  26.429   1.300
 4828W        W70088  11.137  43.478  10.505
 4829W        W70089  34.300  22.358   4.105
 4830W        W70090  44.121  35.546  11.645
 4831W        W70091  25.670  39.728  11.178
 4832W        W70092  30.971  29.654  11.507
 4833W        W70093  24.205  34.161   3.598
 4834W        W70094  40.374  13.779  14.898
 4835W        W70095  16.038  17.487  14.739
 4836W        W70096  25.039  41.530  11.606
 4837W        W70097  37.435  14.281   4.986
 4838W        W70098   6.650  35.056   3.188
 4839W        W70099  15.086  18.683  14.918
 4840W        W70100  31.950  39.948  11.748
 4841W        W70101  23.230  13.543   3.149
 4842W        W70102  19.049  28.370  11.197
 4843W        W70103  39.545  30.031  11.140
 4844W        W70104  42.893  37.376   0.002
 4845W        W70105  26.433  14.152   5.056
 4846W        W70106   6.904   3.877  14.000
 4847W        W70107  14.322   8.487  13.405
 4848W        W70108   0.309   6.459   3.370
 4849W        W70109  10.929   0.498   4.739
 4850W        W70110   0.148  36.985  13.486
 4851W        W70111  28.295  15.859  13.950
 4852W        W70112  33.850   8.756  11.494
 4853W        W70113   2.709  15.593   4.434
 4854W        W70114   7.634  19.128  12.353
 4855W        W70115  35.234  12.903   0.697
 4856W        W70116   6.270  27.205   5.769
 4857W        W70117  30.152  36.930  11.156
 4858W        W70118   9.843  43.397   2.494
 4859W        W70119   9.651   6.421  13.094
 4860W        W70120  38.130  37.397  10.772
 4861W        W70121   1.845  39.239   3.751
 4862W        W70122  19.291  25.539   2.290
 4863W        W70123  30.935   4.730   1.760
 4864W        W70124  21.241  20.729   1.278
 4865W        W70125  19.160  42.738   0.816
 4866W        W70126  21.057   8.424   4.288
 4867W        W70127  10.614  18.347  11.098
 4868W        W70128   9.887  36.475  11.661
 4869W        W70129  39.500  12.683  14.412
 4870W        W70130  17.413  40.949   4.905
 4871W        W70131   9.904   6.416  13.586
 4872W        W70132   0.831   2.016   1.734
 4873W        W70133  31.936   0.310  12.628
 4874W        W70134   3.895  34.814   1.088
 4875W        W70135  31.364  35.942   0.025
 4876W        W70136  40.137  27.238   2.341
 4877W        W70137  37.027  35.308   2.640
 4878W        W70138  20.233  14.693  10.506
 4879W        W70139   2.719  27.447  12.431
 4880W        W70140  11.289  10.740  12.890
 4881W        W70141  22.246   9.577   0.978
 4882W        W70142   6.920   8.881  12.503
 4883W        W70143  21.999  39.862  14.453
 4884W        W70144   8.299   1.852  14.340
 4885W        W70145  37.070  20.558  12.906
 4886W        W70146  24.211  10.215  11.546
 4887W        W70147  16.589  33.278   0.830
 4888W        W70148  15.072  19.665  11.240
 4889W        W70149   6.353  21.200  11.481
 4890W        W70150   6.442  42.801   3.255
 4891W        W70151  25.630  21.792  11.386
 4892W        W70152  42.068  14.693   2.378
 4893W        W70153  28.541  41.102  14.997
 4894W        W70154  13.141  24.036   1.356
 4895W        W70155   4.936  44.899   2.356
 4896W        W70156   0.476   1.019  13.059
 4897W        W70157  19.007  13.248  11.214
 4898W        W70158  27.595  25.958   3.927
 4899W        W70159  43.060  25.544  13.574
 4900W        W70160  38.974  18.189   2.885
 4901W        W70161  41.529  24.567  11.985
 4902W        W70162  43.613  42.480   3.169
 4903W        W70163  43.989   4.435  11.457
 4904W        W70164  30.398   2.941   4.654
 4905W        W70165  36.130   6.261   0.896
 4906W        W70166  13.479   4.461  13.812
 4907W        W70167  16.739  43.804  13.471
 4908W        W70168  43.262  31.063  12.964
 4909W        W70169   3.508   4.894   3.013
 4910W        W70170  15.790  20.606   1.764
 4911W        W70171   4.114  17.959   2.393
 4912W        W70172  38.356  42.493  12.404
 4913W        W70173  40.384   9.519  10.696
 4914W        W70174  30.956  25.718  14.805
 4915W        W70175  43.701  23.211  13.575
 4916W        W70176  18.080  24.599   0.351
 4917W        W70177   3.868  14.536   0.393
 4918W        W70178   7.399   1.284   1.779
 4919W        W70179  37.450  17.729  13.924
 4920W        W70180   3.928  32.533   4.123
 4921W        W70181  24.300  31.060  14.446
 4922W        W70182  12.109  10.752   1.931
 4923W        W70183  25.721  30.178   0.540
 4924W        W70184  20.064   8.341   0.416
 4925W        W70185   3.062  32.599  11.659
 4926W        W70186  33.121  21.109   3.221
 4927W        W70187   6.762   2.901  13.872
 4928W        W70188  26.727  38.865  11.001
 4929W        W70189   4.395  41.210   0.301
 4930W        W70190   8.893  32.012   4.612
 4931W        W70191   3.280   1.438  11.471
 4932W        W70192  18.164  34.008  11.717
 4933W        W70193   2.908  24.343   9.757
 4934W        W70194  41.914   3.006   4.021
 4935W        W70195   6.620   3.854  13.576
 4936W        W70196  23.517  14.825   0.776
 4937W        W70197  22.549  19.162   4.249
 4938W        W70198  26.565  24.272   3.452
 4939W        W70199   1.210  17.793   3.704
 4940W        W70200  28.641  34.071  11.476
 4941W        W70201  27.541  20.927   0.974
 4942W        W70202   0.423  21.782  12.910
 4943W        W70203  39.688   2.807   0.704
 4944W        W70204   7.006  35.947  12.628
 4945W        W70205   5.295  33.617  13.361
 4946W        W70206   5.882  29.668  13.894
 4947W        W70207  27.962  36.056  10.169
 4948W        W70208  19.668  29.218  12.543
 4949W        W70209  29.573  20.635   4.639
 4950W        W70210  27.971   4.220   3.522
 4951W        W70211   8.222   5.699  13.443
 4952W        W70212  16.096  44.485  11.818
 4953W        W70213  18.102   9.642   4.649
 4954W        W70214  20.562   3.241   2.201
 4955W        W70215  37.501  25.003  10.661
 4956W        W70216  28.608  11.218  12.878
 4957W        W70217   4.311  33.485   1.893
 4958W        W70218  33.026  10.665   4.425
 4959W        W70219  26.076  22.153   0.846
 4960W        W70220   4.549  17.302   4.079
 4961W        W70221  32.569   5.823  11.698
 4962W        W70222  24.251  34.400  12.341
 4963W        W70223  12.849  26.700  11.058
 4964W        W70224  16.409   3.766   3.712
 4965W        W70225  22.756  27.044  10.774
 4966W        W70226   4.135   7.396  12.893
 4967W        W70227  16.690  33.858   4.326
 4968W        W70228  32.672  25.220  11.619
 4969W        W70229  24.581   7.693   2.866
 4970W        W70230  23.938  31.705   1.975
 4971W        W70231  19.705  22.574   4.259
 4972W        W70232  13.240   5.657   4.415
 4973W        W70233  33.370  27.243  14.019
 4974W        W70234  34.122  20.856   3.121
 4975W        W70235  42.517   9.031  12.133
 4976W        W70236  28.731  31.466  13.642
 4977W        W70237  21.135  15.045  11.969
 4978W        W70238  11.256  34.005  13.063
 4979W        W70239  24.032  41.468  12.669
 4980W        W70240  13.883   5.755  10.840
 4981W        W70241  37.386   7.292   0.300
 4982W        W70242   7.604  34.621   4.105
 4983W        W70243   9.239   3.848   4.395
 4984W        W70244   4.170   7.627  11.009
 4985W        W70245  13.357  15.028  12.067
 4986W        W70246  35.034  19.179   3.272
 4987W        W70247  24.018  39.809  11.983
 4988W        W70248  16.840  32.397   3.382
 4989W        W70249  37.242  26.216  13.359
 4990W        W70250  27.923  43.345   3.117
 4991W        W70251  33.440  39.519   0.634
 4992W        W70252  10.862  15.267  11.061
 4993W        W70253   8.399  23.178   4.288
 4994W        W70254  14.673   0.738   1.333
 4995W        W70255  27.005   6.768  11.988
 4996W        W70256  20.565   6.240   4.177
 4997W        W70257  29.128  13.691   4.137
 4998W        W70258  43.021  34.856  12.415
 4999W        W70259  14.585   2.468  13.503
 5000W        W70260  32.569   0.545  14.749
 5001W        W70261  28.405  13.227   3.854
 5002W        W70262   0.126   4.423  13.431
 5003W        W70263  17.589  23.445  10.612
 5004W        W70264  23.752  21.104   0.424
 5005W        W70265  20.258  20.952   4.067
 5006W        W70266  44.916  14.920  10.794
 5007W        W70267   3.727   5.833  13.949
 5008W        W70268  29.883   8.378  14.545
 5009W        W70269  25.458  19.534  13.034
 5010W        W70270   4.958  12.716  14.494
 5011W        W70271   9.576  15.218  11.438
 5012W        W70272  20.680  24.027  10.582
 5013W        W70273  38.544  20.140  13.920
 5014W        W70274   4.457  32.220  13.313
 5015W        W70275  25.024  30.704   1.215
 5016W        W70276  12.132  32.017   2.146
 5017W        W70277   2.785  31.991   2.920
 5018W        W70278  29.615   6.427  11.133
 5019W        W70279  26.653  32.438   1.329
 5020W        W70280  11.361  39.971   3.485
 5021W        W70281  26.669  35.847   3.560
 5022W        W70282  42.791   4.713   2.629
 5023W        W70283  26.148  20.017   2.409
 5024W        W70284   3.037  37.610   4.243
 5025W        W70285  18.312  12.017  12.028
 5026W        W70286  39.827  34.929   4.549
 5027W        W70287  26.781  41.511  13.340
 5028W        W70288   8.840  35.548   0.800
 5029W        W70289  16.659  13.586  12.852
 5030W        W70290   5.432  10.768  13.927
 5031W        W70291  22.706  44.686   1.337
 5032W        W70292  43.785  35.576  14.328
 5033W        W70293  12.290   3.124   1.784
 5034W        W70294   5.093  39.349  11.717
 5035W        W70295  22.576  31.072  10.815
 5036W        W70296   1.853  23.513   0.340
 5037W        W70297  19.921   1.463   3.704
 5038W        W70298  32.426  32.359   0.960
 5039W        W70299  18.075  44.429   4.486
 5040W        W70300   6.669  34.037   3.183
 5041W        W70301  41.713  36.434   3.699
 5042W        W70302  41.051  30.661   0.571
 5043W        W70303  15.823  26.086   3.578
 5044W        W70304  33.555  15.743  14.371
 5045W        W70305  34.923  40.817  13.562
 5046W        W70306  27.258  44.409   3.626
 5047W        W70307  17.448  38.574   0.958
 5048W        W70308   6.445  42.905   0.434
 5049W        W70309  18.210   2.738   0.565
 5050W        W70310  22.678  22.077   0.686
 5051W        W70311  24.082  31.163   1.176
 5052W        W70312   6.878  24.139   1.539
 5053W        W70313  44.803   1.217  12.112
 5054W        W70314  38.844   7.842   4.341
 5055W        W70315   5.753  35.637   3.566
 5056W        W70316   7.856   2.430  12.563
 5057W        W70317  15.061  31.237  11.990
 5058W        W70318   1.395   4.720   2.403
 5059W        W70319  40.852   3.326   4.578
 5060W        W70320  15.079  26.304   2.835
 5061W        W70321  27.470  23.280   3.862
 5062W        W70322  30.183   2.659   2.867
 5063W        W70323  44.224   5.837   2.267
 5064W        W70324   2.190  18.096   3.857
 5065W        W70325  26.618  12.253  11.857
 5066W        W70326   4.931  33.454  10.752
 5067W        W70327  31.982   5.162  12.117
 5068W        W70328   2.403  13.631  10.785
 5069W        W70329  35.133  38.540   1.823
 5070W        W70330  27.598   5.068  13.793
 5071W        W70331  39.955   8.465   4.651
 5072W        W70332   3.986  34.426  10.590
 5073W        W70333  24.520  44.769   3.553
 5074W        W70334  29.700  26.448   4.551
 5075W        W70335  10.777  19.125   2.831
 5076W        W70336  11.918  28.057  11.887
 5077W        W70337  15.056   4.082   4.137
 5078W        W70338  29.636  36.396   1.688
 5079W        W70339  16.795  22.452   2.117
 5080W        W70340  36.032  28.411  13.939
 5081W        W70341  44.497   0.276   3.289
 5082W        W70342   0.124  41.085  12.025
 5083W        W70343  30.899  16.656  12.411
 5084W        W70344  26.275  38.507  11.577
 5085W        W70345   5.532  30.927  13.985
 5086W        W70346  30.510  35.470   3.730
 5087W        W70347  30.942  34.328   0.876
 5088W        W70348   4.298  44.352  11.380
 5089W        W70349   0.280  13.845   4.372
 5090W        W70350  41.467   4.930  11.165
 5091W        W70351  16.774   4.210   4.726
 5092W        W70352  31.968  22.254   2.462
 5093W        W70353  16.817   6.213  11.210
 5094W        W70354  20.374   1.350  14.953
 5095W        W70355  14.687  15.268  14.774
 5096W        W70356  44.957  26.727  11.548
 5097W        W70357  20.019  40.910   1.642
 5098W        W70358  41.464  12.411   3.623
 5099W        W70359  22.097  36.678  14.315
 5100W        W70360  14.606  32.652  12.113
 5101W        W70361  17.111  17.586   2.328
 5102W        W70362  44.910  10.649   4.620
 5103W        W70363  14.232   1.243   0.752
 5104W        W70364  37.035  33.226  14.791
 5105W        W70365  18.136  31.478   2.571
 5106W        W70366  35.557  24.946  13.096
 5107W        W70367  39.906  28.426  14.474
 5108W        W70368  17.687  26.316  12.841
 5109W        W70369   6.862  44.289   1.956
 5110W        W70370   0.346  34.043   3.670
 5111W        W70371  15.723  36.508  14.989
 5112W        W70372  13.376   1.874  13.843
 5113W        W70373  43.074   9.415   1.459
 5114W        W70374  35.029  10.460  11.086
 5115W        W70375  41.895  27.078   1.952
 5116W        W70376  31.143  14.590  14.362
 5117W        W70377  39.320  32.733  13.373
 5118W        W70378   4.502  39.123   1.785
 5119W        W70379  19.771  37.593   4.127
 5120W        W70380  39.928  33.984  13.122
 5121W        W70381  16.137  32.373   1.969
 5122W        W70382  14.217  16.685   1.939
 5123W        W70383   1.445   0.298  11.211
 5124W        W70384  42.516  21.913  13.547
 5125W        W70385  39.542  17.555  13.836
 5126W        W70386  39.301  43.264   1.677
 5127W        W70387  28.410  35.837   0.732
 5128W        W70388  22.452  25.546  13.551
 5129W        W70389  18.155  18.649  12.364
 5130W        W70390  16.045  38.287   2.809
 5131W        W70391  20.868  11.287   0.325
 5132W        W70392  22.893  28.750   0.908
 5133W        W70393  23.624  17.030   1.151
 5134W        W70394  36.857  27.333   4.402
 5135W        W70395   5.512  38.795   1.345
 5136W        W70396  33.750  10.908  11.176
 5137W        W70397  37.365  19.628   1.261
 5138W        W70398  44.876  33.635  13.327
 5139W        W70399  43.266  37.995   3.663
 5140W        W70400   6.209  18.172   0.369
 5141W        W70401  32.003   2.042  14.784
 5142W        W70402   8.006  17.291   0.149
 5143W        W70403  38.639  13.378   1.945
 5144W        W70404  44.875  12.538   2.755
 5145W        W70405  26.442  42.899   3.264
 5146W        W70406  16.849  29.772  10.064
 5147W        W70407  39.311  32.470  13.814
 5148W        W70408  32.910   1.355   0.073
 5149W        W70409  20.452  35.711   2.599
 5150W        W70410  36.757  28.873   2.855
 5151W        W70411  37.005   2.885  13.251
 5152W        W70412  13.266  23.396  11.915
 5153W        W70413  42.735  33.244   1.454
 5154W        W70414  23.482  18.071   1.844
 5155W        W70415  33.489   8.311   0.683
 5156W        W70416   3.174   9.930  14.905
 5157W        W70417   2.819  27.063   5.086
 5158W        W70418  18.357  29.144   3.741
 5159W        W70419  29.833   1.021   3.267
 5160W        W70420  38.287  28.102   2.239
 5161W        W70421  27.082  19.622   5.070
 5162W        W70422   5.816  31.951  13.453
 5163W        W70423   1.796  32.773  10.749
 5164W        W70424  42.974   5.639   2.819
 5165W        W70425  15.669  35.918   0.725
 5166W        W70426  23.552  25.499   2.670
 5167W        W70427  33.549   3.523  13.076
 5168W        W70428  36.258   9.808   0.009
 5169W        W70429  29.064   1.005   4.405
 5170W        W70430  35.845   2.139  13.743
 5171W        W70431  22.720  33.118  10.149
 5172W        W70432  23.687   5.086  11.218
 5173W        W70433  42.417  25.239  13.064
 5174W        W70434  23.480   5.472  10.263
 5175W        W70435  24.090  21.010  13.285
 5176W        W70436  19.841  43.736  13.060
 5177W        W70437  37.401  27.146  12.871
 5178W        W70438   1.531   5.894   0.860
 5179W        W70439  41.039  38.515  11.925
 5180W        W70440  15.099  17.716  10.285
 5181W        W70441   5.381   3.034  13.417
 5182W        W70442  40.224  11.288  10.281
 5183W        W70443   0.321  34.938  14.221
 5184W        W70444   6.159  31.923  12.459
 5185W        W70445  40.877  19.966   3.817
 5186W        W70446  37.426  19.202   0.326
 5187W        W70447   7.052  12.782  12.386
 5188W        W70448  16.818  21.748   4.110
 5189W        W70449  15.254  11.683  10.389
 5190W        W70450  44.214  18.126  11.558
 5191W        W70451  32.845  17.046   0.471
 5192W        W70452  28.059  28.927   3.930
 5193W        W70453   8.893   8.098   3.621
 5194W        W70454   1.196  10.063   3.617
 5195W        W70455   3.410  23.962  13.440
 5196W        W70456  31.078  23.655   0.359
 5197W        W70457  32.713   5.735  12.567
 5198W        W70458  16.167  32.108  14.334
 5199W        W70459   5.276  18.241  12.144
 5200W        W70460  27.594  28.089  14.947
 5201W        W70461  13.741  18.917  14.502
 5202W        W70462  42.126   1.271   1.362
 5203W        W70463  40.305   5.035   0.846
 5204W        W70464  28.581  29.191   4.185
 5205W        W70465  10.910  39.872   4.794
 5206W        W70466   4.980  27.288   4.363
 5207W        W70467  24.208  10.358  12.108
 5208W        W70468  32.993  23.256  14.257
 5209W        W70469  41.585  12.267   4.554
 5210W        W70470  43.036  20.127   5.033
 5211W        W70471   2.743   7.642  11.404
 5212W        W70472  18.729  25.530  14.542
 5213W        W70473   2.435  19.156  12.487
 5214W        W70474   4.713  36.404   1.739
 5215W        W70475   7.454  43.971  14.254
 5216W        W70476  35.774  33.794   4.619
 5217W        W70477  31.204  35.880   1.833
 5218W        W70478  41.393  29.016   0.825
 5219W        W70479  35.620  30.849  12.637
 5220W        W70480  34.679  22.627   1.434
 5221W        W70481  34.586   4.682  13.886
 5222W        W70482  26.761  15.271   4.765
 5223W        W70483  36.582  26.369   3.974
 5224W        W70484  33.379  30.476  14.767
 5225W        W70485   6.431  27.205  11.144
 5226W        W70486  13.492   5.699  11.763
 5227W        W70487   6.202  31.949   0.914
 5228W        W70488  25.306  29.419  12.430
 5229W        W70489  43.453  37.358  11.156
 5230W        W70490  31.037  36.106   3.645
 5231W        W70491  26.969   7.294   1.842
 5232W        W70492  16.344  36.178  12.515
 5233W        W70493  14.154  43.467   0.203
 5234W        W70494  22.939  39.682   2.814
 5235W        W70495  22.795  42.447   0.911
 5236W        W70496  15.559  28.966  11.109
 5237W        W70497  21.796  12.731   4.098
 5238W        W70498  36.398  37.476   4.650
 5239W        W70499  11.344  34.844   4.823
 5240W        W70500  10.824   5.465  11.165
 5241W        W70501  12.670  43.833  10.616
 5242W        W70502  15.647  26.838   0.360
 5243W        W70503   6.902  44.684   3.196
 5244W        W70504   1.397  36.998   4.017
 5245W        W70505  15.502  36.818   1.281
 5246W        W70506  24.722  27.228  12.045
 5247W        W70507  11.169  18.812   0.753
 5248W        W70508  40.774  38.369  13.068
 5249W        W70509   6.723   6.828   3.159
 5250W        W70510  12.795  21.958   1.790
 5251W        W70511  35.929  43.926   4.113
 5252W        W70512  28.497  17.790   4.998
 5253W        W70513  42.133  10.725  10.845
 5254W        W70514   7.141  20.632   0.404
 5255W        W70515   4.414   6.004  12.461
 5256W        W70516   1.258   6.902   2.828
 5257W        W70517  19.491  11.405  11.633
 5258W        W70518  41.559   3.431  11.600
 5259W        W70519  37.084   6.435  10.835
 5260W        W70520   5.146  35.609   2.244
 5261W        W70521  24.704   5.997   0.004
 5262W        W70522  36.117  41.145  14.813
 5263W        W70523   2.929  30.111   2.135
 5264W        W70524   1.846  17.762  11.172
 5265W        W70525  25.101  14.062  12.046
 5266W        W70526  25.788  11.114  13.570
 5267W        W70527  14.243  41.679  13.072
 5268W        W70528   4.224   3.037  14.992
 5269W        W70529  37.770   8.979   1.278
 5270W        W70530   8.171   4.712  13.822
 5271W        W70531  38.467  32.856   4.090
 5272W        W70532  29.268  37.201   2.719
 5273W        W70533  12.857  10.296   4.302
 5274W        W70534  26.887   8.530   1.875
 5275W        W70535   1.080   6.915  14.658
 5276W        W70536  10.299  38.928   1.251
 5277W        W70537  23.246   8.408   0.229
 5278W        W70538  27.210  29.618  12.679
 5279W        W70539  34.710  23.985   3.191
 5280W        W70540  33.491   0.244  11.912
 5281W        W70541   6.280  43.345   1.513
 5282W        W70542  10.229  35.538  13.348
 5283W        W70543  37.594   3.440   5.132
 5284W        W70544  43.321  34.015  12.931
 5285W        W70545  13.793  19.366  10.996
 5286W        W70546  38.373  15.982   1.278
 5287W        W70547  35.529   3.897   2.164
 5288W        W70548  44.760  35.881  12.881
 5289W        W70549  19.270   5.577   2.887
 5290W        W70550  16.896   8.227   3.603
 5291W        W70551  21.671  27.044  10.477
 5292W        W70552  23.551  16.103  14.085
 5293W        W70553  22.374   2.867  14.352
 5294W        W70554  10.671  28.616   1.695
 5295W        W70555   5.165  29.871   4.975
 5296W        W70556  30.088  40.424  12.879
 5297W        W70557   9.857  14.809  10.954
 5298W        W70558  40.414  24.842  11.171
 5299W        W70559  43.919  33.346   1.812
 5300W        W70560   7.651   7.089   1.038
 5301W        W70561  34.006  17.156  12.996
 5302W        W70562  37.850  25.036   3.835
 5303W        W70563   0.010   8.274   0.384
 5304W        W70564  27.485   8.815  12.416
 5305W        W70565   7.670  20.118   1.904
 5306W        W70566  37.362  34.823  14.805
 5307W        W70567   8.354  36.834  13.374
 5308W        W70568  14.395  14.619  14.837
 5309W        W70569  12.928  18.178  12.390
 5310W        W70570  15.663   6.686   3.112
 5311W        W70571  30.055  37.774   3.310
 5312W        W70572  41.399  28.296   2.024
 5313W        W70573  16.041   9.804  10.276
 5314W        W70574  28.249  42.143   4.105
 5315W        W70575  43.416  17.491  13.557
 5316W        W70576  39.333  17.013   3.359
 5317W        W70577   3.187  20.701   3.542
 5318W        W70578  40.936  31.984   3.880
 5319W        W70579  20.249  21.454   2.402
 5320W        W70580  37.651  11.638  11.917
 5321W        W70581  23.693  42.751  11.976
 5322W        W70582  13.708  40.281   3.730
 5323W        W70583  36.010  43.315   0.753
 5324W        W70584   6.016  38.726   1.192
 5325W        W70585  17.089  20.014  13.336
 5326W        W70586  42.819  31.509  11.633
 5327W        W70587  31.598   3.840  13.840
 5328W        W70588  24.774  31.882  11.575
 5329W        W70589   9.873   1.539   2.338
 5330W        W70590  37.312  33.874   3.645
 5331W        W70591  43.389  42.486   1.293
 5332W        W70592  43.616  44.772   1.591
 5333W        W70593  13.861  33.854  11.130
 5334W        W70594  31.390  38.068   4.064
 5335W        W70595   5.961   3.120   0.163
 5336W        W70596  10.262  30.544   0.033
 5337W        W70597  23.608  34.657   1.807
 5338W        W70598  44.507  28.455   0.880
 5339W        W70599  29.433  39.984  14.997
 5340W        W70600  18.070  42.881   3.946
 5341W        W70601  15.192   0.446  11.988
 5342W        W70602  12.532  15.577   4.635
 5343W        W70603   5.836  42.979   0.810
 5344W        W70604  20.315   4.008  12.337
 5345W        W70605  23.811  12.657  14.851
 5346W        W70606  40.449   0.068  12.630
 5347W        W70607  42.759  35.462   0.817
 5348W        W70608   2.328   7.407   0.271
 5349W        W70609   5.945  37.635   1.849
 5350W        W70610  41.120  36.353  12.007
 5351W        W70611  20.063  42.239  13.706
 5352W        W70612  12.809  13.604  12.936
 5353W        W70613  12.757  43.685   0.508
 5354W        W70614  25.669  16.545  12.476
 5355W        W70615   7.188   0.971   2.151
 5356W        W70616  34.815   5.337   4.917
 5357W        W70617  16.536  23.150  12.507
 5358W        W70618  34.625   9.527   0.411
 5359W        W70619  12.798  22.745   1.959
 5360W        W70620  19.957  28.484   4.215
 5361W        W70621  14.859  23.217  14.312
 5362W        W70622  41.454  21.980   2.681
 5363W        W70623  10.549  39.393  12.173
 5364W        W70624  25.926  27.008  13.386
 5365W        W70625   6.921  41.736  11.602
 5366W        W70626  19.145  17.148   2.315
 5367W        W70627  40.456  16.294   0.003
 5368W        W70628   5.295  43.017   2.920
 5369W        W70629  34.215  29.355   2.739
 5370W        W70630  16.030   3.450   2.981
 5371W        W70631  14.275  11.146  14.762
 5372W        W70632   9.830   3.831   2.937
 5373W        W70633  43.775   1.974  12.074
 5374W        W70634   7.163   2.832   1.533
 5375W        W70635  14.817   4.635  14.051
 5376W        W70636   9.755  32.408   2.256
 5377W        W70637  30.866  33.048  12.356
 5378W        W70638  14.297  16.569  10.737
 5379W        W70639  21.278  17.817   4.571
 5380W        W70640   9.179  37.476  13.378
 5381W        W70641  36.955   5.955   3.835
 5382W        W70642  26.270   2.629   4.544
 5383W        W70643  16.643  32.462   4.276
 5384W        W70644  20.704  11.208   0.817
 5385W        W70645  33.473  28.174  12.933
 5386W        W70646   6.757  40.273  11.419
 5387W        W70647  31.892  20.101  13.308
 5388W        W70648   4.971  15.742   4.586
 5389W        W70649  40.515  33.500   5.067
 5390W        W70650  27.076   2.505   1.819
 5391W        W70651  26.223  29.535  11.167
 5392W        W70652   9.943  30.677   3.208
 5393W        W70653  35.880  34.655   0.308
 5394W        W70654   7.287  27.034  14.898
 5395W        W70655  34.889  36.829   3.233
 5396W        W70656  33.632   5.503   3.848
 5397W        W70657  40.255  36.339   2.782
 5398W        W70658  31.636  13.131  11.502
 5399W        W70659  39.256  14.684  12.935
 5400W        W70660   4.998  42.083   1.392
 5401W        W70661  37.287   9.102  13.928
 5402W        W70662  43.301  30.040   0.514
 5403W        W70663  38.257   3.462  10.431
 5404W        W70664   7.649  35.634   4.349
 5405W        W70665  44.011  32.466  11.625
 5406W        W70666   1.273  29.418   3.692
 5407W        W70667  17.697  19.772  14.992
 5408W        W70668   7.193  31.293   1.686
 5409W        W70669  18.623  33.982  10.652
 5410W        W70670   8.489  42.077  12.466
 5411W        W70671  10.640   1.214   2.063
 5412W        W70672  13.740  10.176  11.650
 5413W        W70673  20.152  44.794   0.034
 5414W        W70674  23.173  34.309   5.690
 5415W        W70675  37.054  32.121   0.104
 5416W        W70676   6.055  18.126   9.948
 5417W        W70677  26.131  20.357   3.472
 5418W        W70678  20.067  27.649  11.113
 5419W        W70679  39.546  41.686   2.769
 5420W        W70680  15.208  36.937  10.723
 5421W        W70681  16.176  19.591  13.937
 5422W        W70682  40.733  22.044   4.614
 5423W        W70683  41.866  14.821  14.285
 5424W        W70684   8.357  14.766   0.866
 5425W        W70685  18.550   8.431   4.144
 5426W        W70686   9.955  29.805  14.004
 5427W        W70687   8.324  16.140   0.271
 5428W        W70688  20.055  14.758   1.458
 5429W        W70689  32.027  32.924  14.072
 5430W        W70690   3.087  29.131  11.177
 5431W        W70691  40.902  12.619  14.422
 5432W        W70692  39.036  22.034  10.989
 5433W        W70693  12.841  16.163  12.227
 5434W        W70694  36.185  33.103  14.443
 5435W        W70695  18.667  19.614   3.085
 5436W        W70696   3.663  16.113   4.307
 5437W        W70697  29.156  26.055   2.389
 5438W        W70698  22.168  19.234   0.847
 5439W        W70699   1.056  38.074   4.279
 5440W        W70700   9.697  17.546  12.355
 5441W        W70701   1.275  36.951   2.160
 5442W        W70702  38.111   8.490   1.432
 5443W        W70703  39.913  38.097   1.598
 5444W        W70704   2.295  29.234   2.596
 5445W        W70705  32.499  31.893  12.310
 5446W        W70706  44.779  38.027  11.528
 5447W        W70707  17.274  42.761  14.911
 5448W        W70708  29.535   9.456  12.111
 5449W        W70709  32.824  25.910  12.517
 5450W        W70710  34.825  41.880   1.027
 5451W        W70711  12.176   5.954   1.274
 5452W        W70712  13.142  10.841  13.988
 5453W        W70713   2.184  31.104   4.064
 5454W        W70714  27.931  39.405   0.505
 5455W        W70715   9.481  36.266  14.032
 5456W        W70716  36.611  37.432   4.149
 5457W        W70717  14.604  40.447   0.334
 5458W        W70718  30.026  29.415   2.303
 5459W        W70719   6.942  38.618   0.315
 5460W        W70720  18.752  42.011   0.450
 5461W        W70721  17.711   1.970  14.452
 5462W        W70722  12.807   6.927  13.872
 5463W        W70723  34.531   1.508  12.053
 5464W        W70724   1.510  20.731  12.855
 5465W        W70725  21.283   3.708  14.953
 5466W        W70726  26.958  14.094   0.954
 5467W        W70727  42.674   8.794  11.359
 5468W        W70728  20.052  34.122  14.853
 5469W        W70729  32.259  38.161  13.076
 5470W        W70730   5.255   8.208  10.720
 5471W        W70731  21.037  43.268  13.964
 5472W        W70732   5.433   0.338  14.998
 5473W        W70733  32.461  17.751   3.345
 5474W        W70734  12.143  20.216   1.191
 5475W        W70735   6.288   8.387  11.849
 5476W        W70736  27.622  32.996   2.760
 5477W        W70737  11.321  29.919   1.916
 5478W        W70738  43.807  22.507  10.941
 5479W        W70739  39.178  39.106   4.631
 5480W        W70740  18.108   9.869  13.971
 5481W        W70741   9.817   3.929  11.737
 5482W        W70742  32.993   4.727   3.205
 5483W        W70743  35.978  26.290  14.218
 5484W        W70744   2.763  18.779   3.331
 5485W        W70745  22.499  21.326  12.046
 5486W        W70746   3.434   0.839  11.011
 5487W        W70747  44.386  27.279   4.195
 5488W        W70748  26.644  29.063   2.097
 5489W        W70749   2.523  24.065   0.760
 5490W        W70750  35.098  14.924  12.499
 5491W        W70751  32.624  22.206   1.888
 5492W        W70752   9.344   4.809   0.343
 5493W        W70753  31.733   5.224  10.426
 5494W        W70754  26.377  29.318   2.613
 5495W        W70755   4.461   3.119   3.720
 5496W        W70756  37.441  16.753  12.505
 5497W        W70757   5.734  22.895   0.777
 5498W        W70758  25.525  39.098  13.980
 5499W        W70759  25.095  13.458  11.144
 5500W        W70760  13.932  17.680   3.088
 5501W        W70761  13.602  24.289   3.711
 5502W        W70762   7.556  13.522   3.201
 5503W        W70763   7.850  13.144  11.681
 5504W        W70764  10.284   6.802  13.313
 5505W        W70765  44.100  32.281   4.980
 5506W        W70766   4.754  31.593   1.469
 5507W        W70767  22.085  37.644   0.838
 5508W        W70768  22.651  41.724   2.565
 5509W        W70769  34.581  20.083   0.863
 5510W        W70770  12.810  15.630  10.308
 5511W        W70771  35.133  41.306  13.566
 5512W        W70772  42.104  43.367  13.716
 5513W        W70773   9.804   6.934   0.125
 5514W        W70774   1.677  40.974  10.668
 5515W        W70775  26.052  44.831  12.607
 5516W        W70776  11.780  31.422   4.475
 5517W        W70777   1.458  32.973  12.228
 5518W        W70778   8.108  16.833  13.360
 5519W        W70779  20.307  33.624   0.863
 5520W        W70780  13.253  20.659  13.430
 5521W        W70781   6.823  11.289   3.086
 5522W        W70782  10.596  20.062  13.512
 5523W        W70783  20.720  18.774  12.581
 5524W        W70784  10.632  21.276  10.169
 5525W        W70785   3.855   6.864   1.875
 5526W        W70786  21.377  35.196   0.303
 5527W        W70787  25.726  37.907  12.445
 5528W        W70788  18.205  41.060  11.661
 5529W        W70789  37.871  14.170  10.954
 5530W        W70790   0.765  22.505   0.359
 5531W        W70791  37.390  18.617  11.492
 5532W        W70792  23.172  19.029  12.015
 5533W        W70793   1.828   0.290   4.238
 5534W        W70794  29.088  17.430  12.924
 5535W        W70795  25.167  43.601   3.407
 5536W        W70796   6.720  24.453  12.043
 5537W        W70797  20.538   8.478   4.233
 5538W        W70798   8.236   4.678  11.552
 5539W        W70799  14.914   1.022  13.475
 5540W        W70800  34.572  26.458   4.578
 5541W        W70801  38.920  25.255  11.071
 5542W        W70802  11.721  11.572  10.124
 5543W        W70803  13.701  14.104   2.822
 5544W        W70804  15.452  31.796   3.660
 5545W        W70805  10.296   2.765  10.559
 5546W        W70806  15.104  24.134  13.964
 5547W        W70807   7.215  15.845   0.936
 5548W        W70808  33.834  10.303  14.305
 5549W        W70809   8.313  10.064   0.175
 5550W        W70810   1.320  40.069   3.785
 5551W        W70811  38.695  39.172   4.791
 5552W        W70812   6.297  12.838  13.940
 5553W        W70813  17.730   7.433   3.786
 5554W        W70814   3.399   0.632   4.803
 5555W        W70815  17.729  15.140   3.408
 5556W        W70816  44.007  34.451   0.963
 5557W        W70817  10.302  16.765  11.941
 5558W        W70818  11.122   2.472   0.988
 5559W        W70819  31.630  21.000   0.879
 5560W        W70820  18.179  33.549  14.697
 5561W        W70821  19.830  43.460   3.271
 5562W        W70822   8.230   6.836   4.152
 5563W        W70823  19.666  18.638  10.165
 5564W        W70824  14.401  11.836  10.610
 5565W        W70825   9.134  37.946  14.120
 5566W        W70826  12.292  14.975  13.822
 5567W        W70827  18.636  41.921   4.096
 5568W        W70828   2.715  22.462  12.089
 5569W        W70829  37.592   6.287   0.873
 5570W        W70830  22.600  42.292   2.717
 5571W        W70831  26.503   4.447  11.170
 5572W        W70832  26.454  36.069   2.228
 5573W        W70833  33.905  38.011  11.343
 5574W        W70834  42.846   3.283   1.762
 5575W        W70835  44.938  10.313   0.482
 5576W        W70836  13.356  32.872   2.169
 5577W        W70837  19.370   0.258  14.296
 5578W        W70838  34.062  42.135  14.788
 5579W        W70839  32.174  21.967   1.809
 5580W        W70840  13.833  41.506  12.535
 5581W        W70841  43.372  28.049   1.449
 5582W        W70842  32.854  23.602   4.169
 5583W        W70843  35.163   4.449   4.568
 5584W        W70844  42.833  27.595   1.775
 5585W        W70845  23.073  42.103   2.766
 5586W        W70846  34.592   4.769  11.512
 5587W        W70847   3.363  10.467  12.034
 5588W        W70848  33.089  23.393   2.900
 5589W        W70849   1.198  31.977   5.142
 5590W        W70850   3.769  17.526   3.715
 5591W        W70851  33.127  17.547   1.999
 5592W        W70852  36.472   1.307  12.965
 5593W        W70853  18.559   6.744   4.235
 5594W        W70854  13.134   0.891   3.643
 5595W        W70855  38.044  29.527   2.395
 5596W        W70856  21.195  18.094   4.136
 5597W        W70857  23.808   0.652  12.074
 5598W        W70858   1.828  24.441  10.333
 5599W        W70859  16.719  38.955  12.828
 5600W        W70860  26.531  24.962   0.525
 5601W        W70861  32.935  22.611   1.945
 5602W        W70862  34.960  11.236  11.557
 5603W        W70863   3.072  40.052   0.487
 5604W        W70864  12.392  19.583  11.947
 5605W        W70865  32.910   1.286   4.659
 5606W        W70866  19.625  42.345  12.412
 5607W        W70867  37.820   8.327  10.750
 5608W        W70868   1.473  44.334  10.049
 5609W        W70869  28.643  36.368  14.785
 5610W        W70870   5.324  37.626  11.945
 5611W        W70871   8.897  13.364   3.618
 5612W        W70872  33.022   1.676   0.502
 5613W        W70873   6.923   9.331  11.556
 5614W        W70874  41.860  36.943   5.005
 5615W        W70875  24.130  39.226  13.250
 5616W        W70876   8.281  25.498  14.882
 5617W        W70877  22.826   1.273  12.540
 5618W        W70878  16.013  13.025   0.022
 5619W        W70879  17.219  10.708  10.589
 5620W        W70880  26.229   5.891  10.387
 5621W        W70881   9.872  40.498   2.318
 5622W        W70882  16.649  30.489  13.261
 5623W        W70883  20.793  32.641  11.451
 5624W        W70884  37.562  25.165   0.964
 5625W        W70885  42.284  30.000   1.810
 5626W        W70886  13.967  18.130  14.163
 5627W        W70887   8.696  20.217  10.565
 5628W        W70888  10.637  36.475   2.240
 5629W        W70889   7.162  18.328  11.646
 5630W        W70890  32.391  41.056  14.594
 5631W        W70891  13.638  13.170   2.430
 5632W        W70892  14.727  21.460   0.011
 5633W        W70893   4.333  36.905   0.204
 5634W        W70894  32.631  36.525  13.068
 5635W        W70895  31.505  38.521  14.744
 5636W        W70896  24.169  25.111  13.367
 5637W        W70897  10.346  12.717   4.805
 5638W        W70898  21.699  26.202  13.170
 5639W        W70899  29.184  26.395   4.633
 5640W        W70900  30.449  36.019   1.237
 5641W        W70901  27.064  10.713   1.821
 5642W        W70902   9.220  34.434  13.269
 5643W        W70903  35.463   6.383  12.969
 5644W        W70904   2.424  13.264   2.120
 5645W        W70905  33.094  20.603  12.874
 5646W        W70906  15.042   3.260  14.993
 5647W        W70907  13.223  25.905   4.112
 5648W        W70908  32.076  39.325  13.540
 5649W        W70909   0.196  12.418   1.483
 5650W        W70910  42.391  27.569  11.557
 5651W        W70911  31.004   5.398   0.615
 5652W        W70912   2.085  40.904   4.580
 5653W        W70913   8.249  23.740  11.603
 5654W        W70914   2.473  14.720   2.643
 5655W        W70915  43.803   1.810   1.746
 5656W        W70916  33.541  32.117  10.879
 5657W        W70917  19.669  27.909   1.249
 5658W        W70918  41.911   3.030  14.141
 5659W        W70919  40.022  22.316   4.202
 5660W        W70920  12.345  20.525  13.393
 5661W        W70921  34.029  17.121  14.830
 5662W        W70922  19.861   2.006   1.690
 5663W        W70923  35.376  23.127   3.058
 5664W        W70924  36.875  42.837  14.337
 5665W        W70925  23.537   9.199  11.974
 5666W        W70926  16.238  42.847  14.932
 5667W        W70927  15.068  14.883   3.070
 5668W        W70928  40.940  12.284  10.748
 5669W        W70929  22.114   6.874   0.991
 5670W        W70930   0.776  21.750   1.941
 5671W        W70931   8.280   3.673  13.474
 5672W        W70932  28.257  28.110  12.947
 5673W        W70933  40.285  15.495  13.505
 5674W        W70934  15.416  27.751  12.445
 5675W        W70935  40.228  17.796  12.580
 5676W        W70936  38.354  15.623  12.350
 5677W        W70937  10.868   6.356   9.923
 5678W        W70938   4.792  30.330   2.435
 5679W        W70939  19.684  26.714  13.011
 5680W        W70940  20.289  43.703  13.318
 5681W        W70941  25.455   5.978   2.218
 5682W        W70942  13.622   5.668   0.320
 5683W        W70943  32.436  24.295  10.765
 5684W        W70944  31.169  33.498   3.273
 5685W        W70945  40.411  20.215   3.350
 5686W        W70946  44.523  44.514   3.657
 5687W        W70947  24.586  16.065  11.049
 5688W        W70948  25.692  43.969   0.274
 5689W        W70949  14.127  12.244  13.367
 5690W        W70950  40.778   0.000   0.455
 5691W        W70951  12.818  22.052   2.643
 5692W        W70952  11.378  41.808  12.652
 5693W        W70953  44.178   0.074   3.675
 5694W        W70954   5.853  10.423   4.359
 5695W        W70955  23.651   4.279  14.955
 5696W        W70956   2.732  40.545   3.068
 5697W        W70957  38.430  18.386  14.726
 5698W        W70958  37.355  17.359   1.946
 5699W        W70959  19.338  25.496  10.812
 5700W        W70960   4.745  27.042  14.513
 5701W        W70961   6.980   6.203  12.461
 5702W        W70962  39.556   5.322  12.644
 5703W        W70963  37.883  10.858  10.606
 5704W        W70964  26.792   8.264  12.400
 5705W        W70965  18.488  39.797  11.987
 5706W        W70966  13.162  17.545   4.150
 5707W        W70967  14.201  23.600  14.718
 5708W        W70968  10.464   6.235  12.219
 5709W        W70969  29.983  40.397  13.774
 5710W        W70970  25.109  16.632   3.594
 5711W        W70971  34.521   8.364  13.362
 5712W        W70972   3.889  44.245  12.107
 5713W        W70973   9.789   4.396  12.017
 5714W        W70974  11.830  24.355  11.374
 5715W        W70975  23.703   3.065  11.683
 5716W        W70976   7.415  30.110   4.296
 5717W        W70977  18.974  17.126   1.809
 5718W        W70978  37.412  26.723  11.901
 5719W        W70979  20.041  20.206  12.945
 5720W        W70980   5.276  44.706  14.454
 5721W        W70981  39.309  25.135  12.986
 5722W        W70982  18.090   4.008  14.787
 5723W        W70983  21.343  18.082   1.167
 5724W        W70984  12.913  41.126   0.892
 5725W        W70985  15.821  35.853   2.680
 5726W        W70986  34.041  40.062  11.065
 5727W        W70987  42.075  11.154  12.483
 5728W        W70988  28.319  40.832   0.477
 5729W        W70989   6.393  12.682  13.454
 5730W        W70990  23.700  26.449  12.415
 5731W        W70991  29.164  30.697   5.040
 5732W        W70992  43.707   1.643  13.880
 5733W        W70993  29.173  30.205   2.335
 5734W        W70994  23.482   4.861  12.565
 5735W        W70995  10.284  23.760   3.746
 5736W        W70996  10.857  44.305   0.185
 5737W        W70997   1.883  44.647  14.888
 5738W        W70998  37.405  26.680  13.110
 5739W        W70999  19.775  41.874   3.241
 5740W        W71000   3.463  23.130   1.578
 5741W        W71001  24.687  40.996  14.561
 5742W        W71002  17.084   8.846  10.670
 5743W        W71003   3.954  40.833   0.069
 5744W        W71004   6.250  30.235  12.396
 5745W        W71005   5.810  39.365  10.437
 5746W        W71006   2.325  26.765   5.812
 5747W        W71007  32.365  36.187  14.848
 5748W        W71008  44.845  38.147   0.309
 5749W        W71009  19.813  32.668   2.637
 5750W        W71010  29.577  15.413  14.389
 5751W        W71011  31.650   1.388   3.253
 5752W        W71012  22.107   9.672  13.112
 5753W        W71013  17.792  25.096   4.624
 5754W        W71014  35.941  30.194  11.477
 5755W        W71015  30.003  40.392  11.903
 5756W        W71016  40.213  37.368   2.462
 5757W        W71017  21.582  40.992  12.074
 5758W        W71018  33.075  10.793   3.419
 5759W        W71019  38.992   8.226   4.646
 5760W        W71020  32.486  38.625  13.038
 5761W        W71021   2.140  43.482   3.319
 5762W        W71022   5.330  32.108  13.462
 5763W        W71023  14.820  24.098   3.699
 5764W        W71024  31.262  30.330  12.420
 5765W        W71025   4.908   7.274   3.099
 5766W        W71026  11.522  20.295  11.537
 5767W        W71027  14.512  42.371  14.383
 5768W        W71028  36.656  35.633  12.665
 5769W        W71029   0.330  22.627  11.588
 5770W        W71030  37.248   7.382   2.235
 5771W        W71031   4.925   9.648  14.986
 5772W        W71032  36.864   7.347  13.329
 5773W        W71033  35.298  21.285  14.947
 5774W        W71034  13.296  27.488   2.659
 5775W        W71035  22.383  32.136   2.042
 5776W        W71036  22.478  13.101  13.077
 5777W        W71037   4.574  35.312  12.248
 5778W        W71038  19.284   9.800  12.104
 5779W        W71039   0.570  11.287   2.757
 5780W        W71040   5.789   4.712  14.330
 5781W        W71041   8.048  39.072   4.392
 5782W        W71042  21.120  44.454  14.225
 5783W        W71043  13.299   9.834  13.111
 5784W        W71044   7.828   4.373   3.166
 5785W        W71045  39.505  30.522   5.095
 5786W        W71046  17.806  24.142   4.589
 5787W        W71047  41.627  16.843  12.039
 5788W        W71048  44.002  17.260  11.960
 5789W        W71049  25.583   5.710   4.095
 5790W        W71050  30.939  34.528  11.552
 5791W        W71051  42.070  27.331  12.145
 5792W        W71052  25.590  22.701  12.950
 5793W        W71053  42.887  40.422  10.499
 5794W        W71054  19.546  13.670   1.901
 5795W        W71055  26.938  32.543   0.527
 5796W        W71056  33.079  27.578  14.309
 5797W        W71057  29.699  12.376   1.712
 5798W        W71058  19.531  17.764  11.589
 5799W        W71059  34.058  21.976  11.567
 5800W        W71060  27.521   7.875  11.541
 5801W        W71061  10.829  24.540   4.369
 5802W        W71062  22.190  43.037   4.278
 5803W        W71063  20.308   8.648  12.984
 5804W        W71064   2.950  16.314  11.690
 5805W        W71065  25.220  28.391  14.773
 5806W        W71066  28.980  20.095  13.830
 5807W        W71067  15.125  29.228  11.120
 5808W        W71068  11.876   4.699   1.401
 5809W        W71069  36.937  30.177   3.386
 5810W        W71070   6.003  11.199   3.679
 5811W        W71071  37.458   3.102   5.560
 5812W        W71072  17.654  41.235   3.352
 5813W        W71073   0.795  41.382  13.658
 5814W        W71074  11.506  26.913   1.793
 5815W        W71075   5.947   9.277   2.775
 5816W        W71076  28.692  33.881   2.057
 5817W        W71077  44.780   1.292   3.679
 5818W        W71078  33.374   8.852  14.988
 5819W        W71079   0.906   8.397   1.327
 5820W        W71080  27.563   4.987  14.835
 5821W        W71081  36.798  30.614  14.880
 5822W        W71082   0.685   7.643   0.991
 5823W        W71083  43.160  10.429  11.523
 5824W        W71084  24.148   2.327  11.547
 5825W        W71085  26.544  28.960  10.613
 5826W        W71086  44.231  41.216  12.097
 5827W        W71087  27.481  11.662   1.417
 5828W        W71088  11.584  21.578  11.585
 5829W        W71089  42.771  26.373   4.071
 5830W        W71090  17.802  27.838   4.276
 5831W        W71091  24.621  36.927   2.166
 5832W        W71092  17.889  22.525   4.077
 5833W        W71093  29.616   1.276  14.866
 5834W        W71094   8.953   6.851  13.889
 5835W        W71095  21.541  14.202   3.799
 5836W        W71096  36.816   5.812  13.890
 5837W        W71097  43.780   4.562  13.896
 5838W        W71098  41.863  32.819   0.857
 5839W        W71099  23.894  25.169   2.389
 5840W        W71100  23.519   5.604   0.444
 5841W        W71101  43.058   4.452  11.668
 5842W        W71102  36.821  38.991   0.283
 5843W        W71103  25.355  33.897  13.941
 5844W        W71104   1.715  19.235  12.028
 5845W        W71105  19.301  42.338  12.822
 5846W        W71106  16.501  41.899   3.789
 5847W        W71107  13.668  18.834   5.042
 5848W        W71108  21.490   4.377   3.162
 5849W        W71109  42.813   0.845  12.551
 5850W        W71110  36.887   1.447  12.072
 5851W        W71111   2.720  44.522  14.004
 5852W        W71112  12.712  25.998  11.186
 5853W        W71113  18.051   8.774  10.713
 5854W        W71114  15.806  37.480   1.877
 5855W        W71115  16.236  37.560   2.167
 5856W        W71116  36.407   7.652  10.636
 5857W        W71117  31.937   0.282   2.761
 5858W        W71118  26.547  36.055  10.964
 5859W        W71119  24.235  16.223  11.815
 5860W        W71120  29.666  21.464  11.093
 5861W        W71121  41.287   7.765   3.711
 5862W        W71122  27.705  18.648  14.840
 5863W        W71123   2.437  10.834  14.356
 5864W        W71124  18.512  31.047   3.344
 5865W        W71125  28.078  27.538   1.774
 5866W        W71126  27.460   5.921  11.320
 5867W        W71127  44.873  42.472  14.777
 5868W        W71128   7.883  44.546   1.169
 5869W        W71129  43.466   6.394   2.166
 5870W        W71130  24.618  36.531  11.069
 5871W        W71131  25.006  20.271   3.881
 5872W        W71132   2.020  20.903   4.203
 5873W        W71133   6.879   6.294   3.490
 5874W        W71134   5.136  34.926   1.859
 5875W        W71135  34.798  34.363   2.604
 5876W        W71136  24.862  21.607  12.122
 5877W        W71137  35.956  39.874  14.487
 5878W        W71138   4.929  22.757   3.145
 5879W        W71139   1.873  26.975  11.630
 5880W        W71140  12.425   0.449  10.645
 5881W        W71141  31.910  29.557  10.733
 5882W        W71142   3.511  38.993   1.170
 5883W        W71143   5.750  24.050  12.472
 5884W        W71144  27.550  39.753   0.384
 5885W        W71145  23.741  10.633   2.365
 5886W        W71146  35.548   7.935   4.542
 5887W        W71147  40.460   9.209  11.136
 5888W        W71148  14.123  10.158   2.831
 5889W        W71149  28.451  14.797   2.973
 5890W        W71150  22.427  21.069  11.597
 5891W        W71151  14.122  20.129  12.692
 5892W        W71152   8.245  12.823  13.589
 5893W        W71153  37.231  33.527   2.266
 5894W        W71154  20.518  12.766   1.812
 5895W        W71155  24.752   5.951   3.472
 5896W        W71156  15.405  11.972  13.936
 5897W        W71157   0.771  36.747  14.402
 5898W        W71158  14.569  16.689   0.491
 5899W        W71159   3.544  10.344   4.205
 5900W        W71160  36.269  28.922   3.777
 5901W        W71161  27.822  43.082   3.877
 5902W        W71162  43.027  33.040   3.294
 5903W        W71163  23.401  12.181  13.528
 5904W        W71164  37.439  39.434   1.510
 5905W        W71165  35.300  38.521  13.362
 5906W        W71166  14.240  11.470   4.107
 5907W        W71167  41.188  44.240  11.504
 5908W        W71168  31.891   2.463   1.511
 5909W        W71169  42.445  32.607   2.604
 5910W        W71170  36.483  31.087  14.772
 5911W        W71171   8.684  39.310  13.385
 5912W        W71172  39.153  23.890   5.058
 5913W        W71173  29.244   9.008  12.046
 5914W        W71174  36.516   0.029   5.424
 5915W        W71175  15.490  17.203  11.004
 5916W        W71176   1.707  41.983   0.763
 5917W        W71177  15.613  32.568  11.992
 5918W        W71178  37.988   0.011   2.327
 5919W        W71179  28.995  44.354   4.098
 5920W        W71180  43.891  37.507  14.824
 5921W        W71181  17.612  15.772  13.005
 5922W        W71182  12.130  22.748   4.221
 5923W        W71183   7.742  26.754   0.936
 5924W        W71184  22.495  44.800  12.289
 5925W        W71185  44.898   1.456   0.646
 5926W        W71186   7.796   6.795   1.443
 5927W        W71187  14.086  16.460  12.037
 5928W        W71188  34.451  24.316  10.695
 5929W        W71189  25.911  13.836   3.329
 5930W        W71190  14.271  13.125   1.414
 5931W        W71191  18.178   4.439   4.085
 5932W        W71192  27.541  17.517  13.362
 5933W        W71193   8.236  39.354   4.002
 5934W        W71194  17.271  26.458   2.461
 5935W        W71195  24.737   7.242   3.622
 5936W        W71196  24.756  20.214  10.399
 5937W        W71197  42.787  44.766  10.327
 5938W        W71198  39.968   3.320  12.301
 5939W        W71199  35.486  41.340   2.220
 5940W        W71200  25.654  31.950   3.088
 5941W        W71201  39.475  21.159  13.857
 5942W        W71202  25.650  10.401   2.224
 5943W        W71203  23.474  32.982   5.103
 5944W        W71204  26.079  10.397  14.927
 5945W        W71205  41.596  12.341   1.659
 5946W        W71206   4.761  26.125  11.153
 5947W        W71207  16.721  43.992   0.933
 5948W        W71208  44.984  41.193  13.316
 5949W        W71209  38.728   9.548  13.906
 5950W        W71210  38.969  21.322  13.842
 5951W        W71211  31.405  20.568   2.415
 5952W        W71212  32.084  31.905  13.056
 5953W        W71213  36.788  12.108   2.257
 5954W        W71214  31.968   7.671   4.195
 5955W        W71215  21.378  19.090  13.257
 5956W        W71216  20.453   2.849   3.433
 5957W        W71217  25.346  34.263  11.645
 5958W        W71218  25.245  32.613   1.810
 5959W        W71219  11.173  26.546   2.728
 5960W        W71220  13.856  28.387   2.451
 5961W        W71221  15.604  18.360   1.186
 5962W        W71222   0.693  37.283  12.933
 5963W        W71223  18.269  17.343  14.712
 5964W        W71224   7.387   7.400   4.143
 5965W        W71225  37.453  38.530  10.607
 5966W        W71226   9.625  18.574   4.614
 5967W        W71227   3.241  22.309   0.526
 5968W        W71228   3.211  12.420  10.967
 5969W        W71229  29.604  40.038  13.665
 5970W        W71230  17.072  36.816  13.315
 5971W        W71231  42.981  21.112   3.083
 5972W        W71232  34.114  25.717   3.592
 5973W        W71233  34.823  25.223   0.844
 5974W        W71234  22.510   3.798  10.064
 5975W        W71235  19.577  40.756   2.402
 5976W        W71236   5.133  38.656   2.189
 5977W        W71237  33.983  22.482  12.480
 5978W        W71238  17.205  13.239  10.694
 5979W        W71239   8.785   5.323   1.951
 5980W        W71240  13.864  18.896  11.194
 5981W        W71241  44.234   9.148  11.997
 5982W        W71242  10.800  19.705   2.814
 5983W        W71243  38.839  15.408  14.673
 5984W        W71244  25.571  38.508   4.014
 5985W        W71245  13.564  23.769   2.237
 5986W        W71246  27.922   6.286  12.059
 5987W        W71247   5.135   7.179  12.935
 5988W        W71248   2.362   8.817   1.246
 5989W        W71249  12.768   1.830   1.915
 5990W        W71250  34.379  15.112   3.838
 5991W        W71251   4.879   3.920   3.115
 5992W        W71252  21.728  28.426  11.122
 5993W        W71253  41.004  15.416  13.105
 5994W        W71254  15.386  37.830  11.474
 5995W        W71255   6.399  18.200  13.484
 5996W        W71256  13.901  36.631  11.499
 5997W        W71257  22.738   6.864  14.402
 5998W        W71258  12.271  43.498   3.620
 5999W        W71259  39.870  12.945  12.959
 6000W        W71260  41.284  10.075   3.303
 6001W        W71261  37.411  44.546   0.357
 6002W        W71262  33.129  32.389   3.311
 6003W        W71263  19.985  26.151  11.020
 6004W        W71264  14.293   3.707  12.886
 6005W        W71265  16.627  44.746   3.207
 6006W        W71266   3.836  39.352  10.718
 6007W        W71267   7.816  43.416  11.583
 6008W        W71268  36.255   7.144  10.541
 6009W        W71269  11.572  44.293   0.681
 6010W        W71270   3.915  33.131   1.832
 6011W        W71271  41.749  41.270   2.640
 6012W        W71272  28.905  35.404  11.504
 6013W        W71273  38.876   1.967  13.095
 6014W        W71274   2.924  37.874  11.637
 6015W        W71275   4.981   1.466  11.391
 6016W        W71276  21.078  34.377  11.909
 6017W        W71277  33.639  11.365   4.089
 6018W        W71278   2.633  11.520  12.927
 6019W        W71279  41.838   2.507   3.912
 6020W        W71280   9.042  32.053  11.124
 6021W        W71281   3.794  41.929  11.731
 6022W        W71282  21.684  13.335  12.111
 6023W        W71283  40.978   9.241   4.728
 6024W        W71284  16.593   9.412   1.751
 6025W        W71285  25.358  40.314   0.244
 6026W        W71286  38.066  13.731  11.193
 6027W        W71287  34.927  42.362   1.277
 6028W        W71288  30.456  32.165   0.907
 6029W        W71289  20.310  39.258  13.304
 6030W        W71290  35.837  33.142   2.838
 6031W        W71291  26.221  24.094   5.047
 6032W        W71292  40.443  44.019   1.262
 6033W        W71293  30.475  32.410  11.208
 6034W        W71294  31.816  18.526   0.982
 6035W        W71295   5.694  13.252   0.150
 6036W        W71296  40.751  36.872  11.095
 6037W        W71297  26.164  25.059   4.207
 6038W        W71298   9.458   2.800   1.902
 6039W        W71299  14.043  32.582  12.197
 6040W        W71300  25.159   0.209   2.277
 6041W        W71301  39.382  38.592   0.341
 6042W        W71302   0.312  44.819   4.364
 6043W        W71303  11.951  27.591  11.520
 6044W        W71304  14.603  11.757   2.094
 6045W        W71305  17.666  32.095   3.374
 6046W        W71306   4.915  12.724   1.014
 6047W        W71307  29.887  15.074   3.917
 6048W        W71308   4.254  34.587  13.227
 6049W        W71309  22.563   8.131   4.562
 6050W        W71310  23.287  23.492  14.787
 6051W        W71311  25.928  25.020  10.964
 6052W        W71312  40.142  36.279  13.986
 6053W        W71313  28.157  18.410  14.915
 6054W        W71314   5.245  24.341   0.894
 6055W        W71315  21.731  42.226   0.967
 6056W        W71316  31.931  18.066  11.972
 6057W        W71317  37.801   8.870   2.732
 6058W        W71318  38.883   3.389  13.406
 6059W        W71319   8.502  23.968   3.214
 6060W        W71320  14.279   4.413  10.906
 6061W        W71321  14.053  34.125   4.923
 6062W        W71322  39.983  16.492   0.058
 6063W        W71323  37.844  26.205   3.869
 6064W        W71324  12.418  24.549  10.710
 6065W        W71325   2.900   7.797   0.395
 6066W        W71326  32.179  36.272  12.914
 6067W        W71327  17.272   0.385   4.653
 6068W        W71328   9.727  17.372   3.808
 6069W        W71329   8.130  37.857   0.403
 6070W        W71330  11.774  14.128  13.342
 6071W        W71331  34.316  16.244   0.219
 6072W        W71332  36.946   4.725  12.803
 6073W        W71333  36.576  20.855   1.719
 6074W        W71334  39.994  38.830   2.412
 6075W        W71335  16.975  15.779   0.804
 6076W        W71336   4.686  40.965   2.262
 6077W        W71337  32.017  37.982  12.159
 6078W        W71338  12.166  26.560  10.765
 6079W        W71339  20.710   0.552   2.838
 6080W        W71340  10.833   2.156   4.083
 6081W        W71341  15.060  33.618   4.051
 6082W        W71342  16.892  16.254  13.087
 6083W        W71343  17.421  23.469  13.371
 6084W        W71344  37.824  34.079   0.404
 6085W        W71345  43.760  11.051  12.776
 6086W        W71346  39.790  24.898  13.702
 6087W        W71347  20.101  14.536   1.958
 6088W        W71348  11.282  42.281  11.224
 6089W        W71349  42.010   9.209  14.901
 6090W        W71350  17.768  22.254  14.089
 6091W        W71351   6.179   8.745  13.877
 6092W        W71352  13.125  24.590   2.661
 6093W        W71353  35.126  37.406  13.613
 6094W        W71354   6.606  21.229   2.043
 6095W        W71355  38.345  40.335  14.904
 6096W        W71356   5.213  42.798   4.669
 6097W        W71357  29.030  39.983   0.319
 6098W        W71358  41.490  14.383  12.363
 6099W        W71359  16.577  23.151   1.388
 6100W        W71360  38.494  31.405   2.849
 6101W        W71361  29.899   1.357   0.397
 6102W        W71362   8.396  30.335   3.268
 6103W        W71363  18.848  34.175  14.919
 6104W        W71364  10.896  17.051  12.772
 6105W        W71365  20.000  10.787  13.424
 6106W        W71366   7.752  36.983  14.051
 6107W        W71367  27.998  35.468  11.055
 6108W        W71368  22.222  41.963   2.769
 6109W        W71369  29.395  18.846  12.919
 6110W        W71370   9.228  30.756   1.663
 6111W        W71371  28.033   2.488   0.395
 6112W        W71372   6.528  14.039  10.338
 6113W        W71373  17.263  13.290   1.350
 6114W        W71374  42.292  32.552   0.794
 6115W        W71375  13.778  33.948   2.622
 6116W        W71376  35.588  20.654   4.551
 6117W        W71377  34.946  10.969  11.100
 6118W        W71378  41.986  25.208  13.397
 6119W        W71379  15.368  25.490   0.322
 6120W        W71380   3.834  14.832  13.988
 6121W        W71381  42.319  34.880   3.395
 6122W        W71382  12.822  21.498   4.332
 6123W        W71383  28.761  19.770  10.523
 6124W        W71384   8.648   6.108   1.293
 6125W        W71385   4.740   1.952   3.239
 6126W        W71386  41.934  17.596  13.793
 6127W        W71387  39.488  14.744  14.486
 6128W        W71388   2.955  42.931  13.009
 6129W        W71389  27.836  32.783   0.056
 6130W        W71390   4.168  29.809   3.586
 6131W        W71391  44.781   1.759  12.961
 6132W        W71392  16.991  21.212  11.979
 6133W        W71393  25.658   0.940   2.281
 6134W        W71394  29.966  31.602  11.396
 6135W        W71395  23.454  32.617  10.667
 6136W        W71396  12.500   8.377   0.751
 6137W        W71397   8.402  12.791   2.317
 6138W        W71398  32.944  14.617  12.114
 6139W        W71399  31.895   3.515  12.614
 6140W        W71400  15.706  24.868   1.323
 6141W        W71401  27.546  22.590  13.210
 6142W        W71402  20.619   4.339  10.669
 6143W        W71403  21.059  16.256  10.611
 6144W        W71404   9.296  17.702  11.028
 6145W        W71405   8.124  37.759  11.509
 6146W        W71406  26.493  44.215   0.207
 6147W        W71407  31.441  19.831  11.966
 6148W        W71408  13.583  25.781  14.426
 6149W        W71409  28.895  15.793   1.258
 6150W        W71410   9.170  38.577   2.126
 6151W        W71411  34.252  42.452  11.145
 6152W        W71412  37.488  27.221   0.831
 6153W        W71413  27.911  33.721   1.280
 6154W        W71414  41.219  26.499  11.089
 6155W        W71415  10.655  14.201   3.669
 6156W        W71416  26.107   4.197   4.512
 6157W        W71417   4.615  28.807  14.873
 6158W        W71418  34.560  44.994  14.460
 6159W        W71419  34.764  10.502   0.153
 6160W        W71420  22.302  28.876   4.243
 6161W        W71421  15.374  22.406   2.395
 6162W        W71422  37.338  33.727   0.950
 6163W        W71423  40.412  38.805   1.789
 6164W        W71424  29.512  33.295  11.478
 6165W        W71425   4.204   6.226   2.455
 6166W        W71426  23.432  43.284  14.115
 6167W        W71427  23.215   8.305  14.334
 6168W        W71428   5.439   7.473   2.181
 6169W        W71429   6.305  16.286   4.262
 6170W        W71430  22.137  21.622  14.312
 6171W        W71431  28.145  14.732  12.541
 6172W        W71432  34.098  30.564   2.261
 6173W        W71433  11.161  33.622  14.983
 6174W        W71434  26.166  31.382   4.523
 6175W        W71435   1.664  26.479  12.516
 6176W        W71436  19.765  39.270   2.249
 6177W        W71437  12.202  12.917   0.321
 6178W        W71438  20.085  27.173   4.644
 6179W        W71439  27.354   0.377   1.346
 6180W        W71440  15.757  23.230   2.088
 6181W        W71441  19.592  13.794   3.921
 6182W        W71442  26.109  19.074   0.899
 6183W        W71443  30.540  28.018  14.061
 6184W        W71444  26.406  18.559   3.053
 6185W        W71445  26.729   1.607   2.673
 6186W        W71446   7.468  33.469  12.444
 6187W        W71447  18.596  35.403  13.170
 6188W        W71448  31.883  41.777  14.771
 6189W        W71449  40.991   5.002  13.980
 6190W        W71450  35.933  22.710  14.403
 6191W        W71451  34.847  16.109  11.889
 6192W        W71452  26.248  26.941   0.152
 6193W        W71453  36.339   0.934   1.371
 6194W        W71454  33.361  32.963   4.262
 6195W        W71455  37.522  14.197   3.319
 6196W        W71456  39.396  44.253   1.919
 6197W        W71457  35.351  23.675   3.381
 6198W        W71458  31.402   0.793  11.228
 6199W        W71459  23.164  33.803   2.523
 6200W        W71460  27.913  26.986  14.547
 6201W        W71461  41.024   6.829   1.316
 6202W        W71462  34.942   3.493   3.129
 6203W        W71463  19.163  23.785  12.823
 6204W        W71464  22.894  21.178  11.449
 6205W        W71465  33.857   1.844  11.508
 6206W        W71466  36.803  35.483   4.175
 6207W        W71467   5.210  13.526  12.520
 6208W        W71468  21.740  14.685   3.002
 6209W        W71469  36.501  34.541  13.952
 6210W        W71470  13.900  23.036  11.520
 6211W        W71471  37.253   3.746  14.065
 6212W        W71472   2.509  43.022   0.399
 6213W        W71473   9.203  34.528  11.718
 6214W        W71474  29.934  26.542   9.805
 6215W        W71475  44.324  22.431   3.356
 6216W        W71476  19.945  25.258  10.277
 6217W        W71477  40.359  15.903   0.321
 6218W        W71478  15.156  22.814  13.063
 6219W        W71479  29.088  42.290  10.716
 6220W        W71480  24.557  13.534   3.037
 6221W        W71481  34.246  44.351  12.887
 6222W        W71482  18.991  38.374   1.779
 6223W        W71483   5.317  15.773  12.478
 6224W        W71484  20.713  20.187  13.826
 6225W        W71485   0.433  30.113  14.300
 6226W        W71486  27.683  20.784  13.904
 6227W        W71487  31.071  44.473   1.311
 6228W        W71488  19.837  39.479   4.608
 6229W        W71489  30.431   5.034  14.344
 6230W        W71490  31.830  36.454   4.612
 6231W        W71491  22.995  41.496   0.765
 6232W        W71492  12.603  11.117  12.012
 6233W        W71493  35.597  40.776  10.516
 6234W        W71494  37.402   9.919  10.590
 6235W        W71495  25.038  16.538   9.754
 6236W        W71496  42.432  18.530   2.096
 6237W        W71497  44.912  20.015   0.797
 6238W        W71498  42.843  22.580  14.498
 6239W        W71499  25.068  12.655   3.755
 6240W        W71500   0.373   3.181   4.123
 6241W        W71501   3.258   3.017   2.848
 6242W        W71502  33.268  16.656  14.688
 6243W        W71503  16.152   6.964  12.853
 6244W        W71504  15.209   2.587  11.404
 6245W        W71505  14.451   2.331   1.284
 6246W        W71506  44.034  38.013  14.879
 6247W        W71507  23.232   5.182  14.760
 6248W        W71508  22.623   5.216  12.943
 6249W        W71509  10.270   2.239  12.572
 6250W        W71510   1.263  35.195   4.807
 6251W        W71511   2.934   4.462  10.715
 6252W        W71512  33.064  33.157  11.888
 6253W        W71513  11.013   2.079   1.420
 6254W        W71514   3.824  22.673  13.350
 6255W        W71515  21.946  35.850  13.161
 6256W        W71516   0.477  16.948  11.910
 6257W        W71517  23.462  41.838  14.498
 6258W        W71518  30.946  29.181   3.636
 6259W        W71519   2.359   6.175   2.377
 6260W        W71520   7.223   4.898   1.432
 6261W        W71521   9.169  27.122   0.808
 6262W        W71522  33.360  11.676  13.071
 6263W        W71523   1.944  20.355   1.913
 6264W        W71524   6.474  36.032  10.757
 6265W        W71525  22.767  30.443  13.002
 6266W        W71526   4.935  34.601   1.312
 6267W        W71527  14.869  27.036   3.371
 6268W        W71528  40.564   3.098   3.825
 6269W        W71529   0.208   7.077   2.261
 6270W        W71530  37.087  19.173   1.773
 6271W        W71531  42.367  40.598  12.605
 6272W        W71532  28.078   3.046  11.440
 6273W        W71533  11.737  31.324  12.136
 6274W        W71534  17.539   1.187   1.894
 6275W        W71535   9.953   3.623  12.120
 6276W        W71536   8.829  13.886   0.727
 6277W        W71537   5.848   5.787  12.073
 6278W        W71538  25.889   6.999   4.222
 6279W        W71539  30.530   9.012  11.601
 6280W        W71540   4.106  44.734   1.248
 6281W        W71541  10.552  18.231  13.963
 6282W        W71542  16.010   8.973  10.723
 6283W        W71543  15.595  34.118  13.550
 6284W        W71544  23.106  10.258   3.821
 6285W        W71545  38.408   9.443   3.633
 6286W        W71546  15.060  36.917  11.687
 6287W        W71547  24.573  16.732   9.615
 6288W        W71548  21.117  33.176  12.422
 6289W        W71549   3.485  38.953   5.218
 6290W        W71550  23.954  18.435   1.841
 6291W        W71551  16.118  23.034  13.847
 6292W        W71552  26.071   3.919  14.827
 6293W        W71553   8.062  11.311  11.892
 6294W        W71554  19.136  28.067  12.972
 6295W        W71555  41.913  38.753   1.119
 6296W        W71556   1.772  14.111   0.872
 6297W        W71557  12.612  30.515   3.631
 6298W        W71558  12.866  30.225  11.073
 6299W        W71559  16.935  19.003   5.377
 6300W        W71560  21.202   4.454   5.135
 6301W        W71561  17.341  24.265   1.013
 6302W        W71562  33.513  17.909   4.724
 6303W        W71563   2.637   0.378  12.422
 6304W        W71564  32.886  34.510  14.918
 6305W        W71565  33.013  23.735   2.499
 6306W        W71566  43.066   2.318  10.774
 6307W        W71567   3.649  15.691   4.597
 6308W        W71568   1.814  31.516  14.624
 6309W        W71569  38.174  27.118  14.241
 6310W        W71570   6.134  11.150  12.597
 6311W        W71571  23.216  32.563  14.965
 6312W        W71572  43.907  20.477   2.203
 6313W        W71573  35.801  39.567  11.808
 6314W        W71574  35.232   3.281   0.212
 6315W        W71575  13.147  41.748   4.369
 6316W        W71576   9.030   3.198  13.478
 6317W        W71577  43.127  29.690   0.900
 6318W        W71578  33.498   1.709   4.119
 6319W        W71579  11.141  43.995  14.867
 6320W        W71580  10.862   9.171  14.453
 6321W        W71581  27.679  24.699  14.920
 6322W        W71582   5.760  35.380  11.059
 6323W        W71583  10.146   5.194  13.807
 6324W        W71584   1.389  28.263   3.297
 6325W        W71585  37.278  29.101   0.656
 6326W        W71586  38.966  11.799  13.485
 6327W        W71587  25.021  19.766   2.241
 6328W        W71588  32.831  26.678   1.821
 6329W        W71589  14.846  27.483   2.688
 6330W        W71590   4.398   4.003  14.847
 6331W        W71591   0.767  13.806  13.743
 6332W        W71592  11.835  18.201   2.790
 6333W        W71593  24.195  10.385   3.612
 6334W        W71594   7.365  41.965  10.548
 6335W        W71595  41.755  14.042  12.618
 6336W        W71596  43.524  19.538   4.110
 6337W        W71597  16.563  26.980  14.411
 6338W        W71598  28.385  38.260   2.017
 6339W        W71599  36.253  17.283   2.315
 6340W        W71600  33.982  38.549  14.715
 6341W        W71601  26.085   4.925   4.124
 6342W        W71602  34.950  26.709  11.627
 6343W        W71603  23.120   8.905   0.162
 6344W        W71604   6.449   1.221  10.616
 6345W        W71605   6.127  32.455   2.689
 6346W        W71606  35.895  37.484   5.445
 6347W        W71607  11.917   2.706   2.660
 6348W        W71608  25.185  20.223  13.964
 6349W        W71609   6.758   8.286   1.959
 6350W        W71610  36.632  30.728   4.082
 6351W        W71611  36.314  27.016  10.711
 6352W        W71612  40.042   2.472   0.865
 6353W        W71613  14.244  11.185   4.516
 6354W        W71614  17.944   5.924   3.744
 6355W        W71615  40.254   3.251  10.758
 6356W        W71616  31.210  10.994   3.915
 6357W        W71617  33.948  28.198  14.566
 6358W        W71618   7.480  13.824  14.307
 6359W        W71619   7.784  33.364  14.469
 6360W        W71620   3.941  37.340   2.711
 6361W        W71621  21.877  19.036  10.673
 6362W        W71622   5.707   5.449   1.451
 6363W        W71623  20.351  43.394  14.430
 6364W        W71624  31.516  37.935   1.662
 6365W        W71625  19.601  23.190  10.692
 6366W        W71626   1.556  24.555   4.563
 6367W        W71627  38.579  41.490   2.716
 6368W        W71628  34.559   0.730  11.561
 6369W        W71629  12.369   6.114  14.028
 6370W        W71630  20.306  32.866  11.423
 6371W        W71631   4.496  29.577  12.004
 6372W        W71632   4.753  13.160  14.724
 6373W        W71633  34.107  40.308  11.913
 6374W        W71634  29.562  12.605  13.397
 6375W        W71635   5.472  22.430   0.692
 6376W        W71636   0.248  40.891  11.028
 6377W        W71637  16.314  33.929  12.334
 6378W        W71638  39.388   7.976  11.972
 6379W        W71639  14.333  28.219   4.134
 6380W        W71640  30.062  22.727  10.858
 6381W        W71641   8.392  14.166   4.874
 6382W        W71642  25.227  35.642  12.708
 6383W        W71643   5.690   6.306  12.913
 6384W        W71644  22.619  36.766  14.034
 6385W        W71645  25.815  33.641   3.813
 6386W        W71646  36.528  27.140  14.040
 6387W        W71647  25.549  40.368   4.190
 6388W        W71648  37.775   8.425  12.378
 6389W        W71649  43.869  21.160   1.500
 6390W        W71650   0.993  18.115   0.465
 6391W        W71651   7.201   3.266  12.403
 6392W        W71652  16.779  15.171  11.197
 6393W        W71653  24.571  20.448   4.108
 6394W        W71654  28.946  39.708   4.142
 6395W        W71655  26.301  19.628  13.607
 6396W        W71656  28.486  40.901   3.447
 6397W        W71657  28.431  35.802  11.077
 6398W        W71658  32.865  40.415  11.498
 6399W        W71659  31.459   7.270   4.483
 6400W        W71660  33.776  22.596   4.599
 6401W        W71661  15.244  30.456   2.262
 6402W        W71662  42.732  21.221   0.981
 6403W        W71663   1.909  23.209  12.391
 6404W        W71664   8.782  30.856  11.537
 6405W        W71665  12.883  28.386   2.287
 6406W        W71666  34.522   3.568  12.078
 6407W        W71667  26.659  30.054   3.199
 6408W        W71668  26.670  21.149   2.777
 6409W        W71669  33.397  28.739   0.381
 6410W        W71670  19.541  27.356   3.213
 6411W        W71671  22.658   6.453   1.846
 6412W        W71672  19.138  35.585   1.012
 6413W        W71673  11.801  37.574  12.102
 6414W        W71674  34.612  28.637  11.456
 6415W        W71675  29.245  27.448  12.562
 6416W        W71676   4.475  26.593  13.992
 6417W        W71677  40.381  16.793   1.449
 6418W        W71678  18.840  36.382   3.115
 6419W        W71679  14.820  18.276   2.246
 6420W        W71680  12.888   7.644  14.397
 6421W        W71681  28.149  35.382   3.655
 6422W        W71682  21.283   3.209  13.965
 6423W        W71683   8.703  36.330   0.434
 6424W        W71684   6.213  11.005   1.713
 6425W        W71685  11.666   6.412  13.348
 6426W        W71686  22.616  11.650  11.208
 6427W        W71687   6.419   6.559   2.740
 6428W        W71688   0.395  42.917   4.533
 6429W        W71689  17.261   0.359   0.379
 6430W        W71690  36.463   6.108  13.195
 6431W        W71691  18.080  32.192  13.060
 6432W        W71692  13.643  24.345  13.975
 6433W        W71693   3.370  24.322   2.430
 6434W        W71694  13.173  35.884  12.733
 6435W        W71695  12.040  43.230   3.236
 6436W        W71696  16.199  28.656   2.867
 6437W        W71697   4.907  14.547  14.249
 6438W        W71698  35.015  37.369  11.012
 6439W        W71699   8.133  14.223  12.148
 6440W        W71700   2.163  25.455  12.479
 6441W        W71701  19.584  32.385   2.207
 6442W        W71702  42.257  28.436   2.380
 6443W        W71703  31.904  39.471  11.973
 6444W        W71704  30.244  31.124   0.750
 6445W        W71705  26.725  42.609   0.951
 6446W        W71706   9.302  41.594   4.239
 6447W        W71707  38.284  17.598   2.219
 6448W        W71708  36.075  34.964  13.935
 6449W        W71709   4.866  30.392   0.540
 6450W        W71710   4.285  16.603  11.483
 6451W        W71711  26.548  39.872  11.654
 6452W        W71712  17.535   7.292   0.539
 6453W        W71713  32.164  15.622   4.946
 6454W        W71714   9.559  23.060  10.329
 6455W        W71715  37.253  11.767   4.698
 6456W        W71716  17.097  21.569   3.705
 6457W        W71717   4.309  26.691  11.564
 6458W        W71718  27.251  11.823  12.036
 6459W        W71719  40.971  36.453   1.226
 6460W        W71720  35.423   5.333  14.148
 6461W        W71721  17.173  14.753   1.587
 6462W        W71722  44.966  27.424  12.944
 6463W        W71723  17.245  13.998   3.727
 6464W        W71724  13.206  33.956   9.787
 6465W        W71725   2.783  33.584  11.872
 6466W        W71726  27.443  18.641  14.397
 6467W        W71727  24.492  27.583  13.878
 6468W        W71728  31.775  13.738   1.806
 6469W        W71729  26.590   8.667   0.751
 6470W        W71730   8.712  34.211   1.485
 6471W        W71731  10.076  39.889   2.344
 6472W        W71732  21.623  31.266  12.301
 6473W        W71733  40.261  40.275   0.887
 6474W        W71734  25.114  37.758   0.031
 6475W        W71735  42.620  12.149  14.392
 6476W        W71736   2.174  31.841  14.892
 6477W        W71737  12.801  36.182   0.818
 6478W        W71738  28.209  41.285  10.845
 6479W        W71739   9.767   9.239   3.641
 6480W        W71740  28.844   6.243  13.715
 6481W        W71741  25.763  12.143   2.701
 6482W        W71742   6.295  28.948   0.006
 6483W        W71743  27.185   6.611   3.181
 6484W        W71744  23.181   0.752   0.212
 6485W        W71745  28.150  11.489  11.659
 6486W        W71746  13.287  31.425  10.435
 6487W        W71747   5.735  14.194   4.818
 6488W        W71748   6.220  39.887   0.747
 6489W        W71749  39.091   0.317  13.455
 6490W        W71750   3.778  36.166  11.088
 6491W        W71751  16.151   7.386  10.671
 6492W        W71752  30.063   2.495  13.282
 6493W        W71753  23.479  18.014   2.685
 6494W        W71754   2.752  19.271   3.139
 6495W        W71755   9.829  25.150   0.826
 6496W        W71756  30.953  30.690  14.759
 6497W        W71757  15.050  40.760  12.092
 6498W        W71758   5.619  38.469  14.811
 6499W        W71759  21.520   1.080  12.516
 6500W        W71760   0.918  28.503  14.462
 6501W        W71761  32.180  12.189   3.685
 6502W        W71762  26.909  34.465  14.993
 6503W        W71763  29.259  34.946   0.762
 6504W        W71764  22.848  28.983   2.895
 6505W        W71765  33.926  42.246  13.116
 6506W        W71766  29.917   1.006  10.732
 6507W        W71767  35.148  16.388   4.212
 6508W        W71768  44.263   8.460  10.200
 6509W        W71769  42.047  31.725   2.896
 6510W        W71770  36.262  15.104  14.070
 6511W        W71771  18.526  36.568   1.640
 6512W        W71772  19.149  33.601   1.821
 6513W        W71773  36.858  37.860  12.872
 6514W        W71774  13.377  44.814  11.677
 6515W        W71775  10.610  14.172  14.794
 6516W        W71776  19.839   0.839  14.274
 6517W        W71777   9.630  27.981  11.189
 6518W        W71778  24.681  25.462  14.495
 6519W        W71779  12.654  28.777  12.611
 6520W        W71780  23.756  44.281   3.851
 6521W        W71781  44.810   8.141  12.502
 6522W        W71782  41.520   8.716   0.337
 6523W        W71783  13.061  11.679   1.072
 6524W        W71784  30.033  15.798  12.935
 6525W        W71785  40.833  38.172  12.604
 6526W        W71786  16.621   5.202   0.638
 6527W        W71787  43.734   0.854   0.855
 6528W        W71788   7.984  16.570   1.018
 6529W        W71789  41.524  12.801   1.372
 6530W        W71790  27.385  17.577   0.904
 6531W        W71791  35.177  25.834  14.141
 6532W        W71792  36.773  43.327   3.182
 6533W        W71793  13.642   5.786  14.800
 6534W        W71794  16.384  41.896  13.402
 6535W        W71795  41.681  27.581   4.574
 6536W        W71796  20.265  20.030  14.881
 6537W        W71797  15.563  20.036  11.903
 6538W        W71798  21.139   0.516   3.674
 6539W        W71799  20.989  34.697  10.641
 6540W        W71800   4.892  15.305  10.732
 6541W        W71801  19.136   0.842  13.492
 6542W        W71802  37.879   3.046   0.759
 6543W        W71803  41.203  27.985   4.741
 6544W        W71804  21.464  20.057   3.801
 6545W        W71805  26.047  33.371  14.795
 6546W        W71806  44.621  26.993   1.084
 6547W        W71807   5.002  31.162   2.828
 6548W        W71808  15.200  12.688   4.584
 6549W        W71809  41.851  11.982  14.739
 6550W        W71810  25.947   6.806  13.503
 6551W        W71811   3.345  36.286  13.526
 6552W        W71812  29.218   9.809   0.999
 6553W        W71813  44.420  28.588   3.320
 6554W        W71814  43.760  23.540  13.154
 6555W        W71815   9.025  32.376  13.277
 6556W        W71816  30.105  18.875  12.482
 6557W        W71817  35.293  26.014   0.666
 6558W        W71818  28.156  37.392  11.917
 6559W        W71819   6.887  17.559  12.991
 6560W        W71820  15.785  14.795   1.384
 6561W        W71821   0.984  20.520   0.289
 6562W        W71822  30.641  13.305  11.153
 6563W        W71823   1.995   9.240   0.027
 6564W        W71824  34.969  35.264   4.228
 6565W        W71825  22.289  16.268   0.932
 6566W        W71826  11.763  29.165   2.893
 6567W        W71827  22.761   9.006   4.189
 6568W        W71828  28.339  32.598  14.775
 6569W        W71829  13.385  12.142   3.263
 6570W        W71830  18.099   0.956   1.323
 6571W        W71831  25.169  17.769   0.216
 6572W        W71832  23.046  34.738   5.412
 6573W        W71833  43.848   0.384  10.650
 6574W        W71834  40.951  41.747  10.715
 6575W        W71835  30.824  16.263   4.136
 6576W        W71836   7.840  11.382  12.958
 6577W        W71837  31.712   2.304  13.915
 6578W        W71838  43.929   6.882   3.742
 6579W        W71839   3.372  44.497  14.843
 6580W        W71840  40.348  34.023   4.438
 6581W        W71841  21.546  21.752  13.061
 6582W        W71842  21.752   5.878  10.962
 6583W        W71843  27.772  28.554  10.568
 6584W        W71844  32.710  19.515   3.675
 6585W        W71845  38.880  39.503  13.314
 6586W        W71846  42.507  31.997   3.399
 6587W        W71847  28.650  36.883   2.105
 6588W        W71848  27.861   1.816  10.870
 6589W        W71849  21.539  27.521  10.690
 6590W        W71850  29.412  12.379  14.891
 6591W        W71851  19.169  34.651   3.216
 6592W        W71852  34.288  25.695  12.522
 6593W        W71853  40.838  15.894   3.137
 6594W        W71854  36.045  33.209   3.828
 6595W        W71855   7.231  15.506   1.590
 6596W        W71856  15.848  39.466   2.632
 6597W        W71857  31.894   5.201   1.741
 6598W        W71858   9.785  10.733  10.302
 6599W        W71859  39.054  25.662   3.652
 6600W        W71860  40.315  24.016  13.316
 6601W        W71861  27.494  24.791  13.872
 6602W        W71862  24.135  22.767  11.120
 6603W        W71863   2.953  18.292  14.716
 6604W        W71864   7.536  15.732  13.868
 6605W        W71865  41.012  19.351  12.461
 6606W        W71866  39.081  11.986  13.020
 6607W        W71867  14.829  15.197  13.815
 6608W        W71868  43.033  15.146   2.805
 6609W        W71869   5.469  22.670  10.620
 6610W        W71870  13.865  43.534  14.749
 6611W        W71871  36.531  13.840  13.445
 6612W        W71872  36.719   7.513   2.187
 6613W        W71873  16.760   3.977  14.715
 6614W        W71874   5.177  10.949   0.916
 6615W        W71875  33.780  32.909   2.860
 6616W        W71876  28.437  26.721  12.732
 6617W        W71877  21.520  19.785  11.027
 6618W        W71878  24.138   0.885   2.554
 6619W        W71879  24.750   7.766   0.944
 6620W        W71880   7.439   9.426  11.367
 6621W        W71881  17.647   5.202  11.000
 6622W        W71882  10.891  11.354   2.275
 6623W        W71883  17.210  39.685   3.764
 6624W        W71884  36.533  20.228   3.853
 6625W        W71885  31.117   2.680  11.945
 6626W        W71886  40.382  40.480  14.926
 6627W        W71887  24.029  16.288   1.245
 6628W        W71888   8.324  30.613  11.551
 6629W        W71889  36.023  31.148   2.322
 6630W        W71890  19.505  37.795  12.867
 6631W        W71891  35.681  11.251  12.057
 6632W        W71892   5.759  39.276   0.376
 6633W        W71893  14.565  17.855   4.117
 6634W        W71894  12.342   6.741   1.709
 6635W        W71895  26.180   2.463  13.368
 6636W        W71896  15.821   5.524   1.233
 6637W        W71897  17.188  34.072   5.117
 6638W        W71898   0.394   7.899   0.233
 6639W        W71899  44.425  19.347   0.440
 6640W        W71900  12.892  17.486  12.993
 6641W        W71901  28.370  40.260  11.539
 6642W        W71902  19.225   9.421  14.411
 6643W        W71903  39.820  26.667   4.528
 6644W        W71904  29.076  12.860  13.294
 6645W        W71905  10.599  11.303  11.963
 6646W        W71906   8.855  24.347   3.285
 6647W        W71907  32.292  41.894  14.349
 6648W        W71908  22.006  27.065   1.306
 6649W        W71909   3.882   2.778  11.612
 6650W        W71910  32.822  37.705   1.333
 6651W        W71911  29.174  25.467   3.304
 6652W        W71912  35.795   2.360  13.270
 6653W        W71913  28.488  10.854  13.812
 6654W        W71914   3.912  36.472  12.003
 6655W        W71915   7.722  25.171   2.541
 6656W        W71916  26.431  21.766   0.806
 6657W        W71917  44.516  10.544  10.210
 6658W        W71918  14.355  23.273  11.559
 6659W        W71919  21.820  21.847  11.865
 6660W        W71920  42.003  33.622   2.535
 6661W        W71921   6.911  14.233  13.464
 6662W        W71922  40.546  37.042   4.661
 6663W        W71923  44.355  21.047  10.794
 6664W        W71924  44.983  15.369  12.452
 6665W        W71925  16.741  36.784   0.017
 6666W        W71926  23.880  17.759  13.062
 6667W        W71927  24.543  10.313   4.217
 6668W        W71928  19.115  42.233   4.282
 6669W        W71929  23.456  37.890  11.732
 6670W        W71930  15.842  25.182   4.128
 6671W        W71931  42.985  32.455  14.263
 6672W        W71932   6.947  26.675   3.729
 6673W        W71933   6.355  42.799  12.012
 6674W        W71934  31.082   3.612  10.538
 6675W        W71935  11.247  35.465   2.603
 6676W        W71936   4.772  39.798   0.423
 6677W        W71937  11.699  12.833  14.950
 6678W        W71938  20.806   1.004  14.775
 6679W        W71939  32.089  38.323   3.160
 6680W        W71940  12.217  25.447  10.908
 6681W        W71941  42.024  16.004  11.146
 6682W        W71942   8.883  33.705   4.183
 6683W        W71943  40.767  14.111  11.174
 6684W        W71944  28.181  30.132   4.682
 6685W        W71945  21.126  20.270  12.214
 6686W        W71946  27.233  11.054  14.304
 6687W        W71947  11.324  29.494   0.228
 6688W        W71948  41.312  25.666   0.394
 6689W        W71949   5.333  19.625   1.271
 6690W        W71950   6.196  25.654  14.603
 6691W        W71951  37.530  29.961  12.117
 6692W        W71952  13.080  13.683  12.065
 6693W        W71953  39.597  34.975   3.307
 6694W        W71954  10.028  22.686  12.091
 6695W        W71955  25.448  33.991   0.367
 6696W        W71956   5.955  40.014   2.578
 6697W        W71957  44.280   2.574  10.539
 6698W        W71958  37.011   3.926   4.492
 6699W        W71959  35.969  34.178  12.960
 6700W        W71960  10.313  43.802  10.670
 6701W        W71961  25.285  26.081   0.976
 6702W        W71962  43.647   2.080   1.351
 6703W        W71963  41.800  18.163  14.495
 6704W        W71964   5.707  13.039  13.032
 6705W        W71965  12.534  21.767   2.316
 6706W        W71966  39.227  10.772  11.578
 6707W        W71967  16.030  34.090   0.293
 6708W        W71968  31.223  11.164  10.741
 6709W        W71969  27.297   4.796  12.990
 6710W        W71970  14.274   7.388   3.194
 6711W        W71971   8.241   1.649  12.440
 6712W        W71972  13.024   8.635   0.749
 6713W        W71973  16.390  43.532   1.231
 6714W        W71974  19.705  17.645   0.479
 6715W        W71975  21.752  15.580   3.869
 6716W        W71976  28.142   6.211  14.906
 6717W        W71977  17.386  12.271   1.508
 6718W        W71978  40.244  10.143   2.797
 6719W        W71979  28.976  20.586  12.548
 6720W        W71980   3.039  18.849   2.246
 6721W        W71981  15.321  24.536  13.262
 6722W        W71982  17.757  31.945  13.936
 6723W        W71983   0.973   1.246   2.423
 6724W        W71984  39.346  15.265   3.358
 6725W        W71985  43.518  43.782   0.260
 6726W        W71986   0.835  36.306   3.733
 6727W        W71987  36.046  43.394   4.101
 6728W        W71988  33.839  21.186   2.195
 6729W        W71989  15.291  14.479   0.737
 6730W        W71990  30.790  44.486   2.712
 6731W        W71991  10.583  10.254   0.695
 6732W        W71992   4.417  35.532   4.782
 6733W        W71993  32.969  39.526   1.485
 6734W        W71994  40.937  29.692   3.262
 6735W        W71995  13.692   5.369  13.739
 6736W        W71996   4.743  13.364   1.787
 6737W        W71997  18.695  10.794  12.453
 6738W        W71998   2.350  27.577  14.252
 6739W        W71999  39.585  37.426  13.598
 6740W        W72000  11.666  43.486   4.333
 6741W        W72001  29.403  12.791  11.676
 6742W        W72002   2.347   4.773  12.069
 6743W        W72003  23.748  25.765   1.286
 6744W        W72004  36.058   6.100   3.815
 6745W        W72005   5.880  36.607  10.910
 6746W        W72006  21.686  14.935  13.496
 6747W        W72007  39.539  33.794   4.211
 6748W        W72008  13.240  12.134   4.157
 6749W        W72009   8.350  16.589  12.966
 6750W        W72010   9.847  22.763  13.472
 6751W        W72011  13.433  25.308  12.053
 6752W        W72012  34.950  39.585  11.646
 6753W        W72013   3.800  23.071   0.327
 6754W        W72014  33.956  12.132   4.923
 6755W        W72015  20.473  44.091  10.796
 6756W        W72016  43.368  29.289   1.407
 6757W        W72017  25.783  21.306  12.904
 6758W        W72018  24.629  11.200  11.717
 6759W        W72019  32.003   7.318   0.342
 6760W        W72020  25.091  23.923   0.522
 6761W        W72021  39.262  43.568  12.947
 6762W        W72022  39.325   9.058  13.209
 6763W        W72023  23.541  39.407   0.957
 6764W        W72024  26.528  35.392  12.445
 6765W        W72025  30.120  37.194  11.597
 6766W        W72026  20.220  14.874  13.488
 6767W        W72027  35.856  20.618   4.100
 6768W        W72028  16.040  10.478  14.615
 6769W        W72029  23.770   7.447   4.727
 6770W        W72030   4.177   0.503  14.717
 6771W        W72031   4.540   4.480  11.548
 6772W        W72032  35.815  31.400  11.926
 6773W        W72033   7.947  39.266   0.479
 6774W        W72034  42.738  22.493   2.367
 6775W        W72035  40.762  30.528   2.256
 6776W        W72036  21.605  22.049   1.442
 6777W        W72037   1.391  10.390  12.752
 6778W        W72038  22.744  30.640   0.826
 6779W        W72039  39.909  13.424  12.524
 6780W        W72040  36.822  12.647  14.817
 6781W        W72041  36.359  13.770   4.630
 6782W        W72042  31.928  35.411   4.517
 6783W        W72043  20.975  36.888   4.144
 6784W        W72044   8.493  13.022   3.683
 6785W        W72045   7.267  12.472  11.120
 6786W        W72046  27.683  27.886  12.121
 6787W        W72047   0.554  24.380  13.521
 6788W        W72048  18.179  10.826  14.488
 6789W        W72049  37.817  15.782  11.689
 6790W        W72050  44.918  17.270  14.564
 6791W        W72051  29.808   0.851   4.571
 6792W        W72052  19.508  13.311   2.304
 6793W        W72053  23.690  33.595  10.717
 6794W        W72054  16.493   2.688  11.455
 6795W        W72055  40.039  22.161  14.943
 6796W        W72056  31.213  40.905  13.079
 6797W        W72057  34.568  29.399   3.794
 6798W        W72058  17.875   9.595   2.880
 6799W        W72059  24.972  29.227   3.661
 6800W        W72060  43.472  42.810  14.920
 6801W        W72061  27.986  13.801   3.211
 6802W        W72062  43.635  44.315   1.313
 6803W        W72063   4.749  24.210  13.005
 6804W        W72064  35.384  30.151   1.949
 6805W        W72065  33.607  35.448  14.773
 6806W        W72066  13.285  33.706   1.766
 6807W        W72067   0.265  20.456  14.384
 6808W        W72068   9.720  37.866  12.335
 6809W        W72069  15.032   9.115  11.513
 6810W        W72070   0.648  13.725   4.016
 6811W        W72071  32.932  33.837  10.531
 6812W        W72072  36.303  34.238  11.535
 6813W        W72073  23.714  35.537  11.657
 6814W        W72074  43.550  32.801   1.176
 6815W        W72075  34.682  43.235   2.689
 6816W        W72076  37.833   4.140  10.641
 6817W        W72077  33.115   1.283  12.487
 6818W        W72078  23.722  10.136   3.644
 6819W        W72079  27.007   4.945   1.838
 6820W        W72080   2.663   3.421   4.835
 6821W        W72081  18.083   2.298   2.321
 6822W        W72082  42.913  36.336  12.615
 6823W        W72083  37.532   6.350   2.275
 6824W        W72084  22.203  28.432   2.893
 6825W        W72085   1.748  25.485  12.796
 6826W        W72086  17.207   3.407  14.058
 6827W        W72087   2.548   6.342   1.923
 6828W        W72088   6.174   5.681   0.454
 6829W        W72089  35.180  23.810  10.147
 6830W        W72090  34.991  28.157  11.962
 6831W        W72091  14.315  41.410   3.340
 6832W        W72092  37.053  27.428   1.173
 6833W        W72093  24.754  13.498   1.325
 6834W        W72094  32.396   3.428  12.393
 6835W        W72095  24.319  44.832   1.341
 6836W        W72096  23.619  44.961  13.219
 6837W        W72097  15.644  10.690   3.689
 6838W        W72098  29.766   4.320   1.312
 6839W        W72099  31.476  32.577  13.378
 6840W        W72100  41.691  20.540  14.370
 6841W        W72101   1.708  35.527   4.718
 6842W        W72102  40.340  18.303  13.972
 6843W        W72103  37.045  10.619  11.030
 6844W        W72104  21.048  12.088  13.611
 6845W        W72105   2.434   8.958  11.612
 6846W        W72106  13.152  40.245  14.737
 6847W        W72107   6.685  37.539  14.293
 6848W        W72108  33.569  23.200   4.075
 6849W        W72109  35.518  28.624   0.257
 6850W        W72110  39.608   3.773  13.578
 6851W        W72111  12.748   5.188   1.424
 6852W        W72112  44.805  27.503   3.243
 6853W        W72113  15.651  43.898  14.495
 6854W        W72114  39.104  28.043  11.907
 6855W        W72115  16.803  18.632  10.281
 6856W        W72116   9.782   9.870   2.017
 6857W        W72117  18.579  27.386  11.998
 6858W        W72118   8.055  26.119   0.440
 6859W        W72119  31.451  30.589   2.023
 6860W        W72120   2.061  23.441   1.199
 6861W        W72121   1.060   7.221   3.702
 6862W        W72122  29.555  35.221   4.103
 6863W        W72123   8.282   1.074  13.922
 6864W        W72124   0.480  14.787   1.850
 6865W        W72125  35.449  40.306   0.198
 6866W        W72126   4.099  14.097   1.236
 6867W        W72127  12.776  36.884   3.031
 6868W        W72128  12.332  41.936   4.587
 6869W        W72129   7.505  41.590   0.910
 6870W        W72130  43.955  23.760   1.845
 6871W        W72131  12.269  32.568   2.459
 6872W        W72132   7.200   4.815  10.708
 6873W        W72133   1.073  10.332   3.201
 6874W        W72134  39.296  38.820  12.025
 6875W        W72135  29.347   2.921   4.333
 6876W        W72136  42.561  21.912  12.632
 6877W        W72137  37.887   5.049   1.043
 6878W        W72138  27.426  31.993  10.802
 6879W        W72139  40.969   1.030   3.152
 6880W        W72140  42.576  24.615  12.542
 6881W        W72141  25.628  30.569  11.241
 6882W        W72142  15.469  37.598  12.023
 6883W        W72143   7.687  42.568  11.004
 6884W        W72144  40.782  20.253  10.643
 6885W        W72145  19.313   0.841   1.796
 6886W        W72146  12.146   4.968  11.098
 6887W        W72147  33.192  34.052  12.899
 6888W        W72148   0.306  15.167   0.452
 6889W        W72149  17.586  39.866   0.534
 6890W        W72150  15.394  36.982   1.839
 6891W        W72151  30.200  17.366  14.994
 6892W        W72152  12.333   3.749   3.619
 6893W        W72153  33.628  25.416   0.201
 6894W        W72154  15.166  37.066   2.339
 6895W        W72155   5.999   0.065   2.283
 6896W        W72156  37.021  15.244  14.321
 6897W        W72157  11.191  41.981   3.024
 6898W        W72158  32.923  37.989   4.230
 6899W        W72159  40.450  13.557  10.669
 6900W        W72160  32.035  14.355  13.499
 6901W        W72161  15.350   5.288  12.168
 6902W        W72162  14.585   6.678   2.393
 6903W        W72163  11.641   3.894   4.868
 6904W        W72164  24.689   2.784   1.742
 6905W        W72165  32.111  27.588   4.477
 6906W        W72166  10.297  13.854   3.755
 6907W        W72167  33.933   1.337   4.253
 6908W        W72168  10.091  23.036  11.360
 6909W        W72169   3.697   3.083   3.256
 6910W        W72170  44.741  28.494  13.805
 6911W        W72171   3.925  28.386  11.215
 6912W        W72172   0.973  25.569   2.682
 6913W        W72173  21.559   0.583  12.399
 6914W        W72174  15.055  42.112   2.868
 6915W        W72175  33.021  17.317   0.901
 6916W        W72176   8.625  23.680  14.357
 6917W        W72177   3.278  38.041  13.357
 6918W        W72178  10.131  10.121   3.698
 6919W        W72179  36.149   7.860  11.997
 6920W        W72180   9.465   2.834  10.994
 6921W        W72181  28.623  22.874  13.991
 6922W        W72182   1.927  44.681   0.772
 6923W        W72183  14.185  31.147   2.672
 6924W        W72184  14.909   5.964  14.740
 6925W        W72185  19.039  36.511  14.565
 6926W        W72186  32.370   6.665   1.716
 6927W        W72187  34.461  23.959   3.708
 6928W        W72188  39.287  35.075  10.298
 6929W        W72189  40.207   4.353  13.843
 6930W        W72190  34.116   5.323  10.868
 6931W        W72191  11.720   7.427   4.025
 6932W        W72192  11.850  33.237  13.053
 6933W        W72193   4.565  14.114   2.846
 6934W        W72194  12.224  25.484   4.250
 6935W        W72195  29.332  15.752   3.763
 6936W        W72196  17.273   4.377   3.195
 6937W        W72197  36.083   0.498  12.970
 6938W        W72198   5.447  40.035  14.952
 6939W        W72199  42.977  18.922   1.612
 6940W        W72200  15.158  23.825  10.656
 6941W        W72201  13.352  20.603   4.843
 6942W        W72202  37.926  31.127   4.282
 6943W        W72203  17.646  23.048  10.932
 6944W        W72204  12.196  36.909   1.766
 6945W        W72205   8.958  19.195  11.990
 6946W        W72206  43.914   9.482  13.120
 6947W        W72207   4.727   3.372  12.290
 6948W        W72208  37.823  33.621  14.252
 6949W        W72209  26.465   1.816  11.987
 6950W        W72210  34.182  24.087  12.209
 6951W        W72211  38.342   3.446   2.175
 6952W        W72212  40.884   2.840  14.296
 6953W        W72213   7.870  37.974  12.623
 6954W        W72214  34.173  29.125   1.337
 6955W        W72215  12.640  39.592   0.813
 6956W        W72216  12.213  35.483   4.598
 6957W        W72217  44.371   9.919  10.719
 6958W        W72218  41.742  13.351  13.808
 6959W        W72219   4.335  44.302   2.046
 6960W        W72220  30.176  10.399  10.051
 6961W        W72221   3.311  38.070  12.466
 6962W        W72222  29.473  11.856  11.544
 6963W        W72223  21.155  16.766   3.682
 6964W        W72224   5.390  23.263   4.433
 6965W        W72225  30.344  30.710   2.694
 6966W        W72226  42.093  16.328  13.591
 6967W        W72227  36.967  40.334  12.476
 6968W        W72228  19.920   1.997  10.356
 6969W        W72229  36.871  31.123   3.712
 6970W        W72230  34.049  10.639  13.516
 6971W        W72231  44.807  31.420   4.241
 6972W        W72232  21.776  17.338  13.890
 6973W        W72233  41.399  34.760   3.437
 6974W        W72234  11.316  38.768   2.244
 6975W        W72235  23.526  26.649   4.594
 6976W        W72236  42.281   4.807   1.785
 6977W        W72237  25.988  39.724  12.384
 6978W        W72238   9.360  24.243   3.362
 6979W        W72239  36.865  22.112  14.244
 6980W        W72240   4.037  18.247  13.423
 6981W        W72241   9.812  36.941  12.384
 6982W        W72242  29.270  13.613  10.682
 6983W        W72243   7.224  17.305   1.866
 6984W        W72244  34.699   7.013   2.764
 6985W        W72245   4.191  32.347   4.570
 6986W        W72246  24.021  37.584  14.291
 6987W        W72247  32.479  19.793   1.508
 6988W        W72248  34.379   1.100   5.369
 6989W        W72249  32.399  15.360  13.087
 6990W        W72250  30.494   9.765   0.355
 6991W        W72251  43.258  18.177  11.972
 6992W        W72252   6.142  35.697   0.164
 6993W        W72253  35.987  39.442   3.863
 6994W        W72254  20.616  30.450   3.299
 6995W        W72255  34.979   6.339  12.819
 6996W        W72256  42.343  35.878   3.601
 6997W        W72257  12.175  43.016  10.672
 6998W        W72258  25.508  37.306  11.990
 6999W        W72259  34.458  12.174   0.935
 7000W        W72260   0.953  17.143  12.453
 7001W        W72261  26.500   1.998   1.258
 7002W        W72262  13.833   7.479   2.451
 7003W        W72263  24.507  26.167   3.744
 7004W        W72264  21.734  24.019  13.557
 7005W        W72265  16.974  42.400  11.534
 7006W        W72266   0.882  14.279   3.202
 7007W        W72267  22.639  37.619   2.452
 7008W        W72268  39.654   3.425  13.964
 7009W        W72269  30.848  41.446   5.001
 7010W        W72270  22.544  18.873   1.786
 7011W        W72271  22.102  14.677   4.917
 7012W        W72272  10.894   6.310   0.823
 7013W        W72273  38.325  20.430  13.544
 7014W        W72274   3.642  12.235   1.352
 7015W        W72275  20.519  24.780   0.869
 7016W        W72276  15.314   0.033  13.914
 7017W        W72277   8.613  29.220   2.565
 7018W        W72278  21.341  24.412   2.339
 7019W        W72279   8.722   7.510  10.548
 7020W        W72280  23.443  43.919  12.973
 7021W        W72281  14.129  17.750   1.859
 7022W        W72282  21.811  19.916   2.816
 7023W        W72283  31.925   7.404  11.688
 7024W        W72284   7.142  28.341  14.408
 7025W        W72285  32.568  11.189  10.538
 7026W        W72286   1.437  22.425   2.953
 7027W        W72287  39.421  33.883  14.352
 7028W        W72288   7.177  31.576   4.587
 7029W        W72289   4.903  28.393  14.768
 7030W        W72290   2.767   8.852   3.296
 7031W        W72291  30.022  17.094  11.415
 7032W        W72292  21.479  19.561   9.862
 7033W        W72293   9.641   8.767  10.757
 7034W        W72294  28.581  13.391   0.762
 7035W        W72295  37.545  36.773  13.550
 7036W        W72296  20.606  35.940   9.711
 7037W        W72297  44.149  38.510  12.321
 7038W        W72298  43.066  30.663   3.782
 7039W        W72299  29.351  20.034  12.015
 7040W        W72300  20.224   8.345  10.461
 7041W        W72301  38.984  26.917  12.951
 7042W        W72302  43.982  25.281  14.349
 7043W        W72303  39.605   9.724  12.603
 7044W        W72304  32.294  23.644   0.157
 7045W        W72305  27.221   2.776  11.936
 7046W        W72306  14.069  21.308   1.505
 7047W        W72307  37.149  23.082   0.279
 7048W        W72308   2.667  22.280  12.555
 7049W        W72309  32.081  40.947   0.668
 7050W        W72310   6.299  33.365  10.692
 7051W        W72311  35.116  15.805   2.258
 7052W        W72312  38.775  42.875  11.569
 7053W        W72313  39.935  23.754  14.360
 7054W        W72314  36.876   7.622  11.586
 7055W        W72315  39.888  11.365   2.327
 7056W        W72316  26.669   9.204  13.413
 7057W        W72317   0.199  18.509   5.050
 7058W        W72318  38.487  40.886   0.836
 7059W        W72319  20.560  14.656  10.901
 7060W        W72320   1.216  21.098  13.076
 7061W        W72321  35.914   5.386  14.955
 7062W        W72322  34.925   3.442   3.661
 7063W        W72323  34.361  16.265   0.727
 7064W        W72324  40.516  38.929  10.326
 7065W        W72325  32.861  16.214   1.385
 7066W        W72326  12.742   1.971  11.857
 7067W        W72327  16.273  28.951   2.027
 7068W        W72328  15.239  42.610  12.660
 7069W        W72329  32.209   5.742  10.284
 7070W        W72330  21.226  21.938  12.659
 7071W        W72331   6.590  39.064  10.769
 7072W        W72332  40.873  30.384  12.298
 7073W        W72333   2.445  38.382  14.043
 7074W        W72334  10.316  42.338   1.502
 7075W        W72335  25.246  20.575   4.635
 7076W        W72336  17.092  36.684  12.285
 7077W        W72337  23.233  35.968   2.199
 7078W        W72338  17.080  22.307  14.941
 7079W        W72339   5.652  24.460   3.841
 7080W        W72340  19.005  40.828   1.704
 7081W        W72341  34.967  12.620  13.849
 7082W        W72342  21.672  40.480   2.222
 7083W        W72343  11.062  27.225  14.959
 7084W        W72344   1.384  42.768  14.785
 7085W        W72345  42.440  27.958  10.637
 7086W        W72346  11.421  24.206   1.730
 7087W        W72347   8.143  32.023   0.011
 7088W        W72348  24.634   0.454  11.890
 7089W        W72349  36.403  20.812  14.398
 7090W        W72350   1.949  16.309   2.134
 7091W        W72351  41.526  25.142  11.824
 7092W        W72352  42.670  29.574  11.478
 7093W        W72353  42.515  24.689   1.623
 7094W        W72354  33.969  43.468   2.340
 7095W        W72355  41.356   7.225   0.878
 7096W        W72356   3.446  24.509  14.923
 7097W        W72357  32.294  29.233  12.016
 7098W        W72358  21.651   8.353  12.911
 7099W        W72359  20.039  10.793   2.124
 7100W        W72360  11.355  14.727   2.233
 7101W        W72361  44.097  40.272  11.931
 7102W        W72362   7.313  35.966  11.374
 7103W        W72363  33.654   3.767  12.597
 7104W        W72364  42.065   5.669   1.466
 7105W        W72365  27.307  21.742  12.921
 7106W        W72366  11.048   0.599   1.258
 7107W        W72367  10.690  44.871   2.624
 7108W        W72368   4.237  27.502  13.423
 7109W        W72369  43.890  24.993   2.348
 7110W        W72370   2.533   5.736  12.549
 7111W        W72371  29.064  35.024   4.002
 7112W        W72372   1.739  24.990   4.119
 7113W        W72373  39.338  31.426  12.514
 7114W        W72374  37.348  39.669   2.497
 7115W        W72375   1.645   9.644  13.933
 7116W        W72376  33.634  34.572   5.053
 7117W        W72377  41.480  18.652  10.668
 7118W        W72378  24.507  26.055  14.243
 7119W        W72379  11.723  42.188   4.136
 7120W        W72380  34.324  28.431  14.136
 7121W        W72381  43.536  39.285   4.308
 7122W        W72382  33.909  11.114  13.696
 7123W        W72383  25.659  32.170  14.344
 7124W        W72384   7.931  36.385   3.228
 7125W        W72385  33.875  38.995   3.716
 7126W        W72386  43.480   1.265  11.409
 7127W        W72387  21.737  39.858   0.818
 7128W        W72388   9.396   2.783   2.904
 7129W        W72389  37.980  39.280  11.563
 7130W        W72390  23.562  28.658   2.225
 7131W        W72391  34.866   4.442  12.073
 7132W        W72392   1.049  27.103  14.552
 7133W        W72393  13.701  22.035  11.498
 7134W        W72394  44.345  17.237  11.426
 7135W        W72395  44.178   2.438  13.453
 7136W        W72396  32.553  18.163   0.761
 7137W        W72397  31.391  34.404   1.184
 7138W        W72398  17.127  30.673  10.144
 7139W        W72399   7.718   3.755   4.252
 7140W        W72400   4.916  37.524   2.783
 7141W        W72401   5.817  25.646  11.829
 7142W        W72402  38.931  23.914   1.132
 7143W        W72403   4.946   1.544   3.772
 7144W        W72404   6.218  13.879  11.527
 7145W        W72405  30.295  16.307   4.139
 7146W        W72406  42.519   5.784   1.900
 7147W        W72407  13.276  26.922   4.294
 7148W        W72408   5.823  20.409   0.387
 7149W        W72409  20.708  43.895  12.592
 7150W        W72410  37.925   6.422   0.458
 7151W        W72411  25.773  31.950  10.639
 7152W        W72412  17.102   8.795   5.110
 7153W        W72413  25.360  17.124   2.793
 7154W        W72414  33.829  32.666  14.347
 7155W        W72415   9.601   4.924   0.865
 7156W        W72416  41.088  25.142   0.811
 7157W        W72417  32.035  31.501  10.233
 7158W        W72418  28.388  44.106  13.870
 7159W        W72419   9.735  30.670   0.412
 7160W        W72420  40.405  15.153   4.067
 7161W        W72421  31.377  30.429   3.632
 7162W        W72422  23.178   0.927   4.314
 7163W        W72423  23.115   7.704   1.978
 7164W        W72424  35.570   5.872   1.936
 7165W        W72425  18.490   9.703   4.974
 7166W        W72426  39.111  21.600   0.554
 7167W        W72427   3.121  11.319  10.300
 7168W        W72428   6.449  44.062  11.334
 7169W        W72429   7.076   4.245   2.655
 7170W        W72430  43.873   8.681   4.386
 7171W        W72431   9.091  10.036   5.127
 7172W        W72432  16.852   8.918  11.998
 7173W        W72433  43.275  37.232   4.104
 7174W        W72434  41.587   1.251  12.407
 7175W        W72435  31.493  42.576   1.897
 7176W        W72436  38.006  37.092  12.844
 7177W        W72437  42.783  43.240  13.094
 7178W        W72438  26.947  20.029  12.556
 7179W        W72439  41.901  24.900  12.065
 7180W        W72440   2.917  40.276  12.184
 7181W        W72441  35.483  37.461  10.765
 7182W        W72442  39.290  15.368  10.911
 7183W        W72443  43.325  39.408   2.708
 7184W        W72444  31.337   0.529  10.792
 7185W        W72445   4.992  38.820   1.180
 7186W        W72446   6.438  31.026   2.628
 7187W        W72447  27.191  26.629   4.174
 7188W        W72448   4.955  30.081  13.864
 7189W        W72449  20.160   2.286  14.884
 7190W        W72450   2.409  18.681  13.851
 7191W        W72451  44.073  17.558   0.491
 7192W        W72452  10.913   2.856   2.756
 7193W        W72453  33.220  21.783  14.320
 7194W        W72454  39.310  40.378   2.088
 7195W        W72455  41.567   8.756   2.214
 7196W        W72456  29.620  43.726   1.688
 7197W        W72457  12.149  28.394   3.313
 7198W        W72458   8.568   5.727   2.252
 7199W        W72459  40.019   1.033   0.472
 7200W        W72460   1.201  32.605   3.688
 7201W        W72461  33.029  37.515  14.822
 7202W        W72462  23.487   4.766  14.925
 7203W        W72463  38.545  16.786  14.592
 7204W        W72464   3.695  22.974   3.625
 7205W        W72465  33.554  31.389   1.248
 7206W        W72466  21.629  43.760   1.262
 7207W        W72467  11.903  35.857  14.800
 7208W        W72468  29.111  19.276  13.246
 7209W        W72469  38.101  17.606   2.695
 7210W        W72470  18.066  28.520   3.287
 7211W        W72471  17.578  34.532   3.384
 7212W        W72472  20.365  32.108  11.004
 7213W        W72473   2.397  15.154  14.381
 7214W        W72474  43.551  19.158   3.730
 7215W        W72475  41.594  22.083  11.148
 7216W        W72476  19.548   4.526   3.665
 7217W        W72477  15.068   0.663   2.737
 7218W        W72478  15.106  22.250   1.994
 7219W        W72479   4.806  13.358   3.295
 7220W        W72480  42.435  15.139  12.880
 7221W        W72481  17.110   1.915  10.739
 7222W        W72482  31.712  27.969  10.718
 7223W        W72483  28.064  34.223   1.344
 7224W        W72484  33.426  20.674  11.668
 7225W        W72485  15.087  17.881  11.697
 7226W        W72486  22.479  31.148  14.321
 7227W        W72487  44.036  14.697  11.299
 7228W        W72488  20.559   1.528  13.963
 7229W        W72489  21.568  23.067   1.419
 7230W        W72490  21.044  41.133  12.068
 7231W        W72491   8.891  25.590   1.916
 7232W        W72492  16.528   5.240  13.789
 7233W        W72493   5.811  44.490   1.037
 7234W        W72494   8.934   6.908   2.339
 7235W        W72495  37.821  25.136  11.129
 7236W        W72496  15.731   5.663   4.529
 7237W        W72497  12.319   0.979  14.163
 7238W        W72498  40.376  41.344   3.990
 7239W        W72499  26.188  22.092   4.194
 7240W        W72500   1.733  15.676   4.869
 7241W        W72501  28.208  44.936  10.014
 7242W        W72502  40.030  29.215  12.144
 7243W        W72503  29.442  25.658  12.461
 7244W        W72504  31.067  32.621   1.264
 7245W        W72505  29.371  11.420   1.604
 7246W        W72506  16.327  12.608   0.015
 7247W        W72507  15.787   2.422  10.588
 7248W        W72508  35.560  38.913  12.511
 7249W        W72509  16.352   3.291   1.350
 7250W        W72510  40.452  21.606   4.311
 7251W        W72511  39.572  13.110  13.344
 7252W        W72512  19.661  12.481   3.780
 7253W        W72513  29.513  37.902   3.263
 7254W        W72514  38.035  44.822  14.272
 7255W        W72515  39.478   0.912  11.134
 7256W        W72516   4.655  19.008   4.966
 7257W        W72517  10.225  19.706  10.578
 7258W        W72518  23.340  12.213   3.153
 7259W        W72519  23.965  14.782   4.060
 7260W        W72520  25.899  17.591  12.446
 7261W        W72521  41.667  34.100  14.481
 7262W        W72522  28.524  28.423  12.083
 7263W        W72523   8.907  20.631  10.772
 7264W        W72524   4.495  22.743  14.920
 7265W        W72525  43.724   9.797  14.118
 7266W        W72526  39.095   0.822  11.552
 7267W        W72527  36.946   8.814   1.823
 7268W        W72528  19.366  30.187  14.227
 7269W        W72529  29.036  20.650  13.608
 7270W        W72530  26.933  43.561  10.969
 7271W        W72531  21.587  43.897   3.095
 7272W        W72532   7.814  37.002   1.710
 7273W        W72533  37.925  36.346   3.195
 7274W        W72534  23.083  21.460   0.290
 7275W        W72535  24.246  29.219   1.184
 7276W        W72536  15.326  15.694   0.406
 7277W        W72537  32.829  24.226   4.526
 7278W        W72538  25.091  44.190  11.749
 7279W        W72539  27.395   6.778   1.871
 7280W        W72540  20.039  30.942  12.367
 7281W        W72541   9.507  10.093   2.425
 7282W        W72542   3.182  26.126  13.041
 7283W        W72543  16.208  39.369  12.584
 7284W        W72544   0.917  23.522  12.593
 7285W        W72545  25.272   4.273  10.710
 7286W        W72546   4.473  21.686  14.243
 7287W        W72547   2.663   1.357  13.288
 7288W        W72548  37.397   0.654   2.874
 7289W        W72549  14.231  33.850   1.859
 7290W        W72550  24.729  12.678   2.517
 7291W        W72551   5.740   6.382  14.006
 7292W        W72552  33.537  29.641   3.254
 7293W        W72553  14.243  11.610   1.292
 7294W        W72554  17.809  23.591  13.768
 7295W        W72555  17.382  33.431  14.291
 7296W        W72556  36.915  44.370  10.264
 7297W        W72557   6.493  40.841  12.008
 7298W        W72558  38.872  30.586   2.404
 7299W        W72559   7.835  19.071  11.455
 7300W        W72560   0.780  28.413  13.908
 7301W        W72561   6.838  26.653   2.780
 7302W        W72562  21.643  27.757   0.923
 7303W        W72563  19.811   7.392  13.965
 7304W        W72564  14.460  12.385   0.254
 7305W        W72565  16.525  41.990   0.910
 7306W        W72566  35.893   9.775  12.723
 7307W        W72567   1.985   0.964  13.649
 7308W        W72568  10.298  38.335   4.143
 7309W        W72569  35.121  23.754  14.802
 7310W        W72570  34.561  24.684  12.966
 7311W        W72571  37.983  29.784   1.694
 7312W        W72572   1.734   3.941  13.362
 7313W        W72573  44.933  44.999   0.348
 7314W        W72574  11.737  40.840   3.401
 7315W        W72575  38.461  34.121  14.341
 7316W        W72576   1.426  30.091  13.429
 7317W        W72577  34.983  32.437  14.705
 7318W        W72578  23.144  22.143  14.010
 7319W        W72579  35.389  35.438   3.345
 7320W        W72580  20.063  15.931  10.983
 7321W        W72581  19.235  27.072   1.365
 7322W        W72582  24.653  40.057   0.787
 7323W        W72583  23.579   6.085   4.939
 7324W        W72584  42.728   2.394   3.228
 7325W        W72585  41.754  44.112  14.424
 7326W        W72586  20.722  39.425   0.379
 7327W        W72587  32.089  22.652  14.318
 7328W        W72588  20.395  35.045   4.781
 7329W        W72589  34.751  15.968  12.883
 7330W        W72590  15.917  11.883   2.710
 7331W        W72591  13.329   5.244   2.696
 7332W        W72592  33.884  42.885  14.374
 7333W        W72593   4.992  24.780  11.103
 7334W        W72594  41.892   7.780  14.859
 7335W        W72595  42.024  28.510   3.677
 7336W        W72596  22.505  34.889   2.153
 7337W        W72597  13.683  10.282   0.774
 7338W        W72598   8.622  23.868  13.498
 7339W        W72599  17.773  10.847  11.567
 7340W        W72600  20.113  21.250  12.147
 7341W        W72601  22.697  27.528   3.652
 7342W        W72602  16.693   0.791  11.208
 7343W        W72603  29.095  29.567  14.687
 7344W        W72604  41.990  12.882  14.960
 7345W        W72605   3.301   7.066  13.873
 7346W        W72606  38.596  18.076   0.627
 7347W        W72607   1.347  12.730   0.683
 7348W        W72608  44.912  33.439   0.226
 7349W        W72609  19.313   0.263   1.286
 7350W        W72610  34.596  42.948   3.180
 7351W        W72611  44.815  21.038  13.931
 7352W        W72612  26.472  39.266  11.898
 7353W        W72613   9.208   8.061  12.429
 7354W        W72614   3.474  33.999  10.920
 7355W        W72615  33.956  27.680  14.496
 7356W        W72616   7.838  18.296   3.199
 7357W        W72617  12.231  21.968  12.082
 7358W        W72618  32.679  37.423   4.308
 7359W        W72619  10.901   1.375  12.904
 7360W        W72620  22.671  14.423  14.372
 7361W        W72621  36.889   1.790   1.306
 7362W        W72622  39.536  35.023  13.395
 7363W        W72623  16.225  36.354   0.305
 7364W        W72624   7.739  36.568   4.223
 7365W        W72625  30.267  34.910   0.968
 7366W        W72626  12.197  39.161   2.494
 7367W        W72627   6.898  29.643   3.212
 7368W        W72628   9.197   6.878   1.434
 7369W        W72629  40.609  20.989   3.649
 7370W        W72630  17.869  29.399  14.502
 7371W        W72631  35.378   0.569  12.693
 7372W        W72632  22.724   3.260  12.975
 7373W        W72633   1.931  31.366  11.628
 7374W        W72634  43.420  41.731   1.614
 7375W        W72635   4.254  40.041  11.581
 7376W        W72636  29.207  42.364   1.795
 7377W        W72637  25.996  36.457  10.653
 7378W        W72638  25.613  23.177  14.150
 7379W        W72639  16.910   2.423  13.109
 7380W        W72640  38.330  30.948  13.996
 7381W        W72641   1.658  36.982  11.161
 7382W        W72642  20.016  13.636   1.622
 7383W        W72643  21.519   0.883   3.674
 7384W        W72644  37.890  13.624   1.102
 7385W        W72645   6.211  14.339  14.116
 7386W        W72646  29.080  10.586  11.280
 7387W        W72647  35.105  14.055   1.407
 7388W        W72648  22.353  26.197   1.167
 7389W        W72649   0.744   0.062   1.960
 7390W        W72650  42.801  17.620   3.002
 7391W        W72651  28.993  14.715  11.199
 7392W        W72652  31.185   8.880  11.169
 7393W        W72653   4.374  31.571   2.345
 7394W        W72654  34.797  13.490   0.276
 7395W        W72655  17.776   0.278   0.288
 7396W        W72656  26.449  14.157  11.561
 7397W        W72657   2.000   8.791  11.844
 7398W        W72658   6.278  27.562   2.877
 7399W        W72659  44.823  38.495   3.186
 7400W        W72660  43.580  31.398  11.822
 7401W        W72661  33.946  11.296  11.497
 7402W        W72662  25.584  34.338   3.341
 7403W        W72663  31.668  13.252   4.602
 7404W        W72664   6.004   6.394   3.466
 7405W        W72665  40.824   0.770   3.975
 7406W        W72666   2.777   2.695   3.363
 7407W        W72667   6.683   0.903  12.556
 7408W        W72668  28.687  19.239  14.562
 7409W        W72669  11.814  28.410   1.827
 7410W        W72670  22.667   8.880  14.902
 7411W        W72671   4.895  33.505   0.352
 7412W        W72672  44.216  38.633  11.028
 7413W        W72673  31.404  17.862   2.338
 7414W        W72674  19.362  13.615  11.173
 7415W        W72675  25.126  40.779   0.223
 7416W        W72676  28.909  25.912   3.275
 7417W        W72677  31.123  22.618   1.444
 7418W        W72678  35.070  25.198   4.137
 7419W        W72679  43.674   3.871   2.323
 7420W        W72680  21.458  29.057   1.798
 7421W        W72681  17.795  42.351  11.938
 7422W        W72682  33.099  23.492   0.472
 7423W        W72683  21.056  11.073  11.519
 7424W        W72684  33.214  39.050  13.711
 7425W        W72685  42.068  17.006  10.334
 7426W        W72686  35.898   4.155  11.852
 7427W        W72687  25.629  12.567   3.217
 7428W        W72688   7.799  12.856   1.274
 7429W        W72689  43.482  38.836   3.395
 7430W        W72690  22.571   7.915  13.318
 7431W        W72691  31.857  25.016   3.939
 7432W        W72692  20.761  20.145  14.768
 7433W        W72693  13.611  23.970  13.332
 7434W        W72694   2.438  24.772  14.010
 7435W        W72695   2.935  44.199   2.294
 7436W        W72696  29.355  14.801   3.272
 7437W        W72697  43.599  14.648   2.477
 7438W        W72698  20.414  36.918   4.514
 7439W        W72699   0.895   1.167   0.252
 7440W        W72700   8.380  36.331   0.873
 7441W        W72701   6.864   6.431  14.023
 7442W        W72702  12.466   3.803   1.285
 7443W        W72703  30.560  32.806  11.579
 7444W        W72704  29.092   4.758  14.272
 7445W        W72705  27.646  26.655  12.786
 7446W        W72706   6.647  22.042  13.012
 7447W        W72707  35.219  10.957   2.726
 7448W        W72708  33.466  40.888  14.755
 7449W        W72709  44.009  19.267  11.850
 7450W        W72710   5.328   2.235  12.045
 7451W        W72711  38.394   2.286  14.727
 7452W        W72712  40.035   1.541   0.468
 7453W        W72713  40.353   0.535  13.607
 7454W        W72714  19.263   5.237  13.997
 7455W        W72715  41.037  24.406  11.551
 7456W        W72716  39.857  28.609  13.989
 7457W        W72717  15.050  23.022  12.585
 7458W        W72718   1.885  37.976  14.803
 7459W        W72719  11.835  22.329  11.219
 7460W        W72720  44.612  39.397  13.485
 7461W        W72721  11.698  23.263  13.785
 7462W        W72722  34.234  27.530   3.839
 7463W        W72723  21.260   9.100  13.066
 7464W        W72724  17.152  27.680   3.661
 7465W        W72725  21.103  18.167   3.384
 7466W        W72726  25.238  19.786   4.705
 7467W        W72727   9.648   6.971  12.972
 7468W        W72728  16.064   6.271   2.124
 7469W        W72729  25.090   7.346  11.622
 7470W        W72730  30.005   4.679   1.800
 7471W        W72731  25.554  19.454   0.165
 7472W        W72732  15.136   9.709   0.219
 7473W        W72733  28.663   2.258   1.290
 7474W        W72734  15.678  27.216  13.994
 7475W        W72735   3.419   6.656   2.835
 7476W        W72736  30.506  43.843   2.267
 7477W        W72737   2.591  18.196  13.892
 7478W        W72738  25.302  13.441   4.916
 7479W        W72739  35.847   1.803   2.311
 7480W        W72740  17.133  43.414  11.562
 7481W        W72741  43.483  32.740   1.680
 7482W        W72742  17.584  43.929   3.263
 7483W        W72743  11.384  21.658   4.630
 7484W        W72744   7.870  14.728  14.958
 7485W        W72745  22.072  27.488  12.106
 7486W        W72746  38.784  16.451   0.562
 7487W        W72747  11.349  12.780   1.794
 7488W        W72748  44.975   7.820   3.492
 7489W        W72749  30.538   5.307  13.879
 7490W        W72750  39.014  15.923   2.427
 7491W        W72751   9.696  11.204   1.656
 7492W        W72752  17.777  41.460  14.959
 7493W        W72753  27.291  41.845  14.364
 7494W        W72754  26.672   7.613  11.994
 7495W        W72755  29.337  19.238  11.350
 7496W        W72756  14.077  21.143  11.724
 7497W        W72757  39.510  32.101   4.600
 7498W        W72758   7.752  30.710  13.176
 7499W        W72759  27.110   8.392  13.902
 7500W        W72760  25.152   6.812  14.576
 7501W        W72761  44.847   9.721  13.239
 7502W        W72762   3.683  15.872   0.244
 7503W        W72763  23.860  28.498  13.480
 7504W        W72764   9.600  34.204  10.637
 7505W        W72765   9.760  30.631  14.413
 7506W        W72766  13.875  13.248   0.952
 7507W        W72767   3.992  34.023  10.904
 7508W        W72768  34.134  41.331  14.420
 7509W        W72769  34.050  33.557  11.565
 7510W        W72770   9.236  19.773   4.515
 7511W        W72771   7.652  22.206  13.756
 7512W        W72772  30.474  19.513  14.890
 7513W        W72773   3.902  37.963  14.565
 7514W        W72774   8.874  18.200  12.623
 7515W        W72775  39.578   7.617  14.834
 7516W        W72776  23.222  17.358  10.819
 7517W        W72777   5.311   4.582   1.091
 7518W        W72778  18.017  19.099  10.616
 7519W        W72779   2.861  32.244   3.711
 7520W        W72780  14.860  24.052   1.913
 7521W        W72781  16.336  33.748   0.988
 7522W        W72782  10.364  34.072  12.052
 7523W        W72783  31.591   4.322  13.665
 7524W        W72784  25.692   4.933   1.308
 7525W        W72785  12.235  28.933  13.544
 7526W        W72786  22.525  21.492   2.299
 7527W        W72787  27.541  26.670  11.374
 7528W        W72788  21.485  37.560  11.427
 7529W        W72789  30.613  38.166  13.029
 7530W        W72790  44.201   4.882  10.052
 7531W        W72791   4.218  32.630   3.651
 7532W        W72792  37.905  34.502  10.471
 7533W        W72793   3.039  28.744   2.599
 7534W        W72794   5.283   3.290  12.102
 7535W        W72795  35.549  34.370   0.015
 7536W        W72796  40.147  21.751   1.349
 7537W        W72797  14.169  32.133   4.109
 7538W        W72798  36.591   5.940   1.758
 7539W        W72799  44.013  14.739  13.488
 7540W        W72800  31.249   1.735   3.735
 7541W        W72801  42.306  40.740   1.399
 7542W        W72802  19.587  35.385  14.797
 7543W        W72803  18.875  40.175  12.061
 7544W        W72804  13.354  19.652   0.429
 7545W        W72805  18.211  42.606   0.850
 7546W        W72806  12.625  11.338   2.931
 7547W        W72807   7.667  32.005  12.406
 7548W        W72808  27.222  37.708   4.699
 7549W        W72809  34.664  39.792   3.593
 7550W        W72810  31.636   8.439   2.839
 7551W        W72811  29.261   0.170   2.344
 7552W        W72812   3.775   3.843   4.407
 7553W        W72813  36.262  21.542  12.925
 7554W        W72814  17.874  35.987   0.816
 7555W        W72815  11.536  30.364  10.681
 7556W        W72816   7.911  13.521  14.307
 7557W        W72817  30.721  20.887   4.948
 7558W        W72818   7.491   5.775  10.737
 7559W        W72819  40.083  21.943  12.360
 7560W        W72820   9.408  37.847   3.286
 7561W        W72821  43.394  20.985   4.943
 7562W        W72822  13.102  27.941  13.171
 7563W        W72823   2.330  43.270   4.614
 7564W        W72824  23.691  10.146   2.192
 7565W        W72825  14.504  38.522   1.775
 7566W        W72826  19.789  41.866   1.273
 7567W        W72827  13.587  29.049  11.511
 7568W        W72828   1.811  18.933   4.202
 7569W        W72829  32.167  22.797   1.300
 7570W        W72830  40.235  10.725  11.543
 7571W        W72831  37.096  21.746  11.129
 7572W        W72832   5.956   9.810  12.398
 7573W        W72833   0.056   8.757   4.653
 7574W        W72834  17.769  42.035  14.968
 7575W        W72835  34.970  26.911   3.060
 7576W        W72836   2.308  39.075  12.372
 7577W        W72837  33.010   3.815   4.041
 7578W        W72838  42.555  26.639   3.181
 7579W        W72839  16.809  39.347   0.398
 7580W        W72840  28.717  40.091  12.522
 7581W        W72841  33.605  18.428   4.595
 7582W        W72842  18.023   0.416   1.205
 7583W        W72843   4.609  34.473  11.380
 7584W        W72844   5.242  10.636   4.603
 7585W        W72845  15.161   6.728  14.424
 7586W        W72846  11.168  27.097   1.301
 7587W        W72847  36.628  24.043   3.517
 7588W        W72848  44.737  15.832  14.539
 7589W        W72849  38.033  21.010   2.796
 7590W        W72850  10.604   5.187  10.727
 7591W        W72851  30.728  15.664   4.550
 7592W        W72852  12.206  43.407  14.260
 7593W        W72853  19.198  44.209  14.232
 7594W        W72854  18.679  38.055  13.111
 7595W        W72855  35.062  20.495  13.188
 7596W        W72856   1.504  24.631   2.107
 7597W        W72857  44.718  37.068  13.213
 7598W        W72858  35.101  36.885   0.862
 7599W        W72859  15.786   7.680   4.642
 7600W        W72860  34.154   8.462  11.159
 7601W        W72861  41.804  25.171  12.468
 7602W        W72862   2.527  32.077   0.279
 7603W        W72863   8.153   3.610  11.606
 7604W        W72864  35.485  23.472  11.347
 7605W        W72865  24.583  33.457   4.511
 7606W        W72866  37.875  39.743  11.421
 7607W        W72867  33.000   2.457   3.054
 7608W        W72868   7.255  41.726  14.518
 7609W        W72869  17.192   5.498  11.536
 7610W        W72870  25.915  27.724  11.937
 7611W        W72871  35.540  12.438   4.581
 7612W        W72872  30.576  14.555  13.136
 7613W        W72873  34.590   4.802   4.203
 7614W        W72874  28.210   7.910  14.286
 7615W        W72875  43.721  24.129  14.910
 7616W        W72876  33.320  32.361  13.421
 7617W        W72877  16.813   9.248  11.594
 7618W        W72878  42.801  11.363  11.937
 7619W        W72879  20.016  17.805  12.476
 7620W        W72880  34.665  44.763   3.132
 7621W        W72881   5.740   8.875   0.729
 7622W        W72882  27.910  17.129  14.602
 7623W        W72883  16.583  26.409  12.925
 7624W        W72884  29.281  23.473  10.715
 7625W        W72885  18.622   5.176   0.351
 7626W        W72886   2.715  25.882   1.230
 7627W        W72887  35.145  15.123  12.034
 7628W        W72888  41.381  42.996   2.359
 7629W        W72889   3.412  23.925  11.097
 7630W        W72890  34.091  15.136   1.881
 7631W        W72891  22.988  13.213  12.984
 7632W        W72892  35.365  44.958   1.265
 7633W        W72893  19.106  28.745   1.734
 7634W        W72894  37.911  33.475  10.710
 7635W        W72895  27.954   7.773   3.403
 7636W        W72896  21.505  44.270   1.313
 7637W        W72897  42.831  34.803   1.236
 7638W        W72898   2.309  30.440   1.693
 7639W        W72899  40.569   1.908   9.913
 7640W        W72900   5.170  26.004  13.573
 7641W        W72901   7.609  41.820   2.406
 7642W        W72902   7.142  21.038   3.972
 7643W        W72903  26.716  27.021   3.201
 7644W        W72904  33.554   6.977  11.707
 7645W        W72905  19.960   8.424  12.584
 7646W        W72906  44.029   4.894  11.797
 7647W        W72907  31.442  19.838   1.292
 7648W        W72908  30.066  21.766   3.403
 7649W        W72909   9.057  34.535  12.765
 7650W        W72910  24.818  29.515  13.146
 7651W        W72911  22.499  17.772   0.366
 7652W        W72912  25.147   3.315  14.275
 7653W        W72913   3.801  42.908  12.535
 7654W        W72914  39.492  18.943   0.328
 7655W        W72915  12.809  20.063   1.846
 7656W        W72916   4.708   6.473   3.323
 7657W        W72917  41.144  33.990  11.878
 7658W        W72918   9.135  35.481  12.564
 7659W        W72919  13.272  37.934   1.440
 7660W        W72920  37.203  44.580  14.038
 7661W        W72921  26.417  35.505   3.860
 7662W        W72922  32.860   4.220  10.931
 7663W        W72923  21.691  24.639   3.208
 7664W        W72924  32.410  38.758  11.912
 7665W        W72925  40.991  17.785  11.640
 7666W        W72926  27.024   4.650  12.532
 7667W        W72927   9.322   5.700  11.512
 7668W        W72928  39.888   6.708  10.657
 7669W        W72929  41.370   3.872   1.357
 7670W        W72930  39.845  28.090  14.890
 7671W        W72931   3.004  37.822  10.792
 7672W        W72932  15.696  29.610  12.452
 7673W        W72933  37.735  40.657  12.586
 7674W        W72934  26.593  22.531   0.292
 7675W        W72935  27.512  34.178   3.137
 7676W        W72936  21.369  41.576   1.042
 7677W        W72937  25.134   8.879  13.002
 7678W        W72938  26.532  43.396   3.331
 7679W        W72939  14.074   9.891  11.948
 7680W        W72940  31.423   6.737  12.491
 7681W        W72941  22.787  14.336  10.587
 7682W        W72942   2.227  26.160   2.685
 7683W        W72943  34.447  12.454  14.785
 7684W        W72944   7.393  17.128   2.374
 7685W        W72945   4.842   7.421   3.607
 7686W        W72946   0.498  14.633   2.913
 7687W        W72947  38.797  41.973  14.890
 7688W        W72948  26.223  42.004   2.412
 7689W        W72949  41.728   8.258  14.722
 7690W        W72950  11.387  14.412  11.514
 7691W        W72951  38.822  17.285  10.714
 7692W        W72952  18.525   8.219  11.548
 7693W        W72953  21.726  18.083   3.713
 7694W        W72954   9.821   8.276  12.765
 7695W        W72955   8.264  23.802   0.468
 7696W        W72956  35.632   0.737   2.754
 7697W        W72957  40.695   7.268   4.645
 7698W        W72958  28.254  28.611   2.613
 7699W        W72959  11.678   0.567  11.613
 7700W        W72960  42.290  23.248  14.933
 7701W        W72961  19.163  37.846  14.418
 7702W        W72962  16.054  34.179  13.878
 7703W        W72963  34.533  27.589  11.605
 7704W        W72964  30.365  20.003   1.812
 7705W        W72965  19.559  33.865   3.218
 7706W        W72966  33.583  41.245   4.054
 7707W        W72967   8.715  10.242   0.740
 7708W        W72968  28.528  18.770  11.316
 7709W        W72969  40.588  22.727  10.229
 7710W        W72970  30.240   6.773   1.927
 7711W        W72971  20.193  40.547  12.984
 7712W        W72972   5.511  36.422  12.503
 7713W        W72973  35.328  39.540   1.302
 7714W        W72974  29.966  30.877   4.204
 7715W        W72975   1.294  26.726   3.252
 7716W        W72976  36.345  41.908  12.134
 7717W        W72977  36.381  41.943  13.291
 7718W        W72978  19.205  35.470   0.397
 7719W        W72979   5.934  16.708  14.083
 7720W        W72980  21.985  34.051  12.366
 7721W        W72981  42.279  19.784   2.390
 7722W        W72982  21.188  10.019  12.985
 7723W        W72983   5.229  39.515  14.363
 7724W        W72984  16.616   2.752  10.968
 7725W        W72985   5.816  33.886   2.003
 7726W        W72986   7.609  19.432  10.618
 7727W        W72987  40.007  25.465  12.411
 7728W        W72988   0.821  43.509   2.704
 7729W        W72989  28.456  38.979  13.377
 7730W        W72990  36.304  42.791  10.845
 7731W        W72991  28.208  21.289   5.081
 7732W        W72992   0.473  30.474   0.843
 7733W        W72993   5.182  19.664  10.335
 7734W        W72994  40.748  43.404  13.876
 7735W        W72995  40.054  26.233   3.744
 7736W        W72996  25.484  18.820   2.164
 7737W        W72997  37.797  30.938  13.942
 7738W        W72998  43.108  19.127  10.887
 7739W        W72999  41.843   9.318  14.436
 7740W        W73000  17.126  24.579  14.359
 7741W        W73001  18.075  12.677   3.678
 7742W        W73002  10.235   8.181   1.816
 7743W        W73003  12.439  30.315  11.533
 7744W        W73004  17.589  10.057  13.300
 7745W        W73005  22.920   1.790  11.009
 7746W        W73006  35.094  34.973   4.641
 7747W        W73007  23.515   9.693   0.828
 7748W        W73008  31.677  25.817   0.289
 7749W        W73009  36.377  12.777  11.803
 7750W        W73010   2.448  37.997  12.371
 7751W        W73011  18.586  20.248  12.809
 7752W        W73012  44.531  10.046   4.269
 7753W        W73013  14.238  31.885   1.942
 7754W        W73014  16.733  42.631  11.128
 7755W        W73015  27.701   3.729   3.281
 7756W        W73016  41.745  32.137   4.605
 7757W        W73017  32.563  10.655  13.387
 7758W        W73018  31.654   8.477  13.533
 7759W        W73019   9.893   0.972  14.275
 7760W        W73020  30.558  17.232  14.171
 7761W        W73021  24.064  39.580   3.222
 7762W        W73022  38.441  29.418  10.616
 7763W        W73023  19.171   6.647   2.146
 7764W        W73024   3.004  24.222  11.153
 7765W        W73025  34.913  11.334   1.325
 7766W        W73026   8.814  39.401  14.313
 7767W        W73027  25.091  26.924   4.034
 7768W        W73028  38.002   7.969  12.628
 7769W        W73029  38.964  13.046   0.522
 7770W        W73030  17.735  42.989   4.910
 7771W        W73031  44.967  41.531   2.945
 7772W        W73032  38.087  34.052  11.126
 7773W        W73033  12.035   0.564   0.412
 7774W        W73034  36.608  19.629  10.528
 7775W        W73035  29.493  42.894   0.807
 7776W        W73036  39.625  33.937  10.931
 7777W        W73037  23.757  42.365   0.557
 7778W        W73038   3.842  30.739   2.226
 7779W        W73039   5.860   4.675   2.871
 7780W        W73040  22.335  22.017   3.699
 7781W        W73041  37.530  40.862   0.757
 7782W        W73042  19.208  23.715  12.303
 7783W        W73043  30.948   2.864  13.783
 7784W        W73044  18.200  19.633  14.873
 7785W        W73045   6.306  37.805   1.011
 7786W        W73046  38.446   6.675  11.565
 7787W        W73047  13.845  25.945   4.270
 7788W        W73048  35.612  16.261   1.789
 7789W        W73049  28.991  29.024   2.457
 7790W        W73050  28.097  25.043  11.538
 7791W        W73051  30.558  36.842  11.458
 7792W        W73052  24.749   0.341  13.966
 7793W        W73053  27.835   8.151   1.871
 7794W        W73054  22.550  39.858   0.315
 7795W        W73055  15.708  39.310   1.240
 7796W        W73056  26.360  15.660   2.280
 7797W        W73057  29.903  31.613  12.618
 7798W        W73058  17.265  32.734  13.750
 7799W        W73059  33.064  41.636  12.421
 7800W        W73060   8.871  36.087   0.878
 7801W        W73061   8.160  37.072   1.320
 7802W        W73062  38.222  33.476   0.929
 7803W        W73063   8.823  43.641  11.568
 7804W        W73064  25.594  11.415   2.319
 7805W        W73065  20.129   7.743   3.828
 7806W        W73066  22.595  22.749  10.957
 7807W        W73067  43.370  31.441  13.309
 7808W        W73068  19.394  28.079  14.813
 7809W        W73069  22.716   1.696  13.377
 7810W        W73070  21.695  39.583  12.624
 7811W        W73071  37.824   5.468  10.251
 7812W        W73072  28.377  15.272   1.758
 7813W        W73073   2.522   1.791  13.540
 7814W        W73074  40.144  41.622  11.591
 7815W        W73075  33.448  20.469   4.611
 7816W        W73076  33.822  27.016  14.791
 7817W        W73077  37.298   2.853  13.986
 7818W        W73078  17.645  17.690  12.163
 7819W        W73079   3.855  36.371   4.713
 7820W        W73080   9.343  21.724  12.047
 7821W        W73081  13.510  28.520  14.879
 7822W        W73082  18.262   3.358  10.961
 7823W        W73083  14.803   9.391  11.892
 7824W        W73084  37.894  21.220  13.869
 7825W        W73085  36.173  19.047   2.650
 7826W        W73086  40.388  20.141   3.882
 7827W        W73087   9.232  21.254  13.083
 7828W        W73088  16.778  34.136   0.791
 7829W        W73089  11.385  30.028   2.762
 7830W        W73090  18.504  20.300  10.669
 7831W        W73091  28.840  40.834   0.317
 7832W        W73092  38.524  15.605   3.122
 7833W        W73093  30.811  29.719   4.121
 7834W        W73094  27.073  13.136   2.356
 7835W        W73095  23.358  41.961  10.405
 7836W        W73096  22.979  42.306  12.175
 7837W        W73097   6.689  31.045   0.979
 7838W        W73098  31.325   8.902  14.768
 7839W        W73099   3.487  20.508  14.116
 7840W        W73100  14.085  27.035  11.050
 7841W        W73101  30.962  25.147  13.587
 7842W        W73102  19.155  26.508  10.645
 7843W        W73103  22.185  31.805  11.120
 7844W        W73104  24.744  24.251   0.775
 7845W        W73105  40.096  31.009   2.446
 7846W        W73106  26.069  16.041  11.697
 7847W        W73107   6.325  29.223   2.330
 7848W        W73108  41.230  19.248  11.983
 7849W        W73109   1.159   3.210  13.070
 7850W        W73110  26.102  41.550  12.142
 7851W        W73111  42.079  10.688  12.223
 7852W        W73112  24.869  39.080   0.210
 7853W        W73113   7.857  12.848   0.411
 7854W        W73114   0.711   7.277  13.320
 7855W        W73115  19.582  25.561   0.201
 7856W        W73116   5.867  31.223   2.302
 7857W        W73117   4.383  34.130   0.366
 7858W        W73118  42.964  40.026  14.922
 7859W        W73119   5.675   1.728  12.343
 7860W        W73120   7.690  37.861   3.591
 7861W        W73121  32.147  18.060   2.195
 7862W        W73122   9.853  17.037   2.158
 7863W        W73123  18.139  39.365   1.301
 7864W        W73124   0.090  40.261   0.362
 7865W        W73125  40.935  25.487   1.168
 7866W        W73126   9.940  22.854   2.295
 7867W        W73127  16.816  12.473  13.837
 7868W        W73128  15.654  22.233  13.839
 7869W        W73129  38.013  28.154   3.574
 7870W        W73130  39.604  21.963   4.113
 7871W        W73131  15.271  23.312  10.630
 7872W        W73132  32.604  17.740  10.589
 7873W        W73133   4.008  38.302  12.854
 7874W        W73134  18.010   8.332  12.354
 7875W        W73135  40.738  13.713  13.954
 7876W        W73136  38.840   8.804  11.982
 7877W        W73137  17.880  42.448   3.742
 7878W        W73138  42.577  24.611   0.196
 7879W        W73139  36.952  28.676   0.379
 7880W        W73140  37.465   7.250  12.619
 7881W        W73141   8.993  20.578  10.265
 7882W        W73142  19.616   2.429   4.076
 7883W        W73143  31.280  33.324  12.053
 7884W        W73144  11.609  10.910   0.438
 7885W        W73145  13.246  29.096   3.825
 7886W        W73146  27.952  33.518  14.922
 7887W        W73147  13.942   2.596   3.725
 7888W        W73148   8.200   5.418  14.180
 7889W        W73149   2.489  15.619   0.740
 7890W        W73150  35.265  27.021  12.098
 7891W        W73151   6.966  14.827  10.671
 7892W        W73152  10.028  28.090   5.548
 7893W        W73153  12.001  39.849   0.409
 7894W        W73154  16.348  41.933   3.196
 7895W        W73155  37.694   4.204   1.820
 7896W        W73156  19.114  11.115   1.845
 7897W        W73157  23.615  24.469  14.031
 7898W        W73158  36.043  15.594  13.149
 7899W        W73159   2.394   5.281  13.755
 7900W        W73160  31.191  23.852  10.827
 7901W        W73161   9.450  20.854  12.539
 7902W        W73162  43.710  42.498  12.449
 7903W        W73163  42.006  39.424  10.700
 7904W        W73164  13.012  25.561  13.988
 7905W        W73165  43.818  13.712   0.297
 7906W        W73166  26.896  10.326   3.672
 7907W        W73167  33.046  23.184   2.422
 7908W        W73168  33.228  25.527  12.478
 7909W        W73169  21.098  22.909  11.553
 7910W        W73170   2.739   9.738  13.116
 7911W        W73171  17.896  23.455   1.689
 7912W        W73172  41.564  31.840   2.766
 7913W        W73173  41.290  39.971   2.734
 7914W        W73174  22.730   9.188  14.485
 7915W        W73175  11.238  19.586  14.780
 7916W        W73176  16.644  28.408   1.565
 7917W        W73177  11.360   5.822   5.428
 7918W        W73178  38.556  38.070   0.060
 7919W        W73179  38.034  18.747   0.472
 7920W        W73180  19.988  29.575   4.631
 7921W        W73181  10.702   0.230   4.303
 7922W        W73182  28.131  10.743  11.163
 7923W        W73183  31.920  24.816   4.946
 7924W        W73184  30.784  33.608  14.883
 7925W        W73185  16.378  30.152   1.993
 7926W        W73186  11.753  12.696  11.085
 7927W        W73187   1.025  30.130   3.534
 7928W        W73188  39.788  21.783  14.653
 7929W        W73189   4.628  30.012  14.249
 7930W        W73190  29.528  25.263  10.150
 7931W        W73191  38.760  15.793  13.406
 7932W        W73192  11.909  24.641  13.379
 7933W        W73193   9.845   8.034   4.151
 7934W        W73194   5.106  10.245  11.597
 7935W        W73195   3.320  16.258  12.465
 7936W        W73196   2.459  36.664   4.162
 7937W        W73197  19.232   0.917   3.210
 7938W        W73198  37.971   2.350   1.458
 7939W        W73199  32.223  41.883   1.730
 7940W        W73200  21.028  31.117  11.617
 7941W        W73201   5.860  42.988  10.855
 7942W        W73202  31.892  34.043  10.979
 7943W        W73203   5.255  40.258  10.946
 7944W        W73204  31.777  15.132  14.912
 7945W        W73205  38.579  19.288  12.940
 7946W        W73206  16.632  10.915   4.302
 7947W        W73207  42.721  14.828   1.306
 7948W        W73208  40.943  13.582  12.068
 7949W        W73209  18.664  38.339  12.434
 7950W        W73210   9.490  24.831  14.101
 7951W        W73211  42.480  40.324   1.147
 7952W        W73212  25.856  43.218  14.396
 7953W        W73213  28.067  19.270   1.194
 7954W        W73214   7.765  19.966   0.940
 7955W        W73215  35.358   3.295  11.772
 7956W        W73216  44.818  39.555  14.898
 7957W        W73217  43.901  21.133   0.466
 7958W        W73218  16.149  11.822  12.030
 7959W        W73219  35.613  34.409   2.319
 7960W        W73220   5.749   9.439  12.701
 7961W        W73221  30.935  15.595   2.324
 7962W        W73222  21.481   1.899  14.089
 7963W        W73223  20.014   3.312   1.309
 7964W        W73224  39.795  14.870   2.171
 7965W        W73225  20.940  42.701   3.352
 7966W        W73226   7.196  33.898  13.943
 7967W        W73227  29.675   5.112   0.315
 7968W        W73228  29.673  40.274   4.560
 7969W        W73229  25.720   3.323   2.197
 7970W        W73230  36.371  26.888   1.790
 7971W        W73231  18.534  24.236   2.264
 7972W        W73232  33.680   5.704  12.275
 7973W        W73233  17.293   4.982  10.703
 7974W        W73234  44.458  41.788   3.412
 7975W        W73235  11.553  19.438  11.132
 7976W        W73236   9.316  33.958   2.157
 7977W        W73237  13.142   2.893   0.236
 7978W        W73238   5.715  11.691   4.478
 7979W        W73239  38.392  23.206   4.337
 7980W        W73240  30.527  12.332   4.909
 7981W        W73241  41.399  41.718   4.834
 7982W        W73242   9.233  23.535  12.550
 7983W        W73243  15.110  34.500  12.054
 7984W        W73244  29.025   6.853   4.079
 7985W        W73245  17.625   3.397   1.718
 7986W        W73246  15.437  32.857  12.651
 7987W        W73247  26.363  42.164   3.700
 7988W        W73248  14.454  24.201  12.851
 7989W        W73249  20.601  27.531   0.263
 7990W        W73250  24.676  27.126  11.139
 7991W        W73251  26.112  10.639  12.119
 7992W        W73252  11.827   9.852   2.261
 7993W        W73253  32.661   3.451   4.076
 7994W        W73254  41.171   0.839   3.598
 7995W        W73255  20.041  12.733   0.437
 7996W        W73256  30.250  30.704  12.167
 7997W        W73257  40.390  22.678   3.327
 7998W        W73258  16.066  10.661   4.707
 7999W        W73259  40.346  19.125   1.728
 8000W        W73260   5.510  25.799  10.919
 8001W        W73261  22.098  14.314   2.303
 8002W        W73262  10.355   2.710   1.497
 8003W        W73263  28.204   0.762  11.623
 8004W        W73264  18.171  14.366   1.472
 8005W        W73265  23.660  41.961   0.868
 8006W        W73266  32.957  43.761  13.523
 8007W        W73267  42.481  33.965  13.383
 8008W        W73268  37.523  27.080   2.721
 8009W        W73269  36.510   0.570  14.038
 8010W        W73270  23.256  28.214  12.586
 8011W        W73271   4.764  34.199   9.967
 8012W        W73272  32.738  13.016   4.000
 8013W        W73273   7.933   2.368   1.158
 8014W        W73274  11.177  23.223  12.748
 8015W        W73275  15.017  23.901   0.685
 8016W        W73276  16.924  30.295  14.032
 8017W        W73277  22.821   7.755   3.346
 8018W        W73278  26.458  24.029   0.395
 8019W        W73279  32.487  31.811   3.678
 8020W        W73280  11.752  41.750   3.841
 8021W        W73281  33.965  17.375   3.065
 8022W        W73282  42.018  13.883  11.177
 8023W        W73283   0.880  23.714   5.395
 8024W        W73284   7.222  22.693  10.721
 8025W        W73285  31.649   9.402   1.828
 8026W        W73286  19.955  31.602  13.916
 8027W        W73287   4.329   6.886   0.414
 8028W        W73288  25.213   7.338   3.850
 8029W        W73289  19.667  41.762  12.953
 8030W        W73290   1.194  11.752   1.809
 8031W        W73291  40.885  23.093  13.323
 8032W        W73292  38.004   1.458  11.928
 8033W        W73293   4.719  31.017  13.118
 8034W        W73294  11.733   4.393   2.796
 8035W        W73295   6.362  22.223  12.180
 8036W        W73296  10.659  35.772  13.940
 8037W        W73297  20.103   5.815   1.779
 8038W        W73298  16.716   8.632  12.425
 8039W        W73299  34.847   1.520  13.317
 8040W        W73300  23.220  40.410  13.584
 8041W        W73301  19.849  36.626   5.098
 8042W        W73302  44.853  32.942  14.033
 8043W        W73303  12.317  43.660   3.135
 8044W        W73304  33.002  37.582   2.343
 8045W        W73305  16.917  36.395  13.569
 8046W        W73306   2.270  16.982   2.185
 8047W        W73307  21.760  20.112   0.910
 8048W        W73308  26.006  39.958   2.553
 8049W        W73309  29.129   4.962   3.329
 8050W        W73310  33.421  34.824  12.859
 8051W        W73311  43.804  42.872  12.976
 8052W        W73312  35.579  31.372   1.434
 8053W        W73313  42.813   0.974   2.613
 8054W        W73314  15.306   0.915  10.695
 8055W        W73315  11.709   0.509   1.311
 8056W        W73316  12.928   4.728  12.577
 8057W        W73317  20.153  30.458  12.489
 8058W        W73318  35.044   1.984   0.835
 8059W        W73319  12.762   4.703   2.324
 8060W        W73320   8.766  19.828  14.859
 8061W        W73321   4.770  12.255   3.277
 8062W        W73322  30.988  16.117  10.633
 8063W        W73323  33.783   8.328  12.542
 8064W        W73324  26.696  20.861  11.330
 8065W        W73325  21.221  43.000   2.729
 8066W        W73326   1.995  18.844   4.683
 8067W        W73327   5.801  11.844  11.464
 8068W        W73328  43.292  33.295  13.419
 8069W        W73329  25.732   4.962  12.806
 8070W        W73330  31.500  29.168   3.694
 8071W        W73331  36.617   1.366   1.356
 8072W        W73332  14.263  44.712  11.182
 8073W        W73333   4.341  30.457   0.294
 8074W        W73334  15.988   2.383   1.886
 8075W        W73335  34.102  21.687   4.955
 8076W        W73336  22.261  14.659   0.470
 8077W        W73337  25.214  30.709  10.956
 8078W        W73338   8.287  40.617  14.513
 8079W        W73339  21.027  25.757   1.960
 8080W        W73340  38.411  39.535  10.439
 8081W        W73341  20.728  28.146   2.641
 8082W        W73342   0.869  26.065  12.084
 8083W        W73343  22.966  19.739  14.846
 8084W        W73344  41.334  30.586  11.141
 8085W        W73345  29.135  42.923   2.958
 8086W        W73346  37.192  24.093  14.488
 8087W        W73347  23.962  23.477   1.729
 8088W        W73348   9.719  40.984  12.379
 8089W        W73349  19.816  38.872   3.827
 8090W        W73350  17.653  25.253  12.137
 8091W        W73351   2.483  28.040   3.232
 8092W        W73352  35.965  26.866   1.186
 8093W        W73353  21.685  21.507  14.063
 8094W        W73354  33.469   6.282  13.752
 8095W        W73355  23.486   0.382  14.930
 8096W        W73356  12.398  29.234   0.792
 8097W        W73357   4.680  32.704   2.727
 8098W        W73358  10.213  35.648  11.548
 8099W        W73359  20.241  33.085  11.868
 8100W        W73360  15.582  22.681  11.988
 8101W        W73361   2.194  25.663   0.980
 8102W        W73362  36.095   2.277   1.265
 8103W        W73363   4.964  36.817   4.716
 8104W        W73364  12.703  27.015   1.264
 8105W        W73365  44.544  27.613   2.807
 8106W        W73366  10.901  34.695  13.548
 8107W        W73367  25.131  30.808   5.070
 8108W        W73368  39.882  31.435  13.509
 8109W        W73369  33.093  34.486  12.594
 8110W        W73370   0.071  34.576   4.662
 8111W        W73371  12.682  10.914  12.490
 8112W        W73372   0.627  27.197  10.940
 8113W        W73373   7.294   6.336   2.204
 8114W        W73374  31.958  17.660   2.461
 8115W        W73375  34.131   7.935  12.612
 8116W        W73376  19.336  13.820  14.981
 8117W        W73377  13.749  28.455   1.928
 8118W        W73378  22.252  39.914   0.856
 8119W        W73379   5.881  23.132   2.173
 8120W        W73380  37.959  38.257  13.877
 8121W        W73381  19.246  44.495  14.668
 8122W        W73382  34.329  38.951  11.184
 8123W        W73383  42.537  34.906  14.895
 8124W        W73384  23.078  37.609  14.455
 8125W        W73385  19.252  17.201  13.801
 8126W        W73386  17.465  17.215  12.059
 8127W        W73387  38.349  19.155   4.291
 8128W        W73388  41.092  37.240   5.084
 8129W        W73389  44.273  24.059  14.804
 8130W        W73390  41.950  44.978   3.271
 8131W        W73391  25.847   9.093   1.193
 8132W        W73392  18.094  26.219  14.449
 8133W        W73393  21.121  22.030  14.393
 8134W        W73394  36.770  41.703  11.214
 8135W        W73395   3.582  32.041  12.090
 8136W        W73396  33.729  42.512  14.728
 8137W        W73397  28.377  21.158   3.716
 8138W        W73398   7.382   5.737   0.391
 8139W        W73399   8.142  12.114   2.670
 8140W        W73400   5.539  16.376  14.265
 8141W        W73401  19.030   3.830  14.052
 8142W        W73402  35.486  44.076   3.194
 8143W        W73403  18.679  40.442   1.814
 8144W        W73404  28.080  42.458   1.924
 8145W        W73405   1.816   8.611  10.946
 8146W        W73406  36.072  24.442   1.972
 8147W        W73407  21.635  34.928   2.847
 8148W        W73408  15.279  35.387  13.353
 8149W        W73409  44.968  17.273   2.235
 8150W        W73410   3.141  11.731   2.819
 8151W        W73411  38.449  12.368  12.104
 8152W        W73412  10.620  40.254  12.100
 8153W        W73413  21.979  14.344   0.174
 8154W        W73414   7.487  42.733   3.388
 8155W        W73415  28.599  23.007  14.910
 8156W        W73416  39.318  21.517   3.372
 8157W        W73417  11.284  12.552  14.808
 8158W        W73418  31.657   2.947   1.629
 8159W        W73419  12.279   8.664   0.055
 8160W        W73420   3.825  16.039  10.482
 8161W        W73421  23.384  33.041  12.379
 8162W        W73422   9.869   9.413  11.118
 8163W        W73423  29.326  28.442   1.160
 8164W        W73424   5.294  23.689  12.437
 8165W        W73425  39.920  40.882   0.379
 8166W        W73426  30.171   4.210  14.468
 8167W        W73427  42.782   9.117   1.926
 8168W        W73428  11.836  43.074   2.752
 8169W        W73429  27.590  15.685   3.576
 8170W        W73430  37.735  40.046  13.945
 8171W        W73431   7.756  17.856  12.937
 8172W        W73432  21.256  21.220   0.674
 8173W        W73433  39.427  12.783  14.932
 8174W        W73434  33.950  22.101   1.146
 8175W        W73435   2.874  24.452   0.724
 8176W        W73436  11.582  13.557   1.308
 8177W        W73437  43.445  17.171  10.656
 8178W        W73438   6.139   9.745   4.792
 8179W        W73439  28.048  19.320   4.092
 8180W        W73440  33.345  34.285  12.192
 8181W        W73441  11.645  31.834   1.270
 8182W        W73442  18.592  25.894  11.926
 8183W        W73443   9.191  39.791  11.555
 8184W        W73444  28.065  28.970   4.434
 8185W        W73445  41.903  11.287   0.887
 8186W        W73446  26.113  30.555  10.864
 8187W        W73447  32.586  18.741  11.156
 8188W        W73448  43.895  17.602  13.762
 8189W        W73449  32.443   4.605  10.136
 8190W        W73450  21.547  32.545   4.492
 8191W        W73451  23.538  27.306  12.593
 8192W        W73452  16.631  36.961  12.954
 8193W        W73453  39.605  21.631   1.345
 8194W        W73454  25.526   2.647  12.419
 8195W        W73455   3.527  36.540  12.539
 8196W        W73456  15.567   0.753  12.184
 8197W        W73457  36.147  41.886   1.352
 8198W        W73458  13.365  42.972   4.753
 8199W        W73459  35.367  41.457  11.130
 8200W        W73460  18.585  12.660  10.802
 8201W        W73461  20.503  10.725   0.853
 8202W        W73462  12.784  13.532   2.779
 8203W        W73463  17.789  30.207   4.574
 8204W        W73464  13.150  15.787  12.059
 8205W        W73465   1.692  30.106  14.451
 8206W        W73466  21.852  23.003   3.295
 8207W        W73467   3.278  28.451   3.057
 8208W        W73468   2.719  24.074  11.567
 8209W        W73469  26.957  38.536  14.427
 8210W        W73470  13.157  43.218  12.587
 8211W        W73471  13.605   3.700  10.661
 8212W        W73472  32.207  25.438  10.797
 8213W        W73473  11.240  28.195  10.578
 8214W        W73474  21.634  21.625  10.283
 8215W        W73475   1.733   3.139   0.449
 8216W        W73476  33.859   6.335  14.311
 8217W        W73477  42.345  15.509  13.461
 8218W        W73478  31.566   5.205   2.313
 8219W        W73479  25.312   6.874   1.908
 8220W        W73480  43.132  32.524   1.047
 8221W        W73481  10.364  34.517  14.315
 8222W        W73482  35.432  34.902   0.007
 8223W        W73483   9.321  18.363   0.930
 8224W        W73484  10.318  25.148  13.534
 8225W        W73485  23.599  35.840   3.104
 8226W        W73486  13.169  28.993   2.829
 8227W        W73487  28.496  14.114   3.845
 8228W        W73488   9.317  17.651   3.152
 8229W        W73489   0.664  18.601  12.510
 8230W        W73490  14.297   8.671   2.607
 8231W        W73491  16.041   1.331   2.749
 8232W        W73492  14.624  44.471   3.790
 8233W        W73493  35.650  15.799   2.274
 8234W        W73494  43.954   7.381  14.034
 8235W        W73495  35.808  35.574  14.631
 8236W        W73496  44.365  10.412   3.338
 8237W        W73497   0.319  17.731   3.664
 8238W        W73498  33.523   0.270   2.462
 8239W        W73499  11.787  13.831   5.089
 8240W        W73500  17.537   5.006   0.416
 8241W        W73501  25.870  41.863  14.544
 8242W        W73502  33.862  11.970   0.286
 8243W        W73503  39.854  18.746   3.354
 8244W        W73504  20.174  15.313  14.827
 8245W        W73505  27.230   2.348  14.447
 8246W        W73506  26.237  32.406   4.673
 8247W        W73507  34.896  31.701  13.396
 8248W        W73508  15.566  39.370  13.361
 8249W        W73509   8.985   2.754  11.962
 8250W        W73510  31.038  36.508   1.669
 8251W        W73511  36.809  28.519  12.793
 8252W        W73512  21.595  35.028  14.824
 8253W        W73513  12.967  12.613  10.250
 8254W        W73514  34.969  42.296  11.137
 8255W        W73515  16.195  14.207   3.466
 8256W        W73516   4.698  13.486   4.618
 8257W        W73517  14.129  13.727   0.863
 8258W        W73518   3.661   3.417   2.835
 8259W        W73519  12.826  32.871   4.170
 8260W        W73520  31.038  27.641  12.455
 8261W        W73521  39.776  44.923   2.924
 8262W        W73522  35.257  35.996   4.518
 8263W        W73523   7.663  23.211   4.732
 8264W        W73524  38.357  38.118   0.558
 8265W        W73525   4.411  38.503  13.627
 8266W        W73526  39.301  35.425   2.052
 8267W        W73527  13.028  14.074  12.984
 8268W        W73528  38.821  41.371   0.512
 8269W        W73529   1.832  30.401  10.807
 8270W        W73530  26.447  10.514   0.292
 8271W        W73531  26.059  37.831  13.779
 8272W        W73532  30.116  40.348   2.772
 8273W        W73533  44.467  10.601  13.367
 8274W        W73534  38.868   2.886  13.237
 8275W        W73535   6.480  39.794   0.297
 8276W        W73536  36.501   4.736  14.513
 8277W        W73537   9.440  25.481   2.817
 8278W        W73538  10.737  33.036  11.548
 8279W        W73539  37.657   1.932  11.148
 8280W        W73540  15.896  11.996  11.575
 8281W        W73541  13.999  15.673   4.989
 8282W        W73542  35.882  26.791  14.356
 8283W        W73543  11.357  22.158  14.516
 8284W        W73544  17.230  12.161  13.802
 8285W        W73545  37.346  41.988   2.403
 8286W        W73546  30.518  23.660   2.622
 8287W        W73547  26.533  13.702  11.789
 8288W        W73548  24.911  14.578  13.904
 8289W        W73549  11.264  14.082  13.558
 8290W        W73550  25.432  35.631  14.947
 8291W        W73551  12.406  12.274  12.590
 8292W        W73552   0.852  35.623  13.985
 8293W        W73553  12.348  16.086   0.399
 8294W        W73554  37.809  32.954   2.702
 8295W        W73555  41.550  28.620  13.769
 8296W        W73556   5.810  19.929  14.048
 8297W        W73557  44.361  41.334  10.635
 8298W        W73558  29.230  19.196   1.212
 8299W        W73559  34.085   3.287   3.059
 8300W        W73560  15.149  23.223  13.879
 8301W        W73561  39.966  29.618  14.940
 8302W        W73562  39.816  13.679   3.728
 8303W        W73563  22.674  32.564  13.150
 8304W        W73564   8.233  30.791   3.436
 8305W        W73565  38.389  30.678  10.931
 8306W        W73566  35.931  13.082   3.866
 8307W        W73567  42.476  24.018  13.466
 8308W        W73568  10.719  35.964  11.230
 8309W        W73569  39.430  13.819  11.809
 8310W        W73570  40.069  36.555   4.082
 8311W        W73571  28.855  40.165  11.612
 8312W        W73572   6.306   5.682   4.010
 8313W        W73573  27.111  18.579   2.666
 8314W        W73574  39.433  31.208   2.842
 8315W        W73575   7.707  29.514  13.534
 8316W        W73576   4.861  31.650   0.017
 8317W        W73577  15.154  14.509   1.689
 8318W        W73578  17.519  30.452  11.111
 8319W        W73579   8.724  43.340   1.927
 8320W        W73580  13.505  12.822  12.598
 8321W        W73581  31.524   0.876   0.634
 8322W        W73582   4.805  35.779   5.064
 8323W        W73583  28.047  15.631  12.939
 8324W        W73584  26.434  28.577   2.040
 8325W        W73585  22.475   9.765  13.959
 8326W        W73586  41.409   1.770   0.388
 8327W        W73587   5.721  30.931  10.926
 8328W        W73588  33.405   4.495  13.117
 8329W        W73589  29.827  26.968  14.308
 8330W        W73590  28.501   7.417  13.553
 8331W        W73591  38.605   9.703   0.140
 8332W        W73592  38.150  14.649  14.568
 8333W        W73593  26.613  13.120   1.993
 8334W        W73594  23.262  14.995   1.667
 8335W        W73595   5.802  19.006  14.383
 8336W        W73596  29.475  17.048  11.041
 8337W        W73597  41.962  30.098   2.203
 8338W        W73598  21.007  26.325  14.946
 8339W        W73599  38.386  37.531  11.189
 8340W        W73600  35.550  38.395  14.909
 8341W        W73601  31.018  41.207  12.219
 8342W        W73602  35.212  39.626  12.087
 8343W        W73603  26.416  17.783  12.470
 8344W        W73604  20.635   1.839  13.082
 8345W        W73605   1.690  13.105   0.798
 8346W        W73606  18.457   3.451  10.473
 8347W        W73607  17.726  42.235  12.951
 8348W        W73608  37.080  21.781  12.431
 8349W        W73609  11.008  44.648   3.696
 8350W        W73610  25.545   7.345  11.360
 8351W        W73611  15.853  16.579   0.421
 8352W        W73612  39.960  14.084   0.934
 8353W        W73613  14.289  34.920  11.595
 8354W        W73614  21.670   2.484   2.851
 8355W        W73615  29.652  20.053  14.607
 8356W        W73616  37.747   7.230  14.924
 8357W        W73617  43.425  39.514   2.187
 8358W        W73618   6.322  26.869  13.421
 8359W        W73619  16.463   6.747  13.586
 8360W        W73620  44.946  40.312  13.042
 8361W        W73621  37.003  23.753   3.275
 8362W        W73622  36.812  17.457  14.359
 8363W        W73623   9.166  35.347   2.311
 8364W        W73624   7.184  24.585  11.884
 8365W        W73625  21.570   7.865   3.550
 8366W        W73626  10.704   2.062  14.561
 8367W        W73627  12.559  10.584   2.160
 8368W        W73628  18.577  39.288   1.883
 8369W        W73629  20.024   8.232   1.536
 8370W        W73630  31.142   1.349  10.457
 8371W        W73631  44.735   9.430   5.012
 8372W        W73632  10.990  31.119  14.363
 8373W        W73633  35.653  31.390  14.042
 8374W        W73634   6.757  26.625  11.597
 8375W        W73635  10.299  39.525   3.313
 8376W        W73636  19.058  34.481  13.496
 8377W        W73637  24.030  10.830   3.368
 8378W        W73638  33.061  40.772   1.839
 8379W        W73639  36.662  29.661  12.564
 8380W        W73640   5.041  16.442  14.140
 8381W        W73641   5.984  38.983   2.666
 8382W        W73642  23.639  13.785   0.487
 8383W        W73643  10.267  22.987   4.099
 8384W        W73644  15.061  16.844  12.070
 8385W        W73645  32.289  10.928   5.337
 8386W        W73646   8.743  16.068  14.963
 8387W        W73647  17.764  37.308   3.847
 8388W        W73648  41.919  28.649  10.932
 8389W        W73649  29.090   1.518  14.903
 8390W        W73650  18.768  40.006  11.587
 8391W        W73651  37.382  32.564   4.232
 8392W        W73652  15.069  11.901   2.843
 8393W        W73653  43.813  19.319  14.739
 8394W        W73654  28.999   2.905   4.863
 8395W        W73655  38.497  13.923   1.331
 8396W        W73656  20.540   0.334  14.415
 8397W        W73657  27.570  10.046  14.039
 8398W        W73658  44.295  17.200   0.806
 8399W        W73659  10.916  28.655   3.655
 8400W        W73660  40.105  40.431  14.485
 8401W        W73661   4.716  26.192  10.655
 8402W        W73662  33.085  28.157   4.213
 8403W        W73663  22.356  43.336   3.309
 8404W        W73664  29.641  33.893   0.228
 8405W        W73665  42.213  31.966   4.496
 8406W        W73666  34.458  43.397  10.859
 8407W        W73667  31.315   6.532  13.771
 8408W        W73668  11.705   5.920  13.574
 8409W        W73669  26.747   4.671   2.191
 8410W        W73670  13.577  25.164   0.711
 8411W        W73671  33.419  16.532   3.635
 8412W        W73672  20.549   3.675   3.526
 8413W        W73673  38.957  19.852  11.692
 8414W        W73674  20.821  28.586   1.448
 8415W        W73675  13.329  44.277   2.796
 8416W        W73676  18.084   0.701  13.020
 8417W        W73677   9.414  18.296   2.221
 8418W        W73678  14.860  19.884   4.917
 8419W        W73679  14.685  35.884   3.750
 8420W        W73680  36.827  27.705  14.630
 8421W        W73681  31.001  33.436   1.904
 8422W        W73682  28.051  41.416  12.048
 8423W        W73683   4.949  15.975   3.691
 8424W        W73684  20.152  41.674  12.106
 8425W        W73685  31.085   6.665  12.064
 8426W        W73686   9.677   7.875   2.901
 8427W        W73687  27.912  42.616   4.622
 8428W        W73688   7.218   1.168  12.725
 8429W        W73689   1.293  36.941   4.527
 8430W        W73690  10.127   2.393  13.033
 8431W        W73691   7.747  13.671   3.682
 8432W        W73692   0.461  23.018  12.503
 8433W        W73693  22.719  14.589   2.771
 8434W        W73694  41.558  31.088  14.022
 8435W        W73695   3.852  18.798   0.431
 8436W        W73696  24.102   2.457  13.763
 8437W        W73697  30.345   1.319   1.547
 8438W        W73698  23.347  18.317   1.413
 8439W        W73699  10.364  24.046   2.676
 8440W        W73700  35.576  20.224   0.910
 8441W        W73701   0.478  27.586  12.835
 8442W        W73702  27.798  25.083   3.477
 8443W        W73703   5.117   9.962   0.675
 8444W        W73704  42.047  43.999  11.135
 8445W        W73705  15.534  21.109  12.218
 8446W        W73706  31.631   0.321  12.175
 8447W        W73707  16.060  28.361  14.806
 8448W        W73708  15.171  42.251  11.359
 8449W        W73709  15.626  42.942   1.787
 8450W        W73710   9.364  22.731   4.386
 8451W        W73711  35.394  17.172   4.617
 8452W        W73712  11.265  10.088  12.029
 8453W        W73713  21.158  15.799  10.160
 8454W        W73714  33.933  18.838  11.081
 8455W        W73715   9.838  25.216  13.273
 8456W        W73716  30.862   5.791  11.470
 8457W        W73717   7.275  31.091   2.174
 8458W        W73718  37.310  21.661  11.997
 8459W        W73719  20.133  23.598  10.230
 8460W        W73720  10.154  39.498  14.956
 8461W        W73721  16.612  18.977   0.884
 8462W        W73722  23.330  15.701  13.866
 8463W        W73723  41.848  13.307  10.979
 8464W        W73724  32.266  14.570  12.542
 8465W        W73725  11.988  29.133  12.964
 8466W        W73726  38.480  13.545  13.551
 8467W        W73727  23.161  27.506   4.564
 8468W        W73728  43.571   1.806   2.193
 8469W        W73729   3.720  21.247  11.622
 8470W        W73730  28.879  21.039  14.892
 8471W        W73731  14.608  43.843   4.527
 8472W        W73732  42.711  44.352   1.759
 8473W        W73733   6.562  36.260  13.991
 8474W        W73734  13.262  18.646   2.490
 8475W        W73735  20.975   3.726   4.722
 8476W        W73736  35.856  37.369  13.120
 8477W        W73737  31.079  31.147  12.126
 8478W        W73738   1.625  14.191  14.053
 8479W        W73739  31.902  27.665  11.134
 8480W        W73740  16.137  21.675   2.760
 8481W        W73741  33.906  33.399   2.752
 8482W        W73742  34.080  17.679   3.529
 8483W        W73743  40.105   3.152  13.895
 8484W        W73744  27.179  11.970   3.930
 8485W        W73745  19.535   6.008   2.671
 8486W        W73746  36.202  32.870   1.059
 8487W        W73747  11.069  18.456   1.980
 8488W        W73748  41.839  14.210   0.164
 8489W        W73749  10.121  25.682  13.780
 8490W        W73750  10.913  20.994  13.350
 8491W        W73751  23.547  20.673  12.447
 8492W        W73752  44.942  42.055  12.128
 8493W        W73753  23.682  20.388  12.033
 8494W        W73754  36.947  32.359   0.573
 8495W        W73755  44.132  19.153   4.614
 8496W        W73756  39.498  39.532  12.498
 8497W        W73757   2.487  24.173  11.108
 8498W        W73758   3.384  29.132   0.934
 8499W        W73759  11.291   4.183  12.465
 8500W        W73760   8.890   3.497  13.048
 8501W        W73761  12.384  40.830  11.542
 8502W        W73762  41.448  15.775   1.045
 8503W        W73763  26.922  31.678  14.827
 8504W        W73764  20.332   9.364  13.389
 8505W        W73765   0.289  39.380  10.448
 8506W        W73766  28.054  44.746  13.438
 8507W        W73767  31.724   9.817   4.698
 8508W        W73768   7.494  24.076   0.467
 8509W        W73769  27.092   0.286   3.125
 8510W        W73770  16.625  12.435   4.080
 8511W        W73771  41.605  14.854  13.389
 8512W        W73772  16.315   3.804  11.902
 8513W        W73773   2.176  20.665   0.728
 8514W        W73774  23.500  31.647  13.023
 8515W        W73775   1.036   9.284   0.188
 8516W        W73776  29.509  21.646   2.820
 8517W        W73777   8.675  35.425   0.314
 8518W        W73778  24.448  28.609  11.025
 8519W        W73779  23.125  16.687  12.597
 8520W        W73780  11.081  27.189   1.822
 8521W        W73781  35.461  22.367  13.481
 8522W        W73782  44.555  14.278  13.044
 8523W        W73783  12.121  40.279   2.765
 8524W        W73784  14.967  21.539   2.211
 8525W        W73785  42.568   0.433  14.425
 8526W        W73786  24.289  32.040  10.698
 8527W        W73787  11.037   2.350  13.937
 8528W        W73788  20.183  29.620  14.213
 8529W        W73789   1.360  41.469   3.670
 8530W        W73790  20.633  36.870  10.947
 8531W        W73791   2.224  38.875   3.670
 8532W        W73792  29.921  29.987   3.174
 8533W        W73793   6.667   4.141   1.600
 8534W        W73794   8.336   4.515   0.362
 8535W        W73795  25.565  14.282   2.119
 8536W        W73796  11.381  22.760  12.566
 8537W        W73797  28.364  32.140   0.326
 8538W        W73798  27.497  42.922   4.688
 8539W        W73799  38.894  14.609   3.870
 8540W        W73800  32.841  29.618   4.133
 8541W        W73801  26.356  32.105  10.766
 8542W        W73802  12.930  14.684   3.932
 8543W        W73803   2.382  21.131   1.884
 8544W        W73804  17.173  11.680  14.704
 8545W        W73805  27.378  13.089  14.384
 8546W        W73806  25.540   6.235   0.601
 8547W        W73807   2.840   2.028   0.391
 8548W        W73808  29.939  28.291  11.152
 8549W        W73809  19.601  44.538   2.784
 8550W        W73810  25.442  34.937   1.277
 8551W        W73811   0.894  35.822  10.685
 8552W        W73812  28.369  25.587  10.665
 8553W        W73813  26.520  19.796  14.503
 8554W        W73814  27.726   7.684   1.664
 8555W        W73815  34.082  44.436  11.264
 8556W        W73816   5.044  16.545   1.488
 8557W        W73817  42.640  20.874  11.422
 8558W        W73818  18.355  41.328  10.264
 8559W        W73819   1.830  23.185  14.908
 8560W        W73820  25.091  38.110   0.413
 8561W        W73821  38.950   5.184   3.357
 8562W        W73822  20.138  43.017   3.280
 8563W        W73823  30.570  33.104  10.652
 8564W        W73824  31.074  36.654  14.667
 8565W        W73825   2.266  29.958  13.177
 8566W        W73826  12.841  35.574   1.746
 8567W        W73827  16.041  14.368  10.976
 8568W        W73828  42.604  39.546   4.419
 8569W        W73829  14.363  18.175  14.493
 8570W        W73830  42.657  23.677   1.457
 8571W        W73831   3.703  41.082   2.332
 8572W        W73832   6.258  35.607  14.637
 8573W        W73833  13.253  10.408  11.587
 8574W        W73834   9.794  11.670   2.839
 8575W        W73835  18.913  41.331   3.607
 8576W        W73836  39.773   8.812  13.408
 8577W        W73837  34.831   7.583   1.889
 8578W        W73838   3.348  21.552  12.536
 8579W        W73839  35.630  12.643   1.192
 8580W        W73840  22.910   8.910  10.446
 8581W        W73841   0.570   5.766   1.954
 8582W        W73842   3.660  10.558  14.892
 8583W        W73843  12.644   2.184   2.716
 8584W        W73844  10.257   0.875  13.910
 8585W        W73845  25.802  26.169   1.925
 8586W        W73846   1.195  23.814  11.526
 8587W        W73847  42.790  21.112  13.012
 8588W        W73848  28.223  38.467  12.178
 8589W        W73849  12.727  14.989   0.829
 8590W        W73850  14.644  34.375  11.085
 8591W        W73851   0.404   0.525   1.370
 8592W        W73852  31.729  22.690  13.549
 8593W        W73853  33.523  22.496   2.668
 8594W        W73854  33.967  13.227  14.945
 8595W        W73855  35.538  15.399   1.341
 8596W        W73856  32.128  26.171  14.405
 8597W        W73857   1.476   4.779   2.894
 8598W        W73858  12.157  18.620   4.217
 8599W        W73859   8.869  28.482   1.285
 8600W        W73860  24.612  34.793   2.120
 8601W        W73861  11.347  19.564   1.178
 8602W        W73862   0.905   1.943  13.100
 8603W        W73863  12.768  26.218   0.758
 8604W        W73864   3.321  44.483  13.855
 8605W        W73865  27.160  43.452  14.036
 8606W        W73866  43.417  44.692   3.556
 8607W        W73867  22.503  21.826   4.217
 8608W        W73868   5.477  26.537   0.759
 8609W        W73869  20.226  16.638  14.510
 8610W        W73870  13.273  28.564   0.417
 8611W        W73871   6.837  40.895  10.709
 8612W        W73872  32.957  14.937  10.559
 8613W        W73873  40.902  18.177  10.684
 8614W        W73874  14.526  20.661   1.968
 8615W        W73875  26.534  43.414  12.846
 8616W        W73876  40.779  30.624  14.543
 8617W        W73877   0.509  22.448   4.136
 8618W        W73878  36.960  27.488  11.422
 8619W        W73879  10.290  31.578   3.152
 8620W        W73880  20.276  15.862  11.882
 8621W        W73881   6.176  28.121  14.434
 8622W        W73882  38.585   0.348  13.590
 8623W        W73883  40.933   7.619  14.962
 8624W        W73884  18.475  37.574  14.330
 8625W        W73885  38.512  22.421  12.338
 8626W        W73886  23.115  14.102  10.900
 8627W        W73887  36.625  13.048   4.124
 8628W        W73888  23.544  35.063   2.162
 8629W        W73889  27.847  22.445   3.673
 8630W        W73890   2.680  37.801  14.814
 8631W        W73891  38.720  30.138  12.833
 8632W        W73892   4.308  19.827  12.749
 8633W        W73893  22.442  44.784   0.895
 8634W        W73894   1.031  34.450   0.238
 8635W        W73895  44.199  42.589   0.311
 8636W        W73896  31.641  34.191   3.210
 8637W        W73897   5.893  23.218   0.396
 8638W        W73898  14.193  42.391   4.519
 8639W        W73899  42.999  15.681   2.909
 8640W        W73900  17.481  33.536  13.340
 8641W        W73901  21.513  19.173   5.627
 8642W        W73902  39.777   9.126  12.978
 8643W        W73903  31.452  31.748  14.913
 8644W        W73904  34.853  19.233  13.492
 8645W        W73905  18.118  35.317   4.597
 8646W        W73906  10.814  13.699   3.642
 8647W        W73907  20.010  42.829   0.677
 8648W        W73908  28.732  34.442  12.926
 8649W        W73909   4.719  18.568   3.645
 8650W        W73910   7.168   1.277  14.805
 8651W        W73911   4.322  33.492   4.901
 8652W        W73912   5.581  30.046   3.384
 8653W        W73913  22.013   5.691   2.787
 8654W        W73914   6.001   3.361  13.225
 8655W        W73915  34.105  10.942   0.438
 8656W        W73916  27.458  32.167   4.046
 8657W        W73917  41.524  10.200   4.614
 8658W        W73918  12.181  25.988   3.295
 8659W        W73919   1.951  41.375   1.469
 8660W        W73920  15.342   0.933  13.736
 8661W        W73921  27.940  44.240   0.470
 8662W        W73922   4.435  41.361  10.776
 8663W        W73923   4.352  43.852   0.572
 8664W        W73924   8.903   3.334   1.224
 8665W        W73925  18.515   2.713  12.361
 8666W        W73926  41.436  40.795   1.445
 8667W        W73927   1.406  11.779   3.192
 8668W        W73928   2.874  29.707   3.454
 8669W        W73929  21.970  39.911   1.299
 8670W        W73930  29.636   7.058   0.272
 8671W        W73931  28.602  17.373  12.205
 8672W        W73932   7.284   4.225  13.910
 8673W        W73933   5.353  22.964  12.831
 8674W        W73934  38.359  20.121   0.198
 8675W        W73935  16.997   2.112  12.668
 8676W        W73936  14.731  18.864   3.485
 8677W        W73937  19.006  14.616  13.976
 8678W        W73938   5.848  23.950  10.628
 8679W        W73939  30.867  42.009  10.716
 8680W        W73940  25.154  19.030   3.520
 8681W        W73941  32.015  24.885   2.685
 8682W        W73942  40.896  25.614   2.192
 8683W        W73943  10.756   8.293  12.325
 8684W        W73944   6.465  35.710   4.092
 8685W        W73945  13.790   3.599  12.355
 8686W        W73946   5.611   3.328   2.663
 8687W        W73947  15.569   4.351  12.941
 8688W        W73948  29.052   2.783   2.779
 8689W        W73949  22.957  13.703   3.566
 8690W        W73950  11.149  20.129   2.891
 8691W        W73951  26.169  40.565  14.228
 8692W        W73952  43.296  43.086  13.129
 8693W        W73953   1.884  40.762  11.084
 8694W        W73954  35.781  41.485   2.638
 8695W        W73955  39.362  42.932   1.268
 8696W        W73956  28.452  14.738  14.244
 8697W        W73957   2.665   2.881  10.650
 8698W        W73958  35.938   9.263   3.100
 8699W        W73959  13.953  24.053  11.502
 8700W        W73960  31.423  41.065   1.450
 8701W        W73961   1.239   4.265   3.712
 8702W        W73962  18.824  28.918   3.694
 8703W        W73963  44.448   4.214  14.127
 8704W        W73964  30.888  16.770   1.393
 8705W        W73965  30.864  21.967  10.974
 8706W        W73966  21.521  40.108  13.167
 8707W        W73967   3.510  14.043  13.762
 8708W        W73968   3.448  36.982  11.731
 8709W        W73969  32.373  34.898   1.961
 8710W        W73970  26.097  43.521  11.970
 8711W        W73971   3.670  43.484  13.992
 8712W        W73972   1.352  38.066   2.712
 8713W        W73973   3.213   6.020   3.628
 8714W        W73974  26.550  35.666   4.721
 8715W        W73975   1.986   4.247   3.317
 8716W        W73976   5.618  36.442  11.646
 8717W        W73977  29.893  16.157  13.296
 8718W        W73978  15.401  44.325   0.959
 8719W        W73979  29.028  34.239   2.380
 8720W        W73980   4.578  19.053   3.096
 8721W        W73981  33.920   4.329  14.306
 8722W        W73982   2.989  36.856   2.955
 8723W        W73983  37.057  29.838  10.847
 8724W        W73984  37.446  12.553  13.757
 8725W        W73985  42.974  30.913  12.516
 8726W        W73986   8.234  25.644  10.962
 8727W        W73987  36.971  42.457   4.339
 8728W        W73988  37.158  25.245   3.398
 8729W        W73989  14.103  41.947  12.671
 8730W        W73990   1.721  19.281   4.672
 8731W        W73991  38.460  16.086   0.762
 8732W        W73992  23.451   4.257   2.775
 8733W        W73993   9.360  12.856  10.477
 8734W        W73994  40.505   0.284   9.782
 8735W        W73995   5.577   8.224   0.484
 8736W        W73996   5.767  39.759   4.582
 8737W        W73997   5.939  42.314  13.432
 8738W        W73998  39.525   0.813   0.401
 8739W        W73999  35.037  19.252   2.724
 8740W        W74000  16.775  14.746  14.776
 8741W        W74001  15.320  28.170   4.146
 8742W        W74002  32.191  44.984  13.944
 8743W        W74003  21.549   4.994   1.493
 8744W        W74004   0.826  40.480  10.621
 8745W        W74005  39.338  36.102   2.631
 8746W        W74006  13.384  13.921  14.099
 8747W        W74007  39.393  31.363   1.246
 8748W        W74008  36.492  28.389   3.055
 8749W        W74009  18.095  11.553  12.133
 8750W        W74010  35.854   5.158  12.062
 8751W        W74011  43.846   3.728   4.201
 8752W        W74012  19.756  15.110   3.260
 8753W        W74013  12.417  43.366  11.916
 8754W        W74014  18.186   2.989   2.810
 8755W        W74015   7.960  41.131   2.805
 8756W        W74016  13.742   3.697   4.069
 8757W        W74017  15.808  40.766   1.280
 8758W        W74018  22.964  42.254   0.338
 8759W        W74019   4.442  38.299  13.129
 8760W        W74020  40.888  16.893   3.384
 8761W        W74021  18.877  24.526   3.375
 8762W        W74022  36.367   8.368  13.844
 8763W        W74023   8.958  29.603   2.483
 8764W        W74024   3.101  15.914   0.312
 8765W        W74025  21.937  41.389   4.349
 8766W        W74026  30.619  43.108  14.033
 8767W        W74027  10.948  16.571   2.357
 8768W        W74028  19.988  43.935  12.049
 8769W        W74029   6.284  19.193  14.410
 8770W        W74030   7.218   8.191   1.236
 8771W        W74031  33.576  10.525   9.870
 8772W        W74032  27.211   4.879   9.995
 8773W        W74033   2.044  15.416  13.492
 8774W        W74034  42.953  40.809   4.560
 8775W        W74035  36.996  20.336   4.102
 8776W        W74036  34.582   9.265  11.481
 8777W        W74037   6.875  14.688  11.167
 8778W        W74038  38.624   9.128   2.242
 8779W        W74039  14.143   9.905   3.329
 8780W        W74040  10.601  37.022  13.164
 8781W        W74041  40.181  23.547   0.396
 8782W        W74042  16.737  28.669   4.106
 8783W        W74043  10.282  33.155   2.298
 8784W        W74044   1.943  38.504   1.661
 8785W        W74045  21.197  22.427   1.752
 8786W        W74046  24.241  38.945  13.978
 8787W        W74047  23.139   0.849  12.733
 8788W        W74048  39.808  31.813  10.900
 8789W        W74049  11.079  42.467  11.688
 8790W        W74050  23.038  25.133  14.426
 8791W        W74051   8.165  33.575  14.760
 8792W        W74052  14.957  39.523  11.596
 8793W        W74053  15.022  43.106   4.136
 8794W        W74054   8.037   1.370   3.332
 8795W        W74055   8.401   6.313   0.756
 8796W        W74056  22.427  44.361  13.943
 8797W        W74057  13.848  26.461  12.981
 8798W        W74058  35.864   8.869  10.792
 8799W        W74059  21.533   0.417  11.365
 8800W        W74060   3.999  39.083   4.204
 8801W        W74061  44.908   7.693  14.339
 8802W        W74062  12.186  15.834  13.904
 8803W        W74063  36.399  34.128  14.270
 8804W        W74064  30.425  43.577  10.608
 8805W        W74065  16.765   2.500   3.763
 8806W        W74066  24.140  44.871  14.475
 8807W        W74067  34.183   2.636   1.442
 8808W        W74068   1.464  23.515   2.761
 8809W        W74069  15.301  21.621   3.188
 8810W        W74070   3.477  15.868  12.973
 8811W        W74071  14.734  31.937  14.948
 8812W        W74072  12.258   5.854  12.883
 8813W        W74073  23.729  28.542   0.692
 8814W        W74074   7.915  36.880  12.518
 8815W        W74075   9.804  12.562   1.205
 8816W        W74076  21.293  42.180   5.075
 8817W        W74077  41.887  32.362  13.410
 8818W        W74078   6.669  30.215  14.508
 8819W        W74079  26.102  13.447   4.152
 8820W        W74080  36.996  44.718   1.905
 8821W        W74081  18.707  30.807  11.826
 8822W        W74082   9.824  44.585  14.101
 8823W        W74083  16.709  18.537   1.752
 8824W        W74084  22.226  11.401   3.115
 8825W        W74085  42.866  29.455   5.035
 8826W        W74086  41.593  13.945   1.343
 8827W        W74087  36.330  42.330  14.045
 8828W        W74088  16.411  37.759  12.082
 8829W        W74089  39.006  30.384   0.867
 8830W        W74090  10.254   1.664   0.272
 8831W        W74091  42.763  41.879  10.883
 8832W        W74092  44.529  29.610   4.007
 8833W        W74093  25.210  34.665  12.343
 8834W        W74094  20.571  29.616  12.848
 8835W        W74095  11.670   6.170   9.781
 8836W        W74096  39.019   3.383   4.195
 8837W        W74097  18.514  35.135   4.952
 8838W        W74098  22.277   5.173   0.054
 8839W        W74099  27.106  36.950  13.762
 8840W        W74100  35.591  32.021   5.009
 8841W        W74101  17.284  33.644  14.746
 8842W        W74102  23.645  37.879   4.638
 8843W        W74103   1.339  30.644  10.758
 8844W        W74104  13.539  25.738  10.881
 8845W        W74105  17.286  27.201  13.823
 8846W        W74106   3.743   9.663   4.074
 8847W        W74107   0.713  40.342   2.493
 8848W        W74108  36.417  39.489   0.897
 8849W        W74109  29.614  32.062  14.970
 8850W        W74110  27.126  29.411  11.139
 8851W        W74111   3.400  10.660   3.166
 8852W        W74112  14.795  39.466   2.713
 8853W        W74113  20.359  22.000   1.732
 8854W        W74114   1.309  17.779   0.750
 8855W        W74115  18.230   5.741  11.381
 8856W        W74116  11.942  13.630  14.044
 8857W        W74117  20.252  32.944  12.351
 8858W        W74118  35.823  11.841   0.411
 8859W        W74119  12.875  19.671   3.292
 8860W        W74120  18.074   7.821   2.373
 8861W        W74121  15.008  43.215  11.096
 8862W        W74122  44.900  32.552  13.238
 8863W        W74123  41.720  27.602  14.382
 8864W        W74124  16.738  24.058   1.911
 8865W        W74125  36.477   4.251  14.983
 8866W        W74126  21.709   2.562  11.062
 8867W        W74127  42.353  30.097  11.473
 8868W        W74128  34.938  13.300  12.035
 8869W        W74129  10.137  15.731  14.875
 8870W        W74130  39.984   9.592  12.969
 8871W        W74131  36.954  37.833   3.645
 8872W        W74132  25.072  26.423   3.888
 8873W        W74133  39.428  39.895  10.420
 8874W        W74134  34.452   0.415   1.534
 8875W        W74135  25.739  30.538   2.325
 8876W        W74136   3.410  40.811   0.483
 8877W        W74137  28.471  44.364   0.388
 8878W        W74138   5.719  12.689  12.008
 8879W        W74139  35.403   4.230   4.137
 8880W        W74140  44.463  44.354  11.184
 8881W        W74141  41.521  12.249  14.443
 8882W        W74142  34.852  15.892  12.382
 8883W        W74143  33.616   5.334  10.668
 8884W        W74144  17.360  29.186   3.795
 8885W        W74145   6.879   2.334  10.813
 8886W        W74146  42.249  43.900   0.296
 8887W        W74147  36.048  39.595   1.875
 8888W        W74148  32.657  23.452   2.202
 8889W        W74149  18.506   0.275  14.069
 8890W        W74150   1.544  21.584   0.732
 8891W        W74151   9.898  32.390   0.697
 8892W        W74152  24.408  14.325  12.551
 8893W        W74153  41.502  34.405   2.607
 8894W        W74154  44.853  17.761  14.803
 8895W        W74155  28.808  17.398   0.852
 8896W        W74156  30.513   1.827   4.514
 8897W        W74157  38.480  36.434   2.222
 8898W        W74158  17.803   3.779  11.163
 8899W        W74159   8.648   3.168   3.855
 8900W        W74160  23.231  41.828   2.249
 8901W        W74161  11.917  35.522  13.004
 8902W        W74162   4.367  22.804   2.391
 8903W        W74163  14.166  32.165  11.673
 8904W        W74164  15.235  40.552   4.403
 8905W        W74165  26.658   0.945  13.904
 8906W        W74166  33.368  38.300  13.516
 8907W        W74167  32.084  33.588   4.332
 8908W        W74168   6.109  36.967  12.179
 8909W        W74169  34.423  23.245  12.454
 8910W        W74170   6.888  16.912   3.730
 8911W        W74171  29.828  15.345   1.186
 8912W        W74172  20.529  23.225   2.747
 8913W        W74173   6.790   8.187  12.006
 8914W        W74174  13.457  15.808  13.384
 8915W        W74175   2.208  37.947  13.871
 8916W        W74176  35.106   5.764   4.279
 8917W        W74177  43.573  18.934  12.471
 8918W        W74178   6.213  41.858  13.370
 8919W        W74179   8.897  25.099   3.659
 8920W        W74180   3.319  40.871   4.229
 8921W        W74181  18.544  25.352  13.527
 8922W        W74182   9.181  25.081  13.132
 8923W        W74183  30.909   5.676   1.155
 8924W        W74184  40.313  25.070  13.362
 8925W        W74185   4.284  25.822  10.106
 8926W        W74186  32.163  26.253   2.422
 8927W        W74187  19.993  31.916   2.434
 8928W        W74188  18.794  27.763  13.406
 8929W        W74189  41.801  39.356   1.305
 8930W        W74190  21.752  23.932   1.230
 8931W        W74191  12.187   0.782  13.164
 8932W        W74192   2.771   0.470   4.581
 8933W        W74193  43.291  31.787  14.601
 8934W        W74194  35.102  23.172  11.228
 8935W        W74195  16.839  31.080  10.413
 8936W        W74196   4.364   6.757   1.809
 8937W        W74197   3.901   1.160  14.417
 8938W        W74198  19.836  16.043  12.576
 8939W        W74199   9.275  12.015  11.591
 8940W        W74200  20.785  28.080  14.026
 8941W        W74201  11.456  31.069   2.254
 8942W        W74202  24.766  10.724  11.015
 8943W        W74203  14.649  10.863   3.185
 8944W        W74204  14.730  40.766   0.964
 8945W        W74205   5.441  26.789  11.926
 8946W        W74206  42.055  38.892  11.525
 8947W        W74207  24.176  10.849  13.341
 8948W        W74208  33.516  37.884  13.169
 8949W        W74209  28.532  29.423   2.290
 8950W        W74210   7.436   6.143  11.182
 8951W        W74211  40.938  12.104  12.049
 8952W        W74212  34.853  17.174   3.641
 8953W        W74213  22.514  41.308   2.270
 8954W        W74214   1.491  30.428   2.409
 8955W        W74215  32.086  28.441   2.785
 8956W        W74216   2.372  12.792   2.340
 8957W        W74217  18.719  29.935  11.877
 8958W        W74218  31.450  39.321   1.876
 8959W        W74219   3.062   5.016  12.574
 8960W        W74220  20.625  17.956   3.490
 8961W        W74221   8.911  43.582  14.354
 8962W        W74222   9.736   3.382  11.667
 8963W        W74223  12.757  20.532  10.865
 8964W        W74224  24.017  32.321  13.042
 8965W        W74225   3.017  10.928   9.970
 8966W        W74226  30.569  35.317  10.581
 8967W        W74227  36.543  37.924   4.899
 8968W        W74228  40.339  33.795  12.884
 8969W        W74229  16.139   7.618   0.273
 8970W        W74230  17.677  18.088   1.035
 8971W        W74231  12.846  35.865   1.268
 8972W        W74232  24.177   9.780   4.826
 8973W        W74233   2.907  29.952   9.614
 8974W        W74234  43.069   8.343  14.556
 8975W        W74235  31.960  18.377   4.202
 8976W        W74236   4.787  39.172  10.517
 8977W        W74237  42.379  40.298   2.152
 8978W        W74238  44.193  13.458   4.895
 8979W        W74239  42.019   9.767   1.442
 8980W        W74240  10.066   1.958   2.724
 8981W        W74241  14.844  26.309   1.846
 8982W        W74242   9.124  18.128  13.070
 8983W        W74243  16.212   7.377  12.525
 8984W        W74244  32.553  42.996   0.815
 8985W        W74245  33.828  32.404   4.125
 8986W        W74246  33.483  18.195  11.171
 8987W        W74247   6.716  28.594   2.218
 8988W        W74248  43.243  26.700   3.666
 8989W        W74249  32.353   4.926  14.301
 8990W        W74250  39.831  11.262   3.257
 8991W        W74251  10.006  39.339  12.467
 8992W        W74252  39.963  27.036  14.451
 8993W        W74253  16.167   4.790   4.081
 8994W        W74254   9.785   3.006   4.564
 8995W        W74255  27.619  27.420   4.038
 8996W        W74256  35.447  33.377  10.430
 8997W        W74257  40.369  28.401  11.151
 8998W        W74258  13.422  11.303  13.086
 8999W        W74259  39.758  35.389   2.356
 9000W        W74260  26.062   0.424   1.928
 9001W        W74261   0.911  26.740   2.635
 9002W        W74262   1.162   4.812  11.406
 9003W        W74263  26.042  10.142  11.973
 9004W        W74264  36.305  41.052   0.278
 9005W        W74265  43.724  25.063  12.979
 9006W        W74266   2.735  34.919   1.497
 9007W        W74267  18.278  25.666   2.157
 9008W        W74268  41.516  41.991   4.202
 9009W        W74269  31.648  37.370   2.952
 9010W        W74270  25.362  18.541   1.755
 9011W        W74271  11.096  23.562   4.195
 9012W        W74272  18.133  15.024   3.115
 9013W        W74273  25.649  35.134   4.599
 9014W        W74274  20.807  35.376   2.821
 9015W        W74275  23.100  36.358   3.572
 9016W        W74276  41.489  12.931  14.784
 9017W        W74277   7.741  20.629  13.412
 9018W        W74278  41.545   3.396   3.800
 9019W        W74279  29.669  32.302   3.258
 9020W        W74280  22.376  26.262   4.197
 9021W        W74281   5.812  44.194   1.515
 9022W        W74282   7.168  36.428  11.215
 9023W        W74283  35.021  33.573  11.133
 9024W        W74284   0.155  19.665   3.222
 9025W        W74285  41.005  24.789   0.404
 9026W        W74286  42.790   9.722   2.832
 9027W        W74287  44.568  41.896  13.996
 9028W        W74288  18.913  36.972   1.052
 9029W        W74289  21.078  36.804  10.716
 9030W        W74290  27.965  35.570  14.081
 9031W        W74291   5.634  25.510   2.226
 9032W        W74292  23.804  38.531  10.705
 9033W        W74293  40.466  38.737  14.792
 9034W        W74294  13.256   3.288  13.386
 9035W        W74295  20.820  14.081  10.280
 9036W        W74296  18.058  26.646   3.132
 9037W        W74297  27.242   0.385  10.939
 9038W        W74298  10.976   3.880   0.727
 9039W        W74299  13.845  29.217  14.315
 9040W        W74300   0.965  20.718   3.099
 9041W        W74301  16.160  14.016   0.274
 9042W        W74302  14.833  37.903  14.167
 9043W        W74303  28.814  32.006  13.960
 9044W        W74304  19.788   5.327  13.954
 9045W        W74305   0.121  11.097   1.453
 9046W        W74306  13.046  38.326   4.706
 9047W        W74307  24.147  43.115  11.203
 9048W        W74308  13.095  21.682  13.551
 9049W        W74309  30.470   7.145   1.216
 9050W        W74310  11.797  36.084   5.180
 9051W        W74311  24.172  12.096   1.473
 9052W        W74312   7.666  16.761  11.506
 9053W        W74313  22.660  16.772   3.105
 9054W        W74314  17.272   5.210  11.949
 9055W        W74315  28.453   3.170   4.300
 9056W        W74316   6.960  40.702  12.951
 9057W        W74317  10.275  18.159   2.931
 9058W        W74318   6.894  18.748   1.942
 9059W        W74319  37.515  39.869   3.819
 9060W        W74320  44.399  30.039   3.741
 9061W        W74321  41.519  34.027   0.313
 9062W        W74322  37.500   1.701  14.877
 9063W        W74323  16.691   3.279   0.506
 9064W        W74324  41.873  13.257  12.330
 9065W        W74325  26.652  24.119  14.908
 9066W        W74326  30.599   4.513  14.414
 9067W        W74327   0.789  19.171  10.541
 9068W        W74328  24.704   1.798  13.368
 9069W        W74329  19.423  22.326   0.600
 9070W        W74330  13.870   5.305   3.306
 9071W        W74331  37.415  17.793  11.054
 9072W        W74332  30.678  22.577  11.696
 9073W        W74333  35.536   3.310  14.786
 9074W        W74334  34.543  37.145  12.893
 9075W        W74335  20.630  22.475  12.171
 9076W        W74336  34.064  24.699  14.842
 9077W        W74337   9.777  18.135  14.469
 9078W        W74338  28.110  26.003   1.674
 9079W        W74339  23.203  41.573  14.014
 9080W        W74340  39.611  27.572   4.192
 9081W        W74341   6.142  14.572  12.331
 9082W        W74342  10.704  43.261   3.450
 9083W        W74343  29.258  22.640   4.599
 9084W        W74344   3.963  12.874   0.785
 9085W        W74345  43.442  11.346   2.864
 9086W        W74346  33.331   6.619   2.195
 9087W        W74347  23.680  23.165  10.637
 9088W        W74348  35.884  13.327  13.894
 9089W        W74349   6.836  40.384  11.939
 9090W        W74350  32.856  39.233   1.062
 9091W        W74351  35.585  32.433   3.297
 9092W        W74352  24.990  22.301   4.844
 9093W        W74353   8.897  23.652  10.828
 9094W        W74354  11.796  36.456   3.281
 9095W        W74355  21.951  32.102   4.148
 9096W        W74356  30.770  28.445  13.841
 9097W        W74357  13.984  22.232  12.541
 9098W        W74358  20.087   6.031  11.255
 9099W        W74359  44.020   0.398  12.512
 9100W        W74360  38.014   3.745   2.914
 9101W        W74361  14.120  30.121   1.827
 9102W        W74362  14.384   1.870   3.762
 9103W        W74363  38.856  12.864   2.824
 9104W        W74364  18.141  29.995  14.769
 9105W        W74365  27.222  22.143  14.247
 9106W        W74366   1.986  25.597  11.309
 9107W        W74367  22.436  18.699   5.429
 9108W        W74368  39.332  32.965   1.289
 9109W        W74369  43.973  17.699  10.702
 9110W        W74370  34.492  15.406   0.566
 9111W        W74371  18.285  30.672   4.187
 9112W        W74372  19.973  10.410   3.186
 9113W        W74373  20.530   3.301  14.401
 9114W        W74374  32.569  24.599   2.221
 9115W        W74375   7.231  33.633  12.909
 9116W        W74376  34.580  29.121  13.838
 9117W        W74377  37.873   3.258   3.352
 9118W        W74378   5.557  38.919   4.128
 9119W        W74379  22.699   9.794   1.894
 9120W        W74380  16.292  33.128  12.875
 9121W        W74381  32.326  10.133   2.332
 9122W        W74382  27.866  40.317  11.608
 9123W        W74383  10.427  38.569   3.671
 9124W        W74384  44.093   6.431   3.127
 9125W        W74385   9.673  28.955  11.195
 9126W        W74386   7.001  29.143  11.690
 9127W        W74387   0.030   1.054   0.344
 9128W        W74388   3.825   2.365   0.648
 9129W        W74389  41.390  32.949  11.948
 9130W        W74390   9.812  37.099  10.978
 9131W        W74391  18.758  36.407  14.145
 9132W        W74392  17.470  41.497   3.741
 9133W        W74393  15.591  37.055  11.981
 9134W        W74394  15.240  38.921  13.411
 9135W        W74395   9.831  20.754  10.391
 9136W        W74396  28.444   8.433  14.441
 9137W        W74397  25.019  25.158   0.469
 9138W        W74398   1.191  21.138   2.672
 9139W        W74399  37.597  15.345   4.943
 9140W        W74400  40.919  27.198  11.852
 9141W        W74401  41.875  11.267  13.342
 9142W        W74402  27.898  24.889  11.078
 9143W        W74403  23.544   9.427  13.104
 9144W        W74404  36.377  30.883   3.651
 9145W        W74405  41.421  12.280   3.133
 9146W        W74406   2.416   9.296   4.546
 9147W        W74407  41.580  12.308   2.642
 9148W        W74408  31.536  24.779   4.254
 9149W        W74409   1.866  22.479   0.413
 9150W        W74410  11.365  12.708   4.336
 9151W        W74411  28.046  24.704  14.488
 9152W        W74412  25.427  31.788   3.918
 9153W        W74413  24.285   8.313   1.437
 9154W        W74414  17.950  18.893   2.830
 9155W        W74415  36.697  12.322  11.940
 9156W        W74416   6.887  44.752  13.872
 9157W        W74417   3.686  13.607   2.876
 9158W        W74418   9.607  17.847  10.606
 9159W        W74419  42.292  29.071   3.201
 9160W        W74420  21.809  20.666  10.549
 9161W        W74421  17.216  42.307   2.664
 9162W        W74422  24.119  39.568   4.931
 9163W        W74423  44.454   6.824  13.772
 9164W        W74424  23.264  43.253   2.362
 9165W        W74425   1.731  22.553  10.719
 9166W        W74426   1.404  40.084  10.765
 9167W        W74427  15.850   6.899  12.413
 9168W        W74428  27.342  30.078  12.894
 9169W        W74429  19.581  26.740  14.459
 9170W        W74430  16.749  39.864   3.065
 9171W        W74431  27.493  11.534  14.177
 9172W        W74432   0.057  14.366   2.228
 9173W        W74433  41.975   6.887   2.209
 9174W        W74434  30.920  40.733  11.516
 9175W        W74435  33.630  35.585   4.878
 9176W        W74436  19.508  17.733   3.693
 9177W        W74437  42.450   3.202  11.499
 9178W        W74438  31.415  25.900  14.475
 9179W        W74439  43.019   3.144   3.724
 9180W        W74440  18.055  27.945  11.630
 9181W        W74441  19.681  38.822  14.726
 9182W        W74442  31.728  23.496   2.078
 9183W        W74443  42.031   6.480  12.552
 9184W        W74444   1.320  15.173   0.216
 9185W        W74445  21.593  15.098   3.724
 9186W        W74446  17.749  38.127   3.038
 9187W        W74447  18.956  33.820  14.072
 9188W        W74448  16.548  27.688   2.922
 9189W        W74449  42.144  22.080   0.650
 9190W        W74450  15.019  17.114   3.700
 9191W        W74451  20.284  25.140   1.224
 9192W        W74452   5.613   0.904   3.980
 9193W        W74453  25.055  17.347  14.870
 9194W        W74454   9.122  24.614   3.643
 9195W        W74455  37.860  32.070   2.637
 9196W        W74456   5.269  24.725  12.428
 9197W        W74457  23.560  27.421  11.586
 9198W        W74458  25.700   6.832  13.069
 9199W        W74459  12.090  27.954   0.723
 9200W        W74460  15.123  40.338   0.350
 9201W        W74461  33.289  25.426  14.437
 9202W        W74462  27.049  16.183  11.948
 9203W        W74463  27.519  26.603   0.261
 9204W        W74464  29.536   2.766  12.684
 9205W        W74465  20.539  22.617  14.384
 9206W        W74466  16.526  34.395  14.892
 9207W        W74467   2.570   5.158   1.297
 9208W        W74468  26.238  23.507  11.672
 9209W        W74469  13.910  32.838  13.357
 9210W        W74470   3.470  40.915   3.297
 9211W        W74471  25.934  25.460  12.576
 9212W        W74472  13.344   8.808   2.162
 9213W        W74473  37.938  27.039   4.537
 9214W        W74474  11.696  34.385   2.175
 9215W        W74475  23.941  27.130  13.508
 9216W        W74476  23.179   2.178  13.400
 9217W        W74477   9.602   8.756   1.050
 9218W        W74478   9.706   9.367  12.535
 9219W        W74479  17.799  22.923   1.887
 9220W        W74480   5.021   3.837  14.197
 9221W        W74481  11.359  41.893  13.480
 9222W        W74482  22.562  21.573  11.596
 9223W        W74483  35.060  10.092  10.273
 9224W        W74484  28.257  20.288   4.099
 9225W        W74485   9.746   7.129   1.405
 9226W        W74486   0.236  34.881   1.744
 9227W        W74487  44.820  34.864  13.011
 9228W        W74488  16.048  40.071  11.882
 9229W        W74489   0.436  35.558   1.035
 9230W        W74490  11.568  18.141  14.034
 9231W        W74491   1.169  35.908  12.496
 9232W        W74492  23.916  12.266  13.418
 9233W        W74493  17.500  20.744   1.241
 9234W        W74494  26.026   8.960  11.535
 9235W        W74495  43.512  39.602  10.633
 9236W        W74496   2.415  30.240   0.882
 9237W        W74497  11.196   4.165  13.885
 9238W        W74498  16.828  11.268   1.724
 9239W        W74499  15.612  22.987   1.133
 9240W        W74500  15.559  44.904  14.352
 9241W        W74501  17.479  24.783  11.645
 9242W        W74502  28.476  21.080   2.322
 9243W        W74503  41.206  42.750   4.515
 9244W        W74504   9.867  30.381   0.835
 9245W        W74505  20.470  42.474  13.968
 9246W        W74506  38.348  13.591   4.801
 9247W        W74507  17.544  43.351  13.306
 9248W        W74508  28.588   5.345  14.745
 9249W        W74509   9.693  22.086   4.812
 9250W        W74510   6.289  25.892   1.683
 9251W        W74511  41.765   0.860  11.618
 9252W        W74512  24.910  34.426   2.346
 9253W        W74513  33.893  32.163   4.597
 9254W        W74514   1.440  31.612  13.672
 9255W        W74515  36.240  23.521   3.658
 9256W        W74516   5.380   1.239  14.530
 9257W        W74517  44.284   2.911   0.323
 9258W        W74518  41.960  26.444   3.707
 9259W        W74519  27.196  29.186   0.829
 9260W        W74520  34.938  42.321   4.872
 9261W        W74521  36.947  16.048   0.445
 9262W        W74522  31.223  18.608   4.583
 9263W        W74523  20.682  16.631  14.777
 9264W        W74524  11.550   3.312  14.196
 9265W        W74525  34.833  24.083  12.450
 9266W        W74526   6.900  11.712  14.325
 9267W        W74527  12.216  44.023  10.412
 9268W        W74528  13.524  14.358   1.997
 9269W        W74529  11.475  33.108  13.387
 9270W        W74530  28.571  15.754   1.726
 9271W        W74531   3.287  24.650   0.448
 9272W        W74532  27.423  11.881  11.565
 9273W        W74533  22.169  31.910   4.585
 9274W        W74534   9.788  12.689   2.684
 9275W        W74535  28.604  17.289   1.758
 9276W        W74536  29.950  27.463   3.165
 9277W        W74537   2.345   9.741  10.235
 9278W        W74538  28.455  26.548  14.876
 9279W        W74539   2.408  32.488   3.366
 9280W        W74540   0.492  22.397  10.997
 9281W        W74541  36.459  26.413  14.440
 9282W        W74542  36.816  12.885  12.985
 9283W        W74543  18.658   9.777   2.416
 9284W        W74544  15.308  29.557   2.139
 9285W        W74545  13.304  39.263   1.904
 9286W        W74546  20.371  15.134  13.065
 9287W        W74547  11.908  20.009  12.562
 9288W        W74548  23.662   2.662   0.852
 9289W        W74549   7.663  20.266  10.547
 9290W        W74550  20.814  24.980  14.727
 9291W        W74551  16.583  44.244   3.217
 9292W        W74552  13.289  42.826  12.257
 9293W        W74553  17.968  10.417  11.177
 9294W        W74554   6.888  39.423  13.542
 9295W        W74555  36.045   6.635   2.434
 9296W        W74556   3.205   4.494   3.712
 9297W        W74557  42.331   0.797  10.748
 9298W        W74558  31.332  34.957   5.026
 9299W        W74559   1.370  33.691   1.876
 9300W        W74560  30.476   4.438   1.832
 9301W        W74561  28.795  18.200   4.608
 9302W        W74562  16.385  41.898   4.534
 9303W        W74563  37.527  13.160  10.735
 9304W        W74564  39.908  34.142   4.115
 9305W        W74565  22.997   4.285  12.157
 9306W        W74566  40.647  19.739  12.595
 9307W        W74567  19.055  44.021  11.634
 9308W        W74568  33.992  44.837   0.627
 9309W        W74569  40.909  28.732   2.861
 9310W        W74570  40.860   7.475  13.412
 9311W        W74571   5.203   1.884   0.932
 9312W        W74572  25.511  34.125  13.501
 9313W        W74573  31.444  21.268  14.493
 9314W        W74574   1.439  28.669   4.139
 9315W        W74575  23.528  20.777   0.804
 9316W        W74576  17.138   6.290  10.811
 9317W        W74577  34.032  18.342  11.127
 9318W        W74578   5.979  18.440  13.310
 9319W        W74579   5.826  28.973   2.222
 9320W        W74580  38.874  33.454   4.626
 9321W        W74581  13.145  39.500   0.958
 9322W        W74582  33.101  35.404  14.752
 9323W        W74583   6.520  10.579  13.295
 9324W        W74584  43.008  38.520   4.546
 9325W        W74585  18.488  15.653   0.947
 9326W        W74586  16.586  20.694   0.377
 9327W        W74587  36.983  17.129  13.989
 9328W        W74588   9.449  17.324  14.515
 9329W        W74589  23.109  37.131  11.406
 9330W        W74590   0.673  16.625   3.877
 9331W        W74591  29.455  34.733  14.940
 9332W        W74592  39.018  29.097   4.363
 9333W        W74593  39.651  16.302   4.722
 9334W        W74594  20.161  40.479   4.130
 9335W        W74595  17.395  27.446  11.162
 9336W        W74596  15.763   8.963  10.270
 9337W        W74597   8.632  14.751   0.395
 9338W        W74598  27.309   7.261   0.452
 9339W        W74599  30.307   3.431  12.507
 9340W        W74600   1.325   6.667   1.517
 9341W        W74601   0.916  10.947  10.633
 9342W        W74602  43.758  42.419   2.651
 9343W        W74603   2.262  39.691  14.991
 9344W        W74604  16.014  20.794  11.555
 9345W        W74605  26.210  32.124   0.170
 9346W        W74606  21.942   9.296   1.928
 9347W        W74607  32.989  26.033  13.380
 9348W        W74608  14.848   5.168  12.007
 9349W        W74609  34.661  28.354   0.915
 9350W        W74610   0.125  23.413  11.386
 9351W        W74611  41.871  21.566   2.236
 9352W        W74612  35.636   0.347  14.553
 9353W        W74613  33.542  13.254   3.176
 9354W        W74614  34.509  38.950  11.668
 9355W        W74615  31.864  10.183  11.653
 9356W        W74616   9.093  20.225   2.715
 9357W        W74617  43.105  12.290   0.846
 9358W        W74618  18.970   4.253  12.367
 9359W        W74619  23.560  28.953   4.126
 9360W        W74620  25.945  15.060   2.070
 9361W        W74621  30.101   4.802   3.319
 9362W        W74622  33.900  19.563   2.926
 9363W        W74623  42.373  32.045   0.838
 9364W        W74624  25.005  42.414   0.951
 9365W        W74625  40.847  22.468   2.430
 9366W        W74626  16.651  37.454   0.801
 9367W        W74627  39.309  19.047  10.401
 9368W        W74628   0.351  38.094  13.071
 9369W        W74629  42.417  20.345  12.227
 9370W        W74630  42.532  30.783   1.515
 9371W        W74631  20.115  19.778  13.959
 9372W        W74632   2.883  25.095   2.834
 9373W        W74633  44.487  44.822   1.697
 9374W        W74634  23.320  10.875   0.843
 9375W        W74635  31.246   3.907  12.412
 9376W        W74636  21.680  44.574  12.514
 9377W        W74637   2.861  42.898  14.842
 9378W        W74638   7.460  15.726  11.982
 9379W        W74639  31.560  36.669  14.289
 9380W        W74640   4.628  15.184  11.138
 9381W        W74641  17.220  17.084   5.176
 9382W        W74642  15.778  34.056   4.419
 9383W        W74643  17.135  37.461  10.692
 9384W        W74644  31.526   1.406  14.403
 9385W        W74645  21.051  40.739  12.973
 9386W        W74646  35.936   3.333  10.835
 9387W        W74647  43.499  12.399   2.746
 9388W        W74648  40.861  19.443   3.882
 9389W        W74649  34.978  35.987  14.349
 9390W        W74650  38.357  40.570   0.406
 9391W        W74651  20.053  36.785  11.470
 9392W        W74652  41.905   9.287   1.329
 9393W        W74653   7.106  23.069  13.853
 9394W        W74654   5.859  15.773   2.144
 9395W        W74655  27.141  29.665   1.508
 9396W        W74656  11.107  16.288   2.778
 9397W        W74657  17.969  14.524  14.196
 9398W        W74658  33.001  17.771  13.523
 9399W        W74659   2.286  13.796  14.908
 9400W        W74660   3.455  17.297  10.720
 9401W        W74661  14.531  23.671  14.313
 9402W        W74662  43.468  35.867  12.578
 9403W        W74663  26.437   6.313   2.654
 9404W        W74664  44.674   1.280   3.148
 9405W        W74665  32.037  13.632  12.061
 9406W        W74666   1.478  22.910  12.447
 9407W        W74667  28.660  35.324   3.743
 9408W        W74668   4.141  28.781   5.102
 9409W        W74669   4.903  18.218   2.693
 9410W        W74670  41.849   8.720  14.924
 9411W        W74671  24.591  21.574   2.220
 9412W        W74672  23.462  17.864  10.044
 9413W        W74673  28.392  14.001  13.401
 9414W        W74674  44.221  26.021  12.532
 9415W        W74675   4.499  38.109  14.998
 9416W        W74676  14.071  34.025  10.681
 9417W        W74677  28.419  11.171  11.203
 9418W        W74678  19.204  39.108  12.046
 9419W        W74679  32.516  18.109  14.911
 9420W        W74680  14.915   6.944  12.379
 9421W        W74681  18.141  24.747  12.378
 9422W        W74682  26.073  44.183   4.641
 9423W        W74683  13.783  21.485   3.293
 9424W        W74684  30.993  25.019   3.128
 9425W        W74685  42.122  11.443  12.901
 9426W        W74686   9.877   4.564   3.434
 9427W        W74687  28.520   0.813   3.732
 9428W        W74688  43.412  20.040   2.798
 9429W        W74689  11.351  15.530  13.505
 9430W        W74690   4.803  29.673  11.133
 9431W        W74691  24.588  19.852   0.287
 9432W        W74692  23.833  13.214   0.951
 9433W        W74693  18.633  17.335  10.162
 9434W        W74694  23.307  24.242  14.375
 9435W        W74695  35.506  35.556  10.893
 9436W        W74696   3.966  16.652   0.927
 9437W        W74697  18.749  20.751   3.255
 9438W        W74698   4.777   9.695   0.992
 9439W        W74699  37.517  31.978   3.582
 9440W        W74700   2.433  37.429   0.938
 9441W        W74701  44.453   2.269   4.310
 9442W        W74702  33.565  30.791  13.023
 9443W        W74703  23.601   0.301  11.546
 9444W        W74704  15.717  10.292   4.877
 9445W        W74705  30.660  15.740  13.794
 9446W        W74706   4.279  23.670  13.967
 9447W        W74707  21.383  43.072  10.666
 9448W        W74708   0.432   1.703   1.787
 9449W        W74709  37.480  30.886   2.273
 9450W        W74710   6.352  21.284  13.950
 9451W        W74711   4.398  13.277  13.477
 9452W        W74712  10.917  33.042  14.273
 9453W        W74713  10.404  23.214  13.406
 9454W        W74714  39.053  32.300  14.639
 9455W        W74715  34.279  13.859  11.914
 9456W        W74716  10.437  41.019  12.592
 9457W        W74717  28.421  10.311   4.196
 9458W        W74718   2.350   6.654  14.859
 9459W        W74719  13.565  18.591  12.306
 9460W        W74720  21.123  23.669   1.169
 9461W        W74721  11.305  26.594   1.278
 9462W        W74722  17.265  36.856  10.009
 9463W        W74723  20.011  25.036   3.212
 9464W        W74724  20.566  28.879  11.935
 9465W        W74725  44.987  26.620  13.953
 9466W        W74726  13.298   2.960   3.247
 9467W        W74727  27.397  21.340  11.614
 9468W        W74728  16.099  34.855  14.899
 9469W        W74729   4.972  35.830   3.164
 9470W        W74730  33.932   3.326  12.796
 9471W        W74731  42.753  17.667   0.978
 9472W        W74732  44.899  31.544   1.755
 9473W        W74733  28.871  34.562  12.448
 9474W        W74734  19.838  28.448   2.315
 9475W        W74735  22.773  15.592  14.465
 9476W        W74736  42.549  28.529  14.163
 9477W        W74737  27.197  42.898  12.900
 9478W        W74738  35.760   3.442   1.462
 9479W        W74739  39.047  22.055   0.329
 9480W        W74740  20.095  37.589   1.843
 9481W        W74741   6.943  13.132   3.584
 9482W        W74742  43.242  37.100  13.843
 9483W        W74743   5.154   9.347   3.234
 9484W        W74744  17.087  32.634  12.411
 9485W        W74745  15.774  42.815  12.731
 9486W        W74746  35.571  41.511   0.633
 9487W        W74747  31.500  11.330   4.424
 9488W        W74748  37.992  28.446  13.909
 9489W        W74749  40.760  44.317  14.381
 9490W        W74750  22.125   0.474   1.197
 9491W        W74751   9.596  13.726   0.326
 9492W        W74752  30.397  17.231   1.657
 9493W        W74753  20.162  44.362  14.686
 9494W        W74754  35.616  32.846  12.050
 9495W        W74755  38.301  20.974   2.354
 9496W        W74756  29.964  38.700   3.721
 9497W        W74757  40.605  27.674  11.530
 9498W        W74758  43.304  13.239  12.321
 9499W        W74759  37.880  25.755   4.107
 9500W        W74760  16.319  34.487   2.751
 9501W        W74761   0.817  10.268   2.770
 9502W        W74762   1.111   8.708   2.802
 9503W        W74763  11.677  24.382   2.149
 9504W        W74764  21.461  17.590   0.322
 9505W        W74765  30.256  22.525  14.515
 9506W        W74766  37.957  14.910   3.342
 9507W        W74767  12.834   3.656   2.285
 9508W        W74768  28.153   7.695  10.975
 9509W        W74769  21.020  26.767  13.034
 9510W        W74770  22.018  22.000   4.104
 9511W        W74771  21.168  21.187  10.757
 9512W        W74772  34.104   4.822  10.680
 9513W        W74773  43.315  15.338  11.960
 9514W        W74774  44.720  43.511  11.145
 9515W        W74775  11.680  12.999  11.512
 9516W        W74776  20.078   9.890   3.258
 9517W        W74777  37.366  22.992   0.742
 9518W        W74778  15.273  26.651  14.533
 9519W        W74779  39.322  37.229   0.813
 9520W        W74780  20.371  20.346  14.468
 9521W        W74781  43.999  39.995   3.207
 9522W        W74782   5.109  34.341   0.881
 9523W        W74783   8.013  20.605   1.172
 9524W        W74784  35.416  21.383   1.301
 9525W        W74785  16.263  43.782  12.404
 9526W        W74786  41.479  12.689  13.376
 9527W        W74787   5.964  37.965   4.066
 9528W        W74788  29.112  24.700  11.251
 9529W        W74789  41.246  30.433  14.702
 9530W        W74790  18.766  35.987  11.537
 9531W        W74791   6.531   5.775  11.570
 9532W        W74792   1.188  17.694   2.608
 9533W        W74793   1.274  21.542  12.081
 9534W        W74794  14.409  32.333   0.860
 9535W        W74795  41.361  38.400   4.153
 9536W        W74796   8.718  31.522  12.990
 9537W        W74797  37.460  22.242  13.045
 9538W        W74798   0.734   6.031  13.073
 9539W        W74799  17.038  34.174  13.976
 9540W        W74800   3.906   2.916  13.617
 9541W        W74801  42.328  13.487   0.209
 9542W        W74802  34.229  33.638  12.544
 9543W        W74803  24.488   8.690   2.403
 9544W        W74804  11.164   6.829   0.182
 9545W        W74805  32.330   9.749   2.674
 9546W        W74806  27.299   4.014  13.584
 9547W        W74807   0.728   2.288   3.416
 9548W        W74808   8.905  38.191   4.950
 9549W        W74809   1.225  37.417   1.937
 9550W        W74810   3.913  26.401  14.468
 9551W        W74811  43.970  19.638   4.391
 9552W        W74812   2.764  40.343  14.829
 9553W        W74813  13.427  26.178   4.503
 9554W        W74814  32.138  35.940  11.264
 9555W        W74815  27.174  37.993   4.238
 9556W        W74816  23.419  31.102   2.982
 9557W        W74817   9.035   1.454  11.216
 9558W        W74818  33.041   4.875  14.897
 9559W        W74819  35.361  43.161  10.723
 9560W        W74820  25.218  41.387  12.070
 9561W        W74821   6.209  26.229   4.630
 9562W        W74822  39.339  34.800   2.905
 9563W        W74823  35.582  44.023   1.204
 9564W        W74824   4.733   8.699  11.379
 9565W        W74825  41.407  19.989   0.441
 9566W        W74826  18.238  33.538  11.973
 9567W        W74827  34.326  32.033   2.726
 9568W        W74828  30.653  24.941  13.924
 9569W        W74829  20.435  37.336  10.679
 9570W        W74830  30.900  24.993  12.071
 9571W        W74831  25.254  37.478   2.038
 9572W        W74832  10.854  22.095   2.845
 9573W        W74833  10.917  25.319   4.513
 9574W        W74834  16.418  25.043   0.110
 9575W        W74835  44.745  10.442  11.101
 9576W        W74836  27.411   7.847   2.026
 9577W        W74837  35.990  24.420   2.484
 9578W        W74838  30.052   0.935  11.245
 9579W        W74839   9.904   9.756  13.562
 9580W        W74840  25.650  20.559   2.284
 9581W        W74841  29.159  44.093  12.362
 9582W        W74842   4.364  25.233  10.643
 9583W        W74843   9.193  31.111   2.521
 9584W        W74844  38.645  21.124  11.930
 9585W        W74845  37.023   7.417  12.416
 9586W        W74846  28.114   7.719  13.328
 9587W        W74847  16.535  44.494  14.792
 9588W        W74848   2.030   0.339   2.278
 9589W        W74849   5.266  31.635   2.285
 9590W        W74850  14.228  44.538   0.249
 9591W        W74851   7.201  39.812  13.577
 9592W        W74852  38.943  21.177  12.401
 9593W        W74853  44.359  10.917   9.878
 9594W        W74854   1.315  44.945   2.600
 9595W        W74855  26.750  25.993   0.441
 9596W        W74856  10.831  32.389   4.146
 9597W        W74857  37.563  11.617  13.360
 9598W        W74858   5.275  40.938   0.500
 9599W        W74859  35.293  17.215   0.365
 9600W        W74860  41.773  42.500  12.889
 9601W        W74861  22.526  13.087  14.806
 9602W        W74862  16.726  16.009  14.299
 9603W        W74863  43.732  22.310  14.810
 9604W        W74864  39.777  25.499   2.656
 9605W        W74865   1.401  31.830  14.708
 9606W        W74866  17.284  34.322   3.012
 9607W        W74867   9.691  21.843  10.608
 9608W        W74868  36.051  32.147  10.232
 9609W        W74869  33.360   3.111   1.254
 9610W        W74870  40.001   9.929  14.359
 9611W        W74871   4.977  21.635  14.665
 9612W        W74872   6.640  42.527   4.845
 9613W        W74873  33.734   5.767   3.167
 9614W        W74874  43.210  42.063  14.453
 9615W        W74875  11.743  27.697  13.506
 9616W        W74876  33.120   2.185  13.871
 9617W        W74877   1.529   5.706   3.315
 9618W        W74878   3.389  18.259   4.811
 9619W        W74879  16.880  28.120   1.918
 9620W        W74880  43.953  23.202   3.259
 9621W        W74881  21.171  20.161   4.224
 9622W        W74882   4.371   2.234  12.142
 9623W        W74883   7.770  34.483  14.828
 9624W        W74884   0.886  21.622   1.459
 9625W        W74885   3.843  36.957  12.184
 9626W        W74886  16.244  17.369   0.643
 9627W        W74887   3.769   9.715  11.915
 9628W        W74888  42.034  29.753  10.224
 9629W        W74889   1.158  26.473  12.520
 9630W        W74890   3.401  22.217   2.716
 9631W        W74891  18.653  35.302   1.669
 9632W        W74892  31.022   1.055   2.215
 9633W        W74893  36.925  43.425  10.636
 9634W        W74894  15.199   2.295   3.564
 9635W        W74895  28.516  39.068  14.844
 9636W        W74896  12.111  32.084   1.187
 9637W        W74897  15.708  23.405   5.058
 9638W        W74898  37.553  15.883   0.840
 9639W        W74899  25.054   0.373  12.643
 9640W        W74900   9.655  18.074  11.067
 9641W        W74901  19.039   8.608   1.778
 9642W        W74902   0.932  36.130  11.930
 9643W        W74903   5.652  19.271  14.786
 9644W        W74904  20.409   8.402   9.976
 9645W        W74905   8.003   1.979   2.858
 9646W        W74906  37.624  32.068   4.121
 9647W        W74907  19.274  31.517  13.058
 9648W        W74908  40.626   0.485  10.292
 9649W        W74909  17.927   5.665   2.314
 9650W        W74910   2.766  13.820  12.491
 9651W        W74911  28.657  39.743   2.100
 9652W        W74912  30.070  12.855   4.144
 9653W        W74913  28.918   8.307   0.419
 9654W        W74914  39.255  12.402  13.824
 9655W        W74915  26.242  35.670   4.308
 9656W        W74916  43.547  20.793   0.688
 9657W        W74917   3.459  38.050   4.334
 9658W        W74918  13.648  23.454  13.324
 9659W        W74919  26.922  44.813  13.060
 9660W        W74920  21.648  42.806  11.419
 9661W        W74921  40.883  19.283   4.390
 9662W        W74922  30.548   2.275  13.306
 9663W        W74923   7.822  41.153  11.653
 9664W        W74924  10.809  32.135   1.939
 9665W        W74925   3.692  32.533  12.280
 9666W        W74926   3.376  42.584  13.010
 9667W        W74927  35.903  43.369   1.649
 9668W        W74928   2.279  24.947  13.355
 9669W        W74929  39.343  16.673   4.979
 9670W        W74930   3.414  30.424   3.088
 9671W        W74931  43.389  44.020   4.145
 9672W        W74932  19.838  38.371  14.922
 9673W        W74933  17.560  44.229  11.744
 9674W        W74934   3.372  16.623   1.708
 9675W        W74935  28.165  44.974  14.895
 9676W        W74936  11.381   9.375  10.639
 9677W        W74937  22.567  40.297   1.277
 9678W        W74938  34.773  37.419   4.122
 9679W        W74939  44.766  43.797   4.662
 9680W        W74940  35.866  27.522   2.249
 9681W        W74941  39.942  15.153  11.023
 9682W        W74942  35.868  11.896  13.803
 9683W        W74943  27.125   1.868   0.730
 9684W        W74944  44.297   1.934  11.160
 9685W        W74945  24.006  22.675   3.726
 9686W        W74946  40.692  33.845  14.610
 9687W        W74947   2.527  22.435   2.974
 9688W        W74948  21.769  43.752  11.040
 9689W        W74949   6.265  18.128   2.392
 9690W        W74950  22.029  41.424   0.221
 9691W        W74951  43.915  31.527   3.159
 9692W        W74952  22.595  44.747   4.239
 9693W        W74953  33.125  38.965   3.261
 9694W        W74954  36.822  30.102   4.858
 9695W        W74955  13.673   5.021   1.216
 9696W        W74956  26.805  35.651  13.839
 9697W        W74957   2.299  14.823   4.586
 9698W        W74958   4.930   5.778   4.525
 9699W        W74959   7.353   4.046   3.609
 9700W        W74960  43.839  33.217   1.294
 9701W        W74961  32.536  34.939   2.447
 9702W        W74962  17.204  38.113   3.510
 9703W        W74963  27.104  15.892  11.508
 9704W        W74964  22.572  44.248   2.510
 9705W        W74965  37.617  44.389   3.656
 9706W        W74966   9.708   8.333  10.484
 9707W        W74967  23.074  29.255   3.573
 9708W        W74968  28.098  32.188  14.492
 9709W        W74969   3.201  40.464  13.511
 9710W        W74970  10.517  15.639   0.269
 9711W        W74971  19.710  11.372   1.992
 9712W        W74972  35.862   6.865   3.444
 9713W        W74973  36.934  18.561  11.169
 9714W        W74974  22.248  39.304   2.506
 9715W        W74975   8.652  17.837  13.810
 9716W        W74976   8.890  37.584   2.804
 9717W        W74977  44.010  29.873  13.785
 9718W        W74978  38.470  20.987   1.488
 9719W        W74979  12.531  40.099   2.494
 9720W        W74980  35.678   3.996   1.113
 9721W        W74981  11.780  36.495  12.872
 9722W        W74982  11.704   6.096   3.757
 9723W        W74983  17.442  44.060   5.019
 9724W        W74984  15.624  33.832  13.123
 9725W        W74985  22.566   5.955  12.539
 9726W        W74986  25.887  44.289  10.835
 9727W        W74987  37.154  36.092   3.355
 9728W        W74988  17.225   3.638   4.120
 9729W        W74989  10.195  12.795   1.482
 9730W        W74990  17.617   0.228  11.046
 9731W        W74991  44.776  25.824   0.672
 9732W        W74992  42.349   5.650  12.894
 9733W        W74993  41.829  15.434  10.292
 9734W        W74994   8.329  33.712   2.803
 9735W        W74995  29.100  29.468  12.637
 9736W        W74996  25.607  44.191   4.933
 9737W        W74997   9.021  26.572   2.758
 9738W        W74998  30.649  26.988   1.338
 9739W        W74999  32.036  13.207   2.302
 9740W        W75000  20.218  34.936   4.206
 9741W        W75001  23.285  38.523   4.793
 9742W        W75002   1.441  13.544   2.306
 9743W        W75003  39.367  36.002  14.705
 9744W        W75004  36.268  19.039   1.383
 9745W        W75005  30.602  40.002   3.865
 9746W        W75006   9.629  24.503   3.695
 9747W        W75007  20.028  38.005  14.513
 9748W        W75008  22.707  34.111  11.129
 9749W        W75009  40.811  31.159  14.503
 9750W        W75010  42.332  12.079  12.937
 9751W        W75011   7.343  43.408  14.931
 9752W        W75012  42.090  13.607   3.030
 9753W        W75013  27.114  43.290  14.525
 9754W        W75014   2.998  21.464  13.865
 9755W        W75015  32.858  10.236  11.615
 9756W        W75016   2.361  28.189   2.668
 9757W        W75017  16.148  42.101   4.127
 9758W        W75018  32.726   1.720  13.434
 9759W        W75019   9.015  32.497  12.104
 9760W        W75020   7.462  19.679  14.178
 9761W        W75021  26.476  29.310  14.349
 9762W        W75022  23.194  39.533  11.642
 9763W        W75023   0.198  42.959  12.369
 9764W        W75024  38.270  28.136  11.596
 9765W        W75025  42.695  32.673  12.947
 9766W        W75026  35.821  23.233   2.793
 9767W        W75027  36.595  27.039  12.038
 9768W        W75028  33.414  25.094   2.891
 9769W        W75029  31.071  38.428   3.349
 9770W        W75030   8.423  43.614   3.852
 9771W        W75031   9.717  10.098  14.659
 9772W        W75032   8.102  10.263  11.639
 9773W        W75033  22.281  20.710  14.458
 9774W        W75034  23.559  38.531  13.407
 9775W        W75035   5.363   1.766  14.518
 9776W        W75036  21.952  11.163  11.489
 9777W        W75037  15.876  42.795  13.770
 9778W        W75038  12.593   2.812  13.457
 9779W        W75039   6.704   4.102  14.804
 9780W        W75040   2.772  31.450  10.731
 9781W        W75041  19.276   2.689  14.242
 9782W        W75042  36.519   5.110   1.328
 9783W        W75043  31.346  43.394   2.256
 9784W        W75044  17.537  17.260  13.921
 9785W        W75045  40.286  37.046  12.019
 9786W        W75046  21.052  37.444   3.523
 9787W        W75047  17.603   1.117  14.222
 9788W        W75048  34.466  13.527  11.066
 9789W        W75049  38.454  24.329  11.147
 9790W        W75050  27.058  36.830   9.829
 9791W        W75051  34.235  12.592  10.575
 9792W        W75052  29.606  32.071  14.434
 9793W        W75053  31.416  20.359  11.968
 9794W        W75054  36.135  35.098   0.414
 9795W        W75055  22.056   6.384  13.983
 9796W        W75056  28.010  27.428  14.279
 9797W        W75057  10.862  34.059  12.200
 9798W        W75058  44.462  19.497  13.639
 9799W        W75059  44.063  33.605  12.328
 9800W        W75060  20.186  22.841   4.417
 9801W        W75061  11.416  24.529  10.604
 9802W        W75062  10.255  20.067   1.774
 9803W        W75063   1.988  29.311  12.721
 9804W        W75064   2.714  28.443   2.329
 9805W        W75065  24.332   0.273  14.256
 9806W        W75066  40.510  38.944  13.050
 9807W        W75067  38.526   9.440  12.511
 9808W        W75068  20.017  36.771   3.635
 9809W        W75069  34.398   4.658  11.996
 9810W        W75070  15.579  43.728  13.994
 9811W        W75071  39.271  10.801   1.268
 9812W        W75072  36.608  12.380  14.424
 9813W        W75073  11.485  37.496  12.981
 9814W        W75074  40.031  25.580  10.920
 9815W        W75075  21.579  16.783  11.180
 9816W        W75076  35.441  20.326  12.895
 9817W        W75077   5.881  15.815  14.870
 9818W        W75078  35.993  27.147  13.997
 9819W        W75079  44.345  38.561   3.387
 9820W        W75080  13.823  38.439   3.280
 9821W        W75081  22.961  12.062  11.205
 9822W        W75082  27.650   4.444  11.878
 9823W        W75083  30.122   0.463  13.866
 9824W        W75084  36.611   9.656   4.184
 9825W        W75085   2.379   4.958  11.174
 9826W        W75086  16.731  35.841   4.704
 9827W        W75087  24.640   8.922   2.860
 9828W        W75088  43.665  28.521  12.905
 9829W        W75089  39.505  25.548   2.229
 9830W        W75090  26.875  21.585   2.327
 9831W        W75091  41.326  44.613  10.188
 9832W        W75092  21.192  30.131  13.911
 9833W        W75093  41.909  19.824   0.414
 9834W        W75094  20.163  21.251   4.915
 9835W        W75095   6.421  17.318   0.477
 9836W        W75096  40.089  26.625   3.138
 9837W        W75097  41.176  13.263   0.855
 9838W        W75098  14.199   1.407  11.074
 9839W        W75099  20.630   6.951   1.250
 9840W        W75100  12.314  25.485   1.003
 9841W        W75101   7.210   9.828  11.612
 9842W        W75102  19.887  12.640   3.289
 9843W        W75103  22.193  18.794  12.280
 9844W        W75104   6.903  12.301  12.539
 9845W        W75105  29.445  19.845   5.173
 9846W        W75106  12.913   0.602   4.939
 9847W        W75107  27.757  28.624   3.265
 9848W        W75108  37.818  12.410   1.062
 9849W        W75109  15.516   3.313  11.086
 9850W        W75110  10.080  15.163   5.128
 9851W        W75111  26.686  26.246   2.955
 9852W        W75112   7.899  40.720  13.970
 9853W        W75113  21.219  26.804  10.282
 9854W        W75114   9.848  34.008  11.056
 9855W        W75115   1.812  31.881  13.382
 9856W        W75116   5.301  44.063   0.302
 9857W        W75117  30.694   8.745  13.319
 9858W        W75118  14.661  23.638  13.348
 9859W        W75119  13.040  28.457   1.393
 9860W        W75120   3.128  11.424   5.009
 9861W        W75121  44.807  25.801  14.008
 9862W        W75122  35.567  43.204  13.387
 9863W        W75123  38.016  34.885  11.287
 9864W        W75124  26.786  36.366   4.305
 9865W        W75125  44.967   1.421   1.143
 9866W        W75126  33.456   4.718   5.113
 9867W        W75127   6.368  24.078  10.616
 9868W        W75128   9.471  42.857   1.423
 9869W        W75129  36.892  42.360   2.747
 9870W        W75130  30.500  31.187  13.066
 9871W        W75131  25.261   9.946   4.926
 9872W        W75132  11.802  27.611   1.051
 9873W        W75133  41.586  39.961   3.136
 9874W        W75134  24.174  39.809  13.885
 9875W        W75135  39.613  32.534   1.464
 9876W        W75136   6.925   7.710  12.106
 9877W        W75137   9.405   5.822   4.792
 9878W        W75138   2.464  18.120  11.674
 9879W        W75139   3.184  39.512   2.188
 9880W        W75140  42.295  39.548   1.165
 9881W        W75141  20.075   6.942   5.911
 9882W        W75142  11.344  43.879   0.899
 9883W        W75143  19.178   9.331  10.869
 9884W        W75144  25.520  28.901  14.673
 9885W        W75145  31.075  27.649  13.327
 9886W        W75146  24.870  35.252  10.911
 9887W        W75147  37.199   4.235  11.108
 9888W        W75148  30.666  33.261   4.261
 9889W        W75149  28.944  38.863  11.548
 9890W        W75150  19.135  15.770  13.028
 9891W        W75151  19.335  27.214   2.740
 9892W        W75152  44.225  15.386  13.925
 9893W        W75153  33.545  12.866   2.334
 9894W        W75154  13.023   3.301  14.341
 9895W        W75155  33.814  16.219  14.325
 9896W        W75156  36.989   7.932  11.196
 9897W        W75157  19.536   0.676  10.276
 9898W        W75158  29.085   5.442   2.465
 9899W        W75159  32.948  12.361   1.254
 9900W        W75160  30.917  16.132   2.352
 9901W        W75161   4.239  35.426   3.316
 9902W        W75162  27.741  35.486  14.559
 9903W        W75163  13.926   8.055   5.356
 9904W        W75164   1.256   2.997  10.791
 9905W        W75165  21.793  30.563   0.490
 9906W        W75166  37.338   6.392  12.043
 9907W        W75167  27.602   1.949   2.465
 9908W        W75168  22.063  19.777  13.383
 9909W        W75169  21.964  26.299   2.957
 9910W        W75170  30.905  22.318   3.833
 9911W        W75171  30.843  10.431  12.427
 9912W        W75172  19.434   4.249  12.051
 9913W        W75173  20.205  29.216  12.129
 9914W        W75174  19.275  44.727   2.001
 9915W        W75175  44.353  40.856   0.384
 9916W        W75176  44.957  43.924   3.096
 9917W        W75177  29.475  44.702   3.241
 9918W        W75178  24.233  23.544   4.169
 9919W        W75179  25.659  21.753  13.266
 9920W        W75180  24.241  11.161   1.274
 9921W        W75181  21.153  33.255   5.095
 9922W        W75182  43.025  37.487   4.510
 9923W        W75183  28.725  13.832   2.736
 9924W        W75184  42.789  33.211   2.361
 9925W        W75185  43.294  28.849  11.503
 9926W        W75186  41.856   9.018   4.152
 9927W        W75187   1.909  27.965  12.548
 9928W        W75188  33.429  17.554  12.281
 9929W        W75189  12.807  37.880   1.198
 9930W        W75190  26.724   9.673   0.895
 9931W        W75191  43.261  43.073   0.329
 9932W        W75192  31.523   2.974  11.029
 9933W        W75193   8.119  25.128  13.363
 9934W        W75194   3.418  17.746  13.377
 9935W        W75195  36.864  44.550   1.449
 9936W        W75196   0.046  19.592  13.070
 9937W        W75197   4.861  23.460   4.042
 9938W        W75198  15.717  15.539  12.893
 9939W        W75199  11.837  21.195   0.046
 9940W        W75200  33.280  18.554   4.201
 9941W        W75201  15.593   2.801   4.095
 9942W        W75202  23.102  15.517  10.554
 9943W        W75203  18.176  33.643   1.229
 9944W        W75204  41.907   3.205  13.593
 9945W        W75205  17.613  23.197   3.556
 9946W        W75206  17.635  44.465  10.588
 9947W        W75207   1.526   1.069  13.872
 9948W        W75208  25.163  20.412   5.216
 9949W        W75209  12.540  42.442   0.065
 9950W        W75210   6.608  28.010   3.604
 9951W        W75211  34.035  37.078  12.908
 9952W        W75212  41.469  37.078   1.381
 9953W        W75213   5.122   5.386  10.625
 9954W        W75214  44.867  37.037   0.518
 9955W        W75215  34.811  44.907  13.140
 9956W        W75216  34.097  38.742   4.174
 9957W        W75217  16.558  15.152  14.521
 9958W        W75218   0.425  44.682  14.309
 9959W        W75219  37.009  31.138   1.379
 9960W        W75220  43.903   5.855  11.390
 9961W        W75221   5.472  43.434  12.023
 9962W        W75222  12.267  35.427   3.622
 9963W        W75223  16.337  14.186   0.727
 9964W        W75224   4.143  31.097  14.912
 9965W        W75225  14.176  41.828   3.687
 9966W        W75226  37.481  14.844   2.100
 9967W        W75227  14.906   0.305  14.095
 9968W        W75228   6.381  43.042   4.153
 9969W        W75229   9.670  38.351   2.115
 9970W        W75230  39.899  31.319   0.978
 9971W        W75231   4.859  12.104  11.381
 9972W        W75232  11.865  40.309   0.685
 9973W        W75233  38.372   6.730   5.026
 9974W        W75234  10.725   0.746   2.952
 9975W        W75235   6.564  38.684  13.880
 9976W        W75236  37.890   4.365  13.735
 9977W        W75237  38.465   4.762   4.479
 9978W        W75238  35.114  32.729   2.388
 9979W        W75239  44.554  38.201  10.255
 9980W        W75240  33.844  11.505  14.028
 9981W        W75241  40.398  38.742   2.763
 9982W        W75242  42.351  22.611  11.448
 9983W        W75243  34.488   3.048  11.979
 9984W        W75244  15.890  34.364  10.814
 9985W        W75245  19.758  27.476   2.166
 9986W        W75246   1.575  36.513   2.353
 9987W        W75247  42.844  34.114  11.650
 9988W        W75248   8.111   4.407   1.297
 9989W        W75249   5.889  30.530  12.577
 9990W        W75250   9.717   6.240  11.116
 9991W        W75251   0.960  40.861  13.528
 9992W        W75252  25.433  32.973   4.561
 9993W        W75253  32.970   5.906  11.040
 9994W        W75254  12.884   3.455   4.039
 9995W        W75255   7.455  12.249   1.890
 9996W        W75256  11.763  20.924   4.868
 9997W        W75257   4.387  37.300   3.964
 9998W        W75258  37.987  17.245   0.218
 9999W        W75259  15.315  15.571  11.194
10000W        W75260  33.977  12.278  11.405
10001W        W75261  13.729  19.336   2.357
10002W        W75262  27.678  38.823   0.329
10003W        W75263   6.683   4.979  11.544
10004W        W75264  12.250  33.935  12.102
10005W        W75265   9.756  14.130  10.324
10006W        W75266  15.995  23.975  13.429
10007W        W75267  39.223   0.119   3.318
10008W        W75268  27.606  14.342  14.019
10009W        W75269   3.873  44.984  12.527
10010W        W75270  26.555  17.357   1.015
10011W        W75271  32.860   9.824   2.726
10012W        W75272  25.421  40.515   1.367
10013W        W75273  30.536  25.974  12.901
10014W        W75274   2.190   1.873  13.945
10015W        W75275  38.084  10.684   4.073
10016W        W75276  40.493  22.233  12.538
10017W        W75277   8.746   6.093   0.267
10018W        W75278  16.012   6.908   3.423
10019W        W75279  20.202  29.435  10.829
10020W        W75280  31.582  43.072  12.199
10021W        W75281   9.188  18.761   4.821
10022W        W75282  31.519  25.743  12.891
10023W        W75283  11.671   6.332  14.389
10024W        W75284  22.532   1.262  13.828
10025W        W75285   8.284   3.283  14.813
10026W        W75286  17.793  31.376  10.520
10027W        W75287  31.644  20.604  10.756
10028W        W75288   9.287  37.437   0.957
10029W        W75289  26.751  23.590   3.430
10030W        W75290  15.785  26.201  13.853
10031W        W75291   6.852  32.302  11.185
10032W        W75292   2.560  14.666  14.421
10033W        W75293  20.509  11.731  10.456
10034W        W75294  15.947  13.943   3.849
10035W        W75295  41.761  41.259   3.189
10036W        W75296   2.783  11.074  10.592
10037W        W75297  10.230  24.077   0.322
10038W        W75298   6.291  27.182   2.231
10039W        W75299  33.143  15.708  12.409
10040W        W75300  41.572  13.576  12.617
10041W        W75301  37.875  43.315  14.806
10042W        W75302  10.145  14.367   3.684
10043W        W75303   1.807   7.918  11.653
10044W        W75304   2.055  16.522  12.232
10045W        W75305  26.616  40.260  11.184
10046W        W75306  10.010  38.332  14.246
10047W        W75307  44.993  43.126   1.481
10048W        W75308   5.282   3.996   0.090
10049W        W75309  42.985   0.808  11.580
10050W        W75310  38.909  14.237   2.736
10051W        W75311  20.209  39.561  12.017
10052W        W75312  35.497  17.747   0.968
10053W        W75313  12.836  38.367  12.456
10054W        W75314  43.688  20.677   1.321
10055W        W75315  39.719  15.206   4.666
10056W        W75316   7.329  23.797  11.703
10057W        W75317  13.075  26.507  10.622
10058W        W75318  28.442   0.327  12.286
10059W        W75319  11.150  18.777   2.664
10060W        W75320  25.426  43.480  11.111
10061W        W75321  41.199  26.761   0.474
10062W        W75322  12.771  43.318  10.636
10063W        W75323  23.184   7.477   1.201
10064W        W75324   9.642   3.860  13.527
10065W        W75325  17.224  16.807  13.848
10066W        W75326  12.014  30.106   0.320
10067W        W75327  35.644  27.360   5.067
10068W        W75328  37.807  15.314   0.732
10069W        W75329  12.369   9.363   5.162
10070W        W75330   2.770  20.747  12.519
10071W        W75331  30.923  27.526   0.218
10072W        W75332  26.143  16.726  12.449
10073W        W75333  21.183  10.584   3.227
10074W        W75334   0.700   9.439  13.843
10075W        W75335  19.028  25.071   1.361
10076W        W75336   1.212  38.002   0.802
10077W        W75337  31.145  18.925  11.033
10078W        W75338  43.808  37.999  11.543
10079W        W75339   3.685  15.652   4.085
10080W        W75340   7.272  10.192  12.873
10081W        W75341  38.872  35.930   3.843
10082W        W75342  19.851  24.168  12.683
10083W        W75343  24.305  29.005   4.575
10084W        W75344  39.102  24.083   4.271
10085W        W75345  17.633   3.864   2.670
10086W        W75346   6.348  19.066   4.910
10087W        W75347  10.103  43.053   2.216
10088W        W75348   1.423  26.067  12.789
10089W        W75349  14.783  14.876  12.949
10090W        W75350  28.172   2.246   4.371
10091W        W75351  44.312  22.203   3.809
10092W        W75352  31.706   9.230   0.973
10093W        W75353   3.452  38.056  14.339
10094W        W75354  40.101  10.377  14.579
10095W        W75355  21.067  44.152  11.349
10096W        W75356  12.200  14.114   4.331
10097W        W75357  19.592  26.264  11.899
10098W        W75358  40.955   7.887  12.124
10099W        W75359   1.566  27.133  14.502
10100W        W75360  18.776  42.388   3.916
10101W        W75361  36.117  44.482   2.410
10102W        W75362  19.929  32.896   2.180
10103W        W75363   5.304  38.596  13.578
10104W        W75364  14.270   0.545  12.969
10105W        W75365  19.057  20.745   2.780
10106W        W75366  25.816  33.756   0.080
10107W        W75367   7.414   0.870   4.313
10108W        W75368  11.183  40.807  11.132
10109W        W75369  28.900  21.071  10.674
10110W        W75370  22.675  19.739   2.396
10111W        W75371  26.172  30.324   0.342
10112W        W75372  33.735  29.160  14.493
10113W        W75373  44.710   3.972   0.830
10114W        W75374  43.689  38.383  10.381
10115W        W75375  30.455  28.391  11.929
10116W        W75376  20.686  22.515   1.244
10117W        W75377  35.070   6.777   2.108
10118W        W75378  29.234  35.537   2.391
10119W        W75379  18.962  43.140   2.762
10120W        W75380   6.756  16.419   4.537
10121W        W75381   9.850  37.509  10.669
10122W        W75382  14.106  25.217   2.036
10123W        W75383  17.708  36.108   4.728
10124W        W75384  39.043  29.978  11.954
10125W        W75385  43.751  38.757   0.312
10126W        W75386  28.488   7.244   2.170
10127W        W75387   1.510  30.612  12.614
10128W        W75388  16.214  35.540   4.621
10129W        W75389  16.627  28.486   3.127
10130W        W75390  27.866   0.715  13.283
10131W        W75391   1.706  36.629  14.228
10132W        W75392  10.591  35.387  14.758
10133W        W75393  15.866  27.173   3.234
10134W        W75394   3.298   8.710  11.162
10135W        W75395   5.773   3.781   1.366
10136W        W75396  43.085   4.855  12.133
10137W        W75397  37.292  31.044  13.950
10138W        W75398   3.243   7.150   2.822
10139W        W75399  19.492  21.928   2.643
10140W        W75400  28.730   3.805  13.090
10141W        W75401  28.159  13.621  13.998
10142W        W75402  17.182  28.947  13.126
10143W        W75403   0.483  23.267   0.198
10144W        W75404  17.967  41.823   2.171
10145W        W75405  16.748  25.926   1.334
10146W        W75406   7.246  17.234   0.717
10147W        W75407  14.324  22.043  10.758
10148W        W75408   9.619  37.418   3.528
10149W        W75409  27.779  32.264  11.052
10150W        W75410  41.257  32.102   4.734
10151W        W75411   6.700  22.877  11.186
10152W        W75412   0.810  40.019   2.061
10153W        W75413  14.111  18.829   4.753
10154W        W75414  31.903  12.835   0.021
10155W        W75415  34.148  39.002  14.926
10156W        W75416  40.552  38.776  13.937
10157W        W75417  30.900  38.069   4.246
10158W        W75418  35.133   2.330  12.661
10159W        W75419  42.465  21.412   4.730
10160W        W75420  13.877  29.057  12.804
10161W        W75421   7.674  33.861  13.045
10162W        W75422  29.824  31.297   3.267
10163W        W75423  15.280  13.259  14.353
10164W        W75424  29.130  23.774   2.775
10165W        W75425  21.437  41.319   4.219
10166W        W75426  23.918  33.057  12.419
10167W        W75427  31.952  14.830   0.327
10168W        W75428  19.788   4.730   0.686
10169W        W75429  30.967   9.577   0.422
10170W        W75430  29.536  16.365   0.265
10171W        W75431   8.184  20.824   4.113
10172W        W75432  32.492   7.699   4.211
10173W        W75433  15.832   3.914  13.052
10174W        W75434  41.443  33.132  14.753
10175W        W75435  40.761  24.505   4.544
10176W        W75436   7.867   1.616   4.238
10177W        W75437   5.126   6.271   1.471
10178W        W75438  27.042   3.495   3.787
10179W        W75439  31.611  41.250  13.081
10180W        W75440   1.188  20.272   2.419
10181W        W75441  30.454  39.423   2.266
10182W        W75442   0.710  17.863   1.920
10183W        W75443  26.123  11.132  10.608
10184W        W75444  15.931   3.252   4.677
10185W        W75445  42.337  39.090  12.351
10186W        W75446  25.575   9.657   2.420
10187W        W75447  19.931  28.393   3.704
10188W        W75448  25.577   0.901   0.315
10189W        W75449   4.299  44.018  13.150
10190W        W75450  37.496  36.752   1.098
10191W        W75451  22.917  11.299  13.073
10192W        W75452  30.575   0.773   3.735
10193W        W75453  40.842  29.745   0.130
10194W        W75454   4.808  41.047  12.497
10195W        W75455  39.497  27.948  10.357
10196W        W75456  19.780  19.258   2.762
10197W        W75457  18.643  22.805  14.314
10198W        W75458  29.090  22.181   3.347
10199W        W75459  10.170  14.310   0.017
10200W        W75460   3.813   1.432   4.118
10201W        W75461  11.701  28.674   2.763
10202W        W75462  30.338   3.302  14.797
10203W        W75463  19.288  16.870   1.207
10204W        W75464  11.208  42.913   2.312
10205W        W75465  26.874  33.346  11.140
10206W        W75466  22.729  33.404   3.595
10207W        W75467   4.772  36.815   0.511
10208W        W75468  43.052  10.232  12.416
10209W        W75469  15.744  22.933  12.910
10210W        W75470  16.121  23.185   2.840
10211W        W75471   6.686  33.715  14.950
10212W        W75472  36.601  10.923   0.714
10213W        W75473  36.821  22.210  11.219
10214W        W75474  33.953  17.894   1.373
10215W        W75475  40.243  24.185   1.203
10216W        W75476  33.352  22.669  13.382
10217W        W75477  10.138   3.269   3.762
10218W        W75478  35.104  32.596   2.875
10219W        W75479  23.145  31.120   2.173
10220W        W75480   0.923   1.497  14.043
10221W        W75481   5.865  35.722   1.918
10222W        W75482  43.521  21.031  13.416
10223W        W75483  26.476   5.647   5.459
10224W        W75484   6.473  26.212  11.779
10225W        W75485  43.712  10.440   1.195
10226W        W75486  43.576  16.820  13.136
10227W        W75487  36.497  24.522   1.688
10228W        W75488  12.883  16.328  14.766
10229W        W75489   4.861  20.106  12.000
10230W        W75490  22.402   5.854   1.315
10231W        W75491  44.684  30.545  14.714
10232W        W75492  32.006  31.870  14.856
10233W        W75493  13.626  32.550  10.620
10234W        W75494  23.596  23.048   1.440
10235W        W75495  21.022  13.062  14.971
10236W        W75496  25.480  29.464  11.942
10237W        W75497   4.420  19.119  12.469
10238W        W75498  22.538  19.129   3.717
10239W        W75499   7.739  10.051   2.656
10240W        W75500  22.584   3.309  12.054
10241W        W75501  34.950  22.440  13.467
10242W        W75502  44.349   7.088   4.410
10243W        W75503  25.581  20.074   5.132
10244W        W75504  26.432  21.654   5.052
10245W        W75505  43.917  37.454   4.629
10246W        W75506  34.904  31.578  11.913
10247W        W75507  40.521  20.693   3.242
10248W        W75508  40.306  25.091  11.603
10249W        W75509   2.414  23.500   4.517
10250W        W75510  42.394  26.739  13.979
10251W        W75511  33.829  23.331  14.107
10252W        W75512  21.954  28.995   0.886
10253W        W75513  23.569  22.347  13.751
10254W        W75514  35.536   0.814  14.946
10255W        W75515  20.833  18.202  14.822
10256W        W75516  13.380  43.742   2.640
10257W        W75517  32.407  35.513  13.387
10258W        W75518  34.047  10.234   2.707
10259W        W75519   9.537   8.333   2.342
10260W        W75520  29.936  10.689   3.078
10261W        W75521  18.864  10.185  14.945
10262W        W75522  28.100  29.414   4.116
10263W        W75523  21.709  20.519   5.437
10264W        W75524  10.962  29.612   5.494
10265W        W75525  14.762  37.412   4.974
10266W        W75526  22.789  42.982   4.881
10267W        W75527  15.282  31.083   4.240
10268W        W75528  11.108   1.208   0.402
10269W        W75529  27.980  14.371  11.167
10270W        W75530   9.734  36.337  13.141
10271W        W75531  31.101  42.896  12.174
10272W        W75532  16.191   5.839   0.852
10273W        W75533   5.431  21.479  11.080
10274W        W75534  39.319  21.584  12.891
10275W        W75535  38.957  21.830  11.483
10276W        W75536  30.867   9.001  10.430
10277W        W75537  31.948  23.624  13.038
10278W        W75538  39.549   0.333   0.759
10279W        W75539   8.781  35.984   4.301
10280W        W75540  39.050  15.732  11.181
10281W        W75541  38.444  31.169  11.144
10282W        W75542  40.312   7.327   0.263
10283W        W75543  42.018  40.423   0.308
10284W        W75544  31.980  21.243   2.560
10285W        W75545   2.484   8.321   1.147
10286W        W75546  31.719  30.705   0.798
10287W        W75547  24.658  15.167  11.969
10288W        W75548  40.139  36.492  14.484
10289W        W75549  28.360  33.249  13.994
10290W        W75550  23.038  13.256   4.032
10291W        W75551  17.081  34.668   3.327
10292W        W75552  28.084  44.384   4.032
10293W        W75553  24.454  43.604  12.326
10294W        W75554  24.694  25.189  13.084
10295W        W75555  14.118   2.640   0.074
10296W        W75556  18.844  21.638   1.915
10297W        W75557   2.575  40.345   1.168
10298W        W75558  24.128   9.569   2.604
10299W        W75559   9.270   2.466   3.734
10300W        W75560  27.578  38.956  10.379
10301W        W75561  13.332  16.824  13.768
10302W        W75562  18.239  36.129   1.637
10303W        W75563  31.821  32.421  13.007
10304W        W75564  24.407  31.475   0.918
10305W        W75565  22.891  24.100  14.101
10306W        W75566  33.626  32.076   5.039
10307W        W75567  23.913  15.563  11.177
10308W        W75568   6.327  29.725   2.286
10309W        W75569  23.016   9.359  14.936
10310W        W75570   2.806  33.308   2.918
10311W        W75571  39.341   2.948   2.176
10312W        W75572   3.505  27.297   2.829
10313W        W75573  27.464   9.296   0.752
10314W        W75574  35.575  21.980  13.162
10315W        W75575  41.906  31.435  14.229
10316W        W75576  14.884   9.366  10.572
10317W        W75577  44.875  13.936   0.252
10318W        W75578  16.086  34.508   4.387
10319W        W75579   9.647  32.728   3.316
10320W        W75580  12.683   9.727   0.400
10321W        W75581  25.407  41.019  13.913
10322W        W75582  27.726  19.173  11.211
10323W        W75583  21.751   6.139   2.658
10324W        W75584  31.957  18.549   2.242
10325W        W75585  24.299  18.598  12.211
10326W        W75586  17.921  34.680   1.232
10327W        W75587   4.441  21.238   3.657
10328W        W75588  19.183  35.257  13.985
10329W        W75589  20.040  27.549  12.768
10330W        W75590  19.015   4.669   3.848
10331W        W75591   1.886   5.959   2.397
10332W        W75592   5.761  44.986   4.588
10333W        W75593  20.494   6.752   2.662
10334W        W75594   9.399  19.214   0.090
10335W        W75595  25.412  42.682   0.637
10336W        W75596   7.404  16.566  14.994
10337W        W75597  25.937   7.756   3.700
10338W        W75598  20.985   2.793   3.709
10339W        W75599  33.910  32.090   2.375
10340W        W75600  35.114  41.083  12.010
10341W        W75601  44.347  20.727  12.808
10342W        W75602  28.109  10.638   3.293
10343W        W75603  24.375  12.563  14.124
10344W        W75604  24.014  14.049  14.575
10345W        W75605  37.582   2.658  11.963
10346W        W75606   9.282  44.789   1.507
10347W        W75607  30.657  24.108   0.149
10348W        W75608  12.368  21.053   0.014
10349W        W75609  13.022  16.727  13.381
10350W        W75610   4.622  21.514   4.857
10351W        W75611  35.045  25.866  11.162
10352W        W75612  14.375  33.483  11.707
10353W        W75613  38.977  29.877  12.451
10354W        W75614  33.845  19.968   1.989
10355W        W75615  29.927  10.780   2.148
10356W        W75616  31.696   1.525  12.447
10357W        W75617   6.115  36.548  13.881
10358W        W75618  29.003   6.251  10.530
10359W        W75619  34.791  40.398  11.407
10360W        W75620  23.004   6.345  14.464
10361W        W75621  36.648  10.802  10.731
10362W        W75622  12.625  17.670  10.665
10363W        W75623  14.501  16.194   0.749
10364W        W75624  20.100  15.667  12.342
10365W        W75625   9.699   6.530   2.704
10366W        W75626  35.576  17.588  13.008
10367W        W75627   9.221   3.259   2.042
10368W        W75628  38.771  10.823   3.622
10369W        W75629  28.605  36.971  13.918
10370W        W75630   0.808  36.038   4.173
10371W        W75631  34.372   6.464   4.133
10372W        W75632  19.674  35.991  11.638
10373W        W75633   0.664  32.153   9.807
10374W        W75634  36.409  29.165   0.405
10375W        W75635  25.616   3.457   4.150
10376W        W75636  18.327  16.670  12.289
10377W        W75637  28.535  39.084   3.406
10378W        W75638  44.204  30.514   2.180
10379W        W75639  14.028  38.764  12.078
10380W        W75640  23.065  32.869   0.383
10381W        W75641  41.898  21.010  14.376
10382W        W75642  31.679  14.127   4.187
10383W        W75643  35.647  39.826   3.334
10384W        W75644   1.949   9.402  14.526
10385W        W75645   2.901  30.810  14.497
10386W        W75646  12.252  31.856  13.801
10387W        W75647  23.729  11.879   3.272
10388W        W75648  30.155  12.614   0.801
10389W        W75649  18.093  25.602   2.661
10390W        W75650  17.097   9.347   3.435
10391W        W75651  37.250  44.714  10.067
10392W        W75652  26.598  41.055   1.719
10393W        W75653  35.582  28.199   1.452
10394W        W75654  22.475   0.219  11.891
10395W        W75655  13.648  21.060  11.449
10396W        W75656  28.350  40.388   4.131
10397W        W75657  35.358  23.296  14.820
10398W        W75658  39.580  24.495  11.110
10399W        W75659  32.561  20.663   1.879
10400W        W75660  39.453  34.137  12.838
10401W        W75661  43.076   6.910   4.639
10402W        W75662  15.709  12.831  11.738
10403W        W75663   2.433  29.543   2.224
10404W        W75664   5.854  31.725   0.230
10405W        W75665  38.987   0.227   0.249
10406W        W75666  24.209   2.797   4.758
10407W        W75667  23.420   8.330  11.889
10408W        W75668   0.817   8.118   0.865
10409W        W75669  21.121  34.381   0.447
10410W        W75670  15.394  19.919   2.874
10411W        W75671   6.869  26.120  14.998
10412W        W75672   5.459  12.695  14.382
10413W        W75673  26.115  32.487   3.312
10414W        W75674  28.977  12.258  10.727
10415W        W75675  11.531  16.678   4.900
10416W        W75676  18.319  20.131  12.402
10417W        W75677  26.701   9.201  12.537
10418W        W75678  26.653  17.170   0.481
10419W        W75679   9.238  20.608   0.351
10420W        W75680  15.887  24.616   1.808
10421W        W75681   0.464   2.307   0.364
10422W        W75682   7.339  35.578  11.680
10423W        W75683  33.218  13.942  14.956
10424W        W75684  44.995  16.652   1.858
10425W        W75685  41.301  31.005  13.033
10426W        W75686  26.204   7.317   3.603
10427W        W75687  29.669  24.165   1.817
10428W        W75688  23.000   5.482  14.406
10429W        W75689  13.384   6.683  11.883
10430W        W75690   2.521   0.488  12.919
10431W        W75691  22.692   7.467  13.565
10432W        W75692  28.145  14.765   4.739
10433W        W75693  17.000  41.616  10.085
10434W        W75694   4.900  18.087   3.556
10435W        W75695  29.378  15.317   0.948
10436W        W75696  41.700  20.545  13.560
10437W        W75697  11.325  13.489   1.742
10438W        W75698  22.278  44.274  14.742
10439W        W75699  39.522  33.377  14.281
10440W        W75700  10.288  17.473   1.374
10441W        W75701  26.612   4.286   3.673
10442W        W75702  28.447  11.276  12.020
10443W        W75703  19.179   2.327  13.869
10444W        W75704   6.741  14.602   0.401
10445W        W75705  36.128   4.658  12.588
10446W        W75706  44.982  28.882   2.219
10447W        W75707  14.976  30.415   3.869
10448W        W75708  20.201   5.705   1.287
10449W        W75709  16.676  18.420   0.188
10450W        W75710  20.850  41.525   0.988
10451W        W75711   9.490   0.314   0.366
10452W        W75712   4.003  17.173   1.280
10453W        W75713   5.366  17.662   0.982
10454W        W75714  18.675   8.818  12.438
10455W        W75715  39.071  12.583   5.029
10456W        W75716  19.255  12.872  12.052
10457W        W75717  40.305  16.699   4.203
10458W        W75718  31.950  44.059   3.184
10459W        W75719  33.117  14.281  12.507
10460W        W75720  27.699  37.377   9.993
10461W        W75721  35.997   5.551   4.705
10462W        W75722  37.816   7.120   1.360
10463W        W75723  16.775   0.591   0.275
10464W        W75724  27.990  36.059   2.321
10465W        W75725  12.653   9.230   4.274
10466W        W75726  15.572  44.700  11.202
10467W        W75727  33.150   2.952   2.889
10468W        W75728   5.188  34.817  11.624
10469W        W75729  40.970  44.413   4.473
10470W        W75730  32.611  42.418  11.060
10471W        W75731  14.602  10.185   1.313
10472W        W75732  30.680   0.459  14.939
10473W        W75733  18.472  14.198   4.642
10474W        W75734  33.667  26.632   1.399
10475W        W75735  31.732   7.822   3.761
10476W        W75736  25.538  22.015   1.187
10477W        W75737  21.327  10.230  13.479
10478W        W75738   5.255  42.048   1.854
10479W        W75739  18.801   5.362   1.690
10480W        W75740  28.868  24.767   2.577
10481W        W75741  39.405  14.827  13.981
10482W        W75742  44.482   6.424  13.409
10483W        W75743  14.645  14.046  13.366
10484W        W75744  30.975   6.613   0.430
10485W        W75745  37.845  24.933  13.065
10486W        W75746   9.948   8.182   5.456
10487W        W75747  16.195  38.975  12.956
10488W        W75748  33.759   0.935   4.565
10489W        W75749  18.205  33.002  13.031
10490W        W75750  38.521  24.711   4.864
10491W        W75751  43.825  17.095   0.369
10492W        W75752   7.632  39.701  13.816
10493W        W75753  17.954  24.750   1.784
10494W        W75754  42.678  40.730   3.637
10495W        W75755  24.652  39.898   1.276
10496W        W75756  41.567  30.449   3.126
10497W        W75757  24.539  19.453  14.333
10498W        W75758  28.996  17.964  12.948
10499W        W75759  17.488   7.734  11.849
10500W        W75760  36.751  28.409   0.776
10501W        W75761  17.220  15.939   2.403
10502W        W75762  18.518  15.571   4.177
10503W        W75763   0.992  40.367  12.926
10504W        W75764  16.350  33.911  14.839
10505W        W75765  20.520  44.998   0.663
10506W        W75766   6.236  29.188  11.074
10507W        W75767  23.197  27.723  11.865
10508W        W75768  15.945  27.464  13.621
10509W        W75769  33.091  40.222   0.817
10510W        W75770  26.882  24.775   1.423
10511W        W75771  36.839  43.525   4.519
10512W        W75772  32.545   0.864   4.289
10513W        W75773  15.787  11.173  12.815
10514W        W75774   8.770   3.695   4.590
10515W        W75775   3.258  22.573   4.463
10516W        W75776  41.955  38.521  10.927
10517W        W75777  40.624  44.610  14.757
10518W        W75778  44.985  36.027   4.656
10519W        W75779  29.962  15.725  13.926
10520W        W75780   8.203   6.430   1.278
10521W        W75781  37.315  28.473  14.946
10522W        W75782   4.244  18.984  12.977
10523W        W75783  30.964  18.629  10.607
10524W        W75784  41.822   1.965   1.772
10525W        W75785   1.766  24.023   0.274
10526W        W75786  14.853  39.820   3.310
10527W        W75787  12.677  10.831   4.571
10528W        W75788  29.060  41.076  12.554
10529W        W75789  29.551  18.532  13.749
10530W        W75790  26.526  17.583   3.271
10531W        W75791  16.815  31.846   2.556
10532W        W75792  41.519  28.995   1.329
10533W        W75793  35.268  12.635  10.688
10534W        W75794   8.717   9.055  12.172
10535W        W75795   4.673  18.328   1.807
10536W        W75796  44.441  44.815   0.238
10537W        W75797  16.281  43.033   3.873
10538W        W75798  33.860  28.967   0.452
10539W        W75799  24.515   0.280   3.795
10540W        W75800  37.354  29.627   0.570
10541W        W75801  35.432  12.363   4.034
10542W        W75802  41.219  23.673   4.105
10543W        W75803  16.329  38.551   2.413
10544W        W75804   1.435  36.238  13.478
10545W        W75805  35.607  23.717   4.229
10546W        W75806   0.385  38.428   0.861
10547W        W75807  37.049   6.491   2.109
10548W        W75808  28.750  31.961   1.315
10549W        W75809  22.281  43.569  11.945
10550W        W75810  17.703  21.106   4.458
10551W        W75811  25.737  35.617   4.396
10552W        W75812  40.896  28.702  12.067
10553W        W75813  27.270  21.767   1.406
10554W        W75814   6.101  17.136  14.830
10555W        W75815   4.702   7.758  11.098
10556W        W75816  40.414   3.482   4.870
10557W        W75817  19.649  19.315   3.556
10558W        W75818   7.895  42.310  12.956
10559W        W75819   9.305  43.007  14.724
10560W        W75820  38.861  13.547   1.238
10561W        W75821   9.792  17.544  10.989
10562W        W75822  14.601  24.578   3.650
10563W        W75823  15.372  36.906   3.867
10564W        W75824  15.088  25.572   0.760
10565W        W75825  43.907   4.407  11.957
10566W        W75826   0.537  42.391   2.091
10567W        W75827  12.160  15.136   4.548
10568W        W75828   0.727   5.459   3.918
10569W        W75829  23.088  35.884  14.781
10570W        W75830   3.490  25.327  12.138
10571W        W75831  40.782   8.542   1.672
10572W        W75832  24.042   3.787  13.830
10573W        W75833  15.606  13.919  11.582
10574W        W75834  38.982  36.812  10.649
10575W        W75835   0.017  21.759   1.367
10576W        W75836  33.313   6.322  11.056
10577W        W75837  18.469  16.009   5.048
10578W        W75838  41.029   0.368   1.630
10579W        W75839  42.402  21.768  12.138
10580W        W75840   0.902  43.707   4.574
10581W        W75841  42.259  27.031   3.344
10582W        W75842   4.754  33.348   4.176
10583W        W75843   8.910  12.234  13.142
10584W        W75844  30.600   6.277  14.432
10585W        W75845  24.434  26.540   0.995
10586W        W75846  34.360   2.859  12.466
10587W        W75847  35.036   3.394   0.697
10588W        W75848  11.176  30.543   2.674
10589W        W75849  20.287  29.561   1.372
10590W        W75850  11.894  13.513   2.267
10591W        W75851  27.026  28.274  14.954
10592W        W75852  44.005   0.062  11.919
10593W        W75853  16.075  43.523   3.273
10594W        W75854  39.455   3.694   4.268
10595W        W75855  22.025  35.033   2.215
10596W        W75856  22.454   1.854  12.005
10597W        W75857   6.711  10.149  10.305
10598W        W75858  12.655  30.034   1.407
10599W        W75859  34.848  32.534  11.987
10600W        W75860  19.287  30.334   4.742
10601W        W75861  10.154  12.094   3.456
10602W        W75862  32.845  15.752   1.702
10603W        W75863   5.254  25.912  12.030
10604W        W75864  43.384   4.419  12.077
10605W        W75865  14.701  20.573  13.355
10606W        W75866   3.595  21.322  12.140
10607W        W75867  31.383  21.566   3.631
10608W        W75868  41.998  29.439   2.988
10609W        W75869  44.864  19.846   4.495
10610W        W75870  22.789  35.954  12.046
10611W        W75871  43.505  38.021  13.418
10612W        W75872  21.567   2.701   3.318
10613W        W75873  37.891  44.083   2.215
10614W        W75874  35.528   9.778   0.506
10615W        W75875  37.467   6.680  14.845
10616W        W75876  12.625   5.681   1.358
10617W        W75877  29.121  10.329  12.226
10618W        W75878  38.845  39.386   3.352
10619W        W75879  38.025  24.050  13.016
10620W        W75880  21.428  11.755   1.316
10621W        W75881  43.592  17.055  14.889
10622W        W75882   7.759  22.458  11.542
10623W        W75883  33.517  33.365  13.386
10624W        W75884  13.204   1.124   2.754
10625W        W75885  16.249  38.737   5.089
10626W        W75886  30.254   2.309   2.188
10627W        W75887  35.553   3.498   0.982
10628W        W75888  22.593  11.890   2.811
10629W        W75889  26.644   3.884  11.426
10630W        W75890  17.087   4.892   4.538
10631W        W75891  27.104  28.668   2.718
10632W        W75892  34.404  21.120  14.457
10633W        W75893  25.095  42.781  12.470
10634W        W75894  27.178   9.705  11.117
10635W        W75895   4.883  14.714  13.754
10636W        W75896   0.393  13.279  13.128
10637W        W75897  35.835  36.809  10.730
10638W        W75898  18.817  35.366   3.198
10639W        W75899  44.221  17.294  13.293
10640W        W75900  20.461  13.661   1.311
10641W        W75901  17.277  30.100   1.578
10642W        W75902  21.269   2.950   0.355
10643W        W75903  23.179  37.677   4.505
10644W        W75904  29.571   2.865   3.480
10645W        W75905  15.563  31.144  12.381
10646W        W75906   7.147   2.560   3.736
10647W        W75907   2.503   2.878  11.868
10648W        W75908  17.537  37.998   1.990
10649W        W75909  14.084   5.291   0.251
10650W        W75910  34.613  34.495  12.333
10651W        W75911   4.878  31.440   3.262
10652W        W75912  27.587  27.944  10.837
10653W        W75913   5.512  28.082   0.865
10654W        W75914  36.456  18.568  11.441
10655W        W75915   0.385   8.912   3.909
10656W        W75916  32.826  12.107  14.398
10657W        W75917  22.223  39.292  13.205
10658W        W75918  19.224  15.335   0.947
10659W        W75919   4.007   8.216   4.277
10660W        W75920  21.531  41.985   2.686
10661W        W75921  19.840  14.342  14.264
10662W        W75922  24.005  16.772  12.462
10663W        W75923  42.185   8.891   1.447
10664W        W75924  38.756  11.356   4.237
10665W        W75925  37.303   9.649  12.895
10666W        W75926  11.708  34.097  13.363
10667W        W75927  15.714  36.573   2.471
10668W        W75928  38.151  10.757   0.912
10669W        W75929  28.059  28.898  10.300
10670W        W75930  12.158  43.912  14.062
10671W        W75931  39.789   9.467   1.804
10672W        W75932  32.475  14.360  12.955
10673W        W75933  38.015   6.132  12.589
10674W        W75934   6.655  37.643  11.147
10675W        W75935   5.881  39.264  11.923
10676W        W75936  42.678  24.461  12.062
10677W        W75937   8.159  10.533  12.154
10678W        W75938   8.910  21.999  12.612
10679W        W75939  32.782   6.416   1.966
10680W        W75940  14.512  17.217   2.739
10681W        W75941  17.756  23.975   1.436
10682W        W75942   8.677  40.169   4.559
10683W        W75943   6.480  34.364   1.358
10684W        W75944  15.377  26.179   1.429
10685W        W75945  37.241  18.121   0.850
10686W        W75946  14.745  11.889   4.110
10687W        W75947  22.664  13.277   3.661
10688W        W75948  43.311  14.348  10.905
10689W        W75949  13.053  27.069   3.854
10690W        W75950   4.395  23.011  11.957
10691W        W75951  38.572  11.322  14.252
10692W        W75952  12.200  24.058   1.420
10693W        W75953  29.088  35.631   3.787
10694W        W75954  42.366   7.386  14.485
10695W        W75955  26.975  30.619  13.081
10696W        W75956  38.419  32.828  14.880
10697W        W75957  35.566   1.351  14.822
10698W        W75958  33.617   8.592   1.437
10699W        W75959  30.657   2.874   1.627
10700W        W75960   7.122  19.858  11.538
10701W        W75961  30.968  39.878  13.028
10702W        W75962  11.791   5.923   5.755
10703W        W75963  31.958  19.496  11.180
10704W        W75964  41.522   1.818   2.730
10705W        W75965  38.546  39.082  11.126
10706W        W75966   2.725  14.777   2.182
10707W        W75967  39.430  36.939  13.672
10708W        W75968   3.977  41.483  14.396
10709W        W75969  37.915  18.297  10.785
10710W        W75970  36.800  16.954  14.431
10711W        W75971  36.065  15.601  14.041
10712W        W75972   2.262   9.677  14.913
10713W        W75973  17.264   7.691  13.414
10714W        W75974  15.193  21.581  14.729
10715W        W75975  28.805  10.621   1.326
10716W        W75976  43.027  44.292  10.439
10717W        W75977  41.909  10.236  12.029
10718W        W75978  16.842  22.091  14.523
10719W        W75979  22.734   5.960   3.229
10720W        W75980   0.435  36.105  10.643
10721W        W75981  26.454  14.612   4.201
10722W        W75982  18.914  24.913  12.051
10723W        W75983   1.766  39.514  14.838
10724W        W75984  30.087  35.587  10.547
10725W        W75985  17.987  44.972  14.906
10726W        W75986  43.960  44.943   4.350
10727W        W75987  42.032  32.096   3.263
10728W        W75988  19.722  39.607   0.356
10729W        W75989  29.173   8.453  14.997
10730W        W75990  24.528  16.821  10.585
10731W        W75991   9.977  31.170  14.239
10732W        W75992  22.712  44.978  10.918
10733W        W75993  30.081  35.237   3.517
10734W        W75994  10.091  39.989   0.956
10735W        W75995  37.507  18.826  14.761
10736W        W75996  28.114  31.171  14.097
10737W        W75997  36.478  15.381  12.959
10738W        W75998  10.678   8.318  13.400
10739W        W75999   9.308  23.342  12.085
10740W        W76000  43.134  26.296  11.159
10741W        W76001  26.425  14.319  14.992
10742W        W76002  18.264  37.736   0.288
10743W        W76003  29.677  29.539   1.938
10744W        W76004  20.321   6.432  13.397
10745W        W76005  23.690   2.039  11.426
10746W        W76006  36.521  24.093  13.996
10747W        W76007   9.207  39.541   4.132
10748W        W76008  14.679  41.392   0.807
10749W        W76009   9.336  20.960   1.410
10750W        W76010  10.390   1.392   4.601
10751W        W76011  35.470   5.021   3.304
10752W        W76012   6.692   5.455  11.111
10753W        W76013  37.638  22.033   2.344
10754W        W76014   1.277  34.974  10.762
10755W        W76015   0.824  18.742   1.708
10756W        W76016  42.422  40.528   3.218
10757W        W76017  25.021  14.107   0.356
10758W        W76018   8.736  40.342  14.234
10759W        W76019   3.022  34.620   4.314
10760W        W76020  31.487  27.598   0.915
10761W        W76021  11.163   2.451   1.810
10762W        W76022  42.608   5.600  11.993
10763W        W76023  36.117   6.247  13.600
10764W        W76024  31.579  35.064  14.775
10765W        W76025  12.157  37.757  10.552
10766W        W76026  12.696   4.160  14.850
10767W        W76027  20.613  38.078   3.593
10768W        W76028  14.345   6.734  13.490
10769W        W76029  42.010  27.635  13.480
10770W        W76030  41.969  28.851  11.577
10771W        W76031  26.475  19.727   2.725
10772W        W76032  25.000  44.213   2.231
10773W        W76033  40.869   8.982   0.793
10774W        W76034   6.242  10.246  12.374
10775W        W76035   6.105  38.127   2.798
10776W        W76036  20.610  28.468   4.545
10777W        W76037   4.665  32.021   1.150
10778W        W76038  12.784  20.214   4.168
10779W        W76039  19.552  10.615  14.358
10780W        W76040   4.637   8.702   1.750
10781W        W76041  11.721   5.878  10.215
10782W        W76042  36.210   3.611   1.704
10783W        W76043  13.340  33.943   0.412
10784W        W76044  16.630   6.427   3.935
10785W        W76045   4.822  41.511   2.334
10786W        W76046   4.029  12.756  13.366
10787W        W76047  15.156  18.289  12.107
10788W        W76048  11.867  16.303  14.503
10789W        W76049  31.652   8.463   0.223
10790W        W76050   1.769  30.508   1.570
10791W        W76051  16.102   1.309  11.044
10792W        W76052  43.148  18.215  13.459
10793W        W76053  39.774  27.070  11.326
10794W        W76054  36.421  27.835   5.063
10795W        W76055  37.294  20.031   2.911
10796W        W76056  10.480   3.547  12.126
10797W        W76057   8.125  15.123   2.334
10798W        W76058  44.661  12.831  13.889
10799W        W76059  43.036  22.162   2.138
10800W        W76060  23.780  44.306   4.371
10801W        W76061  40.368  35.683  12.491
10802W        W76062  37.029   1.462  14.857
10803W        W76063   3.818   5.359  14.136
10804W        W76064  14.310  10.343  11.855
10805W        W76065  38.795  24.482  14.888
10806W        W76066  19.648  12.928   4.104
10807W        W76067  20.487   1.505  11.545
10808W        W76068  25.267  12.198   2.787
10809W        W76069  25.421  27.640  12.692
10810W        W76070  35.797  10.900  14.014
10811W        W76071  22.527   0.972   2.327
10812W        W76072   9.446   4.767  10.312
10813W        W76073  28.110  18.079  10.750
10814W        W76074  44.785  21.289  11.025
10815W        W76075  21.162  18.768   5.559
10816W        W76076  12.688  22.396   3.108
10817W        W76077  10.530  36.469   1.222
10818W        W76078  20.735  13.409  14.715
10819W        W76079  19.773  21.082  11.818
10820W        W76080  14.120  15.703  14.842
10821W        W76081  44.237  43.313  11.221
10822W        W76082  33.661  43.381   2.741
10823W        W76083  21.758  44.741  11.121
10824W        W76084  23.489   0.495  11.079
10825W        W76085   4.413   9.981   3.981
10826W        W76086  11.260  16.838   0.755
10827W        W76087   0.732   3.929  11.146
10828W        W76088  32.594  27.443   4.525
10829W        W76089  25.490  40.519  10.663
10830W        W76090  12.365   7.437   1.487
10831W        W76091  10.954  21.232  11.583
10832W        W76092  10.390  34.469   1.759
10833W        W76093  42.836  42.801  11.971
10834W        W76094  32.569  35.694   4.031
10835W        W76095  27.641   0.965   3.522
10836W        W76096  40.372  10.354   0.024
10837W        W76097  32.052  21.345  11.510
10838W        W76098  18.791  42.997   2.206
10839W        W76099   0.355  26.227  11.951
10840W        W76100  36.480  43.364  11.551
10841W        W76101  30.396  19.720   3.842
10842W        W76102  28.645  26.004  10.604
10843W        W76103  11.693   0.298   4.283
10844W        W76104   1.972   3.371   2.154
10845W        W76105  28.329   4.975  11.980
10846W        W76106  25.153   3.689   1.432
10847W        W76107  36.461  22.255  14.524
10848W        W76108  20.965  35.707  11.544
10849W        W76109  23.576  29.927   1.914
10850W        W76110  13.404  17.531  12.948
10851W        W76111  28.456   2.681  13.532
10852W        W76112  12.397  12.330  12.074
10853W        W76113   1.413  13.792  12.022
10854W        W76114  26.502  42.528  13.348
10855W        W76115  38.139  14.503   5.009
10856W        W76116   0.932  39.144  14.869
10857W        W76117  20.002  32.067   1.944
10858W        W76118  37.066  35.056  14.449
10859W        W76119  12.484  31.730  11.652
10860W        W76120  41.414  17.230   2.388
10861W        W76121  35.081  10.353   1.343
10862W        W76122  17.766  24.129  11.186
10863W        W76123  42.492  16.573   2.707
10864W        W76124  29.466  18.717   4.572
10865W        W76125  25.741  13.883  13.828
10866W        W76126  16.408   8.189   3.610
10867W        W76127   6.736   7.180  12.049
10868W        W76128  10.388  35.026   3.802
10869W        W76129  13.823  41.343   3.076
10870W        W76130  37.003  43.411   0.803
10871W        W76131  20.022  40.504   0.705
10872W        W76132  13.745  26.069  12.659
10873W        W76133  22.593   1.505   2.323
10874W        W76134   7.322  20.938  13.594
10875W        W76135  34.612  29.144  11.546
10876W        W76136  35.338  15.722   2.731
10877W        W76137   4.273  35.446  13.764
10878W        W76138  31.906  40.185  10.041
10879W        W76139  19.668  11.166  10.714
10880W        W76140  26.121  13.173   0.177
10881W        W76141  16.587  10.264   1.557
10882W        W76142  13.386  43.790   4.040
10883W        W76143  10.234  37.719  11.577
10884W        W76144  41.329  18.518  11.493
10885W        W76145  31.733  28.106   0.007
10886W        W76146  12.634  13.946   4.104
10887W        W76147   8.090   1.338   0.415
10888W        W76148  33.617  27.125   2.680
10889W        W76149   3.660   3.276  10.374
10890W        W76150   6.263  27.508  11.575
10891W        W76151  41.936  17.978   3.638
10892W        W76152  34.067  20.287   0.223
10893W        W76153  44.112  22.055  11.107
10894W        W76154  44.814  17.329   0.117
10895W        W76155  12.388   6.575  13.742
10896W        W76156  17.750  24.446  12.550
10897W        W76157  29.144  22.486  10.759
10898W        W76158  35.220  13.858  13.107
10899W        W76159  36.060   9.624  10.660
10900W        W76160   0.947  10.191  14.031
10901W        W76161  12.969  32.855  13.632
10902W        W76162  31.927  14.115  13.961
10903W        W76163  15.820  38.046  12.015
10904W        W76164  28.042  13.327   4.732
10905W        W76165  21.019  12.603  10.681
10906W        W76166   3.813  39.320  11.612
10907W        W76167  44.970  16.903  10.229
10908W        W76168  36.534   4.875   1.800
10909W        W76169  22.709  38.874  11.097
10910W        W76170  31.459  40.542   1.290
10911W        W76171  10.298  13.426   2.954
10912W        W76172  32.905   3.460  11.114
10913W        W76173  22.654   3.790   4.726
10914W        W76174  28.199  19.759  12.392
10915W        W76175   1.771  44.965  12.864
10916W        W76176  14.698  41.554  13.800
10917W        W76177  39.783  16.852   2.246
10918W        W76178   1.713  32.530   2.639
10919W        W76179   9.052  38.623  11.564
10920W        W76180  17.321   6.542   1.924
10921W        W76181  20.888  13.638  12.964
10922W        W76182  12.313   2.819   3.717
10923W        W76183  22.537  24.421  14.455
10924W        W76184  19.986  43.355  11.116
10925W        W76185  40.707   0.695  11.625
10926W        W76186  38.347  10.424  13.838
10927W        W76187  15.326  26.046  14.492
10928W        W76188  33.813  40.845  10.637
10929W        W76189   2.872   7.682  11.919
10930W        W76190  20.966  23.209  12.916
10931W        W76191  24.524  24.101   3.261
10932W        W76192  11.261   4.085  11.116
10933W        W76193   0.852  25.860   2.278
10934W        W76194  38.058  22.653  14.404
10935W        W76195  44.086  19.799  12.357
10936W        W76196   8.206  28.704   1.801
10937W        W76197  22.729   8.366  14.043
10938W        W76198   2.046  11.798   1.403
10939W        W76199   9.833  44.320  14.952
10940W        W76200  38.926  40.989   3.077
10941W        W76201  24.303   5.206  13.503
10942W        W76202  37.094  37.586   4.079
10943W        W76203   9.257  42.376  10.946
10944W        W76204  15.009  33.831   0.850
10945W        W76205  36.507  38.984   2.915
10946W        W76206  38.009  15.749   4.714
10947W        W76207   9.874  31.942   3.693
10948W        W76208  31.577  36.391   0.204
10949W        W76209  43.939  28.481  11.900
10950W        W76210  22.187  27.003   0.798
10951W        W76211  31.413   4.438   1.831
10952W        W76212  34.091  19.490   1.966
10953W        W76213  34.633  20.012  11.029
10954W        W76214  20.204  24.117   1.316
10955W        W76215  30.160  30.473   3.209
10956W        W76216  30.484  43.873  12.976
10957W        W76217  30.017  36.726   2.372
10958W        W76218  34.073  22.112   4.524
10959W        W76219  23.681  37.039  12.626
10960W        W76220  33.781  26.413  10.329
10961W        W76221  23.860  15.388  14.474
10962W        W76222   1.302  11.285  10.664
10963W        W76223  20.997  25.709   4.626
10964W        W76224   1.777  21.615   2.350
10965W        W76225  40.530  34.223  10.260
10966W        W76226  25.912  29.746  11.921
10967W        W76227  27.956  26.545  11.101
10968W        W76228  27.193  42.826  10.667
10969W        W76229  42.699  34.361   1.473
10970W        W76230  37.774  44.826   0.655
10971W        W76231   9.544  38.832  12.939
10972W        W76232  14.806  13.707  14.834
10973W        W76233  10.629  22.565   2.657
10974W        W76234  32.024  25.967  13.903
10975W        W76235   4.618   3.699  13.816
10976W        W76236  38.389  24.776   1.254
10977W        W76237  44.239  22.642   4.541
10978W        W76238  21.290  26.457   4.214
10979W        W76239   7.914   8.451  11.915
10980W        W76240  19.552  37.076   5.072
10981W        W76241  30.479  17.946  13.423
10982W        W76242  34.439   6.792  10.729
10983W        W76243  20.031  11.292   4.163
10984W        W76244   6.324   8.477  13.069
10985W        W76245   9.745  16.528   3.581
10986W        W76246   9.139  36.193  14.442
10987W        W76247  10.210  17.829   0.911
10988W        W76248  13.514   4.714   0.804
10989W        W76249  17.085  26.306   0.481
10990W        W76250  22.501  30.377   4.156
10991W        W76251  11.640   1.403  11.183
10992W        W76252  37.974  44.701  11.223
10993W        W76253  28.792  10.735  12.963
10994W        W76254  41.807  17.013   1.260
10995W        W76255  31.218  13.756   4.247
10996W        W76256   4.239  40.932  10.541
10997W        W76257  20.279   2.863  14.304
10998W        W76258  20.934   2.465   4.106
10999W        W76259   9.265  19.626  13.972
11000W        W76260  18.992  24.775  13.012
11001W        W76261  36.633  14.182   1.019
11002W        W76262   6.923  21.580   2.358
11003W        W76263  26.712  33.294  13.377
11004W        W76264  32.047  20.628  14.451
11005W        W76265   9.575  20.176   4.593
11006W        W76266  32.415  37.020   2.373
11007W        W76267   6.403  25.954  10.182
11008W        W76268  16.719   7.784   3.402
11009W        W76269  38.604  39.885  13.550
11010W        W76270  35.345  44.919  14.035
11011W        W76271  38.549  23.761  13.806
11012W        W76272   0.165   2.776  11.474
11013W        W76273   1.887  18.335   1.245
11014W        W76274  31.758   4.004  12.417
11015W        W76275   4.031  30.647   2.697
11016W        W76276  41.911  32.295  13.929
11017W        W76277  17.762  35.343   2.331
11018W        W76278  39.342  38.828  13.021
11019W        W76279  16.426  41.372  12.389
11020W        W76280   6.694  18.719   0.939
11021W        W76281  14.391  10.440   4.063
11022W        W76282  22.224   2.847  10.996
11023W        W76283  42.459  42.369   1.313
11024W        W76284  11.847  11.324  12.475
11025W        W76285  41.673  34.636  12.147
11026W        W76286  25.617  31.193  13.102
11027W        W76287  32.374   1.989  12.445
11028W        W76288  17.810  40.502   1.251
11029W        W76289  33.930  35.268  11.201
11030W        W76290  24.268  23.243  14.318
11031W        W76291  30.846   1.947   3.155
11032W        W76292  11.656  39.035   4.379
11033W        W76293  28.421  18.424  14.477
11034W        W76294  41.533   0.287  12.561
11035W        W76295  28.027  43.589  10.825
11036W        W76296  31.528  31.455   2.876
11037W        W76297  17.161  43.826   0.044
11038W        W76298   9.951  30.538  11.495
11039W        W76299  43.807   2.500  13.822
11040W        W76300   1.353  33.508   2.878
11041W        W76301  27.724   1.978  12.465
11042W        W76302  43.497   3.921  12.011
11043W        W76303  32.415   9.179  11.682
11044W        W76304  16.280   3.766  12.857
11045W        W76305   6.989   1.788   4.566
11046W        W76306  42.711  39.012   4.106
11047W        W76307   4.460  37.446   0.260
11048W        W76308  22.543  30.955  12.591
11049W        W76309  36.614  11.258   3.129
11050W        W76310  40.263   2.411  11.205
11051W        W76311  39.920  33.277   2.396
11052W        W76312  25.334  38.987   0.441
11053W        W76313  15.693   1.244   2.272
11054W        W76314  10.578  29.944   0.399
11055W        W76315   9.134  44.186   3.513
11056W        W76316   5.489  30.210  12.979
11057W        W76317  28.134  14.295   2.547
11058W        W76318  30.713  44.420   4.066
11059W        W76319  29.101  38.962   4.619
11060W        W76320  42.558  15.738   3.186
11061W        W76321  11.931  34.569  12.789
11062W        W76322  26.498  13.063  10.673
11063W        W76323  43.313   6.594  11.125
11064W        W76324  40.899   6.971  13.205
11065W        W76325  36.563  35.583   1.423
11066W        W76326  41.860  21.075   2.428
11067W        W76327  40.577  24.544  12.479
11068W        W76328   0.778  25.620  12.958
11069W        W76329  33.434  20.477  12.130
11070W        W76330  33.891  23.234   0.776
11071W        W76331  32.021  36.534   5.107
11072W        W76332  26.224  22.281  10.441
11073W        W76333  21.112  31.852  12.764
11074W        W76334  29.134   3.705   1.737
11075W        W76335  17.670  13.914   2.380
11076W        W76336  17.831  10.117  12.107
11077W        W76337  17.124  34.931   1.800
11078W        W76338  20.624   9.401   4.873
11079W        W76339  39.394  34.951  11.327
11080W        W76340  36.070  26.457  12.476
11081W        W76341  41.557  43.891  12.941
11082W        W76342  21.971  33.885   5.041
11083W        W76343  15.908  24.976   0.042
11084W        W76344  42.555   9.923   0.969
11085W        W76345  12.184  41.853  12.986
11086W        W76346   4.425  27.783   0.346
11087W        W76347  30.388   7.021   4.645
11088W        W76348  16.619  11.610   1.314
11089W        W76349  14.649  37.878   0.687
11090W        W76350  21.413  42.568  13.770
11091W        W76351  25.969  36.097   3.089
11092W        W76352   1.949  13.902  12.547
11093W        W76353  27.426  31.106  14.771
11094W        W76354  19.641  33.595  12.041
11095W        W76355  31.934  36.666  11.662
11096W        W76356  19.689  34.475   1.899
11097W        W76357  40.387  37.676  12.906
11098W        W76358  18.882  41.962  12.510
11099W        W76359   2.805  34.342  11.442
11100W        W76360   4.232   9.130  11.492
11101W        W76361  42.414  15.520  13.981
11102W        W76362  24.092  21.691  12.529
11103W        W76363  42.745  21.267  11.114
11104W        W76364  25.716  43.773  10.715
11105W        W76365  28.363   0.855  12.360
11106W        W76366  14.112  24.523  14.733
11107W        W76367  37.318  35.867   4.644
11108W        W76368  33.011  27.484   0.827
11109W        W76369  43.348  17.122   4.602
11110W        W76370   6.792  27.163   3.579
11111W        W76371  21.754   9.335  14.328
11112W        W76372  15.269  29.932  12.365
11113W        W76373  13.174  37.972   3.856
11114W        W76374  29.723  24.615   4.968
11115W        W76375  35.373  11.748   3.022
11116W        W76376   0.799   4.820  11.037
11117W        W76377  39.609  41.014  14.977
11118W        W76378  25.576  35.629   2.753
11119W        W76379  36.043  37.671  11.911
11120W        W76380   8.842  31.635   1.432
11121W        W76381   2.285  41.714   1.718
11122W        W76382  41.509  20.352   0.852
11123W        W76383  38.098   0.427  12.767
11124W        W76384  32.875   6.611  12.324
11125W        W76385  38.956  12.621   1.455
11126W        W76386  19.323  26.954  13.790
11127W        W76387  13.652  30.828   1.246
11128W        W76388  24.067   2.962   0.581
11129W        W76389  39.664  35.735  11.026
11130W        W76390   9.252  35.808   5.127
11131W        W76391   0.760  21.865  14.651
11132W        W76392  24.168  18.227  13.916
11133W        W76393   9.333  44.417  14.070
11134W        W76394  12.863   4.313  10.612
11135W        W76395  36.666  29.943   1.387
11136W        W76396   0.777   1.498   3.818
11137W        W76397  44.919  21.956  14.433
11138W        W76398  27.561  40.411   0.908
11139W        W76399  23.227  42.361  11.563
11140W        W76400  20.548  29.871   2.410
11141W        W76401  38.046   7.247  11.179
11142W        W76402  36.040  18.841  10.704
11143W        W76403  12.823  27.393   2.471
11144W        W76404  33.888   5.774  10.939
11145W        W76405  41.168   0.311   3.642
11146W        W76406   0.265  14.872   0.902
11147W        W76407  39.747   7.848  11.201
11148W        W76408  42.056  26.563   5.089
11149W        W76409  24.372   7.266  14.282
11150W        W76410   6.687  35.203  10.608
11151W        W76411  41.076  12.307   0.727
11152W        W76412  22.764  25.001  10.954
11153W        W76413  16.211  42.907  10.758
11154W        W76414   9.502  11.601  12.430
11155W        W76415   4.425  19.922  14.698
11156W        W76416  29.016  27.672  13.816
11157W        W76417  34.104   6.208  11.508
11158W        W76418   1.306  30.077   4.518
11159W        W76419  35.020   2.061   4.157
11160W        W76420  14.237  36.620   3.339
11161W        W76421  17.955  34.111  14.071
11162W        W76422  41.071  16.223  14.384
11163W        W76423  24.619  34.777   4.867
11164W        W76424   5.455  10.864   2.397
11165W        W76425  11.108  32.991   0.622
11166W        W76426  26.420   8.304  11.095
11167W        W76427   6.361  29.373  13.087
11168W        W76428   3.271  23.582  11.843
11169W        W76429  32.481   7.459  11.482
11170W        W76430   4.420  39.126   9.900
11171W        W76431  36.061  12.315   4.740
11172W        W76432  26.992  23.498  13.788
11173W        W76433  18.821  36.441  11.210
11174W        W76434   3.786   3.712  10.611
11175W        W76435   5.002  21.630  14.153
11176W        W76436  21.945   3.768  11.626
11177W        W76437  22.184  20.781   0.326
11178W        W76438   7.308  34.591   1.580
11179W        W76439  38.944  36.077  14.006
11180W        W76440  42.029  24.062  13.238
11181W        W76441  43.341  18.249  13.966
11182W        W76442   5.985  10.753   2.400
11183W        W76443  27.658  22.145  13.560
11184W        W76444  23.564  37.573   0.744
11185W        W76445  37.608  13.286   0.484
11186W        W76446   0.513  19.145   1.356
11187W        W76447  17.733  14.107  13.432
11188W        W76448  17.257   1.320   3.221
11189W        W76449  15.812  11.600   3.138
11190W        W76450  32.409  34.271   3.812
11191W        W76451  12.759  21.948   3.995
11192W        W76452  26.374   1.455   0.443
11193W        W76453  11.815  29.878  12.514
11194W        W76454  42.353  11.666  13.536
11195W        W76455  24.557   0.181  10.533
11196W        W76456  14.408  23.507  10.268
11197W        W76457   2.959   2.655  13.871
11198W        W76458   5.946  21.635  11.094
11199W        W76459  38.896  20.774  11.639
11200W        W76460  18.861  15.114  14.200
11201W        W76461  37.636  40.518   2.309
11202W        W76462  25.274  28.447   2.758
11203W        W76463  25.789   2.793  11.978
11204W        W76464   2.239   2.219   2.685
11205W        W76465  32.932  29.620   1.516
11206W        W76466  41.213  10.868  10.458
11207W        W76467  44.338  36.523  11.065
11208W        W76468  31.922   3.589  11.686
11209W        W76469  21.301  27.076  12.736
11210W        W76470  38.108   3.942  11.045
11211W        W76471  23.549   8.342   4.731
11212W        W76472  31.007  31.679   4.040
11213W        W76473  17.064  34.167   4.093
11214W        W76474  19.999  31.378   0.218
11215W        W76475   9.900  20.145   0.966
11216W        W76476  10.224   2.181   4.521
11217W        W76477   7.872  17.221  11.558
11218W        W76478  33.496  16.982   4.495
11219W        W76479  16.029  17.024  13.728
11220W        W76480  12.687  25.651  14.476
11221W        W76481  23.043  33.314  13.100
11222W        W76482  28.418  10.434  14.365
11223W        W76483  25.605  28.436  11.982
11224W        W76484   6.279  44.772  10.228
11225W        W76485  31.879  30.396   3.669
11226W        W76486  27.913   2.424   2.426
11227W        W76487  24.591  21.176   1.726
11228W        W76488  28.430   7.367  11.249
11229W        W76489  43.143  28.685   0.724
11230W        W76490  31.326  29.492   2.902
11231W        W76491   8.044  43.329   3.663
11232W        W76492  14.074  32.336  13.346
11233W        W76493  11.104  18.948   4.452
11234W        W76494   8.783   4.743   2.330
11235W        W76495  36.051  19.034  12.912
11236W        W76496  12.507  43.382   4.896
11237W        W76497  35.034   4.227   2.426
11238W        W76498  15.439  11.862  11.368
11239W        W76499   8.677  32.383   3.148
11240W        W76500  41.370  11.442   0.767
11241W        W76501  44.362  23.952   3.366
11242W        W76502   7.810  31.613   4.056
11243W        W76503  27.128  14.397   0.536
11244W        W76504   8.118  19.698  14.100
11245W        W76505  44.457  15.094  13.363
11246W        W76506  15.389  28.613  12.598
11247W        W76507  30.186  43.055   0.360
11248W        W76508  33.876  37.375   0.794
11249W        W76509  33.912  22.245  11.145
11250W        W76510  17.233  21.919  13.324
11251W        W76511   9.822  31.401   0.776
11252W        W76512   8.892  19.293  14.968
11253W        W76513   3.562  26.667  12.032
11254W        W76514  36.072  20.944   3.744
11255W        W76515   4.435  23.963   4.904
11256W        W76516   1.589  26.707   0.538
11257W        W76517  20.135  30.651   2.206
11258W        W76518  10.237  35.806  14.687
11259W        W76519  31.996  12.267   3.201
11260W        W76520  28.094   5.631   1.076
11261W        W76521  28.514  20.730  10.666
11262W        W76522   1.192  23.049   4.642
11263W        W76523  22.768   2.276  14.019
11264W        W76524  25.710  29.792   2.212
11265W        W76525  27.862   9.444   2.228
11266W        W76526   0.507  21.571  10.593
11267W        W76527  11.360  36.358   4.724
11268W        W76528   6.816  16.441  13.901
11269W        W76529   0.297  30.949   0.747
11270W        W76530  23.911   3.215  10.059
11271W        W76531  20.276  44.755  13.427
11272W        W76532  43.948  13.173  14.407
11273W        W76533  21.784  32.365  13.132
11274W        W76534  27.210  26.638  12.514
11275W        W76535  32.998  15.963  12.853
11276W        W76536  25.919   0.093  10.772
11277W        W76537  42.938  26.223   4.561
11278W        W76538   6.881   7.269   3.460
11279W        W76539   1.400  27.671   0.257
11280W        W76540   2.087  24.675   5.439
11281W        W76541  16.139  11.345   3.465
11282W        W76542   2.387   0.721  13.887
11283W        W76543   3.830  39.787   1.404
11284W        W76544   9.723  24.223   0.428
11285W        W76545  39.438  36.520   1.395
11286W        W76546  37.841   2.209   0.380
11287W        W76547  20.123  18.251   2.372
11288W        W76548  20.244  10.588  13.904
11289W        W76549  21.800   3.182  14.005
11290W        W76550  43.389   2.152  13.313
11291W        W76551   3.486  40.833  13.308
11292W        W76552   9.226   8.677  13.925
11293W        W76553  33.567   4.652   4.195
11294W        W76554  20.849   2.708   4.913
11295W        W76555  20.038  38.755   1.195
11296W        W76556  15.875   2.204  11.059
11297W        W76557  34.443  10.352   2.250
11298W        W76558  41.243  22.270   4.700
11299W        W76559  40.306  37.300   1.432
11300W        W76560   6.186  25.954   5.064
11301W        W76561  42.001  16.863  11.627
11302W        W76562   0.980   4.326   3.253
11303W        W76563  36.807  31.902   1.830
11304W        W76564  15.589   8.876  13.800
11305W        W76565  14.659  28.673   1.697
11306W        W76566  43.277   8.835  14.767
11307W        W76567  39.320  39.776  12.082
11308W        W76568  34.322  19.247  12.521
11309W        W76569  25.669  36.073  14.853
11310W        W76570  20.339  35.401  12.629
11311W        W76571   9.818  36.613   2.916
11312W        W76572   6.620  36.752  12.118
11313W        W76573  19.609  13.856  10.794
11314W        W76574  12.090  23.028   3.044
11315W        W76575  23.805   8.070   1.371
11316W        W76576   7.130  17.670  10.707
11317W        W76577  39.500  38.509  11.675
11318W        W76578  32.410  44.297   3.796
11319W        W76579  16.076  10.779  13.576
11320W        W76580  43.295  32.562  10.996
11321W        W76581  38.443   9.619   4.798
11322W        W76582  24.258  44.004  11.124
11323W        W76583  16.996  25.340  11.180
11324W        W76584  10.284  19.187  10.671
11325W        W76585   7.413  23.124   3.273
11326W        W76586   3.270   5.454  11.137
11327W        W76587   8.825   9.205   3.616
11328W        W76588  22.303   3.985   0.753
11329W        W76589   9.352  24.729   3.180
11330W        W76590  37.914  35.428   0.888
11331W        W76591  35.236  17.329  11.395
11332W        W76592   6.657  42.045   2.813
11333W        W76593  17.750   8.743  13.315
11334W        W76594  40.594  21.796   0.363
11335W        W76595  37.561  39.385   4.188
11336W        W76596  16.284   5.370  14.211
11337W        W76597  12.938  11.643  12.843
11338W        W76598  22.989   6.996  10.255
11339W        W76599  25.789  15.254   4.553
11340W        W76600  11.924  32.686   3.302
11341W        W76601  30.535  22.238  14.870
11342W        W76602  21.797   6.888  14.418
11343W        W76603  11.600  43.747  14.856
11344W        W76604  20.998  44.861  10.661
11345W        W76605  26.076  17.564   5.850
11346W        W76606   7.696  30.320   1.423
11347W        W76607  33.087  28.097   0.097
11348W        W76608  13.789  28.527   0.324
11349W        W76609  40.504   7.332   4.180
11350W        W76610  40.832  18.537  12.084
11351W        W76611  33.283  22.405   4.476
11352W        W76612   7.044   5.993  11.606
11353W        W76613  32.548  28.743  14.048
11354W        W76614  28.557   5.824   0.973
11355W        W76615  37.142  30.133  14.862
11356W        W76616  10.387   6.487   0.883
11357W        W76617  26.614  17.324  11.096
11358W        W76618  19.042   1.266  14.436
11359W        W76619  33.618  43.494  13.859
11360W        W76620  42.543  33.013   0.848
11361W        W76621  35.968   0.719  13.509
11362W        W76622  17.398  22.724  11.666
11363W        W76623   2.741  24.575  11.668
11364W        W76624  32.010  18.311  11.496
11365W        W76625  22.595  41.104   1.552
11366W        W76626  32.164  22.313   4.593
11367W        W76627  43.971  26.677  13.103
11368W        W76628  14.917  33.372   2.264
11369W        W76629   8.359  25.128  12.848
11370W        W76630  26.408  20.694  13.141
11371W        W76631   5.351   1.076   0.430
11372W        W76632  37.021  17.038  10.929
11373W        W76633  26.003   2.257  13.820
11374W        W76634  31.435  15.662   0.256
11375W        W76635  16.090  18.087  13.543
11376W        W76636  12.399  11.775   2.747
11377W        W76637  43.570   4.647   3.973
11378W        W76638   2.626  31.995   4.136
11379W        W76639  31.658  23.210  10.569
11380W        W76640   6.408  15.065   3.729
11381W        W76641  20.656  36.906  14.483
11382W        W76642  33.027  21.645   3.552
11383W        W76643  20.076  11.955   3.344
11384W        W76644  18.771  16.710   5.014
11385W        W76645  34.388  20.746  14.918
11386W        W76646  33.513  26.703   5.447
11387W        W76647  44.677  34.402   2.316
11388W        W76648  44.000  44.042   1.572
11389W        W76649   1.524  10.658  14.800
11390W        W76650  25.553  40.067   3.633
11391W        W76651  20.215  20.411   0.434
11392W        W76652  21.982   7.359   2.191
11393W        W76653  23.235  37.476  12.098
11394W        W76654   3.917   3.985   2.147
11395W        W76655  25.089  29.894  12.909
11396W        W76656  23.050  22.046   1.828
11397W        W76657  14.872  20.155   0.044
11398W        W76658  30.917  34.860  14.056
11399W        W76659  31.902   6.287   4.928
11400W        W76660  44.990   0.261  13.192
11401W        W76661  32.381  42.634  12.046
11402W        W76662   6.875  25.434  11.174
11403W        W76663  21.929  39.947  13.441
11404W        W76664  29.244   2.479  14.940
11405W        W76665   3.327  10.115  13.895
11406W        W76666  43.122  24.603   0.193
11407W        W76667   3.777  25.821   0.054
11408W        W76668   2.533  31.628   0.963
11409W        W76669  18.545  36.970   4.235
11410W        W76670  16.437  13.250   1.782
11411W        W76671  31.890  42.526  13.018
11412W        W76672  30.027  35.559   4.414
11413W        W76673  14.146  36.491  14.840
11414W        W76674  19.173  38.247  12.335
11415W        W76675  21.486  39.316  14.863
11416W        W76676  26.009  21.876   3.735
11417W        W76677  12.147   3.609   1.887
11418W        W76678   2.394  11.959  10.679
11419W        W76679  15.251  32.264  13.431
11420W        W76680  43.730   6.401   3.933
11421W        W76681  13.160  10.631  13.474
11422W        W76682  40.954  11.081  11.142
11423W        W76683  12.054  40.249  13.901
11424W        W76684  21.088  20.493   1.715
11425W        W76685  13.200  22.772  12.609
11426W        W76686  16.942  33.653  13.331
11427W        W76687  35.015  34.828  10.439
11428W        W76688  19.352   5.205  10.696
11429W        W76689  41.792   7.952  12.902
11430W        W76690  15.541  20.011   0.362
11431W        W76691  20.507  36.631   2.231
11432W        W76692  24.622  29.378   4.758
11433W        W76693  12.678   9.507  14.002
11434W        W76694  25.098   1.304  10.547
11435W        W76695  11.467   1.095   0.794
11436W        W76696  31.917  18.116   4.665
11437W        W76697   3.326   1.588  12.913
11438W        W76698   3.002  33.993  13.967
11439W        W76699   9.713  12.198   4.046
11440W        W76700  19.660  22.135  14.492
11441W        W76701  35.441  31.401  10.715
11442W        W76702  14.194  33.069  14.686
11443W        W76703  10.206  29.087   0.032
11444W        W76704  25.913  39.230  11.134
11445W        W76705  37.333  16.283   0.003
11446W        W76706  37.433  38.021   1.664
11447W        W76707  41.144  19.158   0.258
11448W        W76708  32.750   5.222   4.150
11449W        W76709  19.273  32.906  14.930
11450W        W76710  30.576   2.446   2.605
11451W        W76711   6.312  42.861  12.983
11452W        W76712  20.869  25.053  13.033
11453W        W76713   3.182  44.313   1.091
11454W        W76714  18.833  12.560  12.071
11455W        W76715  22.531   8.724  14.379
11456W        W76716  42.500   6.373  14.418
11457W        W76717  20.778   2.803   2.457
11458W        W76718   8.462  22.139   1.795
11459W        W76719  13.183  10.331  11.074
11460W        W76720  36.333   2.408  10.729
11461W        W76721   1.926  44.239  12.507
11462W        W76722   9.591  14.686   4.090
11463W        W76723  25.391   4.719   9.860
11464W        W76724  20.100  40.486   3.246
11465W        W76725  40.104  26.965  10.936
11466W        W76726  27.639  37.854   3.352
11467W        W76727  37.003  37.004  11.260
11468W        W76728   7.850  33.936   0.107
11469W        W76729  12.689  40.427  14.939
11470W        W76730  24.622   9.392   4.282
11471W        W76731   4.705  44.498  12.387
11472W        W76732  29.472  37.559  14.318
11473W        W76733   1.940  34.867   4.220
11474W        W76734  23.733   3.915  12.424
11475W        W76735  11.407   5.733   9.815
11476W        W76736   3.932   2.845   1.802
11477W        W76737  42.953   7.956  11.546
11478W        W76738  43.590  23.397   1.733
11479W        W76739   6.641  17.996  12.862
11480W        W76740  20.658  39.928   4.607
11481W        W76741  40.760   2.414  11.106
11482W        W76742  24.444   8.447  10.146
11483W        W76743  44.594  44.038   3.868
11484W        W76744  44.821   0.438   4.762
11485W        W76745   9.648  14.618   0.420
11486W        W76746   5.076  39.707   4.073
11487W        W76747  12.621  43.877   1.399
11488W        W76748  14.728   2.031  14.916
11489W        W76749  27.407  33.605   1.182
11490W        W76750  21.574  12.380  13.679
11491W        W76751  42.512  29.570  12.669
11492W        W76752  43.369  34.728   4.651
11493W        W76753  29.643  27.007   2.448
11494W        W76754  30.849  34.709   0.070
11495W        W76755  12.286  28.647   1.895
11496W        W76756   6.407  22.431  14.705
11497W        W76757  25.473  13.414  13.821
11498W        W76758  27.241  38.853   9.693
11499W        W76759  27.220  22.570  14.531
11500W        W76760  41.813   4.103  12.303
11501W        W76761  17.373   4.257   1.376
11502W        W76762  19.130   9.784   1.293
11503W        W76763  17.930  29.711   4.399
11504W        W76764  30.426   1.974   4.005
11505W        W76765  38.795   1.513   0.078
11506W        W76766  38.197  16.025  14.573
11507W        W76767  10.596  17.658   3.830
11508W        W76768  34.898   2.746  11.829
11509W        W76769  14.818   5.605   3.209
11510W        W76770  26.690  16.129   1.806
11511W        W76771  11.246  39.842  14.373
11512W        W76772  44.315  37.834   0.287
11513W        W76773  32.028  17.199   0.896
11514W        W76774  28.998  40.975  11.186
11515W        W76775  37.690  14.688  13.140
11516W        W76776  31.999  37.745   2.454
11517W        W76777  25.082  41.115   4.252
11518W        W76778   6.915   1.660   2.174
11519W        W76779  35.646  19.311  13.948
11520W        W76780  39.255   3.448   0.196
11521W        W76781  26.915  42.591  14.698
11522W        W76782  24.117  23.571  10.268
11523W        W76783   3.395  37.309  13.927
11524W        W76784  22.260  28.935  12.596
11525W        W76785  29.698  24.406  11.249
11526W        W76786   5.973   6.701   1.791
11527W        W76787  24.571  25.577  14.013
11528W        W76788  19.575   8.916  12.039
11529W        W76789  23.842   5.058  11.730
11530W        W76790  32.570  30.455  10.530
11531W        W76791   7.908  17.049   1.211
11532W        W76792  10.787   6.117  14.990
11533W        W76793   4.561  42.954   1.488
11534W        W76794  16.135   1.584   4.055
11535W        W76795  38.748  41.915   0.415
11536W        W76796  15.057  37.064   0.395
11537W        W76797  29.158  24.996   9.885
11538W        W76798  43.762  38.841   4.186
11539W        W76799  15.837  44.936  11.599
11540W        W76800  12.515  16.742   3.164
11541W        W76801  36.479  31.006  11.943
11542W        W76802   9.040   5.175   1.286
11543W        W76803  14.234   9.653   2.414
11544W        W76804  20.210  10.075  13.897
11545W        W76805  12.940   7.438   2.728
11546W        W76806   4.708  18.003   4.050
11547W        W76807  12.390  41.457  13.854
11548W        W76808  39.440  23.904  12.238
11549W        W76809  35.258  41.023   4.483
11550W        W76810  34.417   2.791   0.464
11551W        W76811   2.905  10.679   4.782
11552W        W76812  34.987  41.502  11.639
11553W        W76813  13.637  17.882  11.035
11554W        W76814  27.082   1.391  10.865
11555W        W76815  22.356   8.019   0.338
11556W        W76816  16.558   2.722  11.957
11557W        W76817  15.555  13.254   0.031
11558W        W76818   2.806  38.153   1.767
11559W        W76819   6.294   1.396  13.304
11560W        W76820   6.685  11.857  11.616
11561W        W76821  22.064   8.778   0.641
11562W        W76822  29.413  44.793  12.946
11563W        W76823  17.240   2.406  10.976
11564W        W76824  22.682  33.548   0.537
11565W        W76825  17.415   2.330  13.094
11566W        W76826   4.837   1.302   0.424
11567W        W76827   6.145  30.890  10.630
11568W        W76828   8.361  36.634  10.706
11569W        W76829  33.711   9.661  12.876
11570W        W76830  41.936  15.262  11.629
11571W        W76831  42.966  30.953   0.227
11572W        W76832   8.907  21.685  13.346
11573W        W76833  37.451  32.133  14.218
11574W        W76834  13.668  44.281   2.372
11575W        W76835   1.204  25.567   1.776
11576W        W76836   6.289  20.432  10.745
11577W        W76837   1.955  36.803   3.312
11578W        W76838  12.828  21.261  14.948
11579W        W76839  25.412  40.753   2.864
11580W        W76840  36.423  32.706  11.281
11581W        W76841   4.683   5.208   3.302
11582W        W76842  36.621  15.056   2.760
11583W        W76843  22.721  26.287  11.532
11584W        W76844  38.622  23.260   2.945
11585W        W76845  25.481  16.879   1.319
11586W        W76846   2.861  30.195   3.536
11587W        W76847   8.206  41.323  10.431
11588W        W76848   1.934  27.979  14.036
11589W        W76849  11.405  32.602   3.208
11590W        W76850  19.265  35.274  10.561
11591W        W76851  41.993   6.316  14.269
11592W        W76852  26.024   5.277  14.581
11593W        W76853  44.868  24.252  12.399
11594W        W76854   6.182  40.549   1.351
11595W        W76855  12.620  20.257  13.799
11596W        W76856  19.128  17.957  13.493
11597W        W76857  28.888  26.743   3.693
11598W        W76858  29.321   4.022  10.596
11599W        W76859  28.432  11.088  13.345
11600W        W76860  29.650  31.171  12.493
11601W        W76861  26.433  19.543   1.316
11602W        W76862  11.795  33.469  11.018
11603W        W76863   7.933  16.302  10.650
11604W        W76864  38.801  20.754   2.491
11605W        W76865  22.599  22.182   4.837
11606W        W76866  42.957  31.524  10.719
11607W        W76867  24.249  28.839  13.197
11608W        W76868  13.894   9.563   3.654
11609W        W76869  44.323   3.370  12.812
11610W        W76870   1.750  39.577  14.314
11611W        W76871  35.891  30.922  13.978
11612W        W76872  37.320  11.636  11.535
11613W        W76873   6.637  38.897  14.391
11614W        W76874   0.400  34.852   2.256
11615W        W76875   8.933  20.144   0.253
11616W        W76876  18.090  11.050   0.357
11617W        W76877   4.330  13.783   0.890
11618W        W76878   9.734   6.317   5.109
11619W        W76879  16.879  11.870   0.636
11620W        W76880  39.018  34.008   3.492
11621W        W76881  29.151  10.082  11.450
11622W        W76882  18.466  20.017   2.375
11623W        W76883  20.299   3.277   3.856
11624W        W76884  20.006  10.659   0.789
11625W        W76885  25.964  33.516  11.088
11626W        W76886   9.889  14.559  13.486
11627W        W76887  40.592  13.572   0.367
11628W        W76888  10.755  18.608  13.611
11629W        W76889  43.213  12.325  13.117
11630W        W76890  41.375  11.781  11.230
11631W        W76891  16.234  11.048   3.898
11632W        W76892  30.188  20.330  12.280
11633W        W76893  37.342  37.361   4.474
11634W        W76894  19.656   9.869   2.706
11635W        W76895  34.793  21.688  13.056
11636W        W76896   0.470   5.174  13.817
11637W        W76897  12.105  21.123   0.475
11638W        W76898  21.434  35.029  14.314
11639W        W76899  37.961  10.925  11.962
11640W        W76900  38.980  24.584   4.612
11641W        W76901  33.062   2.837  13.261
11642W        W76902  35.167  14.081   1.918
11643W        W76903  33.377  28.521   1.813
11644W        W76904  12.737  13.276   0.150
11645W        W76905   1.002  25.586  14.802
11646W        W76906  22.417  25.313   3.292
11647W        W76907  14.632  35.021  13.870
11648W        W76908  29.312  39.054  11.254
11649W        W76909  34.104  42.400  14.350
11650W        W76910  20.746  37.353  14.774
11651W        W76911  13.027  35.407  13.473
11652W        W76912  31.991  16.662   0.045
11653W        W76913   2.476  20.668   0.199
11654W        W76914  11.821  26.752  14.430
11655W        W76915   0.707  43.173  10.977
11656W        W76916  16.192   3.377   3.452
11657W        W76917  31.605  36.777  13.412
11658W        W76918  12.811  30.051   4.540
11659W        W76919  28.401  20.121   2.741
11660W        W76920  17.517  12.601  13.416
11661W        W76921  39.774  30.996  12.979
11662W        W76922   6.163  18.087  10.657
11663W        W76923  19.211  14.170  11.127
11664W        W76924  12.427  34.509   4.786
11665W        W76925  31.459  41.552   2.734
11666W        W76926   9.260  43.276  10.510
11667W        W76927  25.189   4.150   1.190
11668W        W76928  17.633  13.275  12.987
11669W        W76929  24.581   1.303   0.021
11670W        W76930  26.713  11.135   0.849
11671W        W76931   7.787  13.073  11.178
11672W        W76932  21.438  41.912  14.401
11673W        W76933  42.844  33.484   0.207
11674W        W76934  41.134  18.192   3.262
11675W        W76935  22.046  12.893  14.976
11676W        W76936  27.714  24.479  12.583
11677W        W76937  27.076  37.543  10.561
11678W        W76938   6.171  37.517   4.238
11679W        W76939  36.091  27.224  11.124
11680W        W76940   0.333  30.221   0.392
11681W        W76941  40.378  37.929   4.564
11682W        W76942  16.759  42.996  13.524
11683W        W76943  12.361  32.974  14.838
11684W        W76944   4.190   1.270  11.141
11685W        W76945  44.590  41.263   3.753
11686W        W76946  34.673  32.438  10.457
11687W        W76947  24.465  28.955   3.536
11688W        W76948   6.960  18.709   3.420
11689W        W76949  15.545  14.777   4.008
11690W        W76950  15.869  30.892  13.142
11691W        W76951  16.481  36.657   3.384
11692W        W76952   2.871  10.652  12.031
11693W        W76953  18.324   1.007   2.732
11694W        W76954   6.323  39.039  14.780
11695W        W76955  11.585   4.875  13.468
11696W        W76956  21.711  33.883   1.828
11697W        W76957  44.919  37.574  13.439
11698W        W76958  29.906  38.563  13.475
11699W        W76959  33.556  28.874  14.899
11700W        W76960  17.214  16.660   1.981
11701W        W76961  17.619  26.475   3.370
11702W        W76962  31.014   0.718  12.415
11703W        W76963  27.982  31.088  12.406
11704W        W76964  14.320  43.956  11.668
11705W        W76965  34.990   5.406  10.633
11706W        W76966  14.071  28.039   3.711
11707W        W76967  26.267  15.328   3.288
11708W        W76968   0.935  38.328   1.847
11709W        W76969  39.113   7.799   1.906
11710W        W76970  32.914  29.347  10.261
11711W        W76971  37.942  16.273   3.361
11712W        W76972  17.912  38.845  13.351
11713W        W76973  17.287  18.534   3.276
11714W        W76974  37.470  20.904  13.014
11715W        W76975   0.419   1.011   2.881
11716W        W76976  32.119   2.939   1.398
11717W        W76977  35.789  23.169  12.136
11718W        W76978   7.593  15.096  14.717
11719W        W76979  15.275  31.880   2.710
11720W        W76980   8.650  15.100  11.214
11721W        W76981   9.236  20.738  13.005
11722W        W76982  12.685  24.557  11.154
11723W        W76983   5.871   2.225  10.819
11724W        W76984  15.814  14.278   2.178
11725W        W76985   3.847  34.386  12.883
11726W        W76986  14.247  31.576   2.364
11727W        W76987  33.364   5.264   1.922
11728W        W76988  20.898  26.668   3.939
11729W        W76989  32.518  23.266  10.567
11730W        W76990  22.809  12.705  13.059
11731W        W76991   5.965  25.109  11.585
11732W        W76992  41.198  39.395   2.647
11733W        W76993  35.421   3.387  12.272
11734W        W76994  37.873  16.045   1.496
11735W        W76995  39.097  31.609   4.059
11736W        W76996   3.202   2.706  11.133
11737W        W76997  41.809  36.895  14.008
11738W        W76998  34.988  30.422   0.286
11739W        W76999  10.016  18.550  14.284
11740W        W77000   4.943  42.360  13.474
11741W        W77001   5.159   6.478   2.283
11742W        W77002  15.440  29.298  11.530
11743W        W77003   6.162  22.767  13.083
11744W        W77004  38.942   8.206  12.242
11745W        W77005  36.529  18.878  13.096
11746W        W77006  36.747  15.597   2.827
11747W        W77007   7.277  20.035  14.855
11748W        W77008  21.660  10.408  10.435
11749W        W77009   3.672   8.889   3.536
11750W        W77010  36.744  20.851  14.019
11751W        W77011   9.037  30.732   2.154
11752W        W77012  32.405  16.855  13.785
11753W        W77013   4.633  39.736  12.432
11754W        W77014  15.145  37.245  10.300
11755W        W77015   8.160   7.491  13.139
11756W        W77016  29.629   0.785   1.859
11757W        W77017  17.841   9.894  11.088
11758W        W77018   1.249   0.328  10.739
11759W        W77019  41.767  18.648   2.651
11760W        W77020  33.979  39.840  12.597
11761W        W77021   5.363  37.799  12.417
11762W        W77022  13.751   1.468   0.628
11763W        W77023  22.092  25.807   4.816
11764W        W77024  19.988  17.996   0.765
11765W        W77025   3.166  43.790   3.904
11766W        W77026   7.231  30.569  12.439
11767W        W77027  12.638  17.688  14.566
11768W        W77028  36.744  30.999  12.927
11769W        W77029   1.500  27.706   5.020
11770W        W77030  26.451  15.076   1.981
11771W        W77031  36.463  26.318   0.921
11772W        W77032  18.644  35.867   2.283
11773W        W77033  43.175  43.792   2.297
11774W        W77034   5.444  24.489   1.716
11775W        W77035  32.152  22.504   0.228
11776W        W77036  40.047   7.397   3.169
11777W        W77037  22.797  26.508  13.407
11778W        W77038  13.809   7.399   0.966
11779W        W77039  11.169  30.702  10.738
11780W        W77040   2.907   6.397  12.290
11781W        W77041  32.093  12.851  14.383
11782W        W77042  44.850   4.379  13.871
11783W        W77043  23.589  32.475   1.942
11784W        W77044   8.650  13.758  11.637
11785W        W77045  23.064  19.679  13.295
11786W        W77046  23.937  32.960  10.776
11787W        W77047  34.192  20.274  14.727
11788W        W77048   5.431  38.937  11.693
11789W        W77049  37.169  36.402  13.952
11790W        W77050  19.739  34.751   1.447
11791W        W77051  11.747  33.913  12.302
11792W        W77052  24.742  33.119   0.256
11793W        W77053  37.001  14.219  12.374
11794W        W77054  38.900  34.455  11.277
11795W        W77055  40.444  21.537  12.107
11796W        W77056  16.025  39.446   0.856
11797W        W77057   4.972  20.734   3.130
11798W        W77058  44.983  40.434   1.798
11799W        W77059  33.443   9.516   1.242
11800W        W77060  36.894   8.745  14.918
11801W        W77061  32.148  15.490  14.874
11802W        W77062  28.180  13.235  12.769
11803W        W77063  11.851  41.371  12.440
11804W        W77064  44.365  23.809  11.120
11805W        W77065   3.782  10.614   3.843
11806W        W77066  32.086  40.510  10.495
11807W        W77067  32.301  24.183  14.906
11808W        W77068  26.993  39.457   3.277
11809W        W77069  16.478  13.600  11.109
11810W        W77070  24.424  20.689   1.594
11811W        W77071  22.526   6.867   4.541
11812W        W77072  42.421  13.508   4.569
11813W        W77073  23.651  21.208   4.293
11814W        W77074  18.537   5.007   2.598
11815W        W77075  33.092  17.368  14.688
11816W        W77076   4.025  21.665  14.575
11817W        W77077   8.751  41.419   4.272
11818W        W77078  14.941  19.773   3.092
11819W        W77079   1.372  14.756  13.330
11820W        W77080  18.857  18.730  12.715
11821W        W77081  38.443  33.523  12.085
11822W        W77082  38.367  42.386   3.741
11823W        W77083  24.950   3.869   4.862
11824W        W77084  27.412  20.766  13.140
11825W        W77085  22.212  14.155  14.187
11826W        W77086  43.192  24.670  10.631
11827W        W77087  11.364   5.258   3.748
11828W        W77088  41.989  31.860  13.434
11829W        W77089  29.480  32.111   4.648
11830W        W77090   4.198  19.610   2.862
11831W        W77091  43.737  43.012  14.509
11832W        W77092  31.058   9.986  13.773
11833W        W77093  32.980  19.526   2.353
11834W        W77094  39.241  31.957  14.158
11835W        W77095  10.472  18.302   1.259
11836W        W77096  24.629  42.275   4.439
11837W        W77097   9.120  16.799  11.214
11838W        W77098  23.157  23.074  10.653
11839W        W77099  22.057  13.812   2.431
11840W        W77100  14.195   4.488  14.983
11841W        W77101  34.816  27.169  10.566
11842W        W77102   2.657  33.791   2.795
11843W        W77103   9.055  22.741   1.746
11844W        W77104  18.627  28.991   1.765
11845W        W77105  30.161  24.207  11.081
11846W        W77106  20.585  24.286  11.051
11847W        W77107   2.844  38.808   0.342
11848W        W77108  37.916  38.904  13.530
11849W        W77109   4.148   2.527  12.509
11850W        W77110  35.874  26.912   9.870
11851W        W77111  10.274   1.267  11.601
11852W        W77112  14.739   1.790  14.446
11853W        W77113   5.175  23.053   4.004
11854W        W77114  27.503   2.494  10.636
11855W        W77115  14.773  23.128   4.687
11856W        W77116   6.300   4.951   2.957
11857W        W77117   4.921  37.960   0.971
11858W        W77118  40.971  24.266  14.531
11859W        W77119  42.181  29.046  12.006
11860W        W77120  21.046  29.995   1.908
11861W        W77121  22.283   6.816  13.317
11862W        W77122  10.833  40.800   3.910
11863W        W77123  40.717  27.584  13.190
11864W        W77124  37.344  11.039   0.009
11865W        W77125  21.441  11.164   1.811
11866W        W77126  36.113  21.617   2.964
11867W        W77127  31.438  37.329  12.545
11868W        W77128  17.990   3.182   0.310
11869W        W77129  16.205  40.525  11.689
11870W        W77130  28.706  20.058  11.172
11871W        W77131  42.506  42.503  14.830
11872W        W77132  24.921  23.346  12.403
11873W        W77133  41.924  14.393  14.694
11874W        W77134  43.915  39.107   3.258
11875W        W77135  28.217  21.485  11.869
11876W        W77136  40.025  41.302   2.282
11877W        W77137  26.645  19.300   2.982
11878W        W77138  44.999  44.267  14.941
11879W        W77139   8.748   0.682  10.911
11880W        W77140  37.405  44.869   3.607
11881W        W77141  37.746  44.186   1.298
11882W        W77142  20.696  34.081  13.061
11883W        W77143  13.238   4.951   2.281
11884W        W77144  28.503   7.159   0.718
11885W        W77145   7.415  36.596   4.652
11886W        W77146  21.180   2.334  13.339
11887W        W77147  19.702  24.024   1.449
11888W        W77148  40.813  33.624  12.548
11889W        W77149   5.630  40.625  11.122
11890W        W77150  24.184  40.243   0.950
11891W        W77151  32.919  44.494   3.679
11892W        W77152  35.499  29.636   4.653
11893W        W77153  31.468   2.852  13.876
11894W        W77154   8.609   2.517   2.820
11895W        W77155   4.346   0.230   4.626
11896W        W77156  25.032  13.065   1.299
11897W        W77157  13.190  19.572   4.565
11898W        W77158  22.462  34.604   2.616
11899W        W77159   2.366  16.651   4.318
11900W        W77160   3.734  44.959   3.088
11901W        W77161  27.493  32.525  12.185
11902W        W77162  42.289  44.351  13.573
11903W        W77163  26.415  21.737   2.149
11904W        W77164   9.286  35.125  10.523
11905W        W77165   2.820  30.290  14.478
11906W        W77166  43.852  17.631  14.400
11907W        W77167  40.323   5.446  13.219
11908W        W77168   6.892  39.388   4.299
11909W        W77169  43.729  37.323  13.847
11910W        W77170  44.521  14.585  13.509
11911W        W77171  30.177  32.071  13.327
11912W        W77172  23.098  10.243   4.394
11913W        W77173  21.799   5.109  14.048
11914W        W77174  10.254  43.094   3.743
11915W        W77175  21.988  15.582   4.335
11916W        W77176  38.917  25.886  13.022
11917W        W77177  44.077  13.770  14.840
11918W        W77178  20.553  40.893  12.108
11919W        W77179  18.167   6.211   4.481
11920W        W77180  42.821  13.485   3.319
11921W        W77181  28.154  10.482   1.921
11922W        W77182  24.159   9.098  14.247
11923W        W77183   1.084  22.644  14.933
11924W        W77184   5.642  18.680   0.956
11925W        W77185  13.688  16.816   4.163
11926W        W77186   5.343  28.202   3.169
11927W        W77187  22.843   3.862  11.473
11928W        W77188  41.131  21.145  13.085
11929W        W77189   9.156  14.186   1.875
11930W        W77190  13.431  15.675  11.643
11931W        W77191   8.373  42.306   1.156
11932W        W77192  12.655   0.082   1.162
11933W        W77193  12.219  27.611  12.772
11934W        W77194  30.084  14.152  14.741
11935W        W77195  21.600  34.686  13.964
11936W        W77196  10.731  42.253   2.780
11937W        W77197  32.393  34.370   1.898
11938W        W77198  34.382   7.806  14.047
11939W        W77199  21.012  10.209   1.944
11940W        W77200  44.166   7.405  12.577
11941W        W77201  43.849  15.616  10.704
11942W        W77202  37.407  10.281  13.559
11943W        W77203  37.514  24.551  14.512
11944W        W77204   7.803   0.729   3.132
11945W        W77205  14.610  43.752   2.106
11946W        W77206  39.517   1.875   4.440
11947W        W77207  40.886  16.058   2.649
11948W        W77208   0.096  12.598  14.804
11949W        W77209  39.405   2.494   1.311
11950W        W77210  21.217  41.218  12.878
11951W        W77211  10.299   2.508   3.288
11952W        W77212  44.206  22.921  12.121
11953W        W77213  26.574  41.203  14.738
11954W        W77214  37.749  14.806  12.634
11955W        W77215   4.742  18.081  13.107
11956W        W77216  24.908  23.444   2.287
11957W        W77217  12.210  38.755   4.237
11958W        W77218  20.170  24.885   1.752
11959W        W77219   2.354  22.107  11.164
11960W        W77220  28.418  18.170   0.291
11961W        W77221   4.223   6.956  14.903
11962W        W77222  14.312  18.505   0.926
11963W        W77223  13.145  20.692   3.320
11964W        W77224   9.652  31.171  13.431
11965W        W77225   3.692   6.101  13.045
11966W        W77226  24.638   0.047  14.620
11967W        W77227  13.659  44.926  10.974
11968W        W77228  39.451  30.185  10.650
11969W        W77229  20.746  37.929  13.433
11970W        W77230   1.634  17.735   2.262
11971W        W77231  27.970  42.545  11.058
11972W        W77232  30.977   7.653  14.402
11973W        W77233   3.154   8.591  13.001
11974W        W77234  43.409  38.981  14.420
11975W        W77235   0.226   0.500  10.798
11976W        W77236  38.846  42.414  10.658
11977W        W77237  27.967  30.196  14.177
11978W        W77238   7.646  22.789   2.681
11979W        W77239   3.431  19.235  13.434
11980W        W77240   0.236  21.865  13.848
11981W        W77241  43.688   4.795   4.492
11982W        W77242  26.938  28.597  13.809
11983W        W77243  21.750  37.031   3.622
11984W        W77244   7.405  36.200   4.997
11985W        W77245  34.278  25.565  11.648
11986W        W77246  24.995  12.195   2.310
11987W        W77247  41.835  12.783   1.812
11988W        W77248  25.625  32.619   0.237
11989W        W77249  16.229  10.795   0.497
11990W        W77250  11.821  30.519  11.486
11991W        W77251   0.844  39.934   3.605
11992W        W77252   4.440  26.631  10.627
11993W        W77253  13.329  36.587   4.308
11994W        W77254  34.961  18.424  12.808
11995W        W77255  24.140  38.030  14.547
11996W        W77256  42.432  24.154   1.472
11997W        W77257  16.012   6.530  13.777
11998W        W77258   6.731  28.000   4.100
11999W        W77259  24.083  14.901   4.547
12000W        W77260   2.760  20.209   0.878
12001W        W77261  35.612  11.578   2.175
12002W        W77262  41.492   2.829   1.197
12003W        W77263  22.478  19.157  12.594
12004W        W77264  29.459   2.128  14.612
12005W        W77265  12.895  40.044   1.498
12006W        W77266  22.087   6.275   1.151
12007W        W77267  39.858  39.337   2.369
12008W        W77268  15.568  38.292  11.505
12009W        W77269  12.799  42.522  11.074
12010W        W77270  13.063  28.654   3.211
12011W        W77271  35.416  20.182   4.807
12012W        W77272  22.233   3.666  14.789
12013W        W77273  42.252  38.270  11.859
12014W        W77274  44.197  31.103   4.581
12015W        W77275  43.032  41.752   0.041
12016W        W77276  13.212  13.758   1.961
12017W        W77277  34.583  31.537   3.433
12018W        W77278  32.580  33.426  12.470
12019W        W77279  33.058  14.746  14.496
12020W        W77280   6.312  30.089   0.484
12021W        W77281  44.517  15.836   1.236
12022W        W77282   2.251  12.254   1.220
12023W        W77283  16.073  15.309  14.674
12024W        W77284  31.088  12.194   3.743
12025W        W77285  35.933  37.476  14.946
12026W        W77286   4.688  39.929   1.859
12027W        W77287  40.680   3.188   2.742
12028W        W77288   0.903  12.626   0.975
12029W        W77289  25.355  28.183  11.321
12030W        W77290  21.575  40.376   1.313
12031W        W77291  44.050   6.295   0.501
12032W        W77292  17.214  22.837   1.878
12033W        W77293  34.317  32.951   3.647
12034W        W77294  42.971  25.116   4.931
12035W        W77295  38.528  10.056  13.424
12036W        W77296  14.224  13.126   3.082
12037W        W77297  29.809  13.842  11.964
12038W        W77298   6.747  29.152   0.982
12039W        W77299  27.877  31.621   3.046
12040W        W77300  40.456   0.898   3.149
12041W        W77301   8.852  39.507  13.811
12042W        W77302  34.466  35.715  12.502
12043W        W77303  28.395  34.075   2.936
12044W        W77304  39.284  42.251  13.942
12045W        W77305  42.330  42.202  10.982
12046W        W77306  19.962   2.471   0.335
12047W        W77307  12.641  34.254  12.237
12048W        W77308   4.839  14.537  12.488
12049W        W77309  26.030   0.231  14.342
12050W        W77310   1.440  31.068   4.848
12051W        W77311  30.664  17.502   3.656
12052W        W77312  17.202  26.824   2.829
12053W        W77313   4.513  34.294   1.476
12054W        W77314  34.919  42.066   1.896
12055W        W77315  14.667   8.723  10.832
12056W        W77316   4.923  11.599   1.892
12057W        W77317  17.261  31.140   4.555
12058W        W77318  37.001  37.362   1.721
12059W        W77319   4.797  25.777   4.191
12060W        W77320  36.029   0.329  13.872
12061W        W77321  14.063  16.171  12.954
12062W        W77322  37.996  34.065  13.503
12063W        W77323   7.686  37.808  11.251
12064W        W77324  25.315  33.421   3.744
12065W        W77325   6.752  40.521  14.741
12066W        W77326  24.129  12.579  10.695
12067W        W77327  17.732  12.258  13.748
12068W        W77328  36.805  34.173   2.697
12069W        W77329  27.625  29.021  11.417
12070W        W77330   2.660  22.940   2.901
12071W        W77331  35.220  43.978   1.544
12072W        W77332  39.136  24.473  10.771
12073W        W77333  13.775  19.538   0.979
12074W        W77334  18.829  18.246  11.514
12075W        W77335  12.556  44.259  12.940
12076W        W77336  27.045  30.118  11.221
12077W        W77337  43.779  10.254  14.397
12078W        W77338  18.769  11.335   4.596
12079W        W77339  27.080  12.087   2.315
12080W        W77340  19.452  19.245   9.990
12081W        W77341  10.425  38.448  10.362
12082W        W77342  39.277  30.268   1.289
12083W        W77343   4.004  19.751   1.873
12084W        W77344  16.577  17.986  11.924
12085W        W77345  44.483  38.140  11.007
12086W        W77346  29.122  13.422   4.587
12087W        W77347  36.962  42.815   3.069
12088W        W77348  12.315  33.204  14.357
12089W        W77349  10.344  30.018   3.171
12090W        W77350  32.199  37.429  13.304
12091W        W77351   0.655   2.732  11.576
12092W        W77352  29.936  18.090  11.924
12093W        W77353  39.800  23.662   4.293
12094W        W77354  16.710  19.557   1.797
12095W        W77355  15.364  19.701   1.515
12096W        W77356  27.408  28.178   1.319
12097W        W77357  32.476  33.379  14.003
12098W        W77358  34.805  29.638  11.556
12099W        W77359  25.999  18.268   2.169
12100W        W77360   6.082  40.996   4.948
12101W        W77361  28.524   4.309  11.571
12102W        W77362  33.676  24.177  12.106
12103W        W77363  36.065  13.049   5.162
12104W        W77364  12.444  27.979   9.803
12105W        W77365  29.556  21.099  11.450
12106W        W77366   9.366   6.407  14.491
12107W        W77367  32.178  26.658  13.342
12108W        W77368  43.366  42.026   0.306
12109W        W77369  29.039  32.100  14.451
12110W        W77370  36.917  14.864   3.277
12111W        W77371  25.452  15.091   5.715
12112W        W77372   2.967  14.643   0.649
12113W        W77373  43.513  13.842  14.895
12114W        W77374  23.156  33.047  13.602
12115W        W77375  32.139  44.305   1.928
12116W        W77376  24.689   1.865   1.760
12117W        W77377   7.615   4.519  10.745
12118W        W77378   0.232  20.984   0.704
12119W        W77379  19.487  29.731  11.760
12120W        W77380  18.726   5.845  12.686
12121W        W77381   3.659   2.465  13.517
12122W        W77382  24.547  36.893  12.590
12123W        W77383  12.632  44.422   2.209
12124W        W77384  17.200  41.713   1.352
12125W        W77385  35.061  14.598  12.871
12126W        W77386  36.319  17.106  12.880
12127W        W77387  38.440   7.770  10.912
12128W        W77388  40.377   1.013  14.425
12129W        W77389   5.779   7.136  13.550
12130W        W77390   3.976  30.549   0.918
12131W        W77391   7.988  24.075   3.208
12132W        W77392  16.436  36.966   1.396
12133W        W77393  40.450   4.957   1.329
12134W        W77394  25.622  44.325   4.431
12135W        W77395   9.427  40.630  14.432
12136W        W77396   5.845  42.251   4.151
12137W        W77397  10.330  19.848   0.799
12138W        W77398  44.285  14.329  11.021
12139W        W77399  29.945  36.435  12.980
12140W        W77400   4.796  39.282  12.606
12141W        W77401  33.805  30.872  12.461
12142W        W77402  17.821  32.655   0.375
12143W        W77403  38.068  26.440  13.631
12144W        W77404  38.963  14.805  13.357
12145W        W77405  16.225  36.862  13.329
12146W        W77406  27.942   0.445  10.431
12147W        W77407  31.464  35.728   3.187
12148W        W77408  31.425  44.799  11.155
12149W        W77409  38.634  31.889   4.032
12150W        W77410  37.410  35.940  14.045
12151W        W77411   8.384  21.786   3.584
12152W        W77412   6.281  16.802  12.493
12153W        W77413  29.670  17.190  10.585
12154W        W77414  26.914   7.230  11.713
12155W        W77415  25.662   9.932   0.954
12156W        W77416   3.396  43.387   4.610
12157W        W77417   1.713  17.905  13.970
12158W        W77418  32.492   5.964   9.893
12159W        W77419  18.780  15.824  12.248
12160W        W77420  41.615   5.802   4.311
12161W        W77421  11.865  40.737  13.721
12162W        W77422   4.941  14.401  10.771
12163W        W77423  20.154  34.589   1.706
12164W        W77424  43.862   1.731  10.916
12165W        W77425   1.151   9.245   3.135
12166W        W77426   2.889  39.464  10.674
12167W        W77427  36.869  43.922   2.284
12168W        W77428  32.128  12.140   4.726
12169W        W77429  32.885  32.567   1.164
12170W        W77430  16.793  34.156   3.114
12171W        W77431  31.957  33.104   4.599
12172W        W77432   0.232   9.332   4.209
12173W        W77433  14.996  25.378  13.239
12174W        W77434   3.233   0.708   1.160
12175W        W77435  15.730   5.066  10.596
12176W        W77436  21.690   0.280  13.312
12177W        W77437  28.883  33.331  13.912
12178W        W77438  36.981  42.365  12.593
12179W        W77439  11.665  34.189  10.993
12180W        W77440   2.933  26.621   0.339
12181W        W77441   0.568  11.371  12.649
12182W        W77442  20.653  19.146   0.535
12183W        W77443  33.649  35.623   2.212
12184W        W77444  16.988  25.759  14.826
12185W        W77445   9.841  10.299   1.725
12186W        W77446  37.843  40.757  11.489
12187W        W77447  37.840  31.432   4.759
12188W        W77448  14.102  21.135  14.410
12189W        W77449   7.997  41.680  11.401
12190W        W77450  29.378   3.387  14.640
12191W        W77451  35.885  35.153   2.254
12192W        W77452  10.320  15.523   2.795
12193W        W77453   9.449  20.143   0.243
12194W        W77454  17.150  20.723  11.737
12195W        W77455  21.761  37.463   0.244
12196W        W77456   9.601  20.482  11.922
12197W        W77457   2.560  10.138  10.889
12198W        W77458  21.435   2.312   4.140
12199W        W77459   0.160  26.590   0.462
12200W        W77460  21.415  13.776   0.837
12201W        W77461  40.107  41.360   0.220
12202W        W77462   2.931  33.835  11.441
12203W        W77463  21.820  15.755  12.007
12204W        W77464  13.688  31.358  12.190
12205W        W77465  18.003  15.361  11.608
12206W        W77466  10.804   2.555  11.454
12207W        W77467  25.927   1.425  14.479
12208W        W77468  28.748   3.465  11.093
12209W        W77469   1.887   3.713  14.402
12210W        W77470  31.625  42.958  10.707
12211W        W77471  27.210   3.070  13.874
12212W        W77472  15.249  12.174  10.613
12213W        W77473  36.400  12.846   1.636
12214W        W77474  17.354  14.630  10.670
12215W        W77475  27.885   2.946  14.366
12216W        W77476   3.235  42.728   0.791
12217W        W77477   6.192  41.277  11.141
12218W        W77478  41.833   1.507  13.803
12219W        W77479  31.381  22.438  10.995
12220W        W77480   2.799  12.091   4.432
12221W        W77481   3.680  38.920  13.738
12222W        W77482   6.852  19.216   4.139
12223W        W77483   9.247  19.861   4.005
12224W        W77484  32.289  42.707  13.458
12225W        W77485  26.451  24.672   5.079
12226W        W77486  40.199  43.274  12.029
12227W        W77487   2.959   7.320  14.134
12228W        W77488   7.576  35.457   2.920
12229W        W77489  31.006  25.265   0.087
12230W        W77490  15.043  35.625   0.752
12231W        W77491  40.706  11.399   2.667
12232W        W77492  36.959  37.279   0.208
12233W        W77493  40.336  15.270  10.727
12234W        W77494   5.961   4.852   3.359
12235W        W77495  29.636   5.695  11.912
12236W        W77496  44.036  44.343   3.767
12237W        W77497  19.642  21.308   1.728
12238W        W77498   1.508  24.653   1.591
12239W        W77499  16.578  11.147  11.110
12240W        W77500  23.572  21.463   2.196
12241W        W77501  23.047  18.307   2.657
12242W        W77502   0.695  12.353   1.410
12243W        W77503  28.291  44.348   4.979
12244W        W77504   4.390   1.007  14.517
12245W        W77505  39.306  13.604  14.905
12246W        W77506  24.711  34.860   4.349
12247W        W77507  36.103  26.009   3.226
12248W        W77508   3.202   3.300   3.258
12249W        W77509   6.258   1.286   1.834
12250W        W77510  14.732  29.661  12.872
12251W        W77511  11.724   8.197  12.485
12252W        W77512  19.193  10.286  12.230
12253W        W77513  22.482  40.699  11.106
12254W        W77514  20.751  34.955   3.351
12255W        W77515  31.354  27.468   2.211
12256W        W77516   3.826  18.537  11.544
12257W        W77517  16.831  42.000   3.385
12258W        W77518  20.482   2.398  14.499
12259W        W77519  24.588  36.661  13.071
12260W        W77520  35.942  31.556  14.788
12261W        W77521  24.028  15.227   1.303
12262W        W77522  28.462  14.704  12.988
12263W        W77523   6.627  38.920   4.414
12264W        W77524  13.656  20.127   3.288
12265W        W77525  36.404  11.899  14.505
12266W        W77526  12.191  40.158   4.496
12267W        W77527   5.679  36.761   2.825
12268W        W77528  44.037  31.893   2.733
12269W        W77529  26.686   2.991   2.715
12270W        W77530  22.547   0.476   2.853
12271W        W77531  35.468  20.800  14.075
12272W        W77532   6.201  23.624  11.251
12273W        W77533  37.273  12.114  12.577
12274W        W77534   9.830  13.125  11.485
12275W        W77535  13.217  29.689   4.241
12276W        W77536  21.457   8.639  12.006
12277W        W77537  18.521   4.658   0.325
12278W        W77538  23.663   8.188  12.640
12279W        W77539  27.466   7.372  10.990
12280W        W77540  17.562  22.448   1.905
12281W        W77541  10.569  16.027  14.907
12282W        W77542  34.092  29.553  13.449
12283W        W77543  40.050  10.005  12.679
12284W        W77544  39.030   0.497   3.615
12285W        W77545  18.263  19.364  13.322
12286W        W77546   3.535  27.246  14.489
12287W        W77547  26.260  13.213  13.351
12288W        W77548  37.118  14.512   2.268
12289W        W77549  17.143  10.282   3.101
12290W        W77550  38.465  36.989   4.350
12291W        W77551  12.579  31.985  11.188
12292W        W77552  14.768   6.368   3.715
12293W        W77553  15.528  29.689  12.910
12294W        W77554  10.947  27.101   2.694
12295W        W77555   8.337  42.028   4.149
12296W        W77556   1.546  38.037  14.415
12297W        W77557   7.133  36.581   2.911
12298W        W77558   0.254   1.379   4.588
12299W        W77559  18.686  41.916   0.982
12300W        W77560  22.942  18.329   5.339
12301W        W77561   6.781  22.200   4.632
12302W        W77562   7.555  28.882   1.347
12303W        W77563  43.832  36.904  10.683
12304W        W77564  26.074   0.832   4.863
12305W        W77565  18.738  42.860  10.229
12306W        W77566  36.537   3.771   0.945
12307W        W77567  12.137  42.567  11.618
12308W        W77568  33.681  43.088   0.350
12309W        W77569   3.733  34.586   1.944
12310W        W77570   1.985  24.503  12.779
12311W        W77571  43.886  24.468  12.427
12312W        W77572  39.108  14.180  13.776
12313W        W77573   9.387  21.627   3.617
12314W        W77574  12.868  18.128   4.614
12315W        W77575  35.380   2.866  14.422
12316W        W77576   5.613  38.261   2.639
12317W        W77577  17.286   3.412  12.907
12318W        W77578   7.932  38.485  14.076
12319W        W77579  18.277  24.482  13.470
12320W        W77580  11.617  38.793  10.075
12321W        W77581   1.897   5.444   2.338
12322W        W77582  20.822  22.322   3.611
12323W        W77583  18.066   4.504  11.044
12324W        W77584   2.953  29.531   1.452
12325W        W77585  39.461   6.619  13.001
12326W        W77586   5.170  25.263   3.123
12327W        W77587  31.081  32.160  11.193
12328W        W77588  25.524  24.029   3.327
12329W        W77589  30.512  28.921  11.883
12330W        W77590   0.935  15.320  10.296
12331W        W77591  31.613   6.330   3.606
12332W        W77592  15.158  34.910   1.678
12333W        W77593  29.471  31.812   0.827
12334W        W77594  13.873   8.617  11.117
12335W        W77595   5.953  18.548  14.268
12336W        W77596  12.756  28.188   3.176
12337W        W77597   5.356   0.209  14.478
12338W        W77598  21.149  23.251  10.652
12339W        W77599  43.275  43.757   4.573
12340W        W77600   9.781  37.952  12.885
12341W        W77601  17.198   1.601  14.308
12342W        W77602  27.089  39.057   1.685
12343W        W77603  16.141   2.870   1.119
12344W        W77604  20.135   8.631  12.106
12345W        W77605   4.208  24.495   4.231
12346W        W77606   5.228  31.130  13.016
12347W        W77607  38.493  12.544  13.384
12348W        W77608  12.138  15.774   4.377
12349W        W77609  28.156  14.032  14.719
12350W        W77610  17.876   4.404   1.433
12351W        W77611  15.514  27.060   0.874
12352W        W77612  38.832  38.412  14.117
12353W        W77613  20.831   5.417   4.997
12354W        W77614  17.226  22.233   4.685
12355W        W77615  35.962  15.394   3.565
12356W        W77616  25.440  40.520  12.349
12357W        W77617  39.841  44.905   0.893
12358W        W77618  34.987  16.798   0.842
12359W        W77619  34.824  11.900  11.022
12360W        W77620  37.648  43.592  10.159
12361W        W77621  19.215  19.047   2.810
12362W        W77622  21.249  24.763  10.698
12363W        W77623   3.254   4.176  14.113
12364W        W77624   4.255   1.742   3.264
12365W        W77625  33.004  21.942   4.384
12366W        W77626  17.618  17.705   2.324
12367W        W77627  11.704  21.289  10.688
12368W        W77628  14.594  26.198   0.226
12369W        W77629  33.880  15.669   1.795
12370W        W77630  21.117  42.433  14.766
12371W        W77631  27.399  13.806  11.571
12372W        W77632  23.076   6.462  10.288
12373W        W77633  23.384  17.720   5.143
12374W        W77634  14.406  28.485  12.356
12375W        W77635  18.268  28.819  11.159
12376W        W77636  14.679   3.176  12.567
12377W        W77637   6.273  37.025   0.441
12378W        W77638  26.792  42.427  11.497
12379W        W77639  25.278  36.962   4.029
12380W        W77640  39.635   2.027   4.939
12381W        W77641  43.322   4.736  14.439
12382W        W77642  41.072  27.488  11.439
12383W        W77643  41.158  44.750  14.431
12384W        W77644  33.100  20.774  12.394
12385W        W77645  44.523  32.204   0.835
12386W        W77646   4.301   8.514   0.056
12387W        W77647  22.040  33.032   1.873
12388W        W77648   6.817  21.634   4.561
12389W        W77649  17.273  18.724   5.681
12390W        W77650   6.767  26.379   2.296
12391W        W77651  25.997   9.702  10.387
12392W        W77652  26.269  19.448   1.794
12393W        W77653  29.891  12.604   3.729
12394W        W77654  11.598   8.794  14.752
12395W        W77655  11.382  23.974  12.080
12396W        W77656  42.380   7.601  12.014
12397W        W77657  23.547  10.297  13.354
12398W        W77658  17.581  17.121   0.829
12399W        W77659  12.574  10.728   1.265
12400W        W77660  13.358  31.274  13.819
12401W        W77661   4.721   6.757   9.925
12402W        W77662  24.239  18.342   1.265
12403W        W77663  22.108  26.677   1.819
12404W        W77664  32.327  38.948   2.944
12405W        W77665  44.521  33.121   3.840
12406W        W77666  43.883  37.101  11.663
12407W        W77667  10.471   2.781  10.060
12408W        W77668  43.907  11.765  10.624
12409W        W77669  39.950   4.184   1.270
12410W        W77670  13.548  41.844   1.720
12411W        W77671  36.977   4.691  14.306
12412W        W77672  43.617   8.866   3.953
12413W        W77673  44.124  44.943  14.251
12414W        W77674   7.943  41.641   2.788
12415W        W77675  20.776  28.938   2.315
12416W        W77676  41.806   1.425   0.414
12417W        W77677  41.005  28.011  11.513
12418W        W77678  15.210   5.486  11.203
12419W        W77679  20.835  40.158   0.863
12420W        W77680   9.435  25.357   9.817
12421W        W77681   3.827   1.900   0.888
12422W        W77682   4.714  24.697  11.622
12423W        W77683  39.302  15.838   0.260
12424W        W77684   5.061   3.658   9.836
12425W        W77685  33.643  23.707   1.784
12426W        W77686  10.405  25.047  12.203
12427W        W77687  22.605  24.510  13.932
12428W        W77688  44.026  23.576   2.644
12429W        W77689  21.053  23.035   2.774
12430W        W77690  11.929  42.117  11.487
12431W        W77691  18.534   8.217   2.691
12432W        W77692   7.308  23.778   2.734
12433W        W77693   0.833  28.549   3.257
12434W        W77694   7.829  20.579   3.842
12435W        W77695  27.709   7.884  14.106
12436W        W77696   2.262  35.984   0.727
12437W        W77697  40.318  25.601  13.216
12438W        W77698  27.613  32.040  12.424
12439W        W77699  36.479  36.160   2.740
12440W        W77700  28.104   2.266   3.450
12441W        W77701  40.721  11.429  10.192
12442W        W77702  19.568  22.583   2.062
12443W        W77703   3.855  28.500   1.962
12444W        W77704  27.056  20.466   4.554
12445W        W77705  39.392  16.603  14.321
12446W        W77706   8.515  44.385  13.298
12447W        W77707  10.217  21.256  12.135
12448W        W77708  20.712  24.311  12.374
12449W        W77709   7.755  18.298  13.998
12450W        W77710  31.687  26.644  11.792
12451W        W77711   5.728   4.883   0.259
12452W        W77712   1.344  35.148   3.837
12453W        W77713   9.372  21.230  12.165
12454W        W77714  20.221  44.375  11.147
12455W        W77715  14.360  14.771   1.677
12456W        W77716  27.932  43.839   3.785
12457W        W77717  42.001  20.078  14.439
12458W        W77718   0.320  22.210   0.460
12459W        W77719   2.891  19.084   2.676
12460W        W77720  30.947  29.119  11.671
12461W        W77721  11.944   7.370  12.868
12462W        W77722   4.340  24.116   1.156
12463W        W77723  27.241  24.405   2.364
12464W        W77724  18.319  24.737   4.237
12465W        W77725  20.943  36.116   3.734
12466W        W77726  32.603   3.294  11.912
12467W        W77727  14.669   3.472   0.948
12468W        W77728  23.006   8.815   0.666
12469W        W77729  21.696  23.901  12.476
12470W        W77730  15.686   7.848   2.325
12471W        W77731  24.935  39.303  10.938
12472W        W77732  40.581  25.857  11.150
12473W        W77733   6.617   1.083   1.520
12474W        W77734   7.172  36.927  14.991
12475W        W77735  39.129  23.202   3.210
12476W        W77736  33.222   5.647  12.486
12477W        W77737  33.340  44.891   3.513
12478W        W77738  33.130  23.871   0.145
12479W        W77739  41.168  11.100  12.968
12480W        W77740  39.739  26.610   3.540
12481W        W77741  40.182   6.896  14.908
12482W        W77742   2.203  21.113  13.044
12483W        W77743   1.472  17.547  14.260
12484W        W77744   7.958   8.854   0.293
12485W        W77745  27.464   4.541  10.315
12486W        W77746  24.491  31.596  11.963
12487W        W77747   9.509   1.875  11.096
12488W        W77748   6.232  33.620   4.033
12489W        W77749  13.751  44.489  13.912
12490W        W77750  39.301  26.614   3.794
12491W        W77751  25.301  27.617   0.864
12492W        W77752  32.352  24.744   0.686
12493W        W77753   2.951   2.435  10.730
12494W        W77754  44.427  30.670   0.338
12495W        W77755  22.058  27.941   2.866
12496W        W77756   0.375  32.360   0.932
12497W        W77757  21.780  32.646   0.334
12498W        W77758  10.956  24.197  13.461
12499W        W77759  27.149  20.770   1.592
12500W        W77760  14.087  35.402  14.493
12501W        W77761  30.854   4.896   0.643
12502W        W77762  39.935  13.710  11.903
12503W        W77763  40.019  30.014   0.372
12504W        W77764  22.740   2.909  12.467
12505W        W77765  19.746  12.166  11.907
12506W        W77766   3.066  17.983  13.746
12507W        W77767  27.628  32.115   3.059
12508W        W77768  39.310  32.268  10.194
12509W        W77769  17.500   1.726  11.982
12510W        W77770  17.738  19.781  11.674
12511W        W77771  26.837   5.944   2.680
12512W        W77772  28.180   9.395  14.300
12513W        W77773  43.090  10.728   4.135
12514W        W77774  44.686  26.987  12.063
12515W        W77775  14.294  22.814   2.338
12516W        W77776  27.368  11.893  10.761
12517W        W77777  34.850  26.091  12.094
12518W        W77778  26.649   6.214   0.785
12519W        W77779  15.347  27.310   2.825
12520W        W77780   2.469  28.234  13.403
12521W        W77781  34.757   6.822   3.847
12522W        W77782   7.445   4.875  14.695
12523W        W77783  12.392  38.729  13.849
12524W        W77784  13.155  12.321  10.629
12525W        W77785  24.426  40.517   4.502
12526W        W77786  30.815  19.270   0.523
12527W        W77787  26.983  34.980   3.907
12528W        W77788  29.972  28.644   0.647
12529W        W77789  30.210  31.981  12.809
12530W        W77790   5.762  41.015   2.047
12531W        W77791   7.351  25.854   3.661
12532W        W77792  11.495  25.661   1.231
12533W        W77793  26.812  38.886   4.057
12534W        W77794  21.468  37.288   3.278
12535W        W77795  36.774   1.526   2.985
12536W        W77796   7.386  31.263  10.546
12537W        W77797  29.916  26.561   2.356
12538W        W77798  37.926  34.988  10.789
12539W        W77799  28.190  38.899   0.275
12540W        W77800  10.665  27.919   2.297
12541W        W77801  39.740  25.501   0.889
12542W        W77802   9.148   7.167  13.500
12543W        W77803  31.624  10.902  11.598
12544W        W77804  43.937  25.496   5.094
12545W        W77805  27.984  35.964  14.490
12546W        W77806  13.959  43.210  11.120
12547W        W77807   7.199  30.213  14.426
12548W        W77808  11.692  32.594   0.773
12549W        W77809   6.834  21.100  13.889
12550W        W77810   0.975   0.343   2.394
12551W        W77811   3.236  28.008   2.145
12552W        W77812  22.817  38.111   4.132
12553W        W77813  43.254  34.102   3.790
12554W        W77814   1.642  16.673  12.478
12555W        W77815  28.652  31.867   5.061
12556W        W77816  15.425   9.687   2.823
12557W        W77817  31.924  31.600  14.349
12558W        W77818  10.009  33.435  11.581
12559W        W77819   7.458   4.794  11.181
12560W        W77820  13.654  41.803  11.970
12561W        W77821  36.418  22.001  11.552
12562W        W77822   4.246   2.152   0.990
12563W        W77823  12.528  40.037   4.103
12564W        W77824  35.143   1.283   2.005
12565W        W77825   5.411  15.238   3.459
12566W        W77826  34.350   0.934  14.358
12567W        W77827  14.016   8.653   3.778
12568W        W77828  14.708  33.029   4.672
12569W        W77829   9.143  42.499   1.608
12570W        W77830   8.776  22.196  13.549
12571W        W77831   4.009  10.224   5.213
12572W        W77832  40.331  41.381   4.500
12573W        W77833   2.273  15.080   2.309
12574W        W77834  44.715  20.797  12.158
12575W        W77835  11.949  22.368   5.002
12576W        W77836  17.274  20.311   1.426
12577W        W77837  20.327  41.152   0.121
12578W        W77838  21.681  13.316   0.805
12579W        W77839  29.899  21.097   0.991
12580W        W77840  31.594  11.332   3.838
12581W        W77841   7.884  30.746   0.037
12582W        W77842  18.659  15.149   4.539
12583W        W77843  26.266  14.671   2.287
12584W        W77844  33.451   4.116  13.477
12585W        W77845  19.989  32.595   5.190
12586W        W77846   0.874  16.110  13.554
12587W        W77847  27.431  16.111   0.352
12588W        W77848   8.434  36.324  13.367
12589W        W77849  29.430  29.523  10.697
12590W        W77850  40.878  24.291   0.399
12591W        W77851   9.900   3.832  14.387
12592W        W77852   8.717  10.878  14.398
12593W        W77853  22.734  35.243  14.009
12594W        W77854  28.403   5.505  14.286
12595W        W77855  30.365   6.429   0.718
12596W        W77856   7.293  17.723   4.841
12597W        W77857   1.770  32.394  13.315
12598W        W77858   0.412   5.154  10.493
12599W        W77859   5.428  37.888   1.208
12600W        W77860  27.053  43.342   3.311
12601W        W77861  44.433  26.552   4.644
12602W        W77862  32.469   1.934   1.205
12603W        W77863   5.779  43.029  11.859
12604W        W77864   0.459  11.663   3.113
12605W        W77865   6.668   6.753   3.672
12606W        W77866   9.179  30.062   0.854
12607W        W77867   5.297   8.424   0.966
12608W        W77868  18.892  30.058   0.464
12609W        W77869   6.489  35.570   0.904
12610W        W77870  11.740   4.044  12.788
12611W        W77871  40.601   9.766   1.750
12612W        W77872  21.210  38.471  10.708
12613W        W77873  39.773   8.854  13.939
12614W        W77874  21.833  41.597   2.910
12615W        W77875  13.031  41.218  13.027
12616W        W77876  40.993   8.355  11.876
12617W        W77877   9.395  19.119  10.546
12618W        W77878  29.362  13.837   0.919
12619W        W77879   9.323   4.502   0.779
12620W        W77880   0.955  35.968  13.145
12621W        W77881  29.720   6.719  12.083
12622W        W77882  12.399  27.661   2.402
12623W        W77883  20.814  37.498   1.273
12624W        W77884  22.498  22.750  13.445
12625W        W77885  40.763   6.446  10.793
12626W        W77886  37.709   8.956   4.448
12627W        W77887   5.368  16.138  11.568
12628W        W77888  15.684  27.255  12.349
12629W        W77889  24.367  36.510  11.688
12630W        W77890  32.165  23.270   2.370
12631W        W77891  35.123  37.816   0.881
12632W        W77892  27.735  34.452  13.918
12633W        W77893  16.199  18.518  14.998
12634W        W77894   2.876  15.660   1.094
12635W        W77895   6.727  27.229  14.577
12636W        W77896  23.244  29.028  12.328
12637W        W77897  31.510  37.569  13.024
12638W        W77898  38.810  20.206  12.983
12639W        W77899   6.836  35.131   0.338
12640W        W77900  27.461  44.161  12.438
12641W        W77901  30.962  38.992   3.047
12642W        W77902  23.540  20.646   0.271
12643W        W77903   2.173   6.906   1.532
12644W        W77904  26.122  13.241   1.358
12645W        W77905  37.885  26.389   0.991
12646W        W77906  16.673  24.799  14.745
12647W        W77907   2.363  17.199   3.568
12648W        W77908  30.067  38.517   4.318
12649W        W77909  21.170  36.642  12.081
12650W        W77910  24.980  23.813   2.797
12651W        W77911  34.511  29.892  13.469
12652W        W77912  21.480  11.543   4.599
12653W        W77913   9.905  26.063  14.337
12654W        W77914  34.425  11.309   4.567
12655W        W77915  41.941  39.883  14.901
12656W        W77916  31.597  30.236  13.946
12657W        W77917  34.640  24.457  11.958
12658W        W77918  23.074  35.089  11.159
12659W        W77919   2.981  23.420  14.210
12660W        W77920   8.352  18.837  13.432
12661W        W77921  34.448   0.139  13.945
12662W        W77922  29.166  19.644   4.773
12663W        W77923  14.622  22.652   0.216
12664W        W77924   4.184  41.546  13.949
12665W        W77925  21.288  25.945   0.741
12666W        W77926  15.189  23.075   3.859
12667W        W77927   1.924  39.265  13.931
12668W        W77928  24.097  22.050   2.859
12669W        W77929  39.453  29.050   0.871
12670W        W77930   4.244  31.564   4.202
12671W        W77931  18.724  35.882   0.917
12672W        W77932   8.387   2.512   0.937
12673W        W77933  39.419  16.747  11.381
12674W        W77934  24.112  26.665  12.634
12675W        W77935  34.825  32.428   3.785
12676W        W77936  26.388   5.904  12.544
12677W        W77937  44.687  24.179   2.687
12678W        W77938  42.343  22.221  14.817
12679W        W77939  12.337  17.256  13.429
12680W        W77940   0.059   9.901  11.833
12681W        W77941  36.030   3.844  12.243
12682W        W77942   4.864   5.816  14.688
12683W        W77943   3.043  21.188   2.683
12684W        W77944  44.081  31.373  14.036
12685W        W77945  11.259   0.204  14.128
12686W        W77946  43.506   9.146  12.979
12687W        W77947  38.236   7.119   2.339
12688W        W77948  11.202  18.815  12.427
12689W        W77949  11.140   2.637   0.499
12690W        W77950  26.034  26.899  14.698
12691W        W77951  11.220  25.652  11.872
12692W        W77952  28.483  12.178  12.107
12693W        W77953  43.920   2.536   2.088
12694W        W77954   7.136  12.665   3.516
12695W        W77955  22.273   7.827  14.049
12696W        W77956  37.818   4.683  12.736
12697W        W77957  25.639   3.781  10.922
12698W        W77958  37.013  13.620  11.062
12699W        W77959  40.406  40.019  14.372
12700W        W77960   2.277  39.552  12.587
12701W        W77961   2.284  12.617  12.754
12702W        W77962   1.558  44.353  11.988
12703W        W77963  36.480  27.767   0.038
12704W        W77964  16.207  15.834   2.321
12705W        W77965  29.908  11.333   4.739
12706W        W77966   1.899  28.340  13.102
12707W        W77967  35.875   2.829  12.507
12708W        W77968  23.987  40.104  14.273
12709W        W77969  25.414  15.780   3.153
12710W        W77970   2.804  34.988   3.943
12711W        W77971  27.223  37.440   1.749
12712W        W77972   0.685   1.835   1.267
12713W        W77973   2.273   8.148   3.277
12714W        W77974   9.889   0.023  13.357
12715W        W77975   9.716  34.048  14.247
12716W        W77976  44.789  37.563   4.592
12717W        W77977  32.494   5.596  13.416
12718W        W77978  42.907  27.600  11.608
12719W        W77979  23.118   7.900   4.866
12720W        W77980  16.304  16.178   3.164
12721W        W77981   3.517  44.888  10.809
12722W        W77982  17.555  43.416   3.411
12723W        W77983  43.434  42.019  13.006
12724W        W77984   4.220  16.612  14.448
12725W        W77985  17.652  30.397   0.775
12726W        W77986  36.281  13.268  11.657
12727W        W77987  44.026  27.554   2.895
12728W        W77988  36.280  18.561  12.773
12729W        W77989  13.743  42.780  13.981
12730W        W77990  17.663  23.541  14.765
12731W        W77991  15.128  27.094   2.384
12732W        W77992   7.263  35.828   3.110
12733W        W77993  19.109  34.160   1.802
12734W        W77994   7.287   5.644   3.459
12735W        W77995  18.190  34.003  12.243
12736W        W77996  17.141  30.168  10.252
12737W        W77997  29.553  27.544  10.936
12738W        W77998   1.046  43.556  11.082
12739W        W77999  14.978   1.721   1.860
12740W        W78000  43.550   2.507   4.751
12741W        W78001  22.978  18.393  12.052
12742W        W78002   9.586   8.300  10.992
12743W        W78003  19.083  34.031  12.674
12744W        W78004  29.925  30.170  13.489
12745W        W78005  37.526  10.799  11.013
12746W        W78006  19.938  23.313  14.913
12747W        W78007   5.860  39.097  10.882
12748W        W78008  23.181  28.349  13.358
12749W        W78009  13.363  41.366   4.117
12750W        W78010  42.270  36.394   0.737
12751W        W78011  21.411  14.664   1.067
12752W        W78012  25.260   3.759  11.280
12753W        W78013  26.007  38.436  10.770
12754W        W78014  39.728  26.501   4.060
12755W        W78015  13.843  44.841  11.452
12756W        W78016  33.324  22.303  13.004
12757W        W78017  14.657  20.748  11.039
12758W        W78018  12.685  12.179   4.631
12759W        W78019  31.191  37.082  13.449
12760W        W78020  26.449  33.147  12.977
12761W        W78021  19.350  24.184  12.493
12762W        W78022  24.256  27.680   3.741
12763W        W78023  42.050  34.433  11.841
12764W        W78024  41.005  42.417   0.455
12765W        W78025  20.452  26.184   4.415
12766W        W78026  11.085  21.166   2.300
12767W        W78027  39.566  18.763   1.733
12768W        W78028   3.045  15.244  10.919
12769W        W78029   8.807   1.489  10.456
12770W        W78030  38.006   9.180   0.345
12771W        W78031  11.332  23.606   3.733
12772W        W78032  25.449  19.659   1.896
12773W        W78033  37.839  28.725   4.533
12774W        W78034  29.606  22.326   5.099
12775W        W78035  32.622  41.511  14.761
12776W        W78036  42.315  43.328   3.920
12777W        W78037   5.251  29.720  11.373
12778W        W78038  43.722  17.726  11.970
12779W        W78039  26.951  39.447  12.115
12780W        W78040  15.776   9.847  14.497
12781W        W78041  30.295  12.178  14.358
12782W        W78042  13.515   3.445  11.141
12783W        W78043  28.631  22.616   4.210
12784W        W78044  17.180  28.861  10.291
12785W        W78045  12.096   5.651   4.997
12786W        W78046   8.181  14.510  11.731
12787W        W78047  18.713   8.759   0.708
12788W        W78048  26.617  30.536  11.981
12789W        W78049  36.360  13.794   0.767
12790W        W78050  25.591  24.638  14.783
12791W        W78051   5.390  29.967   1.680
12792W        W78052  19.196  18.806   4.071
12793W        W78053  42.518  24.644  14.304
12794W        W78054  36.229  15.786  12.700
12795W        W78055   8.531  42.043  13.735
12796W        W78056  29.819  24.954   9.860
12797W        W78057  15.117  41.373  13.397
12798W        W78058   3.786  15.058  13.088
12799W        W78059  42.528   1.911   2.336
12800W        W78060  19.097  42.525  11.869
12801W        W78061  36.485   4.873  13.067
12802W        W78062  24.801  34.281  14.549
12803W        W78063   5.005  25.780  10.871
12804W        W78064  16.774   5.365   4.150
12805W        W78065  21.068  11.167   2.333
12806W        W78066  38.908  31.927  10.172
12807W        W78067  19.122  21.016  10.341
12808W        W78068  21.826   4.505  12.106
12809W        W78069  23.581  40.367   2.090
12810W        W78070   0.757  28.461  11.384
12811W        W78071  32.806  24.694   0.380
12812W        W78072  14.080  29.668   4.296
12813W        W78073  41.074  10.641  12.096
12814W        W78074  27.683  30.291  11.986
12815W        W78075  12.987  22.726  11.461
12816W        W78076  16.719  11.886   2.298
12817W        W78077   5.229  38.284  12.458
12818W        W78078   1.223   2.055  11.068
12819W        W78079   5.388  15.579  12.968
12820W        W78080  39.495  37.857   2.540
12821W        W78081  13.404  25.187  12.585
12822W        W78082   1.969  10.119  14.827
12823W        W78083  14.611   9.621   1.299
12824W        W78084  41.790  20.230   1.362
12825W        W78085  43.431  16.739   0.299
12826W        W78086   5.339  29.962  14.836
12827W        W78087  38.260   7.082  14.319
12828W        W78088  24.990   0.535  14.932
12829W        W78089  19.247  20.049  14.292
12830W        W78090  33.944  43.164  13.062
12831W        W78091  33.493  34.417   2.778
12832W        W78092  17.729   9.560   1.169
12833W        W78093  17.689   3.431   0.678
12834W        W78094  42.845   3.370   3.296
12835W        W78095  17.492   9.242  12.556
12836W        W78096  29.114   4.902  10.739
12837W        W78097   2.398  30.474   2.197
12838W        W78098  31.224  23.335   2.211
12839W        W78099  22.232  12.754  12.309
12840W        W78100  43.405  33.834  14.396
12841W        W78101  31.148   0.759   1.806
12842W        W78102  14.735  17.942  10.579
12843W        W78103  15.533   6.465   1.311
12844W        W78104  24.119  30.824   3.122
12845W        W78105  42.741  44.586   0.354
12846W        W78106  18.731  23.834   4.848
12847W        W78107  41.759  26.585  11.079
12848W        W78108   1.913  16.568  10.796
12849W        W78109  20.244  37.574  11.093
12850W        W78110  28.773  37.433   2.845
12851W        W78111   2.820  25.695  12.965
12852W        W78112  15.215  17.645  11.274
12853W        W78113   8.017   2.486   4.092
12854W        W78114  43.972  30.708  12.582
12855W        W78115  39.894  16.793  12.608
12856W        W78116   7.884  31.530  14.178
12857W        W78117  40.068  12.210   1.925
12858W        W78118  16.490  41.147  12.865
12859W        W78119  42.897  31.952  10.423
12860W        W78120  30.519  32.638   2.338
12861W        W78121  18.000  23.654  14.395
12862W        W78122   3.747  43.830  14.415
12863W        W78123  43.634  33.535   4.098
12864W        W78124  37.370   2.488  14.409
12865W        W78125   2.418  26.132   2.205
12866W        W78126   5.430  30.500  11.008
12867W        W78127  43.354   4.746   9.856
12868W        W78128  26.998  26.763  10.736
12869W        W78129   5.974  22.439   0.833
12870W        W78130  10.854  40.626  12.449
12871W        W78131   6.556  25.298  14.479
12872W        W78132  22.000  37.818  12.548
12873W        W78133  26.567  32.146   0.539
12874W        W78134  12.709   3.134  14.792
12875W        W78135   6.833   5.278   1.820
12876W        W78136  30.903   8.654  14.559
12877W        W78137  22.787  29.981  11.147
12878W        W78138  36.393   6.683  13.562
12879W        W78139  10.327   1.011   1.672
12880W        W78140  41.048  31.010   4.182
12881W        W78141  16.161  12.527   4.777
12882W        W78142  15.198   7.711   2.765
12883W        W78143  37.898   4.907  11.180
12884W        W78144  35.451  31.673   4.577
12885W        W78145  29.582  22.527  11.060
12886W        W78146  32.118  44.264   2.433
12887W        W78147  43.367  13.462  14.585
12888W        W78148  21.977  40.637  11.101
12889W        W78149  44.769  39.719  12.016
12890W        W78150  38.400  39.055   1.726
12891W        W78151  36.372   7.194   0.441
12892W        W78152  41.519  25.494  12.743
12893W        W78153  15.154   6.176  12.006
12894W        W78154   8.909  23.631  14.999
12895W        W78155  13.894  27.615  12.566
12896W        W78156  40.899  44.290  13.448
12897W        W78157  40.761  26.072  14.424
12898W        W78158   9.872  32.894   0.791
12899W        W78159   9.280   9.437   1.526
12900W        W78160  11.392  44.366   0.202
12901W        W78161  27.038  29.134  12.562
12902W        W78162  30.933  28.621  12.547
12903W        W78163  21.536  23.248   2.745
12904W        W78164  13.786  31.645   0.397
12905W        W78165   2.169   4.283  14.936
12906W        W78166  32.076  28.047   3.829
12907W        W78167   5.657   7.180  13.003
12908W        W78168  27.084  20.981   0.097
12909W        W78169  28.460  25.167  13.592
12910W        W78170  16.060  22.526  14.043
12911W        W78171   6.739  30.110  11.026
12912W        W78172  35.715  43.298   2.955
12913W        W78173  21.146   2.907   4.205
12914W        W78174  32.838  32.575   0.291
12915W        W78175  32.954  33.538   2.768
12916W        W78176  26.732  16.498  14.506
12917W        W78177  28.807  38.315   2.320
12918W        W78178  37.786  43.982  10.496
12919W        W78179   4.825  19.762  10.706
12920W        W78180  26.605  23.120   3.283
12921W        W78181  43.530  27.407  11.930
12922W        W78182  39.777  36.952   3.274
12923W        W78183  36.916  39.909  14.857
12924W        W78184   9.979  28.464  13.604
12925W        W78185   4.951  31.644   0.530
12926W        W78186  36.936  36.046  14.894
12927W        W78187  25.282  21.700  14.159
12928W        W78188  14.590  40.340   2.214
12929W        W78189  44.769  23.955   1.655
12930W        W78190  14.349  37.163   4.640
12931W        W78191  38.115   1.852   3.095
12932W        W78192  40.035  20.036  11.105
12933W        W78193  16.750   1.964   2.892
12934W        W78194  30.270   1.037   4.661
12935W        W78195  16.618   1.799  12.510
12936W        W78196  32.119  44.241   0.139
12937W        W78197  17.220  12.184   2.858
12938W        W78198  31.473  14.138   1.696
12939W        W78199  42.512  17.256  10.578
12940W        W78200  21.536  32.893  14.439
12941W        W78201  13.613  20.388   2.390
12942W        W78202  19.134  17.678   2.440
12943W        W78203  22.030  33.659  10.692
12944W        W78204  30.391  29.955  13.473
12945W        W78205   2.427  22.049  12.143
12946W        W78206   2.776  13.341   3.646
12947W        W78207   5.022  26.126  11.580
12948W        W78208   0.366  27.097   4.042
12949W        W78209  15.630  28.597   4.155
12950W        W78210   7.187   4.612   1.007
12951W        W78211  25.608   9.008  12.284
12952W        W78212   7.891   3.927   0.833
12953W        W78213  25.017  19.709  14.996
12954W        W78214   3.816   2.015   3.424
12955W        W78215   9.418   7.539   1.811
12956W        W78216  10.979  19.982  14.425
12957W        W78217  14.246  29.674   3.026
12958W        W78218  38.535  14.126  10.625
12959W        W78219  42.092  18.944   0.594
12960W        W78220   8.615  38.061   3.690
12961W        W78221  26.042  28.711  11.914
12962W        W78222   1.161  31.024  11.937
12963W        W78223  11.383   0.588   0.850
12964W        W78224  23.003   7.304   0.753
12965W        W78225  19.340  25.904   3.117
12966W        W78226   1.388  31.949  10.581
12967W        W78227  10.825  10.344   3.130
12968W        W78228   7.384  39.433  14.318
12969W        W78229  25.255   2.755   3.719
12970W        W78230  33.120  21.076   0.693
12971W        W78231  22.942  41.159   0.361
12972W        W78232   4.838  40.073   3.759
12973W        W78233  40.367  29.946  14.952
12974W        W78234  26.742  18.762  12.375
12975W        W78235  26.550  32.180   3.202
12976W        W78236  12.559  10.339  13.048
12977W        W78237   3.349  27.903  12.925
12978W        W78238   2.214  44.554   0.292
12979W        W78239  15.111   4.250   2.139
12980W        W78240   4.140  37.839   0.426
12981W        W78241  14.175  40.864   0.490
12982W        W78242  41.125  43.261   1.997
12983W        W78243  42.188  14.657   1.442
12984W        W78244  36.875   8.909   0.837
12985W        W78245  25.135  24.427   0.417
12986W        W78246   0.883   9.140  14.239
12987W        W78247  14.689  17.417  10.608
12988W        W78248  11.000  24.450   1.885
12989W        W78249   3.793  36.076   1.696
12990W        W78250  40.305  11.568  11.537
12991W        W78251  31.374  31.525  13.083
12992W        W78252  24.405  43.197  12.046
12993W        W78253  33.049  20.262  12.480
12994W        W78254   3.459   9.009  14.920
12995W        W78255  17.041  16.264  11.210
12996W        W78256   3.640  20.141   4.089
12997W        W78257  31.533  38.908   4.399
12998W        W78258  23.986  40.083   2.292
12999W        W78259  27.723   4.391   0.456
13000W        W78260  23.280  16.151   3.153
13001W        W78261  37.541  44.277  14.937
13002W        W78262  12.630   8.139  13.225
13003W        W78263  29.887  26.386   0.422
13004W        W78264  12.844   1.679  11.451
13005W        W78265  12.598  29.591  11.871
13006W        W78266  28.947  28.130   2.885
13007W        W78267  33.139  41.448  10.535
13008W        W78268  38.074   4.775   0.581
13009W        W78269  38.792  30.055   1.256
13010W        W78270   4.637   9.369   2.313
13011W        W78271  24.633  10.386   0.281
13012W        W78272  28.595  20.606  14.958
13013W        W78273  34.601  12.338   4.645
13014W        W78274   3.219   7.355   0.845
13015W        W78275   8.046  43.330   0.749
13016W        W78276   9.246   4.281  13.472
13017W        W78277  41.372  34.797   2.913
13018W        W78278   0.464  19.281   4.389
13019W        W78279  13.725  35.602  11.539
13020W        W78280  32.479   2.970  12.591
13021W        W78281  18.230  39.069  14.969
13022W        W78282   9.103  42.672   2.382
13023W        W78283  41.155   2.789   0.229
13024W        W78284  11.314  39.507  14.769
13025W        W78285  32.668  22.201   0.282
13026W        W78286  35.032  21.075  13.805
13027W        W78287  44.756   5.379   1.853
13028W        W78288  37.394   9.756   0.768
13029W        W78289   3.244  31.558   4.458
13030W        W78290  37.802  29.923   2.156
13031W        W78291  41.403   8.130  10.621
13032W        W78292   2.466  37.847  14.333
13033W        W78293  25.195  12.550  13.105
13034W        W78294  38.387  17.065   0.526
13035W        W78295  26.286  35.582  13.966
13036W        W78296  18.115  30.007   0.914
13037W        W78297  30.825   0.758  14.229
13038W        W78298   9.098  35.048  11.034
13039W        W78299  32.017  44.331   4.855
13040W        W78300   6.745  42.776   4.396
13041W        W78301  18.486   9.927  13.480
13042W        W78302  32.667  39.198   3.256
13043W        W78303  27.516   5.889   4.527
13044W        W78304  13.620  17.751   4.309
13045W        W78305  13.582  44.863  14.271
13046W        W78306   1.229   1.437  12.116
13047W        W78307  39.696  27.540  11.544
13048W        W78308  11.238  28.509  13.032
13049W        W78309  24.930   2.918  14.548
13050W        W78310  25.993  20.527   4.037
13051W        W78311  37.044  13.111  14.734
13052W        W78312   2.999  35.429   2.725
13053W        W78313  42.066   8.102   4.215
13054W        W78314  43.383  31.986  12.629
13055W        W78315  36.665  39.342  11.130
13056W        W78316   1.916  26.483   0.198
13057W        W78317  38.832  43.843   0.151
13058W        W78318  15.989  36.090  11.618
13059W        W78319  21.498  37.053   4.085
13060W        W78320  31.498  37.465  11.657
13061W        W78321  23.936  15.203   3.780
13062W        W78322  33.848  15.265   4.534
13063W        W78323  36.406   6.787   1.246
13064W        W78324  22.701  15.789  10.783
13065W        W78325  40.407  36.878   1.126
13066W        W78326  14.359  23.619  12.507
13067W        W78327  11.467   7.547  11.209
13068W        W78328  17.593  38.525  12.908
13069W        W78329  42.299  36.465  13.411
13070W        W78330  42.800  13.315   2.406
13071W        W78331  18.199   3.659  11.432
13072W        W78332  22.097   7.690  11.754
13073W        W78333  35.356   6.378   1.916
13074W        W78334  18.316  29.793   2.776
13075W        W78335  10.291  40.534  10.869
13076W        W78336  11.641  35.609  11.087
13077W        W78337  33.814   7.857  11.641
13078W        W78338  20.201  40.050  13.798
13079W        W78339  12.715  10.207  10.157
13080W        W78340  13.846   8.835   2.422
13081W        W78341   1.591  18.478   4.152
13082W        W78342  22.889  32.964  11.488
13083W        W78343  34.877  16.735   3.941
13084W        W78344  29.532  40.189  11.612
13085W        W78345  16.037  20.143   3.435
13086W        W78346  18.652   2.001  11.933
13087W        W78347  41.492  16.549  14.312
13088W        W78348   7.240  38.274   1.874
13089W        W78349   0.255  33.983   1.767
13090W        W78350  35.765  42.728  13.522
13091W        W78351  32.525  10.135   0.490
13092W        W78352   3.396  28.587  12.064
13093W        W78353  29.753  34.930   0.872
13094W        W78354  24.747  33.905  14.881
13095W        W78355   3.292   6.791  10.640
13096W        W78356  37.543  29.355  14.855
13097W        W78357   4.849  15.093  11.596
13098W        W78358   5.433  23.462  10.135
13099W        W78359  37.270  42.074  12.125
13100W        W78360  24.965  10.916  11.448
13101W        W78361  27.382  33.235  11.126
13102W        W78362  32.653  36.328  13.540
13103W        W78363   3.367  23.226   3.309
13104W        W78364  18.758   8.896   4.396
13105W        W78365  38.998  17.341   1.943
13106W        W78366  15.207   1.249   3.593
13107W        W78367  17.999   2.652  11.156
13108W        W78368  14.589  33.985  10.545
13109W        W78369  36.811  38.878   3.707
13110W        W78370  10.445   6.407  12.701
13111W        W78371  27.507  39.445   4.548
13112W        W78372  20.731  14.248  11.163
13113W        W78373  34.452   5.877   0.908
13114W        W78374   5.700   6.852   3.292
13115W        W78375   5.732   7.643  10.801
13116W        W78376  11.097  30.652   4.431
13117W        W78377  16.110  20.249  14.573
13118W        W78378  13.910   0.256  12.061
13119W        W78379  16.151  38.859  12.439
13120W        W78380   7.836  31.988  11.242
13121W        W78381   2.296   2.917   3.266
13122W        W78382  33.439  20.568   4.101
13123W        W78383   1.286  16.542  14.378
13124W        W78384  37.593  13.707  11.623
13125W        W78385  30.423  24.555   3.183
13126W        W78386   8.365  23.109  12.461
13127W        W78387  24.672  30.974   4.860
13128W        W78388  27.186  14.477   4.502
13129W        W78389  21.624  12.023   9.683
13130W        W78390  33.541  20.824  12.999
13131W        W78391  42.612  43.540   2.795
13132W        W78392  40.306  25.922   4.609
13133W        W78393  11.229  19.690   0.305
13134W        W78394  29.148  24.534  13.493
13135W        W78395  30.856   6.453  14.949
13136W        W78396  41.923   5.844  14.466
13137W        W78397  19.595  13.539   0.980
13138W        W78398   7.875  36.145  13.016
13139W        W78399  39.813  32.199   1.143
13140W        W78400  38.078   0.666   2.162
13141W        W78401  18.214  43.763   4.436
13142W        W78402  22.316  34.149   2.894
13143W        W78403  17.205  43.889   4.577
13144W        W78404  39.782  36.671   1.740
13145W        W78405   8.561  19.156   3.627
13146W        W78406  15.611  31.609  12.647
13147W        W78407  12.817  38.479  11.078
13148W        W78408   2.538  12.248  13.864
13149W        W78409  37.962  43.863   0.426
13150W        W78410  29.745  35.425   3.149
13151W        W78411  26.618   6.359  12.563
13152W        W78412  41.799  43.944   4.385
13153W        W78413  33.657  42.832  10.511
13154W        W78414  33.999  40.943  13.113
13155W        W78415  21.073   5.447   0.267
13156W        W78416  11.922  35.782  11.493
13157W        W78417  23.556  19.757   1.756
13158W        W78418  13.836   6.711  13.479
13159W        W78419  34.942  20.247   0.455
13160W        W78420  42.012   3.878   4.968
13161W        W78421  25.401  42.407   2.191
13162W        W78422  44.340  10.832   0.789
13163W        W78423  26.004   6.861   3.729
13164W        W78424  28.396  26.048  12.006
13165W        W78425  13.159   5.920  11.415
13166W        W78426  43.574  35.531  10.747
13167W        W78427  23.609  42.867   3.606
13168W        W78428   7.041  39.977   4.468
13169W        W78429  30.612  12.203   3.469
13170W        W78430  26.679  36.005   2.675
13171W        W78431  22.258  40.357  13.566
13172W        W78432  37.637   6.250   4.567
13173W        W78433  13.825  28.146  12.997
13174W        W78434  17.306  37.438  11.597
13175W        W78435  30.208  20.739   0.789
13176W        W78436   9.372  32.645   3.747
13177W        W78437  31.804  20.585  13.973
13178W        W78438  21.712  35.907  11.870
13179W        W78439  32.191  40.755  13.452
13180W        W78440  20.695  31.251  12.360
13181W        W78441  34.548  21.763   3.333
13182W        W78442  18.092  39.829  13.568
13183W        W78443   7.886  42.792   0.046
13184W        W78444  11.694  42.567   1.356
13185W        W78445  28.607  28.768  12.514
13186W        W78446  42.847  24.998   4.429
13187W        W78447  42.895  24.124   2.234
13188W        W78448   6.150  19.272  11.586
13189W        W78449   8.245  35.496   1.184
13190W        W78450   2.317  15.160   2.845
13191W        W78451  10.524  32.404   2.932
13192W        W78452   1.442   9.271  10.692
13193W        W78453   0.120  43.985  13.690
13194W        W78454   7.390  21.422  13.374
13195W        W78455   7.703  15.277  11.954
13196W        W78456  33.080  38.334  10.865
13197W        W78457  38.952  40.328  12.918
13198W        W78458  43.985   7.402   2.813
13199W        W78459  36.907  37.719   5.182
13200W        W78460  10.618  15.739  11.158
13201W        W78461  25.041  13.796   3.193
13202W        W78462  22.219   8.974   0.148
13203W        W78463  17.846  21.671   4.205
13204W        W78464  44.814   1.416  11.642
13205W        W78465  40.148   2.212   4.948
13206W        W78466  37.570  20.595  11.976
13207W        W78467  35.764   0.786   0.430
13208W        W78468  29.072  20.528   4.828
13209W        W78469  16.768  10.815  12.532
13210W        W78470  14.205  39.314  11.160
13211W        W78471   5.670  13.598  10.553
13212W        W78472  26.258  42.508   0.311
13213W        W78473  15.369   3.721   3.642
13214W        W78474   1.858   9.182   3.856
13215W        W78475  41.059   4.273  13.412
13216W        W78476   0.531  34.613   2.721
13217W        W78477   9.430  25.985  12.027
13218W        W78478   6.151  30.617  12.028
13219W        W78479   5.218  16.166   3.062
13220W        W78480  41.307  26.192  10.672
13221W        W78481  29.431   1.621  14.510
13222W        W78482  41.389  39.803  12.122
13223W        W78483   3.421  15.148  11.837
13224W        W78484  17.813  24.734  13.458
13225W        W78485   0.529  39.074  11.888
13226W        W78486  26.802  30.916  13.595
13227W        W78487  21.457  13.411   1.272
13228W        W78488  26.921  21.564  14.494
13229W        W78489  44.352   9.244   3.119
13230W        W78490   4.132  27.685  14.916
13231W        W78491  24.621  27.027  14.790
13232W        W78492   9.208   4.362   1.619
13233W        W78493  25.500  42.450  11.239
13234W        W78494  43.940  44.405  12.972
13235W        W78495  37.069  26.942   2.958
13236W        W78496  13.676  15.559   2.784
13237W        W78497   7.259  16.289   0.417
13238W        W78498  35.064   6.905  12.207
13239W        W78499  18.791  18.883   3.137
13240W        W78500   1.997  34.964  13.418
13241W        W78501  44.199  44.476  12.522
13242W        W78502  35.761  41.714  13.899
13243W        W78503  31.836  24.598  10.248
13244W        W78504   8.372   4.962   2.043
13245W        W78505  42.450  10.718   1.500
13246W        W78506  25.010   4.348  14.398
13247W        W78507  43.918   2.826  11.555
13248W        W78508  44.696   9.524  14.641
13249W        W78509   8.854  25.626  10.332
13250W        W78510  39.388  40.559   3.686
13251W        W78511  16.132  23.126   0.370
13252W        W78512  10.637   6.843   1.803
13253W        W78513  10.407  28.428  13.313
13254W        W78514  44.196  12.621  13.031
13255W        W78515  40.356  41.808   4.202
13256W        W78516  28.083  37.793  10.788
13257W        W78517  26.964  26.071  13.600
13258W        W78518   0.484  13.320   4.295
13259W        W78519  10.360  21.454   1.816
13260W        W78520   7.698  20.821   0.848
13261W        W78521  23.081  19.218  13.033
13262W        W78522  36.963  40.178   0.970
13263W        W78523  34.216  20.688  13.431
13264W        W78524  37.409  43.388   3.685
13265W        W78525  39.057  24.331  14.441
13266W        W78526  12.332  36.354   2.878
13267W        W78527  16.058   7.616  11.675
13268W        W78528   5.268  12.895  13.972
13269W        W78529   8.624  42.438   1.591
13270W        W78530  22.029   0.993  11.913
13271W        W78531   2.812  18.728   0.041
13272W        W78532  34.398  37.056   4.122
13273W        W78533   3.627  33.358  14.005
13274W        W78534  40.385  26.974   5.007
13275W        W78535   7.320   0.247   0.834
13276W        W78536  12.124  35.817  10.419
13277W        W78537  23.530  40.555  14.911
13278W        W78538   7.876  40.837  12.101
13279W        W78539   1.499  29.149  12.835
13280W        W78540  39.112  41.348  11.499
13281W        W78541  18.233   4.948   3.881
13282W        W78542  21.710   3.396  13.094
13283W        W78543  35.960  15.680  10.866
13284W        W78544  16.471  15.883   0.779
13285W        W78545  39.388  11.966  11.849
13286W        W78546  33.796  38.640  11.921
13287W        W78547  42.312   2.501   3.668
13288W        W78548  42.885  39.318   2.955
13289W        W78549  19.146  42.090  11.172
13290W        W78550   6.490   7.752   3.676
13291W        W78551  28.038   1.240   3.080
13292W        W78552  35.045  12.617   3.741
13293W        W78553  34.103  38.923   1.250
13294W        W78554  19.250  27.118  14.278
13295W        W78555  18.515  18.633  11.755
13296W        W78556   3.894  38.586  11.125
13297W        W78557  38.042  39.103   3.990
13298W        W78558  17.043  24.287   3.198
13299W        W78559   1.105  24.465   5.332
13300W        W78560   6.489   6.769  12.957
13301W        W78561  40.948  31.185   3.214
13302W        W78562  34.518  36.652   2.891
13303W        W78563  44.573  36.897   3.621
13304W        W78564  26.112  28.961   4.031
13305W        W78565  34.124  27.940   2.468
13306W        W78566   5.399  17.257   1.357
13307W        W78567  24.243  12.615   1.438
13308W        W78568   5.328  43.881  11.262
13309W        W78569  15.834  26.174   4.084
13310W        W78570  37.291  23.456   1.646
13311W        W78571  12.597  36.920   4.252
13312W        W78572  12.050  44.398   4.983
13313W        W78573  23.042  14.638  10.998
13314W        W78574   8.755   4.235   4.683
13315W        W78575  27.549   7.172   0.944
13316W        W78576   0.894  32.215   0.903
13317W        W78577  12.687   9.307   2.909
13318W        W78578  10.762  13.067  12.449
13319W        W78579   0.294  19.869  14.563
13320W        W78580  36.464   3.940  10.655
13321W        W78581  12.806  39.801   3.736
13322W        W78582  33.653   8.454   0.206
13323W        W78583  43.575  19.026  10.681
13324W        W78584   6.924  39.120  11.155
13325W        W78585  26.528   1.200   1.727
13326W        W78586  22.852  17.819   5.426
13327W        W78587  15.038  37.532  13.433
13328W        W78588  44.367  37.639   4.936
13329W        W78589   3.291  19.549  14.282
13330W        W78590  11.722  17.208  10.325
13331W        W78591  43.270   6.526   1.665
13332W        W78592  40.310  10.829   3.743
13333W        W78593  17.377  15.383  14.413
13334W        W78594  33.488  21.269  14.856
13335W        W78595  33.513  23.496   1.285
13336W        W78596  40.501  34.342   1.374
13337W        W78597   7.986  41.394   5.171
13338W        W78598  24.929  27.043  11.590
13339W        W78599  41.118   7.364  12.941
13340W        W78600  41.057  16.508   3.735
13341W        W78601  24.198  16.276  11.300
13342W        W78602  41.279   1.174  11.972
13343W        W78603  26.605  28.019  12.100
13344W        W78604  30.749   8.760   2.684
13345W        W78605  35.389  12.599  13.430
13346W        W78606  13.419  41.874  14.997
13347W        W78607  39.326  18.806  14.522
13348W        W78608  15.111   9.724   1.234
13349W        W78609  26.872  26.306   0.028
13350W        W78610  31.403  38.541  14.250
13351W        W78611  12.368  38.991  10.611
13352W        W78612  35.390  43.062   3.975
13353W        W78613   6.964   3.711  14.488
13354W        W78614   8.219   8.324   1.618
13355W        W78615  14.125  24.604  12.830
13356W        W78616  32.645   7.808  13.772
13357W        W78617   9.327  21.768  13.025
13358W        W78618  42.768   7.320  10.765
13359W        W78619  41.553  28.936  13.320
13360W        W78620   9.429   6.977   2.297
13361W        W78621  11.301  25.449  10.935
13362W        W78622  14.744  16.847  13.315
13363W        W78623   1.814  17.518   0.827
13364W        W78624   2.197   0.221  14.486
13365W        W78625  26.472  10.822  12.455
13366W        W78626  34.639  35.596   3.633
13367W        W78627  40.590  40.107   0.225
13368W        W78628   9.324  38.979   0.917
13369W        W78629  37.292  31.568  11.561
13370W        W78630   4.441  43.912  14.088
13371W        W78631   2.153   1.299  13.307
13372W        W78632   3.488  19.753  14.781
13373W        W78633  33.854   3.480  11.831
13374W        W78634   1.185   4.190   0.002
13375W        W78635  22.116  40.243   4.746
13376W        W78636  28.110  37.266  14.798
13377W        W78637   1.197   8.701  13.913
13378W        W78638  41.716   9.159   3.658
13379W        W78639  36.433  17.713  14.547
13380W        W78640  36.367  18.869   5.010
13381W        W78641   0.994  40.727   1.434
13382W        W78642  40.622  22.719  12.682
13383W        W78643  42.496  28.441  13.635
13384W        W78644  17.650  22.068  12.525
13385W        W78645  32.594  22.766  10.692
13386W        W78646  38.695  24.471  13.221
13387W        W78647   7.223   9.680   0.276
13388W        W78648   2.439   4.756  13.874
13389W        W78649  18.755  34.443   4.329
13390W        W78650  22.769  22.956   1.205
13391W        W78651  23.939   7.721  12.890
13392W        W78652   1.916   6.921  14.047
13393W        W78653  33.164   5.688   3.655
13394W        W78654  34.899   7.713   3.296
13395W        W78655   5.547  23.267  13.544
13396W        W78656  44.292   5.135  11.365
13397W        W78657  43.941  12.461  11.365
13398W        W78658  15.241  16.078  11.494
13399W        W78659  33.871   0.905  14.183
13400W        W78660  16.639  27.055   2.151
13401W        W78661  24.024  13.625  10.695
13402W        W78662   5.240  33.383   4.872
13403W        W78663  12.825  13.221   4.552
13404W        W78664  41.456  34.518   3.896
13405W        W78665  25.692  43.947  11.196
13406W        W78666  32.608  23.607  10.195
13407W        W78667  10.864  22.902  13.415
13408W        W78668  26.371  41.721   4.515
13409W        W78669   7.777  29.449  14.044
13410W        W78670  18.664  17.525  12.002
13411W        W78671  38.623  17.787   1.261
13412W        W78672  35.762  18.075  14.943
13413W        W78673  15.331   2.811   3.650
13414W        W78674  22.689   5.911  14.437
13415W        W78675  38.458  19.058   0.430
13416W        W78676   5.837  29.005   9.857
13417W        W78677  19.345  27.913  13.818
13418W        W78678  39.891  17.754   4.052
13419W        W78679  44.241  27.057   0.699
13420W        W78680  16.263  11.204  14.759
13421W        W78681  33.558  33.520  10.709
13422W        W78682  24.168  35.401   1.275
13423W        W78683   5.360   9.681   1.659
13424W        W78684  17.968  11.338   2.678
13425W        W78685  37.417  23.736  13.375
13426W        W78686  41.902  13.082  14.212
13427W        W78687  18.671  35.208  14.669
13428W        W78688  18.472  29.565  13.043
13429W        W78689  20.923  44.094   4.387
13430W        W78690  24.561  18.947  14.317
13431W        W78691  27.789  12.815  12.572
13432W        W78692  20.736  24.365   1.323
13433W        W78693   8.994   2.324  13.715
13434W        W78694  32.034  30.173  11.206
13435W        W78695  13.910   6.282  10.744
13436W        W78696   6.762   2.891   3.904
13437W        W78697  10.885   6.394  11.957
13438W        W78698   8.708   7.873  10.921
13439W        W78699  30.363  21.626  12.468
13440W        W78700  25.999  21.395   2.254
13441W        W78701  30.614  37.588   4.255
13442W        W78702  24.429  11.890   5.002
13443W        W78703  17.705  29.716  14.906
13444W        W78704  39.452  20.547   2.525
13445W        W78705  41.768   7.796   3.483
13446W        W78706  22.008  13.227  13.288
13447W        W78707  29.611   5.887  14.833
13448W        W78708  43.364  34.522   5.134
13449W        W78709  12.210  25.732   3.795
13450W        W78710  24.618  32.062   4.095
13451W        W78711  12.730  40.449  13.620
13452W        W78712   7.726  31.109  12.277
13453W        W78713  31.391   9.713  12.594
13454W        W78714  32.404  17.762  11.105
13455W        W78715  23.323   9.827   3.644
13456W        W78716  38.882   8.747  13.954
13457W        W78717  22.720  18.008  11.098
13458W        W78718  32.059  32.933  14.588
13459W        W78719  43.149   9.857   1.749
13460W        W78720  11.361  11.180  12.513
13461W        W78721  44.212   7.488   1.354
13462W        W78722  14.170  39.804  11.955
13463W        W78723  28.966  38.872  13.526
13464W        W78724  41.413  31.082  13.537
13465W        W78725  16.330  26.213   2.817
13466W        W78726  11.887  38.274   3.690
13467W        W78727  27.717  39.327   0.961
13468W        W78728  43.871  40.606   4.669
13469W        W78729  25.755  36.003   5.168
13470W        W78730  40.448   3.395   0.644
13471W        W78731  19.963   3.396  13.020
13472W        W78732  30.463  29.007   3.780
13473W        W78733  39.600  42.284   1.902
13474W        W78734  25.243  39.024   2.900
13475W        W78735  19.004  39.483   1.691
13476W        W78736  15.631  11.396  11.510
13477W        W78737  40.257  27.755  13.972
13478W        W78738  42.254  12.804   3.585
13479W        W78739  11.116  37.959   0.404
13480W        W78740  26.244  14.411   4.639
13481W        W78741  34.451  32.072   4.630
13482W        W78742  39.436  14.291  14.190
13483W        W78743   2.064  41.929   2.193
13484W        W78744  13.642  17.992  12.946
13485W        W78745  24.742   2.635  12.429
13486W        W78746  39.978  19.045   4.781
13487W        W78747   9.271   4.286   0.312
13488W        W78748   2.364  43.306   0.805
13489W        W78749   7.768  42.009   0.755
13490W        W78750   3.850   3.351  13.344
13491W        W78751  25.640  40.133  13.976
13492W        W78752  28.480  21.949   3.034
13493W        W78753   5.710  14.650   3.337
13494W        W78754  24.106  29.814   1.806
13495W        W78755   6.944   5.843  12.938
13496W        W78756   3.634   7.722   4.774
13497W        W78757   7.005   4.175  13.460
13498W        W78758  27.734  27.671  12.579
13499W        W78759  18.189  13.271  13.448
13500W        W78760  31.128   4.129   0.439
13501W        W78761   5.713  17.066   3.636
13502W        W78762   7.688  11.576   4.152
13503W        W78763  27.277  19.611   4.597
13504W        W78764   9.269  44.478  11.924
13505W        W78765   5.911  17.191  10.818
13506W        W78766  39.324  13.208   0.212
13507W        W78767   6.422  42.503   2.713
13508W        W78768  15.579   2.197   2.742
13509W        W78769  41.992  20.569  12.035
13510W        W78770  44.502  15.877  11.866
13511W        W78771   0.967   4.990   2.229
13512W        W78772  14.598   5.346   1.024
13513W        W78773  13.085  28.669  11.044
13514W        W78774  18.134  25.259  12.340
13515W        W78775  13.822  24.937  14.846
13516W        W78776  36.979  11.238  11.574
13517W        W78777  42.047  41.276  12.563
13518W        W78778  22.247  19.627   2.672
13519W        W78779  32.002  44.596   3.926
13520W        W78780   0.813   6.973   4.086
13521W        W78781  15.720  34.854  10.920
13522W        W78782  14.245   4.505  11.407
13523W        W78783  23.744  19.420  10.762
13524W        W78784  18.130  42.269   2.713
13525W        W78785  17.733  36.033  13.541
13526W        W78786  26.726  27.681   3.814
13527W        W78787  25.960  30.032  13.986
13528W        W78788  19.973  43.209   2.833
13529W        W78789  12.788  29.663  13.717
13530W        W78790  39.431  39.329   4.146
13531W        W78791   1.786  27.128  14.008
13532W        W78792  41.502  25.203  13.211
13533W        W78793  31.040   9.181   3.426
13534W        W78794  39.466  28.330  13.176
13535W        W78795  37.846  35.878   1.820
13536W        W78796  25.948  12.483  11.173
13537W        W78797  13.767  15.831   1.309
13538W        W78798  32.666  14.370  11.228
13539W        W78799   0.488  36.519  10.953
13540W        W78800  30.112  15.668  13.430
13541W        W78801   8.644  43.420  11.134
13542W        W78802  35.924  40.362   0.396
13543W        W78803  14.796  27.549  11.118
13544W        W78804  26.686  39.116  14.905
13545W        W78805  36.175  21.143   1.842
13546W        W78806  39.583  29.581  12.654
13547W        W78807  28.261  33.245   3.521
13548W        W78808  40.805  42.133   3.603
13549W        W78809  24.672  24.690  11.894
13550W        W78810  19.349  39.899  14.017
13551W        W78811  17.326  34.651  10.676
13552W        W78812  11.184  38.583  14.944
13553W        W78813  24.092  23.812   4.595
13554W        W78814  15.716  37.933  11.082
13555W        W78815  12.117  33.407   2.818
13556W        W78816  28.249   3.429   2.430
13557W        W78817  33.951  19.471  11.513
13558W        W78818  12.045   3.419   0.500
13559W        W78819  20.643   8.940   4.589
13560W        W78820  11.932  25.213   0.478
13561W        W78821   9.504  19.601  11.233
13562W        W78822   4.645  27.617  14.881
13563W        W78823   7.951  28.246  14.767
13564W        W78824  30.634   6.965   1.660
13565W        W78825   6.351  37.472   2.320
13566W        W78826   8.905  12.624   2.291
13567W        W78827  33.518  41.429  14.889
13568W        W78828  35.213  24.873  13.799
13569W        W78829  44.322  35.598  11.188
13570W        W78830  23.630  31.476   3.291
13571W        W78831  18.607  21.743  12.127
13572W        W78832   0.751  23.269  12.126
13573W        W78833   8.435  23.495  14.791
13574W        W78834  20.633  36.506  10.597
13575W        W78835  44.258  32.648   0.860
13576W        W78836  36.391  41.036   2.268
13577W        W78837   9.036  44.929  11.915
13578W        W78838   1.875  12.769  10.576
13579W        W78839  27.948  38.897   0.750
13580W        W78840  19.787  15.011  13.773
13581W        W78841  40.881  26.226   2.782
13582W        W78842   9.880  10.265  11.101
13583W        W78843  12.073  24.249   3.676
13584W        W78844  18.329  23.242  14.331
13585W        W78845  10.622  42.452  14.936
13586W        W78846  27.491  42.823   1.833
13587W        W78847   0.163   9.336  14.820
13588W        W78848   9.750  42.338   0.789
13589W        W78849  34.957  20.461  12.683
13590W        W78850  18.892  41.144   5.088
13591W        W78851  38.467   4.100  14.285
13592W        W78852  39.055   0.074   4.565
13593W        W78853  26.839   1.020   5.097
13594W        W78854  36.548  33.355   3.668
13595W        W78855   6.895  38.269  12.941
13596W        W78856  18.200  36.120   2.214
13597W        W78857  34.189  24.101  11.696
13598W        W78858   4.939  11.256   3.667
13599W        W78859  18.486  10.251   3.168
13600W        W78860   6.316  11.676  13.440
13601W        W78861  37.023   5.293   1.333
13602W        W78862  30.956  20.490  11.104
13603W        W78863   7.017  36.231   4.628
13604W        W78864  15.038  37.607   0.480
13605W        W78865  30.037  41.781  11.749
13606W        W78866   9.589  34.042   0.474
13607W        W78867  39.637   4.928   3.772
13608W        W78868  34.590  28.417  14.560
13609W        W78869  11.691  32.843  13.813
13610W        W78870  30.564   0.946  12.347
13611W        W78871  22.027  29.175   1.767
13612W        W78872  25.477  11.159  11.236
13613W        W78873  30.086  22.488  13.517
13614W        W78874   9.712   8.365  13.285
13615W        W78875  23.660  18.239  13.087
13616W        W78876  10.222  22.187   4.574
13617W        W78877   8.301   2.907   4.180
13618W        W78878   3.698   5.113  14.564
13619W        W78879  22.275  12.195  10.566
13620W        W78880  29.619  40.939   2.195
13621W        W78881  31.759  37.778  13.466
13622W        W78882  28.121  17.536  12.150
13623W        W78883  16.178  41.085   4.157
13624W        W78884  21.572  32.247   3.127
13625W        W78885  35.111  38.865  11.106
13626W        W78886   1.448  32.727   1.722
13627W        W78887  34.113  18.410   1.311
13628W        W78888  42.334  32.199   2.287
13629W        W78889  34.512  20.592   2.848
13630W        W78890  34.876   0.972  13.511
13631W        W78891  41.846  11.836   0.798
13632W        W78892   0.857  28.911   4.487
13633W        W78893  10.277  29.343  10.808
13634W        W78894  18.341  41.527   0.873
13635W        W78895  40.824  10.731  10.764
13636W        W78896  13.358   2.666   2.815
13637W        W78897  41.324   1.081  11.428
13638W        W78898   0.317  27.338   1.635
13639W        W78899  36.655  33.092   0.116
13640W        W78900  40.142   1.735  11.630
13641W        W78901  31.229  13.051   3.612
13642W        W78902  25.669  44.945   1.233
13643W        W78903  11.766   4.977  10.455
13644W        W78904  27.540  14.021   1.354
13645W        W78905  31.403  43.508   2.772
13646W        W78906  15.535  23.764   0.780
13647W        W78907  21.020  19.342  11.521
13648W        W78908  31.392  36.305   4.361
13649W        W78909   4.868  44.072  11.456
13650W        W78910  10.741   5.996   4.913
13651W        W78911   1.469  44.846   1.651
13652W        W78912  20.735  15.117  12.303
13653W        W78913  20.065   3.006   0.222
13654W        W78914  37.389  21.082   1.424
13655W        W78915   7.551  24.221  13.428
13656W        W78916  26.645   1.384  11.139
13657W        W78917  10.796  14.863   0.640
13658W        W78918  13.678  14.900  11.102
13659W        W78919  30.228   3.343   0.902
13660W        W78920   7.829  36.817  14.541
13661W        W78921   7.315   5.119   3.377
13662W        W78922  37.401  20.623   1.653
13663W        W78923  43.832  16.230   3.164
13664W        W78924  40.930   9.768  10.634
13665W        W78925   2.256  37.152   4.175
13666W        W78926  44.747  18.633  11.376
13667W        W78927  30.623  37.872   2.131
13668W        W78928  36.102  19.615  14.003
13669W        W78929  30.576   0.512   2.956
13670W        W78930  43.361   5.885  11.432
13671W        W78931  13.311  26.321   1.458
13672W        W78932  25.293  10.861   0.829
13673W        W78933  19.312  15.997   0.127
13674W        W78934  12.624   8.391   4.917
13675W        W78935  32.739  29.392   3.668
13676W        W78936  18.696  44.935   0.391
13677W        W78937  43.150   0.805  12.090
13678W        W78938   6.580   4.818   4.135
13679W        W78939  39.481  33.758   2.768
13680W        W78940   8.791   0.284   2.204
13681W        W78941  18.159  27.113  10.926
13682W        W78942   6.655  16.721  11.631
13683W        W78943  38.083  29.504   3.788
13684W        W78944   6.397   4.557  11.385
13685W        W78945  41.052   5.371   1.851
13686W        W78946   9.757   2.817  10.508
13687W        W78947   2.753  31.789  11.464
13688W        W78948  44.445   6.725   2.843
13689W        W78949  14.881  18.478   1.743
13690W        W78950  10.144  15.296  10.557
13691W        W78951  35.540   5.857  14.229
13692W        W78952  25.266  27.900  14.564
13693W        W78953  22.356   8.318   2.181
13694W        W78954  43.748  21.786  14.777
13695W        W78955  26.309  34.522   2.828
13696W        W78956  17.267  24.278  12.741
13697W        W78957  11.131  36.759  12.095
13698W        W78958  23.162   2.519  14.801
13699W        W78959   0.537  44.157  14.277
13700W        W78960  19.625  36.518  11.528
13701W        W78961  44.765  44.973   2.934
13702W        W78962  43.359  14.651   1.715
13703W        W78963  11.995  43.287  13.325
13704W        W78964   8.751  37.098   1.745
13705W        W78965  18.329  12.106  12.941
13706W        W78966  22.591   5.965  13.490
13707W        W78967  16.707  29.194  12.444
13708W        W78968  25.673  29.157   0.660
13709W        W78969  29.049  43.598   1.125
13710W        W78970  14.301   5.011  11.491
13711W        W78971  39.205   0.036  14.807
13712W        W78972  36.433   7.880   4.597
13713W        W78973  39.368  11.741   0.318
13714W        W78974  41.606  34.537   4.966
13715W        W78975  13.148  10.758   4.782
13716W        W78976  27.056  30.883   3.195
13717W        W78977  13.152  33.484  11.921
13718W        W78978  44.781  14.151  13.780
13719W        W78979  10.188   4.364  14.250
13720W        W78980  10.739  33.524   1.446
13721W        W78981  14.151  32.216  14.090
13722W        W78982   7.325  40.015  12.574
13723W        W78983  24.190  24.747  13.771
13724W        W78984   4.102  29.308   3.725
13725W        W78985   0.435   9.820   4.311
13726W        W78986   1.722  24.504   3.406
13727W        W78987   6.982   8.106   2.397
13728W        W78988   9.359  27.734   1.413
13729W        W78989  28.141  11.497   1.988
13730W        W78990   3.426  26.301   2.361
13731W        W78991  17.472  32.554  13.055
13732W        W78992  23.492  39.110  12.405
13733W        W78993  19.560  24.360  13.783
13734W        W78994  17.249   4.702   4.072
13735W        W78995  15.290  42.984   2.950
13736W        W78996  39.764   3.229   2.001
13737W        W78997  17.209   0.557  11.143
13738W        W78998   4.140  27.115  12.468
13739W        W78999  30.590  31.073  11.362
13740W        W79000  15.285  12.353   2.727
13741W        W79001  37.687  27.418  14.452
13742W        W79002  39.671  43.361   2.636
13743W        W79003  11.258  29.330   0.731
13744W        W79004  16.015  17.624   0.267
13745W        W79005  18.971   6.209  10.634
13746W        W79006  37.308  38.310  11.075
13747W        W79007  21.486   5.673  14.844
13748W        W79008  18.593  40.925  14.808
13749W        W79009  33.130  44.010   1.379
13750W        W79010  10.229  39.373  13.983
13751W        W79011  17.989  38.068   1.722
13752W        W79012  17.033  16.247  12.599
13753W        W79013  34.786  32.984   1.505
13754W        W79014   9.597  41.399   3.665
13755W        W79015  22.986  31.949   0.361
13756W        W79016   3.787  30.963  13.524
13757W        W79017  17.248  32.932   0.864
13758W        W79018  13.330  44.466   0.350
13759W        W79019  36.892  23.158   1.835
13760W        W79020  40.091  36.687  12.841
13761W        W79021  20.519  10.689  14.426
13762W        W79022  27.109  30.394  14.257
13763W        W79023  27.605   5.211   4.164
13764W        W79024  38.510  18.264   1.104
13765W        W79025  39.971  25.653   1.317
13766W        W79026  14.799   6.649  13.191
13767W        W79027   4.070  32.166   1.268
13768W        W79028  24.411  11.661  11.636
13769W        W79029  25.137  39.929   4.860
13770W        W79030  20.290   4.953   0.336
13771W        W79031   8.937  22.516  10.609
13772W        W79032  33.757  38.091   3.324
13773W        W79033  28.274  22.492   4.601
13774W        W79034  41.509  17.181  12.487
13775W        W79035   2.213   8.977  14.414
13776W        W79036  16.076  16.741   2.361
13777W        W79037  40.893  42.186   2.247
13778W        W79038  40.963   2.799   4.569
13779W        W79039  10.366  40.284  14.490
13780W        W79040  33.037  40.779   0.030
13781W        W79041  35.080   9.599   4.361
13782W        W79042   1.256  43.859   1.862
13783W        W79043  22.334  15.755  10.284
13784W        W79044  36.721  31.973  14.714
13785W        W79045  42.308  26.005  13.628
13786W        W79046   6.332  37.382  13.809
13787W        W79047  21.625  33.447   4.310
13788W        W79048  21.550  31.089  14.809
13789W        W79049  35.803  10.146  14.340
13790W        W79050  42.017  36.881  13.532
13791W        W79051   5.333  35.406  10.748
13792W        W79052  19.599  41.864  11.059
13793W        W79053  20.526  25.951  12.167
13794W        W79054  27.927   9.955  11.583
13795W        W79055  24.741  30.149  11.181
13796W        W79056  42.376  18.851   3.835
13797W        W79057   5.688  10.637   0.001
13798W        W79058  10.211   5.133  11.126
13799W        W79059  13.313   0.964   4.153
13800W        W79060  17.067   7.777   4.295
13801W        W79061  12.562  37.749  14.062
13802W        W79062  11.341   9.524  12.809
13803W        W79063  35.384   4.134  13.727
13804W        W79064  32.788  44.894   2.030
13805W        W79065  15.033  10.844   1.834
13806W        W79066  33.817  39.524  11.844
13807W        W79067  37.278  44.946  11.717
13808W        W79068  10.649  24.155  10.658
13809W        W79069  36.860   7.432  14.509
13810W        W79070  22.051  32.648  10.550
13811W        W79071  37.402   6.427   0.419
13812W        W79072  27.933  13.646  14.465
13813W        W79073   9.558  18.565   5.141
13814W        W79074  30.689  42.577   4.110
13815W        W79075   0.451  15.306   1.889
13816W        W79076   4.173  11.707   4.921
13817W        W79077  18.007  22.196   1.932
13818W        W79078  40.346   0.317  11.672
13819W        W79079  28.631  13.818  13.826
13820W        W79080   2.412   6.190  11.395
13821W        W79081  24.515  15.005   2.355
13822W        W79082  27.341  36.427   4.915
13823W        W79083  18.291   1.444   1.478
13824W        W79084  42.486  43.081  13.921
13825W        W79085  29.126  28.546   3.676
13826W        W79086  23.807  28.754   1.155
13827W        W79087  13.771  20.889   5.049
13828W        W79088  26.102   1.682   4.622
13829W        W79089  18.382  15.392  12.457
13830W        W79090   6.733  15.644  11.597
13831W        W79091  37.957   1.447  14.869
13832W        W79092  19.351  16.807   4.126
13833W        W79093  19.454  16.725   0.728
13834W        W79094  27.264   1.527   2.693
13835W        W79095  21.766   3.896   3.144
13836W        W79096  44.874  36.614  12.363
13837W        W79097   4.208  31.526  12.496
13838W        W79098  30.437  29.625   4.484
13839W        W79099  12.413  26.031  12.471
13840W        W79100  15.281  32.471   2.362
13841W        W79101  30.545  18.260  13.001
13842W        W79102  11.931   0.207   2.335
13843W        W79103  22.291  42.971  10.751
13844W        W79104  28.496  13.142   3.363
13845W        W79105  30.512  19.289  13.119
13846W        W79106  38.215  13.315  11.894
13847W        W79107  31.140  23.746  14.351
13848W        W79108  33.601   4.783  10.514
13849W        W79109  30.963  23.052   0.040
13850W        W79110  17.070  30.668  11.046
13851W        W79111  33.537  28.460  13.468
13852W        W79112  17.529   2.499   2.235
13853W        W79113   7.821  42.910   0.535
13854W        W79114  36.630  36.314   0.246
13855W        W79115  13.750  16.727   2.145
13856W        W79116   4.320  13.377  12.979
13857W        W79117  23.899   8.367  10.136
13858W        W79118  11.963  19.788   4.077
13859W        W79119   5.723  31.651  14.725
13860W        W79120   5.246  12.220   2.333
13861W        W79121   3.089  13.320   0.816
13862W        W79122  44.715   7.988  14.718
13863W        W79123  32.179   6.933  13.849
13864W        W79124  22.195  41.857   4.315
13865W        W79125  14.445  33.362   2.894
13866W        W79126   0.135   4.954   0.112
13867W        W79127  26.556   5.198   4.177
13868W        W79128   0.535  29.105  12.888
13869W        W79129  41.103   7.270   3.114
13870W        W79130  36.486   8.439   2.676
13871W        W79131  34.288  36.126   2.342
13872W        W79132  27.364  44.968  12.841
13873W        W79133  41.937  39.299   1.993
13874W        W79134  36.208   5.349   4.203
13875W        W79135   1.297  38.513  10.754
13876W        W79136  11.781  32.002  14.907
13877W        W79137   5.775  10.803  10.667
13878W        W79138  20.030   7.344   4.147
13879W        W79139  40.899  33.702   1.741
13880W        W79140  12.814   6.967   1.687
13881W        W79141  12.369  35.674   1.297
13882W        W79142  14.522  22.039  11.564
13883W        W79143   7.940   9.313  14.960
13884W        W79144  33.887  20.261  13.550
13885W        W79145  10.250  11.395  10.647
13886W        W79146  13.641  33.870  12.120
13887W        W79147  21.105  20.490   2.591
13888W        W79148  13.689   4.040  14.074
13889W        W79149  20.761  22.609  10.772
13890W        W79150  18.123  18.524   5.074
13891W        W79151  20.684   9.995   3.675
13892W        W79152   3.031  13.587   0.379
13893W        W79153  33.052  21.122   0.157
13894W        W79154  18.171  41.376   3.387
13895W        W79155  43.764   6.617  12.614
13896W        W79156   3.776  33.596  14.766
13897W        W79157  15.085  30.501   1.742
13898W        W79158   5.428  20.281  13.952
13899W        W79159  41.836  30.398   4.004
13900W        W79160  23.395  13.375   2.230
13901W        W79161  20.556  21.049  14.934
13902W        W79162  33.568  16.282   2.772
13903W        W79163   9.798  40.369   0.494
13904W        W79164  39.940   2.675  13.965
13905W        W79165   2.778  35.997  12.798
13906W        W79166  42.038   4.944   3.061
13907W        W79167   5.829  12.718   1.510
13908W        W79168  11.821  29.985  14.611
13909W        W79169  15.184  37.513  13.945
13910W        W79170   2.334  15.297  11.861
13911W        W79171  40.284  19.005   0.648
13912W        W79172  27.434  44.436  11.509
13913W        W79173  13.174  10.786   0.444
13914W        W79174  13.257  33.926   2.690
13915W        W79175  25.553  38.723   0.843
13916W        W79176  30.149   4.788   3.833
13917W        W79177  44.786  37.050  11.673
13918W        W79178  31.484  38.498   2.575
13919W        W79179   9.306   9.198   3.359
13920W        W79180   0.861   3.708   2.509
13921W        W79181  24.744   3.718  11.256
13922W        W79182  18.264  31.295   4.884
13923W        W79183  33.065  16.577   0.456
13924W        W79184  33.110  42.941   1.463
13925W        W79185  40.487  28.157  11.581
13926W        W79186  14.901  14.564  14.759
13927W        W79187  16.190  37.438   2.818
13928W        W79188  42.784  10.058   2.086
13929W        W79189  13.333  36.068   1.240
13930W        W79190  10.404  24.583   1.001
13931W        W79191  14.034  22.789  11.093
13932W        W79192  36.020  16.768   2.421
13933W        W79193  26.976   5.187   3.374
13934W        W79194  37.322  40.491   3.129
13935W        W79195  10.336  34.671  13.814
13936W        W79196  31.581  30.372   4.119
13937W        W79197  24.964  12.071  10.479
13938W        W79198  30.407  27.583   0.474
13939W        W79199  28.586  27.445   4.853
13940W        W79200  25.714  39.365   4.220
13941W        W79201  32.242   6.322   1.323
13942W        W79202   5.522  43.819   1.928
13943W        W79203  43.887  41.814  10.647
13944W        W79204   7.833   7.733   0.525
13945W        W79205  11.359  17.076  14.567
13946W        W79206   0.311  43.154  11.554
13947W        W79207  32.338  33.241   2.687
13948W        W79208  26.567   5.787  11.249
13949W        W79209   1.369  43.349   1.857
13950W        W79210  31.903  34.134  14.805
13951W        W79211  27.340  24.081   1.618
13952W        W79212  23.467  42.377  11.103
13953W        W79213  17.591  43.200   4.442
13954W        W79214   8.351  32.146  14.550
13955W        W79215  44.931  26.199  12.308
13956W        W79216  26.166  23.135   0.870
13957W        W79217  23.063   6.056   4.857
13958W        W79218  32.440  30.069  14.313
13959W        W79219  33.071  17.093   1.374
13960W        W79220  39.435  18.313   0.991
13961W        W79221  35.895  12.690  12.112
13962W        W79222  17.430  23.303   1.881
13963W        W79223  39.530  40.423  12.354
13964W        W79224  16.217  17.600  12.676
13965W        W79225   2.944  34.057   1.380
13966W        W79226   1.482   5.806   4.270
13967W        W79227   2.497   3.364   2.197
13968W        W79228  32.693  31.048   2.110
13969W        W79229  32.735   9.030  12.112
13970W        W79230   1.462  11.824   4.968
13971W        W79231  34.650  11.324  12.061
13972W        W79232  42.790   8.637   1.726
13973W        W79233   4.248  37.027  12.505
13974W        W79234  38.136   0.176   4.033
13975W        W79235   0.491  21.619  11.467
13976W        W79236  19.737  27.679  14.875
13977W        W79237  42.955  20.969  10.738
13978W        W79238  30.594  25.486   1.867
13979W        W79239   9.068  38.484  14.975
13980W        W79240  16.112  22.344   0.039
13981W        W79241  35.179  32.641  12.382
13982W        W79242   8.138  24.713   0.439
13983W        W79243  23.092  12.573  13.452
13984W        W79244  31.506   3.846  13.345
13985W        W79245   1.012  38.118  14.885
13986W        W79246  14.634   4.705  13.529
13987W        W79247  40.553  30.753  10.722
13988W        W79248  44.393  25.016  10.144
13989W        W79249  12.217   8.909   0.533
13990W        W79250   2.432  26.817  12.107
13991W        W79251  35.102  31.238  13.572
13992W        W79252  24.514   3.750  14.962
13993W        W79253   6.380  26.414   0.781
13994W        W79254  39.534  41.266  12.247
13995W        W79255   6.637   1.104  12.060
13996W        W79256   8.881  10.748  13.390
13997W        W79257  15.080  28.038  14.719
13998W        W79258  38.781  11.712   2.742
13999W        W79259  14.052  36.142   2.424
14000W        W79260  24.749  40.914   4.589
14001W        W79261  10.555  42.809   3.204
14002W        W79262  33.978   0.480  12.512
14003W        W79263   4.454  19.973  13.873
14004W        W79264  40.941   0.466  13.838
14005W        W79265  26.639   7.109   3.792
14006W        W79266  14.300  29.385  12.826
14007W        W79267  25.625  12.160  14.403
14008W        W79268   0.830  28.264  12.373
14009W        W79269  18.784  33.183  11.103
14010W        W79270   1.105  17.820   1.574
14011W        W79271  34.062   7.811  14.453
14012W        W79272  21.458  36.646  11.648
14013W        W79273  13.809  14.414  11.122
14014W        W79274  33.797  12.403  14.408
14015W        W79275   8.369  20.272  12.148
14016W        W79276  14.916  34.500   2.337
14017W        W79277   4.580  25.539  11.040
14018W        W79278   9.752   3.380   1.276
14019W        W79279  20.356  16.495   4.244
14020W        W79280  14.033  24.203  13.144
14021W        W79281  14.113  12.282   3.872
14022W        W79282  15.456   8.614   4.302
14023W        W79283  34.590  26.633  13.850
14024W        W79284  35.307   5.906   0.397
14025W        W79285  14.580  15.714  13.631
14026W        W79286  26.958  25.679   2.215
14027W        W79287  20.311  40.470  14.613
14028W        W79288  25.626  37.486  11.503
14029W        W79289   2.508   2.965   3.734
14030W        W79290  19.249  32.537   3.393
14031W        W79291  28.013  44.946  14.373
14032W        W79292   0.416  15.658  10.259
14033W        W79293   1.744  37.109   1.211
14034W        W79294   0.545  15.267  11.483
14035W        W79295  14.160   4.297   3.345
14036W        W79296  36.964  42.603  12.118
14037W        W79297  39.980  34.584   0.792
14038W        W79298   3.835   6.591  14.802
14039W        W79299  37.111  12.232  14.485
14040W        W79300  23.961   2.341   4.721
14041W        W79301  24.512   4.450  14.471
14042W        W79302  22.302  25.019  11.205
14043W        W79303   6.528   6.443  12.530
14044W        W79304   8.931  10.750   4.148
14045W        W79305  21.246  20.629  14.416
14046W        W79306  34.620   8.683  11.118
14047W        W79307  23.953  41.181  10.856
14048W        W79308  23.187   7.324  14.342
14049W        W79309  19.738   3.929   4.200
14050W        W79310  27.975  40.351   4.501
14051W        W79311   8.858   5.180  11.122
14052W        W79312  43.290  40.542   3.811
14053W        W79313  11.669   5.492   2.805
14054W        W79314  44.802  42.559  13.882
14055W        W79315  44.333  23.385  11.964
14056W        W79316  41.046  28.995  13.364
14057W        W79317  23.300  14.109   3.628
14058W        W79318  18.537  14.613  12.206
14059W        W79319   2.024  27.991   3.011
14060W        W79320  15.081  37.163  11.175
14061W        W79321   5.663  33.252  14.973
14062W        W79322  26.056  32.591   1.512
14063W        W79323   6.171  13.312  13.248
14064W        W79324  14.886  31.069  12.923
14065W        W79325   5.917   3.679   2.879
14066W        W79326   1.554  21.541  12.512
14067W        W79327  41.233  13.385  14.882
14068W        W79328  20.256  41.313  13.362
14069W        W79329  28.218  21.517   2.087
14070W        W79330  12.380   3.369   2.288
14071W        W79331  24.024  41.623   2.263
14072W        W79332  40.580  14.643  12.533
14073W        W79333  43.627  36.515   4.484
14074W        W79334  19.833  44.437   1.381
14075W        W79335  30.694  38.039   5.186
14076W        W79336  11.316  18.288   2.841
14077W        W79337  16.673  27.441  11.960
14078W        W79338  22.688  20.637  11.535
14079W        W79339   3.979  20.981  12.442
14080W        W79340  37.285   4.545   1.799
14081W        W79341   9.826  14.424  11.325
14082W        W79342   6.436  23.641   0.700
14083W        W79343  43.370  31.935  13.131
14084W        W79344  28.141  35.757  12.837
14085W        W79345  30.460  37.974   0.733
14086W        W79346  39.905  14.537  14.260
14087W        W79347  40.962  19.043  14.788
14088W        W79348   6.063  37.014   3.125
14089W        W79349  12.318  37.692  13.356
14090W        W79350   6.228   5.438  13.798
14091W        W79351  25.984  14.369   4.187
14092W        W79352  19.796   0.505  13.399
14093W        W79353  40.916  32.593  12.585
14094W        W79354  23.804   3.326  13.829
14095W        W79355   8.892  37.746  11.012
14096W        W79356  37.756  11.842   4.634
14097W        W79357   5.752  34.087   4.585
14098W        W79358  26.171   1.919   0.525
14099W        W79359  42.986  36.013   2.835
14100W        W79360   6.560  36.860   3.207
14101W        W79361   6.769   8.919   4.234
14102W        W79362  44.878  39.797  13.244
14103W        W79363  25.462  34.646  13.572
14104W        W79364  35.973  34.376  10.709
14105W        W79365   6.224  44.009  14.786
14106W        W79366  29.205   7.741  11.540
14107W        W79367   3.316  13.602  14.820
14108W        W79368  11.039  37.512   0.960
14109W        W79369   7.722   1.331   0.943
14110W        W79370   4.902  33.579   3.735
14111W        W79371  20.293  29.181   0.401
14112W        W79372  20.726  35.036   4.335
14113W        W79373  12.084   0.366  14.469
14114W        W79374  16.787  27.748   0.054
14115W        W79375  37.451   4.868  10.427
14116W        W79376  38.523  11.659   2.316
14117W        W79377  23.561  22.594  14.658
14118W        W79378  43.784  20.592   4.031
14119W        W79379   7.461  44.344   0.037
14120W        W79380  23.237   3.211  12.940
14121W        W79381  38.561  32.944  10.625
14122W        W79382  10.620  36.008   2.847
14123W        W79383  23.345  24.011  13.877
14124W        W79384  40.944  34.818  14.567
14125W        W79385  10.928  23.705   3.113
14126W        W79386  14.150   2.957   3.383
14127W        W79387  37.890  25.348  10.679
14128W        W79388   9.465  26.793   4.119
14129W        W79389  14.592  25.861   1.796
14130W        W79390  30.887  17.128   1.771
14131W        W79391   6.859   8.618   2.366
14132W        W79392  22.563  14.699   3.559
14133W        W79393  23.814  29.892  11.186
14134W        W79394   3.719  34.869  10.617
14135W        W79395  24.577  19.547   2.399
14136W        W79396   1.238  29.238  12.393
14137W        W79397  29.447  20.988   1.780
14138W        W79398  22.245   0.253  14.114
14139W        W79399  18.142   3.866  13.245
14140W        W79400   6.631  19.670   1.550
14141W        W79401  31.690  37.278  13.398
14142W        W79402  13.552   3.632  11.897
14143W        W79403  22.915  22.675  14.180
14144W        W79404   5.283  13.862   4.018
14145W        W79405  42.839  23.965   4.149
14146W        W79406  27.976  12.072   0.721
14147W        W79407  34.895  42.826  14.458
14148W        W79408  31.922  38.799  10.759
14149W        W79409  14.132   9.904   1.966
14150W        W79410  21.678  41.156  12.556
14151W        W79411  43.969  34.381   1.933
14152W        W79412   9.875  29.636  11.529
14153W        W79413  21.512  44.863  10.673
14154W        W79414   3.850  10.949   2.267
14155W        W79415  17.486  19.893   0.846
14156W        W79416   2.775  36.212   1.674
14157W        W79417  13.920  27.718  14.626
14158W        W79418  39.759  27.022   1.386
14159W        W79419   6.067  32.189  10.126
14160W        W79420  44.790   4.333   4.504
14161W        W79421  34.578  21.452  11.121
14162W        W79422  29.007  11.189   1.905
14163W        W79423  18.261  20.235   3.691
14164W        W79424   9.268   1.911   3.036
14165W        W79425   6.353  17.607   3.603
14166W        W79426  18.292   6.446   2.135
14167W        W79427  33.982   6.298  13.753
14168W        W79428  10.235   8.012  14.364
14169W        W79429  30.619  19.641  11.150
14170W        W79430  21.672   6.601   1.033
14171W        W79431  19.101  18.577  13.711
14172W        W79432  27.655  20.096  10.714
14173W        W79433  22.742  25.517   3.689
14174W        W79434  11.129  38.457  11.492
14175W        W79435  32.013  32.046   3.702
14176W        W79436  12.894  43.077   4.102
14177W        W79437  34.919  31.043  13.130
14178W        W79438  37.187   4.330  10.198
14179W        W79439  36.884  36.004   1.000
14180W        W79440  23.696  28.084   2.248
14181W        W79441   0.381  24.325  14.000
14182W        W79442  10.113  40.951  12.041
14183W        W79443   8.624  11.224  11.633
14184W        W79444  41.844  16.247   3.223
14185W        W79445  36.365   5.055   0.462
14186W        W79446  18.099  15.797   2.819
14187W        W79447  31.073   6.190  12.262
14188W        W79448   0.460   6.595   4.184
14189W        W79449   7.636   2.796  13.313
14190W        W79450  24.080  43.919  14.283
14191W        W79451  37.079  30.667   3.541
14192W        W79452  19.947  25.406   2.873
14193W        W79453  21.227  44.740   4.344
14194W        W79454   8.376  29.017   4.138
14195W        W79455  11.224  37.173   4.059
14196W        W79456  24.486  18.104  14.661
14197W        W79457   7.103  12.445   0.851
14198W        W79458  27.708  27.045   0.538
14199W        W79459  36.902  20.273   1.093
14200W        W79460  13.984  15.609  10.502
14201W        W79461  44.565  31.477  12.678
14202W        W79462  13.172  26.441   2.752
14203W        W79463  30.606  11.720  14.314
14204W        W79464   2.449  29.217   0.770
14205W        W79465  21.285  13.847   0.286
14206W        W79466  40.404  40.827  11.498
14207W        W79467   8.381  38.508  13.772
14208W        W79468  42.844  13.439  12.146
14209W        W79469  10.087   0.385  12.456
14210W        W79470  22.487  36.668  12.577
14211W        W79471  29.292  34.354  12.656
14212W        W79472  26.507   0.049  14.244
14213W        W79473  18.234  22.674   1.139
14214W        W79474  41.851  23.458   3.786
14215W        W79475  38.594   4.350   3.150
14216W        W79476   6.476  44.957  11.544
14217W        W79477   1.639  12.630  14.884
14218W        W79478  19.063  12.749  10.604
14219W        W79479  44.739  24.593  14.525
14220W        W79480   3.346  29.937  12.867
14221W        W79481   4.151   7.784   1.643
14222W        W79482   0.007   6.016  14.853
14223W        W79483   7.989  40.105  12.512
14224W        W79484  23.578  44.805  11.453
14225W        W79485  11.380  39.630  11.911
14226W        W79486  43.562   6.644  13.644
14227W        W79487  17.338   9.758  10.964
14228W        W79488  36.454  29.183  12.402
14229W        W79489   9.324  43.257  13.746
14230W        W79490  31.082   7.160  14.416
14231W        W79491  36.863  33.745   3.058
14232W        W79492  35.490   9.932  13.917
14233W        W79493   9.745  32.602   0.268
14234W        W79494  38.537  34.011  14.845
14235W        W79495  36.590  24.021   4.025
14236W        W79496  38.460  43.707  13.415
14237W        W79497  31.443  42.089  13.466
14238W        W79498  29.615   8.205   2.283
14239W        W79499  27.962   4.676   2.722
14240W        W79500  29.458  13.668  13.406
14241W        W79501  11.263  32.346   3.659
14242W        W79502  41.143  21.084  11.779
14243W        W79503  44.549  11.815   3.411
14244W        W79504  43.852   4.351   2.187
14245W        W79505  10.621   4.214   2.786
14246W        W79506  19.553  40.577  12.489
14247W        W79507  40.488  15.319  13.059
14248W        W79508   5.365   0.559   0.451
14249W        W79509  43.743   7.109  12.555
14250W        W79510  31.506  23.372  12.944
14251W        W79511   2.804   8.689   0.990
14252W        W79512  32.876  21.798   3.099
14253W        W79513  28.715  18.292  13.484
14254W        W79514   3.409  40.999   2.769
14255W        W79515  26.588  14.666  14.033
14256W        W79516  19.130  38.369  14.437
14257W        W79517  39.426  17.045   0.587
14258W        W79518   0.477   2.630   4.525
14259W        W79519  32.312  27.375  14.799
14260W        W79520  12.166  41.445   4.708
14261W        W79521  36.424  36.877   3.326
14262W        W79522  23.069  44.355  13.023
14263W        W79523  18.187   1.145   4.620
14264W        W79524  23.201  21.279   3.402
14265W        W79525  44.438   7.296   1.813
14266W        W79526  29.540  35.940   2.247
14267W        W79527  20.145  17.853   0.280
14268W        W79528  31.876  19.795   2.729
14269W        W79529   3.709  22.674   4.681
14270W        W79530   3.623  24.002  14.801
14271W        W79531  27.844  25.622  10.730
14272W        W79532  10.591  43.430   0.772
14273W        W79533  25.997   2.703  12.910
14274W        W79534   6.202  42.008  10.680
14275W        W79535   8.740  42.448   3.283
14276W        W79536  21.118  24.101  11.124
14277W        W79537   4.843  34.022   2.850
14278W        W79538   4.784  41.024  10.625
14279W        W79539  19.286  15.805   1.358
14280W        W79540  31.045  33.171   3.659
14281W        W79541  16.721  10.851   0.722
14282W        W79542  39.098   3.744   1.904
14283W        W79543  19.579  32.992   1.775
14284W        W79544  22.737  40.182   2.722
14285W        W79545  26.325  11.798   4.021
14286W        W79546   2.714  29.152  11.572
14287W        W79547   1.852  23.030   3.901
14288W        W79548  31.568   5.454  13.832
14289W        W79549  21.789  41.582   1.817
14290W        W79550  39.398   2.956   1.099
14291W        W79551  43.314  43.348   4.254
14292W        W79552   4.637  14.836  10.729
14293W        W79553   2.932  39.954   4.341
14294W        W79554  19.362   8.387  10.490
14295W        W79555  19.511  14.083  12.597
14296W        W79556  24.149   6.002   2.020
14297W        W79557  24.975  14.782  11.107
14298W        W79558  13.333  28.480   2.771
14299W        W79559  13.294  40.341  11.807
14300W        W79560  44.013  26.374   0.446
14301W        W79561  14.156  30.970   1.229
14302W        W79562  39.185   1.199   0.321
14303W        W79563  34.499  27.635   1.262
14304W        W79564   5.276  17.793   0.483
14305W        W79565  22.012  42.370  12.474
14306W        W79566  26.721  27.033  12.950
14307W        W79567  32.524  10.279   4.884
14308W        W79568  31.332  38.436   1.657
14309W        W79569  36.902  15.525   0.321
14310W        W79570   6.881  10.380   0.819
14311W        W79571  39.336   8.874  14.215
14312W        W79572  37.594  16.266  12.377
14313W        W79573  32.521  26.461  13.028
14314W        W79574  26.629   1.179  10.673
14315W        W79575   9.226  19.983  11.038
14316W        W79576  37.832  41.966  10.722
14317W        W79577  44.808  34.274  14.825
14318W        W79578   0.352   3.793   2.397
14319W        W79579   1.218   5.966  14.384
14320W        W79580  30.393  22.673  12.126
14321W        W79581  37.682  16.622  12.010
14322W        W79582  11.442   7.623   0.425
14323W        W79583  38.755   5.917  11.181
14324W        W79584  33.774  18.876  13.027
14325W        W79585  27.465  30.408   2.740
14326W        W79586   3.227  35.891   4.122
14327W        W79587   1.771  18.336   3.682
14328W        W79588  37.389  20.621   2.178
14329W        W79589  15.288  30.605   0.336
14330W        W79590  41.333  30.158   1.938
14331W        W79591  28.906   0.095   2.727
14332W        W79592  29.519   8.480  13.757
14333W        W79593  26.763  33.524  10.654
14334W        W79594  27.554  44.658   4.005
14335W        W79595   8.940  38.966  14.830
14336W        W79596  17.193  32.097  14.756
14337W        W79597  22.184   2.888   0.777
14338W        W79598  11.149  16.171  11.649
14339W        W79599  36.244  12.310  12.185
14340W        W79600  43.814  24.245  14.412
14341W        W79601  23.055  37.414   0.872
14342W        W79602  39.344  32.844  12.876
14343W        W79603  14.233  25.858  12.763
14344W        W79604   6.390  10.753  11.511
14345W        W79605  39.599  26.640  14.483
14346W        W79606  19.085  35.163   1.951
14347W        W79607  14.858  31.710  14.489
14348W        W79608  13.268  15.128  10.906
14349W        W79609  30.011  42.598  14.365
14350W        W79610  36.327  29.438   3.868
14351W        W79611   7.751   3.278  11.559
14352W        W79612   5.489  40.610  10.622
14353W        W79613   6.819  44.367  11.543
14354W        W79614  30.580   2.382   1.797
14355W        W79615  17.171   0.025  11.173
14356W        W79616  32.013  34.024   3.533
14357W        W79617   3.307   5.647   0.761
14358W        W79618  14.129  31.279  13.318
14359W        W79619  22.025  23.645  11.110
14360W        W79620  39.494  18.289   1.540
14361W        W79621  41.436  20.269  12.991
14362W        W79622  17.550  36.576   0.450
14363W        W79623  31.924   9.462  10.432
14364W        W79624  32.170  43.395   2.780
14365W        W79625  37.846   8.358   0.347
14366W        W79626  11.341   1.334   2.128
14367W        W79627  40.899   0.376  12.509
14368W        W79628  28.404   4.354   1.811
14369W        W79629   7.935   2.304  11.710
14370W        W79630  22.047  31.912  11.935
14371W        W79631  23.206   8.656  13.768
14372W        W79632  11.420   1.892   3.243
14373W        W79633  36.976   5.775  11.432
14374W        W79634  17.971  11.552   0.409
14375W        W79635  37.823  14.224   3.756
14376W        W79636  43.807   6.816   2.161
14377W        W79637  12.557  11.910   1.837
14378W        W79638  30.392   0.178   0.304
14379W        W79639  10.385  37.158  13.879
14380W        W79640  18.827  27.118   2.721
14381W        W79641  11.159   8.195  11.938
14382W        W79642  28.723  18.254  12.572
14383W        W79643   1.012  42.543  11.528
14384W        W79644  20.292   7.344  10.701
14385W        W79645   8.876  42.050  10.721
14386W        W79646   1.847   3.162   3.316
14387W        W79647  25.566  37.369  10.998
14388W        W79648  15.165  33.391  14.928
14389W        W79649  33.660   7.819   4.904
14390W        W79650  30.391   1.301  14.518
14391W        W79651  40.278   8.753  13.882
14392W        W79652  24.512  30.078   3.630
14393W        W79653  34.858  36.712  12.929
14394W        W79654  12.291  38.982  11.520
14395W        W79655  25.940   2.849   2.349
14396W        W79656  29.878  42.337  13.405
14397W        W79657   4.233   2.886   3.280
14398W        W79658  29.498   3.311   3.190
14399W        W79659   0.451  21.970   1.552
14400W        W79660  29.380  19.677  11.635
14401W        W79661  21.627  18.343  14.025
14402W        W79662  37.802  10.268   4.352
14403W        W79663  16.478   7.306   2.173
14404W        W79664   6.154  33.007  13.483
14405W        W79665  38.409  42.821  13.522
14406W        W79666  26.171  12.153   1.382
14407W        W79667   8.052  35.392   4.124
14408W        W79668  31.011  20.272   3.159
14409W        W79669  40.196  40.909   4.680
14410W        W79670   0.534   9.100   0.090
14411W        W79671  32.906  14.320   4.879
14412W        W79672  31.945   2.255   2.605
14413W        W79673  20.982   4.130  14.778
14414W        W79674   3.680   8.238   4.673
14415W        W79675  12.803  16.633  11.472
14416W        W79676  21.520  11.875  13.527
14417W        W79677  28.315  29.481   3.647
14418W        W79678   1.428   6.178  11.353
14419W        W79679  19.569  26.835   3.190
14420W        W79680  41.319  17.721   2.208
14421W        W79681  34.394  30.383   0.085
14422W        W79682  16.355  31.024  14.977
14423W        W79683  38.124  24.556   2.989
14424W        W79684  36.164  37.437   2.213
14425W        W79685  37.857  16.525  12.797
14426W        W79686  24.130   0.681  12.993
14427W        W79687  39.522  23.141  11.129
14428W        W79688   2.985   9.656  14.499
14429W        W79689  21.245  28.689   3.695
14430W        W79690  29.764  18.451   0.226
14431W        W79691  19.508   9.797  14.207
14432W        W79692  11.773  22.819   0.842
14433W        W79693  30.221  28.657   0.196
14434W        W79694  16.942  12.273   1.784
14435W        W79695   8.261   5.224  13.689
14436W        W79696   7.383   1.417  11.942
14437W        W79697   9.801  33.260   1.648
14438W        W79698   4.245  44.211  13.622
14439W        W79699  39.477   9.731  14.385
14440W        W79700   8.336  24.182   4.154
14441W        W79701  32.820  43.256  13.468
14442W        W79702  35.988   7.230  11.234
14443W        W79703   6.912   9.174   5.124
14444W        W79704  30.086  33.323  10.636
14445W        W79705  37.637  35.489  12.434
14446W        W79706  32.729  27.933   4.506
14447W        W79707   7.469  16.835   0.987
14448W        W79708  30.709  17.284  10.677
14449W        W79709   5.620  32.592  14.733
14450W        W79710  20.995   6.862   2.047
14451W        W79711   8.102  19.064  12.625
14452W        W79712   6.445  38.431   0.400
14453W        W79713  34.798  39.335  13.010
14454W        W79714   2.939  19.009  11.658
14455W        W79715  33.134  25.079   0.448
14456W        W79716  40.011  22.139   2.874
14457W        W79717  44.302  18.493  11.906
14458W        W79718  18.250   9.800   3.154
14459W        W79719  21.539  20.032   4.562
14460W        W79720  40.039  39.496   4.888
14461W        W79721  38.492  23.986   0.378
14462W        W79722   8.213   9.765   1.071
14463W        W79723   2.088  15.325  12.323
14464W        W79724  26.195  13.778  14.051
14465W        W79725   8.308  10.092   3.228
14466W        W79726  39.824  23.767  11.584
14467W        W79727  44.443  35.061  14.018
14468W        W79728  38.039  40.320  10.612
14469W        W79729  34.543  31.601  10.652
14470W        W79730   9.817   0.049  14.383
14471W        W79731  37.804  43.428   1.775
14472W        W79732  41.237  21.138   4.282
14473W        W79733  32.145  39.279   3.299
14474W        W79734  31.570  40.459  10.626
14475W        W79735  39.345  19.583  13.721
14476W        W79736   4.180  36.395   3.913
14477W        W79737   4.745  29.371  12.598
14478W        W79738   3.489   8.185  13.080
14479W        W79739   7.568  26.051   4.962
14480W        W79740  44.236  40.853   1.921
14481W        W79741   5.837   9.173  12.053
14482W        W79742  26.710  27.533  11.487
14483W        W79743  33.168   4.490   4.482
14484W        W79744  13.144   6.496  11.119
14485W        W79745   4.352   3.203   2.236
14486W        W79746  25.450  15.009   3.537
14487W        W79747  30.590  38.834   2.686
14488W        W79748   0.259   9.415   1.909
14489W        W79749  28.132   5.132  11.535
14490W        W79750  25.698  36.549   3.851
14491W        W79751  26.500  32.562   0.835
14492W        W79752  29.169  36.454  13.490
14493W        W79753  21.213  42.539   1.856
14494W        W79754  15.151  23.900   2.329
14495W        W79755   6.997   9.671   2.193
14496W        W79756   9.406  10.065  12.899
14497W        W79757  23.236  28.965  14.015
14498W        W79758  28.961  30.661  11.954
14499W        W79759  38.618   6.272   4.902
14500W        W79760  14.367   7.281  10.761
14501W        W79761  32.756  17.033  11.072
14502W        W79762   7.268   9.070  14.474
14503W        W79763  36.343  23.851   1.660
14504W        W79764  19.552   5.321  14.430
14505W        W79765  33.897  22.834   2.830
14506W        W79766   4.202   1.585   1.747
14507W        W79767  11.603  33.067   1.690
14508W        W79768  25.993  32.125  13.949
14509W        W79769  13.637  24.480   2.826
14510W        W79770  30.801   7.422   2.814
14511W        W79771   8.371  16.031   2.429
14512W        W79772   0.031  38.820   2.832
14513W        W79773   5.550  28.115  13.016
14514W        W79774  42.422  11.789   2.401
14515W        W79775  14.108  29.643  13.364
14516W        W79776   7.606  35.385  14.059
14517W        W79777  10.580   0.813   2.440
14518W        W79778   7.408  27.662  12.525
14519W        W79779   4.379  11.635  12.518
14520W        W79780  27.655  16.312  12.203
14521W        W79781  38.194  16.476  14.819
14522W        W79782  36.631   4.215  14.486
14523W        W79783  25.769  16.686  14.123
14524W        W79784   9.828  30.161   3.184
14525W        W79785  39.903  44.188  11.297
14526W        W79786  22.045   9.733   0.389
14527W        W79787   8.297  37.877  13.081
14528W        W79788  38.321  43.759  12.093
14529W        W79789  12.383  20.041  12.859
14530W        W79790  18.329   7.655   1.049
14531W        W79791   6.323   1.503   1.344
14532W        W79792   2.485  29.460   3.210
14533W        W79793   0.914  37.666   3.588
14534W        W79794  37.583  35.419  13.974
14535W        W79795  24.962   2.749   3.284
14536W        W79796  34.188  40.415  14.360
14537W        W79797  19.512  13.404   4.252
14538W        W79798  31.541   1.316   4.272
14539W        W79799  17.999  26.643  14.025
14540W        W79800  21.446  43.444   1.622
14541W        W79801  19.227   6.468   4.517
14542W        W79802  26.944  35.271  10.290
14543W        W79803  41.297  40.304   5.028
14544W        W79804   0.588  11.156   3.261
14545W        W79805  34.961   8.238  14.400
14546W        W79806  42.742  20.599  14.404
14547W        W79807  18.636  15.184   2.588
14548W        W79808   4.334   5.587  10.515
14549W        W79809   3.430   4.644  13.998
14550W        W79810  11.906  11.221  13.400
14551W        W79811  17.042  24.458  10.969
14552W        W79812  40.526  34.616  12.551
14553W        W79813  14.767  40.253  10.556
14554W        W79814  19.611  44.412  12.450
14555W        W79815  41.347  27.795   1.925
14556W        W79816  13.663  24.758  11.138
14557W        W79817   1.848  10.212   0.475
14558W        W79818  33.541  20.061   4.160
14559W        W79819  27.575  39.056  14.879
14560W        W79820  21.555  38.500   1.038
14561W        W79821  15.991  12.024   4.580
14562W        W79822   5.882  24.179  11.606
14563W        W79823  22.955   0.408  11.100
14564W        W79824  42.015  13.191   4.617
14565W        W79825  44.130   9.753  12.131
14566W        W79826   6.897  11.989   4.254
14567W        W79827  19.733  35.264  10.286
14568W        W79828  32.364  26.375   1.968
14569W        W79829  22.116  34.605   3.649
14570W        W79830   1.871  15.656  11.992
14571W        W79831  23.940  10.324  11.085
14572W        W79832  25.314  11.715   1.000
14573W        W79833  43.399  24.521  14.271
14574W        W79834  13.237  18.751  11.202
14575W        W79835  20.564  25.006  14.277
14576W        W79836  26.993  27.506  13.818
14577W        W79837  12.082  13.635  12.213
14578W        W79838  16.070  10.801   0.012
14579W        W79839  38.821  36.819   1.181
14580W        W79840  38.458  31.435   2.331
14581W        W79841  22.022  28.034  13.402
14582W        W79842  32.733  19.641   4.569
14583W        W79843   7.283   7.039   0.567
14584W        W79844  11.424  39.431  13.398
14585W        W79845  29.402  28.978  14.420
14586W        W79846  27.677   9.372   1.281
14587W        W79847  32.749   6.951  13.814
14588W        W79848   1.951   1.457   2.171
14589W        W79849   7.321  39.256  13.810
14590W        W79850  10.721   0.263  12.429
14591W        W79851  33.508  33.264   4.683
14592W        W79852  28.946   2.884  13.516
14593W        W79853   3.243  13.992   0.177
14594W        W79854  31.922   5.394   2.632
14595W        W79855  18.263  44.089   1.791
14596W        W79856  15.222  22.979   3.362
14597W        W79857   4.670  42.631   4.048
14598W        W79858  36.128  23.983   3.433
14599W        W79859  13.545  21.802   3.629
14600W        W79860  20.505  38.664   3.193
14601W        W79861  39.217  15.755  14.345
14602W        W79862  29.542  23.469   4.367
14603W        W79863  16.022  40.294   1.313
14604W        W79864  20.825  35.431  12.443
14605W        W79865  23.504  34.588   3.091
14606W        W79866  43.542  40.092  13.956
14607W        W79867  38.327  20.191   3.716
14608W        W79868  41.440   7.315   1.775
14609W        W79869  40.812   7.955  13.635
14610W        W79870  30.082  30.177  11.155
14611W        W79871   6.219  19.600   5.065
14612W        W79872  33.886   0.440  13.241
14613W        W79873  31.018  23.912  12.613
14614W        W79874  39.822  36.544   2.986
14615W        W79875  36.121   8.907   1.199
14616W        W79876  40.884   1.220  10.623
14617W        W79877  44.520  16.730   2.848
14618W        W79878  32.254   8.352  12.519
14619W        W79879  17.708  20.080  13.068
14620W        W79880  25.752  39.339   1.840
14621W        W79881  26.069  34.996  10.407
14622W        W79882  23.698  21.152   3.293
14623W        W79883  24.609  42.221  13.651
14624W        W79884  10.312  33.994   1.936
14625W        W79885  38.040   0.655  13.935
14626W        W79886  15.682  42.330  12.960
14627W        W79887  26.157   3.531   1.994
14628W        W79888  24.117  22.108   0.364
14629W        W79889  42.630   9.184  12.940
14630W        W79890  34.661  43.668  12.171
14631W        W79891  22.925   4.835  11.893
14632W        W79892   7.595  33.199  12.012
14633W        W79893   8.313  16.934   0.902
14634W        W79894   6.200  35.999   1.622
14635W        W79895  25.559   7.123   0.807
14636W        W79896   7.233  26.484   1.429
14637W        W79897   0.722  13.733  13.227
14638W        W79898   5.809  28.603   5.011
14639W        W79899  17.815  35.490  10.619
14640W        W79900   1.194  13.735  13.442
14641W        W79901   9.906   0.844   4.017
14642W        W79902   6.668  38.545  10.794
14643W        W79903  43.476  25.467   0.767
14644W        W79904  44.612   7.841   2.173
14645W        W79905  30.524  26.176  13.375
14646W        W79906  14.270  10.571  13.898
14647W        W79907  33.199  17.173  12.556
14648W        W79908  14.762   6.658   4.142
14649W        W79909  12.276  43.899   4.905
14650W        W79910  31.521   9.325   2.698
14651W        W79911  29.659  25.068  10.624
14652W        W79912  27.625  24.527   4.637
14653W        W79913  36.038  12.330  13.990
14654W        W79914   2.045  23.891  14.404
14655W        W79915   0.578  22.776  14.924
14656W        W79916   6.386  18.722  13.505
14657W        W79917   6.427  10.162   4.613
14658W        W79918   0.541  12.822  11.649
14659W        W79919  44.772   8.433  11.872
14660W        W79920  41.994  10.190   2.149
14661W        W79921  22.782  42.920   2.183
14662W        W79922  30.820   7.420  14.835
14663W        W79923  40.391   2.453  14.003
14664W        W79924  14.144  28.142   4.586
14665W        W79925  17.028  28.140  10.756
14666W        W79926  32.439  25.179   2.773
14667W        W79927   6.215  19.198   2.251
14668W        W79928   4.442  37.517  12.486
14669W        W79929  42.023   9.290   0.805
14670W        W79930   7.947  24.817   0.943
14671W        W79931   0.917  42.874  10.577
14672W        W79932  42.912  30.877  14.360
14673W        W79933  21.699   4.289   9.780
14674W        W79934   1.257   7.623  11.990
14675W        W79935  25.041  15.111   4.694
14676W        W79936  44.773   9.508  12.749
14677W        W79937  30.025  37.226   2.223
14678W        W79938  32.938  34.838   1.237
14679W        W79939  42.115   6.325   5.079
14680W        W79940  35.300  12.807   3.266
14681W        W79941  37.501  25.261  12.797
14682W        W79942   0.455  38.442  14.964
14683W        W79943   5.694  43.927   3.696
14684W        W79944  36.386  39.507  10.729
14685W        W79945  30.457   4.852   1.265
14686W        W79946  36.957  15.843  13.459
14687W        W79947  24.808  14.562   2.431
14688W        W79948  31.133  11.829  14.218
14689W        W79949  33.113  25.164   3.360
14690W        W79950  16.252   1.829  14.683
14691W        W79951  32.556  25.950  12.991
14692W        W79952  44.063  25.475  12.547
14693W        W79953  33.857  15.350  14.480
14694W        W79954  28.844  28.134  13.747
14695W        W79955   3.704   3.609   3.339
14696W        W79956  10.754  18.696  12.177
14697W        W79957   6.333  37.214  13.165
14698W        W79958  27.892  31.665   0.946
14699W        W79959  10.312  25.597   9.973
14700W        W79960  35.178  43.505  14.243
14701W        W79961   7.758   9.161   2.685
14702W        W79962  38.389  17.010  10.571
14703W        W79963  10.364  22.555   0.332
14704W        W79964  19.212  24.688   2.822
14705W        W79965  24.634  26.545   0.491
14706W        W79966   2.819  15.085  11.722
14707W        W79967  35.032  42.360  14.233
14708W        W79968  19.694  37.989   1.788
14709W        W79969  38.477  33.952   1.662
14710W        W79970  33.199  16.454  13.089
14711W        W79971  19.514  37.272   4.570
14712W        W79972  43.846  33.876   1.751
14713W        W79973  38.436   6.211   1.981
14714W        W79974   7.653  23.959  11.192
14715W        W79975  36.612  29.877   3.662
14716W        W79976  39.235   4.936  14.460
14717W        W79977  25.986  25.219   2.468
14718W        W79978  18.886   1.660   2.423
14719W        W79979  41.792  22.648   3.246
14720W        W79980  17.093  22.573   3.602
14721W        W79981   0.245  17.076   1.244
14722W        W79982  37.899  12.098   3.450
14723W        W79983  44.809  42.313   3.713
14724W        W79984  22.825   6.528   4.791
14725W        W79985  39.245  41.716   0.439
14726W        W79986  22.724  38.570   1.959
14727W        W79987  14.027  12.333  11.555
14728W        W79988  10.895   0.462  13.823
14729W        W79989  17.205   9.063   1.836
14730W        W79990   7.358  43.882  11.037
14731W        W79991  26.249   1.441   2.810
14732W        W79992  13.362  21.567  12.672
14733W        W79993  18.690  40.984  11.540
14734W        W79994  24.624  27.191  12.881
14735W        W79995   0.672  28.681   3.730
14736W        W79996  29.767  23.100   2.456
14737W        W79997  39.907  27.153   4.325
14738W        W79998  30.121   8.354   2.269
14739W        W79999   7.024  10.203   1.326
14740W        W80000   7.718  14.023   3.215
14741W        W80001  33.726  21.674   2.021
14742W        W80002  22.717  16.790   1.693
14743W        W80003   6.296  37.686   3.770
14744W        W80004  26.504  23.008  11.622
14745W        W80005   8.545  35.851  13.227
14746W        W80006  11.309   8.801  13.506
14747W        W80007  16.552  43.737   3.248
14748W        W80008   6.366  28.178   3.181
14749W        W80009  42.052  35.862  12.939
14750W        W80010  12.148  16.316  13.133
14751W        W80011  32.857  36.994  14.300
14752W        W80012  22.661  28.128  14.024
14753W        W80013  25.128  21.049  11.221
14754W        W80014  13.062  27.968   3.830
14755W        W80015  12.348  40.317  11.561
14756W        W80016   3.000  19.589  10.525
14757W        W80017  29.893  44.857  14.511
14758W        W80018  13.191  31.577  13.061
14759W        W80019  10.439  39.969   3.837
14760W        W80020  31.300  20.713   4.644
14761W        W80021  26.563  38.962  12.341
14762W        W80022  33.453   0.743   4.144
14763W        W80023   0.018  30.197   0.829
14764W        W80024  16.193  26.322  10.650
14765W        W80025  43.499  43.471  12.400
14766W        W80026   6.046  19.994  12.780
14767W        W80027  31.396  34.487   2.855
14768W        W80028  23.897  37.549   3.204
14769W        W80029  40.649  35.764   2.306
14770W        W80030  26.666  44.367  11.983
14771W        W80031  35.075  19.652  13.313
14772W        W80032  30.106  28.205   2.791
14773W        W80033   6.034  20.086   0.913
14774W        W80034   8.655   1.345   3.078
14775W        W80035  38.859  34.820  10.132
14776W        W80036  35.132   7.935   2.825
14777W        W80037  20.768  11.810   4.261
14778W        W80038  31.012  14.197  12.963
14779W        W80039  38.532  29.011   1.771
14780W        W80040  20.164  20.527   2.411
14781W        W80041  30.959  43.861  13.167
14782W        W80042   6.305  40.119  13.972
14783W        W80043  17.731  44.799   3.682
14784W        W80044  39.404  18.011   3.080
14785W        W80045  27.189  16.222   0.795
14786W        W80046  23.478  35.304   4.348
14787W        W80047   1.594  36.470  14.701
14788W        W80048  25.921  19.605   2.131
14789W        W80049  17.343  33.429   3.587
14790W        W80050  13.917   5.483  12.239
14791W        W80051   7.058  43.323   0.360
14792W        W80052  31.416  37.859   4.541
14793W        W80053  26.428  44.574   3.160
14794W        W80054  19.514  34.688   2.671
14795W        W80055  26.016  27.681   0.336
14796W        W80056  34.159   4.382  13.838
14797W        W80057  25.447  35.512   3.657
14798W        W80058   4.019   8.399  14.431
14799W        W80059   0.678   8.471   4.261
14800W        W80060  44.929  19.750   2.256
14801W        W80061   8.020  18.539   0.321
14802W        W80062  17.295  19.787  12.933
14803W        W80063  39.505  28.861   2.601
14804W        W80064  42.960   6.087  13.530
14805W        W80065   2.033  33.665   1.180
14806W        W80066   3.528  31.614   1.897
14807W        W80067  44.818  37.928  12.532
14808W        W80068  19.291   5.669   2.380
14809W        W80069  31.972  42.845  14.722
14810W        W80070  33.262   6.840  14.812
14811W        W80071   9.380  36.534  11.904
14812W        W80072   8.217  27.003   2.617
14813W        W80073   1.421   5.238   3.593
14814W        W80074   6.839   3.663  12.027
14815W        W80075  17.637  42.948   3.635
14816W        W80076  26.923  22.982  14.280
14817W        W80077  26.515   5.932   4.701
14818W        W80078  18.332  23.476  13.449
14819W        W80079  22.406  11.906  13.390
14820W        W80080  25.341  29.927   1.432
14821W        W80081   7.250   3.254   1.853
14822W        W80082  38.620  32.891   1.713
14823W        W80083  31.483  34.196   4.146
14824W        W80084  33.370  37.999   0.404
14825W        W80085  29.626  21.126  13.636
14826W        W80086  33.969  13.564  13.724
14827W        W80087  22.277  29.098   1.302
14828W        W80088   6.430  11.079   4.439
14829W        W80089  37.374  43.388   4.560
14830W        W80090  33.275   9.693   4.737
14831W        W80091  27.639  19.995  11.211
14832W        W80092   7.365  44.701  12.550
14833W        W80093  37.369  26.475   5.068
14834W        W80094  34.147  13.256  13.343
14835W        W80095  37.572  26.230  11.714
14836W        W80096  10.647  38.466  14.235
14837W        W80097  27.945  17.801   1.327
14838W        W80098  23.981   4.856  12.214
14839W        W80099  11.161  10.570   3.696
14840W        W80100  22.608   3.639   0.469
14841W        W80101   8.750  19.938   4.618
14842W        W80102  18.643  38.638   2.680
14843W        W80103   1.478   0.915   0.443
14844W        W80104   5.312  33.861   2.673
14845W        W80105  14.541   1.888  10.650
14846W        W80106  30.027  40.215  11.403
14847W        W80107   7.302  31.052   3.704
14848W        W80108  27.743   3.318   2.171
14849W        W80109  25.555   0.123   2.621
14850W        W80110  25.138  28.475   0.301
14851W        W80111  29.881  26.418   5.371
14852W        W80112  40.866  12.658  12.884
14853W        W80113  14.433  15.144   2.138
14854W        W80114   3.132   7.686   2.863
14855W        W80115  26.293  23.588   4.159
14856W        W80116  15.981   9.928   0.670
14857W        W80117  38.838   4.408   4.371
14858W        W80118   6.372  44.547  13.965
14859W        W80119  24.457  31.991  12.526
14860W        W80120  44.677   3.452   2.654
14861W        W80121  30.531   1.352   3.293
14862W        W80122  30.366   4.362   3.412
14863W        W80123   5.743  38.030  13.863
14864W        W80124  29.135  39.841  13.795
14865W        W80125  20.518  23.105  13.160
14866W        W80126   9.268  30.386   1.286
14867W        W80127  10.777  11.459   0.930
14868W        W80128  13.071  35.109  13.061
14869W        W80129  40.371   3.679  11.066
14870W        W80130  30.136  17.168   4.841
14871W        W80131  12.180  27.573  13.779
14872W        W80132   3.255  10.879   1.874
14873W        W80133  22.238  29.544  10.743
14874W        W80134  38.420  30.444  14.129
14875W        W80135  23.150   6.318   4.426
14876W        W80136   8.674  30.532  11.145
14877W        W80137   0.186  20.017  13.323
14878W        W80138   4.757  42.708  13.156
14879W        W80139  23.616  19.294   3.204
14880W        W80140   8.195  30.754  13.449
14881W        W80141  30.509   7.139  11.714
14882W        W80142   6.800  33.879   4.567
14883W        W80143  14.572   3.839   4.710
14884W        W80144   0.463  32.529   1.771
14885W        W80145  37.147  23.574  13.780
14886W        W80146  42.083   3.810  13.062
14887W        W80147  31.519  20.304   3.320
14888W        W80148  26.060  29.914  12.365
14889W        W80149   5.212   9.237  14.309
14890W        W80150  39.885  26.894  12.869
14891W        W80151  27.650   7.440   4.744
14892W        W80152  21.679  18.264   5.064
14893W        W80153  13.744  35.338   3.684
14894W        W80154  31.568  12.378  11.967
14895W        W80155  16.317  16.805   1.129
14896W        W80156   0.745  13.422   3.583
14897W        W80157   4.161   0.652   4.353
14898W        W80158  14.357   6.259  10.982
14899W        W80159  33.357  23.484  12.013
14900W        W80160  11.118  17.774   0.815
14901W        W80161  36.398  29.577   4.365
14902W        W80162  35.126   7.147   3.065
14903W        W80163   8.141  29.739  13.335
14904W        W80164   7.275  15.123   1.230
14905W        W80165  18.182  23.196   4.648
14906W        W80166   3.603   1.045   1.324
14907W        W80167  32.162  11.977  13.425
14908W        W80168  22.549  17.364  11.843
14909W        W80169  15.688   5.987   3.771
14910W        W80170   4.439  34.972   2.976
14911W        W80171  42.576  10.655   4.172
14912W        W80172  15.320  41.834   1.449
14913W        W80173  16.884  38.701  11.137
14914W        W80174  42.854   0.839  10.717
14915W        W80175   5.614  34.366   0.786
14916W        W80176   9.767  35.414  13.556
14917W        W80177  22.938  43.272   1.314
14918W        W80178   4.832   3.523  11.038
14919W        W80179  28.431  16.693  10.053
14920W        W80180  32.221  19.233   5.007
14921W        W80181  21.165  37.873  12.927
14922W        W80182  35.499   9.868   4.522
14923W        W80183  39.317  33.672  12.409
14924W        W80184  35.360  36.908  14.548
14925W        W80185  29.519  26.763   0.350
14926W        W80186  27.322  29.443   3.691
14927W        W80187  34.125  14.280  12.547
14928W        W80188  31.029  30.430   3.263
14929W        W80189  37.377  21.269  13.905
14930W        W80190  41.392  25.288   3.267
14931W        W80191  27.612  14.125   4.876
14932W        W80192  21.500   9.402   3.670
14933W        W80193  20.790  20.704   2.218
14934W        W80194  19.262   2.247  12.511
14935W        W80195  10.281   4.239   0.556
14936W        W80196   8.069  34.495   2.243
14937W        W80197  17.288  30.570  11.576
14938W        W80198  12.339   4.808  14.083
14939W        W80199  14.585  26.143  11.265
14940W        W80200  25.109  33.817  11.595
14941W        W80201  16.236  29.669  11.213
14942W        W80202  40.792  13.840  11.619
14943W        W80203  13.036  33.178  11.525
14944W        W80204  20.288   8.495   1.000
14945W        W80205  19.673  20.896  14.773
14946W        W80206   8.398  34.565   3.201
14947W        W80207   2.087  33.864  13.989
14948W        W80208  38.477  26.149  12.849
14949W        W80209   5.236  13.694  11.622
14950W        W80210  31.709  16.633   2.699
14951W        W80211  35.961  32.882  11.579
14952W        W80212  24.232   7.701   0.635
14953W        W80213  32.588  39.344   2.714
14954W        W80214  10.206  31.035   9.478
14955W        W80215  22.677  25.777  11.436
14956W        W80216  26.403  23.515   0.495
14957W        W80217  42.776  33.815  14.814
14958W        W80218  21.708  16.559  12.515
14959W        W80219  27.762   6.670   2.333
14960W        W80220  12.702  39.845  12.344
14961W        W80221  31.942  40.393   3.877
14962W        W80222  43.079  27.374   3.206
14963W        W80223   7.338  44.952   3.178
14964W        W80224  12.106  18.623   1.737
14965W        W80225  31.210   5.387  11.224
14966W        W80226  27.615  10.523  13.898
14967W        W80227  42.104   3.377   5.079
14968W        W80228  35.029   5.168  11.090
14969W        W80229  27.748  24.630   3.722
14970W        W80230  44.997  19.778  10.654
14971W        W80231  20.704   4.314   2.171
14972W        W80232   5.397  38.657   0.865
14973W        W80233  23.578   9.251  12.488
14974W        W80234   5.464  44.988   2.363
14975W        W80235  29.012  33.056   0.176
14976W        W80236  30.452  29.896  11.446
14977W        W80237  39.005  15.685   5.098
14978W        W80238  16.351  12.445  13.031
14979W        W80239  31.354   1.937  13.975
14980W        W80240  27.281  15.989   4.643
14981W        W80241  27.980  22.176   2.304
14982W        W80242  36.934  22.727   4.551
14983W        W80243  35.586  20.189   3.756
14984W        W80244  29.441   3.377   4.087
14985W        W80245  37.981  19.827  12.495
14986W        W80246  18.029  41.912   1.659
14987W        W80247   5.155  39.975  12.093
14988W        W80248  42.472   7.329   2.894
14989W        W80249  23.135  37.397   1.390
14990W        W80250  26.107  39.942   4.540
14991W        W80251   8.866  15.115  14.433
14992W        W80252  20.155  37.384   0.529
14993W        W80253  34.433  38.421  13.382
14994W        W80254  43.485   0.354  12.933
14995W        W80255  38.972  22.669  10.597
14996W        W80256  31.044  31.980  12.998
14997W        W80257   0.998   2.883   3.503
14998W        W80258  23.418  14.258  11.707
14999W        W80259  40.883  30.628   0.060
15000W        W80260  37.436  18.572  10.611
15001W        W80261   1.507  29.898   3.680
15002W        W80262  22.783  43.679  10.982
15003W        W80263  44.349  13.708   1.181
15004W        W80264   3.403  42.581   3.593
15005W        W80265  12.380  19.044   2.799
15006W        W80266  29.626  21.142  13.097
15007W        W80267  24.672  20.706   3.684
15008W        W80268  39.302  20.166   2.866
15009W        W80269   7.759  25.403   4.113
15010W        W80270  23.253  25.406  11.519
15011W        W80271  26.530  14.861   1.068
15012W        W80272  33.160  15.679  13.483
15013W        W80273  13.616  23.129  11.089
15014W        W80274  43.875  10.003  12.892
15015W        W80275   4.871  20.696  12.855
15016W        W80276  38.560  25.236   4.198
15017W        W80277  41.821   4.870  11.577
15018W        W80278   6.244  40.634  14.064
15019W        W80279  36.544  17.589  13.592
15020W        W80280   5.381  21.049   3.294
15021W        W80281  12.324  12.626   4.266
15022W        W80282  44.253  11.624   0.367
15023W        W80283   3.112  14.663  11.594
15024W        W80284  32.102   1.778  11.198
15025W        W80285  34.563  23.729   0.230
15026W        W80286  10.853   0.742   0.376
15027W        W80287  28.437  27.075   2.262
15028W        W80288  40.510  26.118   1.476
15029W        W80289  29.982  11.210  11.123
15030W        W80290  35.569  13.696   0.346
15031W        W80291  15.149  43.861   0.891
15032W        W80292   4.331  26.599   1.622
15033W        W80293  38.499   2.615  11.486
15034W        W80294  37.095  18.828  13.906
15035W        W80295  36.033  17.276  11.564
15036W        W80296  37.424  15.463  11.587
15037W        W80297  20.024  31.053  12.880
15038W        W80298   1.726  12.316   2.160
15039W        W80299   4.086  20.236   3.187
15040W        W80300  40.856  39.334   2.247
15041W        W80301   2.035  36.869   0.307
15042W        W80302  25.067   8.277   2.159
15043W        W80303  35.009  28.881  11.189
15044W        W80304  32.262  31.894  10.546
15045W        W80305   7.424  13.706   4.112
15046W        W80306  33.272  12.743   4.508
15047W        W80307  19.211   0.353   0.781
15048W        W80308  12.840  27.524   3.728
15049W        W80309  35.863  24.927   2.450
15050W        W80310  23.742   3.813   2.731
15051W        W80311   5.135  23.062   2.708
15052W        W80312   3.332  41.442  12.271
15053W        W80313  25.724  30.581  14.454
15054W        W80314  12.786  19.096   1.878
15055W        W80315  31.365  32.008  12.074
15056W        W80316  21.675   9.436  10.657
15057W        W80317  10.724  26.168   0.917
15058W        W80318  21.665  11.564   0.886
15059W        W80319   6.213  41.348   3.229
15060W        W80320  31.898   5.722   1.937
15061W        W80321   2.498  24.523   3.678
15062W        W80322  16.572   4.668   1.509
15063W        W80323  28.018  15.754  11.174
15064W        W80324   1.070   5.987  11.002
15065W        W80325  44.444  23.026   0.778
15066W        W80326  39.894   4.694   2.149
15067W        W80327  34.452  17.508  13.024
15068W        W80328  14.063  27.940   2.294
15069W        W80329  20.786  41.523   1.849
15070W        W80330  34.812  15.639   2.667
15071W        W80331  20.283   8.387  13.437
15072W        W80332  20.653  23.279   3.774
15073W        W80333  36.916   5.853  10.893
15074W        W80334  31.137   3.937   4.492
15075W        W80335  32.685   9.909   3.610
15076W        W80336  16.352  15.842   1.311
15077W        W80337  43.352  43.323  11.397
15078W        W80338   7.278  13.895   2.370
15079W        W80339   2.755   5.702  13.020
15080W        W80340  13.647  14.320  14.267
15081W        W80341  26.778  34.155  11.625
15082W        W80342  15.204  36.565   4.744
15083W        W80343  25.532   3.475   1.142
15084W        W80344  29.363  22.914  13.923
15085W        W80345  24.860   3.003   2.423
15086W        W80346  35.854   7.224   0.376
15087W        W80347  14.642  35.440   4.720
15088W        W80348   9.350   2.862   3.444
15089W        W80349  10.816   5.902  12.067
15090W        W80350  36.141   1.917   0.895
15091W        W80351   3.748  24.874  13.097
15092W        W80352  33.676  19.779  13.096
15093W        W80353  21.160  29.064  11.104
15094W        W80354  31.094  10.128  12.021
15095W        W80355  41.019  29.210   4.264
15096W        W80356  34.449   0.235  13.411
15097W        W80357  43.113  40.075   2.816
15098W        W80358  38.839   7.332  10.782
15099W        W80359  44.231  16.845   3.704
15100W        W80360  43.750  30.928  10.905
15101W        W80361  44.911  27.691  12.511
15102W        W80362  19.588  10.090   2.245
15103W        W80363  34.563  10.999  14.544
15104W        W80364  42.258  15.807  14.861
15105W        W80365   7.703  25.514   3.261
15106W        W80366  30.776  28.247   4.099
15107W        W80367  25.785  25.719  10.864
15108W        W80368   2.591  18.742   3.826
15109W        W80369  30.217  10.249   3.806
15110W        W80370  21.127  21.299  11.983
15111W        W80371  19.751  30.952  14.868
15112W        W80372  24.076  32.805   3.216
15113W        W80373  37.486  17.623   0.758
15114W        W80374  30.582  10.245  11.931
15115W        W80375  15.296  22.181  11.169
15116W        W80376  14.735  34.857  11.297
15117W        W80377  31.107   4.966   2.360
15118W        W80378  13.673   1.302   1.643
15119W        W80379   4.425   1.697  12.036
15120W        W80380  32.034  31.453   3.035
15121W        W80381  37.821  31.670   0.436
15122W        W80382  26.558   7.893  14.552
15123W        W80383  29.953   1.424  11.945
15124W        W80384  30.169  18.226  12.504
15125W        W80385   7.937  30.603   4.197
15126W        W80386   4.355  13.236   2.935
15127W        W80387  10.614  38.831   0.812
15128W        W80388  41.768   0.385  12.088
15129W        W80389   5.987  23.984   4.634
15130W        W80390  44.889   6.853  12.906
15131W        W80391   0.943  17.165   2.153
15132W        W80392  40.167  18.280  13.403
15133W        W80393  13.411  19.093   2.687
15134W        W80394  28.605  43.066   5.291
15135W        W80395  15.116  11.092   3.242
15136W        W80396  37.545  25.229   2.040
15137W        W80397  14.675  11.869  12.193
15138W        W80398  32.220   4.770  13.006
15139W        W80399   0.910  11.895  13.437
15140W        W80400  30.345  16.646   4.543
15141W        W80401  29.414  25.300  13.279
15142W        W80402  32.712   4.915   1.174
15143W        W80403  29.013  40.904   2.865
15144W        W80404   8.685  32.197  13.606
15145W        W80405  41.780  11.795  14.244
15146W        W80406  35.108   7.309   0.954
15147W        W80407  19.213  16.103  11.123
15148W        W80408   1.334  14.661   3.871
15149W        W80409   7.331  39.043  12.027
15150W        W80410   0.329   3.678   4.183
15151W        W80411  26.075   2.898  14.853
15152W        W80412   9.287  13.649   3.820
15153W        W80413  27.297  43.541  11.313
15154W        W80414  14.830   6.920   2.773
15155W        W80415  36.179   3.250   1.282
15156W        W80416  23.674  44.746   3.184
15157W        W80417  23.639  39.694   4.749
15158W        W80418  25.703   2.744  10.231
15159W        W80419  15.075   5.729   2.713
15160W        W80420  43.525  33.917   3.373
15161W        W80421  10.795   5.057   3.885
15162W        W80422  33.386  27.310   4.164
15163W        W80423  17.775  36.207   2.865
15164W        W80424   4.196  21.234  11.437
15165W        W80425  41.479  25.455  14.103
15166W        W80426   7.723   1.224  11.159
15167W        W80427   6.278  17.170  13.270
15168W        W80428  37.339  24.225   2.117
15169W        W80429   5.187  38.139  13.331
15170W        W80430  15.219  23.160  14.913
15171W        W80431   8.477  39.979  12.525
15172W        W80432  44.015  22.133  13.525
15173W        W80433  19.956  16.037  13.954
15174W        W80434  33.320  36.468   1.692
15175W        W80435  29.251  36.632   3.877
15176W        W80436   8.898  24.822   0.913
15177W        W80437  25.166  32.157   1.552
15178W        W80438  12.706  21.472   3.823
15179W        W80439  11.419  44.223  13.904
15180W        W80440  43.737  44.339   1.914
15181W        W80441   7.272  15.201   4.537
15182W        W80442  23.989  23.139   3.976
15183W        W80443   0.901   6.688   1.234
15184W        W80444   1.165  18.810   3.426
15185W        W80445  28.610  15.851  13.543
15186W        W80446  37.315  44.714  12.178
15187W        W80447  25.190  42.961   4.567
15188W        W80448  35.358   7.173   4.112
15189W        W80449  42.317  37.076  13.923
15190W        W80450  32.103  36.980  13.538
15191W        W80451  31.724   6.306   1.190
15192W        W80452   4.459   4.521   1.830
15193W        W80453   5.449  42.405   0.464
15194W        W80454   4.733  15.656  13.372
15195W        W80455   2.185   7.903   4.646
15196W        W80456   2.200  29.559   3.659
15197W        W80457  30.252  44.977   4.701
15198W        W80458  29.716  31.508  12.117
15199W        W80459  19.025  34.126  11.183
15200W        W80460  32.301  33.140   4.184
15201W        W80461  10.750  18.599   2.395
15202W        W80462   5.784   5.750   4.122
15203W        W80463  26.228  25.289  12.982
15204W        W80464  25.129  16.726  13.592
15205W        W80465   2.991  27.493  11.053
15206W        W80466  29.442  26.488  12.681
15207W        W80467  20.643   9.834   2.661
15208W        W80468  35.405  36.115  14.085
15209W        W80469  15.655  10.429   2.288
15210W        W80470  11.070  23.426  11.841
15211W        W80471  20.459  23.524  14.334
15212W        W80472  20.770  43.305  13.469
15213W        W80473  10.334   0.725   0.387
15214W        W80474  36.915   9.704  10.815
15215W        W80475  38.914   3.943   1.466
15216W        W80476  24.259   2.426   3.927
15217W        W80477   8.179  16.754  11.560
15218W        W80478  39.396  16.993   1.902
15219W        W80479  44.324  36.623  14.911
15220W        W80480   5.811   1.987  11.344
15221W        W80481  36.574  22.496   0.913
15222W        W80482  13.750  44.778   0.325
15223W        W80483  20.008  44.151  13.311
15224W        W80484  36.335  21.667   4.302
15225W        W80485  32.117  30.783  14.540
15226W        W80486  15.455  25.505   1.823
15227W        W80487  19.940  15.504  13.853
15228W        W80488   2.377  27.486  12.066
15229W        W80489  15.592  29.721   1.738
15230W        W80490  14.711   8.915   2.762
15231W        W80491  22.090   0.233   2.733
15232W        W80492  14.761  35.540   0.325
15233W        W80493  10.212  33.117   4.075
15234W        W80494  35.106  28.602   3.520
15235W        W80495  28.492  39.916   3.970
15236W        W80496  18.670  25.379  12.099
15237W        W80497   5.852   8.924   1.749
15238W        W80498  41.389   5.792  11.653
15239W        W80499  26.849  18.835   2.207
15240W        W80500   7.884  34.559  10.842
15241W        W80501  32.474  10.947  11.959
15242W        W80502  43.850   5.643  12.782
15243W        W80503  42.748  38.309   0.756
15244W        W80504  29.699  40.004   3.733
15245W        W80505  18.060  44.636  12.418
15246W        W80506  29.611  27.572   1.840
15247W        W80507  42.402  17.901   2.809
15248W        W80508   6.403   6.099   3.691
15249W        W80509  44.091  10.674  12.597
15250W        W80510  13.159  33.065  14.289
15251W        W80511  10.319  20.353   0.729
15252W        W80512  27.480  12.292   3.609
15253W        W80513  27.027  16.028   4.210
15254W        W80514   0.357  32.084   4.359
15255W        W80515   0.787  36.132  10.249
15256W        W80516  25.189  41.844   3.707
15257W        W80517  44.337  31.117   1.646
15258W        W80518   8.387   0.214  12.941
15259W        W80519  16.649   5.870  13.452
15260W        W80520  13.698  13.653   2.605
15261W        W80521  33.369  16.176  14.584
15262W        W80522  32.280   5.847   4.902
15263W        W80523  11.738  33.638   4.204
15264W        W80524  11.342  15.294   3.674
15265W        W80525  39.559  10.586  13.706
15266W        W80526  42.191   4.231   1.418
15267W        W80527   9.103  33.545   2.381
15268W        W80528   5.581  43.478  11.502
15269W        W80529  25.729  29.411  13.866
15270W        W80530  42.419  10.398   0.772
15271W        W80531  27.014  22.980   2.194
15272W        W80532  32.260  41.084  13.831
15273W        W80533  20.975  26.191   2.658
15274W        W80534  28.388  22.549  12.952
15275W        W80535  32.275  26.547   3.588
15276W        W80536  16.848  23.755  11.102
15277W        W80537  34.659  25.598   1.406
15278W        W80538  21.841  36.548   2.262
15279W        W80539  35.460  13.136  10.787
15280W        W80540  37.350   2.773  11.494
15281W        W80541  19.135   4.253   0.978
15282W        W80542   7.643   1.830   2.515
15283W        W80543  11.217   7.832  12.391
15284W        W80544  32.011  11.605   1.242
15285W        W80545  24.819  24.061   1.281
15286W        W80546  34.731  41.907  10.486
15287W        W80547  20.042  31.215  11.938
15288W        W80548  33.071   4.820   4.094
15289W        W80549  33.958   4.014   0.853
15290W        W80550  17.620  44.455   2.552
15291W        W80551   5.692  13.171   4.505
15292W        W80552   5.179   5.812   3.239
15293W        W80553  39.018  28.930   3.182
15294W        W80554  15.787   7.539   1.362
15295W        W80555  29.693  19.585  13.424
15296W        W80556  32.963  30.145  10.768
15297W        W80557   6.143  16.748   1.287
15298W        W80558   4.611  27.126  10.689
15299W        W80559  25.220  15.837  14.134
15300W        W80560  34.915   5.206  14.133
15301W        W80561  22.149  30.688   3.844
15302W        W80562  37.167   5.286   2.194
15303W        W80563  29.125  23.426   2.407
15304W        W80564  10.807  26.846  11.710
15305W        W80565  28.667  21.128   0.356
15306W        W80566  32.234  28.636  13.124
15307W        W80567   9.806  35.939   0.815
15308W        W80568   5.386  23.791  14.871
15309W        W80569  36.431   9.480  11.118
15310W        W80570  35.963   3.420  11.350
15311W        W80571   0.470   5.088   4.243
15312W        W80572  43.532  25.639   1.872
15313W        W80573   3.686  28.999  12.040
15314W        W80574   7.276   6.103   3.195
15315W        W80575  40.858  41.926  13.597
15316W        W80576   6.400  27.656  14.512
15317W        W80577   9.875  18.575   2.168
15318W        W80578  33.086  42.271  11.189
15319W        W80579   2.625  23.275  13.323
15320W        W80580   2.259  31.325  14.947
15321W        W80581  42.891  41.516  13.377
15322W        W80582  27.607  44.686  11.910
15323W        W80583  10.120  24.169  10.716
15324W        W80584  42.070  31.484  11.060
15325W        W80585  41.457  19.296  14.870
15326W        W80586  15.772  44.780  12.088
15327W        W80587  14.097  40.433   0.227
15328W        W80588  27.028  30.672  11.701
15329W        W80589  22.640  30.359  11.528
15330W        W80590  28.650  43.529  12.997
15331W        W80591  42.498  16.803  12.874
15332W        W80592  21.108  21.903   3.691
15333W        W80593  28.594  17.034   2.228
15334W        W80594  20.267  37.086   1.856
15335W        W80595  19.839   8.394   3.241
15336W        W80596  28.218  37.752  10.097
15337W        W80597   6.914  38.302  13.827
15338W        W80598  16.253  13.193   3.752
15339W        W80599  31.231  18.565  12.015
15340W        W80600  20.131   7.478  14.508
15341W        W80601  14.373   1.004  12.166
15342W        W80602  17.153  27.598  12.869
15343W        W80603  12.565  15.239   1.267
15344W        W80604  25.251   1.452   1.885
15345W        W80605  13.442   3.249  13.956
15346W        W80606  28.142  29.408  12.149
15347W        W80607  25.013  33.915  12.559
15348W        W80608  24.641  20.499  14.335
15349W        W80609  27.276  35.528   1.147
15350W        W80610  28.505  18.614   4.570
15351W        W80611  35.914  20.337  13.342
15352W        W80612  17.981  27.423  13.016
15353W        W80613  26.402   6.272   1.246
15354W        W80614  22.472  44.723  14.905
15355W        W80615  34.563  36.309  13.133
15356W        W80616   6.312  34.455   1.854
15357W        W80617   6.164   2.769   2.706
15358W        W80618  22.152   9.022  11.945
15359W        W80619   6.151   0.417  10.936
15360W        W80620  24.714  31.949   2.682
15361W        W80621   4.460  31.870   4.556
15362W        W80622   3.646  30.666  11.577
15363W        W80623  43.155   2.869   3.293
15364W        W80624  27.698  25.520   2.727
15365W        W80625  35.371  25.591   0.957
15366W        W80626  33.603   4.215   3.604
15367W        W80627  19.710   1.687   0.358
15368W        W80628  34.103   3.262  12.265
15369W        W80629  18.043  19.127   0.605
15370W        W80630  35.393  22.053  11.747
15371W        W80631   6.124  38.867  14.284
15372W        W80632  42.855  31.351  13.407
15373W        W80633  41.583  42.613   1.218
15374W        W80634  39.887  18.521  12.066
15375W        W80635  20.641  15.983   2.636
15376W        W80636  42.734  15.700  11.586
15377W        W80637  11.857  12.343  13.384
15378W        W80638  44.355  27.351  11.916
15379W        W80639  36.341   7.896   0.830
15380W        W80640   5.670  33.757  14.890
15381W        W80641  17.172  40.760   4.102
15382W        W80642  32.813  41.891  14.460
15383W        W80643  15.800  12.300  13.879
15384W        W80644   5.381  38.162   0.776
15385W        W80645  38.353  38.617  10.404
15386W        W80646  20.155  33.471  12.177
15387W        W80647  33.911  25.797   0.801
15388W        W80648   8.223  25.907  14.474
15389W        W80649  30.594  30.748   2.211
15390W        W80650  27.566  19.214   0.485
15391W        W80651  16.033   3.897  10.681
15392W        W80652  19.182   3.200   3.729
15393W        W80653  13.125   7.958  13.332
15394W        W80654  13.261  30.486   2.127
15395W        W80655  35.122  19.526  12.756
15396W        W80656  16.257  13.019  14.056
15397W        W80657  41.127  22.448   1.773
15398W        W80658  35.080  32.049  11.960
15399W        W80659  21.447  44.922   0.770
15400W        W80660  35.445   2.405   3.961
15401W        W80661   4.935  34.288  10.989
15402W        W80662  15.700  24.956   2.670
15403W        W80663  18.533   5.479  14.946
15404W        W80664  21.118  22.794   1.353
15405W        W80665  13.352   7.146   0.842
15406W        W80666  43.315  20.613   4.602
15407W        W80667   7.802  14.084  12.508
15408W        W80668  31.299   2.911  11.509
15409W        W80669  44.896  19.967  14.887
15410W        W80670   1.401  22.472  11.982
15411W        W80671  19.655  31.068   4.369
15412W        W80672  13.135  44.749   2.965
15413W        W80673  30.975  24.103   1.121
15414W        W80674  33.171  30.887   2.318
15415W        W80675  27.209  28.661  11.406
15416W        W80676  32.961  25.752   2.095
15417W        W80677  35.041  27.162   2.070
15418W        W80678   8.351   7.931   0.368
15419W        W80679  10.459   9.494  11.949
15420W        W80680  37.334   6.739  13.859
15421W        W80681  28.066  18.943  11.537
15422W        W80682  28.390   1.205   0.307
15423W        W80683  30.914  15.159   4.801
15424W        W80684   1.258  42.984  12.894
15425W        W80685  16.715  41.589  13.787
15426W        W80686  14.181   2.953   0.473
15427W        W80687  31.185   5.872   3.691
15428W        W80688  34.434  20.627   1.745
15429W        W80689   1.653   4.350  14.843
15430W        W80690   4.702  43.529   4.098
15431W        W80691  29.149  33.179   2.404
15432W        W80692  35.368   0.130  12.413
15433W        W80693  19.299  37.252   1.283
15434W        W80694  15.694  13.223   0.527
15435W        W80695  29.747  25.498   1.551
15436W        W80696  40.484  28.088  12.957
15437W        W80697  29.527  28.991  10.900
15438W        W80698  39.312  40.255  14.873
15439W        W80699  32.528  26.396  10.638
15440W        W80700  43.275  16.398   2.292
15441W        W80701  17.003  29.153   1.159
15442W        W80702  33.088  27.052  14.412
15443W        W80703  18.454  40.351   0.936
15444W        W80704  27.838  15.842  10.005
15445W        W80705  10.583  39.841   2.303
15446W        W80706  20.693  27.352   3.159
15447W        W80707   9.823  27.537  14.281
15448W        W80708  12.064   4.123   1.032
15449W        W80709  14.776  13.028   4.629
15450W        W80710  14.664  25.583  12.872
15451W        W80711  32.155   0.782  12.418
15452W        W80712  33.097  32.500  11.292
15453W        W80713  21.599  43.312  11.634
15454W        W80714  27.026  23.303   1.216
15455W        W80715   7.276  19.059   3.214
15456W        W80716  11.455  38.840  11.629
15457W        W80717  29.487  31.578  11.647
15458W        W80718  26.059  41.328  11.681
15459W        W80719  25.876  43.456   0.303
15460W        W80720  14.268  15.962  12.060
15461W        W80721   8.485  12.770  14.046
15462W        W80722  15.455  30.131   3.097
15463W        W80723  16.110   5.233   2.202
15464W        W80724  18.242  43.221  14.551
15465W        W80725  21.344  19.743  11.568
15466W        W80726  15.830  22.593  10.777
15467W        W80727  17.289  14.838   3.286
15468W        W80728   6.710  15.824  10.751
15469W        W80729  37.990  31.674   1.349
15470W        W80730  37.798  16.048  11.150
15471W        W80731  19.810  30.176  11.052
15472W        W80732  26.133  40.032  11.284
15473W        W80733   7.698  30.440  13.606
15474W        W80734  17.356  42.240  14.273
15475W        W80735  28.005  44.224  13.469
15476W        W80736   5.471  21.454  10.335
15477W        W80737  43.532  44.991   2.058
15478W        W80738  40.746  17.051  11.342
15479W        W80739  28.063  20.525  11.453
15480W        W80740  36.122   6.653  14.446
15481W        W80741  34.158  25.863   1.256
15482W        W80742   8.088  40.967   0.879
15483W        W80743   4.507  38.949   4.133
15484W        W80744  17.982  38.842   1.239
15485W        W80745  33.979  22.942   3.325
15486W        W80746  22.970  17.579  11.618
15487W        W80747  26.020  26.165  12.081
15488W        W80748   0.561  24.297  10.771
15489W        W80749  35.799   6.013  12.837
15490W        W80750  20.688  21.807  12.803
15491W        W80751  23.250  22.027  12.513
15492W        W80752  39.392  37.299   3.202
15493W        W80753  15.655  36.524   1.976
15494W        W80754  30.242  25.694  13.237
15495W        W80755  34.885  12.870  11.096
15496W        W80756  43.850  40.520  13.919
15497W        W80757  15.761  29.714  11.546
15498W        W80758  41.782  19.174  13.523
15499W        W80759  35.323  10.199  10.731
15500W        W80760  26.255  44.673   0.081
15501W        W80761  28.976  35.518  12.632
15502W        W80762   0.007  40.617  14.984
15503W        W80763  31.842  28.985  11.604
15504W        W80764  28.412  18.347  12.137
15505W        W80765  17.224   9.265  10.173
15506W        W80766   6.709  13.302   4.352
15507W        W80767  38.967  12.156  11.596
15508W        W80768  40.041  21.233   1.417
15509W        W80769  32.030  44.372   1.433
15510W        W80770   0.766  21.211  11.237
15511W        W80771  38.843  21.307   0.217
15512W        W80772  31.295  33.839   2.899
15513W        W80773  10.804  19.446   3.264
15514W        W80774  21.682  36.401  12.072
15515W        W80775  35.937  29.020   3.196
15516W        W80776  38.950  43.881  13.305
15517W        W80777   4.897  35.245  11.022
15518W        W80778  26.201  12.440   4.201
15519W        W80779   1.814   5.386   1.834
15520W        W80780  23.647  27.963   1.730
15521W        W80781  17.649   4.753   4.624
15522W        W80782  43.517   6.863  13.125
15523W        W80783   7.180  31.662  13.242
15524W        W80784  16.640  19.021   3.129
15525W        W80785  12.805   3.623   0.936
15526W        W80786  23.717  29.140  11.491
15527W        W80787  35.624  23.157  14.386
15528W        W80788   5.735  21.690   3.433
15529W        W80789   0.250  25.231   2.725
15530W        W80790   9.940  40.754   1.871
15531W        W80791   1.843  18.999   0.500
15532W        W80792  25.518  17.120  13.964
15533W        W80793   6.370  36.614  14.891
15534W        W80794  42.726   8.594  10.897
15535W        W80795  19.510  14.156   4.326
15536W        W80796  44.071  32.085   9.827
15537W        W80797  20.034   0.026   4.838
15538W        W80798   3.711  38.868   3.231
15539W        W80799  39.070  18.314   1.867
15540W        W80800  31.539  37.984  11.307
15541W        W80801  20.368  38.324   2.328
15542W        W80802  14.648  34.673  12.262
15543W        W80803  26.625  29.797   2.712
15544W        W80804   5.552  35.941  11.489
15545W        W80805  31.836  42.489  13.963
15546W        W80806  32.788  12.765  10.656
15547W        W80807  14.254  15.388  14.440
15548W        W80808  28.522  43.874   1.981
15549W        W80809  27.652  38.028  13.849
15550W        W80810   1.423   9.124   3.561
15551W        W80811   5.046  31.182   4.463
15552W        W80812   3.175  39.634   2.709
15553W        W80813  30.098  31.457   2.036
15554W        W80814  19.994   8.551   1.981
15555W        W80815   3.937   4.891  13.919
15556W        W80816  33.182  22.777  12.852
15557W        W80817  12.618  29.044   5.537
15558W        W80818  44.049  30.416   3.880
15559W        W80819   8.769  25.729  13.243
15560W        W80820   8.702  30.809  13.284
15561W        W80821  36.502  38.108   3.363
15562W        W80822  21.071  26.220  11.751
15563W        W80823   7.386  17.475  12.921
15564W        W80824   2.849  30.449   4.462
15565W        W80825   3.562   4.005   1.390
15566W        W80826  39.308  28.017   3.161
15567W        W80827  37.407   1.436  13.857
15568W        W80828  18.524  41.669   3.641
15569W        W80829  36.868   6.428   5.056
15570W        W80830  28.497  17.298   0.409
15571W        W80831  12.099   6.402  12.914
15572W        W80832  43.857   1.041   1.312
15573W        W80833  28.125  43.125  11.096
15574W        W80834  10.589  36.875  14.614
15575W        W80835  42.261  19.102   4.285
15576W        W80836  44.281  11.789  12.611
15577W        W80837   8.710  32.868  11.904
15578W        W80838  28.178   2.364  12.587
15579W        W80839  16.760  20.660  14.421
15580W        W80840  31.049  10.773  10.459
15581W        W80841  12.897  33.675   0.342
15582W        W80842   9.879  17.198  11.388
15583W        W80843   4.431  22.078   1.452
15584W        W80844   5.180   8.331   0.082
15585W        W80845  22.055  43.989   2.871
15586W        W80846   5.816   2.931  13.023
15587W        W80847  14.144   0.357   4.321
15588W        W80848  25.964  22.479  14.789
15589W        W80849  14.000  28.662   2.867
15590W        W80850  18.317  44.759  12.867
15591W        W80851  16.601  31.551  12.603
15592W        W80852  39.867  33.600   1.088
15593W        W80853  43.488   4.928  13.040
15594W        W80854  22.578  11.115  14.041
15595W        W80855   8.838   9.728   3.691
15596W        W80856  19.533  16.619  14.291
15597W        W80857  43.331  35.662   4.953
15598W        W80858   8.101  42.074   1.530
15599W        W80859   8.182  16.054  11.019
15600W        W80860  38.074  37.945  13.484
15601W        W80861  25.233  29.889   0.173
15602W        W80862  34.997  21.261  12.833
15603W        W80863  27.223   6.601   2.335
15604W        W80864  26.593  18.585  11.923
15605W        W80865  18.037   0.448  13.973
15606W        W80866  24.132   6.234  12.764
15607W        W80867  22.255  28.122   4.642
15608W        W80868  39.027  13.602  12.056
15609W        W80869   9.814  10.755  12.595
15610W        W80870  10.431  39.395  10.769
15611W        W80871  21.735   7.432   0.345
15612W        W80872   4.949  32.759   2.094
15613W        W80873  38.622   7.880   0.478
15614W        W80874  24.382  35.597   1.686
15615W        W80875  20.825  44.653  13.470
15616W        W80876   1.368  29.615   2.329
15617W        W80877  10.767  39.345   0.985
15618W        W80878  40.294   6.656  10.959
15619W        W80879  17.093  11.690   3.639
15620W        W80880  13.108  38.416   1.629
15621W        W80881   5.260  22.479  11.093
15622W        W80882  20.143  40.404  11.537
15623W        W80883   7.812  39.800  12.076
15624W        W80884  15.799  25.126   1.768
15625W        W80885  13.349  11.235   1.812
15626W        W80886  21.327  21.200   4.993
15627W        W80887  32.698   5.297  10.851
15628W        W80888  38.072  34.814  11.793
15629W        W80889  22.154  21.464   4.407
15630W        W80890  18.913  40.047   0.493
15631W        W80891  32.356   5.413  12.382
15632W        W80892  28.535  34.929  14.524
15633W        W80893  22.214  43.509   1.820
15634W        W80894  33.437  14.217  13.050
15635W        W80895   9.448   0.817  13.358
15636W        W80896   8.354  44.522   2.327
15637W        W80897  36.907  44.204  13.132
15638W        W80898   6.347   9.712   3.821
15639W        W80899  31.914  10.291   4.536
15640W        W80900  29.647  21.458   3.324
15641W        W80901  28.113  27.382  13.393
15642W        W80902   3.960   7.596   3.995
15643W        W80903  41.506  21.216   3.812
15644W        W80904  13.046  16.037  13.066
15645W        W80905  41.475  19.960   1.697
15646W        W80906  12.781   6.203  12.100
15647W        W80907  23.082  23.665  11.193
15648W        W80908  15.805  44.868   3.010
15649W        W80909  41.586  29.316   2.708
15650W        W80910  30.679  26.461  14.828
15651W        W80911  17.514  36.850  13.057
15652W        W80912  35.858  11.820  14.485
15653W        W80913   2.669   8.756  14.448
15654W        W80914  21.557  36.873  12.987
15655W        W80915  42.579   3.425  14.454
15656W        W80916  21.062  40.376   4.531
15657W        W80917  12.260  35.464   3.105
15658W        W80918  43.285  21.285  13.018
15659W        W80919  39.977  19.610   3.723
15660W        W80920  31.662  20.139  13.767
15661W        W80921   0.240  43.765   0.784
15662W        W80922  18.024  18.587   4.579
15663W        W80923  23.933  17.118   3.651
15664W        W80924  19.726  40.975   4.158
15665W        W80925   5.008  40.024  12.617
15666W        W80926   7.967   5.434  12.495
15667W        W80927   0.752  17.709  14.858
15668W        W80928  43.934  37.821   4.168
15669W        W80929  33.006  44.514   0.024
15670W        W80930  18.476  19.545   2.606
15671W        W80931  34.487  31.195   4.803
15672W        W80932  11.522  19.548  10.230
15673W        W80933  15.520  20.164  13.069
15674W        W80934  11.690   8.877  13.869
15675W        W80935  38.202   8.186   0.026
15676W        W80936  31.175  24.562   3.855
15677W        W80937   1.914  24.521   4.966
15678W        W80938  12.361   3.316   0.901
15679W        W80939  22.474  33.219   1.701
15680W        W80940   7.456   8.777   0.360
15681W        W80941  33.355  11.707  10.659
15682W        W80942   1.287  27.520   0.871
15683W        W80943  16.890  44.491   0.785
15684W        W80944   0.260  22.859  13.847
15685W        W80945  24.628  26.568   4.221
15686W        W80946  10.806  23.605   3.678
15687W        W80947  27.710  42.847  12.898
15688W        W80948  22.755   7.267   4.126
15689W        W80949  12.806   2.801   1.113
15690W        W80950  24.477  11.058  14.612
15691W        W80951  30.163  42.942  11.574
15692W        W80952   8.856  37.121   0.951
15693W        W80953  32.677  43.328   1.838
15694W        W80954  42.372  31.045   3.020
15695W        W80955  35.015   9.719  10.652
15696W        W80956  27.491  44.832  11.198
15697W        W80957  14.825  25.483  11.797
15698W        W80958  41.295  40.995  13.020
15699W        W80959   2.782  10.568  10.710
15700W        W80960   5.626  16.060  11.131
15701W        W80961  27.669  36.014  12.907
15702W        W80962  43.056  37.381   3.659
15703W        W80963  14.752  38.386   4.210
15704W        W80964   8.021   3.087   2.641
15705W        W80965  16.960  37.508   3.345
15706W        W80966   5.640   9.366   4.066
15707W        W80967  26.438  44.752  12.922
15708W        W80968  15.685  31.597   2.517
15709W        W80969  16.859   0.962  11.651
15710W        W80970   9.860   1.456  14.937
15711W        W80971   3.761   4.453   1.209
15712W        W80972   1.205  40.789   4.339
15713W        W80973   8.339  44.253   1.876
15714W        W80974  24.343  24.508  12.322
15715W        W80975  25.213  19.089  12.956
15716W        W80976  41.305  36.079   1.474
15717W        W80977  16.359  11.968  12.858
15718W        W80978  19.712  11.150  12.055
15719W        W80979   6.844  41.961  11.153
15720W        W80980  19.820   5.767  13.435
15721W        W80981  12.891  36.681   0.719
15722W        W80982  21.805   9.109  11.023
15723W        W80983  24.774  11.075  10.627
15724W        W80984  40.403   0.433  10.762
15725W        W80985  14.219  26.742   2.805
15726W        W80986  38.471   9.764   2.873
15727W        W80987  37.025  19.725   0.887
15728W        W80988  32.115  12.223  13.894
15729W        W80989  10.872   3.010  11.700
15730W        W80990  29.447  44.150   3.900
15731W        W80991  32.806   9.711  11.576
15732W        W80992  18.649  13.809   3.897
15733W        W80993  44.997  23.690   2.573
15734W        W80994  22.287  17.708  11.046
15735W        W80995  34.509  40.331   2.157
15736W        W80996  42.536  34.089  13.894
15737W        W80997  29.550  40.347   0.384
15738W        W80998  43.233  29.606   4.692
15739W        W80999  33.051  14.450  14.932
15740W        W81000  16.017   4.759  13.576
15741W        W81001  31.649  32.150   4.626
15742W        W81002  34.797  38.134  10.664
15743W        W81003  32.330  41.840   0.731
15744W        W81004  33.076   1.199  10.725
15745W        W81005  39.064  15.638   0.662
15746W        W81006   9.728  36.309   3.880
15747W        W81007  12.118  31.911  12.950
15748W        W81008  11.619  23.219  14.649
15749W        W81009   7.304  29.204   2.183
15750W        W81010   4.285  16.774  10.953
15751W        W81011   7.435  36.628   2.467
15752W        W81012  31.109  11.653   1.654
15753W        W81013  37.105   6.269  12.491
15754W        W81014  37.986   1.472   1.739
15755W        W81015  12.426  43.001  11.532
15756W        W81016  34.495  16.271  12.476
15757W        W81017  16.783  17.847   3.752
15758W        W81018  12.881   9.939   1.675
15759W        W81019  14.891  23.169  13.429
15760W        W81020  19.584  40.971   1.345
15761W        W81021  30.112  35.231   2.294
15762W        W81022   2.451  25.359  12.039
15763W        W81023   1.055  32.342  12.638
15764W        W81024  13.242  42.910  14.826
15765W        W81025  25.724  43.643  13.499
15766W        W81026  34.566  32.213   0.430
15767W        W81027  16.245  37.430   1.262
15768W        W81028  31.235  32.794   2.235
15769W        W81029  42.872  41.336   0.837
15770W        W81030   3.481  15.758  13.858
15771W        W81031  12.316  24.039  13.078
15772W        W81032  13.852   1.661   2.401
15773W        W81033  24.090  12.072  11.574
15774W        W81034   7.936  26.000   2.306
15775W        W81035   8.198  30.647  12.909
15776W        W81036   5.901  30.467   3.490
15777W        W81037  39.916  30.588   4.782
15778W        W81038  16.155  39.145  13.454
15779W        W81039  43.757  20.784   1.822
15780W        W81040  29.991  26.503   4.115
15781W        W81041  24.780  30.083   3.185
15782W        W81042  27.555  23.909  11.720
15783W        W81043  20.460   1.301   3.595
15784W        W81044  25.865  35.144  14.372
15785W        W81045  23.647  11.751  13.433
15786W        W81046  37.414   2.878   2.854
15787W        W81047  36.957   6.869   3.025
15788W        W81048  28.698  20.012   4.054
15789W        W81049   9.658  22.794   0.857
15790W        W81050  12.806  42.016   3.696
15791W        W81051   1.937  23.493   4.080
15792W        W81052  27.015  34.995   9.856
15793W        W81053  35.382  43.564   3.234
15794W        W81054  24.222   6.296  11.749
15795W        W81055   2.070  37.013   0.813
15796W        W81056  38.325  36.798   0.896
15797W        W81057  27.689   2.496  12.505
15798W        W81058  16.163  40.427   1.805
15799W        W81059  10.080  37.332   3.264
15800W        W81060  10.716  23.806   0.367
15801W        W81061  13.592  29.550  13.312
15802W        W81062  16.325  30.498   1.419
15803W        W81063  43.950  19.475   0.248
15804W        W81064  12.308  31.522  11.235
15805W        W81065  24.749  38.112  14.993
15806W        W81066  25.076  17.445  11.219
15807W        W81067  32.548  13.674   1.412
15808W        W81068  37.940  10.455   2.688
15809W        W81069  11.384   6.080   1.675
15810W        W81070  37.196  37.877   2.787
15811W        W81071  41.292   4.194   0.518
15812W        W81072  33.407  16.113  13.435
15813W        W81073  39.699  21.756  11.622
15814W        W81074   0.348  42.794   5.045
15815W        W81075   4.752  39.403  14.558
15816W        W81076  29.551  19.618  14.961
15817W        W81077  30.981  18.782  12.450
15818W        W81078  13.187  30.644  14.490
15819W        W81079  13.109  11.788  13.847
15820W        W81080  22.495   1.217  13.315
15821W        W81081  15.791  41.858   5.262
15822W        W81082   7.279  39.850  11.562
15823W        W81083  37.274  44.548  12.886
15824W        W81084   1.782  36.391   1.873
15825W        W81085  38.333  17.215   4.732
15826W        W81086  19.005  43.713   3.984
15827W        W81087  29.526  23.823  10.410
15828W        W81088  44.932  30.668  13.293
15829W        W81089  30.684  24.080   1.970
15830W        W81090  18.376   4.767  14.080
15831W        W81091  26.908  36.048   4.685
15832W        W81092  34.049  30.645  12.893
15833W        W81093  30.514   5.453  12.352
15834W        W81094  23.133  41.767   4.299
15835W        W81095   0.982  33.127   2.848
15836W        W81096  35.991  26.233  12.970
15837W        W81097  10.001  26.433   3.731
15838W        W81098  40.994  23.666   2.653
15839W        W81099  38.730  29.381  13.387
15840W        W81100  31.410  31.034   4.196
15841W        W81101   8.723   5.328  13.900
15842W        W81102  41.190  30.139  11.987
15843W        W81103  40.824  21.017   2.304
15844W        W81104  39.982  27.115   1.849
15845W        W81105  20.192  38.774  10.589
15846W        W81106  15.147   6.866  11.192
15847W        W81107  43.792  44.803   3.880
15848W        W81108  25.658  33.706   1.019
15849W        W81109   1.802  32.676  11.976
15850W        W81110  16.871   0.588   2.838
15851W        W81111  44.846  10.296   1.005
15852W        W81112  25.105  34.357  13.840
15853W        W81113  43.452  18.780  11.114
15854W        W81114   7.128   0.712  14.936
15855W        W81115  26.073  10.235  12.489
15856W        W81116  40.132  38.294  11.983
15857W        W81117  30.717   9.432   0.874
15858W        W81118  28.153  16.615   0.322
15859W        W81119  14.626  31.204  14.400
15860W        W81120  29.077  33.647   3.385
15861W        W81121  20.026  17.349   3.132
15862W        W81122  30.054   3.571   3.338
15863W        W81123  27.969  16.307   2.596
15864W        W81124  19.511  14.173   3.135
15865W        W81125  41.820   8.291   0.243
15866W        W81126  18.434  15.565  10.278
15867W        W81127  20.071  25.016  12.567
15868W        W81128   0.910   0.714  12.325
15869W        W81129  14.947  31.923   3.522
15870W        W81130  44.420  41.073   4.306
15871W        W81131   2.264  42.204   2.681
15872W        W81132  25.283  16.460   4.968
15873W        W81133  11.421  35.396   3.698
15874W        W81134  38.625  17.558   3.894
15875W        W81135  25.266   2.449  13.395
15876W        W81136  20.237  43.057   4.663
15877W        W81137  39.816  28.444   1.357
15878W        W81138  22.223  44.066  11.895
15879W        W81139   3.415  21.368  14.225
15880W        W81140  13.630  31.328  11.682
15881W        W81141  40.003   9.272  10.423
15882W        W81142   2.216   1.154  10.719
15883W        W81143  37.258  12.068   2.401
15884W        W81144  28.120  38.496  14.384
15885W        W81145  36.965   3.518   0.765
15886W        W81146  34.553  41.982  10.973
15887W        W81147  33.011  30.245  11.766
15888W        W81148  15.748  17.661  13.580
15889W        W81149  20.380  19.093  10.520
15890W        W81150  25.418  30.990  13.547
15891W        W81151  13.871  19.084   1.833
15892W        W81152  17.221  12.761  14.882
15893W        W81153  44.402   3.122   1.717
15894W        W81154  28.062   3.208   4.662
15895W        W81155   2.647  23.364   4.948
15896W        W81156  30.502  43.559  12.322
15897W        W81157  33.989   4.002  13.527
15898W        W81158  32.676  12.199  13.366
15899W        W81159  36.444  19.081  13.548
15900W        W81160  16.300  23.230   0.884
15901W        W81161  34.887  33.249  14.741
15902W        W81162  37.323  13.219   2.894
15903W        W81163  15.097  27.192   1.825
15904W        W81164  34.787  36.004   0.902
15905W        W81165   2.769   0.842  12.607
15906W        W81166  35.944  15.381   2.348
15907W        W81167  39.249   9.392   1.294
15908W        W81168  14.619  39.372   3.195
15909W        W81169   3.336  32.185  11.518
15910W        W81170  27.677  34.924   4.593
15911W        W81171  34.956   9.575   3.842
15912W        W81172   6.638  44.632   0.377
15913W        W81173  27.760  21.231  12.527
15914W        W81174  42.262  18.768   4.801
15915W        W81175  17.112   4.436  12.900
15916W        W81176  25.281  43.944  12.607
15917W        W81177  25.239  24.262   2.972
15918W        W81178  16.208  32.648   4.561
15919W        W81179  11.768   7.831   4.525
15920W        W81180  29.481   2.862   2.459
15921W        W81181   4.470  10.531  13.750
15922W        W81182   3.517  40.838   1.909
15923W        W81183  42.572  22.967   0.943
15924W        W81184   7.844  10.120   1.026
15925W        W81185  38.816  12.413  10.837
15926W        W81186   9.466  30.519   3.060
15927W        W81187  36.441  25.167   2.181
15928W        W81188  23.575   6.122  10.998
15929W        W81189  23.699  23.633  13.826
15930W        W81190  33.013   9.807   1.275
15931W        W81191  11.025  43.278   2.631
15932W        W81192  41.755  40.887   0.349
15933W        W81193  44.550   6.585   4.344
15934W        W81194  43.473  22.088   3.991
15935W        W81195   2.795   9.963   0.895
15936W        W81196  33.010  29.928  12.602
15937W        W81197  28.066  19.240   3.047
15938W        W81198  20.085  23.073   3.558
15939W        W81199   7.223  21.474   4.259
15940W        W81200   6.824  11.331  10.809
15941W        W81201   1.234  17.676  10.428
15942W        W81202  24.078  39.946   4.556
15943W        W81203   2.225  39.848  12.168
15944W        W81204  34.838  43.017   4.093
15945W        W81205  32.988   3.505  14.325
15946W        W81206  32.654  11.729   2.143
15947W        W81207  42.447  16.453  10.346
15948W        W81208  34.543   4.136  10.696
15949W        W81209  36.661  23.227   2.977
15950W        W81210  22.565   2.295   3.287
15951W        W81211  19.302  18.608   2.336
15952W        W81212  32.549  11.282   1.874
15953W        W81213  38.849  16.707   4.685
15954W        W81214   0.783  31.046  13.125
15955W        W81215  25.703  11.598  13.417
15956W        W81216   1.047  42.377  10.712
15957W        W81217  10.155  28.153   0.482
15958W        W81218  22.217  16.984   3.264
15959W        W81219  17.692  13.730   4.620
15960W        W81220  43.437   2.360  12.854
15961W        W81221  20.436   3.736   4.027
15962W        W81222  31.407  40.581  11.624
15963W        W81223  37.159  26.567   1.783
15964W        W81224  30.352  23.482   0.796
15965W        W81225  39.397  13.059   2.734
15966W        W81226  30.369   0.169  10.042
15967W        W81227  42.736  32.683  11.801
15968W        W81228  31.557  15.818  13.269
15969W        W81229   4.259  38.971   3.187
15970W        W81230  44.870  14.645   1.822
15971W        W81231  37.711  43.774  14.987
15972W        W81232  28.901  17.615   0.048
15973W        W81233  14.736  44.769   2.196
15974W        W81234  14.439  39.524  11.580
15975W        W81235   4.972   5.739   0.886
15976W        W81236  43.325  22.912  11.944
15977W        W81237  38.823  24.954   1.491
15978W        W81238   7.330   8.422  13.889
15979W        W81239  17.577  43.487   0.009
15980W        W81240  10.526   2.266  13.923
15981W        W81241  39.868  15.409   0.995
15982W        W81242  13.843  44.442   4.709
15983W        W81243   6.911  36.171   3.280
15984W        W81244   0.435  41.353   1.930
15985W        W81245  31.178  19.620   1.766
15986W        W81246  37.642  14.192   0.823
15987W        W81247   4.400  27.477   1.288
15988W        W81248  21.984  31.329  11.178
15989W        W81249  17.661  44.989  10.590
15990W        W81250  14.796  34.847  13.023
15991W        W81251  30.622  21.190  14.580
15992W        W81252  44.435  17.255   2.279
15993W        W81253   2.261   9.505   3.181
15994W        W81254   3.439  38.823  12.011
15995W        W81255  39.766   1.427  12.502
15996W        W81256   8.894  36.835   2.169
15997W        W81257  38.804  28.615   1.533
15998W        W81258  34.615  31.791  12.564
15999W        W81259  19.769  11.741   4.158
16000W        W81260  24.617   9.662   2.410
16001W        W81261   4.312  36.870  11.413
16002W        W81262  16.173   6.490  12.376
16003W        W81263  23.463  38.626  11.989
16004W        W81264  23.615  11.740  14.395
16005W        W81265   1.182  22.802   0.441
16006W        W81266  42.469  13.208  11.893
16007W        W81267  27.716   5.417   0.096
16008W        W81268  10.368  41.768  11.941
16009W        W81269  13.016  35.770  13.860
16010W        W81270  30.597  16.658   0.277
16011W        W81271  37.164  11.735   3.763
16012W        W81272   1.966  19.322   1.580
16013W        W81273  33.259   8.762   4.674
16014W        W81274  27.611  14.862  13.971
16015W        W81275   4.517  31.808  14.401
16016W        W81276   0.844  34.394   1.374
16017W        W81277  38.153  18.055   3.522
16018W        W81278  24.140  32.822  13.915
16019W        W81279  33.292  15.408  11.188
16020W        W81280  10.290   2.313   5.017
16021W        W81281  32.253  35.338   3.789
16022W        W81282  13.811  34.151   0.473
16023W        W81283  36.861  29.219  13.305
16024W        W81284  37.465  15.229   2.483
16025W        W81285   8.583   8.718   3.127
16026W        W81286   8.515  22.292  14.131
16027W        W81287  31.946  27.797   0.796
16028W        W81288  14.052   5.674  14.406
16029W        W81289  27.523  13.266   0.754
16030W        W81290  14.627  31.507   4.654
16031W        W81291   3.826  44.126  11.175
16032W        W81292  28.565  36.090   1.158
16033W        W81293  16.814  41.527   1.846
16034W        W81294   9.679  36.957  14.311
16035W        W81295  32.299   2.497  14.751
16036W        W81296  17.563   5.990   0.301
16037W        W81297   7.934  10.191   3.647
16038W        W81298  40.476  22.418   5.061
16039W        W81299  19.385  41.385  12.349
16040W        W81300  26.384  18.680  13.515
16041W        W81301  19.170   3.871  10.440
16042W        W81302  24.736   3.744   3.662
16043W        W81303  43.932  41.443  10.308
16044W        W81304  18.868  23.356  11.423
16045W        W81305  34.331  29.832  10.757
16046W        W81306  38.897  20.692  12.731
16047W        W81307  18.310   7.849  10.749
16048W        W81308  42.422   6.761   3.488
16049W        W81309  34.328  28.112   2.910
16050W        W81310   0.468  26.629   0.903
16051W        W81311  39.866  42.870  10.725
16052W        W81312  26.799   4.811  13.023
16053W        W81313  44.399  36.834  13.520
16054W        W81314   2.346  44.720  13.452
16055W        W81315   7.426   8.873  12.502
16056W        W81316  32.847  15.217   2.512
16057W        W81317   8.200  10.356   2.776
16058W        W81318  39.300  27.028  12.545
16059W        W81319  38.962  20.498   1.115
16060W        W81320  34.860  35.569   0.236
16061W        W81321   4.052  35.989  11.961
16062W        W81322   3.310   3.163   4.135
16063W        W81323  25.526  10.289   3.127
16064W        W81324  12.310  34.969   0.075
16065W        W81325  19.701  38.583  10.648
16066W        W81326  33.718  17.680  10.605
16067W        W81327  25.142  30.448   4.688
16068W        W81328  30.980  27.112  13.340
16069W        W81329  14.544  36.883  14.339
16070W        W81330  16.021   2.900  13.101
16071W        W81331  29.741  35.890   1.753
16072W        W81332  30.393  34.456   3.730
16073W        W81333  41.124  21.449  14.458
16074W        W81334  12.799  44.203  13.966
16075W        W81335  30.822  21.498   2.798
16076W        W81336  14.734   1.223   4.273
16077W        W81337  15.680   3.802   1.841
16078W        W81338  23.080  10.653   0.427
16079W        W81339   5.754  39.031   3.130
16080W        W81340  16.554   6.868   4.213
16081W        W81341  13.436   1.760  10.747
16082W        W81342   9.862  15.704   0.960
16083W        W81343  24.139   9.840   2.158
16084W        W81344  29.104  30.248  11.440
16085W        W81345   4.838   7.984   5.005
16086W        W81346   3.184  10.406  14.698
16087W        W81347  35.255   2.478   3.489
16088W        W81348  21.534  10.135  14.191
16089W        W81349  24.963  22.831  12.509
16090W        W81350   9.275  36.994   1.268
16091W        W81351   0.917  29.226   0.025
16092W        W81352  12.357  11.690  14.359
16093W        W81353  32.410   7.928   0.143
16094W        W81354  33.806   1.988  12.411
16095W        W81355   4.738   7.348  10.751
16096W        W81356  13.280  28.582  14.385
16097W        W81357  34.926  22.072   0.897
16098W        W81358  12.075   3.282   3.641
16099W        W81359  35.014  43.118   1.745
16100W        W81360  24.492  28.597  12.825
16101W        W81361   1.227  30.467   1.344
16102W        W81362  15.270  38.314   3.816
16103W        W81363  41.900   6.681   3.586
16104W        W81364   4.829   7.663   0.405
16105W        W81365   2.420  32.669  12.492
16106W        W81366  43.562   0.680  14.512
16107W        W81367   2.226  24.298  10.655
16108W        W81368  39.418   7.336  13.437
16109W        W81369  21.927  31.577  10.733
16110W        W81370  36.347  27.203   3.005
16111W        W81371   0.929  28.183  14.981
16112W        W81372  23.774  26.385   4.195
16113W        W81373  34.452   6.477   3.602
16114W        W81374   4.392   0.870   1.831
16115W        W81375  11.720  41.527   0.642
16116W        W81376   6.210  23.132   1.371
16117W        W81377  28.784  42.752   1.014
16118W        W81378  11.327   1.219  13.853
16119W        W81379   1.501   2.397   0.315
16120W        W81380  10.291  32.003  10.670
16121W        W81381  14.622  14.012   0.963
16122W        W81382  16.098  15.369  11.478
16123W        W81383  24.636  14.552  14.345
16124W        W81384  10.288   2.735   0.974
16125W        W81385   4.328  22.987   0.407
16126W        W81386  10.233  27.973  13.534
16127W        W81387  34.590  23.192  14.376
16128W        W81388  21.219   2.024   0.486
16129W        W81389   3.427  15.539   2.683
16130W        W81390  39.971  14.105  13.427
16131W        W81391   7.708  22.767  12.541
16132W        W81392  29.458  28.432  12.094
16133W        W81393   8.258  30.807  11.069
16134W        W81394   2.468  11.340   0.740
16135W        W81395  31.035   7.246  11.330
16136W        W81396  16.338   4.178   1.390
16137W        W81397   0.865  31.844   4.732
16138W        W81398  23.682  33.434   0.491
16139W        W81399  26.532   0.941   1.279
16140W        W81400  15.531   1.255  12.912
16141W        W81401   5.171   3.858   4.648
16142W        W81402  14.148  28.636   1.677
16143W        W81403  21.631  15.139  13.995
16144W        W81404  24.644   8.151   4.056
16145W        W81405  26.568  22.251   0.712
16146W        W81406  29.519   4.402   1.756
16147W        W81407   7.073  32.072   1.887
16148W        W81408  35.704  10.436  12.598
16149W        W81409  33.397  33.211   3.390
16150W        W81410  42.498   0.091  12.183
16151W        W81411  35.413   2.870   4.169
16152W        W81412  42.042  16.546  12.031
16153W        W81413   4.493  19.222  11.034
16154W        W81414  40.068  11.852   3.237
16155W        W81415  25.452  28.599   1.754
16156W        W81416   3.017   1.896   2.315
16157W        W81417  40.791  33.908   1.282
16158W        W81418  22.173  14.767  14.932
16159W        W81419  37.964  20.137   2.309
16160W        W81420  34.168  29.798   0.647
16161W        W81421   0.042  22.840  14.906
16162W        W81422   0.484  42.004   1.282
16163W        W81423  18.824  15.251  13.360
16164W        W81424  13.299   6.164  11.921
16165W        W81425  31.838  15.130   3.140
16166W        W81426  12.117  11.210   2.859
16167W        W81427   9.480  27.447   2.710
16168W        W81428  38.257   6.569  12.503
16169W        W81429  41.226  10.399  13.289
16170W        W81430  13.623  26.618   0.669
16171W        W81431  15.270   6.365  11.305
16172W        W81432  19.292  18.684  14.233
16173W        W81433  44.953   9.183  12.345
16174W        W81434  27.048  42.697   3.931
16175W        W81435  21.085   3.512   1.264
16176W        W81436   8.736  43.959  11.166
16177W        W81437  29.028   0.505  14.896
16178W        W81438  22.947   6.639  13.994
16179W        W81439  36.863  33.420   1.855
16180W        W81440  19.000  28.399   3.820
16181W        W81441  10.664  23.306   0.487
16182W        W81442  39.058  21.163   2.799
16183W        W81443  17.673   2.350   0.432
16184W        W81444  42.560  39.615  11.493
16185W        W81445  25.986  23.971  11.655
16186W        W81446  44.311  29.246   0.502
16187W        W81447  20.709   4.979   3.302
16188W        W81448  11.239  32.083   4.123
16189W        W81449  14.530  39.411  13.471
16190W        W81450  44.791  31.059   0.910
16191W        W81451  35.297   8.392   2.022
16192W        W81452  18.038   0.487  14.894
16193W        W81453  36.658  24.008   0.439
16194W        W81454   9.178   7.230  12.981
16195W        W81455  43.922  10.207   0.766
16196W        W81456  29.306  21.100   2.797
16197W        W81457  29.576  10.304   2.767
16198W        W81458  34.565  25.623  12.970
16199W        W81459  31.386   9.875   0.433
16200W        W81460  38.721  17.615  13.417
16201W        W81461  27.170   2.729  10.960
16202W        W81462  28.206   5.862  10.733
16203W        W81463  35.887   4.450  13.009
16204W        W81464   1.934  37.511   0.715
16205W        W81465   1.179  28.934  10.217
16206W        W81466  41.513  42.440   3.243
16207W        W81467   0.218  24.842  10.124
16208W        W81468  35.379   3.704  14.036
16209W        W81469   3.422  38.294  12.021
16210W        W81470  14.023   1.302  12.358
16211W        W81471  41.332  11.730  14.514
16212W        W81472   2.490  34.695   0.279
16213W        W81473  25.724  15.316  11.041
16214W        W81474   2.240  26.594  11.644
16215W        W81475  26.457  29.085   1.110
16216W        W81476  30.689  34.828   4.198
16217W        W81477  33.628  10.597  11.573
16218W        W81478  44.369  25.556  10.895
16219W        W81479  28.121  34.063   4.598
16220W        W81480  36.045  31.574   1.348
16221W        W81481   8.157  15.728   2.824
16222W        W81482  28.648  38.538  13.122
16223W        W81483  24.423  30.446   3.288
16224W        W81484  21.766  24.717  12.904
16225W        W81485  32.999   6.963   0.862
16226W        W81486  16.688  43.779  12.059
16227W        W81487   5.469  35.051  11.972
16228W        W81488  16.254  42.731   4.901
16229W        W81489  30.337   8.958   1.775
16230W        W81490  40.852  42.942   4.830
16231W        W81491   9.829  22.353  10.744
16232W        W81492  41.223   5.235   2.318
16233W        W81493  15.182   3.979   3.228
16234W        W81494  18.651  43.548   2.881
16235W        W81495  41.546  29.793  12.379
16236W        W81496  36.467  30.583  11.012
16237W        W81497  10.254  29.581   0.195
16238W        W81498  14.842   2.054   3.851
16239W        W81499  11.253   1.076   1.272
16240W        W81500  10.465  37.141  10.159
16241W        W81501  43.938  10.808  11.725
16242W        W81502  41.778  39.287   4.290
16243W        W81503  22.712  22.738  12.129
16244W        W81504   3.310  34.354  14.858
16245W        W81505  23.639  24.231   4.150
16246W        W81506  33.145  21.799   2.662
16247W        W81507   5.315   2.548   1.730
16248W        W81508  40.118  40.466   1.678
16249W        W81509  15.689  33.125   4.185
16250W        W81510  38.117  20.538   0.449
16251W        W81511  13.867   5.829  13.926
16252W        W81512   5.745  28.624  11.636
16253W        W81513  44.299   5.100   1.770
16254W        W81514  30.455  15.313   2.343
16255W        W81515  15.548  20.739   3.680
16256W        W81516   7.391  28.276  13.951
16257W        W81517  12.684   1.755   2.394
16258W        W81518  22.750   3.833   3.106
16259W        W81519  25.958  42.879   1.716
16260W        W81520  10.882  34.348  13.081
16261W        W81521  33.686  10.628   2.860
16262W        W81522   3.856  40.643  14.053
16263W        W81523  42.488  23.440   2.249
16264W        W81524  37.163  41.702  12.791
16265W        W81525  11.129  16.796   4.556
16266W        W81526  19.845  44.720  10.247
16267W        W81527  43.030  15.753   4.422
16268W        W81528  24.888  42.067  10.474
16269W        W81529  39.056  21.806   4.132
16270W        W81530  42.060   6.801  14.511
16271W        W81531  35.494  42.610  14.285
16272W        W81532  43.777   9.156  10.255
16273W        W81533  37.805  12.604   4.835
16274W        W81534  28.128  39.719  12.916
16275W        W81535  39.002  39.687   2.827
16276W        W81536  39.269  31.038  13.066
16277W        W81537  20.353  25.310  11.073
16278W        W81538  28.256  38.031   0.857
16279W        W81539  25.555  40.349  12.817
16280W        W81540  36.397   9.815  12.633
16281W        W81541  43.978  25.769  12.141
16282W        W81542  25.102  21.049  10.323
16283W        W81543  21.468  27.109   0.478
16284W        W81544  16.435  34.842  12.364
16285W        W81545  24.134  40.555  14.004
16286W        W81546  19.604  38.807  11.109
16287W        W81547  19.617  13.269   3.213
16288W        W81548  17.065   6.294   5.136
16289W        W81549  30.106   2.901  12.947
16290W        W81550  13.595   3.825   0.577
16291W        W81551  32.091  18.781  12.466
16292W        W81552  16.139   9.463   3.431
16293W        W81553   0.848   3.744  14.926
16294W        W81554  11.377  22.977   1.270
16295W        W81555  44.468  30.577  12.511
16296W        W81556  11.275  11.609   0.747
16297W        W81557  42.017  42.128  13.591
16298W        W81558  30.074   8.413  12.099
16299W        W81559  11.215   6.569  14.318
16300W        W81560  41.689  19.026  12.116
16301W        W81561   5.255  11.686  10.764
16302W        W81562  38.388   1.206   1.566
16303W        W81563  32.069  24.199   5.572
16304W        W81564  22.600  22.440  13.842
16305W        W81565  34.306   7.843  14.912
16306W        W81566  43.799   6.126  12.656
16307W        W81567   6.348  41.223  12.535
16308W        W81568   9.059  10.253  13.237
16309W        W81569  10.904  26.633  14.387
16310W        W81570  32.502   7.788  13.272
16311W        W81571  22.757  23.541   4.540
16312W        W81572   6.156   7.034   4.130
16313W        W81573   0.459  30.267  11.997
16314W        W81574   4.335  36.382   2.906
16315W        W81575  26.508   1.738   1.711
16316W        W81576   5.932  40.306  14.353
16317W        W81577   1.344  25.066   1.880
16318W        W81578  17.307  31.536  10.486
16319W        W81579   9.096  17.847   3.579
16320W        W81580  28.621  19.302   2.133
16321W        W81581  22.046  20.764  10.077
16322W        W81582  33.366  39.636  11.598
16323W        W81583  32.323  15.394   2.606
16324W        W81584   3.673  35.514  14.784
16325W        W81585  22.221  34.924  12.851
16326W        W81586  35.365  11.915   3.702
16327W        W81587  32.991  28.220  13.087
16328W        W81588  23.637  40.381  11.555
16329W        W81589  27.990  31.575  11.429
16330W        W81590  32.707  39.055  14.735
16331W        W81591   9.264  30.623  14.235
16332W        W81592  35.495  41.829   1.889
16333W        W81593  39.869   8.959   1.788
16334W        W81594  23.896  35.415  14.442
16335W        W81595  34.049  21.079  14.065
16336W        W81596  21.510  23.072   0.159
16337W        W81597  36.863   8.150   0.392
16338W        W81598  34.583  44.767  13.597
16339W        W81599  10.224   3.003   0.089
16340W        W81600  43.896  16.635   4.454
16341W        W81601  39.156  28.926  11.127
16342W        W81602  32.509   5.771  10.715
16343W        W81603  35.796  43.828   0.752
16344W        W81604  38.860  27.885   4.474
16345W        W81605  10.180  13.969   2.893
16346W        W81606  32.054  18.126  14.688
16347W        W81607  36.748  21.128   2.300
16348W        W81608  15.386  34.297  10.797
16349W        W81609  21.759  42.015   4.055
16350W        W81610  32.575  25.543   2.398
16351W        W81611   1.968  16.253  11.420
16352W        W81612  35.573  37.034  12.095
16353W        W81613  29.617   2.973  12.166
16354W        W81614  16.540  24.666  12.003
16355W        W81615  20.614   8.678   2.652
16356W        W81616  37.433  10.833  14.314
16357W        W81617  41.878   4.232  12.788
16358W        W81618  31.691  22.530   3.651
16359W        W81619   0.017  27.987  12.923
16360W        W81620  18.076  41.771   4.759
16361W        W81621  36.641  19.739   2.379
16362W        W81622  17.541  38.529   3.321
16363W        W81623   2.194   9.287  11.272
16364W        W81624  41.491  32.767  10.718
16365W        W81625  12.209  35.160   1.260
16366W        W81626   3.331  21.160   3.705
16367W        W81627   2.160  33.453   4.979
16368W        W81628  24.619  22.702   0.446
16369W        W81629  36.899  34.410   0.494
16370W        W81630   2.992  40.883   1.016
16371W        W81631  10.554  19.807   1.452
16372W        W81632  33.881  21.203   1.305
16373W        W81633  16.889  13.699   3.520
16374W        W81634  39.319  15.612   2.168
16375W        W81635  37.223  38.635   3.915
16376W        W81636  39.181  31.588   1.676
16377W        W81637  43.035  39.482   4.744
16378W        W81638  25.082   2.848   0.042
16379W        W81639  19.668  23.459   2.661
16380W        W81640  26.618  35.164  13.939
16381W        W81641  31.615  38.998  11.521
16382W        W81642  37.115  31.945   3.134
16383W        W81643   4.004  44.368  12.900
16384W        W81644  35.905  40.473   2.385
16385W        W81645   0.408  25.199   0.850
16386W        W81646   3.784  21.094   1.460
16387W        W81647   0.450  21.439  11.942
16388W        W81648  34.523  11.355   3.679
16389W        W81649  24.618   0.772   3.938
16390W        W81650  28.662  20.987  11.133
16391W        W81651   9.512  22.236  13.937
16392W        W81652  21.354  41.022  13.876
16393W        W81653  27.704  19.653   0.229
16394W        W81654  33.395  27.342   0.324
16395W        W81655  10.484  16.280   2.273
16396W        W81656  38.769   9.610   0.630
16397W        W81657  39.779  38.476  14.500
16398W        W81658  18.485  44.980   3.238
16399W        W81659  13.395  25.958   2.918
16400W        W81660  12.571  12.831  14.931
16401W        W81661  22.800  39.985   4.247
16402W        W81662  21.124  21.957  11.746
16403W        W81663  14.796  12.270  14.878
16404W        W81664   9.150  40.051  13.039
16405W        W81665   5.918  22.605   3.931
16406W        W81666  44.821  22.694  10.861
16407W        W81667   2.875   4.769  12.967
16408W        W81668  33.091  34.475  13.915
16409W        W81669   6.443  17.179   1.388
16410W        W81670  38.060  35.278   4.439
16411W        W81671  22.025  35.007   4.566
16412W        W81672   8.154  22.572  12.395
16413W        W81673  15.621  37.565   4.629
16414W        W81674   9.938  18.189   3.866
16415W        W81675  10.123  36.810   3.310
16416W        W81676  21.286  43.166   0.306
16417W        W81677  42.233  18.346   3.889
16418W        W81678  10.305  13.250   0.445
16419W        W81679  28.766  18.772  14.333
16420W        W81680  41.147  16.859   1.623
16421W        W81681   2.206  29.163   1.226
16422W        W81682  16.586  21.664   3.650
16423W        W81683   3.693  30.525   4.223
16424W        W81684  15.154  30.565  11.617
16425W        W81685  35.021  38.064  13.410
16426W        W81686  24.784  17.650  11.610
16427W        W81687  20.083  28.037  14.741
16428W        W81688  36.489  16.038  11.438
16429W        W81689  42.595  42.420   3.375
16430W        W81690  30.408  44.952   0.907
16431W        W81691   2.894  36.095  13.733
16432W        W81692   3.268  41.297  13.870
16433W        W81693  21.237   0.332   1.695
16434W        W81694  11.203   1.676   3.657
16435W        W81695  19.164  38.537   0.846
16436W        W81696   8.171   2.338  14.673
16437W        W81697  35.644   2.808  13.027
16438W        W81698   8.474  17.763  11.525
16439W        W81699  23.764   4.629   1.306
16440W        W81700   1.038  36.103  11.444
16441W        W81701  24.728  31.871   1.649
16442W        W81702  28.948   1.070  12.720
16443W        W81703  24.896  23.570   0.837
16444W        W81704  25.750   6.646  10.731
16445W        W81705  32.734  17.059  12.383
16446W        W81706  39.475  18.489  14.074
16447W        W81707  43.349  35.957   4.525
16448W        W81708  39.097   2.523  10.738
16449W        W81709  34.294  44.736  11.722
16450W        W81710  36.065  13.678  14.432
16451W        W81711  18.222  23.226   2.873
16452W        W81712   3.663  12.676  10.975
16453W        W81713  33.596  32.565  11.176
16454W        W81714  34.587   9.286   3.625
16455W        W81715  29.128  17.853   4.365
16456W        W81716  34.147  15.443   4.156
16457W        W81717  17.596  21.875   0.422
16458W        W81718   0.838  15.461  12.538
16459W        W81719   1.277  11.110   5.414
16460W        W81720   1.895  17.590   2.688
16461W        W81721  42.857   9.086  10.989
16462W        W81722  19.868  10.582   4.149
16463W        W81723  41.615  29.619  14.664
16464W        W81724  33.677  43.872  14.197
16465W        W81725  37.100  11.132  13.066
16466W        W81726  26.215  36.426  13.798
16467W        W81727   2.691  20.654   3.334
16468W        W81728  19.051  40.566   2.189
16469W        W81729   5.186  14.015   1.713
16470W        W81730   4.642  41.798  13.280
16471W        W81731  29.666  16.698  14.048
16472W        W81732   4.076  23.034   4.552
16473W        W81733  27.043   4.006   3.740
16474W        W81734   1.073  41.055  14.881
16475W        W81735   6.372  11.996   4.229
16476W        W81736  22.874  17.594  13.079
16477W        W81737  31.443  37.199   0.288
16478W        W81738   8.350  19.069  11.531
16479W        W81739   8.889   3.246  12.195
16480W        W81740  20.084  34.404   3.367
16481W        W81741   4.884  41.295   4.098
16482W        W81742   6.314  39.025  11.698
16483W        W81743   9.704  25.214   1.740
16484W        W81744   1.797   9.584  12.418
16485W        W81745   5.939  43.906  10.757
16486W        W81746   8.286  41.399  13.014
16487W        W81747  38.474  43.488  12.499
16488W        W81748  42.423  41.050  10.758
16489W        W81749  24.608  28.710  14.493
16490W        W81750  32.991  21.573   4.778
16491W        W81751  14.024  26.416  13.462
16492W        W81752  36.396  28.710   4.486
16493W        W81753  19.617  42.934  14.312
16494W        W81754  11.066  21.087   1.349
16495W        W81755  34.282  40.306  11.440
16496W        W81756  21.468  17.576  12.507
16497W        W81757  21.782  31.696  11.455
16498W        W81758  18.324   3.530  13.584
16499W        W81759  16.386  24.414   3.788
16500W        W81760   2.384  18.145   2.392
16501W        W81761  10.347  30.021  14.913
16502W        W81762  21.245   8.121  13.171
16503W        W81763   0.156   3.003  13.987
16504W        W81764  33.205  19.740   4.392
16505W        W81765  39.422   3.953   1.294
16506W        W81766   2.163  12.624  13.864
16507W        W81767  28.020  29.250  10.669
16508W        W81768  24.192   6.981   4.095
16509W        W81769  31.053  14.890   1.786
16510W        W81770  20.429  31.636  12.081
16511W        W81771   0.396   1.979  12.942
16512W        W81772  12.010  14.773   2.757
16513W        W81773   7.831  39.248  13.614
16514W        W81774  17.501   4.295  11.447
16515W        W81775  18.050  25.111   1.438
16516W        W81776  26.399  34.493   0.957
16517W        W81777   7.701   8.273   0.431
16518W        W81778  28.227  29.192  13.966
16519W        W81779  41.051   1.435   2.818
16520W        W81780  16.510  27.705  13.791
16521W        W81781  33.483  24.887   4.674
16522W        W81782   8.524  22.649   1.893
16523W        W81783  15.428   9.700  10.232
16524W        W81784  38.136  18.309   0.742
16525W        W81785  32.939  16.198  12.392
16526W        W81786  15.991  34.240  11.569
16527W        W81787  21.520  14.650   3.482
16528W        W81788  30.175  29.862  13.946
16529W        W81789  40.506  13.841   2.231
16530W        W81790  39.273  37.781   0.834
16531W        W81791  13.348   6.716   1.732
16532W        W81792   4.511  41.570   0.643
16533W        W81793  27.984   8.174  12.745
16534W        W81794  23.834   1.337   1.826
16535W        W81795  22.921  18.220  14.351
16536W        W81796   7.311  36.176  14.428
16537W        W81797  27.475  41.191  11.119
16538W        W81798  23.686  13.532  12.892
16539W        W81799  34.269  36.885   1.704
16540W        W81800  28.180  13.015  12.323
16541W        W81801  44.068  40.988   1.388
16542W        W81802  24.932   6.991  12.408
16543W        W81803  29.791  20.520   1.093
16544W        W81804   9.313   3.709   1.137
16545W        W81805   3.743   0.614  14.928
16546W        W81806  34.800   2.360  14.982
16547W        W81807  20.560  31.939  13.065
16548W        W81808  44.629  25.428   5.740
16549W        W81809  39.523   4.774   2.769
16550W        W81810  14.804  35.344  12.924
16551W        W81811  20.461  20.246   1.281
16552W        W81812   9.310  19.004  13.523
16553W        W81813  38.011  31.031  11.685
16554W        W81814  40.525   6.936   3.726
16555W        W81815  33.934   8.711   3.173
16556W        W81816  19.080  41.088   1.246
16557W        W81817  34.835  26.607  12.987
16558W        W81818   5.729   9.160   3.249
16559W        W81819  14.662  19.517   0.293
16560W        W81820  18.533  15.257  10.700
16561W        W81821  26.153  23.940  13.565
16562W        W81822   7.757  36.265   1.210
16563W        W81823  35.520  15.608   0.315
16564W        W81824  35.982  15.102   1.467
16565W        W81825   3.363   6.322   2.326
16566W        W81826  24.161  30.703  13.892
16567W        W81827  24.253  11.249   2.198
16568W        W81828   5.133  29.603  14.461
16569W        W81829  18.176   4.499   3.044
16570W        W81830  34.939  14.206   4.614
16571W        W81831   8.724  30.411   2.877
16572W        W81832  28.473  15.533  10.994
16573W        W81833  19.178  10.395  10.647
16574W        W81834  40.048  29.659   4.898
16575W        W81835  20.984  10.800   3.650
16576W        W81836  14.125  28.508  13.321
16577W        W81837   6.334  17.130   4.838
16578W        W81838  36.738  29.406  10.398
16579W        W81839  21.005  38.052   4.609
16580W        W81840  24.130   9.282   0.670
16581W        W81841  19.645  40.485   4.373
16582W        W81842   7.240  30.280  13.401
16583W        W81843  19.264   1.721  11.669
16584W        W81844  41.583   0.435   4.047
16585W        W81845  12.605  33.814   4.041
16586W        W81846  35.181  44.940   3.181
16587W        W81847  24.957  18.220  14.363
16588W        W81848   1.885  33.955  14.858
16589W        W81849   0.559  10.925   4.716
16590W        W81850  25.081  33.174   2.491
16591W        W81851  22.073  21.759  13.799
16592W        W81852  39.273  25.609   2.697
16593W        W81853  35.306   2.474   0.884
16594W        W81854  20.290  26.656  11.690
16595W        W81855   5.652  43.936  12.641
16596W        W81856   0.156   9.112  11.079
16597W        W81857  37.785   9.478   4.527
16598W        W81858  14.191   4.580   1.398
16599W        W81859  37.290   1.885   3.576
16600W        W81860  39.692   8.636   0.984
16601W        W81861  24.011  21.773   3.294
16602W        W81862  14.411   9.744   2.923
16603W        W81863  13.434  21.166   2.767
16604W        W81864  30.024  39.033   4.156
16605W        W81865   2.735   3.004   2.520
16606W        W81866  18.786   4.623   2.849
16607W        W81867  33.488  22.777   0.782
16608W        W81868  31.304  36.323   0.653
16609W        W81869  35.709  43.480  12.954
16610W        W81870  16.138   9.472   0.967
16611W        W81871  31.194  30.586  11.290
16612W        W81872  43.737  18.795   4.562
16613W        W81873  19.073  36.572   4.548
16614W        W81874  21.292  42.294   3.310
16615W        W81875  41.994  37.344   4.683
16616W        W81876  27.869  31.185   1.786
16617W        W81877  40.503   7.111  12.140
16618W        W81878   5.330   3.080   0.243
16619W        W81879  26.482  38.420  12.468
16620W        W81880   9.260   8.979   4.704
16621W        W81881   8.298  36.870   2.843
16622W        W81882  14.674  34.468   4.401
16623W        W81883  43.234  15.702  11.604
16624W        W81884  38.821  44.961   1.723
16625W        W81885  21.264  15.572  11.152
16626W        W81886  32.394  30.494  12.381
16627W        W81887  42.533  10.724  13.634
16628W        W81888  44.668  29.707  14.455
16629W        W81889  21.728  28.638   1.681
16630W        W81890  36.603   8.594   0.386
16631W        W81891  42.792   3.822   2.728
16632W        W81892  20.355  43.480   3.299
16633W        W81893  20.902  28.129   0.824
16634W        W81894  31.760  23.528   9.586
16635W        W81895  14.793  28.620  11.699
16636W        W81896   5.936  17.320   4.034
16637W        W81897  38.429  28.566   3.941
16638W        W81898  21.825   1.362  12.206
16639W        W81899  10.186  24.352  13.081
16640W        W81900  10.628  20.747  10.363
16641W        W81901   5.838  29.059   3.243
16642W        W81902  32.984  29.087   3.301
16643W        W81903  26.566   9.431   2.782
16644W        W81904  31.623   7.134   3.135
16645W        W81905   6.740  15.765  12.556
16646W        W81906  17.164  14.532   4.584
16647W        W81907  10.166  20.223   3.410
16648W        W81908  37.886  14.256   4.639
16649W        W81909  31.083  17.647  13.452
16650W        W81910   7.000  43.387   2.764
16651W        W81911  13.480  33.935   2.196
16652W        W81912  37.897  31.603  12.031
16653W        W81913  20.140  17.681   3.535
16654W        W81914   0.307   7.142  12.060
16655W        W81915  38.312  42.208  10.606
16656W        W81916  31.991  21.204   3.556
16657W        W81917  18.125  40.393   4.833
16658W        W81918   1.936  35.878   4.419
16659W        W81919  29.000  21.540  13.172
16660W        W81920  33.089  22.176   3.463
16661W        W81921  12.902   1.844  14.874
16662W        W81922   6.436  36.073   0.745
16663W        W81923  33.098  30.866  12.775
16664W        W81924  24.944  40.496  11.845
16665W        W81925  11.368  27.751   3.398
16666W        W81926  19.313  35.206   4.374
16667W        W81927  28.441   5.601  12.949
16668W        W81928  43.769   5.007   1.780
16669W        W81929  26.697  25.897   1.442
16670W        W81930  26.508  32.526  11.860
16671W        W81931  39.954  35.786   1.870
16672W        W81932  11.325  12.770   3.829
16673W        W81933  31.644  29.605   1.522
16674W        W81934  21.081  28.594   0.996
16675W        W81935  15.112  21.155   4.891
16676W        W81936  34.090  12.571   4.714
16677W        W81937  17.198  11.254   3.381
16678W        W81938  33.473   5.845   4.198
16679W        W81939  14.123  14.144  14.998
16680W        W81940   5.036   4.125   4.041
16681W        W81941  40.895   7.134   1.719
16682W        W81942   4.831  31.497  12.969
16683W        W81943  26.987  33.092   4.385
16684W        W81944   0.744  27.563   0.817
16685W        W81945  40.018   7.864  14.996
16686W        W81946  18.009   4.741   0.354
16687W        W81947  12.128  22.767  11.260
16688W        W81948  30.235  12.683  10.735
16689W        W81949  11.818  36.491   4.401
16690W        W81950  15.804  16.147  13.749
16691W        W81951  32.499  19.689   5.027
16692W        W81952   7.279  37.545   2.391
16693W        W81953  43.392  13.967   4.728
16694W        W81954  31.948  15.506   3.470
16695W        W81955   0.353  18.214  13.408
16696W        W81956   9.433  25.035   3.610
16697W        W81957   8.076   8.342  12.400
16698W        W81958  27.319  19.648  13.380
16699W        W81959  11.477  26.962   2.697
16700W        W81960   9.380  38.711   1.356
16701W        W81961  26.625   8.966  12.079
16702W        W81962   3.328  11.621   0.665
16703W        W81963  17.564  35.957  12.486
16704W        W81964  25.195  39.475   1.197
16705W        W81965  36.888   9.893   0.578
16706W        W81966  43.331  37.623   3.325
16707W        W81967  42.355   4.460  11.008
16708W        W81968  24.739  17.217   2.328
16709W        W81969  19.611  32.139  13.015
16710W        W81970  25.189  20.524  14.403
16711W        W81971   9.132  14.321  14.506
16712W        W81972  16.749  30.354   2.334
16713W        W81973  43.367  41.020  12.308
16714W        W81974  16.674  32.155  11.994
16715W        W81975  14.691   3.297   3.988
16716W        W81976   0.594   1.248   1.999
16717W        W81977  33.655  34.906  10.919
16718W        W81978  12.508  35.677  13.810
16719W        W81979  22.289  32.951   4.518
16720W        W81980  14.891  20.360   0.909
16721W        W81981   9.831  35.004  12.741
16722W        W81982   4.905  23.165  11.066
16723W        W81983  29.508  16.658  10.692
16724W        W81984  10.933  20.038   2.418
16725W        W81985  26.259  13.321  11.075
16726W        W81986  38.488  12.039  13.481
16727W        W81987  27.124  40.569  12.929
16728W        W81988  39.231  10.860   2.672
16729W        W81989  16.531  23.975   2.372
16730W        W81990  24.288   0.612   0.442
16731W        W81991   8.578  43.182  11.583
16732W        W81992  41.384  15.196  10.118
16733W        W81993  15.851  24.055   0.004
16734W        W81994  42.531   0.928   0.334
16735W        W81995  13.074  31.951  11.099
16736W        W81996  28.989   1.528  11.090
16737W        W81997  13.865  39.637  12.349
16738W        W81998  24.793  28.255   2.801
16739W        W81999  22.942   9.398   1.462
16740W        W82000   5.753   2.891   2.385
16741W        W82001  27.458  33.292  14.230
16742W        W82002  27.975  38.614  11.279
16743W        W82003  25.497  16.024  10.045
16744W        W82004  11.884  40.088  11.958
16745W        W82005  27.699  36.573   2.029
16746W        W82006  34.896   3.962   4.437
16747W        W82007  17.455   8.742   4.040
16748W        W82008  41.432  34.412  11.738
16749W        W82009  10.440  31.131   1.030
16750W        W82010  32.979  11.623  12.085
16751W        W82011  20.024  19.148   2.302
16752W        W82012  42.400  13.347  10.556
16753W        W82013  38.925  29.424  14.274
16754W        W82014  43.477  42.811   2.484
16755W        W82015  13.189  43.089  13.832
16756W        W82016  40.458   9.830   4.491
16757W        W82017  41.348  44.836  12.818
16758W        W82018  39.792  40.445   0.697
16759W        W82019  26.675  35.846   0.403
16760W        W82020   3.735  30.166  14.599
16761W        W82021  30.678  42.779  11.939
16762W        W82022  28.917  43.908   3.835
16763W        W82023  34.616  35.729   2.362
16764W        W82024  43.235   7.718  12.821
16765W        W82025   8.166  34.467   0.716
16766W        W82026  38.791  10.449   4.299
16767W        W82027   6.427  19.509   4.174
16768W        W82028  36.479  20.403  13.974
16769W        W82029  23.078  28.607  12.894
16770W        W82030  16.485  29.485  13.861
16771W        W82031  23.639  33.843  11.152
16772W        W82032   4.766  13.574   1.313
16773W        W82033  25.628  27.942   2.129
16774W        W82034  12.393  38.042  14.474
16775W        W82035  11.960  44.834   4.175
16776W        W82036  35.684  37.293  14.444
16777W        W82037  12.425  26.119   1.730
16778W        W82038  25.326  29.579   5.376
16779W        W82039  20.427  17.599  11.097
16780W        W82040  38.400  34.877   1.358
16781W        W82041  41.760   4.716   2.646
16782W        W82042   4.828  16.772  11.674
16783W        W82043   2.681  18.807  13.405
16784W        W82044  29.446  15.648   2.333
16785W        W82045   5.831  26.318   5.108
16786W        W82046   3.745   2.826  13.139
16787W        W82047  43.455  17.641  14.052
16788W        W82048  36.545  16.793  11.019
16789W        W82049  36.667  43.062  11.980
16790W        W82050  39.981  28.726  11.156
16791W        W82051  27.366  17.748  14.993
16792W        W82052  18.424   7.723   2.751
16793W        W82053  14.547  30.667  10.684
16794W        W82054  33.658  17.088  12.325
16795W        W82055   2.310  35.890  14.798
16796W        W82056  24.056  22.261   3.419
16797W        W82057   7.936  23.798   0.916
16798W        W82058  40.233  25.469   2.876
16799W        W82059  34.134  35.098   1.978
16800W        W82060  20.110  37.908   1.434
16801W        W82061  39.961  29.112   0.806
16802W        W82062  25.590  30.565   5.053
16803W        W82063  21.257  18.854  14.230
16804W        W82064  32.638  35.792   0.292
16805W        W82065   1.060  41.861  12.023
16806W        W82066  37.896  33.987  10.657
16807W        W82067  12.958  19.329   0.505
16808W        W82068  44.827  28.861   3.530
16809W        W82069  40.048  24.542  12.469
16810W        W82070  38.371  11.088  14.660
16811W        W82071  35.108  26.686   4.089
16812W        W82072   7.221  37.896  14.974
16813W        W82073  43.464   8.787  12.451
16814W        W82074  35.125  13.164   1.635
16815W        W82075  24.244  17.128   9.543
16816W        W82076  12.165  40.810  11.081
16817W        W82077  16.644  40.470  12.411
16818W        W82078  14.535   5.418  14.326
16819W        W82079  11.612   8.391  10.669
16820W        W82080  31.072  19.500  11.991
16821W        W82081   8.765  14.059  13.360
16822W        W82082  35.511  22.025  14.440
16823W        W82083   4.243   0.894   3.775
16824W        W82084  22.451   0.453  14.556
16825W        W82085  19.779  24.014  11.092
16826W        W82086  17.547  37.957   1.464
16827W        W82087  18.525   5.417  12.493
16828W        W82088  35.637   5.509   3.231
16829W        W82089  27.448  34.867  13.836
16830W        W82090  42.059  19.260   3.817
16831W        W82091  34.508  33.629   0.745
16832W        W82092  24.109  28.558   3.405
16833W        W82093  29.985  23.084   3.073
16834W        W82094   8.084  14.960   1.792
16835W        W82095  38.132  15.686   0.889
16836W        W82096  23.462  13.649  13.371
16837W        W82097  33.561  24.205   3.180
16838W        W82098   7.440  31.481  11.006
16839W        W82099  28.276  23.738  11.528
16840W        W82100  29.249  39.719   4.996
16841W        W82101  11.675   3.932  14.876
16842W        W82102  42.864  32.155   9.963
16843W        W82103  23.607  20.970   1.294
16844W        W82104  21.009  35.473   9.886
16845W        W82105  22.591  40.971  13.500
16846W        W82106  27.941  35.134   3.212
16847W        W82107  23.630  41.396  14.257
16848W        W82108  17.979   6.992  13.316
16849W        W82109   5.857  26.436   1.347
16850W        W82110  41.458   8.607  11.991
16851W        W82111  17.152   6.326   0.124
16852W        W82112  17.059  31.147   3.186
16853W        W82113  20.237  18.205  12.234
16854W        W82114  13.794  10.560   2.756
16855W        W82115  29.099  30.639  12.848
16856W        W82116  29.588  28.371   2.974
16857W        W82117  14.558  38.064  13.745
16858W        W82118  13.720  18.035  11.528
16859W        W82119   8.370  20.741   0.800
16860W        W82120  25.703  44.355  13.823
16861W        W82121  14.354   8.107  14.957
16862W        W82122   1.488  37.924  11.930
16863W        W82123  39.029  30.831  13.487
16864W        W82124  12.073   8.862   3.126
16865W        W82125  38.531  19.564  11.647
16866W        W82126  34.852  26.250   0.779
16867W        W82127  22.722  25.658  12.811
16868W        W82128  41.729  40.335  14.779
16869W        W82129   5.961   2.433  10.331
16870W        W82130  28.152  28.390  14.515
16871W        W82131  24.142  32.059  14.576
16872W        W82132  39.808  28.467  11.577
16873W        W82133   6.137  40.547   2.877
16874W        W82134  16.631   5.751  11.416
16875W        W82135   5.117   0.696   1.253
16876W        W82136  44.921  18.549   3.639
16877W        W82137  17.052  17.972  13.438
16878W        W82138  23.605  44.300  12.179
16879W        W82139  24.015  32.644  13.442
16880W        W82140  11.303  39.265   0.253
16881W        W82141  10.886   7.915   3.177
16882W        W82142  22.902  40.560  11.978
16883W        W82143  30.910  10.127   1.729
16884W        W82144  28.905  29.589  10.857
16885W        W82145  38.098  10.021   0.310
16886W        W82146  36.177  14.388  11.871
16887W        W82147  17.213  26.229  10.742
16888W        W82148   0.451   9.143  12.144
16889W        W82149  39.391  37.623   3.602
16890W        W82150  11.602  22.627   4.130
16891W        W82151  39.257  19.299  14.491
16892W        W82152  43.847   1.247  13.118
16893W        W82153  42.871  38.800  12.391
16894W        W82154  28.440  22.204   2.582
16895W        W82155  11.590  35.383   2.197
16896W        W82156  31.042  38.483   2.834
16897W        W82157  26.285   2.798  12.123
16898W        W82158   6.868   4.234  12.107
16899W        W82159   2.526  37.478   1.941
16900W        W82160  23.751  34.116  11.566
16901W        W82161  31.653   7.190   0.737
16902W        W82162  22.012  32.482   1.807
16903W        W82163  24.947   9.260   2.610
16904W        W82164  13.322  23.670   2.693
16905W        W82165  39.231   0.752   2.664
16906W        W82166  35.542  22.363   4.111
16907W        W82167   2.556  16.142   2.720
16908W        W82168   3.213  16.521  11.091
16909W        W82169  30.695  12.509   2.892
16910W        W82170  15.672   5.024   1.238
16911W        W82171  35.364   4.833  14.300
16912W        W82172  42.989  19.036  13.945
16913W        W82173   5.842  26.520  11.652
16914W        W82174  18.351  30.019  12.472
16915W        W82175  15.600  36.296   4.472
16916W        W82176  29.965   9.429   1.356
16917W        W82177  32.606  41.954   4.603
16918W        W82178  17.904  32.324   4.203
16919W        W82179  27.401   0.049   3.651
16920W        W82180   1.005   9.178  13.485
16921W        W82181  37.429   2.975  12.966
16922W        W82182  37.381   3.300  11.524
16923W        W82183  20.935  34.881  11.124
16924W        W82184  37.889  37.761  11.611
16925W        W82185  33.923  11.788  11.233
16926W        W82186   1.183   5.247  11.668
16927W        W82187  41.301  37.039   3.316
16928W        W82188  33.947  13.587   1.697
16929W        W82189  27.538  43.914   0.564
16930W        W82190  44.357   4.207  11.759
16931W        W82191  26.135  40.023  11.968
16932W        W82192  22.029  43.020   1.843
16933W        W82193   6.271   2.638  12.058
16934W        W82194   4.817   9.778   1.515
16935W        W82195  38.498  20.418   3.285
16936W        W82196  44.237  26.572  14.413
16937W        W82197  26.468  31.061   4.889
16938W        W82198  11.682  42.474   4.566
16939W        W82199  35.643  20.187   4.320
16940W        W82200  19.045   6.422  12.101
16941W        W82201  12.317  24.218  14.033
16942W        W82202  15.119  27.151   4.673
16943W        W82203  12.636  20.594   1.721
16944W        W82204  42.708  29.161   0.320
16945W        W82205  23.961   8.365   3.695
16946W        W82206  32.741  25.384  12.454
16947W        W82207   5.373  24.255  11.539
16948W        W82208  15.552   7.279   0.315
16949W        W82209  26.832   8.078   9.570
16950W        W82210  29.480  36.764  13.789
16951W        W82211   7.408   7.669  11.023
16952W        W82212  33.407  39.132  14.230
16953W        W82213  10.804   8.647   2.213
16954W        W82214  29.112   4.255   0.639
16955W        W82215  33.539  27.645   2.718
16956W        W82216  39.900  16.929   1.311
16957W        W82217  22.506  13.858  11.819
16958W        W82218   6.894  10.860  13.494
16959W        W82219   5.289  28.248   0.420
16960W        W82220  38.930  21.091   4.595
16961W        W82221  43.477  22.626   3.360
16962W        W82222  29.261  33.958   0.795
16963W        W82223   3.663   2.324  12.632
16964W        W82224  24.732  14.414  12.970
16965W        W82225  13.425  44.968  13.766
16966W        W82226  37.339  22.430  11.636
16967W        W82227  31.815  36.457  12.584
16968W        W82228   4.336   0.337  13.100
16969W        W82229   5.334  12.126   1.005
16970W        W82230  17.413  21.151  10.824
16971W        W82231   2.319  38.352   4.551
16972W        W82232  29.951   4.792   1.286
16973W        W82233  40.738  13.131  13.063
16974W        W82234  16.419  14.283  11.303
16975W        W82235  10.514   6.895  12.508
16976W        W82236  30.030  23.514   0.414
16977W        W82237  17.800  34.008   0.871
16978W        W82238  41.507  19.117   0.971
16979W        W82239  31.639  28.734   1.206
16980W        W82240  14.587  25.433   0.795
16981W        W82241   3.720  33.377   1.290
16982W        W82242  10.801  22.997   4.674
16983W        W82243   4.862  16.519   3.767
16984W        W82244  35.946  44.215   1.971
16985W        W82245   5.933  22.897  11.706
16986W        W82246   0.559  44.699  13.466
16987W        W82247  12.166  31.464   3.346
16988W        W82248   2.309  11.859   4.976
16989W        W82249   4.872  43.016  10.877
16990W        W82250  32.817  18.034   0.332
16991W        W82251  14.092  20.443   3.695
16992W        W82252   6.160  13.416   3.204
16993W        W82253  10.275  35.980   1.809
16994W        W82254   4.901   4.413  10.328
16995W        W82255   1.386  12.815  11.610
16996W        W82256  41.022  37.300   2.618
16997W        W82257  11.097   8.747   3.114
16998W        W82258  25.533  32.711  11.136
16999W        W82259   5.360  27.170   3.224
17000W        W82260  40.848  37.792   2.816
17001W        W82261   6.257  18.784  11.666
17002W        W82262  33.490  41.092  11.351
17003W        W82263  27.683  12.283  10.970
17004W        W82264   0.324  44.699   1.194
17005W        W82265  22.479  21.589   0.894
17006W        W82266  28.519   6.336   1.703
17007W        W82267   1.414  13.032   2.374
17008W        W82268  41.971  42.658  11.623
17009W        W82269  44.815  29.385   0.470
17010W        W82270  27.685  23.734   1.765
17011W        W82271  29.561  24.263   0.815
17012W        W82272  43.097  42.291  10.658
17013W        W82273   2.003  17.073  13.499
17014W        W82274  26.154  36.642   4.061
17015W        W82275  24.076  17.797  12.592
17016W        W82276  11.874  25.989  12.625
17017W        W82277   0.290   4.792  11.780
17018W        W82278  16.032  39.004   2.421
17019W        W82279  15.770   5.358  13.000
17020W        W82280  30.751  33.832   3.166
17021W        W82281  16.078   0.924   2.390
17022W        W82282  11.040   9.596  13.216
17023W        W82283  43.965  44.450  14.354
17024W        W82284  18.572   1.319   4.977
17025W        W82285   6.887  32.924   0.415
17026W        W82286  14.084  13.231  14.995
17027W        W82287   0.275  35.390   3.755
17028W        W82288   9.862  31.907   0.842
17029W        W82289  36.921   4.214  12.905
17030W        W82290  35.811  30.133   2.290
17031W        W82291  14.193  12.592  13.748
17032W        W82292  43.874  31.810   4.217
17033W        W82293   3.843  29.750  12.943
17034W        W82294  35.574  11.036   0.221
17035W        W82295  39.992  29.807   0.853
17036W        W82296   1.680  25.805  14.039
17037W        W82297   0.823  34.990  14.929
17038W        W82298   4.397  35.040  13.051
17039W        W82299  32.340  41.660  12.052
17040W        W82300  37.473  12.759   1.899
17041W        W82301   7.721  43.133  14.688
17042W        W82302  36.426  15.714  12.226
17043W        W82303   0.796  14.780   3.320
17044W        W82304   7.109  37.019  10.697
17045W        W82305   8.098   3.748  13.956
17046W        W82306   4.032  39.834   3.040
17047W        W82307  28.405  39.127  11.901
17048W        W82308   1.301  16.651   0.294
17049W        W82309  12.859  23.511  11.166
17050W        W82310  36.451   5.768   4.574
17051W        W82311  25.138  40.080   4.351
17052W        W82312   3.681  18.690   3.668
17053W        W82313  36.951   5.870  10.375
17054W        W82314  15.494  36.123   2.349
17055W        W82315   9.272  18.898   4.334
17056W        W82316  19.883  21.435   4.110
17057W        W82317  44.075  39.529   1.687
17058W        W82318  20.667  41.377   0.439
17059W        W82319  15.576  17.285   4.449
17060W        W82320   1.257  43.417  13.950
17061W        W82321  24.630  26.977   3.311
17062W        W82322  12.245  20.282   2.190
17063W        W82323  32.957  19.625   0.675
17064W        W82324  27.934  10.558   4.213
17065W        W82325  11.857  12.703   4.536
17066W        W82326   3.898   4.238   1.709
17067W        W82327  23.936  42.070  14.511
17068W        W82328  42.373  26.220   4.867
17069W        W82329   0.055  27.533   2.720
17070W        W82330  16.689  38.711   1.266
17071W        W82331  39.847  24.039  11.167
17072W        W82332  31.182  34.069  13.085
17073W        W82333   1.358  26.146  13.797
17074W        W82334  17.222  22.239  11.906
17075W        W82335  13.838  30.499  12.252
17076W        W82336  18.800  34.513   0.305
17077W        W82337  42.382   5.288  13.838
17078W        W82338  40.767  37.319  12.951
17079W        W82339  21.370  15.955   2.259
17080W        W82340  19.238  24.529  10.622
17081W        W82341   2.334  38.124   3.233
17082W        W82342  20.362  24.987  13.006
17083W        W82343   1.764  24.636   0.783
17084W        W82344   7.608   3.841  14.045
17085W        W82345  32.621  19.675  13.384
17086W        W82346  33.575  27.660  11.665
17087W        W82347   8.912   0.959   3.311
17088W        W82348  38.377  33.628  14.500
17089W        W82349  23.029  14.207   1.215
17090W        W82350   9.698  21.199  10.656
17091W        W82351  11.165   9.249  12.422
17092W        W82352  24.683   1.193   3.684
17093W        W82353  34.147  20.046  10.793
17094W        W82354  44.048   4.508  14.329
17095W        W82355   4.801  24.612  14.486
17096W        W82356  28.249  30.831  11.557
17097W        W82357  33.513   5.205  12.084
17098W        W82358  16.177   5.315   4.199
17099W        W82359   9.108   9.874   1.303
17100W        W82360   0.272  33.025   1.741
17101W        W82361  34.429  42.735  11.546
17102W        W82362   3.646  34.917  11.395
17103W        W82363  16.797  33.681   0.530
17104W        W82364   2.775   2.862  13.029
17105W        W82365  41.254  29.675   4.265
17106W        W82366  24.699  38.295   4.098
17107W        W82367  39.347  41.525   4.706
17108W        W82368  28.481  26.767   1.704
17109W        W82369   7.848  17.067  11.071
17110W        W82370   1.835   1.333  11.473
17111W        W82371  15.160  40.652  12.600
17112W        W82372   1.947  32.515  13.775
17113W        W82373   0.870  15.037  14.958
17114W        W82374  35.927  29.086  11.235
17115W        W82375   2.973  37.286  12.487
17116W        W82376  39.574  14.680  12.485
17117W        W82377   4.746  37.008   0.981
17118W        W82378  18.833   1.502  11.841
17119W        W82379  29.418  22.030  11.628
17120W        W82380  39.302   1.947  14.894
17121W        W82381   1.984  15.578   2.739
17122W        W82382  24.120  13.309  11.114
17123W        W82383  21.335  32.200  10.119
17124W        W82384   7.762  35.922  11.600
17125W        W82385  25.500  19.929  13.378
17126W        W82386  37.074  22.033   0.293
17127W        W82387  14.539  43.981   1.634
17128W        W82388   6.973  31.738   1.450
17129W        W82389   6.327  21.134   3.355
17130W        W82390  37.893  31.657   3.388
17131W        W82391  16.872  12.171  12.031
17132W        W82392  14.179  11.953  14.391
17133W        W82393   4.592  33.593  12.197
17134W        W82394  20.602  23.265   0.025
17135W        W82395  41.784  13.366  14.994
17136W        W82396  20.602  20.530   2.720
17137W        W82397  12.713  38.071   3.038
17138W        W82398  44.524  18.303   2.815
17139W        W82399  12.743  24.960   4.569
17140W        W82400  27.384   4.333   2.930
17141W        W82401  21.633  42.278  13.402
17142W        W82402   6.230  39.075  10.381
17143W        W82403  44.127   7.304  11.345
17144W        W82404  35.502  16.360   1.282
17145W        W82405  44.395  41.230  11.151
17146W        W82406  38.349   9.907   3.852
17147W        W82407  29.450  16.083  11.463
17148W        W82408  15.313  35.876  10.781
17149W        W82409  28.748  24.191  12.044
17150W        W82410   6.111  41.231  12.082
17151W        W82411  39.310  16.623  13.807
17152W        W82412   3.777   6.557  12.786
17153W        W82413   6.249  16.308  13.988
17154W        W82414   3.721  21.504   1.926
17155W        W82415  34.523  20.602   3.838
17156W        W82416   2.942  13.189  13.935
17157W        W82417  22.500   4.317  14.990
17158W        W82418  37.193  36.919  13.104
17159W        W82419   3.146  43.814   4.402
17160W        W82420  14.941  33.242   2.777
17161W        W82421   4.458  43.054   4.244
17162W        W82422  43.796  39.381  11.264
17163W        W82423  37.988   2.227   0.953
17164W        W82424  33.827   6.447  11.983
17165W        W82425  26.920  35.679   5.105
17166W        W82426  32.813  43.937   4.029
17167W        W82427  44.109  40.040   0.970
17168W        W82428  13.305   4.256  14.975
17169W        W82429  16.123  10.324  10.134
17170W        W82430  40.741  24.118   2.674
17171W        W82431  32.729  24.149  10.371
17172W        W82432  40.353   2.833  14.351
17173W        W82433   8.518   2.953   1.857
17174W        W82434  36.029   3.148  14.824
17175W        W82435  31.364   6.341   0.644
17176W        W82436  42.869  16.838  12.368
17177W        W82437  21.303  17.819   3.707
17178W        W82438  40.273   0.997   4.520
17179W        W82439  44.519  17.775   1.413
17180W        W82440  29.893  26.061   3.259
17181W        W82441  37.364  19.108   3.321
17182W        W82442   0.778  11.734   0.626
17183W        W82443  44.330  40.938   3.388
17184W        W82444  16.448  37.657   3.286
17185W        W82445  27.271   8.031  14.801
17186W        W82446  11.878  41.849   0.279
17187W        W82447   1.155  17.650   2.084
17188W        W82448  18.110  34.014   2.481
17189W        W82449  25.779  25.416  14.263
17190W        W82450  13.846  20.178  13.179
17191W        W82451  37.472  24.726  13.402
17192W        W82452  19.026  25.744  12.153
17193W        W82453   2.562  40.790  12.999
17194W        W82454   0.813   6.746   4.554
17195W        W82455  41.558  22.359  12.060
17196W        W82456   9.404  40.432   0.826
17197W        W82457   3.890   3.304   4.589
17198W        W82458   9.335  26.282   4.113
17199W        W82459  44.394  16.192  14.380
17200W        W82460   6.376  30.854  11.574
17201W        W82461  18.673  33.141   3.847
17202W        W82462  29.925   3.485  12.145
17203W        W82463  17.711  42.764  11.549
17204W        W82464  38.114   0.201   3.220
17205W        W82465  16.897   4.372  13.389
17206W        W82466   4.196  23.825  12.570
17207W        W82467  43.620  42.252  10.638
17208W        W82468  31.192  32.674  11.126
17209W        W82469   4.107  34.927   3.755
17210W        W82470   5.635  39.844  14.336
17211W        W82471   9.398  36.187  14.920
17212W        W82472  11.724  21.763   0.827
17213W        W82473  23.971  43.061  11.685
17214W        W82474  28.220   5.400   0.186
17215W        W82475  37.366  35.820   0.929
17216W        W82476  16.266  10.155  10.606
17217W        W82477  24.655  27.963   4.555
17218W        W82478  36.549  25.419  10.832
17219W        W82479  13.290   0.348   3.506
17220W        W82480  11.189  20.106  14.910
17221W        W82481  29.056  37.120  14.134
17222W        W82482  26.752  43.317  11.382
17223W        W82483  33.576  11.883   0.931
17224W        W82484  41.571   3.836   4.667
17225W        W82485  30.130   4.964   2.259
17226W        W82486  12.982  19.127  10.941
17227W        W82487  44.529  37.435  14.339
17228W        W82488  32.589   4.603   1.553
17229W        W82489  20.754  15.387  13.867
17230W        W82490  27.690  25.395  11.602
17231W        W82491  20.276   7.186  13.813
17232W        W82492  12.539  19.270   2.330
17233W        W82493   2.546  39.866   1.925
17234W        W82494  14.985  20.937  10.685
17235W        W82495  33.850   0.866   1.479
17236W        W82496   6.871  36.263   1.298
17237W        W82497  10.259   0.498   3.026
17238W        W82498  34.260  30.082  13.899
17239W        W82499   0.110  27.001   0.890
17240W        W82500  24.667  42.438  12.995
17241W        W82501   8.288  34.100  13.958
17242W        W82502  29.154  12.787  14.206
17243W        W82503  26.650  43.924   3.380
17244W        W82504  13.034  23.219   1.020
17245W        W82505  30.547   2.712   1.147
17246W        W82506  35.317  13.133  12.649
17247W        W82507  18.441  14.378  11.761
17248W        W82508  18.178  20.687  11.702
17249W        W82509   4.189   2.385  13.503
17250W        W82510  17.374  21.592   2.217
17251W        W82511   8.882  26.781  12.432
17252W        W82512  13.216  10.818   3.847
17253W        W82513   5.332  20.563   0.856
17254W        W82514  30.970  19.664   2.236
17255W        W82515  13.204   3.926  12.786
17256W        W82516  12.333  44.316  11.207
17257W        W82517  30.722  28.354  12.979
17258W        W82518  23.538   8.975   2.326
17259W        W82519   1.948  35.673   1.531
17260W        W82520   0.752  35.359  14.437
17261W        W82521  41.505   1.726  13.453
17262W        W82522   1.899  25.983   3.210
17263W        W82523  22.670  17.680  10.201
17264W        W82524  30.909  12.186   0.736
17265W        W82525   9.804  31.893   2.343
17266W        W82526  11.305  44.262   2.670
17267W        W82527   2.330  16.954  11.141
17268W        W82528  26.208   9.500   1.266
17269W        W82529  25.716  15.686   1.841
17270W        W82530  25.975  22.416  13.222
17271W        W82531  38.411  15.154   3.326
17272W        W82532   9.691  28.898  13.703
17273W        W82533  36.608  23.683   2.692
17274W        W82534   0.376   3.268   3.246
17275W        W82535  38.129  42.746  12.971
17276W        W82536  40.389  14.114   1.798
17277W        W82537   7.257  39.278   0.783
17278W        W82538  24.008  24.046   2.596
17279W        W82539  33.540   1.389   4.830
17280W        W82540  12.144  25.009   0.897
17281W        W82541   3.360  18.290   3.834
17282W        W82542   3.941  19.990   0.715
17283W        W82543   6.641  17.265  13.971
17284W        W82544  14.832  37.359  10.728
17285W        W82545  36.439  41.451  14.449
17286W        W82546  24.692  30.984   2.183
17287W        W82547  38.001  15.649   4.194
17288W        W82548  33.184   3.026  11.048
17289W        W82549  36.354  17.194  14.531
17290W        W82550  39.730   3.844  14.323
17291W        W82551  40.401  43.573  12.585
17292W        W82552  37.608   5.371   4.803
17293W        W82553  22.192  23.320  13.976
17294W        W82554  44.519  30.100   4.274
17295W        W82555  31.987  28.993  12.384
17296W        W82556  36.561  40.295  13.118
17297W        W82557  25.112   1.313   4.953
17298W        W82558  19.248  26.076  13.987
17299W        W82559  30.687  10.117  12.859
17300W        W82560  25.695  20.071   2.111
17301W        W82561  11.245  39.962  12.574
17302W        W82562   7.820  39.163   3.786
17303W        W82563  15.219  36.039   0.991
17304W        W82564   5.874   9.958   1.796
17305W        W82565  42.476  18.804  10.741
17306W        W82566  38.278  16.143  10.978
17307W        W82567  11.728  30.895  10.622
17308W        W82568   5.399  11.816   2.631
17309W        W82569  23.999   7.842  13.761
17310W        W82570  15.128  26.571   4.162
17311W        W82571  39.026  12.807  10.570
17312W        W82572  36.344  28.936  11.551
17313W        W82573   3.949   9.852  10.993
17314W        W82574  26.613  17.017  13.147
17315W        W82575  38.996  20.834   0.215
17316W        W82576   6.477  21.564  14.369
17317W        W82577  35.430  29.144   0.230
17318W        W82578  20.467  23.624   4.222
17319W        W82579  25.969  19.406   0.513
17320W        W82580  27.674  14.267  11.587
17321W        W82581  13.254  12.374   0.038
17322W        W82582  39.368  30.364  13.870
17323W        W82583  36.062  22.329   3.333
17324W        W82584  13.541  28.400  11.126
17325W        W82585   5.370   9.887   2.716
17326W        W82586  37.589   6.457  12.536
17327W        W82587  37.058  11.127   3.351
17328W        W82588  24.920  41.455  11.119
17329W        W82589  42.598  43.488  13.567
17330W        W82590  16.608  13.979  12.416
17331W        W82591  25.333  24.792   5.007
17332W        W82592  11.185   3.283  13.231
17333W        W82593  26.890  18.757   3.111
17334W        W82594  37.742   0.115  13.029
17335W        W82595  20.341  36.757   4.985
17336W        W82596  10.947  37.496  13.040
17337W        W82597  42.778  42.750   4.773
17338W        W82598  28.121   4.294  13.312
17339W        W82599  44.774  29.565  12.382
17340W        W82600  12.972   1.352   3.828
17341W        W82601  38.785  26.372   1.201
17342W        W82602  24.642   8.253   1.069
17343W        W82603  17.013  17.851  13.939
17344W        W82604   6.989  40.858   4.321
17345W        W82605  42.030  13.804  13.895
17346W        W82606  23.046  28.253   0.124
17347W        W82607  17.866   6.070  11.195
17348W        W82608  20.440  21.208   1.177
17349W        W82609  11.741  24.931   3.996
17350W        W82610  24.965  41.345   4.791
17351W        W82611  37.687   8.919  10.030
17352W        W82612  33.953  19.221   4.885
17353W        W82613  32.905  14.130   0.914
17354W        W82614  32.682  23.816  14.808
17355W        W82615  33.929  17.067  11.476
17356W        W82616  38.634  19.073   3.270
17357W        W82617  35.158  18.798  14.769
17358W        W82618  23.803  42.388  14.009
17359W        W82619  38.103   6.522  14.296
17360W        W82620  27.113  14.731  14.043
17361W        W82621  14.689  37.925   4.523
17362W        W82622  10.765  40.407  10.727
17363W        W82623  11.265   4.224   0.380
17364W        W82624  43.989  20.228  14.423
17365W        W82625  14.313  11.075  11.164
17366W        W82626  37.938   9.219   3.565
17367W        W82627   4.333  17.612  12.623
17368W        W82628  44.028  28.615   3.661
17369W        W82629  22.217  14.151   0.660
17370W        W82630  34.413  17.529   0.360
17371W        W82631  28.686  37.182  11.905
17372W        W82632   4.998   7.336  11.185
17373W        W82633  43.353   2.791   0.313
17374W        W82634  13.263  31.995   4.010
17375W        W82635  24.289  34.552   2.949
17376W        W82636  15.239   8.986  12.542
17377W        W82637  35.585  20.489   2.268
17378W        W82638  10.287  28.895  13.538
17379W        W82639  21.051  37.080   5.131
17380W        W82640   8.461  15.928   1.924
17381W        W82641  43.464   7.863  11.517
17382W        W82642  16.750  12.925   4.044
17383W        W82643  25.694  41.445   0.798
17384W        W82644  39.208  37.402  14.930
17385W        W82645   0.478   3.000  12.000
17386W        W82646  24.652  40.519   1.866
17387W        W82647   2.721  34.189   0.931
17388W        W82648  40.322  39.540  11.676
17389W        W82649   6.426   7.774   0.498
17390W        W82650  10.908  18.128  10.751
17391W        W82651   8.813  17.286   3.914
17392W        W82652  27.002  33.926   1.318
17393W        W82653   6.758  27.252   0.909
17394W        W82654  33.015  14.598  11.557
17395W        W82655  33.596  41.484  11.657
17396W        W82656  34.674   7.514  11.197
17397W        W82657  11.835  44.436   4.490
17398W        W82658  10.032   3.270  10.717
17399W        W82659  38.652  26.936  14.276
17400W        W82660  19.650  41.521  11.413
17401W        W82661  44.253  43.223   1.341
17402W        W82662  13.134  44.853   4.889
17403W        W82663  36.409  22.193  13.993
17404W        W82664  23.720  23.021   0.518
17405W        W82665  14.507  28.816  13.544
17406W        W82666  19.726   3.747   4.686
17407W        W82667  10.848  20.203   4.218
17408W        W82668  39.333  36.856   1.866
17409W        W82669  39.307  15.180  14.806
17410W        W82670   7.569  36.968   3.506
17411W        W82671  24.505  41.617   2.773
17412W        W82672  32.277  40.882   1.536
17413W        W82673  37.147  40.647  14.197
17414W        W82674  14.659  24.429  14.885
17415W        W82675  29.133  38.976   3.657
17416W        W82676   6.980  29.628   1.093
17417W        W82677  33.608   4.208   4.503
17418W        W82678   3.074   4.148   3.310
17419W        W82679  43.023  21.158  13.491
17420W        W82680  42.047  43.424  11.129
17421W        W82681   5.078  12.717   2.251
17422W        W82682  23.298  39.519   1.409
17423W        W82683  34.418   0.222  12.443
17424W        W82684  38.030   4.776   2.486
17425W        W82685   2.555   6.079  10.155
17426W        W82686  23.058  21.682  11.534
17427W        W82687  25.829   4.500  13.013
17428W        W82688  31.880   1.997  11.669
17429W        W82689   6.741  25.029  13.617
17430W        W82690  29.182  43.984   1.437
17431W        W82691  26.440  24.491   0.722
17432W        W82692  36.914   1.209   2.100
17433W        W82693  15.476  20.635   1.372
17434W        W82694  43.307  42.200   4.633
17435W        W82695  21.608  26.963   2.238
17436W        W82696  16.701  10.267  13.466
17437W        W82697  14.433  28.788   2.603
17438W        W82698  40.731  24.497  14.936
17439W        W82699  43.078  15.567  11.132
17440W        W82700  37.415  35.353  12.895
17441W        W82701  36.591  14.721   3.743
17442W        W82702  15.256  11.335   1.884
17443W        W82703   4.365  11.254  12.888
17444W        W82704  13.788  28.203  10.720
17445W        W82705  24.785   8.363   1.593
17446W        W82706   4.942  16.074   1.862
17447W        W82707  24.264  12.170   2.777
17448W        W82708  26.857  40.487   3.282
17449W        W82709  20.091  25.558  13.020
17450W        W82710   4.012  11.897  12.824
17451W        W82711  27.105  33.582   3.211
17452W        W82712   3.406   3.696   2.280
17453W        W82713  31.395  34.434   3.676
17454W        W82714   0.035  32.599  12.436
17455W        W82715  22.582   5.374   1.429
17456W        W82716  37.941   9.003  11.867
17457W        W82717  16.021   7.914   1.682
17458W        W82718  28.585   3.456   2.894
17459W        W82719   4.399   6.281  11.111
17460W        W82720  36.074   9.745  14.541
17461W        W82721   1.879  13.799   2.162
17462W        W82722  17.111  15.623   1.801
17463W        W82723  22.471  27.651   4.124
17464W        W82724  11.226   4.737  14.437
17465W        W82725  34.065  13.272  14.403
17466W        W82726  19.644   5.044  10.021
17467W        W82727  16.252   1.362   0.905
17468W        W82728   3.906  30.538   4.753
17469W        W82729  44.775   0.580   2.287
17470W        W82730   0.711  10.269   3.595
17471W        W82731  17.146  21.713  14.287
17472W        W82732  44.428  20.238   3.823
17473W        W82733  26.469  42.327  11.120
17474W        W82734  34.496  43.787   5.199
17475W        W82735  13.928  35.659   3.285
17476W        W82736  15.602  13.270   2.322
17477W        W82737  17.531   8.277  12.544
17478W        W82738  12.892   0.322   2.701
17479W        W82739  16.887  40.196  10.177
17480W        W82740   1.416  19.788   0.173
17481W        W82741  37.195  17.422   3.270
17482W        W82742   5.744  20.535  13.524
17483W        W82743  13.710  18.620  10.463
17484W        W82744  31.436  13.709   0.829
17485W        W82745  28.964  35.181  11.023
17486W        W82746  29.979   7.319   1.195
17487W        W82747   5.706  25.576  14.728
17488W        W82748  24.436  20.714  13.651
17489W        W82749  37.541   1.060   4.185
17490W        W82750  15.780  24.998  14.524
17491W        W82751  22.084  34.815  14.859
17492W        W82752  10.651  15.157  10.592
17493W        W82753  35.022  39.504   1.782
17494W        W82754  31.469  41.998   1.948
17495W        W82755   7.636  40.056  13.400
17496W        W82756  32.026  12.559  13.057
17497W        W82757  28.067   2.039  12.995
17498W        W82758  31.331  22.080   3.604
17499W        W82759  14.652   6.971  11.056
17500W        W82760  38.027  24.228   4.289
17501W        W82761   5.420  31.572   0.740
17502W        W82762   6.947  21.530   3.813
17503W        W82763  17.157   7.425   0.881
17504W        W82764  21.704  14.109   1.982
17505W        W82765  42.833  24.784  11.447
17506W        W82766  26.142  24.064  14.085
17507W        W82767  15.555  44.598  13.362
17508W        W82768  13.208   8.729  14.838
17509W        W82769   8.412  24.604   0.873
17510W        W82770   0.733   6.193   1.464
17511W        W82771  20.076  43.634  11.604
17512W        W82772  28.403  37.485  12.356
17513W        W82773  28.702  27.885   0.016
17514W        W82774  30.408   0.374  11.652
17515W        W82775  16.232  43.988  11.910
17516W        W82776  15.633  12.635   1.705
17517W        W82777  24.830  13.205   4.880
17518W        W82778  36.948  23.630   4.171
17519W        W82779  22.878  23.209   4.977
17520W        W82780   6.378  12.587  14.402
17521W        W82781  11.372  22.165   0.950
17522W        W82782   9.444  34.027   3.627
17523W        W82783  14.764  19.847   0.916
17524W        W82784   3.491  36.105   0.571
17525W        W82785  25.534  40.574  14.831
17526W        W82786  12.554   8.856   0.903
17527W        W82787   6.810  28.944  14.811
17528W        W82788   1.707  33.096   0.004
17529W        W82789   7.323   6.933   1.697
17530W        W82790   9.759  13.886   3.713
17531W        W82791  36.588  33.216   1.427
17532W        W82792  37.359   6.001  10.667
17533W        W82793  41.244  14.368   3.179
17534W        W82794  40.689  43.017   3.676
17535W        W82795  36.485  37.115   0.481
17536W        W82796  26.491   8.755  11.552
17537W        W82797  20.681  25.537  10.708
17538W        W82798   6.182  28.665  14.542
17539W        W82799   2.969  19.128   4.632
17540W        W82800  11.678  30.717  12.833
17541W        W82801  22.056  27.460  12.645
17542W        W82802   0.335  33.125   0.241
17543W        W82803  28.419   2.332  10.896
17544W        W82804   6.002   3.540  12.756
17545W        W82805  36.655  12.863  13.492
17546W        W82806  34.539  42.501   0.894
17547W        W82807  27.918  26.378   1.333
17548W        W82808  44.921  13.953  12.876
17549W        W82809   8.720  42.040   0.374
17550W        W82810  41.546  29.167   2.209
17551W        W82811   9.411  10.573  12.923
17552W        W82812   4.710  28.229   0.458
17553W        W82813   3.195  22.629   4.969
17554W        W82814  31.976  36.405   2.127
17555W        W82815  11.742  12.300   3.172
17556W        W82816   2.998   9.383  12.854
17557W        W82817  44.243  42.303  13.286
17558W        W82818  32.546   6.668   0.823
17559W        W82819   1.878  17.071   2.582
17560W        W82820  23.484  22.405  10.770
17561W        W82821  19.621   9.653  14.700
17562W        W82822  10.620  39.852  13.833
17563W        W82823   4.909   7.360   2.157
17564W        W82824  12.888  31.431  13.447
17565W        W82825   6.907  17.109   2.259
17566W        W82826  14.856  37.773  11.561
17567W        W82827   6.745  35.684   3.175
17568W        W82828   8.703  32.604   1.159
17569W        W82829   5.146  18.237  10.650
17570W        W82830  15.246  27.704  14.337
17571W        W82831  38.771  22.185   1.761
17572W        W82832  27.929  43.718  13.419
17573W        W82833  37.464  35.219  10.661
17574W        W82834  43.420  36.082  14.797
17575W        W82835  24.049   9.317   1.639
17576W        W82836  26.739  26.080   2.455
17577W        W82837  24.560  29.976  10.746
17578W        W82838  25.142  35.979   1.732
17579W        W82839  16.796   0.039   0.339
17580W        W82840   7.580  26.381   2.364
17581W        W82841  39.954  30.543  12.090
17582W        W82842   9.933  38.697   3.565
17583W        W82843   3.489  18.147  11.654
17584W        W82844   5.805  26.745   4.641
17585W        W82845   5.802   7.762   0.469
17586W        W82846  43.391   7.171  14.482
17587W        W82847  42.396  41.025  13.935
17588W        W82848  33.537  35.279  12.434
17589W        W82849  13.295  14.642   2.410
17590W        W82850  44.764   1.359   2.645
17591W        W82851   8.323  31.114   3.028
17592W        W82852  35.594  19.236   1.883
17593W        W82853  19.746  13.117   0.614
17594W        W82854   3.285   0.014  12.003
17595W        W82855  38.888  37.092   1.983
17596W        W82856  32.898  30.644  14.871
17597W        W82857  16.270  18.561   1.479
17598W        W82858  34.041   4.795   3.240
17599W        W82859  38.395  39.528  11.405
17600W        W82860   9.806  42.843   3.764
17601W        W82861  32.528  22.488   2.328
17602W        W82862  37.679  29.708  11.141
17603W        W82863  30.594  29.386  12.997
17604W        W82864   3.459  37.978  11.604
17605W        W82865  36.867  15.161   0.973
17606W        W82866  32.948   3.351   4.885
17607W        W82867  25.450  27.000   3.669
17608W        W82868   5.714  29.519  11.449
17609W        W82869  42.789  23.370  13.155
17610W        W82870  25.733  34.165   3.790
17611W        W82871  21.684   1.406   1.889
17612W        W82872  24.557  10.273  13.393
17613W        W82873  26.062  16.634   4.551
17614W        W82874  39.303  32.361   0.236
17615W        W82875   4.308  27.082   4.634
17616W        W82876  41.790  30.596   2.107
17617W        W82877  30.688  44.804   0.473
17618W        W82878  11.405   0.582  12.643
17619W        W82879  42.556   6.921  14.352
17620W        W82880  34.021  23.550   1.173
17621W        W82881  31.790   4.263   4.118
17622W        W82882  10.899  15.623  14.886
17623W        W82883  21.190   8.145   4.699
17624W        W82884  22.914  16.435   0.330
17625W        W82885   1.128  36.354  14.509
17626W        W82886  40.824  33.089  11.257
17627W        W82887  32.994  32.222  14.922
17628W        W82888  18.037  30.682   2.644
17629W        W82889  32.524  10.682  10.662
17630W        W82890  26.199   1.736   3.613
17631W        W82891  22.343  12.639  11.533
17632W        W82892   7.705  38.954   1.846
17633W        W82893  43.394   7.629   2.698
17634W        W82894  34.090  12.651   1.472
17635W        W82895  14.235   0.696  11.208
17636W        W82896   4.819  17.086   2.838
17637W        W82897   8.366   6.335  10.858
17638W        W82898  40.499  23.208   3.270
17639W        W82899  43.371  42.824  12.689
17640W        W82900  32.901  40.446   2.237
17641W        W82901   0.945  11.370  14.862
17642W        W82902   3.131  43.210   3.292
17643W        W82903   1.446  35.831  11.560
17644W        W82904  28.623   1.900   4.751
17645W        W82905  27.171  10.588  11.635
17646W        W82906  41.387  32.457  13.921
17647W        W82907   5.197  10.337  13.692
17648W        W82908  36.484   6.991  14.014
17649W        W82909  14.829   8.601  14.410
17650W        W82910  28.685   2.305   4.351
17651W        W82911  34.834  28.923   1.755
17652W        W82912  27.140  37.473  11.531
17653W        W82913  14.726   0.996   0.797
17654W        W82914   4.435   4.768   3.457
17655W        W82915   8.200  24.942   4.772
17656W        W82916  39.993  10.511   0.884
17657W        W82917  42.922  17.266  11.332
17658W        W82918  14.641  19.180  13.621
17659W        W82919  15.287  44.996  12.996
17660W        W82920  17.235  20.681   0.800
17661W        W82921   6.071  42.847   1.375
17662W        W82922  28.825  40.054   0.776
17663W        W82923  44.430  28.847  11.192
17664W        W82924  44.894  10.641   1.384
17665W        W82925  34.612  43.368   1.951
17666W        W82926  20.208  41.741  13.638
17667W        W82927  10.611  31.900   4.154
17668W        W82928  31.867  36.049  14.947
17669W        W82929  23.592  10.746  14.102
17670W        W82930  10.314  35.526  10.673
17671W        W82931  44.074   3.634   1.320
17672W        W82932  18.703  21.728  13.004
17673W        W82933  42.065  36.793  10.852
17674W        W82934  14.680  13.273   0.281
17675W        W82935   6.831  40.841   3.828
17676W        W82936   9.125  10.385   3.843
17677W        W82937  22.043  30.455  13.967
17678W        W82938  23.678  25.184   0.811
17679W        W82939  25.433  33.013  12.870
17680W        W82940   6.896  25.614  10.701
17681W        W82941   4.903  23.123   4.432
17682W        W82942  44.354   0.426  13.972
17683W        W82943  22.896  27.901  14.770
17684W        W82944  43.514  20.355   0.942
17685W        W82945  19.347  41.257   0.809
17686W        W82946  26.921  43.892  14.008
17687W        W82947  17.381  14.995   0.359
17688W        W82948  22.241  19.313  14.401
17689W        W82949  11.632   4.740   3.742
17690W        W82950  10.325  43.718  11.697
17691W        W82951  29.769  33.013   3.765
17692W        W82952   0.727  26.199   2.661
17693W        W82953  18.679  30.898   1.653
17694W        W82954   5.758  24.041   4.150
17695W        W82955  30.975   3.777  13.397
17696W        W82956  42.999  43.920   1.826
17697W        W82957  17.736  20.499   2.868
17698W        W82958  10.970  32.077  14.419
17699W        W82959  40.225   8.683   4.282
17700W        W82960  36.912   6.726  14.734
17701W        W82961  44.498  28.607   3.834
17702W        W82962  24.629  27.723  13.360
17703W        W82963  39.952  25.330   0.458
17704W        W82964  41.200   5.904  11.217
17705W        W82965   1.610  43.527   2.317
17706W        W82966   6.565  29.117   0.484
17707W        W82967  31.273  22.211  12.123
17708W        W82968   1.475  25.094   0.873
17709W        W82969  33.350  34.816  14.236
17710W        W82970  28.607  35.392   1.695
17711W        W82971  33.466  43.424   4.599
17712W        W82972  32.982  44.843   0.976
17713W        W82973  30.187  38.003   1.200
17714W        W82974   6.220  35.321   2.866
17715W        W82975  17.949  33.897  13.223
17716W        W82976  13.364  15.573  14.373
17717W        W82977  17.477  34.065   3.782
17718W        W82978   3.851  41.593   3.743
17719W        W82979  37.588  44.882  10.415
17720W        W82980   0.347   7.906   2.451
17721W        W82981   7.332  12.817  13.383
17722W        W82982  33.885  44.845   4.580
17723W        W82983  25.144   7.404  12.687
17724W        W82984   5.803  36.058  12.316
17725W        W82985   8.737  32.542   3.631
17726W        W82986   2.231  24.162  13.091
17727W        W82987   1.187   6.956  12.590
17728W        W82988  44.019  15.514   0.460
17729W        W82989  25.142  10.561   2.270
17730W        W82990  38.140  41.773   2.831
17731W        W82991  34.568  13.154   0.776
17732W        W82992  37.246  21.975   4.627
17733W        W82993  11.780  42.015   2.316
17734W        W82994  22.429  30.466   4.740
17735W        W82995  13.314  37.580  14.434
17736W        W82996  38.151  41.034  11.178
17737W        W82997  37.101  34.964   3.043
17738W        W82998  44.663  13.611  12.590
17739W        W82999  21.843  11.625   3.377
17740W        W83000  24.082  15.964  10.887
17741W        W83001  20.271   5.203  10.679
17742W        W83002  33.629  26.997   2.183
17743W        W83003   3.489  31.709  11.452
17744W        W83004  24.617  22.232  13.010
17745W        W83005   9.771  12.161  11.619
17746W        W83006   6.199  27.715   3.356
17747W        W83007   9.267  26.597   3.676
17748W        W83008  18.531  18.128   1.842
17749W        W83009  26.968  39.475  11.040
17750W        W83010  39.578  28.018  11.701
17751W        W83011  20.302  19.621  11.997
17752W        W83012  39.187  33.016   4.595
17753W        W83013  19.258  34.774   1.223
17754W        W83014  39.987  43.919   0.066
17755W        W83015  25.017  31.262  13.982
17756W        W83016  44.686  33.326  14.759
17757W        W83017  12.274  19.043   3.473
17758W        W83018   6.492  24.614   3.836
17759W        W83019  44.032   3.441   3.814
17760W        W83020  16.081  26.622   1.393
17761W        W83021  34.408  25.031   0.625
17762W        W83022  16.129  39.661  13.473
17763W        W83023  12.058  33.062  12.631
17764W        W83024  22.501  38.545   1.016
17765W        W83025   4.905  32.357   3.442
17766W        W83026   6.382   2.938   3.139
17767W        W83027   8.179  33.017  13.528
17768W        W83028  31.889  16.300   0.396
17769W        W83029  10.198  10.650   3.725
17770W        W83030  31.423  22.322  14.878
17771W        W83031  16.866  18.062   1.030
17772W        W83032  11.256  27.910   0.683
17773W        W83033  18.028   7.226  12.827
17774W        W83034   7.077  38.441   3.792
17775W        W83035  24.179  21.230   4.239
17776W        W83036  36.043  10.154   3.705
17777W        W83037   0.081  17.158   1.737
17778W        W83038  19.533  34.169  14.326
17779W        W83039  42.457   7.758   4.289
17780W        W83040  34.677  18.215   1.978
17781W        W83041  41.407  35.016   3.881
17782W        W83042   6.351  37.338   3.394
17783W        W83043  19.888  30.111  12.033
17784W        W83044  19.552  31.646   0.183
17785W        W83045   5.365   4.043  13.293
17786W        W83046  30.403  11.358  13.973
17787W        W83047   8.373  17.019  11.157
17788W        W83048  14.448  26.255   4.791
17789W        W83049   1.496  28.026   2.854
17790W        W83050  33.745   5.132   4.184
17791W        W83051  40.823  34.786   4.649
17792W        W83052  17.282  36.012  10.101
17793W        W83053  10.733  42.255  13.035
17794W        W83054  21.558  43.530   4.403
17795W        W83055   4.427  42.128   3.305
17796W        W83056  12.555  40.380   1.320
17797W        W83057   9.408  24.476   0.026
17798W        W83058   4.330   9.149  13.880
17799W        W83059  36.409   9.935  10.894
17800W        W83060  14.553  41.501  11.567
17801W        W83061  13.962  16.748   3.307
17802W        W83062  14.373  39.544  14.098
17803W        W83063  24.711   4.495   1.092
17804W        W83064  10.347  20.957  12.544
17805W        W83065  21.281  38.841  14.818
17806W        W83066   8.276   7.018   9.830
17807W        W83067  16.148  40.524   4.903
17808W        W83068  31.297  40.351   9.668
17809W        W83069   6.120  40.753  11.186
17810W        W83070  27.243  12.612   2.350
17811W        W83071  26.817   3.396  13.829
17812W        W83072  15.007   5.362   2.318
17813W        W83073  21.241   6.986   2.477
17814W        W83074  11.783  11.613   3.730
17815W        W83075   8.461   2.085  10.556
17816W        W83076  31.062  32.442   2.575
17817W        W83077  19.468   6.710  13.778
17818W        W83078  13.417  11.429  14.957
17819W        W83079  23.565  29.985   1.050
17820W        W83080  35.925  26.379  11.299
17821W        W83081  26.957  38.576   4.558
17822W        W83082  17.494  10.994  11.151
17823W        W83083  12.101  13.619  14.571
17824W        W83084  11.552  19.768   1.643
17825W        W83085  10.248  40.543  11.372
17826W        W83086  14.853  21.206   2.578
17827W        W83087  28.761  35.527   3.266
17828W        W83088  29.051  36.585   3.391
17829W        W83089  11.310  19.301   1.681
17830W        W83090  40.093  40.364  11.258
17831W        W83091  36.182  16.228  14.371
17832W        W83092  36.903   7.005   2.151
17833W        W83093  31.038  24.419  12.491
17834W        W83094  33.135   8.965  13.800
17835W        W83095   5.207  22.498  12.947
17836W        W83096  36.883  29.787  13.341
17837W        W83097  15.083   4.914  12.432
17838W        W83098   8.737  20.103  14.353
17839W        W83099  21.427  44.124  13.934
17840W        W83100  28.240  12.524  12.472
17841W        W83101  10.349  44.771   0.496
17842W        W83102  22.275   9.674  12.629
17843W        W83103  10.207  44.533   5.326
17844W        W83104  40.773   7.726   4.881
17845W        W83105   9.732  15.492   0.123
17846W        W83106   6.784   2.708  12.136
17847W        W83107  26.390  25.172  12.004
17848W        W83108  10.625  34.259  14.753
17849W        W83109  16.200  23.223   1.775
17850W        W83110  43.320  21.677   3.665
17851W        W83111  27.184  39.961   1.240
17852W        W83112  23.524  26.590   2.326
17853W        W83113  32.920  12.666  12.020
17854W        W83114   9.930  33.389   1.128
17855W        W83115  43.346   7.708   4.488
17856W        W83116  36.035  15.230  11.117
17857W        W83117  35.357  15.459   0.807
17858W        W83118  11.293   5.629  10.980
17859W        W83119   9.266   8.929   0.654
17860W        W83120  10.129  24.507   2.751
17861W        W83121  26.451   9.690  13.335
17862W        W83122   8.149   6.765   1.838
17863W        W83123   6.252  16.577   0.409
17864W        W83124  29.991  44.510   3.296
17865W        W83125   2.824  11.266  13.455
17866W        W83126   7.452  34.685  14.445
17867W        W83127  11.797  32.074  10.293
17868W        W83128  14.558   6.995   4.605
17869W        W83129  38.934  26.398  12.928
17870W        W83130   4.401  27.232   2.181
17871W        W83131  34.806   6.168   4.043
17872W        W83132  22.513   4.178   1.844
17873W        W83133   9.376   5.273   3.563
17874W        W83134  30.426  31.875   0.448
17875W        W83135  30.302  19.132   2.821
17876W        W83136  23.989  44.681   3.588
17877W        W83137   8.768  40.285   2.384
17878W        W83138  32.549  19.038  14.478
17879W        W83139  17.871  11.420  11.045
17880W        W83140   4.931  16.233   2.389
17881W        W83141  35.448  28.387   4.871
17882W        W83142  18.214  18.899  12.817
17883W        W83143  18.165  36.427   4.688
17884W        W83144   4.974   7.449  14.283
17885W        W83145  14.349   3.658   3.832
17886W        W83146  11.892  37.575   4.741
17887W        W83147  12.279   4.378  12.179
17888W        W83148  40.180   4.642  13.427
17889W        W83149  10.670  40.341  14.911
17890W        W83150   9.047   3.850  11.925
17891W        W83151  30.036  12.321   4.156
17892W        W83152   2.667   3.932  11.585
17893W        W83153   3.588  11.757  13.095
17894W        W83154  14.076  29.807  14.878
17895W        W83155  43.542   3.244   3.708
17896W        W83156  24.930  37.606   3.323
17897W        W83157   3.269   9.732   0.839
17898W        W83158  33.878  37.868   2.613
17899W        W83159  33.531  38.356  11.530
17900W        W83160   6.638  18.534  11.937
17901W        W83161  23.038  38.548  12.812
17902W        W83162   8.120  16.986  12.426
17903W        W83163  39.918   9.781  13.452
17904W        W83164  21.569   5.690   0.735
17905W        W83165  23.670  12.256   1.340
17906W        W83166  44.347   7.121  14.473
17907W        W83167  27.108   3.924  11.630
17908W        W83168   0.285  31.586   3.188
17909W        W83169   1.853  26.995  12.541
17910W        W83170  10.349  27.661   0.428
17911W        W83171  39.116  17.646   1.176
17912W        W83172   8.201  43.282  11.932
17913W        W83173  31.502  17.493   3.227
17914W        W83174  26.248  20.110  13.807
17915W        W83175  37.947  23.069   2.784
17916W        W83176  41.734  17.839  12.422
17917W        W83177  42.781  41.528   1.386
17918W        W83178  29.066  43.888   1.917
17919W        W83179  34.979  26.602   0.430
17920W        W83180  12.221  27.278   1.230
17921W        W83181  18.072   9.033   0.781
17922W        W83182  41.722  15.085   1.859
17923W        W83183  19.805  36.929   2.032
17924W        W83184  31.573  40.496  12.136
17925W        W83185  35.608  42.255  13.323
17926W        W83186  33.413  10.897   4.690
17927W        W83187  11.348   5.356  11.434
17928W        W83188  35.032  18.546  11.822
17929W        W83189  28.195   0.476   0.038
17930W        W83190   3.274  35.635   2.320
17931W        W83191  20.483  28.139  13.310
17932W        W83192  25.768  16.266  13.797
17933W        W83193  24.053  37.554   0.943
17934W        W83194  40.863  17.387   4.768
17935W        W83195  19.269  10.899  14.827
17936W        W83196  33.167  11.669   2.910
17937W        W83197  13.257  17.671   4.998
17938W        W83198  23.114  41.338  13.104
17939W        W83199  20.136  35.886   0.403
17940W        W83200  38.025  31.363  14.126
17941W        W83201   5.814  10.340   3.355
17942W        W83202   7.100  22.684   0.717
17943W        W83203   7.333  42.262   1.131
17944W        W83204   1.339  32.133  13.287
17945W        W83205   3.907  34.634   4.130
17946W        W83206  20.751   6.434  11.467
17947W        W83207  14.869  41.517  12.442
17948W        W83208  15.770  22.573   0.420
17949W        W83209  35.722  26.330   3.359
17950W        W83210   9.903  32.703  13.505
17951W        W83211  23.167  29.151   0.292
17952W        W83212  24.602  23.346  10.154
17953W        W83213  25.544  29.110   1.701
17954W        W83214  23.005  10.369   0.013
17955W        W83215  36.304  28.070   4.126
17956W        W83216  24.884  35.693   0.797
17957W        W83217  15.656  40.530   1.711
17958W        W83218   8.650  20.519   4.184
17959W        W83219  12.603  38.529  14.421
17960W        W83220  11.216  29.903   3.757
17961W        W83221   3.349   3.831   4.919
17962W        W83222  31.573   5.675  10.734
17963W        W83223  30.191  28.533  14.319
17964W        W83224  22.322   1.034  11.066
17965W        W83225  35.158  15.437  11.156
17966W        W83226   9.745  44.484  10.070
17967W        W83227  17.893  15.245  14.477
17968W        W83228  27.365  40.746   3.553
17969W        W83229  10.789   5.718   0.977
17970W        W83230  27.384  23.774  13.988
17971W        W83231  11.089  17.851   1.942
17972W        W83232   0.476  27.145  12.533
17973W        W83233   2.886  16.483   1.732
17974W        W83234  16.140  36.201  13.908
17975W        W83235  43.095  44.707   2.013
17976W        W83236  10.073  15.487   0.523
17977W        W83237  30.494   1.413  14.048
17978W        W83238   1.442  11.320   0.682
17979W        W83239  30.478  40.762   4.517
17980W        W83240  43.823  29.527  13.406
17981W        W83241  20.600  22.759  11.756
17982W        W83242  31.448   1.440   2.306
17983W        W83243  14.020  21.727  13.360
17984W        W83244  35.843  36.366   3.164
17985W        W83245  31.516  24.202  12.428
17986W        W83246  20.502  11.763  13.189
17987W        W83247  14.876  21.888  14.231
17988W        W83248   2.478   7.203  13.952
17989W        W83249  28.021  13.223   2.111
17990W        W83250  33.813  20.496  11.394
17991W        W83251  44.368  43.036   2.425
17992W        W83252  19.037  42.991  11.642
17993W        W83253  39.036  20.033  14.869
17994W        W83254  35.178  40.132  12.211
17995W        W83255  34.804  11.707  10.544
17996W        W83256  37.570  33.700  10.328
17997W        W83257  19.286  41.452  13.328
17998W        W83258  38.886  14.619   4.910
17999W        W83259  21.683  29.963   3.696
18000W        W83260  39.866  19.545  12.068
18001W        W83261   5.263  27.589  14.972
18002W        W83262  25.043  20.386  12.109
18003W        W83263   0.908  33.555   0.177
18004W        W83264   9.696  31.390   2.248
18005W        W83265  28.580  33.821  11.022
18006W        W83266  36.636  11.232   1.766
18007W        W83267   0.953  33.100  14.358
18008W        W83268  38.756  15.588   4.111
18009W        W83269  25.661  43.241  10.721
18010W        W83270  44.012  43.059  13.442
18011W        W83271   0.929   5.402  12.954
18012W        W83272  35.989   7.148  14.463
18013W        W83273  24.298  29.432  13.086
18014W        W83274   7.301  10.491  11.100
18015W        W83275  32.440  28.361  12.117
18016W        W83276  14.984  38.511  11.972
18017W        W83277   3.336   6.344  13.359
18018W        W83278  42.826  21.063   3.571
18019W        W83279   2.921  12.900  14.384
18020W        W83280   3.914  40.446  11.650
18021W        W83281  42.704   5.268   0.835
18022W        W83282  22.699  34.654  13.397
18023W        W83283  39.490  43.540  12.445
18024W        W83284  13.274   0.915   2.216
18025W        W83285  11.616  10.095   3.657
18026W        W83286  41.893  11.133  11.503
18027W        W83287  42.250  40.993   0.451
18028W        W83288  30.071   4.470   0.869
18029W        W83289  16.113   2.351  13.581
18030W        W83290  37.659  30.417   2.195
18031W        W83291  25.224  44.720   1.365
18032W        W83292  11.967   7.237  12.359
18033W        W83293  39.443  42.244  14.445
18034W        W83294  12.300  26.168   5.154
18035W        W83295  27.824  26.216   4.710
18036W        W83296   3.626  18.485   0.766
18037W        W83297  29.382   3.093  14.204
18038W        W83298  40.076   3.729   4.568
18039W        W83299  25.081  28.237  10.811
18040W        W83300  19.267   8.204   4.675
18041W        W83301  43.050  38.005   3.166
18042W        W83302  39.512  17.332   3.746
18043W        W83303  15.532  40.782  12.926
18044W        W83304  10.248  43.659  12.193
18045W        W83305   2.879  15.684  11.131
18046W        W83306  20.039  42.379   4.100
18047W        W83307  40.450   7.289   2.830
18048W        W83308   4.424  28.455  11.174
18049W        W83309   7.728  33.061  13.884
18050W        W83310   1.808  38.127   4.634
18051W        W83311  42.376  41.622   1.799
18052W        W83312  14.309  17.986  12.149
18053W        W83313  39.859  17.164   1.761
18054W        W83314  21.628  25.939  13.623
18055W        W83315  34.577  33.971  11.161
18056W        W83316   9.746  41.092  14.291
18057W        W83317  20.289   6.838   0.324
18058W        W83318  27.215  31.709  12.566
18059W        W83319  40.384  44.754   0.173
18060W        W83320  25.096   2.028   2.593
18061W        W83321  22.957  39.848   2.215
18062W        W83322  29.188  36.352   0.942
18063W        W83323  32.081  44.887   1.362
18064W        W83324  31.035  25.457  12.258
18065W        W83325  30.503  29.915   1.061
18066W        W83326   9.153  12.373   2.715
18067W        W83327  27.858  11.930   5.302
18068W        W83328  28.850   7.108  14.915
18069W        W83329  38.587  39.051  10.222
18070W        W83330  37.230  36.587  12.552
18071W        W83331  22.661  41.935   0.721
18072W        W83332  33.816  41.969   1.032
18073W        W83333  32.065  36.485   1.627
18074W        W83334  35.807  22.613   0.338
18075W        W83335  25.756  28.173  13.229
18076W        W83336  41.502  26.622  11.545
18077W        W83337  19.783  36.163  12.120
18078W        W83338   8.654  42.749  14.042
18079W        W83339  18.775  14.797  10.667
18080W        W83340  10.706  30.724   0.282
18081W        W83341  26.663  16.862   0.897
18082W        W83342  13.826  36.888  11.068
18083W        W83343  16.641  33.540  11.909
18084W        W83344  25.132  38.738   9.888
18085W        W83345  10.704  20.353  11.686
18086W        W83346  15.629  15.668  14.965
18087W        W83347  40.955  29.000  10.785
18088W        W83348  15.261   1.833  11.694
18089W        W83349  17.609   9.332   2.074
18090W        W83350  35.403  11.018  11.709
18091W        W83351  13.485  31.000   0.426
18092W        W83352  15.188  31.582  10.624
18093W        W83353  44.080  34.590   3.827
18094W        W83354  33.943  13.741  14.190
18095W        W83355  38.717  43.609  10.791
18096W        W83356  30.648  39.002  11.637
18097W        W83357  11.656  18.690   2.794
18098W        W83358  28.319  17.721  13.301
18099W        W83359  37.095  39.517  10.917
18100W        W83360  29.184  22.199  11.194
18101W        W83361  30.898  38.873   3.570
18102W        W83362  19.808  42.439   0.949
18103W        W83363  21.843   7.959   0.265
18104W        W83364  28.549   7.779   1.015
18105W        W83365   1.784   6.412   0.818
18106W        W83366  42.488   7.411   3.895
18107W        W83367  40.330  11.051  10.719
18108W        W83368  12.410  42.350  12.038
18109W        W83369  16.286  41.083   0.420
18110W        W83370  17.630  28.221  11.607
18111W        W83371  34.887  36.126  14.856
18112W        W83372   6.427   1.556   2.341
18113W        W83373  10.568   4.658  12.866
18114W        W83374   7.191   0.915   0.400
18115W        W83375  15.460  34.473   1.233
18116W        W83376  40.267  43.491  11.572
18117W        W83377  21.299  28.984   4.148
18118W        W83378  11.993   9.428   5.509
18119W        W83379  27.084  14.879   0.339
18120W        W83380  14.179  13.244  10.550
18121W        W83381  36.381   0.228   1.793
18122W        W83382  11.593  31.332   1.396
18123W        W83383   9.242  20.754   3.381
18124W        W83384  39.908  30.148  14.016
18125W        W83385  15.330   5.185  14.509
18126W        W83386   6.098  34.517  11.935
18127W        W83387  42.362  25.170   3.808
18128W        W83388   4.869   0.811  10.945
18129W        W83389  10.678  13.809  13.598
18130W        W83390  20.200  14.653  11.803
18131W        W83391  44.459  26.235   3.268
18132W        W83392  32.894  18.102  11.765
18133W        W83393  15.262  40.359  11.838
18134W        W83394  31.955  37.559  10.680
18135W        W83395  19.259   6.478   3.592
18136W        W83396  44.046  23.686  10.254
18137W        W83397  34.155  13.773  13.296
18138W        W83398  20.553   8.380  14.393
18139W        W83399  34.779   3.737  10.974
18140W        W83400  28.065  33.349   2.633
18141W        W83401   5.245  31.076  10.796
18142W        W83402   6.874  27.709  14.744
18143W        W83403  38.878  39.805  14.419
18144W        W83404  27.151   1.146  13.837
18145W        W83405  13.578  10.697   1.871
18146W        W83406  29.165  22.923  12.826
18147W        W83407  25.104   0.982  13.824
18148W        W83408  41.928  19.747   3.092
18149W        W83409  13.711   3.280  13.074
18150W        W83410   6.979  12.516   4.221
18151W        W83411  19.579  16.138  14.474
18152W        W83412  13.056  11.200   2.698
18153W        W83413  13.004  30.773   4.986
18154W        W83414  22.232  16.563  12.146
18155W        W83415  31.658  24.225   3.276
18156W        W83416  42.059   4.275   2.679
18157W        W83417  42.863   1.181  13.995
18158W        W83418   4.397  10.971  13.329
18159W        W83419   1.245   5.842  13.871
18160W        W83420  29.397  16.732   0.914
18161W        W83421  12.337  30.013   4.734
18162W        W83422  28.384  25.381   0.803
18163W        W83423  42.529  19.288   2.373
18164W        W83424  17.701  33.030  13.105
18165W        W83425   4.060  26.580  12.007
18166W        W83426  25.203  43.512  10.647
18167W        W83427   0.460   3.252  13.653
18168W        W83428   5.435  22.781  13.325
18169W        W83429  30.129   1.423  14.934
18170W        W83430  41.925  35.287  11.683
18171W        W83431   0.827  34.193  12.084
18172W        W83432  13.699  23.646   3.062
18173W        W83433   5.760  41.037  10.831
18174W        W83434   2.386  28.292   4.956
18175W        W83435   7.716  11.314   2.265
18176W        W83436   4.227  34.515  13.744
18177W        W83437  17.121  18.807   0.944
18178W        W83438  18.607  40.502   0.435
18179W        W83439  42.894  25.095  10.504
18180W        W83440  43.825  39.360   2.586
18181W        W83441  13.336  30.724  13.062
18182W        W83442  14.923  21.014   3.614
18183W        W83443  30.984  43.962   2.698
18184W        W83444   8.863  42.245  14.093
18185W        W83445  27.013  32.074   4.340
18186W        W83446  34.004   4.732  10.185
18187W        W83447  22.950   0.563   4.609
18188W        W83448  31.171  30.611   0.199
18189W        W83449  11.843   7.398  11.885
18190W        W83450  13.582  19.518   1.886
18191W        W83451  13.827  30.989  14.857
18192W        W83452   1.861  10.171   2.813
18193W        W83453   1.952  26.704  11.185
18194W        W83454  39.405  30.567   1.707
18195W        W83455   4.190  10.899   1.354
18196W        W83456  28.651  35.499  10.724
18197W        W83457  13.318  23.401  11.393
18198W        W83458  29.017  34.869  10.603
18199W        W83459  41.266  11.833   4.613
18200W        W83460  13.369  41.417   3.402
18201W        W83461  29.425   8.361  12.906
18202W        W83462   6.708  12.923   4.002
18203W        W83463   0.340  27.591   3.162
18204W        W83464   5.722  13.812   3.753
18205W        W83465   0.208  27.110  12.064
18206W        W83466  19.174  18.222  12.607
18207W        W83467  38.419  40.074   1.747
18208W        W83468  12.321  42.917  14.997
18209W        W83469  12.593  15.939  14.969
18210W        W83470  14.177  18.139   0.507
18211W        W83471  30.954  38.413   1.301
18212W        W83472  15.742  31.013  13.982
18213W        W83473  25.617   9.956  12.612
18214W        W83474  38.099   9.266  10.891
18215W        W83475  35.446   5.138   0.158
18216W        W83476  36.394  19.479  11.877
18217W        W83477  27.255  25.579   4.999
18218W        W83478  16.058  29.206   3.687
18219W        W83479  34.870  21.343  11.520
18220W        W83480  19.648  11.692  10.583
18221W        W83481  44.381  22.606  13.564
18222W        W83482  43.075   9.782  14.771
18223W        W83483  41.305  13.895  12.296
18224W        W83484   5.707  30.293  13.468
18225W        W83485  33.958   0.974  13.316
18226W        W83486  18.300  26.635  13.601
18227W        W83487   3.145  36.890  10.877
18228W        W83488  44.800  36.367   2.889
18229W        W83489  24.260  33.091   0.916
18230W        W83490  25.266  14.614   0.245
18231W        W83491   2.240   3.783   2.340
18232W        W83492  18.026  42.407   0.283
18233W        W83493   6.238  29.183   0.880
18234W        W83494  26.204  27.487   4.564
18235W        W83495   8.890   4.387   3.204
18236W        W83496  14.295   6.534   3.871
18237W        W83497   0.915   5.277   4.400
18238W        W83498  27.200  40.835   4.946
18239W        W83499   3.901   1.892   2.907
18240W        W83500  19.692   8.710   3.640
18241W        W83501  24.207   1.001  12.014
18242W        W83502  42.231  27.264  13.940
18243W        W83503  25.761   0.459   1.223
18244W        W83504   7.760   5.727  11.169
18245W        W83505  16.695  20.062   1.843
18246W        W83506  42.804  28.893  12.541
18247W        W83507   0.857  44.207   3.617
18248W        W83508  22.556  28.496  12.636
18249W        W83509  35.590  41.826  12.923
18250W        W83510  12.344  17.147   0.394
18251W        W83511   4.347  13.480  14.992
18252W        W83512  34.079  22.988   0.353
18253W        W83513   6.339  19.481   3.234
18254W        W83514  25.941  39.866  14.673
18255W        W83515  18.015  13.883  11.599
18256W        W83516  12.364  29.528  12.807
18257W        W83517  18.079  36.411  13.050
18258W        W83518  20.977  13.191   1.316
18259W        W83519  23.573  24.297   0.636
18260W        W83520  29.431  27.819   3.150
18261W        W83521  31.847  24.714   3.289
18262W        W83522   5.980  10.684  12.464
18263W        W83523  34.875  35.780   4.209
18264W        W83524  18.751  29.705  12.631
18265W        W83525  24.024  19.543  13.335
18266W        W83526  35.090   4.121  14.977
18267W        W83527  31.033  39.039  10.890
18268W        W83528   4.845   2.374   2.656
18269W        W83529   3.212   2.771  13.417
18270W        W83530  44.055  34.009  14.801
18271W        W83531  27.675  40.431   2.017
18272W        W83532  43.639  12.810  12.638
18273W        W83533  38.900   2.377   1.403
18274W        W83534   9.937  11.672   4.261
18275W        W83535   5.392   0.313   2.839
18276W        W83536  28.413  41.917  12.479
18277W        W83537  10.715  22.365   2.157
18278W        W83538  32.436  24.685   0.032
18279W        W83539  24.642  27.065   4.276
18280W        W83540  39.343  31.026  12.091
18281W        W83541  14.915  26.631   2.245
18282W        W83542  14.387  37.794  14.417
18283W        W83543  42.553  23.696   3.759
18284W        W83544  36.787   2.523  13.558
18285W        W83545  33.012   7.141   3.690
18286W        W83546  10.161   8.333  12.128
18287W        W83547   8.390  37.180   3.602
18288W        W83548   8.831  16.743   4.091
18289W        W83549  34.997   8.318  11.654
18290W        W83550   6.198   0.139   5.033
18291W        W83551  39.796  10.441   0.414
18292W        W83552  41.929  30.523  14.296
18293W        W83553  44.972  27.926  11.132
18294W        W83554  42.783  13.911   3.638
18295W        W83555   6.690  15.686  13.614
18296W        W83556   5.310  25.672  12.495
18297W        W83557  22.485   6.827   4.036
18298W        W83558  13.414  34.402  13.966
18299W        W83559   4.969   5.694   2.770
18300W        W83560  20.751  13.457   4.775
18301W        W83561  33.123  17.526   3.573
18302W        W83562  41.055  36.361   4.158
18303W        W83563  17.159  26.749   3.346
18304W        W83564   2.816   5.196  14.964
18305W        W83565   3.620  43.403  12.673
18306W        W83566  10.078  18.693   1.639
18307W        W83567  16.160  40.021   0.432
18308W        W83568  28.144   8.332   1.497
18309W        W83569   1.846  33.027   4.958
18310W        W83570  39.830  30.919  14.387
18311W        W83571  12.350  19.086   3.973
18312W        W83572  29.888   6.677   3.416
18313W        W83573  43.893  10.745  13.571
18314W        W83574   2.220  19.781  13.358
18315W        W83575  29.954   4.679   0.371
18316W        W83576  40.496   0.762  11.165
18317W        W83577   5.728  31.411  13.528
18318W        W83578  18.974  39.346  11.371
18319W        W83579  28.919  19.267   0.814
18320W        W83580  34.427  42.498   1.423
18321W        W83581   4.926   4.407   2.970
18322W        W83582  15.691  33.090  13.418
18323W        W83583  16.022  14.287  10.475
18324W        W83584  39.385  29.379   1.884
18325W        W83585  14.148  13.379   2.649
18326W        W83586  40.531  32.998   4.087
18327W        W83587  18.020   9.876  11.576
18328W        W83588  41.858  10.601  13.881
18329W        W83589  21.253  33.705  11.601
18330W        W83590  39.322   5.780  13.859
18331W        W83591  26.497  21.525  10.468
18332W        W83592  43.008  18.570  11.405
18333W        W83593   0.553  14.679  12.681
18334W        W83594  43.486   8.595  14.376
18335W        W83595  22.914  39.005   0.692
18336W        W83596  26.944   5.579  10.190
18337W        W83597  30.857  16.564   3.696
18338W        W83598  41.612  36.644  11.109
18339W        W83599   0.437  32.927  12.051
18340W        W83600  34.930  33.509   2.877
18341W        W83601  21.950  16.372  13.770
18342W        W83602  34.460  38.578   4.524
18343W        W83603  30.498   4.951   2.674
18344W        W83604  40.275   5.832  12.437
18345W        W83605  18.484   3.162  14.458
18346W        W83606  33.277  28.022   1.988
18347W        W83607   3.782   6.371  10.690
18348W        W83608  20.954  14.534   1.353
18349W        W83609  33.674  10.460  12.390
18350W        W83610  17.987  42.450  10.601
18351W        W83611  44.131  34.338  13.007
18352W        W83612   5.277  41.841   0.418
18353W        W83613  27.034  44.177   4.668
18354W        W83614  27.002  38.337  13.411
18355W        W83615   1.349  19.148  13.598
18356W        W83616   2.923  22.936   2.429
18357W        W83617  37.778  15.280   2.087
18358W        W83618  41.292   4.922  11.655
18359W        W83619  12.520  16.547  12.355
18360W        W83620  25.348   6.912  12.706
18361W        W83621  43.840  35.952  10.547
18362W        W83622   3.520  44.577  11.220
18363W        W83623  35.034  34.022   1.156
18364W        W83624  11.307  33.180  14.777
18365W        W83625  14.373  10.256   4.547
18366W        W83626  17.223  31.057   1.243
18367W        W83627  15.701  27.919   0.552
18368W        W83628  42.453  39.409   1.652
18369W        W83629  44.333   8.283   2.106
18370W        W83630  30.399  16.314  13.263
18371W        W83631  30.719  21.459   0.885
18372W        W83632   5.869  29.196   1.742
18373W        W83633   4.857  37.757   0.038
18374W        W83634  12.293  18.835   2.180
18375W        W83635   1.348   8.643  13.398
18376W        W83636  42.281  15.581  10.913
18377W        W83637  42.031   5.183   2.630
18378W        W83638  42.393  41.559  13.874
18379W        W83639  25.532   4.233  11.190
18380W        W83640   0.775  26.504   1.792
18381W        W83641  21.160  28.483  13.989
18382W        W83642  21.849  40.976   3.020
18383W        W83643   2.932   0.465  13.848
18384W        W83644   9.459  27.076   1.258
18385W        W83645   8.213  42.378   1.908
18386W        W83646   7.995   8.471   3.810
18387W        W83647  31.692  20.295   1.405
18388W        W83648  11.149  36.113  10.697
18389W        W83649  10.769  18.111   1.647
18390W        W83650   1.913   3.261  13.077
18391W        W83651  36.081   6.767   0.283
18392W        W83652  11.384  28.642   2.358
18393W        W83653  20.679   2.339   2.216
18394W        W83654  44.765  11.496   2.636
18395W        W83655  30.096  40.557   4.234
18396W        W83656  14.676  17.821   5.103
18397W        W83657  23.522  13.822  14.610
18398W        W83658  34.118  34.236  13.811
18399W        W83659  10.350  42.759   4.571
18400W        W83660  13.396  17.411  11.231
18401W        W83661  17.179   2.058  11.750
18402W        W83662   4.179  12.290   1.468
18403W        W83663  28.885  21.608   0.273
18404W        W83664  43.780  29.121  14.334
18405W        W83665  26.266  32.368   1.921
18406W        W83666  39.494  12.295   1.064
18407W        W83667  32.455  28.121  13.076
18408W        W83668   9.200  36.429   2.123
18409W        W83669   0.478  14.058   2.278
18410W        W83670  22.694  32.529  12.652
18411W        W83671  10.289   3.346   2.358
18412W        W83672  37.382  21.909   0.869
18413W        W83673  39.264  17.650   4.645
18414W        W83674  44.815  10.544   3.089
18415W        W83675  36.520   7.037  14.511
18416W        W83676  31.971  10.912  14.484
18417W        W83677  37.311  11.209  12.607
18418W        W83678  15.393   7.389  13.566
18419W        W83679  11.741   8.840   1.308
18420W        W83680  22.347  44.804   2.831
18421W        W83681  17.493  44.908   4.214
18422W        W83682  17.153   7.678   0.421
18423W        W83683  24.938  25.917   3.785
18424W        W83684  42.462  43.014  14.819
18425W        W83685  32.456  31.376   0.946
18426W        W83686  36.475   4.278   0.953
18427W        W83687  18.220   2.736  13.104
18428W        W83688  14.701  44.464  11.127
18429W        W83689   8.678  37.345  14.221
18430W        W83690   6.073  37.390   1.403
18431W        W83691  35.472  28.012  12.071
18432W        W83692  10.211  44.504   3.289
18433W        W83693  14.774   2.266  12.050
18434W        W83694  41.986  40.192   3.984
18435W        W83695  18.805  18.694   2.340
18436W        W83696  28.212  38.714  12.902
18437W        W83697  39.526   0.546  13.251
18438W        W83698  28.466  22.310  10.743
18439W        W83699  43.299  10.992   5.002
18440W        W83700  32.411  41.086  10.608
18441W        W83701  17.023   4.757  10.324
18442W        W83702  12.358   5.215   4.776
18443W        W83703  26.200   8.605   2.732
18444W        W83704  21.986  23.790   1.690
18445W        W83705  43.662  13.142  13.965
18446W        W83706  19.933  42.476  10.611
18447W        W83707  40.770   9.100  11.697
18448W        W83708  17.671  21.125   2.192
18449W        W83709   2.340   3.184  14.644
18450W        W83710  15.734  21.604   0.539
18451W        W83711  40.912  14.069   1.995
18452W        W83712  13.888  31.878  12.048
18453W        W83713   4.609  38.600  14.913
18454W        W83714  27.202  28.668   1.399
18455W        W83715  39.824  35.778   2.693
18456W        W83716  18.825  29.346   3.373
18457W        W83717  16.147  34.570  11.204
18458W        W83718  41.545   0.698  11.160
18459W        W83719  28.121  44.780   1.430
18460W        W83720  35.006  32.087  10.219
18461W        W83721  29.702   2.308   0.725
18462W        W83722  13.901  24.914  13.297
18463W        W83723  22.218   8.307  12.469
18464W        W83724  19.828  38.361   1.442
18465W        W83725   2.206  20.105  11.447
18466W        W83726  27.650  29.623  10.562
18467W        W83727  30.708  42.303   1.579
18468W        W83728  16.776  43.779   3.719
18469W        W83729  16.518   5.530   2.344
18470W        W83730   8.239   8.793  10.595
18471W        W83731  18.125   6.924   2.337
18472W        W83732  24.917  10.317   0.765
18473W        W83733  44.991   6.315   4.311
18474W        W83734  22.265  23.718   1.261
18475W        W83735  33.114  18.652   0.314
18476W        W83736  11.431  33.157  14.282
18477W        W83737  15.814  15.763  10.243
18478W        W83738   6.904   9.206   3.790
18479W        W83739  15.589  14.799   3.470
18480W        W83740  27.065  20.828  12.333
18481W        W83741   5.234  36.336   1.722
18482W        W83742  32.561  26.378  14.780
18483W        W83743  13.309  31.170   1.727
18484W        W83744  31.411  29.842  12.605
18485W        W83745  17.206   4.618   4.977
18486W        W83746  18.231  15.645   2.308
18487W        W83747  29.134   5.814  13.543
18488W        W83748  12.240  22.004   0.977
18489W        W83749  17.351  15.587  11.971
18490W        W83750  31.994  17.963  12.884
18491W        W83751   1.059  10.927  13.411
18492W        W83752  31.117   8.967  14.036
18493W        W83753  41.040  11.256  14.316
18494W        W83754  43.248  26.976  14.833
18495W        W83755  30.293  21.044  14.925
18496W        W83756  19.522  11.196   1.524
18497W        W83757  13.797   9.768   0.948
18498W        W83758  35.560  30.472  13.259
18499W        W83759  37.799  15.866   3.717
18500W        W83760  20.171  13.605   3.237
18501W        W83761  42.933  41.341   3.094
18502W        W83762  34.272  19.043  13.005
18503W        W83763   8.250  20.255  12.669
18504W        W83764  34.076   3.709   0.005
18505W        W83765   7.387  13.455  12.959
18506W        W83766  17.609   3.380   1.201
18507W        W83767  18.229   8.619   0.539
18508W        W83768   7.783  26.241   5.398
18509W        W83769  17.175   9.327   2.920
18510W        W83770  30.578  42.701   0.382
18511W        W83771  16.672  42.700   1.138
18512W        W83772  27.903  40.373  12.346
18513W        W83773  39.188  38.118   2.194
18514W        W83774  15.261   8.407  10.220
18515W        W83775   5.557  20.106   0.743
18516W        W83776   7.666   8.667  11.531
18517W        W83777  23.025  44.879   3.521
18518W        W83778  41.926  40.750   0.810
18519W        W83779  30.652   8.203   4.125
18520W        W83780  27.671  25.071   1.472
18521W        W83781  20.967   7.237  13.111
18522W        W83782  42.473   6.625   4.519
18523W        W83783  24.050  44.640  13.060
18524W        W83784  25.558  39.047   2.485
18525W        W83785   7.228  25.901  12.860
18526W        W83786  17.015  41.246  12.858
18527W        W83787  34.181  11.349   0.828
18528W        W83788  12.613  38.539  12.922
18529W        W83789   5.299  36.975  12.900
18530W        W83790   1.258  32.101   3.837
18531W        W83791  37.111  37.108  14.306
18532W        W83792  40.751  43.101  12.937
18533W        W83793  10.314   0.748  11.557
18534W        W83794  38.308   1.895  11.908
18535W        W83795   5.933   4.841   1.559
18536W        W83796   1.491  43.275  14.875
18537W        W83797   8.319  43.947  14.840
18538W        W83798  24.630  17.284  10.839
18539W        W83799  16.082  11.511   4.722
18540W        W83800  36.224   9.782  13.126
18541W        W83801   1.918  12.846  12.446
18542W        W83802  16.197  19.253   2.903
18543W        W83803  21.330  37.825  12.288
18544W        W83804  39.922  18.167   2.708
18545W        W83805  22.714  25.470   2.470
18546W        W83806  20.193  36.382  13.950
18547W        W83807  11.880  10.720   0.834
18548W        W83808   2.333   7.661  14.823
18549W        W83809  26.073  24.175   1.337
18550W        W83810  20.091   8.016  11.103
18551W        W83811  19.708  20.236   1.779
18552W        W83812   1.394   7.848   1.716
18553W        W83813  37.963   4.760  14.113
18554W        W83814   9.239   6.766   2.774
18555W        W83815  13.554  38.546  11.523
18556W        W83816   8.033  35.078  12.089
18557W        W83817  35.665  32.929  13.796
18558W        W83818  41.707  25.217   4.219
18559W        W83819  20.050   7.925  12.432
18560W        W83820  22.824  38.172   0.812
18561W        W83821   5.279  29.180  13.434
18562W        W83822  35.963  38.070  12.441
18563W        W83823   0.673   1.225  11.168
18564W        W83824  26.299  24.478  12.520
18565W        W83825   6.266  36.587   0.740
18566W        W83826  28.429  39.333   0.443
18567W        W83827  35.382  38.153   1.196
18568W        W83828  19.149  34.136   0.483
18569W        W83829  20.659   1.747   3.749
18570W        W83830  31.878  19.205   3.678
18571W        W83831  31.148  31.365   0.691
18572W        W83832  16.192  28.166   3.744
18573W        W83833   8.686   9.837   4.599
18574W        W83834  21.454  39.970  11.706
18575W        W83835  31.174  29.640   0.251
18576W        W83836   7.147  24.445   3.758
18577W        W83837  28.248  30.646   4.791
18578W        W83838  26.770  15.328   2.352
18579W        W83839  19.067  42.456  12.388
18580W        W83840  13.036  30.898  11.948
18581W        W83841  30.900  27.950   3.185
18582W        W83842  27.869   4.202  11.469
18583W        W83843   4.678  35.349   4.364
18584W        W83844   7.346   5.169   2.870
18585W        W83845  13.874  18.064   0.911
18586W        W83846  11.239   5.744  13.785
18587W        W83847  38.772  26.779   2.518
18588W        W83848   1.536   8.319   4.055
18589W        W83849  28.565  39.486  14.443
18590W        W83850  37.220  23.802  10.754
18591W        W83851  35.397  39.008   1.835
18592W        W83852  43.328  30.532  14.315
18593W        W83853  24.306  13.967  11.595
18594W        W83854  32.461  17.897  12.592
18595W        W83855  12.894   0.160   3.190
18596W        W83856  39.840  31.945  12.854
18597W        W83857  19.730  41.282   1.895
18598W        W83858  18.784  16.217  12.977
18599W        W83859  32.383  38.851  11.013
18600W        W83860  18.757  30.936  13.777
18601W        W83861  33.537  26.855   0.281
18602W        W83862  12.646  30.082   2.586
18603W        W83863  37.272  28.421  13.472
18604W        W83864  34.057  28.780   2.073
18605W        W83865  20.253  43.826  11.174
18606W        W83866  15.891  17.382   1.020
18607W        W83867  41.893  40.244   0.827
18608W        W83868  11.632  22.523   1.268
18609W        W83869  42.357  31.809   1.324
18610W        W83870  29.124  17.008  11.477
18611W        W83871   5.143  22.560  11.837
18612W        W83872  40.531  34.410   3.131
18613W        W83873  30.944  23.766   2.335
18614W        W83874  38.849  35.409   1.296
18615W        W83875  25.299   3.535   0.246
18616W        W83876   8.929  19.773  10.525
18617W        W83877  26.081  44.722   4.810
18618W        W83878  10.894  28.610  13.387
18619W        W83879  25.926  24.257  12.185
18620W        W83880   2.138   9.978  10.650
18621W        W83881   5.445   4.407   4.621
18622W        W83882  37.895   3.777  12.549
18623W        W83883   7.686   9.736  13.824
18624W        W83884  23.990  16.229  13.854
18625W        W83885   1.474  21.009  14.263
18626W        W83886  39.761  35.026  10.522
18627W        W83887  25.148  42.242  12.512
18628W        W83888  23.064  20.773  10.598
18629W        W83889  35.325   9.154   1.347
18630W        W83890  28.101  15.893  13.418
18631W        W83891  44.045  26.456  14.913
18632W        W83892  23.732  32.921   1.707
18633W        W83893  38.984  33.667   3.871
18634W        W83894  19.387  11.749  13.852
18635W        W83895  19.368   3.745  12.590
18636W        W83896  32.618  25.726   0.338
18637W        W83897  40.904  44.383  12.327
18638W        W83898   3.657   9.315  13.618
18639W        W83899  29.523  15.247  12.833
18640W        W83900  28.143  19.510  12.887
18641W        W83901   3.777   0.006   2.071
18642W        W83902   8.177  31.511   4.491
18643W        W83903  10.087   0.062  12.875
18644W        W83904  33.337  12.389   2.298
18645W        W83905  13.375  12.765  13.768
18646W        W83906  12.843  33.150   0.411
18647W        W83907   5.134  21.028   1.332
18648W        W83908  18.149   1.223  13.009
18649W        W83909  40.900  33.282   4.743
18650W        W83910  17.248  29.514   0.867
18651W        W83911  22.073  27.654   0.614
18652W        W83912  35.329   3.785   3.697
18653W        W83913   9.679  31.603   1.237
18654W        W83914   7.820  21.270  10.993
18655W        W83915  12.941  33.191   2.241
18656W        W83916  19.304  29.013   5.009
18657W        W83917   7.326  44.910  12.079
18658W        W83918   2.375  14.117  10.589
18659W        W83919  12.922  42.553   1.003
18660W        W83920  16.186  13.886  10.792
18661W        W83921  15.422  11.177  12.030
18662W        W83922  12.446   3.977  14.379
18663W        W83923  16.243  42.771  11.255
18664W        W83924  31.700  13.812   0.399
18665W        W83925  42.590  44.249  14.979
18666W        W83926   2.465  38.472  12.096
18667W        W83927  12.049   7.811  12.627
18668W        W83928  15.091  22.136   4.303
18669W        W83929  24.122  30.820   3.640
18670W        W83930  17.682  43.068   1.247
18671W        W83931  17.857  30.502   0.234
18672W        W83932  38.944   8.696  14.504
18673W        W83933  21.253   0.791   5.014
18674W        W83934  13.309  44.365  14.844
18675W        W83935  40.490  37.908  13.861
18676W        W83936  19.199  32.455   3.918
18677W        W83937  43.489  16.237   0.446
18678W        W83938  13.017  44.281  10.638
18679W        W83939   9.198   5.038   2.203
18680W        W83940  39.305  33.533  10.985
18681W        W83941  39.590   1.294   0.672
18682W        W83942  43.523  21.594   1.513
18683W        W83943   3.804   7.795   0.241
18684W        W83944   4.368  31.042   4.263
18685W        W83945   4.812   9.282  13.978
18686W        W83946   2.504  35.671   1.700
18687W        W83947  21.206  33.602  13.542
18688W        W83948  40.149  20.244  13.331
18689W        W83949   1.560   2.702   0.744
18690W        W83950   0.854   8.502  14.866
18691W        W83951   5.341  29.838  12.677
18692W        W83952  23.265   9.170  11.271
18693W        W83953  39.911  20.848  10.698
18694W        W83954  31.725  14.183   2.823
18695W        W83955   7.731   5.296   0.474
18696W        W83956  19.555   1.264  14.363
18697W        W83957   5.217   7.820  14.759
18698W        W83958  21.796   9.883   2.404
18699W        W83959  30.910  31.250   4.321
18700W        W83960  39.812  39.501  11.583
18701W        W83961  27.716  11.105  12.631
18702W        W83962  19.518   4.976   5.010
18703W        W83963  12.227   1.966   1.242
18704W        W83964  42.954   2.283  13.591
18705W        W83965  23.464   3.529  13.342
18706W        W83966  14.768  26.493  13.966
18707W        W83967  28.653  25.332   1.243
18708W        W83968  34.600  21.609   4.712
18709W        W83969  19.687  28.598  14.209
18710W        W83970  13.687  15.156  10.575
18711W        W83971  19.615  25.971   4.499
18712W        W83972  21.002  26.617  14.378
18713W        W83973  28.626  21.212  13.021
18714W        W83974  23.970  25.583  14.843
18715W        W83975  31.687  22.796  12.528
18716W        W83976  19.609  22.265  12.974
18717W        W83977  28.544  29.175   3.219
18718W        W83978   8.824  42.812   2.814
18719W        W83979  11.726  27.933   4.753
18720W        W83980  18.754  23.207   0.324
18721W        W83981  44.055  18.123  11.039
18722W        W83982  42.996   6.849  10.804
18723W        W83983   7.459  35.993  12.422
18724W        W83984  19.772  30.488   0.062
18725W        W83985  37.448  24.978  12.364
18726W        W83986  15.677  35.972   1.304
18727W        W83987  42.889  22.561  13.170
18728W        W83988   8.897   7.789  13.484
18729W        W83989  24.961   9.284   1.692
18730W        W83990  21.689  31.360  14.390
18731W        W83991   4.474  37.381   1.928
18732W        W83992  10.136  39.027   0.750
18733W        W83993  43.556  40.581   3.360
18734W        W83994  36.130  12.616  14.412
18735W        W83995  27.133  29.838   3.185
18736W        W83996  29.326  11.088  13.074
18737W        W83997  26.118  16.805   3.149
18738W        W83998  42.515  15.626   1.600
18739W        W83999  33.423  29.753   5.029
18740W        W84000  14.975  10.455   3.170
18741W        W84001   1.032  11.035  12.087
18742W        W84002  33.012  43.254   4.887
18743W        W84003   5.623   4.428  12.964
18744W        W84004  42.943   4.901  13.067
18745W        W84005  23.115   3.095   1.760
18746W        W84006   1.954  38.968   2.871
18747W        W84007   5.324   8.278  14.570
18748W        W84008  24.890  31.536   1.047
18749W        W84009   5.476  41.404  13.571
18750W        W84010  26.971  37.246   3.619
18751W        W84011   1.757  21.253   3.763
18752W        W84012  38.341  21.061   3.243
18753W        W84013  40.216  14.568  11.487
18754W        W84014  20.133   9.031   1.831
18755W        W84015  37.729  43.819  14.024
18756W        W84016  12.678  44.322  11.575
18757W        W84017   1.009  27.365   0.413
18758W        W84018  28.706  30.870  14.864
18759W        W84019  30.498   5.316  12.871
18760W        W84020  34.130   0.254   0.897
18761W        W84021  24.176  26.560   4.480
18762W        W84022   3.293  18.677  14.785
18763W        W84023   0.771   5.720   2.584
18764W        W84024  44.447  26.765   4.164
18765W        W84025  40.303   3.399   1.177
18766W        W84026  10.199  44.477  14.511
18767W        W84027  41.537  42.993   4.110
18768W        W84028  22.233  37.527   3.252
18769W        W84029  41.272  11.869   9.633
18770W        W84030  38.094  20.789   0.920
18771W        W84031  18.050  39.751   2.303
18772W        W84032  13.670  35.512   2.825
18773W        W84033  43.078   0.460  14.494
18774W        W84034  18.707  44.050  14.102
18775W        W84035   6.972  20.654   3.304
18776W        W84036  38.985   3.198   2.438
18777W        W84037  38.439  37.482   2.453
18778W        W84038  30.323  30.962   4.744
18779W        W84039  11.722  21.239  13.128
18780W        W84040  22.255  15.631   0.272
18781W        W84041  26.601  36.293   3.356
18782W        W84042  44.293   7.365  13.073
18783W        W84043   8.821  44.934   4.529
18784W        W84044  24.911  21.460  14.415
18785W        W84045   5.740   4.727  10.776
18786W        W84046  29.438  41.151  14.462
18787W        W84047  36.160  15.849   2.299
18788W        W84048  14.841   3.287   4.472
18789W        W84049  25.980   5.469  10.219
18790W        W84050  35.130  37.324  11.929
18791W        W84051  24.688  13.633  11.425
18792W        W84052  33.564  26.914  12.490
18793W        W84053  10.693  24.515   1.434
18794W        W84054  29.288  33.504   4.897
18795W        W84055   7.399   4.690   3.093
18796W        W84056   9.782  36.063  10.942
18797W        W84057  40.981  15.101  11.277
18798W        W84058  10.351  12.565  13.944
18799W        W84059  23.837   5.138   2.266
18800W        W84060  17.670  15.122   2.873
18801W        W84061  37.359  37.589  12.954
18802W        W84062  25.622  37.942   4.108
18803W        W84063  15.167  39.086  11.160
18804W        W84064  10.484  44.284  10.625
18805W        W84065  30.252   8.862   3.656
18806W        W84066  28.930  35.542   0.003
18807W        W84067  20.692   2.915  13.325
18808W        W84068   6.258  39.923  13.504
18809W        W84069  38.113   3.720   4.289
18810W        W84070  43.231   4.238  12.544
18811W        W84071   8.643  32.922   3.265
18812W        W84072   6.777  30.908   3.651
18813W        W84073  17.526  32.878   1.311
18814W        W84074  43.800  37.892  10.561
18815W        W84075  18.157  20.427  13.053
18816W        W84076  44.749  34.364  13.899
18817W        W84077  14.217  36.869  13.515
18818W        W84078  19.858  15.644   3.248
18819W        W84079  23.262  39.796  14.642
18820W        W84080  44.027   9.631   3.039
18821W        W84081  16.216  36.067   0.770
18822W        W84082  12.699   4.699   3.708
18823W        W84083  37.036   3.222  14.292
18824W        W84084  19.237  12.401   1.336
18825W        W84085   7.463  34.711  13.004
18826W        W84086  21.723  10.721   1.928
18827W        W84087  24.645  22.484   1.413
18828W        W84088  37.382  21.975   1.909
18829W        W84089   4.820  32.375  10.208
18830W        W84090  23.088  22.662  11.162
18831W        W84091  14.609  27.050   2.377
18832W        W84092   6.056  16.348  12.658
18833W        W84093  39.506  18.886  13.556
18834W        W84094  15.984   1.381   1.838
18835W        W84095   9.308  17.570  14.080
18836W        W84096  37.694  19.662  12.076
18837W        W84097  28.925  26.506   2.366
18838W        W84098  12.587   0.550  14.409
18839W        W84099   6.753  31.855   2.317
18840W        W84100   5.887  21.249   4.562
18841W        W84101  16.085   0.832   2.900
18842W        W84102   5.401  24.109   1.338
18843W        W84103   0.021  18.475  12.453
18844W        W84104  33.984  41.835   4.566
18845W        W84105   2.210  39.911   0.476
18846W        W84106  39.101   1.476  11.821
18847W        W84107  42.071  35.456   3.581
18848W        W84108  35.034   6.408  12.324
18849W        W84109   7.753  21.176   3.256
18850W        W84110  21.716  25.042   1.757
18851W        W84111  24.792  38.125  12.082
18852W        W84112  22.483  15.826   3.057
18853W        W84113  18.220   9.290  11.350
18854W        W84114  27.551  26.113   1.001
18855W        W84115   3.866   7.266   4.706
18856W        W84116   8.392  34.850   0.978
18857W        W84117  25.050  38.598   0.248
18858W        W84118   1.991  19.450  12.513
18859W        W84119  39.267  11.674  12.650
18860W        W84120   8.874  25.626  11.654
18861W        W84121   3.758   3.278  10.892
18862W        W84122  27.002  29.902  12.025
18863W        W84123  38.844   4.866   4.153
18864W        W84124  13.348  21.979  14.902
18865W        W84125  41.294   9.215  11.740
18866W        W84126  25.105  38.843  13.835
18867W        W84127  23.561   5.597   2.295
18868W        W84128  23.770  21.629  11.642
18869W        W84129  21.058  18.899   0.289
18870W        W84130  19.670  19.490  14.753
18871W        W84131  34.896  28.905   2.674
18872W        W84132  14.730  16.315   4.645
18873W        W84133  40.591  38.329  10.517
18874W        W84134  34.436   0.816  10.313
18875W        W84135  39.671  35.478   0.945
18876W        W84136   1.382  28.211  13.273
18877W        W84137  26.675   6.782   2.408
18878W        W84138  30.904   0.784   0.515
18879W        W84139  31.114   6.390  12.726
18880W        W84140  27.822   0.933  12.427
18881W        W84141  24.926  20.079  14.377
18882W        W84142  11.199  11.408  13.887
18883W        W84143   5.392  28.438  13.428
18884W        W84144  43.746  26.685   1.596
18885W        W84145  21.246  15.186  13.638
18886W        W84146  10.762  12.624   3.132
18887W        W84147  16.686  15.115  13.982
18888W        W84148   2.724  35.890   3.901
18889W        W84149  30.340  25.879   0.335
18890W        W84150  17.313  30.358   3.231
18891W        W84151  28.104  24.646  11.893
18892W        W84152  19.513  43.807  14.459
18893W        W84153  30.004  29.216   5.240
18894W        W84154  11.586  21.117   1.386
18895W        W84155  13.850   8.916   3.351
18896W        W84156   1.267  34.852   1.245
18897W        W84157   1.206  41.884  12.517
18898W        W84158  19.142  40.505   0.410
18899W        W84159   3.430   4.867   1.264
18900W        W84160   6.155   3.407   3.238
18901W        W84161  10.269  28.007   2.890
18902W        W84162   7.060   4.493  14.770
18903W        W84163  11.279  36.420   1.956
18904W        W84164  38.439  16.752  13.239
18905W        W84165  42.626  10.826  10.630
18906W        W84166  30.571  10.438   0.850
18907W        W84167  41.456  27.187  11.598
18908W        W84168  13.424  14.083  11.214
18909W        W84169  25.057   5.508  14.399
18910W        W84170  43.403   3.884   1.881
18911W        W84171   1.389  31.667   4.760
18912W        W84172  37.809  25.900   1.096
18913W        W84173  32.994  29.202   1.209
18914W        W84174  33.838   5.343  13.493
18915W        W84175   1.562  44.058   1.478
18916W        W84176  29.096  27.541   0.230
18917W        W84177  11.048  19.754   1.542
18918W        W84178  38.574  23.474   2.137
18919W        W84179   7.834  27.227  13.092
18920W        W84180   2.167  13.167  11.462
18921W        W84181   8.920  33.027   4.794
18922W        W84182  12.438   9.340   0.743
18923W        W84183  37.281   7.176   1.349
18924W        W84184  11.259  32.118  13.458
18925W        W84185  38.568   8.064  14.376
18926W        W84186  19.328  24.293   3.203
18927W        W84187  41.479  36.323  14.979
18928W        W84188  21.300   1.870  14.588
18929W        W84189  38.970  31.328  13.418
18930W        W84190  38.960  34.940   2.184
18931W        W84191   5.153   7.246  12.048
18932W        W84192  20.165   1.736  12.440
18933W        W84193  39.067  32.912  12.083
18934W        W84194   8.964   5.467   4.133
18935W        W84195  41.430  13.212   2.783
18936W        W84196  29.610  25.519  11.952
18937W        W84197  44.399  14.230   3.880
18938W        W84198  15.874  23.733  13.928
18939W        W84199  13.747   3.188   2.194
18940W        W84200  19.740  33.318   1.378
18941W        W84201  28.410   3.388  13.045
18942W        W84202  36.078  19.305  12.479
18943W        W84203  35.032  27.402   2.920
18944W        W84204  35.110   4.830   4.217
18945W        W84205  32.931  28.521  14.318
18946W        W84206  27.211  25.150   1.289
18947W        W84207  37.293   9.066  14.837
18948W        W84208  32.690  39.040  12.781
18949W        W84209   9.715  41.099  11.053
18950W        W84210  41.764  15.702  14.722
18951W        W84211  26.675  14.275  13.519
18952W        W84212  22.430   6.939   1.847
18953W        W84213  19.129  17.044   3.307
18954W        W84214   6.290  24.528   2.239
18955W        W84215  34.076  43.661  13.004
18956W        W84216   1.424   3.852  13.956
18957W        W84217  18.972   0.944  14.003
18958W        W84218  40.034  11.219  14.220
18959W        W84219  18.684  37.327   4.595
18960W        W84220   0.466  15.774   1.664
18961W        W84221  12.032  42.614   1.767
18962W        W84222   5.087   1.238   1.297
18963W        W84223  29.515  28.934   2.796
18964W        W84224  33.414  17.168   1.762
18965W        W84225   8.176  32.446   4.271
18966W        W84226  28.961  12.771  11.433
18967W        W84227  17.411  29.577  12.033
18968W        W84228  26.948   9.818   0.292
18969W        W84229  38.396  25.493  11.550
18970W        W84230   9.197  16.547   0.417
18971W        W84231  36.559  19.939   2.869
18972W        W84232  24.716   6.928   0.394
18973W        W84233  18.884  11.818  13.669
18974W        W84234   3.942  16.161  11.489
18975W        W84235  33.566  42.404   0.872
18976W        W84236  28.452  16.289   4.613
18977W        W84237   1.242   3.727  13.475
18978W        W84238   2.268  25.724  12.900
18979W        W84239  11.665  28.014  11.448
18980W        W84240  41.997  37.834   0.956
18981W        W84241  23.021  30.000  13.018
18982W        W84242  21.596  17.542  10.668
18983W        W84243   2.972  27.570   2.116
18984W        W84244  33.122  37.586   3.318
18985W        W84245  18.648  11.796   3.536
18986W        W84246  12.160  14.530  12.530
18987W        W84247  19.292   9.125   0.450
18988W        W84248  21.493  35.461  10.088
18989W        W84249  10.751  42.819   1.691
18990W        W84250  17.613   3.766  10.692
18991W        W84251  33.618  11.699  14.449
18992W        W84252   2.756  37.755   3.730
18993W        W84253  38.624  35.023  12.748
18994W        W84254  28.257  41.930  10.251
18995W        W84255   1.876  44.479   4.841
18996W        W84256  30.001  40.740  11.520
18997W        W84257   7.398  32.133   3.698
18998W        W84258  44.464  41.419  13.343
18999W        W84259  31.056  26.915   3.227
19000W        W84260  15.084  27.678   4.594
19001W        W84261  16.525  14.073   1.200
19002W        W84262  41.637   4.530   0.298
19003W        W84263  16.511  22.112   3.392
19004W        W84264  41.939   1.501   2.899
19005W        W84265  37.358  40.360  14.950
19006W        W84266  34.382  10.949  13.798
19007W        W84267  36.448  34.860  12.491
19008W        W84268  37.404   9.606  13.882
19009W        W84269  41.980  39.948  10.958
19010W        W84270  33.082  22.008   0.009
19011W        W84271  15.263  41.096   3.780
19012W        W84272  20.575   1.776  12.126
19013W        W84273  43.510  43.906   1.689
19014W        W84274  33.209   9.469  13.887
19015W        W84275   8.220  36.536  12.957
19016W        W84276   7.848   7.844   2.963
19017W        W84277  41.790   3.379  14.948
19018W        W84278  35.515  24.473  12.888
19019W        W84279  22.999   3.785  13.747
19020W        W84280  26.665   2.899   4.730
19021W        W84281  30.648   4.767  11.703
19022W        W84282  14.853  19.139   2.663
19023W        W84283  22.629  31.612   3.354
19024W        W84284  15.308   9.309   1.007
19025W        W84285  35.811  16.659   0.030
19026W        W84286  19.306   8.054   0.078
19027W        W84287  21.273   2.377   3.654
19028W        W84288  43.421  28.648   2.638
19029W        W84289  29.727   6.830   2.041
19030W        W84290  24.739  34.802   3.231
19031W        W84291  42.720  13.744   4.130
19032W        W84292  39.599  44.069  13.791
19033W        W84293   8.885  18.585   3.168
19034W        W84294  33.571  24.046  14.425
19035W        W84295  18.737  10.323   1.750
19036W        W84296  28.993   7.625  13.719
19037W        W84297  16.010  28.768   4.505
19038W        W84298  29.140  38.282  14.829
19039W        W84299  28.708   7.623  14.971
19040W        W84300  38.084  27.418  10.666
19041W        W84301  39.299  33.261   3.712
19042W        W84302  24.554  31.161  10.693
19043W        W84303   0.224  11.707  13.083
19044W        W84304   1.572  35.485  11.203
19045W        W84305  26.537  11.635  13.019
19046W        W84306  11.234  39.426   3.761
19047W        W84307   6.419  31.880  14.036
19048W        W84308  14.629  37.843  10.709
19049W        W84309  41.415   0.004  14.841
19050W        W84310  37.370  12.705   2.852
19051W        W84311  12.832  32.859  11.179
19052W        W84312  24.016  14.799   2.092
19053W        W84313  26.611  21.695  12.130
19054W        W84314   5.833  11.942  13.429
19055W        W84315  15.698  25.045  10.580
19056W        W84316  15.734   1.712  13.035
19057W        W84317  16.668  40.601   0.879
19058W        W84318  44.121  11.442  11.591
19059W        W84319  22.745  23.462   1.408
19060W        W84320  35.170  39.345  12.569
19061W        W84321  40.223  34.028  12.041
19062W        W84322  24.633  16.650   4.145
19063W        W84323  18.710  10.180  10.529
19064W        W84324   7.907  27.029   1.349
19065W        W84325  30.317  15.337   1.528
19066W        W84326   0.839  30.393  13.757
19067W        W84327  10.295  15.222   0.916
19068W        W84328  27.695  41.977  11.940
19069W        W84329  28.747  13.589  12.084
19070W        W84330  43.876  30.378  10.770
19071W        W84331  19.599   2.779   1.921
19072W        W84332  38.035  39.618  14.231
19073W        W84333  28.088  10.068  13.934
19074W        W84334  13.745   9.327  12.056
19075W        W84335   0.537  44.309  12.010
19076W        W84336  18.317  19.450  11.943
19077W        W84337  31.622  36.032  11.225
19078W        W84338   5.425  21.277   2.849
19079W        W84339  39.300   8.598   4.284
19080W        W84340  35.353   6.218  11.041
19081W        W84341  40.053   0.976   4.985
19082W        W84342  25.482  20.304   4.145
19083W        W84343  44.787  11.477   1.388
19084W        W84344  38.871   0.783  13.559
19085W        W84345  32.704   2.605   1.972
19086W        W84346  36.484  44.787   4.961
19087W        W84347  20.806  22.561   5.022
19088W        W84348  39.326  42.660  12.071
19089W        W84349  19.303  31.478  10.740
19090W        W84350  27.120  22.110  10.867
19091W        W84351  22.456  10.449   0.756
19092W        W84352  27.627  31.613   1.385
19093W        W84353   2.716   6.287  11.006
19094W        W84354  23.943   6.374   2.301
19095W        W84355  39.152   6.096  12.452
19096W        W84356  32.900  41.739   2.874
19097W        W84357   0.513  31.593  12.586
19098W        W84358   7.803  35.137  10.724
19099W        W84359   0.702  19.305  13.814
19100W        W84360   9.478  14.104  11.601
19101W        W84361  44.725  30.295  11.987
19102W        W84362  43.836  25.622   3.845
19103W        W84363  26.163  27.120   4.175
19104W        W84364  43.557  25.961   2.271
19105W        W84365   2.806  25.113   1.965
19106W        W84366   1.368  15.068  12.907
19107W        W84367   3.874   9.678  14.461
19108W        W84368   3.200  19.069   3.344
19109W        W84369  22.690  14.914  14.967
19110W        W84370  41.564   0.421   1.662
19111W        W84371  23.566  10.651  11.760
19112W        W84372  18.017  36.907   2.682
19113W        W84373  27.252  20.737  14.223
19114W        W84374  44.426  12.858   1.439
19115W        W84375  32.116  41.507  10.201
19116W        W84376  15.685  13.301   4.637
19117W        W84377  29.071  28.597  13.797
19118W        W84378  26.895  39.344   3.759
19119W        W84379  12.771   3.927  11.512
19120W        W84380  12.904  22.467   3.591
19121W        W84381  29.130  34.909  13.367
19122W        W84382  37.264  37.387   4.981
19123W        W84383  17.042  40.980   0.869
19124W        W84384  18.954  39.457  14.705
19125W        W84385  16.844  22.170  13.665
19126W        W84386  29.856  38.423  10.673
19127W        W84387  23.028  16.129  13.798
19128W        W84388  25.529  25.860  14.096
19129W        W84389  14.218  24.569  11.153
19130W        W84390   1.926  25.973   2.305
19131W        W84391   3.136  44.699  12.971
19132W        W84392  17.720  10.328  11.641
19133W        W84393  16.681  11.777   1.797
19134W        W84394   6.238  25.859  12.058
19135W        W84395   6.286  42.313  11.924
19136W        W84396  23.356  35.502   2.400
19137W        W84397  44.764  42.472  11.236
19138W        W84398  29.960   5.876   1.373
19139W        W84399  18.586  12.801   4.595
19140W        W84400  32.817  44.409   0.759
19141W        W84401  31.924  32.916   2.667
19142W        W84402  40.707   8.041   1.720
19143W        W84403  23.313   1.622  14.941
19144W        W84404  42.374  24.526   1.131
19145W        W84405  24.312  30.055   0.317
19146W        W84406   9.014  36.766   0.384
19147W        W84407   7.979  11.067   0.883
19148W        W84408   0.027  31.963  14.850
19149W        W84409  32.076  10.403   2.704
19150W        W84410  32.041  38.317   2.288
19151W        W84411  27.675  39.655   2.727
19152W        W84412  31.572  44.761   4.154
19153W        W84413  19.821  20.217  12.473
19154W        W84414  29.442  32.560   3.677
19155W        W84415  39.387  20.035   2.369
19156W        W84416  15.340  18.500  11.155
19157W        W84417  14.596  24.268   0.603
19158W        W84418  21.146  31.398   3.700
19159W        W84419  28.448  37.832   1.701
19160W        W84420   1.709  25.487   1.847
19161W        W84421  29.042  44.892   4.016
19162W        W84422  16.684  25.687   1.803
19163W        W84423  25.661  28.070   0.209
19164W        W84424  43.297  26.549  11.988
19165W        W84425  26.110   4.672   0.434
19166W        W84426  36.833  40.455   1.902
19167W        W84427  26.453  31.314  11.091
19168W        W84428  11.807  32.425  14.546
19169W        W84429  20.421  35.407   4.153
19170W        W84430  43.983  19.952   2.151
19171W        W84431  44.624   0.078   5.090
19172W        W84432  32.885  32.045   1.194
19173W        W84433  41.773  25.598   1.207
19174W        W84434  29.199  29.506  14.186
19175W        W84435   8.400   4.075   0.761
19176W        W84436  24.604  24.661   1.434
19177W        W84437  10.734  42.637   1.203
19178W        W84438  44.955  33.408  12.860
19179W        W84439  33.068  38.968   4.166
19180W        W84440   4.806   9.486  14.488
19181W        W84441  38.480  31.530  13.495
19182W        W84442  20.080   0.941   3.571
19183W        W84443  21.995  13.665   1.936
19184W        W84444  11.875  33.445  14.497
19185W        W84445   9.405  32.043  14.352
19186W        W84446  33.676  27.738   3.254
19187W        W84447  22.654  30.493  14.821
19188W        W84448   6.472   9.303   3.532
19189W        W84449   2.515  25.720   0.099
19190W        W84450  39.330  13.327  14.081
19191W        W84451  21.081  11.583   1.680
19192W        W84452  27.021  17.355  14.573
19193W        W84453  17.899   0.380  12.628
19194W        W84454   8.629  10.128  10.732
19195W        W84455  42.318  12.210   0.355
19196W        W84456   1.148  42.394   4.570
19197W        W84457   1.436  42.540   2.200
19198W        W84458  44.830  27.708  11.598
19199W        W84459  32.889  41.285   2.677
19200W        W84460  41.206  28.151  13.771
19201W        W84461  13.559  44.988  12.830
19202W        W84462   0.741  22.673  14.038
19203W        W84463  36.589  41.296   4.664
19204W        W84464  24.958  27.672  12.954
19205W        W84465  34.105  20.844  10.767
19206W        W84466  44.966  35.586   3.344
19207W        W84467  13.414  12.188   1.295
19208W        W84468  40.649  27.524   4.273
19209W        W84469  21.992  43.994  11.443
19210W        W84470   8.482  35.620  14.869
19211W        W84471  17.159  36.466  10.642
19212W        W84472  16.704  39.034   0.803
19213W        W84473   0.450   3.283   1.052
19214W        W84474  22.860  33.625  10.232
19215W        W84475  34.822  34.528   1.813
19216W        W84476  42.587  11.504   2.009
19217W        W84477  41.352   7.087  12.522
19218W        W84478  44.935   6.125  14.159
19219W        W84479   9.170  19.059  12.453
19220W        W84480  43.628   2.758  11.965
19221W        W84481  22.571   1.009   4.554
19222W        W84482  34.583   5.543   1.312
19223W        W84483  17.395  42.627  13.304
19224W        W84484  26.337  43.482   5.007
19225W        W84485  19.669  30.556  14.503
19226W        W84486  30.123  33.609  11.457
19227W        W84487  32.393  17.356   0.445
19228W        W84488   1.061   1.823  10.642
19229W        W84489  16.145  32.613  11.977
19230W        W84490  12.313  41.966  13.884
19231W        W84491   1.990  33.075   3.155
19232W        W84492  40.815   8.876  12.534
19233W        W84493  34.915  30.274  13.401
19234W        W84494  33.125  24.506  11.188
19235W        W84495  30.104  31.147  11.200
19236W        W84496  44.748  44.506  13.668
19237W        W84497  41.077   7.113   0.015
19238W        W84498  33.890  41.544   2.730
19239W        W84499   3.285  32.823  14.980
19240W        W84500   8.880  36.619  13.403
19241W        W84501  41.413  36.993   4.717
19242W        W84502  36.132  17.823  13.375
19243W        W84503  28.800  26.161   5.029
19244W        W84504  27.679  13.294  14.750
19245W        W84505  11.261  28.982  13.461
19246W        W84506  42.337  11.104   3.394
19247W        W84507  42.323  34.397   4.147
19248W        W84508  34.333  32.071  11.456
19249W        W84509  20.680  32.081  14.074
19250W        W84510  22.997  42.801  11.445
19251W        W84511  41.020   2.796   2.612
19252W        W84512  10.075  39.098   0.254
19253W        W84513  21.468  39.751  10.732
19254W        W84514  26.621  37.636  13.060
19255W        W84515  10.999  30.950   4.846
19256W        W84516   7.241   8.337   0.194
19257W        W84517  33.861  17.456  12.593
19258W        W84518   4.796  43.641  14.480
19259W        W84519  20.173  27.091  11.946
19260W        W84520   6.896  23.601  11.413
19261W        W84521  33.041  34.518  13.094
19262W        W84522   6.350  34.576  13.874
19263W        W84523  20.170  40.981   2.140
19264W        W84524  22.148  25.947   0.726
19265W        W84525  13.934  44.907  12.466
19266W        W84526   0.287  41.356  13.891
19267W        W84527  33.124  19.320   2.843
19268W        W84528  37.141  11.319   1.917
19269W        W84529  23.964  41.966   4.911
19270W        W84530  16.912  22.416  14.140
19271W        W84531  38.988  30.324  13.473
19272W        W84532  38.804  41.920   3.117
19273W        W84533  16.850   4.423   4.260
19274W        W84534  12.009  38.576  11.395
19275W        W84535   1.845  11.992   3.340
19276W        W84536  23.620  12.862  11.973
19277W        W84537  37.118  15.162   2.864
19278W        W84538  39.396  12.903  11.387
19279W        W84539   2.470  17.653   2.622
19280W        W84540   5.411  34.190   0.332
19281W        W84541  21.690   7.217  13.849
19282W        W84542  26.985  42.934   1.910
19283W        W84543  14.226  35.630  14.044
19284W        W84544  10.005  41.285   3.334
19285W        W84545  15.241  24.159  14.459
19286W        W84546  27.645  18.674  12.625
19287W        W84547  13.306  31.107   0.903
19288W        W84548  15.093  37.826  10.474
19289W        W84549  40.694   8.806   4.110
19290W        W84550  41.966  16.823   1.876
19291W        W84551  35.137  44.249  12.056
19292W        W84552  30.099  42.703   2.374
19293W        W84553   0.914  36.349  10.698
19294W        W84554  22.528  28.282   0.987
19295W        W84555  35.761  20.837  12.439
19296W        W84556  44.983   5.826  12.032
19297W        W84557  14.213  10.521  12.466
19298W        W84558  31.153  39.330   3.425
19299W        W84559  19.762  24.916   2.749
19300W        W84560   8.864   8.642   3.578
19301W        W84561  38.454  39.013   0.340
19302W        W84562  37.631   1.745  11.651
19303W        W84563  29.597   0.399   3.614
19304W        W84564  44.234  14.277   2.384
19305W        W84565  43.764  35.562  13.469
19306W        W84566   1.948  34.922  12.041
19307W        W84567  27.110  30.852  10.729
19308W        W84568   1.650   1.286  13.401
19309W        W84569  16.122   8.142   2.355
19310W        W84570  23.730  38.388   4.563
19311W        W84571  43.071  15.655  12.938
19312W        W84572  23.691  38.446   1.928
19313W        W84573  20.530  38.338  12.196
19314W        W84574  20.702  32.646  10.553
19315W        W84575  11.680  36.906  11.575
19316W        W84576  29.089  27.389   1.770
19317W        W84577  10.194  41.372  11.562
19318W        W84578  34.409   4.196   0.708
19319W        W84579  16.113  15.195  10.972
19320W        W84580  32.128  18.513  11.052
19321W        W84581  35.654  36.556  14.292
19322W        W84582  41.381  12.812   2.419
19323W        W84583  44.383  30.272  10.170
19324W        W84584   9.157  43.253  11.539
19325W        W84585  34.554  26.933  14.317
19326W        W84586  23.078  36.023   3.965
19327W        W84587   0.344  20.471  13.498
19328W        W84588  38.949  34.581  13.953
19329W        W84589  30.505  12.716   0.400
19330W        W84590  15.679  39.623  11.193
19331W        W84591   7.760   2.339   2.593
19332W        W84592  44.764  31.187  10.990
19333W        W84593  42.475  38.983   3.186
19334W        W84594  22.261  33.841  14.757
19335W        W84595   8.245  14.984  11.564
19336W        W84596  28.013  17.216   2.886
19337W        W84597  34.843   7.439  14.116
19338W        W84598  43.338  18.284   3.174
19339W        W84599  29.141  30.240  14.084
19340W        W84600  35.733  20.772  11.432
19341W        W84601   7.704  38.698   2.352
19342W        W84602   8.480  34.683  13.799
19343W        W84603  41.086   2.412  12.445
19344W        W84604   8.840  27.679  12.409
19345W        W84605  20.161  33.108   2.628
19346W        W84606  33.481   0.493  12.378
19347W        W84607  39.460   4.906  13.895
19348W        W84608  30.002  23.587   3.255
19349W        W84609  10.752  16.513  12.003
19350W        W84610   5.695  14.071   4.277
19351W        W84611   6.734  38.041  14.226
19352W        W84612  40.087   8.298  10.952
19353W        W84613   8.879  20.359  12.017
19354W        W84614  38.467   5.675   1.955
19355W        W84615  24.619  30.455  14.059
19356W        W84616  44.466  19.026  10.206
19357W        W84617  23.858  38.350  12.797
19358W        W84618  39.635   6.168  12.799
19359W        W84619  21.310   3.202  14.886
19360W        W84620  41.396  23.672   0.807
19361W        W84621   4.858  23.591  14.438
19362W        W84622  30.850  23.099  14.103
19363W        W84623  26.405  41.244   4.785
19364W        W84624  15.020   8.628   1.800
19365W        W84625   4.940   6.926  14.314
19366W        W84626  11.056  42.933   3.239
19367W        W84627   1.505  11.049  11.889
19368W        W84628  22.841  33.152   0.830
19369W        W84629  42.020  26.127   1.219
19370W        W84630  10.783  43.867  10.436
19371W        W84631  18.027  13.760   0.379
19372W        W84632  12.712  41.940   1.283
19373W        W84633  40.047  12.169  14.094
19374W        W84634  10.257  18.594  11.392
19375W        W84635  30.409  25.940  12.024
19376W        W84636  38.366   3.371   1.635
19377W        W84637  33.951   6.281   4.909
19378W        W84638  26.959  25.584  13.398
19379W        W84639  13.426  23.484  13.815
19380W        W84640  15.946  30.190  11.605
19381W        W84641   6.393  21.329  10.982
19382W        W84642  23.674   3.447   3.324
19383W        W84643   6.460  44.825   2.276
19384W        W84644  24.763  21.239   0.285
19385W        W84645  36.776  36.457   0.761
19386W        W84646   7.879  31.475  10.733
19387W        W84647   2.001   8.823  11.350
19388W        W84648  32.675  23.066  11.608
19389W        W84649  29.419  21.004  11.928
19390W        W84650  19.584   1.508  13.405
19391W        W84651  41.793  33.108   3.259
19392W        W84652  34.221  28.869  10.651
19393W        W84653  12.597  30.403  14.824
19394W        W84654  33.609  39.330   4.807
19395W        W84655  20.966  35.338   1.321
19396W        W84656  43.926  20.486  13.001
19397W        W84657   4.059  29.021   0.857
19398W        W84658   4.092  15.107  12.364
19399W        W84659  13.533  34.520  12.491
19400W        W84660  34.590  42.137  13.348
19401W        W84661  11.060  17.073   2.355
19402W        W84662  12.133   8.105   0.969
19403W        W84663   9.338  34.953   4.545
19404W        W84664  26.152   8.101   1.236
19405W        W84665  35.390  11.466   3.455
19406W        W84666  27.803  27.027  11.050
19407W        W84667   2.083  22.910  10.785
19408W        W84668  38.215  22.973   4.772
19409W        W84669  12.235  30.962   3.229
19410W        W84670  16.152   1.885  12.279
19411W        W84671  35.787   3.822  13.706
19412W        W84672   8.936  19.195   0.919
19413W        W84673  12.404   0.291   2.547
19414W        W84674  16.270  12.684   3.783
19415W        W84675  13.727  41.011  12.615
19416W        W84676  11.768  27.133   0.843
19417W        W84677   6.538  20.061   0.851
19418W        W84678  11.446   0.403   2.421
19419W        W84679  22.953   0.498   2.485
19420W        W84680  16.914  14.591  10.958
19421W        W84681  26.494  34.586   1.909
19422W        W84682  16.617  39.642  12.670
19423W        W84683  34.672  27.594   4.129
19424W        W84684  13.144   1.790  12.456
19425W        W84685  21.383  21.713  12.145
19426W        W84686  26.052  21.176   3.172
19427W        W84687  24.971   7.781  14.769
19428W        W84688  21.540  31.821  14.548
19429W        W84689  20.730   9.791   2.112
19430W        W84690   6.663  25.457  12.179
19431W        W84691   1.292  28.527  14.060
19432W        W84692   8.907  42.801  11.624
19433W        W84693   1.209  39.586   2.854
19434W        W84694  28.399  17.894  13.776
19435W        W84695   0.164   0.505   2.667
19436W        W84696  36.137  28.465  11.572
19437W        W84697  44.874   8.159   0.882
19438W        W84698   0.194  25.690   0.985
19439W        W84699  41.701  15.289   5.096
19440W        W84700  27.637  24.981  12.528
19441W        W84701  43.458  10.839  11.570
19442W        W84702  23.227  44.511   0.853
19443W        W84703   0.845  12.303   0.076
19444W        W84704  34.302  39.925   3.986
19445W        W84705   4.491  34.915  11.105
19446W        W84706  22.321  44.341   4.729
19447W        W84707   8.963  42.477   0.313
19448W        W84708  29.993  38.273   3.398
19449W        W84709   8.578  34.923   4.107
19450W        W84710  12.132  33.520  11.410
19451W        W84711   8.311  27.439  13.106
19452W        W84712   8.444  29.027   3.622
19453W        W84713  18.975   3.829   1.970
19454W        W84714  26.666  20.362   0.974
19455W        W84715  40.577  42.984   3.093
19456W        W84716  19.534  30.107  10.615
19457W        W84717  25.160  33.188  10.744
19458W        W84718  22.132  26.482  13.765
19459W        W84719  43.922  39.298  10.769
19460W        W84720  24.238  25.218   2.767
19461W        W84721  40.109  40.912  14.868
19462W        W84722   2.221   7.424  11.123
19463W        W84723  11.221  44.419   3.239
19464W        W84724  19.178  42.859  10.523
19465W        W84725   2.365  42.316   0.938
19466W        W84726  33.391   9.483  12.487
19467W        W84727   2.748  18.545  11.645
19468W        W84728  32.449   9.422  11.222
19469W        W84729  24.705  15.996   0.499
19470W        W84730  37.432  31.925   5.003
19471W        W84731  14.667  14.646  13.396
19472W        W84732  24.486  34.862  10.736
19473W        W84733  22.987   1.291   3.006
19474W        W84734  34.203   6.866   2.710
19475W        W84735  36.411   1.381   3.335
19476W        W84736  36.792  36.916   1.901
19477W        W84737  29.175  43.251   2.593
19478W        W84738  43.337  39.759  11.438
19479W        W84739  29.133  12.331  13.296
19480W        W84740  20.716   8.243   0.931
19481W        W84741  28.637  31.153  11.498
19482W        W84742  19.344  30.005  12.156
19483W        W84743  30.992  22.078   0.206
19484W        W84744  26.008  28.537   1.736
19485W        W84745  13.393   3.442  12.643
19486W        W84746   3.033  27.496  12.840
19487W        W84747  42.011  44.714   0.687
19488W        W84748  17.765  35.496   0.133
19489W        W84749   6.788  14.305   2.594
19490W        W84750  39.933  29.584  13.096
19491W        W84751  30.635  11.876   1.795
19492W        W84752  16.267  22.054  11.938
19493W        W84753  10.845  38.833  10.242
19494W        W84754  15.348  32.425  11.567
19495W        W84755   1.921  35.389   4.265
19496W        W84756  27.161  10.955  10.691
19497W        W84757  23.549  23.856  12.617
19498W        W84758  41.335   1.855  14.446
19499W        W84759   2.349   9.022   3.064
19500W        W84760   2.571  32.790   0.978
19501W        W84761  39.788  42.046  14.788
19502W        W84762   8.559  38.496  11.512
19503W        W84763  30.672  44.334   1.682
19504W        W84764  31.520  32.443   1.437
19505W        W84765  22.359  43.877   0.877
19506W        W84766  16.879  15.771  11.916
19507W        W84767   6.682   7.203  11.555
19508W        W84768  27.227  27.968  13.888
19509W        W84769  14.119   8.753   0.778
19510W        W84770  21.068  27.462   0.515
19511W        W84771  11.369   5.987   2.204
19512W        W84772  25.935  22.290   0.339
19513W        W84773  26.247  28.102  11.135
19514W        W84774  22.737  10.166   0.423
19515W        W84775  25.659  29.064  13.125
19516W        W84776  24.744  41.367   3.196
19517W        W84777  21.232  16.706   2.353
19518W        W84778  37.349   0.119  10.814
19519W        W84779  31.937  24.985  11.682
19520W        W84780  44.912  37.765   1.275
19521W        W84781  33.299  14.726   2.555
19522W        W84782  16.528   0.853   4.143
19523W        W84783   6.335  16.637  13.522
19524W        W84784   6.675  26.942   9.682
19525W        W84785  31.965  29.621  12.035
19526W        W84786   7.871  30.570  10.845
19527W        W84787  16.264  19.941  14.989
19528W        W84788   1.863   4.532  12.131
19529W        W84789   1.531   0.015   3.663
19530W        W84790   6.566   4.961   2.157
19531W        W84791  12.304  16.796  13.990
19532W        W84792  17.714   8.027   1.418
19533W        W84793  34.508  20.508   0.376
19534W        W84794   0.436  39.408   0.486
19535W        W84795  35.408  41.782   3.363
19536W        W84796  12.428  33.517   0.483
19537W        W84797  21.710   3.268   3.732
19538W        W84798  24.117  11.935  14.303
19539W        W84799  27.506  19.349  10.132
19540W        W84800  43.513  27.259  10.122
19541W        W84801  32.914  21.324  11.454
19542W        W84802  42.944  18.583   0.328
19543W        W84803   3.847  43.052   1.974
19544W        W84804   6.190  29.652   4.243
19545W        W84805  27.949  37.084   1.583
19546W        W84806  34.564  29.893  14.288
19547W        W84807   3.820   4.642   4.347
19548W        W84808  18.727  22.525   1.423
19549W        W84809  31.760  19.113  14.809
19550W        W84810  30.243   5.925   2.301
19551W        W84811   1.438   7.603   1.259
19552W        W84812  44.783  24.996   0.352
19553W        W84813  25.857  23.617   2.401
19554W        W84814  30.015  37.983  10.446
19555W        W84815   5.730   8.995  13.833
19556W        W84816  10.730  35.844  14.954
19557W        W84817  21.580  11.751  11.084
19558W        W84818  24.751  26.548  14.981
19559W        W84819  39.737   7.754   4.226
19560W        W84820  11.611   0.102  12.853
19561W        W84821  15.891  30.733  10.523
19562W        W84822  31.105  44.880   4.358
19563W        W84823  43.300  23.137   2.078
19564W        W84824   3.825   7.163   3.666
19565W        W84825  31.191   8.173  13.551
19566W        W84826   9.587   8.712   2.907
19567W        W84827  41.589  19.137   2.451
19568W        W84828  13.296   2.958   0.728
19569W        W84829   4.730  33.293   3.327
19570W        W84830  30.357  42.012  10.779
19571W        W84831  38.639  32.997  14.393
19572W        W84832  44.909   7.762   1.698
19573W        W84833  16.455  38.604   0.815
19574W        W84834   8.732  19.535   1.317
19575W        W84835  12.903  16.863   2.299
19576W        W84836   7.837  43.273  12.918
19577W        W84837  10.336  15.167   3.747
19578W        W84838   4.848  28.097  10.530
19579W        W84839  14.578  18.721  14.934
19580W        W84840  16.121  25.546  11.156
19581W        W84841  42.750  43.179   0.307
19582W        W84842  36.043  41.580  12.840
19583W        W84843  38.558  30.662   4.670
19584W        W84844   6.976   8.012  11.198
19585W        W84845  12.964  44.731   4.431
19586W        W84846  20.904  33.087   3.292
19587W        W84847  23.686  36.012  11.911
19588W        W84848  10.793  19.612   1.044
19589W        W84849  44.341  42.054   3.847
19590W        W84850  35.339  34.469   3.665
19591W        W84851  11.749  28.572   0.152
19592W        W84852   6.259  21.703   4.633
19593W        W84853  27.972  25.899  13.371
19594W        W84854  18.792  44.625  13.033
19595W        W84855  16.216   9.223   1.453
19596W        W84856  23.304  29.890  11.124
19597W        W84857  43.535  20.531  13.328
19598W        W84858  40.737  37.458  13.843
19599W        W84859  40.297  41.059  14.362
19600W        W84860  37.075  13.819   3.604
19601W        W84861  10.200  22.312   2.304
19602W        W84862  25.146  44.339   4.700
19603W        W84863  23.189  25.116  13.501
19604W        W84864   3.732  22.289  10.819
19605W        W84865  10.593  38.701   1.638
19606W        W84866  20.508  20.247   2.138
19607W        W84867  24.770  14.562   0.390
19608W        W84868  30.161  13.741   0.274
19609W        W84869  35.759  17.601   3.033
19610W        W84870   9.319  44.421  12.920
19611W        W84871   7.633   0.558  12.425
19612W        W84872  16.621   5.207   4.691
19613W        W84873  20.516  23.049  14.086
19614W        W84874  23.696   6.979  11.220
19615W        W84875  26.831   5.317  13.367
19616W        W84876  27.966  21.220   2.406
19617W        W84877  41.811  24.595   2.815
19618W        W84878   8.800  44.337   2.063
19619W        W84879  41.371  30.807   2.780
19620W        W84880  26.825  21.004   3.696
19621W        W84881  10.699  21.064   2.640
19622W        W84882  11.420  13.733  14.077
19623W        W84883   2.465   9.458  14.465
19624W        W84884  18.658  26.494  11.382
19625W        W84885  34.442   3.582   1.297
19626W        W84886  43.514   6.793  10.685
19627W        W84887  16.074  17.647   2.219
19628W        W84888   5.280  44.513   2.363
19629W        W84889  31.631   2.417  14.764
19630W        W84890  31.636   2.836  13.010
19631W        W84891  30.725  41.440  13.965
19632W        W84892  22.518  39.013   2.146
19633W        W84893  18.179   0.824  10.931
19634W        W84894   4.889  44.848   9.784
19635W        W84895   7.851  33.681   1.021
19636W        W84896  23.464  23.188  11.995
19637W        W84897  13.338  31.469  10.949
19638W        W84898  34.992  31.595  10.969
19639W        W84899  32.843  39.533  12.011
19640W        W84900   2.845  26.622  13.329
19641W        W84901  36.050   2.890   3.404
19642W        W84902  38.341   2.545  12.450
19643W        W84903  24.659  44.247   1.785
19644W        W84904  31.863  20.781   1.309
19645W        W84905   8.138  42.874  13.545
19646W        W84906  15.575  34.928  14.836
19647W        W84907   6.201   9.441  13.051
19648W        W84908  42.985  23.987  11.189
19649W        W84909  40.255  12.558  10.760
19650W        W84910   1.312  40.408  12.528
19651W        W84911   2.651  39.889  11.365
19652W        W84912   2.053   0.705   4.005
19653W        W84913  13.910  18.171  12.419
19654W        W84914  43.517  36.067   3.669
19655W        W84915   3.476  25.574   0.484
19656W        W84916  28.654  25.221   3.132
19657W        W84917   3.833  34.396   4.592
19658W        W84918   4.489  17.074  12.468
19659W        W84919  32.471  18.978   0.397
19660W        W84920   1.214  13.386  11.481
19661W        W84921  33.490  17.702   2.328
19662W        W84922  29.722  28.191  14.867
19663W        W84923   9.982  37.439   1.726
19664W        W84924  34.897  24.745   4.467
19665W        W84925  34.406  28.908   2.864
19666W        W84926  39.443   4.457   2.143
19667W        W84927  44.877  21.307   0.477
19668W        W84928  25.189  10.684  12.722
19669W        W84929  18.238  28.257   4.169
19670W        W84930  15.311   2.242  10.429
19671W        W84931   6.394  22.569  14.195
19672W        W84932   8.700   4.780  14.597
19673W        W84933  32.902  31.159  11.470
19674W        W84934  34.148  30.987  13.488
19675W        W84935  10.961  34.075   2.798
19676W        W84936  39.349  31.405  13.930
19677W        W84937  20.503  38.949   0.339
19678W        W84938  44.186   5.407   0.991
19679W        W84939  23.758  41.068   4.352
19680W        W84940  29.486   1.335   1.834
19681W        W84941   9.571  11.919   0.878
19682W        W84942  28.410  19.947   0.666
19683W        W84943  38.430  29.933   4.310
19684W        W84944  30.551  31.632   4.344
19685W        W84945  11.789   7.699  10.147
19686W        W84946   1.946   3.845  13.910
19687W        W84947  40.478  20.327  11.083
19688W        W84948  23.048   9.824   4.097
19689W        W84949   2.445   8.508   2.949
19690W        W84950  44.574  22.194  12.619
19691W        W84951  23.694  36.801   1.458
19692W        W84952  40.856  24.988  12.443
19693W        W84953  28.088  17.339   3.813
19694W        W84954  19.162  31.487  12.537
19695W        W84955   6.710  34.703  10.730
19696W        W84956  30.395  13.202  13.593
19697W        W84957   8.255  41.268   3.190
19698W        W84958  43.475  44.025  13.774
19699W        W84959  44.523  16.789   1.013
19700W        W84960  44.198  17.176  13.798
19701W        W84961  37.604  14.058  13.619
19702W        W84962   9.384  43.736  11.615
19703W        W84963   3.723  19.994  11.505
19704W        W84964  12.882   4.426  11.613
19705W        W84965  12.818  22.720   1.090
19706W        W84966   0.087  16.760  13.782
19707W        W84967  20.215  33.558  12.686
19708W        W84968  26.032  38.733  11.186
19709W        W84969  14.104  38.335  14.658
19710W        W84970  25.992  30.456  14.880
19711W        W84971  31.147   9.813  14.784
19712W        W84972  42.009  39.503   2.464
19713W        W84973  20.615  36.204   2.728
19714W        W84974  17.100  29.946  12.205
19715W        W84975  23.944  21.235   2.466
19716W        W84976  21.774   9.237   3.241
19717W        W84977  31.370  20.106  13.334
19718W        W84978  29.063  24.632  12.135
19719W        W84979  25.267  12.607   1.384
19720W        W84980  43.487  36.904  12.531
19721W        W84981  26.483   6.312   4.229
19722W        W84982   9.023  30.424   3.298
19723W        W84983  37.157  36.380   0.334
19724W        W84984  40.445  11.978  12.500
19725W        W84985  31.532  43.224   4.232
19726W        W84986   3.384  37.772   3.891
19727W        W84987  28.864  15.298   0.934
19728W        W84988  15.725   9.401  11.563
19729W        W84989  36.984  21.051   2.811
19730W        W84990   9.776  34.716   0.528
19731W        W84991  28.735  31.350   2.817
19732W        W84992  37.160   9.687   4.131
19733W        W84993  31.579   3.244  14.445
19734W        W84994  20.034  42.109  10.959
19735W        W84995  29.927  25.994   9.775
19736W        W84996  15.171  25.508   3.352
19737W        W84997  31.720  28.317   4.179
19738W        W84998  30.913  38.783   0.883
19739W        W84999   4.382  16.607   3.345
19740W        W85000  31.736  40.104   0.716
19741W        W85001  22.109  14.108   1.210
19742W        W85002  23.082  35.998  14.278
19743W        W85003  20.131  20.735   2.877
19744W        W85004  23.978   0.905  12.494
19745W        W85005  30.936  12.909   3.219
19746W        W85006   2.482  17.204  11.593
19747W        W85007  15.619  44.916   0.800
19748W        W85008   8.932  21.566  12.335
19749W        W85009  27.645  21.266  10.351
19750W        W85010  41.563  36.846  13.271
19751W        W85011  29.759  17.259   0.271
19752W        W85012  15.798  28.790   0.395
19753W        W85013  15.330  13.793   4.411
19754W        W85014   0.570   0.434   3.757
19755W        W85015  11.714  18.811   0.860
19756W        W85016  38.351  44.202  13.508
19757W        W85017  43.845  13.674   1.247
19758W        W85018  33.385  42.804  13.446
19759W        W85019  10.250   9.110   0.479
19760W        W85020  39.078   7.286  11.242
19761W        W85021  25.797  32.626   1.975
19762W        W85022  42.390  40.994   0.946
19763W        W85023  25.256  15.782   0.089
19764W        W85024  21.268  44.445  10.479
19765W        W85025   8.681  10.297  14.338
19766W        W85026  42.454   6.429   2.597
19767W        W85027  17.373  10.049   1.692
19768W        W85028  35.335  30.144   4.601
19769W        W85029  11.205   7.405  13.471
19770W        W85030  28.679  14.783  12.528
19771W        W85031   2.416  36.313   5.023
19772W        W85032  40.810  37.851  10.757
19773W        W85033  43.798  16.581  12.455
19774W        W85034   6.699   5.021   2.646
19775W        W85035  20.506  35.424   9.759
19776W        W85036  16.104  32.347   4.156
19777W        W85037  26.047  35.940  10.947
19778W        W85038  10.781   4.343   0.671
19779W        W85039  24.681   0.712   3.431
19780W        W85040  28.285   9.936   3.838
19781W        W85041   7.813   4.926   2.852
19782W        W85042  44.247  38.950   1.204
19783W        W85043  39.348   2.734  11.536
19784W        W85044   3.135  11.299  14.882
19785W        W85045  14.495   3.199  11.093
19786W        W85046  31.421   7.580  14.823
19787W        W85047  39.763  25.172   1.307
19788W        W85048   8.504  10.895  13.072
19789W        W85049  21.660  38.447   0.030
19790W        W85050  13.606  35.914  11.938
19791W        W85051  12.835  28.485  10.615
19792W        W85052   1.711   1.236   0.085
19793W        W85053  35.174  14.848   2.384
19794W        W85054  33.958  28.058   4.169
19795W        W85055   5.176  32.483   0.750
19796W        W85056  34.020   9.936   1.235
19797W        W85057  15.696  30.102  11.161
19798W        W85058   3.919   9.239   3.813
19799W        W85059  33.996  26.372  13.152
19800W        W85060   9.418   0.365  13.088
19801W        W85061  11.736  30.176  12.947
19802W        W85062  23.120   7.374   0.250
19803W        W85063  21.525  32.709   1.272
19804W        W85064   4.714  36.846   3.330
19805W        W85065   8.724  39.632   0.846
19806W        W85066   5.585  38.380   2.144
19807W        W85067   1.836  31.486   3.918
19808W        W85068   8.356   7.641  12.154
19809W        W85069   9.452   4.701  12.284
19810W        W85070  21.200  14.431  14.387
19811W        W85071  39.541   0.379   3.627
19812W        W85072  40.394   2.022   3.759
19813W        W85073  20.641  12.498  11.118
19814W        W85074  26.964  31.995   4.872
19815W        W85075   9.278  25.457  10.700
19816W        W85076  34.037   6.816  11.056
19817W        W85077  25.482   4.334   2.838
19818W        W85078  35.527   6.512  13.445
19819W        W85079  24.589  10.061   3.750
19820W        W85080  27.464  36.171  11.053
19821W        W85081  13.302  40.055  13.433
19822W        W85082  21.962  16.588   0.023
19823W        W85083  34.044  12.803   2.887
19824W        W85084  28.988  26.660   5.018
19825W        W85085  11.326  33.205   2.882
19826W        W85086  32.222  36.309  10.475
19827W        W85087  41.759  19.686   4.023
19828W        W85088   7.639  14.574   0.441
19829W        W85089  44.283  36.948   4.081
19830W        W85090  18.725  24.557  10.747
19831W        W85091   8.258  17.802  13.441
19832W        W85092  43.764   0.555   2.142
19833W        W85093  11.529  33.094  12.615
19834W        W85094  32.693  19.019  13.896
19835W        W85095  26.882  34.106  12.462
19836W        W85096  23.420  40.603   4.338
19837W        W85097  33.468  40.275  13.512
19838W        W85098  16.097  11.738   0.391
19839W        W85099  23.958   9.431  12.082
19840W        W85100  30.009  28.969   3.220
19841W        W85101  42.922   3.422  11.302
19842W        W85102  38.255  14.682  12.501
19843W        W85103  38.350   0.811  13.528
19844W        W85104  43.969  40.666  14.461
19845W        W85105   6.357  26.704  11.915
19846W        W85106  23.188  38.047  13.419
19847W        W85107  29.292   9.620   3.867
19848W        W85108   2.597  10.844   0.736
19849W        W85109   1.228  13.098   0.330
19850W        W85110   1.898  37.856   3.248
19851W        W85111  42.432  41.873   2.267
19852W        W85112  12.170  25.209   3.802
19853W        W85113  10.190  37.156  14.401
19854W        W85114   7.578  35.045   3.234
19855W        W85115  13.168  10.108  14.446
19856W        W85116   0.891  20.189   2.844
19857W        W85117  25.733   8.451   3.219
19858W        W85118  25.968   5.109  12.115
19859W        W85119  40.409  17.023   0.606
19860W        W85120   5.981   7.812   3.671
19861W        W85121  23.589  24.740   2.449
19862W        W85122  33.390  28.656  12.250
19863W        W85123  20.876  18.171   4.549
19864W        W85124  39.951  39.954   1.512
19865W        W85125  19.031  12.084  12.531
19866W        W85126  29.499  29.542   0.063
19867W        W85127  12.429  14.642  14.884
19868W        W85128  32.710  20.292   0.156
19869W        W85129  28.980  33.153   4.136
19870W        W85130   6.760  29.517  10.578
19871W        W85131  33.162  13.563  10.939
19872W        W85132   3.198  12.909   3.638
19873W        W85133  23.424  13.073   3.105
19874W        W85134   4.329  24.612   3.698
19875W        W85135  25.361  10.237  14.193
19876W        W85136   6.858  27.449  10.953
19877W        W85137  29.050  18.972   3.039
19878W        W85138  32.839   9.096   3.217
19879W        W85139  18.773  35.907   4.514
19880W        W85140  16.799  16.078   3.182
19881W        W85141  14.994  27.647  13.401
19882W        W85142  35.133   6.479   3.787
19883W        W85143  32.242   4.281   3.146
19884W        W85144   8.304  29.162  14.244
19885W        W85145  26.817   1.045   3.296
19886W        W85146  29.196  36.026  10.868
19887W        W85147  13.652  27.528   0.638
19888W        W85148  24.563  40.606   2.744
19889W        W85149  36.638  11.681   5.063
19890W        W85150  43.727   5.488   3.869
19891W        W85151  31.969   4.289  12.859
19892W        W85152  29.645  13.904  11.060
19893W        W85153  12.154  18.172  12.851
19894W        W85154  41.785  21.176   0.943
19895W        W85155  25.484  23.220   2.344
19896W        W85156  27.955  22.556  10.630
19897W        W85157  38.992  36.888  11.494
19898W        W85158   7.642   8.120   1.800
19899W        W85159  26.021   4.810   2.608
19900W        W85160  12.083  13.317   3.773
19901W        W85161  24.580  29.461  10.741
19902W        W85162  22.193   5.965  14.325
19903W        W85163  17.328  35.343   1.545
19904W        W85164  16.786  43.043   0.587
19905W        W85165  18.759  12.331   4.778
19906W        W85166  13.805  14.656  10.653
19907W        W85167  37.581  44.086   2.814
19908W        W85168   5.911   8.128   3.252
19909W        W85169  42.841  23.193   1.875
19910W        W85170  41.559   3.280  14.467
19911W        W85171  15.841  26.504  11.652
19912W        W85172  17.023  41.509  11.670
19913W        W85173  40.899  30.002  13.837
19914W        W85174  12.694  41.533   4.697
19915W        W85175  10.214  44.281  14.003
19916W        W85176  12.243   2.892   1.291
19917W        W85177  37.474   6.884   4.664
19918W        W85178  40.603   0.331   4.240
19919W        W85179  16.541  27.243   2.648
19920W        W85180   7.770  34.046  14.033
19921W        W85181  18.318  34.451   2.189
19922W        W85182  26.195  42.422   1.725
19923W        W85183  36.119   1.394  13.330
19924W        W85184   0.302  11.958   1.750
19925W        W85185  37.935  19.736  10.851
19926W        W85186  24.223   6.854  14.617
19927W        W85187  10.898  25.545   4.043
19928W        W85188   7.601  17.583   2.514
19929W        W85189  33.371   0.126   1.131
19930W        W85190  36.047  19.831  12.475
19931W        W85191  42.992  33.639  11.510
19932W        W85192  27.203  29.377  10.642
19933W        W85193  11.212   0.768   2.718
19934W        W85194  12.765  23.926  14.831
19935W        W85195   9.275  28.705  10.297
19936W        W85196  41.435   0.979   1.576
19937W        W85197  28.129   2.593  11.221
19938W        W85198   0.701  29.986   1.380
19939W        W85199  17.768  10.515  12.446
19940W        W85200  33.048  29.861   5.380
19941W        W85201  43.904   2.342   2.584
19942W        W85202   8.443  17.253  10.708
19943W        W85203  11.816  18.057  13.379
19944W        W85204  31.990  32.410   1.228
19945W        W85205  44.186  23.272  12.950
19946W        W85206  29.898  13.651   0.740
19947W        W85207  20.486   4.770   2.301
19948W        W85208  32.406  27.933  10.287
19949W        W85209  27.258  14.194  11.875
19950W        W85210  37.553  30.056  10.761
19951W        W85211  25.752   9.107  10.420
19952W        W85212  30.661  26.835  10.266
19953W        W85213  32.888   3.627  11.602
19954W        W85214  12.307  29.479   4.725
19955W        W85215  15.091  18.380  11.602
19956W        W85216  28.931  35.287  14.011
19957W        W85217  26.455  38.588  13.268
19958W        W85218  27.235  29.163  14.803
19959W        W85219  43.723  43.180   1.336
19960W        W85220  28.854  15.313   1.907
19961W        W85221  14.864   9.970  14.033
19962W        W85222  37.073   1.478   1.691
19963W        W85223  41.184  26.400  12.589
19964W        W85224  24.537   2.803  13.731
19965W        W85225  10.852  21.038   5.159
19966W        W85226  31.566  29.172  13.954
19967W        W85227  44.913  24.764  12.500
19968W        W85228  40.304  33.031  11.491
19969W        W85229  34.954  33.071  12.573
19970W        W85230   5.295  41.762   4.745
19971W        W85231  20.291   3.768   1.364
19972W        W85232  29.542  22.457  13.766
19973W        W85233   6.232  37.878  10.974
19974W        W85234  13.235   4.661  10.718
19975W        W85235  23.548  10.079  10.042
19976W        W85236   4.151   7.276   1.780
19977W        W85237  20.135  25.702  11.354
19978W        W85238  43.406   1.223  12.822
19979W        W85239  30.427  17.758   2.379
19980W        W85240  11.647  36.234  11.603
19981W        W85241   5.419   5.241  11.073
19982W        W85242  39.446  31.488   2.132
19983W        W85243  11.699  39.815  12.355
19984W        W85244  14.243  34.377   3.085
19985W        W85245  42.912  23.603  10.770
19986W        W85246  37.627  33.084   0.454
19987W        W85247  30.058   5.229  12.524
19988W        W85248   1.556  28.495  11.085
19989W        W85249  27.218   5.365  14.964
19990W        W85250  38.521  38.069   2.822
19991W        W85251  44.444  29.202   4.405
19992W        W85252   7.932  32.896  12.582
19993W        W85253  19.374   8.155   3.255
19994W        W85254   8.784  25.295   0.486
19995W        W85255  41.405  28.903  14.219
19996W        W85256  22.542  15.363  13.634
19997W        W85257  33.996   2.888  14.762
19998W        W85258  23.493  37.570   2.821
19999W        W85259   2.421  10.563   3.590
20000W        W85260  16.531  36.981  11.635
20001W        W85261  36.083  27.249  10.254
20002W        W85262  44.482  12.993   5.108
20003W        W85263  32.733   4.803   3.689
20004W        W85264  18.096  16.590   2.462
20005W        W85265   9.043   8.229   2.414
20006W        W85266  23.688  42.892  13.289
20007W        W85267   9.223  41.819   3.117
20008W        W85268   5.141  23.777   2.309
20009W        W85269   0.705  30.953   4.566
20010W        W85270  28.221  22.285   1.358
20011W        W85271  40.092  17.497   2.752
20012W        W85272  44.164  15.161   0.830
20013W        W85273   3.237   1.969  11.555
20014W        W85274  21.209   2.775   2.755
20015W        W85275   3.249   8.506   4.609
20016W        W85276   1.751  18.556   0.193
20017W        W85277  22.730   7.294   1.287
20018W        W85278   3.321  33.346   5.253
20019W        W85279  28.717   7.709   2.717
20020W        W85280  13.633   9.068  11.291
20021W        W85281  38.458   4.347  14.824
20022W        W85282  15.389  29.721   0.636
20023W        W85283   3.253  37.776  12.044
20024W        W85284  25.731  25.295  10.557
20025W        W85285   7.180  41.489   1.977
20026W        W85286  21.576  23.171   4.914
20027W        W85287   6.908   9.086  12.025
20028W        W85288  29.975  26.710  11.677
20029W        W85289   8.444  12.080  13.320
20030W        W85290  27.397  25.983  12.651
20031W        W85291  21.535  30.503  13.996
20032W        W85292   0.150   3.929   4.610
20033W        W85293   8.158  27.328  12.280
20034W        W85294   3.731  35.229  12.125
20035W        W85295   9.793  31.378  12.968
20036W        W85296  22.989   6.246  13.678
20037W        W85297  38.362   6.886  12.892
20038W        W85298  36.746  26.086  11.527
20039W        W85299  25.180  14.974   4.195
20040W        W85300  32.955  27.083   4.392
20041W        W85301  15.225  12.436  13.083
20042W        W85302  14.031  32.829  14.149
20043W        W85303  43.286  23.046   0.162
20044W        W85304  16.488  15.081  11.642
20045W        W85305   8.727   4.409  13.397
20046W        W85306  38.185  38.314  14.772
20047W        W85307  18.872   8.940  11.094
20048W        W85308  31.778  27.055  11.452
20049W        W85309  22.631  34.887   1.114
20050W        W85310   8.174  40.036  13.327
20051W        W85311  27.126  15.478   2.704
20052W        W85312  44.727  16.307   3.080
20053W        W85313  10.770  35.473  11.029
20054W        W85314   1.482  22.003  13.309
20055W        W85315  36.937  10.386   2.838
20056W        W85316  28.680  22.558   0.384
20057W        W85317  22.220  23.388  11.526
20058W        W85318  12.216   5.708  10.205
20059W        W85319   6.347  26.682   0.349
20060W        W85320  22.223   2.355  10.786
20061W        W85321  30.633   7.467   4.833
20062W        W85322  27.942  27.578   0.735
20063W        W85323  13.645  38.475  14.484
20064W        W85324  27.984  43.933   4.878
20065W        W85325   7.312  10.677   4.388
20066W        W85326  11.413  43.789   2.201
20067W        W85327  28.037  39.896   0.281
20068W        W85328   8.860  41.701  13.897
20069W        W85329  30.320  38.843  13.442
20070W        W85330  25.645  35.932   1.857
20071W        W85331  15.552  21.639   1.044
20072W        W85332  17.215  14.354   1.255
20073W        W85333  32.236  36.985   4.879
20074W        W85334  31.675  10.687   2.097
20075W        W85335  10.227  21.097   2.416
20076W        W85336   9.310  15.470   3.647
20077W        W85337  43.578   7.720   2.186
20078W        W85338  41.953  32.835   3.662
20079W        W85339  16.039   6.874   4.298
20080W        W85340   2.790  35.335  13.721
20081W        W85341  38.997   3.920   4.320
20082W        W85342  26.182  25.918   4.705
20083W        W85343  22.488  19.799   4.682
20084W        W85344  21.039   1.944   3.439
20085W        W85345  34.841   0.535   3.612
20086W        W85346   1.894   6.923  14.987
20087W        W85347  20.190  18.687   3.240
20088W        W85348  27.577  38.555   3.732
20089W        W85349   7.316  21.944  12.493
20090W        W85350   6.674  33.469   4.248
20091W        W85351  18.608   7.834  13.351
20092W        W85352   1.740  44.325  10.690
20093W        W85353  11.335  37.735   3.216
20094W        W85354   7.732   0.810  11.434
20095W        W85355  14.039  24.522   1.828
20096W        W85356  12.618  19.505  11.104
20097W        W85357   2.303  41.968   3.649
20098W        W85358   8.834  10.124   1.864
20099W        W85359  13.753  21.692  11.902
20100W        W85360  40.269  20.345   1.279
20101W        W85361  22.226   6.076  10.803
20102W        W85362  27.554  43.308  10.916
20103W        W85363  13.068  16.805  14.983
20104W        W85364  12.132  13.573   3.316
20105W        W85365  31.507  10.585  10.757
20106W        W85366   2.170  27.574   1.758
20107W        W85367  14.124  11.133   1.151
20108W        W85368  22.678  10.925  12.803
20109W        W85369  12.313   9.097  14.611
20110W        W85370  10.851  27.203   0.897
20111W        W85371   5.447   4.572   3.600
20112W        W85372  26.357  27.302   3.731
20113W        W85373  31.124  22.678  11.921
20114W        W85374  17.685   6.955   1.928
20115W        W85375  17.205  12.328  11.427
20116W        W85376  19.972  33.619  14.997
20117W        W85377  44.863  14.548   0.942
20118W        W85378  27.268  28.778   3.196
20119W        W85379  10.421  16.857   3.008
20120W        W85380   3.933  38.869  10.027
20121W        W85381  39.035  12.140   2.839
20122W        W85382  26.645  42.819  11.169
20123W        W85383  44.622  39.355  10.386
20124W        W85384  16.680  44.839  11.115
20125W        W85385  44.374  29.756   1.442
20126W        W85386  18.558  10.996  13.438
20127W        W85387  27.134  12.228   0.565
20128W        W85388  13.704  16.265  13.322
20129W        W85389  33.543  31.741   2.306
20130W        W85390  13.820  13.113  12.076
20131W        W85391   9.661   1.428  13.473
20132W        W85392  10.620  13.498   5.136
20133W        W85393   2.312  34.833  14.791
20134W        W85394  12.368  18.628  12.982
20135W        W85395  27.889  43.097   4.397
20136W        W85396  35.581   9.644   3.143
20137W        W85397  22.076   3.681  10.382
20138W        W85398  19.983  15.566   4.170
20139W        W85399  15.282   7.697   0.808
20140W        W85400   5.153  33.457   1.699
20141W        W85401  27.571   5.433  14.585
20142W        W85402  40.303  26.370  11.990
20143W        W85403  12.680  27.621  13.532
20144W        W85404  10.834  14.624  14.739
20145W        W85405  10.652  43.914  13.460
20146W        W85406  33.561  15.135   2.780
20147W        W85407  40.485  19.755   3.554
20148W        W85408  16.670  31.346   2.358
20149W        W85409  30.602  25.023   0.290
20150W        W85410  32.438  34.818  11.684
20151W        W85411  21.707  38.091   2.564
20152W        W85412   5.155  37.876   0.429
20153W        W85413  29.046  24.663   4.058
20154W        W85414  15.544  10.888   1.964
20155W        W85415  35.575  26.241   5.320
20156W        W85416   1.533   1.930  14.983
20157W        W85417  29.974   2.187   3.643
20158W        W85418  18.574  25.709  13.142
20159W        W85419  16.732  37.436   2.879
20160W        W85420   8.303  19.692   4.096
20161W        W85421  15.722  22.965  14.773
20162W        W85422  28.454   6.595  12.486
20163W        W85423  43.343  33.797  13.406
20164W        W85424  24.150  40.601  14.526
20165W        W85425  34.549  26.462   2.764
20166W        W85426  19.532  30.201  11.541
20167W        W85427  33.639   7.895  13.356
20168W        W85428  17.798   1.487  12.709
20169W        W85429  37.598  19.796   2.187
20170W        W85430  30.071   7.912  12.017
20171W        W85431   8.502   8.736  12.514
20172W        W85432  23.991  39.046   3.238
20173W        W85433  13.396   5.424   3.644
20174W        W85434  18.091  25.186   2.361
20175W        W85435  10.955  37.754  11.108
20176W        W85436  16.355   7.350  14.291
20177W        W85437  29.647  27.529  12.275
20178W        W85438  21.093  37.579  13.963
20179W        W85439  14.871   0.897  13.989
20180W        W85440  26.702  10.682   3.119
20181W        W85441  39.872  10.209   1.297
20182W        W85442  22.734  32.033  12.481
20183W        W85443  42.346   7.071   1.766
20184W        W85444  18.597  18.565  14.047
20185W        W85445  28.577  16.646  14.859
20186W        W85446   0.238  43.558   1.312
20187W        W85447  16.214  18.544  12.368
20188W        W85448   9.651  35.485  12.571
20189W        W85449  24.215  28.405   1.224
20190W        W85450   4.268   8.300  12.561
20191W        W85451  17.486  42.897   2.180
20192W        W85452  36.886  31.549   3.395
20193W        W85453  41.773  20.163   3.844
20194W        W85454  26.210  30.755  11.744
20195W        W85455  10.729  38.038   2.175
20196W        W85456  34.449  34.312   4.276
20197W        W85457  18.047  12.834   4.599
20198W        W85458  44.897  35.124   0.270
20199W        W85459  40.078   7.339  13.032
20200W        W85460   3.399  19.162   1.360
20201W        W85461  10.170  34.569  12.096
20202W        W85462  12.077  29.579  11.811
20203W        W85463  20.658  12.973   4.634
20204W        W85464  15.014  25.038  14.026
20205W        W85465  25.831  37.333   4.763
20206W        W85466  31.318  30.583   1.538
20207W        W85467   4.689   2.972  11.041
20208W        W85468  32.088  22.141  10.251
20209W        W85469  29.430   0.102  14.414
20210W        W85470  31.554  31.153   2.326
20211W        W85471  37.803  27.556   4.603
20212W        W85472   5.494  17.290  12.694
20213W        W85473  18.406  44.648   0.851
20214W        W85474  31.143   0.184  13.623
20215W        W85475  15.091  18.862  11.449
20216W        W85476   7.331  41.960  11.420
20217W        W85477  38.763  28.356   2.366
20218W        W85478   0.548  12.238   0.533
20219W        W85479  27.716   5.440  11.537
20220W        W85480  40.737   2.321   1.398
20221W        W85481  16.127  42.891   1.860
20222W        W85482  30.023  15.281  12.799
20223W        W85483  17.755  34.333   2.209
20224W        W85484  24.143  33.139  13.470
20225W        W85485  17.143  44.959  10.264
20226W        W85486   1.189  36.219   5.030
20227W        W85487  12.641   3.258   1.333
20228W        W85488  11.802  36.430   1.195
20229W        W85489  12.274  43.015  12.515
20230W        W85490   4.999   4.751  14.811
20231W        W85491  19.729  38.248  12.564
20232W        W85492  38.851  12.033   4.983
20233W        W85493  29.265  32.062   1.247
20234W        W85494  23.644  23.020  12.909
20235W        W85495   3.788  23.580  11.961
20236W        W85496  26.472  34.846  13.550
20237W        W85497  23.266  19.837   1.097
20238W        W85498  21.485  10.560   4.706
20239W        W85499  39.383   0.905  14.916
20240W        W85500  11.530  27.571  10.152
20241W        W85501  19.421   7.491   1.335
20242W        W85502   8.241  39.338   1.803
20243W        W85503  32.943  16.189  10.849
20244W        W85504   7.799  40.361   4.656
20245W        W85505  31.521  39.556   3.736
20246W        W85506  35.824  41.498   1.639
20247W        W85507  31.965  24.215  13.539
20248W        W85508  33.350  35.323  14.286
20249W        W85509  20.532  29.819  10.688
20250W        W85510  15.792  17.106   0.573
20251W        W85511   1.539  10.973  11.044
20252W        W85512  14.773  24.683  12.363
20253W        W85513  29.079  40.454   0.544
20254W        W85514   2.463  18.878   2.899
20255W        W85515  23.675  18.839   0.751
20256W        W85516  16.171  31.308   3.128
20257W        W85517  42.640  17.109  13.263
20258W        W85518   8.217  18.547  14.753
20259W        W85519   1.272  20.575   3.893
20260W        W85520  38.836  27.872  13.291
20261W        W85521  14.061  16.820  11.154
20262W        W85522  22.763  27.079   2.367
20263W        W85523  19.759  12.000   5.079
20264W        W85524   4.919  43.994  10.948
20265W        W85525   3.950  40.228   0.922
20266W        W85526  34.610   4.890  12.420
20267W        W85527  40.865  18.730   2.122
20268W        W85528  30.577  20.667   2.934
20269W        W85529  32.379  40.350   2.277
20270W        W85530  16.696  18.601  12.749
20271W        W85531  15.163  14.001   0.878
20272W        W85532  39.098   4.165   3.372
20273W        W85533  14.795   2.306  13.050
20274W        W85534  23.706  27.141   4.522
20275W        W85535  27.115  26.169   1.302
20276W        W85536   2.495   4.666  14.813
20277W        W85537  16.025  30.711  11.014
20278W        W85538   4.840  12.313  12.340
20279W        W85539  36.709  39.382   2.651
20280W        W85540   8.776  12.833   0.508
20281W        W85541  29.976  18.127   4.098
20282W        W85542  16.809   1.250  14.245
20283W        W85543  30.754   8.805   3.654
20284W        W85544   1.889  43.959   2.313
20285W        W85545  32.439  43.479  14.777
20286W        W85546  14.283  37.499   9.958
20287W        W85547  29.175  41.704  12.981
20288W        W85548  40.340  16.668  14.234
20289W        W85549  35.563  28.406   2.385
20290W        W85550  30.758  13.553   1.544
20291W        W85551  40.390  11.575  10.680
20292W        W85552   5.205  28.505   0.861
20293W        W85553  17.186  15.295   0.747
20294W        W85554  26.156  14.297   3.236
20295W        W85555  26.029  18.386   0.176
20296W        W85556  29.228  31.224   3.572
20297W        W85557  19.721   9.953   5.054
20298W        W85558  44.520   8.850  14.214
20299W        W85559   2.990   6.318   0.576
20300W        W85560  26.862   0.344   4.491
20301W        W85561   1.051   6.040   5.052
20302W        W85562   7.137  29.655  10.235
20303W        W85563  19.488  43.799  12.214
20304W        W85564  44.366  26.735   3.351
20305W        W85565  42.860   4.390   3.396
20306W        W85566   9.686  17.085   0.919
20307W        W85567  43.391  31.586   4.935
20308W        W85568   1.441   5.226   2.216
20309W        W85569  12.181  24.420   4.165
20310W        W85570   4.881  39.253   0.420
20311W        W85571   7.732  10.731   4.086
20312W        W85572  41.515  16.737   0.308
20313W        W85573  38.330  13.939   4.430
20314W        W85574  16.625   3.155   1.795
20315W        W85575  41.422  36.018  11.093
20316W        W85576   5.269   2.911   2.129
20317W        W85577  20.097  29.705  13.035
20318W        W85578   2.530   8.085  11.921
20319W        W85579   6.141  18.751  12.648
20320W        W85580   2.723   1.888  11.563
20321W        W85581  13.346  26.607  12.855
20322W        W85582   0.270  10.721   1.754
20323W        W85583  20.728   0.435   1.441
20324W        W85584  36.846   0.748  13.541
20325W        W85585  23.056   5.379   1.176
20326W        W85586  28.519  41.244   4.247
20327W        W85587  37.095  28.342   1.746
20328W        W85588   3.757   0.278  14.360
20329W        W85589  21.981  38.331   2.162
20330W        W85590  42.806   0.444  11.925
20331W        W85591  15.973  13.323   0.963
20332W        W85592  18.274  20.551  10.285
20333W        W85593   1.688   2.272   2.795
20334W        W85594  17.085  13.068   3.646
20335W        W85595  19.241  21.133  11.860
20336W        W85596   2.970  12.407   1.846
20337W        W85597  30.233  33.916   3.239
20338W        W85598   3.421  14.851   0.425
20339W        W85599  41.961  36.382  14.285
20340W        W85600  44.920  19.216   0.375
20341W        W85601  19.655  27.633   0.818
20342W        W85602  23.050  31.872   5.032
20343W        W85603  15.694   7.197   3.159
20344W        W85604   8.918  35.797  10.503
20345W        W85605  12.533  32.889   1.786
20346W        W85606  17.462   2.941   0.965
20347W        W85607  36.608  25.070   1.709
20348W        W85608  27.929  23.588  11.872
20349W        W85609  35.328  18.230   0.852
20350W        W85610  17.620  11.669   0.016
20351W        W85611   3.396  32.938   2.587
20352W        W85612  40.779  34.970  12.888
20353W        W85613  15.535  38.856  13.982
20354W        W85614  35.814   4.580  14.433
20355W        W85615   5.369  13.356   4.065
20356W        W85616  41.465  32.088  13.544
20357W        W85617  17.459  43.730   0.460
20358W        W85618  13.681  34.518   1.842
20359W        W85619  24.921  38.027   2.832
20360W        W85620  10.901   4.466  13.196
20361W        W85621  38.679  34.449  13.546
20362W        W85622   3.727  10.365   4.770
20363W        W85623  40.150  38.815   5.117
20364W        W85624  37.550  15.659  10.761
20365W        W85625  14.560  40.731   2.999
20366W        W85626   0.606   0.055   1.440
20367W        W85627  26.190  40.543  11.200
20368W        W85628  30.480  35.267  12.545
20369W        W85629  37.801   6.212   3.543
20370W        W85630  10.764  19.997   1.912
20371W        W85631  14.717  42.991   0.830
20372W        W85632  44.249  35.077   5.431
20373W        W85633  13.650  38.408   4.314
20374W        W85634  15.187  30.026   1.940
20375W        W85635   5.093  17.646  13.810
20376W        W85636  32.705   6.466   3.730
20377W        W85637  39.240  38.442   3.706
20378W        W85638  12.664   5.282  12.540
20379W        W85639  19.127  26.060  14.524
20380W        W85640  42.525   4.327   1.788
20381W        W85641  14.284  28.523   2.175
20382W        W85642   4.356  21.743   3.805
20383W        W85643   9.422  27.924  13.070
20384W        W85644  22.150   9.806  11.447
20385W        W85645  10.617  44.487  12.118
20386W        W85646  43.034  12.615   2.686
20387W        W85647   6.901  31.513   4.145
20388W        W85648  32.404  24.260  11.593
20389W        W85649  32.370   0.805  11.065
20390W        W85650  28.531   9.821   3.315
20391W        W85651  34.966   6.058   0.781
20392W        W85652  15.684  33.117   1.857
20393W        W85653  39.984   4.839  13.882
20394W        W85654  23.972  15.278   2.365
20395W        W85655  25.605   2.281  10.695
20396W        W85656   2.721   5.657   1.429
20397W        W85657   3.268  40.340  14.752
20398W        W85658  38.822   2.858  12.728
20399W        W85659  33.017  30.131  13.613
20400W        W85660   3.807  44.436  13.388
20401W        W85661  39.616  19.176   2.074
20402W        W85662  32.363  33.596  12.053
20403W        W85663  19.178  35.528  14.475
20404W        W85664  35.839  38.518   2.890
20405W        W85665  22.351  35.871   2.320
20406W        W85666   9.606  34.606   2.846
20407W        W85667   8.933  36.546  14.763
20408W        W85668   3.467  18.528  11.168
20409W        W85669  36.995  44.314  10.779
20410W        W85670  27.141  44.844   0.263
20411W        W85671  35.668   5.509  11.736
20412W        W85672  17.865  26.895  12.465
20413W        W85673  30.118  33.410  13.033
20414W        W85674  12.837  42.022   2.193
20415W        W85675  20.221   0.716  12.487
20416W        W85676  37.006   9.152  11.711
20417W        W85677  14.781  33.785  10.088
20418W        W85678  25.433  31.524  13.496
20419W        W85679   4.385   6.669  13.086
20420W        W85680  32.237  37.130  10.781
20421W        W85681   2.818   0.457  13.347
20422W        W85682   1.884  33.368   3.602
20423W        W85683  12.288  41.514  11.644
20424W        W85684  42.281   5.415  12.403
20425W        W85685   0.806  41.874  14.501
20426W        W85686  32.144  34.027  12.246
20427W        W85687  30.780  10.558   0.343
20428W        W85688  14.565   1.218  13.129
20429W        W85689  17.118  32.702   4.471
20430W        W85690  11.874   9.071  12.015
20431W        W85691  16.205  16.402  11.359
20432W        W85692  32.037  10.446  10.673
20433W        W85693  27.003   1.948  12.950
20434W        W85694  35.618  31.921  13.275
20435W        W85695  35.150  29.543   2.131
20436W        W85696  12.235  34.610   4.309
20437W        W85697  32.122  11.357  10.745
20438W        W85698   0.364  15.114   9.681
20439W        W85699  14.164  28.535  12.807
20440W        W85700   3.811  18.356   2.238
20441W        W85701  16.098  40.150   3.769
20442W        W85702  23.194  26.860  13.107
20443W        W85703  41.598  18.985   0.436
20444W        W85704  38.895  11.507  13.908
20445W        W85705  18.061   0.400  11.202
20446W        W85706  19.615  38.533  11.539
20447W        W85707  25.151   0.022  14.039
20448W        W85708  21.097   0.764  13.770
20449W        W85709  35.906  14.753  12.806
20450W        W85710  21.607  16.678   0.694
20451W        W85711  12.272  35.901   4.922
20452W        W85712  11.807  19.812   1.168
20453W        W85713   6.227  23.034   4.357
20454W        W85714  44.794  36.889   4.113
20455W        W85715  17.596  39.941   0.023
20456W        W85716  35.757  23.703  10.917
20457W        W85717  16.251  28.483   0.317
20458W        W85718  36.994   3.258  12.854
20459W        W85719  19.813  42.283  12.885
20460W        W85720  20.675  36.002  14.758
20461W        W85721  13.268  21.305   2.288
20462W        W85722   7.892  43.288  13.779
20463W        W85723   8.373   8.644  12.039
20464W        W85724  31.507   8.564   2.330
20465W        W85725  16.757  42.551   2.788
20466W        W85726  22.525  18.290   0.315
20467W        W85727  42.850  40.497  11.648
20468W        W85728  30.365  27.141   4.583
20469W        W85729   6.457   6.749  12.136
20470W        W85730  19.205   4.304  13.864
20471W        W85731  33.809  27.746  12.946
20472W        W85732  25.945  11.270  11.064
20473W        W85733   9.314   2.842   4.449
20474W        W85734   3.717  10.751   1.670
20475W        W85735   2.350   2.687  13.753
20476W        W85736  40.963  12.082  11.211
20477W        W85737   0.804  19.136   2.713
20478W        W85738  25.116   8.189  10.788
20479W        W85739  40.417   1.156  13.919
20480W        W85740  10.744  31.743   0.463
20481W        W85741  35.605  19.514  12.544
20482W        W85742  22.291  27.475  11.218
20483W        W85743  42.807  20.581   4.345
20484W        W85744  20.476  32.660  12.823
20485W        W85745  14.794   8.263   3.551
20486W        W85746  27.060  23.196  13.276
20487W        W85747   7.424  42.457  11.493
20488W        W85748  40.995   9.803  12.819
20489W        W85749  17.134  27.241   1.020
20490W        W85750  38.521  22.047  11.665
20491W        W85751  10.893  20.674   2.909
20492W        W85752  30.571  22.652   2.247
20493W        W85753  44.003  22.540   4.097
20494W        W85754  42.986  28.675  13.878
20495W        W85755  39.868  43.373   4.713
20496W        W85756  24.231  40.125   4.098
20497W        W85757  41.267   8.862  13.890
20498W        W85758  42.775  21.534   3.325
20499W        W85759  31.457  12.650  12.456
20500W        W85760  26.621  12.369   1.269
20501W        W85761  37.503  11.688   2.711
20502W        W85762  28.182   2.367  14.898
20503W        W85763  32.901  38.157  13.798
20504W        W85764  40.214   0.869   3.610
20505W        W85765  28.061  13.846   2.293
20506W        W85766   0.847  42.552  14.007
20507W        W85767  27.205  14.772  10.632
20508W        W85768  21.773  34.624  14.452
20509W        W85769  27.234  40.406  14.751
20510W        W85770  12.637  18.315   1.449
20511W        W85771  35.819  37.687   1.875
20512W        W85772  37.316   0.636   1.859
20513W        W85773   7.479   2.262   0.800
20514W        W85774  24.165  24.444  11.848
20515W        W85775  18.978  15.344   4.149
20516W        W85776  36.844  23.744   0.844
20517W        W85777  22.263  20.224  13.555
20518W        W85778  13.783   7.247  14.993
20519W        W85779  14.543  25.592  13.405
20520W        W85780   6.844   3.409   3.750
20521W        W85781  27.778  18.458  10.804
20522W        W85782   3.857  40.059   3.859
20523W        W85783  34.035  17.575  14.563
20524W        W85784  43.486  21.070   4.340
20525W        W85785   4.233   2.602   3.703
20526W        W85786   1.972  16.603   3.982
20527W        W85787  15.582  14.739   0.357
20528W        W85788  28.181   4.638   3.224
20529W        W85789  36.726  27.537  11.904
20530W        W85790  29.015  32.359  10.680
20531W        W85791  21.585  32.128  12.084
20532W        W85792  38.799  31.433  10.007
20533W        W85793  41.705  10.272  13.451
20534W        W85794  23.100  38.172  10.305
20535W        W85795  42.603  12.776  12.555
20536W        W85796  36.378  11.921  11.548
20537W        W85797  17.681  23.137   4.514
20538W        W85798  10.851  12.763   4.065
20539W        W85799  44.077   7.987   1.295
20540W        W85800  42.426  43.358   4.428
20541W        W85801  31.602  16.316  12.528
20542W        W85802  20.537   5.826   4.486
20543W        W85803  16.761  37.763  13.452
20544W        W85804  31.972  24.505  10.724
20545W        W85805  19.887  36.517   1.259
20546W        W85806   7.374   0.165  11.623
20547W        W85807  11.870  24.524   3.090
20548W        W85808   5.491   4.929  13.026
20549W        W85809  42.513  29.789   0.498
20550W        W85810  25.178  23.151   0.986
20551W        W85811  10.243  14.695  14.024
20552W        W85812  38.710  21.768   0.050
20553W        W85813  13.419  27.622  14.789
20554W        W85814  27.852  11.413   3.804
20555W        W85815   8.273   7.762  10.654
20556W        W85816  13.334  36.838  10.971
20557W        W85817   6.344   4.402  10.406
20558W        W85818   2.551  29.187  10.255
20559W        W85819  29.082   1.867  11.452
20560W        W85820  28.233  23.503   2.728
20561W        W85821   3.622   8.768   4.917
20562W        W85822  19.798  38.780  14.220
20563W        W85823  21.011  14.832   4.749
20564W        W85824  34.099   1.579   3.280
20565W        W85825  20.628  44.401   4.070
20566W        W85826  24.947  16.163   4.704
20567W        W85827  25.656   7.709  13.121
20568W        W85828  28.348  21.627   3.437
20569W        W85829  30.493  40.819  14.549
20570W        W85830  22.004  38.310   3.699
20571W        W85831  11.798  33.231   4.572
20572W        W85832  41.084  39.482  11.855
20573W        W85833  17.085  19.685   1.116
20574W        W85834   7.398  28.239  11.639
20575W        W85835  24.504  19.624   3.445
20576W        W85836  38.046   9.071  14.843
20577W        W85837  27.701  26.116   0.519
20578W        W85838  26.783  44.355   5.139
20579W        W85839  10.258  35.124  13.001
20580W        W85840  17.619  31.424   4.305
20581W        W85841  43.133  14.299   3.547
20582W        W85842   7.373  31.426  14.096
20583W        W85843  37.957  26.549   0.488
20584W        W85844  24.071  43.991  12.160
20585W        W85845  31.621  32.222  14.767
20586W        W85846  30.059  10.699   3.581
20587W        W85847  21.482  18.984  12.546
20588W        W85848  33.480   4.965   3.792
20589W        W85849  12.406  11.347  13.484
20590W        W85850  39.056  27.092  13.945
20591W        W85851   6.250  12.056  14.490
20592W        W85852  35.605   5.269   2.282
20593W        W85853  20.527   7.251  12.844
20594W        W85854  33.894   5.881   1.798
20595W        W85855  29.808  14.544   3.263
20596W        W85856  11.826  16.223   4.431
20597W        W85857  19.779  21.240  13.822
20598W        W85858  36.654  28.552  10.557
20599W        W85859  14.367  42.762   3.713
20600W        W85860  40.569  43.263  14.708
20601W        W85861   8.792  13.276   0.241
20602W        W85862   4.758   7.171  13.890
20603W        W85863   8.448  16.344  10.668
20604W        W85864  36.432  39.418   4.668
20605W        W85865  10.280  27.666  13.976
20606W        W85866   8.308  21.807  14.070
20607W        W85867   8.249  21.296  13.916
20608W        W85868   5.298  20.239  13.469
20609W        W85869  12.169  13.339  11.485
20610W        W85870  17.510  35.557  12.842
20611W        W85871   7.825  40.961  13.531
20612W        W85872  24.534  43.727   4.699
20613W        W85873  26.130  11.346  13.948
20614W        W85874  16.845  23.243   0.952
20615W        W85875  30.001  17.262   4.345
20616W        W85876  38.021  37.849  11.001
20617W        W85877  11.296  19.970   4.412
20618W        W85878  41.991  17.359  12.500
20619W        W85879  16.668  24.077   1.391
20620W        W85880   4.850  11.242  12.098
20621W        W85881  12.636  30.062   1.918
20622W        W85882   2.079  11.798  14.539
20623W        W85883  16.286  37.526  11.643
20624W        W85884   3.169  38.340   2.561
20625W        W85885   8.741  15.498   1.881
20626W        W85886   2.260  31.194  11.270
20627W        W85887  33.044  14.026  14.072
20628W        W85888  33.562  26.177  14.973
20629W        W85889  14.229   3.033  11.537
20630W        W85890  20.880  19.843   3.877
20631W        W85891  22.250  15.698   3.862
20632W        W85892   6.706  23.542  10.522
20633W        W85893  38.308  34.955  10.435
20634W        W85894  30.220  21.173   4.154
20635W        W85895  34.833   1.169  11.112
20636W        W85896   7.478   7.749   1.331
20637W        W85897  20.299  14.148  13.010
20638W        W85898   2.318   7.872  12.775
20639W        W85899  32.185  35.502   0.366
20640W        W85900  23.619   1.786   0.325
20641W        W85901  18.291  12.785   4.143
20642W        W85902  32.517  31.551  14.452
20643W        W85903   3.467  16.041   2.715
20644W        W85904  26.535  38.583   3.745
20645W        W85905  19.134  31.979  12.887
20646W        W85906  21.653  25.999   1.924
20647W        W85907  22.080   1.194  14.055
20648W        W85908  29.210  42.940  11.951
20649W        W85909  42.040  41.543  13.034
20650W        W85910  26.449   2.052  11.119
20651W        W85911  38.399   1.033  13.065
20652W        W85912   7.287  13.610   1.423
20653W        W85913  31.357  19.608  11.514
20654W        W85914  22.464  12.323  11.112
20655W        W85915  23.468  39.436  13.975
20656W        W85916  31.390  41.966  10.687
20657W        W85917  13.707  30.943  12.499
20658W        W85918  34.645   9.736  14.479
20659W        W85919   9.389   0.084   3.371
20660W        W85920  36.425  15.261   3.753
20661W        W85921  18.591  27.544   3.779
20662W        W85922  44.998  20.108   1.711
20663W        W85923  37.904  39.946  11.897
20664W        W85924   8.295  24.167   2.771
20665W        W85925  23.146  18.294  13.105
20666W        W85926  31.857  42.609  12.111
20667W        W85927   2.191  10.857   1.089
20668W        W85928   7.003  36.658   3.411
20669W        W85929   5.795   4.089   4.828
20670W        W85930  18.057  43.239  12.609
20671W        W85931  10.684  24.955  13.848
20672W        W85932  40.629   7.974   0.772
20673W        W85933   5.885  44.462   4.656
20674W        W85934   1.703  17.548  10.689
20675W        W85935  42.154  38.801   4.111
20676W        W85936  34.482   5.962   3.660
20677W        W85937  14.331  32.646   4.407
20678W        W85938  11.173   1.553   0.787
20679W        W85939   8.857  43.464  13.491
20680W        W85940  42.393  37.474   0.089
20681W        W85941  35.049  19.680   5.096
20682W        W85942  22.190  29.079   0.430
20683W        W85943  11.757   3.426  14.685
20684W        W85944  44.783   2.447  10.634
20685W        W85945  15.110  13.915  13.565
20686W        W85946  34.977  10.665  14.493
20687W        W85947  28.668  27.698   3.875
20688W        W85948  14.776   9.603  11.416
20689W        W85949  20.536  38.877  13.610
20690W        W85950  10.199  37.667  14.333
20691W        W85951  32.936   2.367  13.416
20692W        W85952  39.023  32.444   4.649
20693W        W85953  14.798   8.088  14.496
20694W        W85954  19.040  26.313   1.864
20695W        W85955   9.218  24.566  13.175
20696W        W85956  23.131  36.490  13.874
20697W        W85957   0.843  26.117  13.958
20698W        W85958  18.317  19.166   1.544
20699W        W85959  17.335  35.517  10.353
20700W        W85960  31.322   2.678  10.661
20701W        W85961  32.945  30.084   0.591
20702W        W85962  25.797  24.470   3.375
20703W        W85963  26.621  37.082   4.723
20704W        W85964  42.360   4.373  14.973
20705W        W85965  23.741   1.798  13.789
20706W        W85966  26.606  41.602   0.814
20707W        W85967   9.884   9.629  14.471
20708W        W85968  12.659   8.781   1.844
20709W        W85969  40.038  17.157  13.372
20710W        W85970  24.838   4.705  13.076
20711W        W85971   8.264  13.012  13.074
20712W        W85972  11.950  15.168  14.749
20713W        W85973  29.881  26.741   2.826
20714W        W85974  34.382  21.731   4.240
20715W        W85975  29.923   3.202  11.692
20716W        W85976   2.668  20.075   2.369
20717W        W85977  27.068  32.390  14.501
20718W        W85978   5.627  32.479   4.685
20719W        W85979  12.297  30.024  13.067
20720W        W85980   2.534  36.434  12.527
20721W        W85981  42.350  36.933  14.866
20722W        W85982  12.153  14.666  14.431
20723W        W85983   2.551   1.092   0.237
20724W        W85984  18.996  40.350  13.316
20725W        W85985  12.721  13.250  10.626
20726W        W85986  22.130  24.021   0.852
20727W        W85987   1.666  21.827  10.219
20728W        W85988   6.480   2.792  12.523
20729W        W85989  34.712  20.149   3.009
20730W        W85990   7.399  32.925   0.650
20731W        W85991  39.080   9.361  10.469
20732W        W85992  39.757  23.490   0.713
20733W        W85993  37.651  21.676  13.812
20734W        W85994  21.059  27.015  13.557
20735W        W85995  30.605   6.446  12.506
20736W        W85996   2.731  34.926  14.047
20737W        W85997  38.280  35.380   3.284
20738W        W85998  34.198  39.845  12.090
20739W        W85999  42.989  36.999   2.762
20740W        W86000  22.284  19.752  10.255
20741W        W86001   9.417  25.145  11.963
20742W        W86002  36.384  38.449   2.230
20743W        W86003  12.385  21.614   0.261
20744W        W86004  36.931  39.121   2.087
20745W        W86005  28.251  20.975  13.302
20746W        W86006  18.733  44.514  14.739
20747W        W86007   8.616  42.854  11.184
20748W        W86008  19.095   5.755   1.889
20749W        W86009  14.629  43.304  13.883
20750W        W86010  25.510  34.460  13.059
20751W        W86011   2.454   3.269   0.728
20752W        W86012  30.682   3.298   2.121
20753W        W86013  27.539  26.517   3.745
20754W        W86014  11.592  32.454  11.465
20755W        W86015  16.132   5.750  11.733
20756W        W86016  25.323  30.430   4.176
20757W        W86017  13.106   0.617  14.226
20758W        W86018   7.434  20.670   3.072
20759W        W86019  23.587   6.471   5.366
20760W        W86020  20.084  21.250   0.030
20761W        W86021  28.118   1.372  10.782
20762W        W86022  16.658  35.799  11.909
20763W        W86023   5.528   9.205   1.449
20764W        W86024  18.871  40.338   0.002
20765W        W86025  28.044   3.342  13.447
20766W        W86026  14.735  30.396  11.112
20767W        W86027  33.978   3.869   4.372
20768W        W86028  26.753  33.910  14.325
20769W        W86029   4.265  16.605   1.871
20770W        W86030   1.522  40.208   0.510
20771W        W86031   4.761  34.631   2.748
20772W        W86032  24.968  12.133   4.589
20773W        W86033  42.383  20.004  12.619
20774W        W86034   5.804   0.053   1.110
20775W        W86035   3.372  36.656   3.273
20776W        W86036  29.501   3.364   1.644
20777W        W86037  41.678   3.449   2.789
20778W        W86038  35.275  33.953   3.717
20779W        W86039  24.061  40.551  10.265
20780W        W86040  42.832  42.957   3.552
20781W        W86041  37.740  27.729  12.062
20782W        W86042  25.506  23.172   0.182
20783W        W86043  43.386  34.723  10.286
20784W        W86044  26.687  11.672  13.520
20785W        W86045   2.214  27.996  12.013
20786W        W86046  35.452   9.219  11.056
20787W        W86047  32.916  17.209   3.918
20788W        W86048  33.519   1.798  10.031
20789W        W86049  43.274  42.529  12.146
20790W        W86050  22.038   8.865  13.567
20791W        W86051   6.566  17.082  12.837
20792W        W86052   5.846  11.925   0.401
20793W        W86053  27.156   6.966  10.829
20794W        W86054   9.711  41.900   3.846
20795W        W86055  31.344  23.174   4.988
20796W        W86056  43.011  26.470  14.850
20797W        W86057  15.227  19.726   3.876
20798W        W86058  19.044  17.607  12.619
20799W        W86059  41.016   1.067  13.058
20800W        W86060   6.150  18.962   3.921
20801W        W86061  32.550   9.920  11.993
20802W        W86062   7.287   9.536   3.650
20803W        W86063   1.006  20.688  12.764
20804W        W86064  17.319   5.959  12.966
20805W        W86065   3.999  33.881  14.214
20806W        W86066  17.131   4.311   0.923
20807W        W86067  24.435  37.140   5.231
20808W        W86068  25.073  12.762  14.582
20809W        W86069   1.176   6.482  14.371
20810W        W86070  31.352   4.266  14.984
20811W        W86071  32.359  13.059  13.489
20812W        W86072  21.450  26.573  14.853
20813W        W86073  20.057   2.803   1.155
20814W        W86074  23.420  26.643   1.281
20815W        W86075  44.899  19.996  13.898
20816W        W86076  38.326  28.610   2.402
20817W        W86077  37.228  14.043   1.775
20818W        W86078  31.541  21.999   2.213
20819W        W86079  35.341  14.218   3.836
20820W        W86080  35.951   0.200  13.364
20821W        W86081   5.888  24.215   1.529
20822W        W86082  33.963  13.865   2.143
20823W        W86083  28.901  43.332  13.404
20824W        W86084  38.972  22.437   1.332
20825W        W86085  37.776  18.095   3.880
20826W        W86086  41.770  35.357  12.173
20827W        W86087  20.848   4.954   9.821
20828W        W86088  39.950  22.248  12.762
20829W        W86089  18.583  34.467  13.325
20830W        W86090  11.962  37.749  12.954
20831W        W86091  24.159  18.758  11.730
20832W        W86092  11.672  41.522  13.284
20833W        W86093  42.187  27.175   1.258
20834W        W86094   9.831  32.628  12.641
20835W        W86095  43.277  35.357  11.707
20836W        W86096  41.809  36.409  13.239
20837W        W86097  42.406  16.590  12.420
20838W        W86098  16.832  13.772  14.926
20839W        W86099  19.555  42.353   4.588
20840W        W86100   1.206   8.281  10.793
20841W        W86101  37.571  20.795   2.642
20842W        W86102   9.838  21.246  10.140
20843W        W86103   2.648  44.722  11.855
20844W        W86104  18.227  16.330  14.420
20845W        W86105  36.879  22.053  14.794
20846W        W86106   8.883  11.575  13.772
20847W        W86107  11.804  20.853   3.741
20848W        W86108  30.771  15.350  12.497
20849W        W86109  34.566  29.431  11.969
20850W        W86110   8.761  39.872  14.501
20851W        W86111  21.273   5.906  10.734
20852W        W86112  19.649  11.392   2.921
20853W        W86113   6.840  28.698  11.493
20854W        W86114  29.421  31.480  14.427
20855W        W86115  33.253   6.369   1.727
20856W        W86116  28.532  28.261  12.560
20857W        W86117  28.655  44.522  11.587
20858W        W86118  18.485  38.992   3.257
20859W        W86119  35.368  32.167   3.700
20860W        W86120   1.239  33.636  10.909
20861W        W86121  31.440  37.416   1.469
20862W        W86122  21.246  40.264   0.017
20863W        W86123  28.081  31.913  12.628
20864W        W86124  29.150   0.443  12.056
20865W        W86125  34.537   2.024  12.107
20866W        W86126  38.948  18.196   2.370
20867W        W86127  34.121  11.268  14.451
20868W        W86128  19.259  37.317   0.276
20869W        W86129   0.167   7.458   3.176
20870W        W86130  30.557   5.990  11.034
20871W        W86131  31.982  40.548  10.996
20872W        W86132  14.785  25.642  11.313
20873W        W86133  28.675  16.183  13.062
20874W        W86134   4.479   0.976   4.605
20875W        W86135   0.752  40.971   4.107
20876W        W86136   3.422  42.805   3.126
20877W        W86137   7.456  25.153  11.733
20878W        W86138  17.126  36.229  12.519
20879W        W86139  39.784  38.628   2.839
20880W        W86140   7.650  40.968   2.425
20881W        W86141   5.636  25.262  10.255
20882W        W86142  21.366  23.079   4.052
20883W        W86143  39.896  10.459  12.893
20884W        W86144  27.036  16.387   2.138
20885W        W86145   4.907   5.351  14.926
20886W        W86146   9.522   5.717  12.518
20887W        W86147  23.466  29.513   3.340
20888W        W86148  28.463  10.035   2.814
20889W        W86149  14.712   6.924   5.473
20890W        W86150   8.869   8.199  14.365
20891W        W86151  12.041  35.802  14.033
20892W        W86152  42.914   0.984   3.118
20893W        W86153  20.011  13.184   2.334
20894W        W86154  16.615  41.024  13.705
20895W        W86155   0.270  41.243  14.404
20896W        W86156  22.146  41.443  12.358
20897W        W86157  17.592  23.103  13.841
20898W        W86158  27.879   2.364   2.953
20899W        W86159  24.678  43.772   0.867
20900W        W86160   6.286  21.166  11.993
20901W        W86161  14.614  15.549  14.123
20902W        W86162  37.562  36.608   2.628
20903W        W86163   9.881  36.334  13.659
20904W        W86164  40.126  42.511   4.271
20905W        W86165  20.027  11.355  14.521
20906W        W86166  14.315   2.888   2.908
20907W        W86167  26.970  42.908  11.567
20908W        W86168  35.422  10.471   1.727
20909W        W86169  33.151  26.477   0.202
20910W        W86170  40.732  40.944  12.348
20911W        W86171  41.365   2.867  12.406
20912W        W86172   7.210  35.216   4.498
20913W        W86173  19.569  25.125  12.531
20914W        W86174  40.764  35.745   4.451
20915W        W86175  14.025  36.833  14.429
20916W        W86176  13.133  12.956   2.396
20917W        W86177  30.568   6.447   1.651
20918W        W86178   5.376  15.053  12.961
20919W        W86179  33.913   9.162  12.113
20920W        W86180  24.547  21.073   4.697
20921W        W86181   3.719  40.381  13.532
20922W        W86182  14.582  16.870   4.116
20923W        W86183  27.240  19.215  13.059
20924W        W86184  38.328  40.300  13.489
20925W        W86185  23.542  19.736  13.495
20926W        W86186  40.838  15.153   2.379
20927W        W86187  11.678  17.142   4.684
20928W        W86188  11.332  41.546  11.777
20929W        W86189  37.045  19.702  10.776
20930W        W86190  35.755  14.494   3.622
20931W        W86191  38.871  28.751  11.509
20932W        W86192  35.858  30.021  12.468
20933W        W86193  28.031  40.256   0.717
20934W        W86194  20.577   9.761   3.192
20935W        W86195   8.386  16.641   3.787
20936W        W86196  29.279  10.692  13.893
20937W        W86197  11.985   3.586  12.869
20938W        W86198  14.692  39.782  10.790
20939W        W86199  20.659  11.397   2.063
20940W        W86200  23.903  26.051   0.668
20941W        W86201  39.491   8.352  13.431
20942W        W86202  43.141  35.029   5.055
20943W        W86203  25.998  43.625   1.302
20944W        W86204   1.372   3.834   2.605
20945W        W86205  36.881   1.026  11.649
20946W        W86206   1.734  12.482   3.565
20947W        W86207   7.359  15.314  13.663
20948W        W86208   9.814  18.605  11.084
20949W        W86209  32.548   2.947  13.983
20950W        W86210  13.797  30.702  11.031
20951W        W86211  44.908  38.535  12.315
20952W        W86212  28.893  15.633  12.060
20953W        W86213  12.156  37.370   1.512
20954W        W86214   4.457  40.789  10.996
20955W        W86215  36.990  43.479  11.971
20956W        W86216  23.075   0.432   0.759
20957W        W86217  26.904   0.229  11.733
20958W        W86218  36.061  40.985  10.535
20959W        W86219   6.326   8.227   0.708
20960W        W86220  15.093  10.172  14.501
20961W        W86221  32.333   0.233  14.413
20962W        W86222  20.342  13.109   0.584
20963W        W86223   0.178   6.323  12.073
20964W        W86224  23.208  38.544  11.542
20965W        W86225  12.300  42.475  13.729
20966W        W86226  28.571  37.389   3.316
20967W        W86227  28.773  31.765   4.219
20968W        W86228  15.693  13.613  14.320
20969W        W86229   2.495  18.294  14.943
20970W        W86230  44.104  36.362  12.208
20971W        W86231  14.776   3.643   3.231
20972W        W86232   0.710  32.398   2.781
20973W        W86233  30.752  14.675   4.992
20974W        W86234  16.142   3.871   2.702
20975W        W86235  38.194  22.025   3.692
20976W        W86236   2.213  22.557   1.341
20977W        W86237  29.358  24.640   2.697
20978W        W86238  10.801  20.537  13.570
20979W        W86239  24.595  32.924  13.261
20980W        W86240  16.309  22.055   2.037
20981W        W86241   1.808  28.469  12.594
20982W        W86242   7.234  42.004  11.924
20983W        W86243  40.399  20.021  14.408
20984W        W86244  15.361  35.170   3.319
20985W        W86245  25.628   8.244  11.546
20986W        W86246  44.260  38.095  13.869
20987W        W86247   8.311  32.272   3.807
20988W        W86248  41.584   7.485  13.087
20989W        W86249  15.884   4.780  11.980
20990W        W86250  19.195  44.764   0.455
20991W        W86251  17.052  38.466  14.982
20992W        W86252  44.925   6.925   2.710
20993W        W86253  41.812  35.496   2.768
20994W        W86254  24.583  33.044  13.759
20995W        W86255  22.488  20.641   1.947
20996W        W86256   4.428  42.776  14.996
20997W        W86257  36.772  19.619   1.868
20998W        W86258  44.445  43.728   4.257
20999W        W86259   8.372  11.389   1.967
21000W        W86260   5.055  10.089   1.868
21001W        W86261   1.798  11.083  14.997
21002W        W86262  34.987  15.498   0.440
21003W        W86263   8.258  21.023   3.183
21004W        W86264   4.387  19.238   1.639
21005W        W86265  29.784  18.626   5.023
21006W        W86266  19.469   3.777  11.192
21007W        W86267  43.250   1.758   0.504
21008W        W86268   6.256   5.336  10.882
21009W        W86269  44.992  43.294   0.908
21010W        W86270   5.121  26.483   1.126
21011W        W86271  28.782  43.133   1.573
21012W        W86272  40.673  31.574   2.813
21013W        W86273  33.417  20.065   3.265
21014W        W86274  42.461   9.181  11.643
21015W        W86275  20.797  41.495  11.008
21016W        W86276  15.041  30.169   3.405
21017W        W86277  33.585  13.588  14.974
21018W        W86278   6.182  19.745  12.275
21019W        W86279   0.237  14.563  11.027
21020W        W86280   8.454  32.391  12.008
21021W        W86281  41.081  19.479  14.064
21022W        W86282  14.816  39.333  13.900
21023W        W86283  19.912  11.092  11.147
21024W        W86284  23.588  43.959   0.594
21025W        W86285  17.479  39.924   3.368
21026W        W86286   4.173   8.116  11.700
21027W        W86287   6.395  44.939   0.763
21028W        W86288  34.222  27.565  14.030
21029W        W86289  27.171  39.886   4.468
21030W        W86290   0.269   7.902   2.951
21031W        W86291  12.267  11.547   3.245
21032W        W86292   0.747   1.465  13.030
21033W        W86293  26.542  22.843   3.728
21034W        W86294  42.481  35.564   2.252
21035W        W86295  10.264  24.996   2.812
21036W        W86296  11.114   9.790  10.768
21037W        W86297  21.224  40.982   4.634
21038W        W86298  43.068   0.896   3.598
21039W        W86299   8.350  24.489   2.139
21040W        W86300  10.670  42.233   3.701
21041W        W86301   0.867  40.428   4.472
21042W        W86302  12.578  31.826   4.048
21043W        W86303  37.056  24.255   3.313
21044W        W86304  28.658  25.460  14.861
21045W        W86305  13.898  13.801   0.330
21046W        W86306  35.050  22.263  14.341
21047W        W86307  17.258  33.139  12.377
21048W        W86308  18.370  22.735  10.707
21049W        W86309  37.486  34.721  10.665
21050W        W86310  37.623  23.570  11.879
21051W        W86311  33.408   1.235   4.341
21052W        W86312   8.431   7.816   1.740
21053W        W86313  36.046  13.144  14.885
21054W        W86314   4.299  33.701  11.542
21055W        W86315  44.265  37.908  14.359
21056W        W86316  36.851  37.845   1.862
21057W        W86317  36.622   8.321   1.695
21058W        W86318  31.030   7.106  10.351
21059W        W86319  24.761  23.173   5.341
21060W        W86320   5.449  26.414  10.178
21061W        W86321   8.754  30.706   1.409
21062W        W86322  20.202   7.662  12.949
21063W        W86323  23.947  35.857  13.248
21064W        W86324  17.724  16.804  10.647
21065W        W86325  36.774  33.851   3.556
21066W        W86326  13.532  33.167  11.578
21067W        W86327  34.718  12.634  14.314
21068W        W86328  36.422  44.913   0.440
21069W        W86329  32.312  31.641  14.001
21070W        W86330  14.607   8.170   1.219
21071W        W86331  29.610  17.496   1.942
21072W        W86332  18.382  27.053   4.883
21073W        W86333  22.692  22.065   3.336
21074W        W86334  41.666  21.685   0.313
21075W        W86335   2.964   2.828  12.057
21076W        W86336  33.508  14.819  13.835
21077W        W86337  36.604  30.677   3.199
21078W        W86338  36.561  34.032  13.778
21079W        W86339  25.574   6.191  11.866
21080W        W86340  31.316   7.219   1.144
21081W        W86341  41.281  31.884  13.094
21082W        W86342   2.891  24.679  12.649
21083W        W86343   7.871  30.935  11.376
21084W        W86344  38.504  12.702  12.900
21085W        W86345  31.265   6.044  10.533
21086W        W86346   0.701  23.312   3.817
21087W        W86347   5.458  38.903   1.849
21088W        W86348   5.692  12.289  12.397
21089W        W86349  41.941  35.142  13.439
21090W        W86350  26.940  41.111   3.510
21091W        W86351  11.260  15.247  12.004
21092W        W86352   4.486  19.502   0.045
21093W        W86353  39.058  35.450   4.602
21094W        W86354  33.477  38.024   2.913
21095W        W86355  27.463  31.856   0.702
21096W        W86356   9.331  24.525  13.707
21097W        W86357  44.442  40.910  10.324
21098W        W86358  24.961  19.104  13.410
21099W        W86359  14.144  27.098   3.792
21100W        W86360  43.142  31.588  12.046
21101W        W86361  30.970  20.463   2.677
21102W        W86362  44.801  25.658   3.881
21103W        W86363  17.610  13.576  11.603
21104W        W86364  33.233  29.323   2.936
21105W        W86365  39.306  44.446  11.576
21106W        W86366  13.343  23.631   1.121
21107W        W86367  10.749  10.901  12.214
21108W        W86368  18.076  16.260   1.492
21109W        W86369  22.556  30.069  10.691
21110W        W86370  40.106  11.878  12.888
21111W        W86371   7.857   9.311   4.133
21112W        W86372  11.141  18.299   0.718
21113W        W86373   5.456  23.462  11.994
21114W        W86374   2.959  37.500  14.444
21115W        W86375   4.465   9.972   4.488
21116W        W86376  13.433  39.927  13.918
21117W        W86377   9.880  30.999   1.860
21118W        W86378  16.696  34.617   1.804
21119W        W86379  33.455   6.748  14.337
21120W        W86380   5.174  42.382   0.978
21121W        W86381  15.801  29.237  12.931
21122W        W86382  19.541  20.678   0.515
21123W        W86383  12.168   3.856   0.259
21124W        W86384  11.783  21.028  10.253
21125W        W86385  35.424  37.513   3.152
21126W        W86386  40.210  19.573  10.868
21127W        W86387  40.336   8.409   1.925
21128W        W86388  36.776  39.064   5.060
21129W        W86389  27.498  34.024  12.078
21130W        W86390  30.543  37.424  14.509
21131W        W86391  34.871  17.568  12.055
21132W        W86392  34.519  43.815  13.770
21133W        W86393  31.180  29.434   1.341
21134W        W86394   6.875  20.194  13.817
21135W        W86395   9.220  27.234  12.376
21136W        W86396  17.001  13.600  11.094
21137W        W86397  16.217  42.077   1.306
21138W        W86398   7.900   0.783   4.532
21139W        W86399  21.513  42.582  12.366
21140W        W86400  12.232  18.532   1.223
21141W        W86401  12.767  21.846  12.912
21142W        W86402   3.704  35.650   4.199
21143W        W86403  10.882  14.572  12.874
21144W        W86404  38.894  38.005  13.792
21145W        W86405  35.751  11.456   1.677
21146W        W86406  15.334  33.814   3.660
21147W        W86407  23.670   2.750  14.808
21148W        W86408  36.868  31.745  12.494
21149W        W86409  20.212  14.327  11.408
21150W        W86410  10.128  32.572  14.344
21151W        W86411  17.625  36.019  11.441
21152W        W86412  34.376  37.386   0.826
21153W        W86413  39.944   6.707   2.458
21154W        W86414  40.532  27.399   0.894
21155W        W86415  27.682  11.296   2.742
21156W        W86416  29.412  42.823  10.034
21157W        W86417  13.229  28.586   1.868
21158W        W86418   2.968  27.921   0.945
21159W        W86419  18.204   8.871  13.609
21160W        W86420  21.336   2.821  11.515
21161W        W86421  32.272  23.954   2.845
21162W        W86422   6.315  44.483  11.578
21163W        W86423  19.729  39.331  12.039
21164W        W86424   7.478   8.225   3.099
21165W        W86425   6.284  41.775  11.124
21166W        W86426  35.603  18.517   2.182
21167W        W86427  15.292  39.876   0.523
21168W        W86428   2.327  26.988   3.816
21169W        W86429  42.995  16.675   2.632
21170W        W86430  12.147  18.607   2.623
21171W        W86431  17.808  21.418   3.110
21172W        W86432   3.921  29.453  13.367
21173W        W86433  37.005  24.994  13.996
21174W        W86434  24.225  41.840  12.100
21175W        W86435   4.620  22.573   1.394
21176W        W86436  24.959   5.651  11.513
21177W        W86437   1.707  28.844  13.876
21178W        W86438   5.273   8.350  13.558
21179W        W86439  38.648  22.294  10.729
21180W        W86440  32.885  42.302  13.024
21181W        W86441   3.916   5.342  10.701
21182W        W86442   1.791  39.544   2.257
21183W        W86443  12.069  32.631  11.499
21184W        W86444  33.177  43.761  14.320
21185W        W86445  21.318  20.607   2.159
21186W        W86446  33.446  44.249  10.170
21187W        W86447  16.515  15.418   2.272
21188W        W86448  30.426  20.626   2.456
21189W        W86449  36.170  26.566   3.222
21190W        W86450  37.856  13.712   4.537
21191W        W86451  25.285  35.661   9.968
21192W        W86452  27.030  11.484  10.681
21193W        W86453  33.937   7.793  12.127
21194W        W86454   9.352  42.105  12.309
21195W        W86455  44.724   8.959  11.923
21196W        W86456  23.972  26.104  14.224
21197W        W86457   1.487  18.647  10.774
21198W        W86458  33.498   1.923  14.827
21199W        W86459   8.486  24.154  14.533
21200W        W86460  26.714  31.455   3.719
21201W        W86461  40.142  38.330  14.856
21202W        W86462  26.522   0.548   4.141
21203W        W86463  44.565  24.451  12.032
21204W        W86464   5.537  39.715   1.478
21205W        W86465   4.431  27.151   0.734
21206W        W86466  21.598  36.552  14.200
21207W        W86467  27.002  11.828   2.737
21208W        W86468  44.555   3.028   4.588
21209W        W86469  22.688   4.410   2.265
21210W        W86470  43.978  24.957  12.536
21211W        W86471  44.230  40.321   3.732
21212W        W86472  40.109  15.750   2.344
21213W        W86473  13.028   1.471  14.465
21214W        W86474  21.069  10.696  10.975
21215W        W86475   5.270  17.531   0.036
21216W        W86476   6.678  22.537  10.816
21217W        W86477  18.997   3.716   2.839
21218W        W86478  22.748   7.692   0.503
21219W        W86479  16.959  21.254  13.913
21220W        W86480  25.738   6.449  14.744
21221W        W86481  17.156  25.484   2.658
21222W        W86482  31.450   5.320  12.864
21223W        W86483   2.980  23.888  14.413
21224W        W86484  24.738  44.523   1.328
21225W        W86485  27.944  10.936  13.317
21226W        W86486  15.240   3.450   3.149
21227W        W86487  43.852   6.221   2.700
21228W        W86488  30.217  38.035   2.464
21229W        W86489  27.676  31.776   3.766
21230W        W86490  13.670  12.279   0.827
21231W        W86491  41.608  37.461  10.507
21232W        W86492   8.188  38.775   0.328
21233W        W86493  21.213  20.550   9.726
21234W        W86494   8.270  23.670  13.931
21235W        W86495  32.590  10.378  12.934
21236W        W86496  14.820   7.179   1.318
21237W        W86497  15.083  43.821   0.370
21238W        W86498  23.457  12.313   2.412
21239W        W86499   7.531  29.071  13.807
21240W        W86500  24.033  34.366   0.296
21241W        W86501  22.969  26.265  14.350
21242W        W86502  27.142   0.697   4.812
21243W        W86503  16.857  40.805   1.337
21244W        W86504   7.859   5.280  10.328
21245W        W86505  44.789  30.931   0.022
21246W        W86506   1.893  31.428   2.893
21247W        W86507  12.361  27.979  14.889
21248W        W86508  19.124  20.423   0.305
21249W        W86509  21.142  10.355  12.577
21250W        W86510  22.021   0.533  12.141
21251W        W86511  17.816  11.735  13.568
21252W        W86512  12.840  21.691  14.406
21253W        W86513  31.496  36.336   2.863
21254W        W86514   6.170  30.505   1.803
21255W        W86515  14.193  43.479   4.658
21256W        W86516  11.847  21.598   0.348
21257W        W86517   6.181   2.371  13.396
21258W        W86518   3.408  23.162  14.049
21259W        W86519  21.875  23.976   3.175
21260W        W86520  35.799   9.319   1.244
21261W        W86521   4.608   9.685  12.130
21262W        W86522  10.289  18.575  11.997
21263W        W86523  44.496  31.651   2.757
21264W        W86524  19.303  12.852   2.317
21265W        W86525   0.304   6.240   0.756
21266W        W86526  18.042  24.300   2.394
21267W        W86527  23.927   7.149   0.016
21268W        W86528  39.914  20.003  13.718
21269W        W86529  14.843  19.721  12.892
21270W        W86530  33.845  28.689   3.473
21271W        W86531  15.450  31.600   4.247
21272W        W86532  37.233  11.498  10.448
21273W        W86533  21.727  22.160   0.464
21274W        W86534  36.846  18.799   2.786
21275W        W86535  14.110  20.186   2.306
21276W        W86536  41.734  40.459  13.843
21277W        W86537  40.770  27.730   0.545
21278W        W86538   8.751   9.099  13.084
21279W        W86539  32.036   0.653  14.780
21280W        W86540  32.561  28.887   1.380
21281W        W86541   7.886  40.203  10.345
21282W        W86542  17.504  21.633   1.330
21283W        W86543   5.950  13.094   1.111
21284W        W86544   6.497  10.625   0.300
21285W        W86545   2.299  37.008  14.875
21286W        W86546  22.159  13.659   1.433
21287W        W86547  31.758   3.048  13.488
21288W        W86548   2.468  34.115   3.171
21289W        W86549   6.014  34.400   9.848
21290W        W86550  32.725   1.546   3.604
21291W        W86551  23.230  18.094   0.651
21292W        W86552  26.993  32.783  13.511
21293W        W86553   8.953  40.944   4.210
21294W        W86554  21.411  27.904   1.368
21295W        W86555  31.271  18.428   3.655
21296W        W86556  14.927  34.945   3.131
21297W        W86557  21.931  31.393  13.905
21298W        W86558   9.937  41.137   2.847
21299W        W86559  14.535  13.110   1.860
21300W        W86560  28.370  21.562   0.264
21301W        W86561  29.567  35.126  12.086
21302W        W86562  27.114  22.671   0.370
21303W        W86563  28.631   4.548  14.440
21304W        W86564   3.256  38.121   3.047
21305W        W86565  44.904  29.485  11.891
21306W        W86566  35.545  19.529  11.653
21307W        W86567  14.313   5.492  11.611
21308W        W86568   0.867  32.272   4.393
21309W        W86569  27.246  37.228  11.049
21310W        W86570  41.929   0.882  12.123
21311W        W86571  37.343  29.043  11.459
21312W        W86572  24.520  42.506   2.399
21313W        W86573   2.757  24.245  13.339
21314W        W86574  13.561  23.733  14.269
21315W        W86575  31.024   7.069   0.168
21316W        W86576   0.657  37.461   3.184
21317W        W86577  18.989  11.254  12.502
21318W        W86578  14.619  42.493   0.886
21319W        W86579  13.547   3.518   3.593
21320W        W86580  30.486  12.699   3.330
21321W        W86581  22.827  27.191   4.835
21322W        W86582  17.868  18.080   9.802
21323W        W86583  38.433   7.211   2.826
21324W        W86584   1.977  29.580   1.951
21325W        W86585  30.035  34.585  11.578
21326W        W86586  14.728  15.752   3.843
21327W        W86587  44.464   2.878  13.371
21328W        W86588  29.510   1.115  11.068
21329W        W86589  42.542  15.240   2.708
21330W        W86590  12.163  12.817  11.852
21331W        W86591   7.004  43.023  14.894
21332W        W86592  17.220  27.026  14.691
21333W        W86593  15.267  25.638  11.994
21334W        W86594  21.564   7.391   1.212
21335W        W86595  36.038  40.415  13.223
21336W        W86596  14.110  12.796   1.797
21337W        W86597  17.704   5.173   3.214
21338W        W86598   9.066  37.412   1.457
21339W        W86599  18.037  32.286  14.418
21340W        W86600  30.928  34.645   1.290
21341W        W86601   9.429   3.286   0.296
21342W        W86602  43.349  17.567   0.769
21343W        W86603  11.305  41.106   4.159
21344W        W86604  24.270  27.079   2.110
21345W        W86605  33.908  26.292   0.939
21346W        W86606  29.508  39.918  12.059
21347W        W86607   5.924  26.735   5.632
21348W        W86608  16.628  23.135  13.867
21349W        W86609  30.495  32.873   0.419
21350W        W86610   6.690  26.427   9.712
21351W        W86611  11.081   1.367  11.179
21352W        W86612  10.877  37.482  11.561
21353W        W86613  16.114  24.669   3.419
21354W        W86614  23.006  12.582   0.262
21355W        W86615  34.436  19.212  14.866
21356W        W86616  13.690  13.582   2.099
21357W        W86617  10.769  34.872  11.740
21358W        W86618  43.478   8.630  12.959
21359W        W86619  39.285  15.742   1.167
21360W        W86620   6.864  31.578  14.011
21361W        W86621  20.322   3.229  10.664
21362W        W86622  14.621  44.544   0.726
21363W        W86623  23.728   3.667   9.880
21364W        W86624  15.322  43.787  13.547
21365W        W86625  28.970  26.888   4.559
21366W        W86626  28.906   0.864  10.585
21367W        W86627  15.659  24.583  14.841
21368W        W86628  20.839  32.260  10.912
21369W        W86629   2.796  10.627   1.878
21370W        W86630  33.850  30.383   3.754
21371W        W86631   3.452  14.066  12.963
21372W        W86632  31.900   1.812  10.691
21373W        W86633  22.486  32.659   9.883
21374W        W86634  20.289   1.672   4.093
21375W        W86635   8.876  11.244   1.875
21376W        W86636  44.856  42.961   5.120
21377W        W86637  36.734  14.527  13.000
21378W        W86638  32.574  30.274  13.856
21379W        W86639   0.826  39.574  13.985
21380W        W86640   1.213  25.521   3.159
21381W        W86641  33.201   7.436   4.586
21382W        W86642  26.580  16.222  13.245
21383W        W86643  11.353  31.735   4.562
21384W        W86644   3.361  29.707  13.861
21385W        W86645  24.003   1.034  14.724
21386W        W86646   8.870   8.216  13.815
21387W        W86647  27.673  28.626  13.158
21388W        W86648   7.625   4.305   1.937
21389W        W86649  18.714   7.385   2.988
21390W        W86650   4.267  21.474  13.777
21391W        W86651  26.069  27.399  14.876
21392W        W86652  22.216  19.630   2.150
21393W        W86653  27.193  42.329   0.752
21394W        W86654  12.502  25.649  13.997
21395W        W86655  18.214   5.632   1.305
21396W        W86656  12.037   4.442  11.279
21397W        W86657  38.465  30.563   1.661
21398W        W86658   5.526  26.034  11.614
21399W        W86659  23.126  26.263   4.627
21400W        W86660  22.358  26.578  12.495
21401W        W86661  33.581  24.224   1.805
21402W        W86662  21.251  11.920   0.792
21403W        W86663  34.502  38.575  12.405
21404W        W86664  40.938  10.151  11.004
21405W        W86665  29.500   9.979   3.590
21406W        W86666  20.214  23.664  13.371
21407W        W86667  43.970  19.209   1.127
21408W        W86668  26.999   8.250   1.451
21409W        W86669  36.486  15.826  13.698
21410W        W86670  15.023  17.137   2.780
21411W        W86671  15.914  21.691  11.086
21412W        W86672  23.145  41.383  14.494
21413W        W86673  41.436  26.460  13.842
21414W        W86674   7.572  26.479  12.249
21415W        W86675  41.270   5.332   3.615
21416W        W86676  35.342  33.818  10.709
21417W        W86677  13.706  30.481  13.326
21418W        W86678  25.756  13.569   2.852
21419W        W86679  12.173  32.927  13.956
21420W        W86680  39.056  27.119  10.881
21421W        W86681  44.912  12.065   0.793
21422W        W86682  24.764  13.653  14.713
21423W        W86683   2.765  20.643   4.245
21424W        W86684  37.377  10.681   1.219
21425W        W86685  16.226  22.954   3.293
21426W        W86686   7.610  19.239   3.614
21427W        W86687  27.925  21.768   4.225
21428W        W86688  18.030   0.023   0.809
21429W        W86689  35.756  11.849   3.332
21430W        W86690  16.035   6.697  13.295
21431W        W86691  21.289  12.669   4.061
21432W        W86692   3.364   4.485   4.536
21433W        W86693   2.492  12.946  14.671
21434W        W86694   1.916  10.167  12.024
21435W        W86695  32.894   0.558   3.451
21436W        W86696  42.243   9.694   2.850
21437W        W86697  43.526  15.876  12.814
21438W        W86698  16.420  34.084  11.837
21439W        W86699  41.454   4.316   3.385
21440W        W86700  35.912   6.864  13.464
21441W        W86701   8.029  42.887   4.237
21442W        W86702  34.918  24.168   0.730
21443W        W86703   6.256  15.058   1.388
21444W        W86704   9.680  40.337   3.585
21445W        W86705  14.916  32.109  10.796
21446W        W86706   8.533  13.879   3.262
21447W        W86707  30.092   4.179   0.382
21448W        W86708  22.612   0.202   1.424
21449W        W86709  35.912   9.814  11.114
21450W        W86710  32.592   6.890   4.583
21451W        W86711  21.866   2.199  13.170
21452W        W86712   3.206  42.472   0.337
21453W        W86713  15.115  26.565   3.286
21454W        W86714   2.167  36.961  11.158
21455W        W86715  30.169   7.784  11.510
21456W        W86716   4.231  18.094  12.957
21457W        W86717  41.546  38.105   2.370
21458W        W86718  17.030   1.875  12.201
21459W        W86719  18.566  10.334   5.368
21460W        W86720  25.732  23.305   2.814
21461W        W86721  37.849  41.947   3.236
21462W        W86722   2.396  16.388   1.865
21463W        W86723   3.973  38.452  13.352
21464W        W86724   7.797   5.713  12.069
21465W        W86725   1.148  24.106  12.945
21466W        W86726  13.010  14.804  12.496
21467W        W86727   5.858  32.562  10.432
21468W        W86728  18.105   9.108   1.965
21469W        W86729  16.052  19.128   3.753
21470W        W86730  14.216  30.542  11.295
21471W        W86731  37.028  22.527   0.151
21472W        W86732   8.429  15.233   0.277
21473W        W86733  14.280  40.450   3.335
21474W        W86734  20.748   3.984   1.225
21475W        W86735  39.989   0.187   4.833
21476W        W86736  39.968  21.543   4.085
21477W        W86737  37.729  21.538   1.160
21478W        W86738  31.577   6.162  12.482
21479W        W86739  21.263  41.841   1.476
21480W        W86740  15.408  17.740   1.558
21481W        W86741   7.100  41.509  12.041
21482W        W86742  36.753  15.755  12.637
21483W        W86743  29.336  41.819   3.354
21484W        W86744  39.376  32.949  11.677
21485W        W86745  39.105  17.748   2.629
21486W        W86746  19.479  37.535  13.401
21487W        W86747  34.500   0.207  10.970
21488W        W86748   1.862  12.798   2.275
21489W        W86749  27.782  13.651   1.913
21490W        W86750  25.585  43.907   1.182
21491W        W86751  15.108  18.569   4.588
21492W        W86752  44.014  35.364   3.286
21493W        W86753  32.594   2.763   1.483
21494W        W86754  33.620   7.767   3.914
21495W        W86755  41.987  19.130  11.651
21496W        W86756  25.557  20.997   4.635
21497W        W86757  10.259  10.924   0.043
21498W        W86758  44.186   2.755   4.191
21499W        W86759  29.653  34.069   1.189
21500W        W86760  18.626  29.198  12.592
21501W        W86761  35.861  23.613   3.198
21502W        W86762  44.690  38.809  11.088
21503W        W86763   8.009  44.507  13.388
21504W        W86764  12.660  18.197  14.732
21505W        W86765   6.812  40.962  13.367
21506W        W86766  32.379  38.317   0.801
21507W        W86767  11.310  23.581  13.913
21508W        W86768  19.725  18.319  12.391
21509W        W86769  37.860  29.594  12.010
21510W        W86770  42.278  26.521   4.154
21511W        W86771  14.785  24.631   4.467
21512W        W86772   7.085   6.579   0.740
21513W        W86773  24.152  31.109   4.824
21514W        W86774  20.404  29.004   0.955
21515W        W86775  39.993   8.550  12.198
21516W        W86776  43.214  10.674  14.326
21517W        W86777  33.963  18.035   4.947
21518W        W86778  32.150  38.225  11.426
21519W        W86779  21.990   2.340  12.661
21520W        W86780   2.861  41.295  11.827
21521W        W86781  43.404  24.086   3.032
21522W        W86782  14.084   0.805  12.553
21523W        W86783  15.541  40.984  12.010
21524W        W86784  14.587  26.149  13.610
21525W        W86785  14.555  39.836   1.889
21526W        W86786  12.165   9.606  14.758
21527W        W86787  32.362  13.170  10.735
21528W        W86788  23.675  12.582   3.967
21529W        W86789   4.992  17.594   1.359
21530W        W86790  40.536   2.376  13.517
21531W        W86791  29.497  27.926  11.940
21532W        W86792   1.446   3.491   3.322
21533W        W86793  16.648   5.580   0.956
21534W        W86794  21.056   1.702  12.812
21535W        W86795  21.079  42.500   2.865
21536W        W86796   1.855   8.729   0.427
21537W        W86797  27.949  19.224  10.758
21538W        W86798   0.923  32.369  13.475
21539W        W86799  25.039  22.559  13.334
21540W        W86800  16.905  26.708  12.469
21541W        W86801  21.626   1.465  14.729
21542W        W86802  21.404  12.044   2.957
21543W        W86803  40.503  29.574  13.268
21544W        W86804  28.005  22.889   1.775
21545W        W86805   8.590  44.091   3.692
21546W        W86806  13.243  36.924   0.979
21547W        W86807  44.741  10.121  12.922
21548W        W86808  36.225  17.248  13.356
21549W        W86809   3.676  28.680  11.597
21550W        W86810  16.245  30.171  14.513
21551W        W86811   4.925  10.530  14.561
21552W        W86812  26.617  18.293  13.297
21553W        W86813   6.577   2.215  12.090
21554W        W86814  21.972  37.332  12.847
21555W        W86815  26.730   6.289  14.797
21556W        W86816  15.409  18.707  13.441
21557W        W86817  37.003  26.912   4.647
21558W        W86818  38.450   5.441   2.415
21559W        W86819  39.873  28.604  12.939
21560W        W86820   8.952  42.052   1.794
21561W        W86821  18.153  24.017   3.364
21562W        W86822  37.491  23.593   3.184
21563W        W86823  34.471  40.445  10.999
21564W        W86824  12.766  44.766   0.742
21565W        W86825  22.438  34.909  14.293
21566W        W86826   0.917  32.698  14.713
21567W        W86827  25.999  14.451   1.884
21568W        W86828  38.022  34.008  14.619
21569W        W86829   2.856   4.935  12.105
21570W        W86830  39.504  21.272  11.570
21571W        W86831  31.654  34.328   0.291
21572W        W86832  29.697  40.045   2.786
21573W        W86833  13.419  25.274  14.927
21574W        W86834  24.517  13.599   2.408
21575W        W86835  26.381  44.224   2.290
21576W        W86836  24.651  40.489  14.434
21577W        W86837  18.800  19.236   1.737
21578W        W86838  17.355  37.344  10.194
21579W        W86839  20.562  17.491   3.260
21580W        W86840   1.331  19.730  12.844
21581W        W86841  15.782  29.004   3.272
21582W        W86842  44.839  11.072   2.952
21583W        W86843  17.723   7.336   0.057
21584W        W86844  15.704  34.797  13.040
21585W        W86845  27.031  17.213   0.882
21586W        W86846  23.521  40.958  14.523
21587W        W86847  37.067   3.797  13.581
21588W        W86848   1.454  40.861  13.353
21589W        W86849  22.276  42.734   3.452
21590W        W86850   3.928   2.000   2.387
21591W        W86851   4.405  20.124  13.159
21592W        W86852  29.905  14.111   1.395
21593W        W86853   5.253  39.390   2.785
21594W        W86854  38.629  22.268   2.266
21595W        W86855  20.034  34.610   3.843
21596W        W86856  39.297  28.983   3.624
21597W        W86857  37.947   9.423  12.192
21598W        W86858   0.442  15.806   3.537
21599W        W86859  21.685  21.184  13.638
21600W        W86860  22.516  32.403  10.532
21601W        W86861  31.031  34.025  11.570
21602W        W86862  22.590  37.128   1.918
21603W        W86863  18.401   4.202   2.153
21604W        W86864  15.867  14.348  13.769
21605W        W86865   6.879  43.606   1.443
21606W        W86866  20.133  16.593  10.183
21607W        W86867  16.033  40.882  12.896
21608W        W86868  41.366  21.645   4.070
21609W        W86869  29.494  35.405  12.553
21610W        W86870  39.782  26.031  13.578
21611W        W86871  36.528  15.846  13.154
21612W        W86872  19.100  35.258   1.414
21613W        W86873   3.690  42.785  13.378
21614W        W86874  39.113   3.721  11.198
21615W        W86875  23.484  42.897  11.538
21616W        W86876  24.847  15.776  12.314
21617W        W86877  28.126  38.668   2.296
21618W        W86878   4.915  33.282  10.245
21619W        W86879  28.214  11.843  10.381
21620W        W86880  22.611  33.703   1.775
21621W        W86881  34.236  15.959   4.108
21622W        W86882  39.993  16.709  13.100
21623W        W86883   9.717  31.459   3.718
21624W        W86884  15.069   4.358  14.932
21625W        W86885   0.066  18.047   4.777
21626W        W86886  38.996  32.792   2.032
21627W        W86887  44.971   1.841  13.430
21628W        W86888  14.787   6.164  12.994
21629W        W86889  31.108  27.150  12.383
21630W        W86890   7.816  37.777   2.205
21631W        W86891  21.277  34.450   0.943
21632W        W86892  18.713  18.227  13.387
21633W        W86893  33.656  25.735   3.179
21634W        W86894  42.386  12.067   2.820
21635W        W86895  12.870  35.536  11.957
21636W        W86896   5.839   4.103   0.925
21637W        W86897  12.358   1.805  11.515
21638W        W86898   9.474  37.533  12.975
21639W        W86899  41.920   6.214   4.500
21640W        W86900  30.086  20.085   1.366
21641W        W86901  44.718  22.825   4.579
21642W        W86902   2.893  33.472  12.864
21643W        W86903  22.763  26.572   4.054
21644W        W86904  29.600  23.260  12.311
21645W        W86905  17.675  14.581   1.484
21646W        W86906  28.725   9.286  12.487
21647W        W86907  23.177  32.455  12.793
21648W        W86908  21.452  41.917  13.024
21649W        W86909  19.784  33.100   0.181
21650W        W86910  38.729   7.426   4.067
21651W        W86911  27.788  12.753  13.434
21652W        W86912  40.249  10.337   3.327
21653W        W86913  34.500  27.146  14.805
21654W        W86914   6.552  14.286  12.240
21655W        W86915   5.320  38.981   4.581
21656W        W86916  11.445   0.616  12.093
21657W        W86917  10.135   6.623  12.322
21658W        W86918   5.415  26.397  13.289
21659W        W86919   7.610  28.098  13.518
21660W        W86920   6.659  12.851  10.746
21661W        W86921   7.219  31.112  14.492
21662W        W86922   7.322   0.336  13.864
21663W        W86923  22.722   0.740   4.148
21664W        W86924  18.131  41.891   4.238
21665W        W86925  27.407  23.318  11.806
21666W        W86926  19.711  41.106   2.907
21667W        W86927   6.242  19.675  11.279
21668W        W86928  20.709  34.901   1.423
21669W        W86929  12.267  37.858   2.915
21670W        W86930  30.043  13.644  14.793
21671W        W86931  23.014   2.243  11.162
21672W        W86932  25.182   6.874   1.073
21673W        W86933  36.616  24.414  13.339
21674W        W86934  14.908  33.192  14.523
21675W        W86935   7.936  25.953   3.150
21676W        W86936  11.691  24.395   4.017
21677W        W86937  32.158  17.286  13.941
21678W        W86938  39.442  40.135   3.959
21679W        W86939  32.179   0.522   4.236
21680W        W86940  16.198  23.715  11.644
21681W        W86941  14.869   7.267  13.588
21682W        W86942  20.676  27.956   4.483
21683W        W86943   3.243  28.418  11.604
21684W        W86944  22.115  10.930   3.354
21685W        W86945  14.237  37.789  11.915
21686W        W86946  10.009   0.501  13.609
21687W        W86947  14.360  41.801  10.971
21688W        W86948  31.882  11.701  10.391
21689W        W86949  34.850  13.859  11.054
21690W        W86950  34.273  43.203   3.837
21691W        W86951  40.712   2.395   5.504
21692W        W86952  34.456  22.077   2.398
21693W        W86953  24.625  38.393   0.489
21694W        W86954  36.839   8.731  12.559
21695W        W86955   6.787  39.095   0.860
21696W        W86956  22.933  35.589  11.221
21697W        W86957   9.737  14.649   3.238
21698W        W86958  26.099   5.457   4.153
21699W        W86959  32.828  38.048   1.983
21700W        W86960  28.012  40.968  11.741
21701W        W86961   1.468  39.113  13.012
21702W        W86962   6.820  13.908  14.854
21703W        W86963   5.648  39.531  14.906
21704W        W86964   1.968  10.607   0.093
21705W        W86965  25.697   0.306  11.943
21706W        W86966   7.077  23.119  12.991
21707W        W86967  19.509  42.834  11.378
21708W        W86968  30.889   5.244   1.961
21709W        W86969  37.048  17.423   4.091
21710W        W86970  23.997   5.680  12.429
21711W        W86971  21.960  19.180  12.519
21712W        W86972  38.952  21.056   1.753
21713W        W86973   6.141   9.023   0.374
21714W        W86974  40.956  42.929   0.374
21715W        W86975   8.829   1.803   0.290
21716W        W86976  43.871  20.026   0.777
21717W        W86977  42.575   8.802  12.618
21718W        W86978  32.374  10.961  11.110
21719W        W86979  41.297   8.115  12.502
21720W        W86980  35.087   7.707   4.345
21721W        W86981  39.310  24.029  13.469
21722W        W86982  26.001  14.007   2.828
21723W        W86983   3.358  42.858   2.116
21724W        W86984  22.021   9.342  14.771
21725W        W86985  14.853  19.203  14.107
21726W        W86986  42.115  12.916   5.039
21727W        W86987   2.802  19.181   3.670
21728W        W86988  34.007  43.789  10.904
21729W        W86989  30.095  19.334  12.810
21730W        W86990  24.160  26.941  13.070
21731W        W86991   8.287  13.880  14.919
21732W        W86992  14.814  10.309  11.934
21733W        W86993  36.519  26.767  12.463
21734W        W86994  43.887  15.790  14.024
21735W        W86995  40.981  26.633  14.567
21736W        W86996   3.706  42.594   2.400
21737W        W86997   1.431  43.280   2.761
21738W        W86998  28.958  32.448   3.497
21739W        W86999  33.369  11.699  13.926
21740W        W87000  27.276  16.749   0.144
21741W        W87001   8.380  30.672  14.649
21742W        W87002  39.580  38.635  12.599
21743W        W87003  26.100  14.769   3.855
21744W        W87004  44.975  14.060   0.767
21745W        W87005  20.665   5.467   1.191
21746W        W87006  19.252  26.703   2.763
21747W        W87007  15.235  28.587  10.971
21748W        W87008  13.093   6.257   2.626
21749W        W87009   2.271  31.598   4.192
21750W        W87010   5.865  33.396  14.506
21751W        W87011  33.103  11.894  13.461
21752W        W87012  30.969  39.487   4.444
21753W        W87013  34.791  43.743   0.458
21754W        W87014  25.733  30.497  11.727
21755W        W87015  38.957  26.877   4.842
21756W        W87016  30.139   7.607   0.781
21757W        W87017  11.684  42.044   1.369
21758W        W87018  11.245  35.939   1.725
21759W        W87019   4.062  14.737  14.907
21760W        W87020   6.702  26.390   3.226
21761W        W87021  22.025  32.399  13.780
21762W        W87022  22.157  43.962   2.340
21763W        W87023   7.802  16.611  13.773
21764W        W87024   2.964   7.649  13.324
21765W        W87025  20.570  22.806   3.577
21766W        W87026   1.195  33.155  14.956
21767W        W87027  19.861  35.683  13.403
21768W        W87028  13.249  35.544   1.350
21769W        W87029  34.822  22.289  11.072
21770W        W87030  34.112   0.293  10.309
21771W        W87031   7.738  27.005  14.046
21772W        W87032  29.154   4.402  13.036
21773W        W87033  29.944  40.058   4.183
21774W        W87034  24.814  16.501  10.889
21775W        W87035  11.265  25.925  11.385
21776W        W87036  31.415   4.718  13.384
21777W        W87037  27.927  10.354  12.131
21778W        W87038   3.333  44.299  11.605
21779W        W87039  18.740  29.027  11.789
21780W        W87040   5.452  17.346  10.644
21781W        W87041   3.153   6.856   3.281
21782W        W87042   3.076  39.010   2.080
21783W        W87043  12.280  10.623   4.860
21784W        W87044  38.486   9.632   1.430
21785W        W87045  25.370  18.750   0.925
21786W        W87046   5.302  23.611   1.157
21787W        W87047  24.111  24.755   1.244
21788W        W87048  29.033  35.101   0.326
21789W        W87049  44.842  25.104  10.379
21790W        W87050   1.944  11.234   0.847
21791W        W87051  41.958  33.840  11.702
21792W        W87052  20.639  37.047  13.303
21793W        W87053  44.735  26.735  14.416
21794W        W87054  27.415   3.676   2.365
21795W        W87055  18.143  20.245   0.959
21796W        W87056   9.735  33.881   4.033
21797W        W87057  44.346   1.382  12.374
21798W        W87058  27.326  19.474  13.857
21799W        W87059  33.362  10.408   3.231
21800W        W87060  22.704  11.336   1.131
21801W        W87061  19.960   4.205   4.783
21802W        W87062   1.010  31.107   0.386
21803W        W87063   9.457  41.870   1.062
21804W        W87064  22.283   6.011   0.320
21805W        W87065  25.022  25.555  12.932
21806W        W87066  21.909  13.177   0.370
21807W        W87067  16.567   7.778   3.902
21808W        W87068  21.023   1.847   0.039
21809W        W87069  23.205   6.292  12.534
21810W        W87070  10.351  42.362   4.139
21811W        W87071   2.728  43.321   2.490
21812W        W87072   7.814  35.590   2.052
21813W        W87073   3.665  11.718   2.847
21814W        W87074  26.074  34.321   2.402
21815W        W87075  10.800   7.356  14.385
21816W        W87076  30.003   8.643  14.991
21817W        W87077   0.855   4.708   1.797
21818W        W87078  20.147  42.006   2.315
21819W        W87079  33.999  29.451  10.589
21820W        W87080  36.538  44.353   0.759
21821W        W87081  13.119  20.610   4.253
21822W        W87082  16.799  26.642   0.760
21823W        W87083  38.550  36.078  11.500
21824W        W87084  39.202   2.684   0.640
21825W        W87085  16.081  44.464   4.021
21826W        W87086  20.826  29.840  13.365
21827W        W87087   1.502  24.159  11.257
21828W        W87088  25.759   5.290   0.923
21829W        W87089   4.445  24.433   1.807
21830W        W87090  40.343  27.889  11.117
21831W        W87091  16.158  40.108  10.493
21832W        W87092  17.284  11.804   2.378
21833W        W87093   5.435  14.805  13.445
21834W        W87094  26.752   4.895  11.092
21835W        W87095  10.680   6.520  14.060
21836W        W87096   4.346  33.130   2.716
21837W        W87097  27.933  27.643   1.259
21838W        W87098  33.105  41.832  12.922
21839W        W87099  39.154  32.608   0.684
21840W        W87100   7.703   5.849  13.427
21841W        W87101   2.276   1.196   1.240
21842W        W87102  35.179  17.656   4.810
21843W        W87103  40.088   4.389   3.313
21844W        W87104  35.179  40.360   1.058
21845W        W87105  24.628   3.697   1.786
21846W        W87106  20.317  37.418   1.364
21847W        W87107  36.567  43.223   2.700
21848W        W87108  25.970  22.982   4.540
21849W        W87109  30.628   7.543  11.410
21850W        W87110  40.844  23.486  14.103
21851W        W87111  43.925  25.615  11.127
21852W        W87112  15.107  19.281  13.390
21853W        W87113  43.961   3.675  13.063
21854W        W87114   5.137  20.226  12.953
21855W        W87115  35.786   8.673   1.737
21856W        W87116  29.677  31.146  14.936
21857W        W87117  24.229  40.927  11.217
21858W        W87118  40.478   2.992   4.723
21859W        W87119  34.133  13.237   3.561
21860W        W87120  44.471  14.943  14.849
21861W        W87121  34.946   3.885  13.811
21862W        W87122   7.236  29.378  14.785
21863W        W87123  36.915   8.641  11.659
21864W        W87124  22.017  18.328   0.389
21865W        W87125   2.613  21.212   2.353
21866W        W87126  15.320  24.076   3.701
21867W        W87127  11.212  11.856   1.691
21868W        W87128  16.683  34.949  11.926
21869W        W87129  16.693  43.779  14.273
21870W        W87130  21.588  15.208   4.864
21871W        W87131  38.328  39.081  10.676
21872W        W87132  15.168  44.279   0.103
21873W        W87133   1.378   9.781  10.607
21874W        W87134  31.958   8.214  12.921
21875W        W87135   3.999  27.954  14.000
21876W        W87136  18.308  27.995   1.014
21877W        W87137  43.356  42.809  13.560
21878W        W87138  43.244  44.306   3.235
21879W        W87139   8.270   4.515  14.308
21880W        W87140   2.230   3.945   4.583
21881W        W87141  20.785  42.750   4.481
21882W        W87142   4.336  32.044   2.670
21883W        W87143  30.155  35.126   4.644
21884W        W87144  21.733  18.835  13.940
21885W        W87145   2.924  33.967  13.045
21886W        W87146  23.481   4.479  14.477
21887W        W87147  24.096  30.409   2.817
21888W        W87148  41.370  15.187   3.589
21889W        W87149  12.786  15.624   3.709
21890W        W87150  12.172  33.532   3.888
21891W        W87151  18.170  16.801   0.028
21892W        W87152  10.193  42.243  12.007
21893W        W87153  22.272  17.206  13.772
21894W        W87154  18.180  43.501  11.674
21895W        W87155  24.273  21.599   1.739
21896W        W87156   7.671   3.663   2.424
21897W        W87157   2.938  31.800  14.197
21898W        W87158  18.637  26.810   2.294
21899W        W87159   0.833   4.393  12.912
21900W        W87160  33.756  16.229  10.685
21901W        W87161   8.336  44.471   1.405
21902W        W87162   4.041  29.569   1.462
21903W        W87163  12.221  14.166  11.192
21904W        W87164  20.607  39.848  14.055
21905W        W87165  17.095   7.500  11.556
21906W        W87166  24.954  35.811   0.018
21907W        W87167   6.111   8.426  10.837
21908W        W87168   7.246  21.142   3.216
21909W        W87169  21.531  28.155   1.819
21910W        W87170  10.452  34.584   0.826
21911W        W87171   4.846  28.150  11.894
21912W        W87172  25.517   4.660   1.715
21913W        W87173  30.231  44.103  13.824
21914W        W87174  36.906  26.430   4.835
21915W        W87175  26.716  15.159  11.066
21916W        W87176   5.955  43.754   3.261
21917W        W87177  36.503   8.251  11.896
21918W        W87178  41.829  22.203   2.966
21919W        W87179  12.205  37.456  13.784
21920W        W87180  14.928  27.013  10.720
21921W        W87181  40.281  22.577   2.843
21922W        W87182  22.340  42.005   2.258
21923W        W87183  25.248  18.179  12.994
21924W        W87184  16.058   0.431  11.599
21925W        W87185  25.169  33.655  12.088
21926W        W87186  33.897  19.899   3.321
21927W        W87187  16.151   1.879   0.613
21928W        W87188  25.551   9.614   1.844
21929W        W87189  10.365  31.860   3.606
21930W        W87190   6.145  41.483   4.678
21931W        W87191  17.018  13.070   0.942
21932W        W87192  11.900  18.713  12.068
21933W        W87193  43.956  14.201  12.549
21934W        W87194  11.609  33.077   3.435
21935W        W87195  13.730  36.518  12.921
21936W        W87196  30.640  40.517   3.496
21937W        W87197  38.836   8.703   0.429
21938W        W87198  36.460  37.493  12.217
21939W        W87199   4.756  10.134  13.554
21940W        W87200  39.123  43.478   0.860
21941W        W87201   1.510  25.579  11.104
21942W        W87202  37.419  10.255  14.994
21943W        W87203  31.967  39.269   1.751
21944W        W87204  22.536  14.761   4.651
21945W        W87205   5.268  15.726   0.705
21946W        W87206   2.809  11.814   4.860
21947W        W87207  32.906  20.192   3.193
21948W        W87208  38.283  20.053   1.432
21949W        W87209  33.179  36.321   4.645
21950W        W87210  35.038  41.365   3.349
21951W        W87211   0.297   6.906   0.412
21952W        W87212  27.459  21.469   3.209
21953W        W87213  11.908  22.136  10.721
21954W        W87214  37.541   8.894  11.540
21955W        W87215  24.503   3.259  11.264
21956W        W87216  35.010   3.964  13.295
21957W        W87217   7.743  28.393  14.324
21958W        W87218  10.666  31.259   0.278
21959W        W87219  15.648  15.747  11.560
21960W        W87220  18.610  16.362   4.633
21961W        W87221   7.765   5.267   0.996
21962W        W87222  21.975  31.410  12.982
21963W        W87223  14.978  29.840  14.908
21964W        W87224   5.746   8.422  12.495
21965W        W87225  41.368  44.411   2.590
21966W        W87226  39.141  15.349  11.562
21967W        W87227  43.954   2.434  14.639
21968W        W87228  37.045  33.456   3.786
21969W        W87229  28.209  44.491   0.840
21970W        W87230  42.446  32.599  14.793
21971W        W87231  12.218   3.295   0.015
21972W        W87232  29.149   1.979   1.274
21973W        W87233   0.022   6.237   1.413
21974W        W87234  23.955  26.652   1.996
21975W        W87235  10.362  16.834  10.626
21976W        W87236  10.879  44.319   1.423
21977W        W87237  41.057  18.711   1.638
21978W        W87238   0.998   5.486   2.144
21979W        W87239   7.322  28.430  13.120
21980W        W87240  11.877   6.755  14.599
21981W        W87241  36.501  42.444  14.948
21982W        W87242  26.002  30.674   1.290
21983W        W87243  29.219   4.894  12.872
21984W        W87244  19.988  28.071  13.387
21985W        W87245   8.840  37.877   1.394
21986W        W87246  20.639  13.021  11.286
21987W        W87247   0.545  39.095  12.850
21988W        W87248  34.962   5.752   3.771
21989W        W87249  20.308  33.870   4.420
21990W        W87250  12.839  24.992   0.110
21991W        W87251  33.040  11.309  10.733
21992W        W87252   4.927  27.509  13.978
21993W        W87253  10.646  17.522   0.807
21994W        W87254  29.120  25.511   5.712
21995W        W87255  24.089  31.392  14.779
21996W        W87256  16.770  34.047  11.043
21997W        W87257  42.658   5.755  12.489
21998W        W87258  25.142   0.304  11.129
21999W        W87259  14.702  37.110  13.438
22000W        W87260  34.046  32.390   0.628
22001W        W87261   2.958  27.920  12.500
22002W        W87262  17.085  31.535   3.616
22003W        W87263   1.760  22.636   2.589
22004W        W87264  42.091  31.011   2.263
22005W        W87265   9.929   9.132  14.341
22006W        W87266  29.091  29.661  11.899
22007W        W87267  19.688  33.919  13.884
22008W        W87268  36.154  27.218   3.483
22009W        W87269  38.385  37.395  13.045
22010W        W87270  21.248  33.504   0.955
22011W        W87271  37.074  31.121  11.347
22012W        W87272   2.810  18.301   1.739
22013W        W87273  18.322  37.742  11.959
22014W        W87274   3.221  14.171  10.944
22015W        W87275  22.036  28.595   4.830
22016W        W87276  14.581  30.386   2.696
22017W        W87277  21.679  38.590   3.421
22018W        W87278  26.226  39.118   4.214
22019W        W87279  10.391  10.360   2.787
22020W        W87280   5.410  17.729   2.396
22021W        W87281  32.884   5.966   1.739
22022W        W87282  12.414  15.367  11.098
22023W        W87283  19.977   3.734  14.805
22024W        W87284  43.848   2.049  13.569
22025W        W87285   7.839  15.314   1.515
22026W        W87286  32.537  44.618   2.424
22027W        W87287   6.797  43.241  13.823
22028W        W87288  12.100  13.575   1.376
22029W        W87289  26.601  11.705  11.143
22030W        W87290  40.539  24.839  12.022
22031W        W87291  39.973  19.566   1.892
22032W        W87292  39.816  20.086  12.953
22033W        W87293  32.052  31.490   3.632
22034W        W87294   4.516  27.517  14.360
22035W        W87295  15.642   0.484   0.869
22036W        W87296   5.818   2.864  11.593
22037W        W87297  40.323  24.365  12.065
22038W        W87298  17.966   4.342   4.594
22039W        W87299  17.533  27.373   4.450
22040W        W87300  16.626  13.149  14.381
22041W        W87301  33.009  24.675  14.783
22042W        W87302   8.634  26.677   1.440
22043W        W87303  16.654   9.888  14.405
22044W        W87304  20.509  19.147  12.299
22045W        W87305  40.550  23.686   2.392
22046W        W87306  19.437  20.724   1.026
22047W        W87307  26.483  34.667  14.040
22048W        W87308  25.575  10.485  10.629
22049W        W87309   5.940  41.824  14.355
22050W        W87310  28.576   0.872  13.956
22051W        W87311  30.574  12.325   1.292
22052W        W87312   1.013  20.007   0.407
22053W        W87313   6.575  14.027   3.912
22054W        W87314  15.729  44.247  12.108
22055W        W87315  29.881  27.518  13.248
22056W        W87316   6.166   2.416  14.277
22057W        W87317   4.172  34.117  13.395
22058W        W87318   8.076   9.767   4.083
22059W        W87319  32.388  13.583  13.426
22060W        W87320  35.260   0.294  14.937
22061W        W87321  26.240  34.381   3.766
22062W        W87322   3.884  12.819  13.903
22063W        W87323  23.605  33.161  12.816
22064W        W87324  10.667  30.247  13.469
22065W        W87325   3.895  13.475   4.224
22066W        W87326  39.344  20.449   0.251
22067W        W87327   1.852  12.337  12.415
22068W        W87328  15.110  38.882  12.918
22069W        W87329  17.193  44.437  10.323
22070W        W87330  19.453  40.997  13.530
22071W        W87331  21.723  40.711  11.533
22072W        W87332  35.645  15.870   4.253
22073W        W87333  16.263  29.629   1.254
22074W        W87334  17.090  42.495   4.267
22075W        W87335  11.667  22.569  13.308
22076W        W87336  11.438  33.532  13.051
22077W        W87337  18.188  11.367  14.502
22078W        W87338  13.082  16.201   2.639
22079W        W87339  41.771  10.662  12.607
22080W        W87340  21.565  11.793  12.091
22081W        W87341  29.566  19.476   0.885
22082W        W87342  20.211  15.818   3.797
22083W        W87343   3.739  44.905   2.582
22084W        W87344  40.762  24.453  11.121
22085W        W87345  32.467  17.609   2.183
22086W        W87346  25.405  37.677  14.280
22087W        W87347  25.991  18.253  14.376
22088W        W87348  34.543   2.640  13.835
22089W        W87349  34.413  28.449  13.629
22090W        W87350  41.027  17.965   1.183
22091W        W87351   5.758  28.518   0.695
22092W        W87352  20.187  40.458  14.105
22093W        W87353  26.033  43.334   2.602
22094W        W87354   6.725  26.670   1.820
22095W        W87355   7.288  32.001   0.360
22096W        W87356   9.092   6.648   1.891
22097W        W87357  40.857  32.388   4.661
22098W        W87358   2.642  16.125   3.606
22099W        W87359  31.388   6.326   2.071
22100W        W87360  41.744   7.140  14.222
22101W        W87361   3.752  26.696   0.765
22102W        W87362  28.940  15.723   2.223
22103W        W87363   8.557  44.911  14.423
22104W        W87364   9.683  15.980  14.912
22105W        W87365  34.361   0.134   3.411
22106W        W87366   5.273  13.247   2.474
22107W        W87367  14.748   1.951   4.780
22108W        W87368   0.933  24.744   0.229
22109W        W87369  34.039  31.266   1.804
22110W        W87370  18.185   0.780   0.315
22111W        W87371   0.026   0.688  11.252
22112W        W87372  18.291  18.215  11.573
22113W        W87373  19.704   2.015   3.783
22114W        W87374   5.170  14.246  11.201
22115W        W87375  30.659   1.994  12.011
22116W        W87376  31.836  14.280  11.012
22117W        W87377  25.929   8.153  11.971
22118W        W87378   4.762  24.528   2.256
22119W        W87379  31.030  18.011  13.837
22120W        W87380  14.318   1.446  14.398
22121W        W87381  18.517  14.391  10.479
22122W        W87382   2.855  32.221  13.802
22123W        W87383  13.811   1.652   3.481
22124W        W87384  17.051  31.996  13.389
22125W        W87385  30.451  26.716   0.593
22126W        W87386  37.131  27.511  13.768
22127W        W87387  18.088   2.171   4.164
22128W        W87388   3.670   6.118  11.977
22129W        W87389   5.921  22.413  11.492
22130W        W87390  36.483  44.945  13.472
22131W        W87391  23.633   0.946  12.870
22132W        W87392   8.341  22.660  13.823
22133W        W87393  28.452   5.245  10.593
22134W        W87394   4.893  39.550   0.873
22135W        W87395  32.604  22.042   2.741
22136W        W87396  31.622  44.884   2.617
22137W        W87397  41.739   6.375   0.909
22138W        W87398   6.903  36.901  11.160
22139W        W87399  41.862  25.557   3.241
22140W        W87400  15.656   2.224  14.396
22141W        W87401  25.323  19.474  13.534
22142W        W87402  25.753   5.043   0.257
22143W        W87403   2.355  22.827   1.760
22144W        W87404  42.267  14.658  12.926
22145W        W87405   7.214  18.740  12.573
22146W        W87406  32.861  38.331   1.000
22147W        W87407  44.897  42.580  12.115
22148W        W87408  18.257   9.221   4.966
22149W        W87409  38.571   5.452  13.616
22150W        W87410   5.653   0.501  10.807
22151W        W87411   6.688  42.898  12.428
22152W        W87412  41.491  39.963  11.186
22153W        W87413  27.838  13.150  11.887
22154W        W87414  39.917  18.018  12.061
22155W        W87415  41.200  44.866   2.820
22156W        W87416   0.999   7.237   0.872
22157W        W87417  35.898   7.989   3.307
22158W        W87418  39.821  23.516   1.222
22159W        W87419  36.371  41.995   0.194
22160W        W87420  12.106  15.704  10.187
22161W        W87421  16.634  12.891   4.593
22162W        W87422   4.952  32.233   2.171
22163W        W87423  34.351  38.768   1.682
22164W        W87424  11.477  39.009  10.772
22165W        W87425  29.496   2.591  14.325
22166W        W87426  13.348  21.569   4.487
22167W        W87427  20.111  31.468   1.701
22168W        W87428  42.984  15.877  12.045
22169W        W87429  30.290  33.619   0.062
22170W        W87430  22.928  31.381  11.149
22171W        W87431  15.309  44.522  12.866
22172W        W87432  16.330  29.995   4.094
22173W        W87433  14.882   6.807   4.986
22174W        W87434  26.536  12.246   4.688
22175W        W87435  19.703   3.786  14.372
22176W        W87436  11.311  33.546  13.969
22177W        W87437  10.806  36.074   1.968
22178W        W87438  25.999   8.641  14.773
22179W        W87439   6.972  42.708  13.006
22180W        W87440  21.887  19.934  10.677
22181W        W87441   3.494  13.891  10.618
22182W        W87442   1.866  19.722  12.995
22183W        W87443   7.115   4.236   1.346
22184W        W87444  25.021  43.889   1.753
22185W        W87445   8.302   6.970   1.371
22186W        W87446   6.022  10.480  13.353
22187W        W87447  31.250   9.647  11.956
22188W        W87448  14.112  24.215  13.671
22189W        W87449  34.095  21.931   3.096
22190W        W87450  37.279  37.913  12.551
22191W        W87451  21.505  23.587  12.105
22192W        W87452  33.951  24.552  11.591
22193W        W87453   9.715   3.804  12.566
22194W        W87454  25.612  42.311   4.386
22195W        W87455  31.502  31.388   3.799
22196W        W87456   9.855  35.533   2.606
22197W        W87457  37.208  27.690  12.015
22198W        W87458  15.684  10.256  13.847
22199W        W87459  41.174  42.496  13.807
22200W        W87460  40.124  29.214  11.161
22201W        W87461   8.120  24.168  11.143
22202W        W87462  32.999  24.030  13.575
22203W        W87463   4.561   1.091   2.760
22204W        W87464  37.862   4.218   4.205
22205W        W87465  36.774  12.142  12.429
22206W        W87466   1.530  20.172  12.113
22207W        W87467   9.672  43.309  11.663
22208W        W87468  32.613  44.340   3.302
22209W        W87469  26.659  38.319   3.312
22210W        W87470  32.673  41.417  13.738
22211W        W87471  22.901  25.242   1.248
22212W        W87472  18.465  37.840   1.617
22213W        W87473   0.407  39.874   3.897
22214W        W87474  10.828  41.952  14.841
22215W        W87475   1.140   7.127  12.088
22216W        W87476  29.448  35.137  11.295
22217W        W87477  18.267  28.523   1.063
22218W        W87478  38.411   8.370   3.745
22219W        W87479  24.688  39.444   0.992
22220W        W87480  39.620   7.081   3.300
22221W        W87481  20.062  15.634  12.898
22222W        W87482  42.184  44.726  13.946
22223W        W87483   4.451  23.526  12.943
22224W        W87484  17.962  25.996  12.516
22225W        W87485   7.318  39.419  10.957
22226W        W87486  14.350  14.273   3.105
22227W        W87487  15.096  24.566   0.716
22228W        W87488  41.264  15.319   3.085
22229W        W87489  18.616  32.695  13.422
22230W        W87490  23.087  32.515   0.764
22231W        W87491  17.817  28.332   0.245
22232W        W87492   9.256  13.075   2.249
22233W        W87493   6.484  16.779  14.974
22234W        W87494  44.924  11.691   3.079
22235W        W87495  41.760  44.503   0.258
22236W        W87496  24.125  31.256  14.008
22237W        W87497   6.118  38.409  13.892
22238W        W87498  22.645  36.096   1.518
22239W        W87499  13.803  34.040  13.988
22240W        W87500  13.369   7.430   1.248
22241W        W87501  25.232   1.801  12.465
22242W        W87502   2.224  44.910   4.048
22243W        W87503   0.703  33.964  11.604
22244W        W87504  25.206  23.692  13.097
22245W        W87505  30.958   8.342   3.742
22246W        W87506  15.717   8.857  12.390
22247W        W87507   2.780  35.952   0.690
22248W        W87508  13.674   5.861   1.864
22249W        W87509  30.025   1.956   4.365
22250W        W87510  33.378   5.822   1.828
22251W        W87511  14.343  44.485   4.569
22252W        W87512  42.854  24.997  12.342
22253W        W87513  43.707  10.152   2.375
22254W        W87514  30.873  42.089  14.599
22255W        W87515  38.921  29.089  13.878
22256W        W87516  20.731   5.891  10.661
22257W        W87517  13.352  13.303   1.034
22258W        W87518  41.968  23.147   3.211
22259W        W87519   1.821  34.450   4.758
22260W        W87520  32.591  22.970   0.682
22261W        W87521   0.224  26.207   2.605
22262W        W87522  30.686   9.328  13.528
22263W        W87523  22.680   5.438  12.420
22264W        W87524  18.054  20.960   0.323
22265W        W87525  40.440  16.208   2.987
22266W        W87526  44.268  18.634  13.843
22267W        W87527  25.745  37.380  14.006
22268W        W87528  27.903  43.752  12.143
22269W        W87529  34.469  13.656   0.921
22270W        W87530  31.785  32.224   4.131
22271W        W87531  12.068  29.204  14.475
22272W        W87532  34.251   9.728   4.606
22273W        W87533  26.486  38.793   3.255
22274W        W87534  25.758   5.175   2.307
22275W        W87535  34.592  16.906   1.501
22276W        W87536  27.057  39.923  12.873
22277W        W87537  12.307  41.972   0.024
22278W        W87538  16.596  22.474   2.592
22279W        W87539  44.010  18.905  10.453
22280W        W87540  31.986  39.500   1.294
22281W        W87541  10.224   0.101   4.438
22282W        W87542  26.964   7.850   1.783
22283W        W87543  13.792  39.926  13.517
22284W        W87544  25.997   3.793   3.331
22285W        W87545  11.351  17.106  13.634
22286W        W87546  19.944   0.254   3.180
22287W        W87547  29.740   3.823  10.317
22288W        W87548  12.615   1.321   1.921
22289W        W87549  42.525  17.572  12.611
22290W        W87550  42.243  10.997   4.438
22291W        W87551   2.013  39.415   3.288
22292W        W87552  26.029  35.485  10.252
22293W        W87553  36.808  42.048  10.828
22294W        W87554  34.802  14.721  12.121
22295W        W87555  23.569  23.208   4.281
22296W        W87556  40.037  34.511  13.821
22297W        W87557   0.972   4.476   4.085
22298W        W87558  43.931  16.046  13.138
22299W        W87559  23.504  12.788   4.788
22300W        W87560  43.923  24.134  10.516
22301W        W87561  24.839  31.701  14.208
22302W        W87562  33.448  19.765   2.262
22303W        W87563   9.177  35.389   0.418
22304W        W87564  23.808  27.977  10.882
22305W        W87565  18.371  12.185  10.670
22306W        W87566  28.481  44.862  13.121
22307W        W87567  17.128  40.522   4.740
22308W        W87568  24.052  25.968  10.689
22309W        W87569  33.708  17.192  13.851
22310W        W87570  26.061  33.137   4.130
22311W        W87571  18.510   9.141  12.804
22312W        W87572  27.675   3.731  13.360
22313W        W87573   3.023  42.994   0.369
22314W        W87574  25.688  33.424  12.056
22315W        W87575  14.809  31.007   3.461
22316W        W87576  20.243  23.024   0.297
22317W        W87577  13.785  20.829   2.632
22318W        W87578  32.606  43.278  14.313
22319W        W87579   2.511  43.914   1.361
22320W        W87580   3.448   7.313   4.400
22321W        W87581  34.135   5.008   0.492
22322W        W87582  12.580  22.536  14.575
22323W        W87583   6.065  20.766   3.097
22324W        W87584  35.167  24.984  14.300
22325W        W87585  18.247   8.644  12.693
22326W        W87586  43.931   8.938   1.157
22327W        W87587   4.855  30.023  11.519
22328W        W87588  11.742   5.526  12.864
22329W        W87589  30.225  26.556  13.076
22330W        W87590  14.823  14.650   4.717
22331W        W87591   7.232  18.716  13.116
22332W        W87592  23.730   4.873   1.798
22333W        W87593  43.450   5.774   1.281
22334W        W87594  23.069  30.092  11.571
22335W        W87595  12.385  13.126   3.156
22336W        W87596  18.344  36.527  11.348
22337W        W87597  17.525  33.158   2.715
22338W        W87598  44.562   1.874  12.482
22339W        W87599  32.404   3.765  11.740
22340W        W87600  30.227  33.026   3.525
22341W        W87601  22.781   2.794   0.383
22342W        W87602  10.457  34.441  11.670
22343W        W87603  28.491   9.129  13.898
22344W        W87604  27.883  26.055  11.982
22345W        W87605  41.947   7.351   3.710
22346W        W87606  38.884  16.800   4.155
22347W        W87607  39.819   7.626  11.692
22348W        W87608   9.124  14.811   1.328
22349W        W87609  37.756  31.200   2.606
22350W        W87610  37.018  31.130   2.313
22351W        W87611   8.751  35.405  11.655
22352W        W87612  31.415  28.266  11.136
22353W        W87613  14.816  30.163   4.311
22354W        W87614  44.414   8.926  10.668
22355W        W87615  24.570  32.990  12.755
22356W        W87616  11.665  36.211   1.635
22357W        W87617  12.487  33.983  13.865
22358W        W87618  18.986  35.388   3.775
22359W        W87619  13.321  31.644   0.975
22360W        W87620   6.722  38.254   1.238
22361W        W87621  23.144  27.748  12.767
22362W        W87622  21.952  37.129   0.763
22363W        W87623   2.248  19.360   4.894
22364W        W87624  27.516   4.285   1.736
22365W        W87625  13.187  41.073  10.444
22366W        W87626  42.532   8.186   4.007
22367W        W87627  26.097  31.497   1.660
22368W        W87628  10.877  42.697  14.517
22369W        W87629  10.400   2.818  13.138
22370W        W87630   8.508  36.831   0.421
22371W        W87631  27.779  10.619  12.938
22372W        W87632  44.614  41.324   3.239
22373W        W87633   3.384  29.456   3.248
22374W        W87634  14.055   8.284   4.143
22375W        W87635   5.889   3.886   2.404
22376W        W87636  27.647   3.922  11.843
22377W        W87637  40.533  35.618  10.957
22378W        W87638   4.902  19.000  11.258
22379W        W87639   1.027  21.002   4.062
22380W        W87640   8.878  14.597   1.728
22381W        W87641  21.029  25.955  11.309
22382W        W87642  37.050  39.270  13.990
22383W        W87643   4.885  41.624  10.954
22384W        W87644  20.966   1.026  10.971
22385W        W87645   1.407  21.255  11.687
22386W        W87646  13.341  36.596  14.436
22387W        W87647   2.204  40.578   3.234
22388W        W87648  40.566  14.368   2.304
22389W        W87649  31.677   6.200  11.639
22390W        W87650  11.774  27.727   3.081
22391W        W87651  30.629  17.191   0.337
22392W        W87652  14.340   3.786   2.364
22393W        W87653  39.010  20.316  10.527
22394W        W87654   1.365   9.865  12.621
22395W        W87655   3.059   6.854  14.387
22396W        W87656  15.126  28.563  13.067
22397W        W87657  24.108  12.253   3.290
22398W        W87658   7.471  20.580  14.406
22399W        W87659   0.919  23.508   2.696
22400W        W87660  32.135  10.756   4.408
22401W        W87661   6.887  40.226   3.664
22402W        W87662  21.176  31.305  12.568
22403W        W87663  42.973  22.209  11.758
22404W        W87664   8.370   9.843   1.906
22405W        W87665  10.330  29.678  13.020
22406W        W87666  25.661  34.017  10.914
22407W        W87667  20.777   8.875  13.023
22408W        W87668  37.525  13.581   4.163
22409W        W87669  40.859  40.307   2.234
22410W        W87670  21.252  41.076   1.021
22411W        W87671  36.332  31.688   1.863
22412W        W87672  41.818  20.978   5.170
22413W        W87673  35.355   1.924   0.422
22414W        W87674   3.933  34.088   2.784
22415W        W87675  26.730  29.666   1.830
22416W        W87676   1.786  26.946   1.383
22417W        W87677  12.275   6.870  11.787
22418W        W87678  18.809  19.565  14.932
22419W        W87679  13.318   8.222   1.454
22420W        W87680  27.395   3.391   3.021
22421W        W87681  16.500  30.503  14.231
22422W        W87682   0.790   3.012   1.965
22423W        W87683  41.907  41.359   1.708
22424W        W87684  30.612  39.787   2.685
22425W        W87685  18.168  38.025  11.560
22426W        W87686  32.016  34.941  11.000
22427W        W87687  17.741   3.178   5.385
22428W        W87688   5.946  12.848  11.572
22429W        W87689  19.977  35.213  11.190
22430W        W87690  39.762  18.712   0.991
22431W        W87691  27.080  19.703  12.927
22432W        W87692  35.927  18.650   3.661
22433W        W87693  33.892  40.754   3.206
22434W        W87694  12.319  41.505   3.155
22435W        W87695  16.294  34.283   0.889
22436W        W87696   0.776   3.201  10.742
22437W        W87697  20.401   5.823   9.639
22438W        W87698  13.592   0.954  12.412
22439W        W87699   1.493   4.477   4.175
22440W        W87700  35.397  27.038   3.775
22441W        W87701  36.393  17.228   3.597
22442W        W87702  43.445  42.281  14.867
22443W        W87703  36.544   3.266   4.549
22444W        W87704  41.877  39.589  12.042
22445W        W87705  30.347   2.767   0.363
22446W        W87706   1.306  37.605  14.548
22447W        W87707   2.280  23.130   4.183
22448W        W87708  22.201  31.909  14.857
22449W        W87709  23.334  15.142  12.245
22450W        W87710  28.937   3.397  14.886
22451W        W87711  17.095  18.227  14.734
22452W        W87712  20.694  21.129  13.897
22453W        W87713  25.784  17.143   1.939
22454W        W87714  16.108  41.464  13.567
22455W        W87715  18.004  14.115   3.318
22456W        W87716  43.596  17.981  13.580
22457W        W87717  43.887  20.268   1.732
22458W        W87718   9.005  11.440  12.520
22459W        W87719  14.321  12.622   1.334
22460W        W87720  21.338  20.056   1.784
22461W        W87721  17.399  42.335   3.898
22462W        W87722   7.419  13.867  13.270
22463W        W87723  40.275  24.741  12.919
22464W        W87724  16.230  30.117   1.068
22465W        W87725  13.032  21.148  12.629
22466W        W87726   0.991  44.237  10.242
22467W        W87727   9.256  38.819   4.605
22468W        W87728  41.494  37.337  13.410
22469W        W87729   1.251  38.819   2.423
22470W        W87730  11.810  28.121   4.287
22471W        W87731  16.050  33.940   1.864
22472W        W87732  13.927  44.620  12.925
22473W        W87733  25.657  26.607  11.457
22474W        W87734  38.109  33.189   2.300
22475W        W87735  22.630   2.349  14.511
22476W        W87736   3.185  32.665  10.822
22477W        W87737  13.881  37.502   3.442
22478W        W87738  34.866  37.599  13.206
22479W        W87739  26.860  35.335  14.903
22480W        W87740  36.087  42.482   3.403
22481W        W87741   9.470  16.061   4.292
22482W        W87742   9.686   7.120   9.699
22483W        W87743   9.243  33.157   0.090
22484W        W87744  40.627  33.469  13.787
22485W        W87745   3.429  11.143  10.748
22486W        W87746  29.577   8.798   0.774
22487W        W87747  11.586  23.504  11.957
22488W        W87748  28.000  44.996   2.744
22489W        W87749  26.246  30.355  14.423
22490W        W87750  15.634  38.838  12.422
22491W        W87751  34.828  37.067  13.332
22492W        W87752  31.652  23.138  11.540
22493W        W87753  27.711  40.986  13.879
22494W        W87754  22.412  23.114  14.895
22495W        W87755  40.603   5.633   1.853
22496W        W87756  33.161   0.003  14.945
22497W        W87757   4.390  32.889   3.173
22498W        W87758  12.161  10.913  12.258
22499W        W87759  20.568   6.723   1.728
22500W        W87760  23.027   3.225  13.404
22501W        W87761  16.789   7.444  14.015
22502W        W87762   7.465  15.586  11.182
22503W        W87763  31.108   1.419  12.451
22504W        W87764  36.204  10.375  12.000
22505W        W87765  20.820   3.455  13.993
22506W        W87766   6.802   8.361   0.929
22507W        W87767   9.949  24.518   0.022
22508W        W87768  31.743  38.254  10.055
22509W        W87769  33.039  18.532   3.742
22510W        W87770  38.609  30.647  11.877
22511W        W87771  31.228  44.980   1.316
22512W        W87772   2.024  40.832   2.061
22513W        W87773   7.377  31.310   4.134
22514W        W87774  32.886  10.621  11.957
22515W        W87775  23.489  25.551  13.555
22516W        W87776  22.220  36.175   0.848
22517W        W87777  38.064  41.488  10.127
22518W        W87778  37.330  39.154   2.395
22519W        W87779  20.581  29.457  11.185
22520W        W87780   4.345  41.328   2.146
22521W        W87781   3.655  44.849   0.302
22522W        W87782  22.444  18.172   5.485
22523W        W87783  31.390  34.063  14.941
22524W        W87784  40.869  20.925   1.279
22525W        W87785   9.369  16.699  12.039
22526W        W87786  11.456  17.074  11.584
22527W        W87787  12.367  17.567   0.709
22528W        W87788  44.285  30.977   4.085
22529W        W87789  19.483  44.118  13.002
22530W        W87790  10.643  10.900   2.367
22531W        W87791  13.369   8.221  11.624
22532W        W87792  19.230  38.018  11.873
22533W        W87793   2.019   1.042   2.520
22534W        W87794   1.931   2.923  12.136
22535W        W87795  11.041   0.900   2.215
22536W        W87796   4.193  24.699  13.366
22537W        W87797  44.798   4.848  11.899
22538W        W87798   4.699  23.162   2.206
22539W        W87799  23.657  19.986  14.454
22540W        W87800  41.773   0.710   2.865
22541W        W87801  36.897  39.595  14.405
22542W        W87802   7.515  42.804  10.200
22543W        W87803   5.024  19.492  13.943
22544W        W87804  23.288  21.612   1.791
22545W        W87805  44.902  15.144   0.095
22546W        W87806   4.034   1.823   3.847
22547W        W87807  29.467  37.961   4.492
22548W        W87808  23.716   2.513   3.236
22549W        W87809   6.355  22.592   3.610
22550W        W87810   1.193  44.027   1.043
22551W        W87811  35.955  19.963   1.435
22552W        W87812  14.309  40.104   0.605
22553W        W87813  44.762  29.054  12.465
22554W        W87814  21.844  35.487  12.160
22555W        W87815  22.993  27.085  12.103
22556W        W87816   4.785  44.788   0.468
22557W        W87817  37.952  35.476  13.615
22558W        W87818  15.551  13.262  13.877
22559W        W87819  24.251  17.105   2.219
22560W        W87820  25.045  35.538  14.541
22561W        W87821  23.788  29.061   4.616
22562W        W87822   5.895  23.703  12.865
22563W        W87823  20.546  19.212  12.821
22564W        W87824  43.348   3.336  13.880
22565W        W87825  34.591  19.477   0.266
22566W        W87826   4.935  26.000   0.242
22567W        W87827  36.573  17.623  13.091
22568W        W87828  18.477  43.978  11.625
22569W        W87829  32.538   3.022   4.989
22570W        W87830   5.179   6.317  14.706
22571W        W87831  24.955  12.289   0.379
22572W        W87832  28.498  16.337   2.664
22573W        W87833  25.002   4.182  11.175
22574W        W87834  38.861  42.712   1.150
22575W        W87835   9.138   9.700  13.848
22576W        W87836  33.054  15.217   1.811
22577W        W87837  29.765  41.057  13.104
22578W        W87838  14.748  11.177  11.455
22579W        W87839  24.273  14.227  11.132
22580W        W87840  19.619  14.623   4.108
22581W        W87841  14.892  26.650  11.241
22582W        W87842   6.660  35.080   0.832
22583W        W87843  11.122  24.917   2.835
22584W        W87844  33.995  13.054  10.536
22585W        W87845   7.506   1.748   4.588
22586W        W87846  17.987  34.023   3.949
22587W        W87847  19.103   8.687  13.571
22588W        W87848  31.656   7.436  12.510
22589W        W87849   7.104  42.469   0.726
22590W        W87850   5.006  22.242   1.330
22591W        W87851   2.084   6.995  10.223
22592W        W87852  40.585  11.216   4.576
22593W        W87853   4.248  25.727  12.427
22594W        W87854  44.184  23.687  11.586
22595W        W87855  36.308  24.362   3.750
22596W        W87856   1.724  39.026   2.407
22597W        W87857  26.796  32.482  11.433
22598W        W87858  31.155  17.050  10.787
22599W        W87859   8.372  24.533  14.962
22600W        W87860  27.988  23.732  14.599
22601W        W87861   4.429  42.311   0.283
22602W        W87862  13.850  21.138  13.555
22603W        W87863   6.877  27.773   0.936
22604W        W87864  27.611   2.775  13.753
22605W        W87865  28.738  44.236   1.684
22606W        W87866  44.926   2.366   1.722
22607W        W87867  16.733   8.585  11.074
22608W        W87868   0.376  11.241  13.861
22609W        W87869   7.699  24.589  11.758
22610W        W87870  27.031   4.307   1.239
22611W        W87871  23.932   0.424   2.396
22612W        W87872  40.785  15.685  11.681
22613W        W87873   7.955  22.094   1.827
22614W        W87874  25.989  34.906   2.869
22615W        W87875  43.978  21.188  12.114
22616W        W87876  33.403  10.013  10.792
22617W        W87877   3.258  24.943   1.240
22618W        W87878  34.356  39.198   2.002
22619W        W87879  24.603  26.726  11.908
22620W        W87880   6.216   8.794  12.432
22621W        W87881  39.253   4.317  10.710
22622W        W87882   8.170  29.674  14.301
22623W        W87883   1.357  16.608   4.646
22624W        W87884   0.254  12.388   3.208
22625W        W87885   6.956   4.724  11.175
22626W        W87886  37.041  44.752  11.061
22627W        W87887  18.173  28.692  10.678
22628W        W87888  44.425   1.949   3.886
22629W        W87889  38.700  34.586   0.174
22630W        W87890  24.532  43.925  13.080
22631W        W87891  10.212   5.759   2.793
22632W        W87892   2.204   4.629   0.309
22633W        W87893  18.710  15.745  14.953
22634W        W87894   5.948  14.879  13.393
22635W        W87895  41.942  21.081  11.945
22636W        W87896  27.668  18.764  13.948
22637W        W87897  15.605  18.516   2.719
22638W        W87898  39.309   7.804   2.880
22639W        W87899  21.220  17.552   4.129
22640W        W87900  11.670   8.242   0.832
22641W        W87901  34.041   3.435   1.604
22642W        W87902  26.717  34.132   4.592
22643W        W87903  17.041   6.783   2.290
22644W        W87904   1.628   2.676   4.076
22645W        W87905  41.622  37.528  11.519
22646W        W87906  27.960  29.879   0.498
22647W        W87907  18.667  30.648  13.096
22648W        W87908  39.713  31.050  12.458
22649W        W87909  21.213  14.672  13.428
22650W        W87910  39.775  29.595  11.180
22651W        W87911  17.173  12.738  10.803
22652W        W87912   5.788  36.747  13.479
22653W        W87913   4.353  20.017  10.651
22654W        W87914  21.553   8.760   3.180
22655W        W87915  29.632   9.919  14.149
22656W        W87916  33.838   1.170   5.413
22657W        W87917  31.564  10.488   4.125
22658W        W87918   6.897  26.132   3.664
22659W        W87919   8.568   7.798  14.028
22660W        W87920  30.707  11.120  11.622
22661W        W87921   7.098   4.250   1.869
22662W        W87922  11.806  15.503   3.709
22663W        W87923  10.328  15.231  13.983
22664W        W87924  30.637  37.386   0.029
22665W        W87925  28.583  38.451   1.545
22666W        W87926   3.032  32.340   0.230
22667W        W87927  16.763  38.564   4.357
22668W        W87928  14.189  27.227  12.418
22669W        W87929  12.273  21.820   4.136
22670W        W87930  11.347   8.501  11.521
22671W        W87931   0.255  32.090  11.702
22672W        W87932  40.936   9.682  13.329
22673W        W87933   1.540  40.593   2.125
22674W        W87934   2.804   0.990   1.254
22675W        W87935  24.514   5.663  12.498
22676W        W87936  29.439  27.030   1.950
22677W        W87937  43.251  31.873  11.620
22678W        W87938  34.787  10.694  10.682
22679W        W87939  27.989   5.730  14.775
22680W        W87940  16.312  21.678   4.090
22681W        W87941  37.934  25.994   2.232
22682W        W87942  37.645  39.315   2.767
22683W        W87943  27.964  22.313   5.017
22684W        W87944  13.636  28.821   2.276
22685W        W87945   0.104  27.394   3.675
22686W        W87946  36.229  40.595  13.998
22687W        W87947  37.423  11.659  12.392
22688W        W87948  38.382  18.045  12.564
22689W        W87949  22.752  30.949  13.069
22690W        W87950  38.894  14.528   0.888
22691W        W87951   9.223  43.747  13.842
22692W        W87952  15.526  22.467  12.852
22693W        W87953  39.763  25.273  14.094
22694W        W87954  31.472  29.364   0.568
22695W        W87955  29.428  26.957   2.915
22696W        W87956  14.227  16.062   1.221
22697W        W87957  33.818   5.725  10.396
22698W        W87958  21.248  44.864   2.417
22699W        W87959   7.348   9.358   2.418
22700W        W87960  14.788  12.855  10.528
22701W        W87961  39.239  30.432  11.074
22702W        W87962   1.720  26.239   3.638
22703W        W87963  34.825  11.864   4.668
22704W        W87964  33.156   6.170   1.262
22705W        W87965  17.294   7.610  10.197
22706W        W87966   7.243  18.164  10.632
22707W        W87967  36.693   1.984  13.987
22708W        W87968  29.385  41.519   1.844
22709W        W87969  18.258  39.365  14.511
22710W        W87970  30.600  17.751  12.924
22711W        W87971  42.377   7.625  12.934
22712W        W87972  17.161  33.928  11.405
22713W        W87973  19.215  30.431  12.524
22714W        W87974  10.140  15.983   0.342
22715W        W87975  26.727  32.447  12.781
22716W        W87976  33.094   4.015  11.873
22717W        W87977  21.588  21.454   2.413
22718W        W87978   2.969  27.501   0.341
22719W        W87979  39.918  29.457   2.136
22720W        W87980  17.799   0.821   4.490
22721W        W87981  21.800   2.917   0.395
22722W        W87982   9.875  42.914   1.731
22723W        W87983  15.587  44.241  13.875
22724W        W87984  38.801  25.798   2.799
22725W        W87985  42.434  23.717  14.045
22726W        W87986  24.274  23.533  11.817
22727W        W87987  34.882  40.763  11.076
22728W        W87988  44.291  18.626   4.599
22729W        W87989  27.481  40.304   4.375
22730W        W87990  15.821   8.314  12.483
22731W        W87991  15.713  27.523  14.438
22732W        W87992  35.375   6.166   4.099
22733W        W87993   9.641  23.703  13.466
22734W        W87994  43.722  23.489  12.645
22735W        W87995  24.469  34.425   4.023
22736W        W87996  24.955  19.462   4.985
22737W        W87997  16.729  14.127   3.765
22738W        W87998  34.994   8.708   0.509
22739W        W87999  38.314  14.464   2.140
22740W        W88000  10.029  36.712  14.609
22741W        W88001  27.613  18.063   2.470
22742W        W88002  42.347  10.755  12.662
22743W        W88003  41.456  41.679   2.568
22744W        W88004  24.169  30.533  12.491
22745W        W88005   3.279  42.359   1.812
22746W        W88006  29.440  44.836  10.949
22747W        W88007  43.356  41.966   3.316
22748W        W88008  14.187   4.146   4.581
22749W        W88009  29.916  25.079   4.823
22750W        W88010   5.800   3.885  14.926
22751W        W88011  42.794  17.509   2.481
22752W        W88012  26.585   4.414   4.538
22753W        W88013  43.969   4.240  13.035
22754W        W88014  16.875  29.455   2.325
22755W        W88015   1.951  14.053   1.713
22756W        W88016  19.052  38.960  13.494
22757W        W88017  22.211   5.003   2.342
22758W        W88018  20.170  29.675   0.273
22759W        W88019   4.873  15.608   1.039
22760W        W88020  16.000   7.625  14.568
22761W        W88021  16.619  12.749  13.447
22762W        W88022  19.927  41.923  14.438
22763W        W88023   3.370  33.857   1.590
22764W        W88024  36.237  34.523  13.464
22765W        W88025  23.826  12.385  14.277
22766W        W88026  11.777   8.146   3.585
22767W        W88027  12.111  42.355   4.834
22768W        W88028  18.146  35.244   1.878
22769W        W88029  31.774  16.669  11.306
22770W        W88030  24.001  17.153  13.670
22771W        W88031  42.818  40.303  13.514
22772W        W88032  16.643  31.468   2.863
22773W        W88033  21.304  14.391  12.888
22774W        W88034   6.130  21.485   4.171
22775W        W88035  17.837  42.747  12.545
22776W        W88036   0.901  20.447   1.299
22777W        W88037  10.172  41.732  13.303
22778W        W88038  34.430   3.473   1.944
22779W        W88039  13.512   2.331   1.466
22780W        W88040  37.831  19.046   4.207
22781W        W88041  27.968  12.165  12.202
22782W        W88042  41.612  40.508   4.608
22783W        W88043  13.135  20.439  12.497
22784W        W88044  29.906  27.634   1.397
22785W        W88045   4.640  40.493   5.074
22786W        W88046   4.695  22.283   3.063
22787W        W88047   7.203   5.695  11.192
22788W        W88048   8.873  25.417  12.848
22789W        W88049  22.209  28.577  11.185
22790W        W88050  29.897  31.924  11.875
22791W        W88051   0.480  30.018  12.442
22792W        W88052  28.047  35.050  14.430
22793W        W88053  15.049   6.868   4.489
22794W        W88054  43.866  43.562  12.002
22795W        W88055  12.982  42.295  13.558
22796W        W88056  38.618  39.821   4.825
22797W        W88057   1.186  38.006  14.044
22798W        W88058  17.046  32.595  14.864
22799W        W88059  21.528  40.243  13.660
22800W        W88060  41.388  42.193  11.091
22801W        W88061  18.261  38.540  13.576
22802W        W88062  44.318  19.262   4.140
22803W        W88063  40.450  27.659  10.615
22804W        W88064  28.047  34.166  13.137
22805W        W88065  34.492   2.613  10.524
22806W        W88066  27.369  31.467  14.008
22807W        W88067  20.131  27.181   1.364
22808W        W88068  23.648   4.359   1.836
22809W        W88069  31.665  25.725   1.312
22810W        W88070  33.044  33.978  13.983
22811W        W88071   7.736  10.328  13.071
22812W        W88072  27.153  24.769   3.146
22813W        W88073  15.257  22.894   2.376
22814W        W88074  17.235  42.892  11.670
22815W        W88075  41.308  22.765   3.041
22816W        W88076  10.719  33.679   1.943
22817W        W88077  16.665  28.009   0.993
22818W        W88078  43.273  28.024  10.858
22819W        W88079   5.837  12.602   0.990
22820W        W88080  22.500  23.422   2.329
22821W        W88081   7.274   6.739   1.224
22822W        W88082  30.218  19.787   4.522
22823W        W88083  25.073  44.914  10.634
22824W        W88084  12.572  25.682   3.142
22825W        W88085  39.212   9.901   3.568
22826W        W88086  39.316  33.142  12.467
22827W        W88087  41.452   2.122  12.646
22828W        W88088  15.743  35.635  10.571
22829W        W88089   9.246  37.986   0.829
22830W        W88090   8.753  40.866  14.626
22831W        W88091   1.300  21.990  11.807
22832W        W88092   2.238   7.390   2.713
22833W        W88093  14.525  19.201   3.802
22834W        W88094  16.319  26.130  12.587
22835W        W88095  36.855  12.884   3.674
22836W        W88096  40.000  32.039  14.783
22837W        W88097  13.877  12.667  12.957
22838W        W88098  23.643  25.117  10.748
22839W        W88099  24.573  40.022   3.711
22840W        W88100   2.297  20.680   2.124
22841W        W88101   4.888   1.906   4.627
22842W        W88102  12.096  12.033   0.038
22843W        W88103  40.023  33.347  11.221
22844W        W88104  39.967  31.357   2.094
22845W        W88105  17.005  31.996   4.956
22846W        W88106  14.645   8.150   4.996
22847W        W88107  18.000  28.476   1.875
22848W        W88108  20.007  18.534  13.328
22849W        W88109   9.738  21.256  13.881
22850W        W88110   3.463  19.173  12.505
22851W        W88111   6.791  35.068  14.443
22852W        W88112   0.467  10.268  12.823
22853W        W88113  31.380  15.376  13.472
22854W        W88114  43.955  10.286  13.334
22855W        W88115  25.697   6.213  11.379
22856W        W88116  28.106   0.863  14.230
22857W        W88117  28.969  28.086  10.739
22858W        W88118  36.269   2.399  13.543
22859W        W88119  18.961  35.664   1.910
22860W        W88120  16.219  40.275  14.986
22861W        W88121  13.782  35.089  11.555
22862W        W88122  41.881  40.404   2.269
22863W        W88123  33.786  20.100   2.877
22864W        W88124  20.014  17.684   1.219
22865W        W88125  41.348  18.642  12.003
22866W        W88126  42.095  33.428   4.203
22867W        W88127  25.005  28.547  12.923
22868W        W88128  26.210  39.828   0.678
22869W        W88129   1.237  16.201  13.977
22870W        W88130  17.161  36.020  11.139
22871W        W88131   5.456  20.740  14.198
22872W        W88132  28.470   9.838   0.262
22873W        W88133  43.598  16.736  13.818
22874W        W88134   6.719  36.496  11.453
22875W        W88135  40.201  13.615   1.821
22876W        W88136  34.495  18.448  13.050
22877W        W88137   3.765  35.426  11.526
22878W        W88138  21.045  31.468   1.193
22879W        W88139   4.493  26.208  11.575
22880W        W88140  14.846   8.639  12.594
22881W        W88141  30.982   6.265  14.056
22882W        W88142  14.719   0.781  10.625
22883W        W88143  18.726  23.321   2.989
22884W        W88144  35.097   9.710   0.232
22885W        W88145  20.500  33.897  10.016
22886W        W88146  14.575  39.514  12.087
22887W        W88147  32.353   8.502   0.752
22888W        W88148  26.814  43.125   3.699
22889W        W88149  23.962  37.593   2.159
22890W        W88150  18.173   5.890  12.394
22891W        W88151  14.078  29.111   4.973
22892W        W88152  43.490  25.014   3.157
22893W        W88153  24.260   1.664   4.619
22894W        W88154   7.922  36.527  14.965
22895W        W88155  32.570  35.147   0.485
22896W        W88156  34.391   8.457   3.162
22897W        W88157   2.850  38.548   0.788
22898W        W88158  40.471  35.343   4.557
22899W        W88159  19.760  20.606  12.054
22900W        W88160   9.534  40.076  11.200
22901W        W88161  25.080  16.124  11.133
22902W        W88162  33.839  10.652   0.079
22903W        W88163  13.012  33.884  13.540
22904W        W88164  20.571  16.053   4.097
22905W        W88165  31.374  34.177  10.935
22906W        W88166  14.212  34.013   3.439
22907W        W88167  44.732  23.132   1.963
22908W        W88168  12.505  23.325   3.127
22909W        W88169  42.315   3.481  13.412
22910W        W88170  34.800  28.609   3.096
22911W        W88171  30.562   9.897   3.613
22912W        W88172  15.241   2.913  14.650
22913W        W88173  39.088  37.804  12.806
22914W        W88174   6.270   4.956  14.411
22915W        W88175  29.651  37.472   4.045
22916W        W88176  28.483  39.440   1.351
22917W        W88177  20.953  36.547   2.474
22918W        W88178   0.664  14.938   3.799
22919W        W88179   5.731   2.438  12.902
22920W        W88180  10.772  31.816  14.921
22921W        W88181  23.492  39.881   2.297
22922W        W88182  39.628   9.558  11.684
22923W        W88183  30.076   9.315   3.794
22924W        W88184  27.880  25.207   0.846
22925W        W88185  37.632  14.646  11.313
22926W        W88186   9.201   4.527  14.446
22927W        W88187   3.888  18.190   3.836
22928W        W88188  16.216  32.372   0.889
22929W        W88189  24.565  37.927  12.513
22930W        W88190  18.928   7.658   1.301
22931W        W88191  27.383   2.319  12.927
22932W        W88192   4.485  22.552  10.618
22933W        W88193  25.715  15.789   2.734
22934W        W88194  10.927   1.699   3.195
22935W        W88195  39.512  29.327   2.393
22936W        W88196  42.980  39.090  14.697
22937W        W88197  44.494  36.107  14.699
22938W        W88198  25.612   7.640   1.613
22939W        W88199  10.485   2.067   0.501
22940W        W88200  16.550   4.365   0.041
22941W        W88201  28.652   1.286  12.357
22942W        W88202   1.311  27.165   4.046
22943W        W88203  18.130  14.189   0.976
22944W        W88204  24.225  39.837   0.466
22945W        W88205  34.440  11.104  12.493
22946W        W88206  38.468  17.224   0.021
22947W        W88207  29.548  31.220  13.986
22948W        W88208  42.894  20.620   3.290
22949W        W88209  44.793   6.209   3.436
22950W        W88210  10.287  11.724   2.003
22951W        W88211   1.328  33.529   2.365
22952W        W88212  17.769  31.118   4.814
22953W        W88213  34.813  19.488   2.190
22954W        W88214  35.434  14.125   4.408
22955W        W88215  35.120   5.862   1.256
22956W        W88216  22.489   2.732   2.133
22957W        W88217  42.443  40.872   2.794
22958W        W88218  30.155  21.189  12.277
22959W        W88219   1.659  32.448   3.786
22960W        W88220  31.849  27.572   2.116
22961W        W88221  30.937   4.456   4.136
22962W        W88222  38.032  35.638   3.692
22963W        W88223   4.813  42.206  13.001
22964W        W88224  26.614  40.962   4.283
22965W        W88225  24.745   6.952  10.822
22966W        W88226  21.019  36.811  11.282
22967W        W88227  17.743  39.388   0.644
22968W        W88228  29.132  41.965  13.437
22969W        W88229   8.693  11.511   3.280
22970W        W88230  40.004  12.773   1.369
22971W        W88231  21.683   5.843  14.349
22972W        W88232  12.924  42.931  11.379
22973W        W88233  30.925  37.353   2.353
22974W        W88234  25.058   5.765  10.645
22975W        W88235  25.039  27.074   0.739
22976W        W88236  10.372  24.681   4.133
22977W        W88237   6.598  33.474   1.829
22978W        W88238  30.467   8.470   1.886
22979W        W88239  21.985  20.084  11.155
22980W        W88240   8.208   6.765   2.757
22981W        W88241  36.316  10.204  14.334
22982W        W88242   5.178  44.009   3.704
22983W        W88243  19.219  13.291  10.758
22984W        W88244   8.256  34.714   3.665
22985W        W88245  14.579  15.670   1.913
22986W        W88246  25.332  18.516   3.515
22987W        W88247  33.346  30.947   0.452
22988W        W88248  32.852  28.564   1.802
22989W        W88249  24.648  41.301   0.512
22990W        W88250   5.863  12.148   4.249
22991W        W88251   7.343  44.451   3.302
22992W        W88252  41.552  30.406  10.711
22993W        W88253  29.466  23.003   0.451
22994W        W88254  36.317  32.603  14.350
22995W        W88255  39.536   5.580   0.186
22996W        W88256   6.695  38.488   4.123
22997W        W88257  42.557  17.649   0.485
22998W        W88258  29.122  40.402   0.022
22999W        W88259  42.008   0.537   3.296
23000W        W88260  32.171  36.962   1.429
23001W        W88261  17.970   3.075   0.923
23002W        W88262  43.723  25.823   4.777
23003W        W88263   4.326   7.313   3.650
23004W        W88264  17.401  22.214   3.287
23005W        W88265  35.948   5.763   0.797
23006W        W88266  20.266  41.762   1.403
23007W        W88267  13.839  10.161  12.570
23008W        W88268  42.546  35.696   0.306
23009W        W88269  32.555   9.845  13.857
23010W        W88270  32.023  23.235  11.197
23011W        W88271  43.786  18.959   0.166
23012W        W88272  34.980  31.993   1.825
23013W        W88273   6.898   1.944  11.135
23014W        W88274  21.509  15.506   2.920
23015W        W88275  42.836   4.311   4.780
23016W        W88276  23.283  42.102  13.961
23017W        W88277  20.389  29.296  11.645
23018W        W88278  30.479  37.262   1.460
23019W        W88279  17.082  18.158  10.286
23020W        W88280  31.996  43.340   4.456
23021W        W88281  14.107   1.750  13.155
23022W        W88282  11.011  20.860   0.884
23023W        W88283  39.136  19.830  12.185
23024W        W88284  41.587   8.099  14.251
23025W        W88285   7.480  14.345  11.370
23026W        W88286  44.910  24.569   3.639
23027W        W88287  32.054  16.294   2.927
23028W        W88288  30.125  38.878  11.628
23029W        W88289  19.880  37.818   5.390
23030W        W88290  12.086  17.643  12.604
23031W        W88291   4.022  36.545  14.269
23032W        W88292  33.588  32.937  14.873
23033W        W88293  22.538  34.584   3.126
23034W        W88294  22.612  37.425   2.917
23035W        W88295  27.517  41.578  12.179
23036W        W88296  32.056  33.209   2.248
23037W        W88297  21.643  43.598  14.585
23038W        W88298  33.527  37.531   3.675
23039W        W88299   7.650  33.319  12.908
23040W        W88300  16.412   6.061   2.439
23041W        W88301   0.665  18.705  11.711
23042W        W88302  15.113  42.032   3.955
23043W        W88303  32.285  12.521  13.488
23044W        W88304  38.855  37.214  13.247
23045W        W88305  37.575  21.649  12.447
23046W        W88306  28.682  40.540  13.374
23047W        W88307   2.812  21.451  11.501
23048W        W88308  41.531   6.979   0.444
23049W        W88309  19.230  16.264   0.990
23050W        W88310  13.109  31.847   1.412
23051W        W88311  15.300   7.464   3.353
23052W        W88312   4.434  33.638   0.618
23053W        W88313  15.784  19.725  13.392
23054W        W88314  35.313  18.071  12.950
23055W        W88315   2.032   2.840  11.624
23056W        W88316  41.276  38.308   0.690
23057W        W88317   7.247   9.652  12.855
23058W        W88318  26.134  38.543  14.865
23059W        W88319   3.557  13.325   3.863
23060W        W88320  21.826  19.679  14.308
23061W        W88321  26.534   7.751  13.004
23062W        W88322  11.724  17.949   3.236
23063W        W88323  22.627  20.066  13.943
23064W        W88324  41.761  15.368  13.494
23065W        W88325  17.301  33.890   0.737
23066W        W88326  16.295   8.786   2.810
23067W        W88327  21.294   6.445   1.359
23068W        W88328   3.395  41.679   0.035
23069W        W88329  25.207   8.968  11.157
23070W        W88330  11.002   2.900  14.647
23071W        W88331  11.065  18.986   4.960
23072W        W88332  18.050  37.830  14.512
23073W        W88333   8.771   8.887  11.197
23074W        W88334   7.417  33.439   0.847
23075W        W88335   2.415  38.615   3.251
23076W        W88336  33.666  25.045  10.477
23077W        W88337  35.892   5.071   4.516
23078W        W88338  37.279  25.594   1.744
23079W        W88339  34.796  28.416  11.021
23080W        W88340  35.909  25.476  12.429
23081W        W88341   7.210  38.797   1.826
23082W        W88342  44.900  19.062   3.411
23083W        W88343  21.012  29.148   3.663
23084W        W88344  24.464  21.554   4.562
23085W        W88345  28.505  19.806  12.770
23086W        W88346  16.812  31.796   0.942
23087W        W88347  37.417  44.898   2.182
23088W        W88348  12.698  25.752   4.057
23089W        W88349  21.525  17.606  13.502
23090W        W88350  35.510  27.655   1.438
23091W        W88351  13.868   0.285   2.107
23092W        W88352  40.947   2.795  12.113
23093W        W88353  11.827  42.986  14.257
23094W        W88354  30.702  11.329   0.371
23095W        W88355  41.813  39.072   3.830
23096W        W88356  33.523  43.041  10.981
23097W        W88357  40.393  20.304   2.798
23098W        W88358  33.383  12.094   1.398
23099W        W88359  11.709  17.554   1.331
23100W        W88360  28.957  43.914  12.790
23101W        W88361  26.197  43.944  11.087
23102W        W88362  38.049  39.056   4.488
23103W        W88363  31.992   3.764  13.060
23104W        W88364   0.077  11.193  12.590
23105W        W88365  42.061  30.967  14.055
23106W        W88366  19.447   2.871  14.697
23107W        W88367  13.480   7.163  12.077
23108W        W88368  17.058  26.668   3.849
23109W        W88369  26.401  20.169   3.961
23110W        W88370  23.911  18.032  13.509
23111W        W88371  10.617  25.569   5.500
23112W        W88372  39.028  11.393   4.691
23113W        W88373  25.115   3.450  13.367
23114W        W88374  30.334   3.714   0.560
23115W        W88375  36.490  42.459   4.121
23116W        W88376  18.323  36.232   3.120
23117W        W88377  21.087  12.489   5.008
23118W        W88378   9.282   2.403  12.516
23119W        W88379  11.367   9.084  11.991
23120W        W88380   1.339  12.312  13.305
23121W        W88381  11.880  33.936   2.856
23122W        W88382  33.024   1.754   1.882
23123W        W88383  29.313  20.199   0.575
23124W        W88384  28.519  11.728  12.971
23125W        W88385  19.006  27.350   0.964
23126W        W88386  40.085  44.265   3.665
23127W        W88387  27.457   9.860   1.206
23128W        W88388  44.360  34.123   1.731
23129W        W88389  18.548  22.247   3.642
23130W        W88390  14.192  20.572  10.350
23131W        W88391   9.399  18.189  12.639
23132W        W88392  44.159  23.236   3.748
23133W        W88393  21.630   0.728  13.551
23134W        W88394  35.777  33.018  14.812
23135W        W88395  38.987  36.614   2.194
23136W        W88396  42.504  22.026   2.190
23137W        W88397  21.065  15.309   5.011
23138W        W88398  32.843  16.105   0.454
23139W        W88399  28.903   2.177   1.945
23140W        W88400  12.368  39.060  13.455
23141W        W88401  14.819  26.468   4.541
23142W        W88402   4.909  36.103  12.044
23143W        W88403  20.979   8.426  11.271
23144W        W88404  38.275  43.765  13.922
23145W        W88405  43.445  22.019  11.661
23146W        W88406  18.084   7.170  13.810
23147W        W88407  33.723  43.706  12.153
23148W        W88408  28.223  16.676  13.125
23149W        W88409  35.529  16.982  12.529
23150W        W88410  40.353  44.236   0.283
23151W        W88411  19.705  21.868  14.931
23152W        W88412   2.729  13.150  13.256
23153W        W88413  10.703  23.546   2.265
23154W        W88414  21.700  44.244  12.007
23155W        W88415  12.632  17.847  11.644
23156W        W88416  32.201  17.594   3.780
23157W        W88417  14.767  19.342   0.773
23158W        W88418  38.852  23.470   1.408
23159W        W88419  12.673  12.651   2.397
23160W        W88420   9.580  44.336  10.970
23161W        W88421  22.963  14.793   3.886
23162W        W88422  43.248  24.663   2.326
23163W        W88423  24.598  19.565   1.445
23164W        W88424  10.537  28.511   0.711
23165W        W88425  40.705  14.739  13.753
23166W        W88426  34.036  18.721  12.043
23167W        W88427  36.116  22.831  14.965
23168W        W88428  39.823  29.112  14.780
23169W        W88429  27.708   9.300  12.535
23170W        W88430  38.235   6.873   1.152
23171W        W88431  12.242  12.117  14.100
23172W        W88432  21.806  22.128  13.473
23173W        W88433  13.398  23.278   2.371
23174W        W88434  11.174   0.936   4.583
23175W        W88435  25.582   4.348   5.407
23176W        W88436   4.893  20.518  13.336
23177W        W88437   4.421  17.277  13.438
23178W        W88438   7.469  12.344   3.745
23179W        W88439   6.763  21.999   3.157
23180W        W88440  22.514  39.110  13.686
23181W        W88441   8.273  43.224   1.246
23182W        W88442  32.433  33.908   0.766
23183W        W88443  39.818   7.706   1.375
23184W        W88444  38.127  43.375   2.761
23185W        W88445  25.043   9.439  11.087
23186W        W88446  10.544  29.473  14.767
23187W        W88447  14.886  36.041   5.241
23188W        W88448  33.132   9.230   2.812
23189W        W88449  39.001  38.624   2.391
23190W        W88450  14.675  15.810   4.916
23191W        W88451  39.068   0.422   1.646
23192W        W88452  31.891  32.451   2.877
23193W        W88453  43.292  17.238   2.376
23194W        W88454  34.564  25.955  13.393
23195W        W88455   3.338  37.099   4.194
23196W        W88456  21.500   8.872   3.684
23197W        W88457  20.805  43.837   0.977
23198W        W88458   2.954  39.624   1.681
23199W        W88459  41.315  38.495   3.154
23200W        W88460  30.395  35.909  14.782
23201W        W88461   3.191  19.048  12.969
23202W        W88462  17.257  33.504   2.310
23203W        W88463  33.577   6.262  11.566
23204W        W88464   7.203  13.792   0.563
23205W        W88465  38.066  35.636   1.363
23206W        W88466  21.514  21.504  12.599
23207W        W88467  20.220  18.979   0.781
23208W        W88468  15.357  24.181  14.951
23209W        W88469   7.927   3.268  13.341
23210W        W88470  31.678  27.433   3.533
23211W        W88471   4.854   3.306   1.500
23212W        W88472  14.237  32.893   2.158
23213W        W88473  19.033  22.790  14.675
23214W        W88474   6.324   4.306  13.555
23215W        W88475  29.248  34.079  11.964
23216W        W88476  16.623  38.448   4.839
23217W        W88477  21.962  37.577  11.623
23218W        W88478  27.080  21.082  14.593
23219W        W88479   3.907  19.576   4.709
23220W        W88480  36.430  15.087   3.247
23221W        W88481  34.934  13.248  14.836
23222W        W88482  30.219  37.074   2.702
23223W        W88483  44.729  13.426   4.970
23224W        W88484  39.946  28.961   2.314
23225W        W88485  15.238  14.802   2.231
23226W        W88486  11.145  44.172  14.359
23227W        W88487  15.251  14.190  12.861
23228W        W88488  28.427  31.206   0.190
23229W        W88489  30.039  16.888  14.894
23230W        W88490  40.989   7.738  10.650
23231W        W88491   1.727  26.461  11.614
23232W        W88492  33.100   4.598   0.443
23233W        W88493   6.830  26.833  13.636
23234W        W88494  43.560  14.613   4.665
23235W        W88495  20.007  41.792   4.086
23236W        W88496  23.554  27.686  10.529
23237W        W88497  39.856  42.284   4.667
23238W        W88498  27.083  19.083   2.758
23239W        W88499   5.850  43.997  13.155
23240W        W88500  34.738  15.687  13.621
23241W        W88501  20.835  20.053  12.582
23242W        W88502  39.732  15.542   4.245
23243W        W88503   1.774  17.785  14.996
23244W        W88504  19.517  43.942   0.388
23245W        W88505   7.383  19.560  14.670
23246W        W88506  42.897  37.325   2.358
23247W        W88507  26.332  42.640   5.077
23248W        W88508  15.592  27.091   4.954
23249W        W88509  11.783  31.837  12.053
23250W        W88510   9.843  29.917   4.527
23251W        W88511  32.021  29.892   2.887
23252W        W88512  25.659  36.379   3.366
23253W        W88513  22.588  42.091  13.478
23254W        W88514  18.544  34.893   0.595
23255W        W88515  14.856  21.333  13.427
23256W        W88516  10.630   2.541   2.151
23257W        W88517  21.151  23.494   3.006
23258W        W88518   4.257   6.126  10.646
23259W        W88519  29.684   2.806   1.494
23260W        W88520   8.493  20.663  10.428
23261W        W88521  15.339  21.892   2.337
23262W        W88522  40.985   5.954   2.830
23263W        W88523   5.662  35.865  11.005
23264W        W88524  41.735  32.567  12.022
23265W        W88525  25.424  41.925   4.698
23266W        W88526   0.726  19.120  12.512
23267W        W88527  42.773  15.218  13.268
23268W        W88528  40.003  37.826   2.505
23269W        W88529   7.224  39.930  11.057
23270W        W88530  29.311  14.702  11.705
23271W        W88531  43.145  12.032  14.433
23272W        W88532  34.344  18.077   0.464
23273W        W88533  21.155  35.641   3.722
23274W        W88534  38.785  42.165  13.923
23275W        W88535  44.385  31.321   3.287
23276W        W88536  18.082   1.244  13.528
23277W        W88537  37.314  18.109  11.514
23278W        W88538  41.736  26.825  10.149
23279W        W88539  23.662  26.897   2.727
23280W        W88540  34.036   6.714   3.807
23281W        W88541  35.506  15.763  10.544
23282W        W88542   9.780  44.235   3.132
23283W        W88543   2.292  18.743   4.239
23284W        W88544   9.740   1.147   2.686
23285W        W88545  26.724  27.011  12.044
23286W        W88546  17.051  14.633   0.231
23287W        W88547  36.003  31.364   0.280
23288W        W88548  24.361  10.082  14.294
23289W        W88549  36.961  14.854  14.970
23290W        W88550  30.930  23.656   4.367
23291W        W88551   4.861  40.752   1.810
23292W        W88552   4.532  32.867  11.130
23293W        W88553   1.805  20.777   2.186
23294W        W88554  20.573  35.971   0.654
23295W        W88555  21.054  17.811  13.455
23296W        W88556  18.165  17.910   3.811
23297W        W88557  35.274  38.473  11.376
23298W        W88558  28.188  44.505  10.679
23299W        W88559   1.456  39.017   0.682
23300W        W88560  18.642  40.031   4.483
23301W        W88561  16.815  35.422   1.303
23302W        W88562  20.982  36.797  13.617
23303W        W88563  14.100  39.030  12.818
23304W        W88564  16.730  29.978   1.002
23305W        W88565  24.742  41.365   1.790
23306W        W88566  26.073  15.446  13.251
23307W        W88567  40.690  44.979   2.767
23308W        W88568  43.864  33.564  14.163
23309W        W88569  16.815  19.578  12.977
23310W        W88570   2.975  19.578  13.834
23311W        W88571  20.765  42.254   4.623
23312W        W88572  33.120   5.630   2.232
23313W        W88573  29.569  30.095   3.876
23314W        W88574  40.783  28.212   5.052
23315W        W88575  34.112  43.922   2.101
23316W        W88576  28.599  34.614   4.149
23317W        W88577  26.590  15.620   3.570
23318W        W88578  40.038  17.629  10.707
23319W        W88579   9.774  13.251  14.069
23320W        W88580   7.018   9.177   4.631
23321W        W88581  15.226   1.768   3.627
23322W        W88582  19.707  22.563   3.742
23323W        W88583  24.451  15.770   2.799
23324W        W88584  17.780  16.627  14.712
23325W        W88585  29.662  18.959   0.966
23326W        W88586  23.444   4.072   0.407
23327W        W88587  23.974   4.259   2.852
23328W        W88588  10.264   7.765  12.162
23329W        W88589   7.223  32.869  10.751
23330W        W88590  29.543  12.243   4.312
23331W        W88591  19.206  40.945  12.584
23332W        W88592  11.373  25.784   4.147
23333W        W88593  22.368  16.649  10.799
23334W        W88594  29.196  39.856  10.831
23335W        W88595  23.975  43.004  12.310
23336W        W88596  24.117   1.788   1.403
23337W        W88597  29.152   7.123   3.654
23338W        W88598   3.550  27.418  12.848
23339W        W88599  42.949  30.440   1.511
23340W        W88600  31.789  37.329   0.654
23341W        W88601  36.664   7.777  12.041
23342W        W88602  17.617  16.483   2.656
23343W        W88603  34.920  13.081  11.555
23344W        W88604  43.347  42.499  13.969
23345W        W88605  24.537  28.039   4.042
23346W        W88606  38.711  16.942  11.972
23347W        W88607   5.684  15.379  12.532
23348W        W88608  13.392  28.573  11.583
23349W        W88609  36.925   2.731   0.316
23350W        W88610  22.180  22.744  12.185
23351W        W88611  16.965  30.959  11.456
23352W        W88612  14.222  44.242   0.692
23353W        W88613  38.272   0.709   0.839
23354W        W88614  18.958   1.047  12.103
23355W        W88615  36.849  41.875   0.039
23356W        W88616   2.854  44.476  12.600
23357W        W88617  29.148  16.312  11.109
23358W        W88618  41.100  14.621   3.609
23359W        W88619  28.908  25.997  11.612
23360W        W88620  13.476  37.426  12.648
23361W        W88621  24.226  15.581  12.865
23362W        W88622   1.178  38.915  13.790
23363W        W88623  10.901  35.973  12.569
23364W        W88624  34.980   6.198   4.534
23365W        W88625  24.540  29.145   2.139
23366W        W88626   6.703  27.581  11.844
23367W        W88627   7.944   5.646  12.996
23368W        W88628  23.468  32.129  11.532
23369W        W88629  30.423  29.601  14.787
23370W        W88630  26.964  37.600   2.170
23371W        W88631  29.472   8.387   1.780
23372W        W88632  28.397  19.267   9.814
23373W        W88633  24.083  44.887   0.896
23374W        W88634  40.910  29.011   4.732
23375W        W88635  14.726  44.387  12.179
23376W        W88636  28.634  21.788   0.738
23377W        W88637  20.619  34.658  11.951
23378W        W88638  29.751   7.572   3.417
23379W        W88639  21.095  35.680   0.457
23380W        W88640  17.193  12.253   0.462
23381W        W88641  25.215  13.591   1.004
23382W        W88642  22.710  16.330  11.624
23383W        W88643  41.439   1.860  13.938
23384W        W88644   1.310  14.325   0.730
23385W        W88645  35.428  27.218  13.366
23386W        W88646   6.704   2.794  10.968
23387W        W88647  35.996   7.370  12.619
23388W        W88648  18.922  44.331   3.080
23389W        W88649   6.959   1.473   1.647
23390W        W88650  24.581  30.691   2.858
23391W        W88651  16.235  12.031  13.830
23392W        W88652  39.305  25.762  14.310
23393W        W88653  28.078  19.998  11.460
23394W        W88654  41.149   6.345   1.744
23395W        W88655  25.120   6.801   4.584
23396W        W88656  34.359  40.870  14.589
23397W        W88657  20.605  13.708  10.608
23398W        W88658  12.276  25.759   4.705
23399W        W88659  31.861  29.031  10.726
23400W        W88660  17.926  23.630   0.251
23401W        W88661  20.080  20.239   3.009
23402W        W88662   1.750  40.413  14.862
23403W        W88663   3.401   4.003  10.416
23404W        W88664  14.615  22.265   4.447
23405W        W88665  44.306   6.927  11.040
23406W        W88666   7.416  37.363  13.959
23407W        W88667  19.088   9.746  11.627
23408W        W88668  28.924   3.183  10.596
23409W        W88669  25.242   1.866   0.465
23410W        W88670   0.335  32.877   4.987
23411W        W88671  28.649  31.471   4.670
23412W        W88672  11.897  13.325  13.385
23413W        W88673  26.462   5.202  12.978
23414W        W88674  36.831  21.498   0.817
23415W        W88675  23.078   9.189  13.081
23416W        W88676  32.717  28.636  12.918
23417W        W88677  40.117  16.445  11.380
23418W        W88678   7.234   8.775   4.954
23419W        W88679  33.227  24.144   2.765
23420W        W88680  13.853  14.662   2.294
23421W        W88681   6.960  35.603  13.444
23422W        W88682   7.925   9.276  14.036
23423W        W88683   5.231  20.049   2.220
23424W        W88684  17.134  42.978  13.011
23425W        W88685   5.499  35.455  11.645
23426W        W88686   3.903  21.513   0.923
23427W        W88687   0.256  28.541   3.453
23428W        W88688  17.007  33.406   3.184
23429W        W88689   0.377   8.835   0.495
23430W        W88690  14.571  32.198   3.260
23431W        W88691  24.662   0.721   0.884
23432W        W88692  10.655   7.277  13.475
23433W        W88693  37.506   2.227  14.878
23434W        W88694  34.195  14.325   2.158
23435W        W88695  32.752  43.586   3.638
23436W        W88696   2.909  19.526  11.585
23437W        W88697  42.078  34.911  12.012
23438W        W88698  38.329  34.112   2.765
23439W        W88699  14.490  13.010  11.346
23440W        W88700   9.337  29.228  14.444
23441W        W88701  25.869  35.980  13.316
23442W        W88702  39.339  27.484   3.782
23443W        W88703  10.259   0.978   2.839
23444W        W88704  21.582  37.509  13.197
23445W        W88705  16.735  14.153   2.757
23446W        W88706  36.550  34.158  13.285
23447W        W88707  26.612  13.632  12.318
23448W        W88708  44.722  16.607  12.140
23449W        W88709  34.058  27.414  11.697
23450W        W88710  14.840  42.329  12.403
23451W        W88711  36.278  42.876  13.481
23452W        W88712   1.024  26.353   2.269
23453W        W88713  12.836  42.085  11.911
23454W        W88714  30.175  16.980   0.385
23455W        W88715  33.325  30.497  13.363
23456W        W88716  20.593  36.729  13.974
23457W        W88717  25.625   0.435   2.203
23458W        W88718  17.653  20.574  13.265
23459W        W88719  16.049   3.427  13.216
23460W        W88720  23.441  26.029   4.326
23461W        W88721   4.392   8.737   0.961
23462W        W88722   0.660  20.441  13.080
23463W        W88723  19.710  39.896   3.133
23464W        W88724  39.023  34.594   2.548
23465W        W88725  15.848   0.518   0.359
23466W        W88726   9.759  14.608   4.569
23467W        W88727  26.871  40.925   0.403
23468W        W88728  25.569  18.092   3.674
23469W        W88729  14.378  15.778  11.480
23470W        W88730  31.179   3.157  12.128
23471W        W88731   6.694  20.158   2.678
23472W        W88732  12.312  34.008   3.643
23473W        W88733  44.828  25.121   1.728
23474W        W88734  32.221  22.007   0.045
23475W        W88735  36.832  28.831  12.358
23476W        W88736  16.531  39.950   4.380
23477W        W88737  39.606  40.833  10.445
23478W        W88738  24.430  17.762  12.985
23479W        W88739  10.305  42.691   1.923
23480W        W88740  33.371  39.258  11.221
23481W        W88741  29.076  27.873  13.344
23482W        W88742  13.584  29.066   0.347
23483W        W88743  20.838  16.911  12.864
23484W        W88744  18.277  39.076   0.870
23485W        W88745  37.277  17.633  14.390
23486W        W88746  14.346  35.185   2.241
23487W        W88747  31.379  18.347   2.942
23488W        W88748  34.042  27.376   1.418
23489W        W88749  33.014  28.533  13.786
23490W        W88750  29.531  25.984  14.806
23491W        W88751   1.376   9.590  13.498
23492W        W88752  24.664   9.917   2.848
23493W        W88753  37.975   4.260   2.304
23494W        W88754  10.247  24.029  11.498
23495W        W88755  20.759   3.363  10.406
23496W        W88756  40.523  30.211   0.365
23497W        W88757  35.428  31.212   1.933
23498W        W88758  44.945  13.574   4.097
23499W        W88759  34.200   6.979  13.866
23500W        W88760  23.918  43.302  14.264
23501W        W88761   3.393  22.742  12.313
23502W        W88762   0.349   5.923  14.434
23503W        W88763  40.853   8.647  11.163
23504W        W88764  42.758  40.457   2.808
23505W        W88765  34.159  33.740   3.074
23506W        W88766  19.216   4.185   3.848
23507W        W88767  40.421  23.563  14.442
23508W        W88768  28.098  31.049  13.585
23509W        W88769  13.752  27.214  12.844
23510W        W88770  14.096  19.541  13.826
23511W        W88771   8.286  29.985  12.883
23512W        W88772  10.222  21.064  13.924
23513W        W88773  42.936  26.450   1.263
23514W        W88774  26.463  36.605  14.208
23515W        W88775  17.780  39.836  11.483
23516W        W88776  30.119  37.591  11.269
23517W        W88777  32.509   1.323  11.106
23518W        W88778   4.458  44.718  14.469
23519W        W88779   8.915  40.479   0.657
23520W        W88780  14.002  28.575  11.053
23521W        W88781   7.346  38.520  12.948
23522W        W88782  42.797  34.091   1.915
23523W        W88783  21.681  26.768   0.853
23524W        W88784  19.727   1.469  12.393
23525W        W88785   9.156  40.104  13.544
23526W        W88786  25.160  42.590   3.254
23527W        W88787  10.845  44.759  12.497
23528W        W88788   3.405  33.571  11.558
23529W        W88789  19.641   6.840  12.994
23530W        W88790  12.908  28.458  11.481
23531W        W88791  24.027   9.106   0.187
23532W        W88792  23.177  22.821   2.138
23533W        W88793  22.811   7.796   1.532
23534W        W88794  36.665  17.088  13.602
23535W        W88795  26.665  39.499  14.526
23536W        W88796   8.703   7.348  13.265
23537W        W88797  29.723  19.959   0.333
23538W        W88798  37.455  10.792   3.235
23539W        W88799  42.868  23.764  11.710
23540W        W88800  20.217   4.567   5.019
23541W        W88801  42.296  24.676  13.847
23542W        W88802  38.778  16.644  13.628
23543W        W88803  10.864  28.153   1.814
23544W        W88804   5.928   2.483  11.260
23545W        W88805  12.263  34.167  14.546
23546W        W88806  17.038  30.630   3.564
23547W        W88807   1.254   1.918   2.629
23548W        W88808   0.013  27.966   3.256
23549W        W88809  32.561  22.431  14.324
23550W        W88810   8.081   1.901  12.015
23551W        W88811  14.638  41.200  11.163
23552W        W88812  17.777  26.679  14.488
23553W        W88813   4.459  25.023  11.929
23554W        W88814  28.380  19.266   0.755
23555W        W88815  29.069  19.472  12.777
23556W        W88816  28.159   1.662   0.764
23557W        W88817  26.189  42.805   4.234
23558W        W88818  13.560  43.886   3.112
23559W        W88819   6.687  41.264  12.942
23560W        W88820  12.535  35.989  10.710
23561W        W88821   5.788   0.735  12.593
23562W        W88822  38.944  17.774   0.298
23563W        W88823  10.079  10.846  14.555
23564W        W88824   5.892   1.881   1.367
23565W        W88825  37.927  28.975  13.807
23566W        W88826   6.951   0.323  13.095
23567W        W88827  22.558  41.503   0.424
23568W        W88828  13.622  38.248  10.692
23569W        W88829  15.624  17.099  14.070
23570W        W88830  11.256  22.163   0.024
23571W        W88831  37.587  37.231  13.259
23572W        W88832  43.746  23.472  14.057
23573W        W88833  36.833   5.065   0.895
23574W        W88834  35.016  44.450  13.385
23575W        W88835  20.727   1.216   4.020
23576W        W88836  19.167  24.140   3.664
23577W        W88837  25.414  43.972  14.805
23578W        W88838  16.763  21.184   2.332
23579W        W88839  15.869  43.760   9.977
23580W        W88840   3.918  26.020  14.079
23581W        W88841  18.195  39.063  11.562
23582W        W88842  23.970  18.833  14.853
23583W        W88843   2.400  26.903   0.685
23584W        W88844  19.161  41.332   3.127
23585W        W88845  34.157  22.588  13.004
23586W        W88846  30.051  19.027   3.265
23587W        W88847  22.074  28.819  13.087
23588W        W88848   0.366  34.327  13.341
23589W        W88849  15.967  24.691  14.081
23590W        W88850  29.082  13.649  12.923
23591W        W88851   2.966  41.529   2.436
23592W        W88852   8.744  14.471   4.628
23593W        W88853  34.396   1.152   3.188
23594W        W88854  11.089   4.910  14.904
23595W        W88855  35.652  43.822   1.806
23596W        W88856  39.973  19.120   3.897
23597W        W88857  42.495  36.622   0.306
23598W        W88858  11.675  27.132   3.981
23599W        W88859  13.154  20.666   2.402
23600W        W88860  39.698  19.828   2.877
23601W        W88861   4.890  32.065  11.450
23602W        W88862  17.694  32.223  11.023
23603W        W88863   7.101   4.891   4.186
23604W        W88864  33.006  41.250  12.754
23605W        W88865  10.384   1.884  12.926
23606W        W88866  11.438  44.477   1.153
23607W        W88867  39.834   4.146  12.895
23608W        W88868  10.946  37.328   2.009
23609W        W88869  40.902  22.591  14.756
23610W        W88870  26.069  20.856   3.569
23611W        W88871  30.911  40.782  10.622
23612W        W88872  28.976   2.261   0.316
23613W        W88873  41.585  44.939   0.877
23614W        W88874  18.250  10.573   0.465
23615W        W88875  35.056   7.508  10.860
23616W        W88876   5.421  32.536   2.180
23617W        W88877  44.340  18.617  11.062
23618W        W88878  43.391  15.813  14.207
23619W        W88879  12.045  20.630   0.796
23620W        W88880  44.800  35.407   0.719
23621W        W88881  20.174  31.418  13.489
23622W        W88882  32.386  23.679  13.301
23623W        W88883  25.455  23.336  12.268
23624W        W88884  24.021   1.340  14.264
23625W        W88885  37.627  38.064  10.729
23626W        W88886  14.684  44.563   2.657
23627W        W88887  17.860  40.498  14.902
23628W        W88888  26.943  38.980  11.623
23629W        W88889   4.895   2.822   2.928
23630W        W88890  36.535  31.178  14.266
23631W        W88891  24.340   1.480   3.354
23632W        W88892  15.832  27.123   4.157
23633W        W88893  26.659  44.271   1.828
23634W        W88894   9.326  17.456   4.501
23635W        W88895   5.305  21.852   3.687
23636W        W88896  15.967  43.414   0.892
23637W        W88897  17.433  23.812  10.276
23638W        W88898  12.620  15.816   4.167
23639W        W88899   2.982  28.377  13.308
23640W        W88900   3.343   3.516  11.655
23641W        W88901   8.846  22.714  13.713
23642W        W88902  12.110  44.282  13.475
23643W        W88903  26.163  11.303   4.103
23644W        W88904   9.714  31.893  14.840
23645W        W88905  41.035  19.017   1.226
23646W        W88906  18.724  43.790   0.884
23647W        W88907   0.668  30.952  12.127
23648W        W88908  26.741   2.238  14.385
23649W        W88909  15.157  18.008  13.936
23650W        W88910  10.777  24.270  11.536
23651W        W88911  40.754  42.572   3.940
23652W        W88912   6.700  19.608   1.019
23653W        W88913   5.950  27.022   3.143
23654W        W88914   6.203  20.925   0.873
23655W        W88915  24.479  22.113  14.791
23656W        W88916  18.172  20.477  11.213
23657W        W88917   4.428  21.192   3.134
23658W        W88918  18.847  28.993   0.310
23659W        W88919  11.302   6.791  12.927
23660W        W88920   1.056   1.856  11.528
23661W        W88921  27.585  22.128   4.424
23662W        W88922  27.513  44.712  12.418
23663W        W88923   7.474   4.417  12.414
23664W        W88924  12.952  23.697   0.768
23665W        W88925   5.447  14.461  10.716
23666W        W88926   1.602  12.195   2.924
23667W        W88927  41.971  39.925   0.419
23668W        W88928   7.142  43.004   4.618
23669W        W88929   0.305  32.492  11.103
23670W        W88930  15.176  27.005   0.502
23671W        W88931   7.163   6.632   3.782
23672W        W88932  12.189  38.109   2.454
23673W        W88933  41.748  30.621  14.810
23674W        W88934  39.137  29.371  12.501
23675W        W88935  32.943  28.069  13.584
23676W        W88936  18.582  41.722  12.158
23677W        W88937  26.215  31.927  13.527
23678W        W88938  17.693  18.655  13.501
23679W        W88939  38.042  22.217  11.055
23680W        W88940  40.531  27.219   0.018
23681W        W88941   8.911  31.650   2.433
23682W        W88942  21.507  35.935  12.833
23683W        W88943  34.673   7.859   4.679
23684W        W88944   4.232  37.005  14.312
23685W        W88945   6.685   6.283   1.376
23686W        W88946  20.260  21.566   3.286
23687W        W88947   8.908  35.039   1.811
23688W        W88948   1.803  26.663   2.677
23689W        W88949   5.526  12.557  12.913
23690W        W88950   3.266  12.862  11.257
23691W        W88951   2.117  30.836  14.802
23692W        W88952   7.954  14.444   1.352
23693W        W88953   9.541   6.000   3.199
23694W        W88954  43.824  26.000  10.695
23695W        W88955  28.589   0.196  10.282
23696W        W88956   2.947  24.486  14.838
23697W        W88957  30.127  41.576   1.182
23698W        W88958  10.024  35.874   3.897
23699W        W88959  28.408  32.298  13.775
23700W        W88960  38.390  42.946   0.969
23701W        W88961   3.372   3.804   0.003
23702W        W88962   9.111  20.115  13.340
23703W        W88963  29.549  30.114   4.387
23704W        W88964  38.852  32.386   2.295
23705W        W88965  11.673  22.758   2.919
23706W        W88966   5.846  26.883   4.104
23707W        W88967  27.960  38.889  11.720
23708W        W88968  39.416  26.887   0.924
23709W        W88969   6.478   4.407  12.419
23710W        W88970   8.357   3.475   2.800
23711W        W88971  28.929  32.007   1.852
23712W        W88972  26.280   1.018   3.374
23713W        W88973  38.032  38.127   3.028
23714W        W88974   5.178   6.505  11.595
23715W        W88975   7.162  14.352  12.965
23716W        W88976  24.517   9.241   1.422
23717W        W88977  12.864  38.007  11.193
23718W        W88978  38.040  40.006   3.060
23719W        W88979  23.087  31.519   0.963
23720W        W88980  33.149   8.712   2.348
23721W        W88981  32.749  43.987   1.030
23722W        W88982  19.350   9.264  14.933
23723W        W88983  41.579   4.245   2.874
23724W        W88984   6.808  26.170   0.922
23725W        W88985   3.135  12.082   3.193
23726W        W88986   3.720  29.742  14.232
23727W        W88987  44.552   1.537   2.192
23728W        W88988  10.295  17.960   4.143
23729W        W88989  42.824  44.848   1.015
23730W        W88990  24.427   1.486   0.551
23731W        W88991  27.028  15.388   0.415
23732W        W88992  20.071  14.456  10.936
23733W        W88993  44.269  13.850   4.578
23734W        W88994  27.679  24.401  11.712
23735W        W88995  35.586  38.042  14.108
23736W        W88996  36.524  13.924  14.294
23737W        W88997   3.119   3.698   3.570
23738W        W88998  38.457  24.760  12.470
23739W        W88999  40.799  24.587   2.443
23740W        W89000  12.815  15.819   2.264
23741W        W89001  33.930  41.122  14.878
23742W        W89002  44.389  21.992   0.681
23743W        W89003  26.188  13.445   1.865
23744W        W89004   4.315   2.732   2.475
23745W        W89005   8.310  28.949   2.901
23746W        W89006   7.603   2.184  12.964
23747W        W89007   0.099  32.019   1.930
23748W        W89008  14.370  39.023  12.381
23749W        W89009   0.297  29.524  12.620
23750W        W89010   9.210  13.436   1.402
23751W        W89011  36.637  30.096  12.957
23752W        W89012  41.333  27.534   1.418
23753W        W89013   4.158  40.322   2.890
23754W        W89014   4.645  41.064  14.276
23755W        W89015  13.219  17.665   1.325
23756W        W89016  25.578  20.093   1.586
23757W        W89017   5.019  31.799  13.734
23758W        W89018  43.313   5.160   1.326
23759W        W89019  13.795  37.389  12.109
23760W        W89020  40.542  43.369   0.709
23761W        W89021  15.510   9.829   1.564
23762W        W89022  38.592  10.082   4.607
23763W        W89023   2.257  22.255   3.471
23764W        W89024  42.958   9.433   3.726
23765W        W89025  12.756  23.198  13.858
23766W        W89026  32.600  36.377   0.270
23767W        W89027  26.589  28.432   0.229
23768W        W89028  23.685  39.838  13.708
23769W        W89029  27.418  41.051   2.705
23770W        W89030  21.678  10.238   1.192
23771W        W89031  40.731  34.481  13.065
23772W        W89032  14.329  10.345  10.537
23773W        W89033  33.605  20.765  14.344
23774W        W89034  15.816  16.382  12.382
23775W        W89035  33.633  10.858  10.294
23776W        W89036  40.839  33.903   3.688
23777W        W89037  29.640   8.988  13.770
23778W        W89038   2.774  38.067   4.519
23779W        W89039   2.380  28.548   3.190
23780W        W89040   8.294   6.030  13.020
23781W        W89041  15.822  37.085   4.690
23782W        W89042  41.942   5.935  13.406
23783W        W89043  14.581  40.788   1.482
23784W        W89044  38.351   4.855  12.947
23785W        W89045  30.733  29.929   0.573
23786W        W89046  16.481   2.564   1.864
23787W        W89047  35.480  19.779  13.012
23788W        W89048  33.083  44.713   2.865
23789W        W89049  16.143   4.694   2.785
23790W        W89050  24.967   5.903  12.389
23791W        W89051  27.647   6.411  13.682
23792W        W89052  23.650  33.808  14.487
23793W        W89053  25.814  25.653   0.349
23794W        W89054  26.117  38.856  12.620
23795W        W89055  34.309   3.382  11.612
23796W        W89056   9.198  22.979   4.812
23797W        W89057  30.568  12.987  14.976
23798W        W89058   2.903  37.788  12.517
23799W        W89059  34.931   1.467   3.810
23800W        W89060  24.983  11.606   4.610
23801W        W89061   8.949   1.507   2.239
23802W        W89062   1.569  19.554  11.637
23803W        W89063  35.581   9.436   4.236
23804W        W89064  12.621   5.652   4.881
23805W        W89065   9.781  36.790  13.394
23806W        W89066  34.072  30.176  11.076
23807W        W89067  39.325  28.985  14.814
23808W        W89068   2.672  29.358   3.746
23809W        W89069  23.971   0.879   2.068
23810W        W89070   2.353  33.666  14.399
23811W        W89071  22.953  19.550   4.679
23812W        W89072  17.233  35.940   4.538
23813W        W89073   4.894  36.291   4.556
23814W        W89074  43.826  16.540  10.762
23815W        W89075  23.510  21.554  13.427
23816W        W89076  24.702  38.926  12.446
23817W        W89077  40.303  21.273  13.471
23818W        W89078  22.259   7.435   1.768
23819W        W89079   3.672   6.729   2.378
23820W        W89080   2.288   6.852   3.630
23821W        W89081   4.450  19.731  11.059
23822W        W89082   2.155  25.193  11.619
23823W        W89083  27.450  44.506   4.540
23824W        W89084  11.335  35.963   0.758
23825W        W89085  27.662  23.812  14.989
23826W        W89086  22.047  38.577   0.782
23827W        W89087  37.032  35.081   1.530
23828W        W89088  12.801  30.619  13.754
23829W        W89089   4.486  23.983  11.267
23830W        W89090   4.424  43.048  12.950
23831W        W89091  44.638  20.510  11.065
23832W        W89092  10.820  41.845  10.525
23833W        W89093  37.999  11.988   0.214
23834W        W89094  34.556  12.777   2.855
23835W        W89095  44.011  11.150   0.294
23836W        W89096  12.637   5.972  11.554
23837W        W89097   7.755  27.879  14.380
23838W        W89098  34.273   6.229   1.871
23839W        W89099  26.582  32.699   3.180
23840W        W89100   4.722  21.829  11.543
23841W        W89101  33.580  34.641   2.318
23842W        W89102  42.312   7.291  11.589
23843W        W89103   3.417  41.164   3.789
23844W        W89104  21.605  29.132  10.676
23845W        W89105  42.205  17.742  12.239
23846W        W89106  36.801  32.385  11.411
23847W        W89107  25.075  32.626  10.708
23848W        W89108  10.606  35.413   4.045
23849W        W89109  21.211   7.268  14.008
23850W        W89110  15.208  13.064   0.361
23851W        W89111  22.175  30.690   2.736
23852W        W89112   1.963   3.451   0.854
23853W        W89113  25.683  12.254   4.355
23854W        W89114   8.916  15.115   0.055
23855W        W89115  40.582  39.287  13.920
23856W        W89116  33.671  11.354   0.880
23857W        W89117  14.143  25.485   4.467
23858W        W89118  20.682   5.936  11.561
23859W        W89119  21.143  18.701   1.223
23860W        W89120  35.871  11.113   1.263
23861W        W89121   0.766   7.347  12.826
23862W        W89122   4.470  32.471   1.358
23863W        W89123  42.390  35.546  14.350
23864W        W89124  17.738  13.558   1.446
23865W        W89125   9.246   2.691  11.445
23866W        W89126  12.437  28.428  11.658
23867W        W89127  44.447  35.926   4.651
23868W        W89128  21.322  16.722  12.924
23869W        W89129  18.639  30.412  13.558
23870W        W89130   5.869  13.546   4.173
23871W        W89131  11.403   6.496   1.979
23872W        W89132  29.840  29.741   5.283
23873W        W89133   6.220  27.768   0.410
23874W        W89134  26.300  16.546  14.970
23875W        W89135   3.194  20.106   1.379
23876W        W89136  26.713  37.586   4.660
23877W        W89137   9.051   7.668  11.454
23878W        W89138  13.208   2.004   1.187
23879W        W89139   3.151  22.312  11.555
23880W        W89140  18.474   7.155   3.401
23881W        W89141   9.588  26.578   0.456
23882W        W89142   7.651  12.744  12.055
23883W        W89143  37.012  25.255  12.524
23884W        W89144  13.806  25.005   2.966
23885W        W89145  39.016  24.473   2.380
23886W        W89146   5.955  44.719   3.267
23887W        W89147  34.222   9.861   1.802
23888W        W89148  44.565   6.217  14.522
23889W        W89149  40.250  20.601   3.688
23890W        W89150  12.832  18.136  10.818
23891W        W89151   3.571  24.059   0.730
23892W        W89152  24.665  40.044   4.595
23893W        W89153  15.150  16.280  12.876
23894W        W89154   9.825  29.130  11.649
23895W        W89155   4.273  26.149   4.661
23896W        W89156  29.633  19.075  14.551
23897W        W89157   8.638  24.590   2.818
23898W        W89158  25.560  20.421   5.533
23899W        W89159  41.679  23.843   1.203
23900W        W89160  41.044  20.674   0.863
23901W        W89161  18.683   6.770   3.154
23902W        W89162  31.499  26.196  13.140
23903W        W89163  16.697  22.017   2.384
23904W        W89164  31.663  21.787  10.874
23905W        W89165  29.452   8.241   3.703
23906W        W89166  31.990  37.755  12.985
23907W        W89167   7.787   9.242   1.608
23908W        W89168  11.560  38.655  12.915
23909W        W89169  35.003  16.127   2.698
23910W        W89170  39.520  42.495  14.919
23911W        W89171  35.366  25.083   2.165
23912W        W89172  25.988   6.873  11.977
23913W        W89173  21.229  27.686   0.064
23914W        W89174  32.671  17.678   2.864
23915W        W89175  30.159  38.449   2.938
23916W        W89176  23.201   3.363   0.049
23917W        W89177  27.569  15.207   2.787
23918W        W89178  23.667  17.261  14.054
23919W        W89179  26.670  28.610  13.347
23920W        W89180  43.006  15.209  12.707
23921W        W89181   1.217  38.048   3.774
23922W        W89182  36.082   2.725  12.049
23923W        W89183  26.522   8.705  14.875
23924W        W89184  12.790  24.281  13.822
23925W        W89185  33.806  17.152  14.343
23926W        W89186   1.716  26.459   3.150
23927W        W89187  39.898  42.880   1.254
23928W        W89188  13.447  37.422   2.745
23929W        W89189   6.263  26.585   3.978
23930W        W89190   7.268  14.868   2.235
23931W        W89191  36.809  30.109   2.346
23932W        W89192  36.668  42.875   4.511
23933W        W89193   4.758  21.731   1.699
23934W        W89194  19.543  29.019   1.169
23935W        W89195  11.144  30.616  12.205
23936W        W89196  18.505   3.872   0.819
23937W        W89197  26.618  11.240   4.355
23938W        W89198  39.802   5.079  11.489
23939W        W89199  40.253  23.564  12.264
23940W        W89200  14.839  33.147  13.347
23941W        W89201  21.263  19.811  10.297
23942W        W89202  37.671   0.358   2.109
23943W        W89203  25.858   7.666   2.821
23944W        W89204  17.975  12.594   2.373
23945W        W89205   8.750  28.040   0.979
23946W        W89206  35.902  12.570  13.521
23947W        W89207  24.977  36.520  13.427
23948W        W89208  33.872   4.484  12.845
23949W        W89209  12.353   5.387  14.820
23950W        W89210  44.968  44.350  11.162
23951W        W89211  25.443   7.796  14.554
23952W        W89212  19.298  27.299   1.864
23953W        W89213  24.956  32.155  13.978
23954W        W89214  19.748  13.576  14.753
23955W        W89215  39.281  26.065  13.584
23956W        W89216  31.764  43.929  11.130
23957W        W89217  26.948  25.161   2.279
23958W        W89218  39.814  13.743  14.966
23959W        W89219  40.513   5.379  12.231
23960W        W89220   4.850  11.091   1.818
23961W        W89221   8.828  36.813   4.851
23962W        W89222  32.654   3.816   0.022
23963W        W89223  31.923  16.735   1.567
23964W        W89224  37.578  14.575   4.084
23965W        W89225  13.112  37.920  12.508
23966W        W89226  40.416  36.200   3.250
23967W        W89227  15.869  31.684   3.965
23968W        W89228  42.074  22.528   1.823
23969W        W89229  43.008  25.308   0.534
23970W        W89230   8.002   3.341   4.141
23971W        W89231  22.058  14.753   3.890
23972W        W89232  17.399  32.402  10.609
23973W        W89233  27.927  23.052   0.419
23974W        W89234  43.383   4.155   2.660
23975W        W89235   7.568  18.681  11.665
23976W        W89236  18.560  41.510   4.826
23977W        W89237   9.638  26.029  14.799
23978W        W89238  27.147  29.305   3.217
23979W        W89239  32.411  18.017   4.589
23980W        W89240  16.817  33.231  13.045
23981W        W89241   7.769  22.530   4.111
23982W        W89242  42.400  17.739  11.616
23983W        W89243  25.606   7.550   1.100
23984W        W89244  23.205  44.840  12.908
23985W        W89245  35.026  26.739  14.222
23986W        W89246  40.423  34.917   0.261
23987W        W89247  41.770   3.354   0.910
23988W        W89248  41.004  36.521  13.935
23989W        W89249   9.118  12.633   4.671
23990W        W89250  27.642   9.809   3.407
23991W        W89251  33.774  14.743   1.942
23992W        W89252  38.375  39.976  11.690
23993W        W89253  14.722  26.813   1.811
23994W        W89254  20.006  18.542  11.048
23995W        W89255   1.902  32.581   3.354
23996W        W89256  27.127   6.597  10.324
23997W        W89257  25.397   0.824  14.812
23998W        W89258  20.168   2.543  12.039
23999W        W89259  30.023  12.545   1.328
24000W        W89260  18.546   5.725   1.969
24001W        W89261   8.489   9.326   4.731
24002W        W89262  35.454   5.872   3.599
24003W        W89263  30.900  19.542  12.894
24004W        W89264  32.081  14.115  11.864
24005W        W89265  17.675  16.339   4.858
24006W        W89266  16.411  11.771   2.716
24007W        W89267  39.455  18.141  12.981
24008W        W89268  38.880   2.893  11.720
24009W        W89269  27.740   4.765   2.245
24010W        W89270   9.046  13.924   1.445
24011W        W89271  36.938   2.147   4.183
24012W        W89272   3.624  16.768   1.280
24013W        W89273  35.028  30.617   3.234
24014W        W89274  42.336  29.186  11.545
24015W        W89275  18.639  37.185   5.073
24016W        W89276  40.315  42.328  12.078
24017W        W89277   6.718  22.215   4.117
24018W        W89278  17.586  18.212  10.251
24019W        W89279  10.634  44.760   1.585
24020W        W89280  43.427  33.528  11.177
24021W        W89281  34.459   6.213  12.881
24022W        W89282  39.768  15.741  14.356
24023W        W89283  17.705  41.418   0.975
24024W        W89284  32.523  42.324   0.883
24025W        W89285  19.799   4.877  12.885
24026W        W89286  30.066  43.239   2.712
24027W        W89287  24.927  27.751  12.058
24028W        W89288   0.670   9.243  13.061
24029W        W89289   8.752   2.564  14.098
24030W        W89290  34.479  13.072  10.795
24031W        W89291  32.095   4.465   1.471
24032W        W89292  38.013  36.194   0.270
24033W        W89293  17.146   8.113  11.832
24034W        W89294   2.581  30.813  11.142
24035W        W89295  18.372  19.120  11.518
24036W        W89296  36.223   1.419   2.866
24037W        W89297  35.115  25.481  10.242
24038W        W89298  19.073  26.443   3.648
24039W        W89299  37.111  44.309   9.777
24040W        W89300  33.373   0.874  13.284
24041W        W89301  38.763  32.500  11.840
24042W        W89302  41.399   6.210   2.213
24043W        W89303  17.281  11.392   4.609
24044W        W89304  21.031  14.118   3.953
24045W        W89305  39.889  42.913  12.839
24046W        W89306  37.410  38.569   0.926
24047W        W89307  40.028   7.092   3.606
24048W        W89308  28.531  35.989   3.143
24049W        W89309  44.762  20.582   4.056
24050W        W89310   8.615  11.860   1.987
24051W        W89311  11.899  17.169  14.475
24052W        W89312  32.479  26.936   4.558
24053W        W89313  29.977  40.866  14.509
24054W        W89314  15.057  21.662   1.310
24055W        W89315  12.902  24.615  11.629
24056W        W89316  22.442  31.459  13.865
24057W        W89317  17.819  33.607   2.652
24058W        W89318  44.160  16.110   2.164
24059W        W89319  33.184  27.682   5.051
24060W        W89320  40.434  11.594  13.513
24061W        W89321  11.201   8.113  12.829
24062W        W89322  30.310  22.658   4.726
24063W        W89323  21.290   1.538   0.403
24064W        W89324  14.357   5.847   3.283
24065W        W89325  22.435  10.722   3.746
24066W        W89326  36.803  20.727  12.448
24067W        W89327  18.995  14.134   4.297
24068W        W89328  11.701   2.663   3.116
24069W        W89329   1.464  39.841   4.608
24070W        W89330  18.328  42.388  14.261
24071W        W89331  29.262  16.194   1.108
24072W        W89332  44.216  28.471  13.811
24073W        W89333  11.217  30.278  13.022
24074W        W89334  22.422  25.655  14.841
24075W        W89335  32.603  36.515  14.392
24076W        W89336   0.262  18.667  11.089
24077W        W89337  38.069   5.305  13.887
24078W        W89338   8.618  32.711  14.498
24079W        W89339   8.070  14.118   1.775
24080W        W89340  18.536  19.988  14.736
24081W        W89341  21.586  22.826   4.524
24082W        W89342   4.967   0.779  10.431
24083W        W89343  13.136  38.011   3.341
24084W        W89344   7.836  44.695   3.620
24085W        W89345  33.280  44.705   5.267
24086W        W89346  32.090   2.516  12.374
24087W        W89347  10.520  32.151   0.223
24088W        W89348  22.614  32.406  12.159
24089W        W89349   7.658  16.503   0.645
24090W        W89350  28.141  11.016  10.736
24091W        W89351   2.786  31.501   4.202
24092W        W89352  15.558   3.980   1.057
24093W        W89353  31.681  24.521   3.734
24094W        W89354  44.089  39.831   3.756
24095W        W89355  27.372  20.037   0.425
24096W        W89356  21.711  19.594   3.698
24097W        W89357  40.390  18.271  11.119
24098W        W89358  22.380  17.759  13.118
24099W        W89359  16.134  24.678   1.066
24100W        W89360  35.002  39.637  14.326
24101W        W89361  20.629  20.500  10.173
24102W        W89362  26.425  20.685  10.912
24103W        W89363  27.539  19.599  14.321
24104W        W89364  34.602   7.369   1.022
24105W        W89365   0.287  41.940  12.497
24106W        W89366  10.125   1.637  13.310
24107W        W89367  21.811  10.628  12.468
24108W        W89368   0.762   3.691  12.439
24109W        W89369  37.022  12.174  11.562
24110W        W89370  16.931  11.760   2.752
24111W        W89371   8.132  32.413  12.416
24112W        W89372  28.760  13.806  10.738
24113W        W89373  18.718  37.469  11.415
24114W        W89374   5.233  23.698   3.160
24115W        W89375   8.444  21.243   0.890
24116W        W89376  12.907  16.233   4.111
24117W        W89377  35.525   8.121  14.532
24118W        W89378  16.884  36.059   1.821
24119W        W89379  19.514   6.166  12.086
24120W        W89380  31.862   1.268  14.044
24121W        W89381  13.698  13.106   1.883
24122W        W89382  18.069  26.626  14.929
24123W        W89383  30.043  32.803  12.052
24124W        W89384  40.855  22.227   0.648
24125W        W89385  18.431  44.366  10.781
24126W        W89386  16.837  18.343  10.713
24127W        W89387  44.917  16.263  12.456
24128W        W89388  28.025  18.471  11.733
24129W        W89389  31.031  40.218   2.544
24130W        W89390   7.397  16.663   3.320
24131W        W89391  35.918   1.726  14.058
24132W        W89392  27.941  41.133   4.151
24133W        W89393  26.104   2.786  13.783
24134W        W89394  32.832  35.832  14.810
24135W        W89395  28.629   5.133   3.290
24136W        W89396  38.585  43.440   0.916
24137W        W89397  30.943  14.089  14.390
24138W        W89398  34.583   9.172  10.982
24139W        W89399  31.605  27.933   2.401
24140W        W89400  39.380  39.670  12.987
24141W        W89401  18.532  40.496   2.303
24142W        W89402   8.950   8.112   1.136
24143W        W89403  29.363   4.789  13.534
24144W        W89404  33.127  17.632   1.342
24145W        W89405  18.085  39.528  12.272
24146W        W89406  27.230  15.400  12.488
24147W        W89407  24.632  43.002   1.630
24148W        W89408  14.875  22.167  13.467
24149W        W89409   1.400   1.383   1.446
24150W        W89410   6.309  31.125   4.529
24151W        W89411  35.579   6.811  14.405
24152W        W89412  31.413  21.829  14.356
24153W        W89413  16.127   1.496  14.089
24154W        W89414  34.523  30.590   2.996
24155W        W89415  28.293   6.196   1.233
24156W        W89416  34.527  36.883  14.700
24157W        W89417  21.583  36.998  14.997
24158W        W89418  12.774  17.830   1.504
24159W        W89419   4.729  20.613  12.005
24160W        W89420  32.401  14.876  12.914
24161W        W89421  28.554  31.716  10.251
24162W        W89422  28.637  30.539   4.476
24163W        W89423  17.143  42.759   3.799
24164W        W89424  34.452  37.459  11.731
24165W        W89425   7.200  25.062   2.786
24166W        W89426  25.487  24.572  13.000
24167W        W89427   2.185  20.179   1.484
24168W        W89428  42.626  26.237  11.150
24169W        W89429   4.958  44.713  12.803
24170W        W89430  13.260  28.722  13.865
24171W        W89431  38.443  29.495  14.488
24172W        W89432  41.976  17.400  11.652
24173W        W89433  12.874  24.432  14.827
24174W        W89434  25.428  36.599  13.133
24175W        W89435  41.740   8.020   5.051
24176W        W89436  32.618   8.359  12.079
24177W        W89437  40.787  22.033  13.861
24178W        W89438   1.367  31.632  13.127
24179W        W89439   1.907  39.409  13.205
24180W        W89440  22.650   4.922   3.150
24181W        W89441   1.985  39.966  10.657
24182W        W89442  36.568  27.879   1.774
24183W        W89443  31.548  13.370   2.127
24184W        W89444  29.603   5.211  11.724
24185W        W89445  43.574  31.624   0.821
24186W        W89446  29.753   6.209  11.981
24187W        W89447  32.327   7.333   2.846
24188W        W89448  36.596   9.771  14.587
24189W        W89449  29.475   6.576  11.643
24190W        W89450  28.155  25.183   1.283
24191W        W89451  31.456  28.524   0.685
24192W        W89452  32.435   6.959   0.297
24193W        W89453  33.998   7.433  12.503
24194W        W89454  15.679  19.747   2.361
24195W        W89455  21.046  15.795   0.919
24196W        W89456  11.334  13.208   3.162
24197W        W89457  13.879   2.705  10.748
24198W        W89458  14.695  25.928   0.859
24199W        W89459   5.407  15.504   2.333
24200W        W89460  37.931   4.662   1.985
24201W        W89461  43.555   9.168   1.449
24202W        W89462   3.780  22.271  13.728
24203W        W89463   8.644   2.020  12.784
24204W        W89464  14.222   9.284  14.084
24205W        W89465  25.478  27.632  13.893
24206W        W89466   7.336  37.115   4.627
24207W        W89467  29.376  35.442  11.700
24208W        W89468  10.295  28.424   4.941
24209W        W89469   6.269   8.604   1.653
24210W        W89470   3.783  28.699   4.253
24211W        W89471  20.585  42.400   2.756
24212W        W89472  42.690  44.039  13.508
24213W        W89473  34.107  35.130  11.682
24214W        W89474  36.317  41.622   0.951
24215W        W89475   9.790  35.881  13.367
24216W        W89476   7.090  28.629   0.672
24217W        W89477  22.233  40.594   2.770
24218W        W89478  15.945  21.264   1.755
24219W        W89479   9.990  13.250   1.732
24220W        W89480   6.306  41.775  14.946
24221W        W89481  21.748  37.246  11.096
24222W        W89482  14.068  28.007  13.468
24223W        W89483   2.492  42.533  14.590
24224W        W89484  29.704   4.293   2.229
24225W        W89485  29.991  43.371  14.969
24226W        W89486  29.456  30.406  11.109
24227W        W89487  34.052   4.415   1.164
24228W        W89488  12.256   1.730   2.658
24229W        W89489  27.832  17.957  10.018
24230W        W89490  28.924  35.865   0.793
24231W        W89491  43.407  12.315   0.423
24232W        W89492  25.090  38.989  11.608
24233W        W89493  25.405  15.823   2.288
24234W        W89494   2.364   6.143  14.820
24235W        W89495   0.504   9.641  12.008
24236W        W89496   5.157  27.404  13.365
24237W        W89497   4.651  28.069   2.553
24238W        W89498  27.595   2.315   3.400
24239W        W89499  11.300  44.003   1.403
24240W        W89500  25.634  29.419  14.722
24241W        W89501  10.443  30.043  12.560
24242W        W89502  40.386   8.847  14.790
24243W        W89503  19.990  40.559   1.225
24244W        W89504  24.632   1.305   4.750
24245W        W89505  44.212  21.554   3.224
24246W        W89506  35.534  19.017  11.658
24247W        W89507   6.831  28.908  12.459
24248W        W89508  32.457   4.400  12.667
24249W        W89509  29.968  10.349   4.264
24250W        W89510  21.497   8.298   0.462
24251W        W89511  17.153  32.925  11.570
24252W        W89512  21.571  24.098   1.694
24253W        W89513   2.860  44.403   4.638
24254W        W89514  25.016  20.176   4.374
24255W        W89515  40.924  15.038   3.364
24256W        W89516  29.272  19.736  10.710
24257W        W89517  15.824  17.213   2.347
24258W        W89518  19.028   3.057  13.990
24259W        W89519   2.830  30.669   3.806
24260W        W89520  18.619  12.621   1.499
24261W        W89521  20.275   4.879   9.743
24262W        W89522  21.689  16.257   1.682
24263W        W89523   6.184  38.736  10.759
24264W        W89524  42.683  43.739  13.091
24265W        W89525  12.914  43.827  13.379
24266W        W89526  26.261  33.347   4.565
24267W        W89527  36.938  16.537  14.177
24268W        W89528  12.564  34.019   0.551
24269W        W89529  36.147   1.386   2.221
24270W        W89530  11.739  44.312  12.561
24271W        W89531  34.331  39.413  11.848
24272W        W89532  24.685  12.292  12.341
24273W        W89533  37.410  18.568   1.124
24274W        W89534   6.203   4.648   0.255
24275W        W89535  27.973  18.122  14.495
24276W        W89536  15.088  35.338  12.477
24277W        W89537  21.639  29.362  13.616
24278W        W89538  18.663   3.758  11.615
24279W        W89539  35.631  28.498  11.707
24280W        W89540  17.143  41.491   3.311
24281W        W89541  20.559  39.983   3.651
24282W        W89542  27.650  14.204   3.301
24283W        W89543  37.162  42.280  11.124
24284W        W89544  28.363   5.822   4.405
24285W        W89545  44.763   3.013  10.568
24286W        W89546  39.040  24.096  13.001
24287W        W89547  30.845  31.800   0.807
24288W        W89548  35.616  22.624  13.900
24289W        W89549   5.091  12.372  13.159
24290W        W89550  34.439  12.950  14.971
24291W        W89551   3.925  23.946   3.607
24292W        W89552  21.708  13.012   4.962
24293W        W89553   9.161  42.551  13.281
24294W        W89554   2.298  32.678   1.932
24295W        W89555  33.562  11.156  10.715
24296W        W89556  40.587  41.165  11.116
24297W        W89557   3.832  43.834   0.332
24298W        W89558   5.420  33.599  11.175
24299W        W89559   0.835  31.552  13.044
24300W        W89560  28.581  10.332   3.223
24301W        W89561  10.499  29.930  11.624
24302W        W89562  27.488  23.566  10.953
24303W        W89563  26.004  19.553   2.632
24304W        W89564  26.112  28.451  14.935
24305W        W89565  23.484  43.452   0.491
24306W        W89566  22.179   0.931   3.108
24307W        W89567  12.395  30.846  13.978
24308W        W89568  38.137  39.451   2.640
24309W        W89569  27.696  39.996   2.324
24310W        W89570   7.227  12.328  14.372
24311W        W89571  41.061   1.335   1.456
24312W        W89572  36.604  16.489  14.569
24313W        W89573  25.142  40.071  10.592
24314W        W89574  23.626   4.336  11.518
24315W        W89575  12.839   0.940   0.367
24316W        W89576  15.497   2.325   4.687
24317W        W89577   8.745   8.378   4.008
24318W        W89578  13.207  14.538  14.469
24319W        W89579  34.667  12.227   0.462
24320W        W89580  11.729  21.843  11.142
24321W        W89581  21.693  26.567   4.561
24322W        W89582   0.755  10.796   2.651
24323W        W89583  24.884  14.581   4.079
24324W        W89584   9.664  43.931   1.266
24325W        W89585   5.207  44.787   1.903
24326W        W89586  23.788   3.958  13.392
24327W        W89587  22.758  14.598   0.366
24328W        W89588  25.654  30.756   3.941
24329W        W89589  37.328  18.664   3.585
24330W        W89590  38.298   0.439  14.458
24331W        W89591  43.829  18.067   4.229
24332W        W89592  27.954  39.492  12.103
24333W        W89593  37.050   5.384  14.091
24334W        W89594   4.944  34.078   1.314
24335W        W89595   2.350  42.397   4.975
24336W        W89596  17.076  36.262   0.683
24337W        W89597  12.538  34.595   2.957
24338W        W89598  30.290  13.650  10.522
24339W        W89599  29.246  39.452   3.343
24340W        W89600  37.992  25.272   1.790
24341W        W89601  23.652  14.056  13.058
24342W        W89602  29.579  32.647   4.591
24343W        W89603  13.403  16.848   4.680
24344W        W89604  36.089   8.244   1.692
24345W        W89605   0.912  40.765   3.109
24346W        W89606  29.855  18.273  11.004
24347W        W89607  15.378   9.869  12.469
24348W        W89608   2.045   6.186   0.402
24349W        W89609   0.753  43.878   2.259
24350W        W89610  41.028  35.780   1.906
24351W        W89611  15.268  24.633   0.236
24352W        W89612   9.985  24.664  10.102
24353W        W89613  44.485   2.537   4.757
24354W        W89614  11.127  42.233  14.366
24355W        W89615  35.490  36.888   0.538
24356W        W89616  18.282  13.130  12.071
24357W        W89617   2.481  28.538   1.809
24358W        W89618   7.014  32.302   1.422
24359W        W89619  32.615   0.535  12.381
24360W        W89620  18.807  24.149  14.362
24361W        W89621  36.955  33.618  13.916
24362W        W89622  14.325  23.316   2.450
24363W        W89623   2.405   8.892   4.872
24364W        W89624  41.747   1.934   3.225
24365W        W89625   0.759  38.135   3.406
24366W        W89626  22.180  18.247  12.394
24367W        W89627  13.369   9.727   3.668
24368W        W89628   0.993  26.930  12.272
24369W        W89629  10.227  11.869   3.011
24370W        W89630  40.781  19.591  12.063
24371W        W89631   4.727   6.268   4.499
24372W        W89632  42.425  26.974  10.676
24373W        W89633  16.210   8.792  12.544
24374W        W89634   7.694  21.285  13.854
24375W        W89635   9.379   9.684   0.261
24376W        W89636  32.960  39.553  11.277
24377W        W89637  27.684  35.976   2.752
24378W        W89638  35.554   6.228   3.214
24379W        W89639  29.364   6.885  14.868
24380W        W89640  44.407  26.134   0.211
24381W        W89641  43.768   0.791  12.777
24382W        W89642  14.393  17.994   0.979
24383W        W89643  14.722   7.382   0.853
24384W        W89644   6.818  29.596   1.915
24385W        W89645  42.019  34.152   0.337
24386W        W89646  15.571   7.652  13.092
24387W        W89647   1.889  13.545  12.125
24388W        W89648   7.419  29.699  12.563
24389W        W89649   3.328  35.127  11.715
24390W        W89650  34.159  23.556   1.660
24391W        W89651  28.590   7.638  14.056
24392W        W89652   0.393  17.722  13.621
24393W        W89653  33.051  30.237   5.739
24394W        W89654   5.782  29.159   0.616
24395W        W89655   5.856  27.461   2.175
24396W        W89656  13.627  24.270  11.847
24397W        W89657  17.171  36.516   2.315
24398W        W89658  22.747  17.155  12.846
24399W        W89659   1.944  28.554  14.763
24400W        W89660   6.780  10.140   2.282
24401W        W89661   1.255  14.626  10.979
24402W        W89662   0.919  19.513  12.237
24403W        W89663  16.860  24.959  13.401
24404W        W89664  12.643   2.665   4.071
24405W        W89665  42.273   4.482  12.537
24406W        W89666  25.309  30.802  11.645
24407W        W89667  24.417  30.717   4.043
24408W        W89668  39.631  44.987   2.289
24409W        W89669  22.753  37.331  12.018
24410W        W89670   2.416  11.065  12.881
24411W        W89671  39.109  34.035  12.085
24412W        W89672  41.558  30.086   4.303
24413W        W89673   2.493  31.390   1.822
24414W        W89674  20.047  28.911   1.800
24415W        W89675  17.807  34.692  12.274
24416W        W89676  14.475   8.599   4.069
24417W        W89677  29.978   0.898  13.552
24418W        W89678  18.802  42.888   1.152
24419W        W89679  42.433  43.295   3.397
24420W        W89680  15.104  14.565   2.679
24421W        W89681  10.813  35.339   4.505
24422W        W89682   5.751  17.769  10.602
24423W        W89683  21.689  25.498  12.002
24424W        W89684   5.275  35.880   3.601
24425W        W89685  35.579   6.710   4.082
24426W        W89686  43.406   2.670  11.508
24427W        W89687  28.662  19.643   4.926
24428W        W89688  42.471  41.569   3.178
24429W        W89689  21.611  11.786   0.401
24430W        W89690  21.232  10.175  11.095
24431W        W89691  26.236  43.327   4.204
24432W        W89692  40.740  17.093  12.883
24433W        W89693  39.235   9.948  11.280
24434W        W89694  33.193  31.193   2.762
24435W        W89695  30.799  30.705  11.652
24436W        W89696  18.154  43.242  10.821
24437W        W89697   9.182   4.280   4.109
24438W        W89698  18.704  31.491  14.509
24439W        W89699  29.247  16.526  11.572
24440W        W89700  36.600  27.508   2.664
24441W        W89701  18.757   2.243  12.408
24442W        W89702  22.247  14.450  11.396
24443W        W89703  20.871   8.653   9.943
24444W        W89704  34.466  33.383  12.938
24445W        W89705  36.156  15.178   4.239
24446W        W89706  27.498   0.406   2.821
24447W        W89707   6.246   1.444  11.038
24448W        W89708  30.961  11.778   0.167
24449W        W89709  21.238  41.375  11.389
24450W        W89710  41.014  27.143  14.844
24451W        W89711  32.448  20.141   1.879
24452W        W89712  40.494  39.011   4.150
24453W        W89713  11.842  17.270   5.170
24454W        W89714  34.229  19.644  12.879
24455W        W89715  23.828  26.633  13.453
24456W        W89716  43.316  16.315   2.819
24457W        W89717  22.501   5.405  14.406
24458W        W89718  22.429  13.181   0.306
24459W        W89719  10.804  40.356   0.640
24460W        W89720   6.222  20.811  14.080
24461W        W89721   8.868  30.649   0.005
24462W        W89722  26.237  31.719  11.483
24463W        W89723  39.744  13.267  11.684
24464W        W89724  25.084   1.245  12.047
24465W        W89725  31.816  17.735   1.043
24466W        W89726  23.041  14.541  14.882
24467W        W89727  10.431  39.026  14.886
24468W        W89728  32.599   6.761  10.735
24469W        W89729  41.181   7.372   4.791
24470W        W89730  14.328  14.326  13.634
24471W        W89731  30.691  26.016  13.863
24472W        W89732  30.620  32.946   3.170
24473W        W89733  27.613  14.227   4.370
24474W        W89734  23.037   5.409  13.905
24475W        W89735  39.041  32.024   1.961
24476W        W89736  15.106  12.093  11.663
24477W        W89737  20.528  23.277  11.131
24478W        W89738  23.230  33.482  14.475
24479W        W89739  19.339  34.592   0.254
24480W        W89740  28.471  16.734  11.781
24481W        W89741  21.673  23.993   4.403
24482W        W89742  26.017  13.359  12.883
24483W        W89743   7.246   1.357  13.528
24484W        W89744   2.593  42.310   3.075
24485W        W89745   4.432   8.284  14.120
24486W        W89746   3.019  13.286  11.142
24487W        W89747  33.332  23.368   0.015
24488W        W89748  35.929  14.690  13.977
24489W        W89749  21.112  42.680   0.256
24490W        W89750   3.947  30.088  12.543
24491W        W89751  26.294   4.282   0.804
24492W        W89752  14.684  15.212   1.676
24493W        W89753   3.503  29.537   0.106
24494W        W89754   2.335  22.246   3.979
24495W        W89755  42.442  35.486  13.827
24496W        W89756  27.214   9.803   0.732
24497W        W89757  31.386  22.819   3.216
24498W        W89758  40.270  13.403   3.746
24499W        W89759   1.076  23.208   9.891
24500W        W89760  10.156   0.897  10.744
24501W        W89761  29.580   1.743   9.520
24502W        W89762  36.360  40.525   2.150
24503W        W89763   2.663  42.833  13.416
24504W        W89764  20.048  35.980   3.728
24505W        W89765  37.755  12.108   2.452
24506W        W89766   0.426  37.113  14.361
24507W        W89767  34.444   5.237   3.147
24508W        W89768  25.972  38.570  13.025
24509W        W89769  35.574   9.090  12.916
24510W        W89770   7.876  40.825   0.430
24511W        W89771  21.152  18.597  10.521
24512W        W89772  40.917  11.230  14.831
24513W        W89773   9.618  12.473   4.522
24514W        W89774  40.717  32.263   0.243
24515W        W89775  28.111  12.714  12.958
24516W        W89776  39.385  35.056   2.447
24517W        W89777  41.344  18.237  13.314
24518W        W89778  28.043  26.742   2.410
24519W        W89779  11.271   8.247   3.057
24520W        W89780  22.602  15.346  10.488
24521W        W89781   9.791   7.899   1.883
24522W        W89782   5.892   6.706   1.264
24523W        W89783  35.854  40.823  13.516
24524W        W89784  40.170  31.599   2.956
24525W        W89785  34.130  32.995  13.007
24526W        W89786   9.542  16.650   2.259
24527W        W89787  36.893  39.489   4.412
24528W        W89788  40.480   4.398  14.270
24529W        W89789  12.443  37.303  11.256
24530W        W89790  26.991   0.746   1.353
24531W        W89791  16.009  17.346  10.919
24532W        W89792  38.511   3.967  12.478
24533W        W89793  34.601   1.403  14.472
24534W        W89794  30.534  29.398  11.529
24535W        W89795  42.489  35.924   2.730
24536W        W89796  41.837  31.372   2.015
24537W        W89797  32.595  14.154  11.679
24538W        W89798  11.021  38.457   2.840
24539W        W89799  29.191  39.890  11.358
24540W        W89800  32.704  18.682   0.783
24541W        W89801  11.875  15.669  12.351
24542W        W89802   1.890  18.160   2.167
24543W        W89803  40.140   1.846   3.351
24544W        W89804  26.882  40.356  11.593
24545W        W89805  35.081  35.666   2.183
24546W        W89806  36.112  35.901  10.701
24547W        W89807  25.395  35.758   0.850
24548W        W89808  20.843  42.177  11.474
24549W        W89809   3.375  15.257  10.502
24550W        W89810  32.617  23.682  13.790
24551W        W89811  17.341  23.449  11.091
24552W        W89812   5.934  30.520  11.107
24553W        W89813  32.560  30.619  14.345
24554W        W89814  12.093  35.812  10.958
24555W        W89815  13.404  18.155  12.531
24556W        W89816   8.052  34.880   4.118
24557W        W89817   1.270  35.936  14.836
24558W        W89818  41.925  21.550  12.129
24559W        W89819  12.845  42.035   4.674
24560W        W89820  31.869   6.423  11.221
24561W        W89821   8.214  41.127   2.351
24562W        W89822   7.600  15.008  12.398
24563W        W89823  39.331   6.391   0.237
24564W        W89824  38.892  10.448   0.364
24565W        W89825   8.905  41.878  12.772
24566W        W89826  15.500   6.026   4.240
24567W        W89827  38.343   9.760  11.442
24568W        W89828  29.448   1.029  11.923
24569W        W89829  14.668  11.491  14.477
24570W        W89830  25.063  31.801  13.214
24571W        W89831  10.432   4.569   1.819
24572W        W89832  30.491  15.832   4.122
24573W        W89833  29.516  28.648  12.572
24574W        W89834  17.282  20.189   2.898
24575W        W89835  24.666  10.565   3.744
24576W        W89836  37.949  28.027  10.741
24577W        W89837  11.847   0.843   1.761
24578W        W89838  28.745  30.008  11.178
24579W        W89839   6.868  33.022   1.891
24580W        W89840  14.385   7.904  11.098
24581W        W89841  34.401   6.734   0.786
24582W        W89842  26.737  34.533   3.118
24583W        W89843   0.231  20.778  13.071
24584W        W89844  35.151  31.561  13.997
24585W        W89845   3.969  25.934   3.079
24586W        W89846  36.735  35.028   3.402
24587W        W89847   1.839  26.084   0.960
24588W        W89848  13.318  39.621  12.564
24589W        W89849   1.291  36.078  10.962
24590W        W89850   2.698  24.196  12.838
24591W        W89851  17.628  25.720   0.936
24592W        W89852   9.779  10.558   3.343
24593W        W89853  15.768  17.341  12.691
24594W        W89854  32.669   4.917  10.490
24595W        W89855  30.398  39.099  13.014
24596W        W89856  14.323  29.088   0.881
24597W        W89857  24.413  17.236   0.789
24598W        W89858  24.508  22.160  10.737
24599W        W89859  37.812  27.131   1.747
24600W        W89860  37.996  25.159   1.244
24601W        W89861  17.995  14.744   3.783
24602W        W89862  43.469  31.633   1.745
24603W        W89863  24.476  36.582  12.192
24604W        W89864  26.480  33.071  13.777
24605W        W89865  14.859   8.877   3.238
24606W        W89866  27.793   5.782  14.294
24607W        W89867   3.175  15.342   2.262
24608W        W89868  42.867  29.485   1.307
24609W        W89869   2.228  10.101   3.682
24610W        W89870   8.665  17.632  14.820
24611W        W89871   7.170  15.240   4.044
24612W        W89872  32.459  20.155  14.325
24613W        W89873  26.248   0.903  14.499
24614W        W89874  20.186  28.682  14.033
24615W        W89875  24.045  27.178  12.608
24616W        W89876  38.356  41.495   1.193
24617W        W89877  17.537   7.260   2.926
24618W        W89878  41.315  33.884   1.465
24619W        W89879  11.145  17.324   0.006
24620W        W89880   2.735  23.788  13.937
24621W        W89881  14.751   0.492   3.830
24622W        W89882  15.227  27.260  12.038
24623W        W89883  14.033   5.717   4.066
24624W        W89884  40.854  11.796   0.578
24625W        W89885  25.683  38.786  12.347
24626W        W89886   5.757   4.377   0.087
24627W        W89887   5.689   3.675  13.478
24628W        W89888  15.731  23.757   3.594
24629W        W89889  44.333   9.904   3.321
24630W        W89890  27.392   1.343   0.396
24631W        W89891   1.741   8.724   3.643
24632W        W89892  26.511   5.717  13.924
24633W        W89893  29.144  31.044   1.325
24634W        W89894  37.829  18.539  12.078
24635W        W89895  37.541  41.724  12.416
24636W        W89896   0.651   0.918   1.128
24637W        W89897  23.169  43.487  14.549
24638W        W89898  38.478  37.364   4.722
24639W        W89899  24.967  19.903  12.202
24640W        W89900  24.606  42.682  13.439
24641W        W89901  17.249  22.918  11.216
24642W        W89902  25.532  44.613  13.387
24643W        W89903  16.300   2.963  14.655
24644W        W89904  41.250  20.479   0.413
24645W        W89905  39.951  26.504  14.866
24646W        W89906  32.210  21.483  13.999
24647W        W89907  40.461  15.358  13.974
24648W        W89908  43.995  37.111  13.390
24649W        W89909  37.304  39.096  12.765
24650W        W89910   5.915  27.574  13.705
24651W        W89911   8.920   0.817  13.345
24652W        W89912   9.161  24.524  10.715
24653W        W89913  24.480  38.646  13.076
24654W        W89914  36.590   2.473   1.378
24655W        W89915  14.639  20.445   2.861
24656W        W89916  26.390  40.777  13.817
24657W        W89917  23.203  17.113   0.815
24658W        W89918  35.124  29.231  11.596
24659W        W89919   3.788  35.274  13.882
24660W        W89920  11.105   6.834   2.739
24661W        W89921   1.820  14.762   4.054
24662W        W89922  24.851  36.648   3.300
24663W        W89923  35.446   9.466   3.677
24664W        W89924  31.571  27.474  13.359
24665W        W89925  43.836  30.937  11.940
24666W        W89926  27.559  24.572  14.341
24667W        W89927  27.999  11.835  12.956
24668W        W89928   1.765  38.294   0.376
24669W        W89929  37.954  32.016  11.682
24670W        W89930  44.524   5.703   4.894
24671W        W89931  30.405  37.012  14.216
24672W        W89932  36.963  35.537   1.750
24673W        W89933  22.992  44.313   2.222
24674W        W89934   5.301  35.093   2.344
24675W        W89935   4.806  14.360   4.699
24676W        W89936  10.685  23.620  13.562
24677W        W89937   7.158  20.337  10.662
24678W        W89938  19.562   8.220   0.487
24679W        W89939  16.892  21.185  14.444
24680W        W89940  42.816  44.995  12.634
24681W        W89941   7.475  13.094   3.535
24682W        W89942  35.051   1.031  14.934
24683W        W89943  11.827  25.137  14.133
24684W        W89944  34.606  30.974  14.440
24685W        W89945  26.171  28.851   2.414
24686W        W89946  40.730   3.708   2.756
24687W        W89947   7.958  15.613   2.364
24688W        W89948  13.856  32.913   0.056
24689W        W89949  39.092  42.883   0.331
24690W        W89950  22.615  18.105  13.849
24691W        W89951  38.764  11.723   3.610
24692W        W89952   0.233   3.966  10.958
24693W        W89953   7.937  25.594   2.775
24694W        W89954  28.137  29.958   0.024
24695W        W89955  33.886  32.128  14.230
24696W        W89956  26.680  16.672  14.021
24697W        W89957  27.446  26.393  14.778
24698W        W89958  42.858  25.358  10.974
24699W        W89959  33.872  19.989  11.240
24700W        W89960   1.295  22.471   3.711
24701W        W89961   7.831   5.703   4.345
24702W        W89962  39.478  31.346   0.395
24703W        W89963  25.460   8.536  14.504
24704W        W89964  37.765  38.062   4.614
24705W        W89965  35.507  37.792   0.535
24706W        W89966  41.276  17.743  12.589
24707W        W89967   4.947  44.018   4.183
24708W        W89968   7.295  42.008   2.031
24709W        W89969  11.842  44.540  13.891
24710W        W89970  30.068  25.162  11.527
24711W        W89971  28.244   9.086  11.640
24712W        W89972  15.640  16.524  12.888
24713W        W89973  28.340   6.198  13.804
24714W        W89974  14.134  23.645   1.653
24715W        W89975  22.998   6.729   2.693
24716W        W89976   3.023   3.933  14.528
24717W        W89977  12.708  40.619   3.362
24718W        W89978   0.245  15.710  11.595
24719W        W89979  10.242  40.081   0.473
24720W        W89980  21.610  42.352  14.595
24721W        W89981  25.961   9.921  13.886
24722W        W89982   7.649   7.348  12.410
24723W        W89983  35.003  11.279  13.454
24724W        W89984   8.877  41.554   1.912
24725W        W89985   1.774  10.899   1.893
24726W        W89986  12.057  34.030   2.236
24727W        W89987  19.346   2.268  11.120
24728W        W89988  33.936   8.846   2.683
24729W        W89989  14.305  41.950   2.243
24730W        W89990  24.849  43.627   0.378
24731W        W89991  26.550  42.286  13.801
24732W        W89992  16.539  22.515  14.529
24733W        W89993  40.758  33.342  10.647
24734W        W89994  18.239  15.188  11.121
24735W        W89995   1.802  36.253  10.734
24736W        W89996  14.158  11.763   4.753
24737W        W89997  14.070  31.458   1.397
24738W        W89998  10.893  43.707  12.584
24739W        W89999  11.239   3.336  14.878
24740W        W90000  14.660   4.684  14.924
24741W        W90001  16.229  43.871  13.334
24742W        W90002   2.986  35.495   0.761
24743W        W90003  19.142   9.686   3.192
24744W        W90004  31.665  36.842   2.874
24745W        W90005  26.684  35.479  12.915
24746W        W90006  21.219  22.548   2.802
24747W        W90007  38.057  26.126  11.880
24748W        W90008  11.820  29.430   4.508
24749W        W90009  21.842   1.216  11.188
24750W        W90010  34.910  40.943   4.075
24751W        W90011   2.170  30.135  12.202
24752W        W90012  42.197  21.502  13.491
24753W        W90013  35.066  29.699  12.018
24754W        W90014  20.623  36.938   0.014
24755W        W90015  40.342  11.736   3.688
24756W        W90016  34.305   1.887   0.387
24757W        W90017   9.198  12.041   0.511
24758W        W90018  39.802  12.598   2.766
24759W        W90019  30.458   3.865  10.785
24760W        W90020  24.749  23.603   3.237
24761W        W90021  32.394  20.731  13.119
24762W        W90022  43.655   7.564  11.139
24763W        W90023  15.733  14.135  14.236
24764W        W90024   8.656  10.499  12.350
24765W        W90025  32.841  12.033  11.176
24766W        W90026  24.219  32.582   4.537
24767W        W90027  44.882  17.233  10.683
24768W        W90028  32.076   3.695  13.968
24769W        W90029   6.599  36.353   4.914
24770W        W90030  13.611  18.965  12.689
24771W        W90031  30.940   5.266   4.775
24772W        W90032  25.960   8.282   3.674
24773W        W90033  26.477  22.938   2.828
24774W        W90034   6.768  20.142   2.166
24775W        W90035   0.457  14.286   4.173
24776W        W90036   7.482  38.528  14.471
24777W        W90037  16.506  32.590  14.791
24778W        W90038  41.864  12.079   3.538
24779W        W90039  15.728  15.694   3.534
24780W        W90040  14.635   8.976   1.724
24781W        W90041   9.151  34.445  11.197
24782W        W90042   6.262  17.853  12.505
24783W        W90043  35.896  16.291   2.204
24784W        W90044  41.875  39.507  13.909
24785W        W90045  34.933  22.122   3.361
24786W        W90046  37.895   0.663   3.389
24787W        W90047  31.979  28.163   3.322
24788W        W90048   3.206   4.856   0.372
24789W        W90049   9.808   9.191   4.660
24790W        W90050  16.612  17.732  12.374
24791W        W90051  41.322  16.836  13.365
24792W        W90052  37.655  25.768   3.167
24793W        W90053  25.148   3.758  12.911
24794W        W90054  21.969  34.718   4.136
24795W        W90055  22.237  32.125  13.359
24796W        W90056  16.686   6.141   3.089
24797W        W90057  37.400  24.020   4.567
24798W        W90058  32.874  32.786  12.251
24799W        W90059  14.777  18.256   3.856
24800W        W90060  31.497  31.886   3.774
24801W        W90061   9.541  20.528  14.342
24802W        W90062   5.459  23.229   3.093
24803W        W90063  42.857   7.125  12.566
24804W        W90064  12.897  24.879   1.407
24805W        W90065   2.751  43.997   3.691
24806W        W90066  20.172  26.628  11.152
24807W        W90067  38.104   5.057   3.369
24808W        W90068   8.249  13.083   1.366
24809W        W90069   4.764  40.210  10.240
24810W        W90070  22.028  13.879   4.653
24811W        W90071   7.523   1.081  12.308
24812W        W90072  34.845   3.164  14.804
24813W        W90073  38.378  22.008   3.176
24814W        W90074   5.946   6.752  12.077
24815W        W90075   9.059  41.742   1.374
24816W        W90076  24.603   6.198  12.565
24817W        W90077  21.092  31.407   0.220
24818W        W90078  32.934   0.551   3.961
24819W        W90079   2.277  43.701  12.948
24820W        W90080  42.958  40.884   4.055
24821W        W90081  38.558  42.828  14.045
24822W        W90082  35.977  42.853  11.246
24823W        W90083  14.638  31.995  11.757
24824W        W90084  16.053  32.443  13.759
24825W        W90085   6.383  41.795   4.327
24826W        W90086  24.683  26.217  11.577
24827W        W90087  40.277  10.591   1.329
24828W        W90088   1.561  38.807   4.863
24829W        W90089  10.374  27.676  13.108
24830W        W90090   6.924  18.732   2.925
24831W        W90091  12.271  26.675  13.765
24832W        W90092   7.856  36.967  13.518
24833W        W90093  37.906  35.151   1.322
24834W        W90094  36.857  35.420   3.130
24835W        W90095  23.673  27.068  11.214
24836W        W90096  35.423  39.942  13.423
24837W        W90097  26.127  23.771  13.070
24838W        W90098  35.280  14.557  13.611
24839W        W90099  14.958  25.080   1.856
24840W        W90100  26.911  44.299  10.042
24841W        W90101  15.719   5.956  10.447
24842W        W90102  22.473  38.169  11.669
24843W        W90103  20.264  34.375  13.898
24844W        W90104  10.175  42.090   3.721
24845W        W90105  22.853   5.182   3.645
24846W        W90106   3.085  33.957   2.479
24847W        W90107   0.831  18.110   2.375
24848W        W90108   6.955  25.651   0.925
24849W        W90109  32.610  34.603  12.488
24850W        W90110  12.765  34.949  14.834
24851W        W90111  20.536  25.422  12.089
24852W        W90112   6.164   1.027  12.854
24853W        W90113  17.133  34.918   2.815
24854W        W90114  14.255  29.713   4.797
24855W        W90115  31.796   9.000  10.696
24856W        W90116  27.489  18.078   3.348
24857W        W90117  18.603  38.486   4.121
24858W        W90118  40.058   7.382  14.805
24859W        W90119  26.532  44.208   0.733
24860W        W90120  27.412   8.848  11.081
24861W        W90121  16.394  37.966   4.844
24862W        W90122  10.935  34.470  11.434
24863W        W90123  20.055   2.358   0.854
24864W        W90124  20.355  35.002   3.700
24865W        W90125  35.424  14.839  11.623
24866W        W90126  16.696  38.339   0.417
24867W        W90127  29.140  19.733   3.624
24868W        W90128  26.083  43.432   0.802
24869W        W90129  35.157  41.363  14.415
24870W        W90130  18.052   1.644   4.159
24871W        W90131   4.849   3.045  11.917
24872W        W90132  11.753  25.735   3.536
24873W        W90133  43.815  40.607  11.606
24874W        W90134   5.777  14.594  12.962
24875W        W90135  20.471  13.162  11.743
24876W        W90136   7.695   3.242  14.267
24877W        W90137  19.050  18.183   0.981
24878W        W90138  31.081  29.078  13.070
24879W        W90139  39.351  39.542   1.234
24880W        W90140  33.987  36.570   2.297
24881W        W90141   8.672   4.994   2.864
24882W        W90142  29.213  20.268  14.514
24883W        W90143   6.890  20.157   3.163
24884W        W90144  11.694  25.971   3.087
24885W        W90145  26.601  43.812  14.856
24886W        W90146   5.991  29.859  13.418
24887W        W90147  27.557  32.753  11.107
24888W        W90148   2.863  24.127   1.126
24889W        W90149  43.011  30.910   1.714
24890W        W90150  39.269  29.204  12.979
24891W        W90151  36.595  34.008   4.025
24892W        W90152  39.979  42.605   1.733
24893W        W90153   8.371   6.207  14.358
24894W        W90154  13.037  25.944   1.193
24895W        W90155  20.212  24.036  10.799
24896W        W90156  33.143  15.270   0.046
24897W        W90157  20.065  11.752   2.833
24898W        W90158  11.260  35.888   3.428
24899W        W90159   0.093  39.031   0.436
24900W        W90160   3.782  16.861  14.265
24901W        W90161  11.027  13.481  13.816
24902W        W90162  24.587  33.259   1.688
24903W        W90163  11.666   8.457   2.274
24904W        W90164  44.000  23.156   0.042
24905W        W90165  23.108   5.198   3.198
24906W        W90166  41.460   5.502   0.362
24907W        W90167  43.970  39.026   0.734
24908W        W90168   9.780  28.364  13.027
24909W        W90169  43.019  44.077  12.909
24910W        W90170  41.385  39.317   3.637
24911W        W90171  21.593  27.696   2.689
24912W        W90172  10.206  42.524  12.503
24913W        W90173   4.801  38.933  14.350
24914W        W90174   0.427  25.747   2.774
24915W        W90175  18.222  35.042   2.362
24916W        W90176  32.042   9.173   4.224
24917W        W90177  20.518   7.620  11.110
24918W        W90178  25.955  39.484   3.309
24919W        W90179  40.780  20.302   4.191
24920W        W90180  22.777  43.414   2.324
24921W        W90181  44.361  16.022   3.315
24922W        W90182  36.957  42.890   2.069
24923W        W90183  15.157  33.562  12.924
24924W        W90184  24.368  15.210  14.667
24925W        W90185   3.447  29.491  11.027
24926W        W90186  26.978  22.580   3.708
24927W        W90187  38.085  13.796  11.718
24928W        W90188   0.161  16.767   4.687
24929W        W90189  40.308  36.451   2.274
24930W        W90190  15.700  28.577  14.335
24931W        W90191  21.649  19.244   0.850
24932W        W90192  14.834  36.791   3.842
24933W        W90193   4.194  10.147   2.288
24934W        W90194   6.253  26.169   2.140
24935W        W90195   5.863  41.013  14.848
24936W        W90196  13.900   6.187  12.570
24937W        W90197   7.053  40.289  13.416
24938W        W90198   3.651  32.443   1.445
24939W        W90199  13.217   1.476  11.165
24940W        W90200  27.213  22.879   4.081
24941W        W90201   3.129  39.817   3.340
24942W        W90202   1.993   2.917   3.752
24943W        W90203   9.383  21.499  13.508
24944W        W90204  17.322  20.907  14.323
24945W        W90205  38.413  10.410   3.695
24946W        W90206  23.541   7.861  11.677
24947W        W90207   6.670  25.391   1.315
24948W        W90208  10.416   7.327   1.771
24949W        W90209  34.429  28.198   4.401
24950W        W90210  15.964  21.168  14.259
24951W        W90211  36.312  13.616   3.205
24952W        W90212   0.781  18.211  14.962
24953W        W90213  21.668  17.456   3.853
24954W        W90214  28.699  28.380  11.608
24955W        W90215  25.546  39.441  10.100
24956W        W90216  37.574  12.099  12.157
24957W        W90217  18.759  32.029   2.365
24958W        W90218   3.075  12.210  13.775
24959W        W90219  33.255  33.757   4.916
24960W        W90220   3.742  18.251  12.102
24961W        W90221   0.026  37.254   1.328
24962W        W90222  12.160  24.856  11.752
24963W        W90223  14.656  21.285  10.961
24964W        W90224  29.671  17.808   2.820
24965W        W90225  16.201   4.864  10.667
24966W        W90226  34.626  10.838  13.358
24967W        W90227  31.715  20.277  14.677
24968W        W90228  10.290   0.059   3.921
24969W        W90229  31.016  18.068   2.631
24970W        W90230  33.984   4.954  12.094
24971W        W90231  36.785   7.065  11.471
24972W        W90232   6.536   8.309  10.522
24973W        W90233  39.075  11.642  12.176
24974W        W90234   0.795  24.440  14.309
24975W        W90235   0.804  36.773   4.627
24976W        W90236  42.828  20.076  12.376
24977W        W90237  12.250  40.955  10.591
24978W        W90238   6.627  11.797  13.028
24979W        W90239  44.728  32.863   0.988
24980W        W90240  30.634  38.594   3.131
24981W        W90241  36.113   1.645   0.090
24982W        W90242  19.584  33.848  14.730
24983W        W90243  24.940  28.489  13.866
24984W        W90244  25.750  17.076  12.528
24985W        W90245  44.441  42.298   3.375
24986W        W90246   8.209  19.902  11.167
24987W        W90247  39.886  10.135   0.006
24988W        W90248   7.191  14.605   1.319
24989W        W90249  15.622  34.909  13.909
24990W        W90250  17.969  17.239   1.649
24991W        W90251  20.140  32.381   4.209
24992W        W90252  43.464   0.750  13.612
24993W        W90253   3.661  30.172  10.783
24994W        W90254  24.076   5.606   2.406
24995W        W90255   3.305  37.291   0.801
24996W        W90256  44.466  33.044  12.854
24997W        W90257  26.172  12.694   2.612
24998W        W90258  16.332  39.857  14.006
24999W        W90259  43.642  26.403  12.794
25000W        W90260  44.522   0.494   3.766
25001W        W90261  11.118  21.700   0.843
25002W        W90262  24.134  25.485   3.585
25003W        W90263   5.205  38.917  13.990
25004W        W90264  34.095  34.703   2.298
25005W        W90265  24.955  43.791   3.883
25006W        W90266  28.827  41.578   3.450
25007W        W90267  34.308  23.671   3.297
25008W        W90268  43.305   6.860  12.440
25009W        W90269  13.814   0.748   1.864
25010W        W90270  16.651  19.096   2.637
25011W        W90271  39.055  13.802   2.030
25012W        W90272  25.795  29.944   1.707
25013W        W90273  10.706  16.246  12.507
25014W        W90274  13.146   1.237  12.468
25015W        W90275   7.835  40.587   4.192
25016W        W90276  34.839  17.633  11.540
25017W        W90277  22.094  24.392   3.408
25018W        W90278  11.325  14.133  11.942
25019W        W90279  36.679  24.125  14.490
25020W        W90280  38.687   8.820  12.983
25021W        W90281  30.023   5.339  10.706
25022W        W90282   1.248  16.188   0.945
25023W        W90283  43.521  30.300   1.235
25024W        W90284   0.008  23.643  13.058
25025W        W90285  10.373  20.765  14.329
25026W        W90286   7.006  33.691  12.451
25027W        W90287  36.047  41.187  13.212
25028W        W90288   9.613  10.730  12.135
25029W        W90289  43.891  11.816  11.967
25030W        W90290  27.914   6.499   1.042
25031W        W90291  17.352   4.626  12.490
25032W        W90292  15.863  22.078   1.234
25033W        W90293  37.533  25.966   0.428
25034W        W90294  32.146   2.516   4.067
25035W        W90295  41.342   0.304  13.044
25036W        W90296   2.937   7.820   0.912
25037W        W90297  33.068   8.225  14.432
25038W        W90298  15.598  11.189   3.415
25039W        W90299  33.165   2.300  12.378
25040W        W90300  31.388  31.873   1.750
25041W        W90301  31.926  28.140  10.241
25042W        W90302   4.987  18.491  13.903
25043W        W90303  22.112  27.978  12.592
25044W        W90304  40.072  29.871  13.517
25045W        W90305   3.045   8.789  12.059
25046W        W90306  14.190  43.426  10.675
25047W        W90307  14.627   2.745   3.283
25048W        W90308  26.522  30.141  14.028
25049W        W90309  34.818  20.401  11.893
25050W        W90310  42.319   3.225   3.255
25051W        W90311  37.885   2.461   5.089
25052W        W90312  35.267  42.030   2.326
25053W        W90313  31.424  40.054   3.872
25054W        W90314  13.031   6.137  13.220
25055W        W90315   8.874  43.405   1.232
25056W        W90316  40.900  26.692  11.946
25057W        W90317   5.124  38.912  10.820
25058W        W90318  10.753  41.855   1.785
25059W        W90319  25.740  16.034   3.612
25060W        W90320  44.387  34.971  10.552
25061W        W90321  35.663   1.471   0.329
25062W        W90322  44.967  19.759   1.265
25063W        W90323  11.913  10.212  11.524
25064W        W90324  10.744  28.153   4.859
25065W        W90325   0.136   9.281   0.448
25066W        W90326  43.750  25.435   0.250
25067W        W90327  40.825  44.216   1.765
25068W        W90328  27.107   0.808   4.277
25069W        W90329  42.990  25.356  14.180
25070W        W90330  14.841   8.632   1.310
25071W        W90331  11.328  18.135   0.269
25072W        W90332  11.844   9.759   4.679
25073W        W90333  18.944  20.447   1.343
25074W        W90334   3.480  19.207   3.757
25075W        W90335   6.369  28.599   9.767
25076W        W90336   3.269  15.078   1.828
25077W        W90337   0.923  22.565   4.980
25078W        W90338  29.044   9.260   4.125
25079W        W90339   0.907  41.127  11.184
25080W        W90340  36.581  39.894   4.437
25081W        W90341   0.824   4.513   2.312
25082W        W90342  13.530  16.609   0.877
25083W        W90343  39.237  40.648   2.787
25084W        W90344   2.596  41.310   2.689
25085W        W90345  23.035   2.706   4.133
25086W        W90346  16.556   3.205  11.230
25087W        W90347   0.341  37.465   4.472
25088W        W90348   6.373  17.262  10.079
25089W        W90349  28.432  26.412   9.847
25090W        W90350  32.823  14.127   1.424
25091W        W90351  20.174  25.741  11.857
25092W        W90352   5.756  35.677  10.546
25093W        W90353   8.642  15.880   3.271
25094W        W90354  26.708  24.676  11.267
25095W        W90355   6.900  26.302  14.517
25096W        W90356   7.021  25.015   1.334
25097W        W90357  24.070   2.182  12.807
25098W        W90358  19.322  28.235   2.854
25099W        W90359   3.356  23.182   0.031
25100W        W90360  11.888   3.686   2.353
25101W        W90361   5.449   8.368  12.086
25102W        W90362   5.809  30.202  12.062
25103W        W90363  12.354  29.468   4.215
25104W        W90364  17.704  37.794   3.989
25105W        W90365  14.124  40.109   1.881
25106W        W90366  10.690  21.177  14.310
25107W        W90367   5.961  11.275   2.694
25108W        W90368   0.794  10.896  13.859
25109W        W90369  38.086  36.572   3.657
25110W        W90370  22.390  35.039   0.221
25111W        W90371   6.607  23.055   3.583
25112W        W90372  30.610  18.159   4.929
25113W        W90373   1.576  41.357  14.522
25114W        W90374  37.536  40.175  10.684
25115W        W90375  24.005  33.948   3.171
25116W        W90376  41.499   8.636   1.302
25117W        W90377  20.461   7.412   1.373
25118W        W90378  28.945   1.455   4.642
25119W        W90379   8.810  23.963   0.386
25120W        W90380   0.561  28.112  12.814
25121W        W90381  25.472  31.276  14.845
25122W        W90382  33.142  41.790  14.872
25123W        W90383  25.251  34.063   5.478
25124W        W90384  44.824  40.428   0.780
25125W        W90385  32.631  39.596  14.723
25126W        W90386  36.261  38.311  11.096
25127W        W90387  26.319  25.300  13.798
25128W        W90388  10.325  12.596   3.439
25129W        W90389  38.464  27.840   0.407
25130W        W90390  30.192  21.018   2.874
25131W        W90391  26.117  21.703  13.036
25132W        W90392  30.718  35.549  13.034
25133W        W90393  23.488  21.574  14.981
25134W        W90394  28.201   9.402   1.232
25135W        W90395  33.584   7.376  12.155
25136W        W90396   6.245  34.983  11.522
25137W        W90397  13.104  36.195  13.141
25138W        W90398  27.494  23.674  12.173
25139W        W90399   0.050  23.231   5.672
25140W        W90400  42.805   8.291   0.875
25141W        W90401  42.487   7.519  11.165
25142W        W90402  21.126  17.078  10.183
25143W        W90403  18.053  39.823   4.639
25144W        W90404  32.263  27.132  11.282
25145W        W90405   3.340  42.247  13.423
25146W        W90406  24.100  18.731  14.371
25147W        W90407  27.181  32.851   3.561
25148W        W90408  32.959  44.516  13.053
25149W        W90409  24.184   0.311  12.069
25150W        W90410  18.114  11.463   1.329
25151W        W90411  29.661  31.727  14.027
25152W        W90412  36.828  22.805  11.608
25153W        W90413  41.689  29.638   0.176
25154W        W90414   4.803  14.345   1.878
25155W        W90415  16.836  17.201   0.026
25156W        W90416  32.329  37.904  12.552
25157W        W90417  44.176  23.779  12.941
25158W        W90418  32.480   5.024   2.409
25159W        W90419   9.997  18.629  12.445
25160W        W90420   3.559  24.394  11.168
25161W        W90421  22.648  23.273   2.811
25162W        W90422   3.878  37.138   4.409
25163W        W90423  31.407   9.392  14.546
25164W        W90424  39.308  30.177  11.568
25165W        W90425  22.098  28.608   1.210
25166W        W90426  21.857  42.050  12.071
25167W        W90427  44.540   1.681   3.450
25168W        W90428   3.702   2.967  14.832
25169W        W90429  22.271  43.750  11.069
25170W        W90430  11.561  10.669  14.516
25171W        W90431  35.117  26.916  11.181
25172W        W90432  32.399  12.594   2.134
25173W        W90433  40.612  38.299   0.677
25174W        W90434   2.814  31.712  13.680
25175W        W90435  12.301  26.505   3.344
25176W        W90436  13.725  38.862   0.788
25177W        W90437   5.199   5.413   1.268
25178W        W90438  30.940   8.227   1.856
25179W        W90439  36.346  16.346   4.598
25180W        W90440  38.901  40.311  10.573
25181W        W90441  28.984  12.287  11.228
25182W        W90442  13.720  30.041  13.057
25183W        W90443  41.156  23.772   1.252
25184W        W90444  29.178  25.627  12.956
25185W        W90445  33.149  20.285   3.646
25186W        W90446   8.256  14.871  12.591
25187W        W90447   7.205  13.938   3.289
25188W        W90448   0.044  34.943   0.770
25189W        W90449  41.154   2.931  13.828
25190W        W90450  31.688   1.356   1.432
25191W        W90451  14.129  18.503   4.157
25192W        W90452  27.234   5.315  11.464
25193W        W90453  21.742  41.207   0.922
25194W        W90454  32.333  35.315  11.844
25195W        W90455  24.997   9.805   0.711
25196W        W90456  31.106  38.833  13.946
25197W        W90457   9.317  28.570   4.566
25198W        W90458  15.073  15.311  14.385
25199W        W90459  13.616  42.222  14.654
25200W        W90460   3.954   7.464  11.525
25201W        W90461   5.698  42.039  10.536
25202W        W90462   4.869  31.767  11.917
25203W        W90463  18.809   4.052  14.470
25204W        W90464  11.217   0.477  11.171
25205W        W90465  28.126   1.032  11.179
25206W        W90466  15.648  42.367  13.549
25207W        W90467  36.473   7.710  13.479
25208W        W90468  29.845   2.878  14.076
25209W        W90469  24.057  11.628  13.875
25210W        W90470   5.731  12.766  14.803
25211W        W90471  42.312  20.764   2.702
25212W        W90472  38.563  44.849   1.257
25213W        W90473  13.721  23.999   2.668
25214W        W90474  36.320  40.919  14.400
25215W        W90475  28.066  42.523  14.261
25216W        W90476   2.329  41.249   0.201
25217W        W90477   6.663   5.305   4.727
25218W        W90478  41.293  33.626   3.721
25219W        W90479  38.158  43.296  13.352
25220W        W90480  12.903  35.533   4.096
25221W        W90481   5.181  11.198   1.388
25222W        W90482   2.196  15.743  12.608
25223W        W90483  39.521  20.059   3.327
25224W        W90484  37.915  42.400   3.442
25225W        W90485   4.894  29.645   4.488
25226W        W90486  34.944   7.215   3.545
25227W        W90487  27.885  21.535  14.305
25228W        W90488   3.784  19.458   5.363
25229W        W90489  23.398   8.100   1.749
25230W        W90490  39.375   3.478   3.795
25231W        W90491   0.400  39.319  11.452
25232W        W90492  26.399   0.165  10.628
25233W        W90493   2.882  13.177   5.152
25234W        W90494  23.334  19.172  14.820
25235W        W90495   5.885  18.809   4.333
25236W        W90496   2.873   9.212  14.247
25237W        W90497  34.528  30.466  12.102
25238W        W90498  14.440  16.671   0.985
25239W        W90499  42.917  18.554  13.764
25240W        W90500  23.544   8.720  14.467
25241W        W90501  39.750  33.397  12.568
25242W        W90502  27.089  10.284  13.985
25243W        W90503  35.324  35.077   1.261
25244W        W90504   1.715  16.168   4.119
25245W        W90505  13.128  40.600  12.232
25246W        W90506  25.829  15.704  11.374
25247W        W90507  37.300  43.214   3.229
25248W        W90508  32.937  20.511  11.976
25249W        W90509  29.133  26.750  11.151
25250W        W90510  19.561  18.308   0.828
25251W        W90511  37.332  39.556   4.647
25252W        W90512   3.480  13.166  13.912
25253W        W90513   5.534  30.405   2.553
25254W        W90514   7.891  27.414  11.651
25255W        W90515  31.640  19.254  10.814
25256W        W90516   8.052  13.440   2.810
25257W        W90517   2.851  13.644   4.965
25258W        W90518  42.226  12.059  12.019
25259W        W90519  27.596  19.140  14.978
25260W        W90520  18.654  44.720  12.002
25261W        W90521  43.869  14.256  13.561
25262W        W90522  34.768  43.113  11.504
25263W        W90523  21.265  11.435  13.972
25264W        W90524   1.290  27.018  14.096
25265W        W90525  33.212  30.514   0.795
25266W        W90526  16.232  26.157   1.183
25267W        W90527  16.304   6.250  14.601
25268W        W90528  34.881  14.028   0.158
25269W        W90529   7.179  19.535   1.197
25270W        W90530  25.084  19.648   2.747
25271W        W90531  30.961   0.284   3.665
25272W        W90532  15.050  39.400  13.424
25273W        W90533  23.024  28.728  11.894
25274W        W90534  27.718  44.751  10.730
25275W        W90535   3.935  32.873  11.634
25276W        W90536  31.790   8.882   2.625
25277W        W90537  40.998  17.604   0.012
25278W        W90538  36.484   9.364  13.306
25279W        W90539  16.798  10.566   3.382
25280W        W90540  41.904  11.100   2.084
25281W        W90541  36.389   3.773  14.373
25282W        W90542   2.671  35.363  12.002
25283W        W90543   1.480  12.185  12.811
25284W        W90544  43.771  24.561  12.920
25285W        W90545   8.317  35.160  13.957
25286W        W90546  36.411  37.331  11.741
25287W        W90547  26.999   2.776   0.172
25288W        W90548   3.852  43.960   4.154
25289W        W90549  26.868  28.737   0.990
25290W        W90550  15.670  35.941  12.171
25291W        W90551   2.663  28.683  10.307
25292W        W90552  38.574   9.905   3.386
25293W        W90553  18.337  23.785   3.810
25294W        W90554  23.604  10.293  13.867
25295W        W90555  26.113  17.151   0.835
25296W        W90556   3.655  12.292   3.250
25297W        W90557  22.230  42.541   1.817
25298W        W90558   8.895  23.296   0.913
25299W        W90559   5.445   9.593  11.142
25300W        W90560  33.363  37.394  12.907
25301W        W90561  14.847  37.095   1.819
25302W        W90562  39.010  34.248  12.547
25303W        W90563  36.340  31.700   4.815
25304W        W90564  40.830  44.015   4.155
25305W        W90565  26.663  34.801   5.090
25306W        W90566  44.315  34.460  11.629
25307W        W90567  27.602  27.301   0.989
25308W        W90568   4.086  39.267   1.427
25309W        W90569  32.875  39.494  12.949
25310W        W90570  36.738  22.209  12.243
25311W        W90571   7.667  31.428   4.529
25312W        W90572  30.991  43.098  10.123
25313W        W90573  43.160  17.009  13.422
25314W        W90574  42.900  21.722  11.990
25315W        W90575  15.222   6.655   5.358
25316W        W90576  13.541  17.026   2.790
25317W        W90577  38.650  43.019  12.390
25318W        W90578  11.812  35.526   3.374
25319W        W90579  24.493  22.546  13.401
25320W        W90580  14.149   3.281   4.814
25321W        W90581   0.226   4.283   2.705
25322W        W90582  31.415  24.992  11.973
25323W        W90583  20.279   8.251   4.625
25324W        W90584   7.842   5.083  13.958
25325W        W90585   8.149  21.550  14.802
25326W        W90586  31.836   2.841   4.292
25327W        W90587  22.723  10.469   4.093
25328W        W90588  11.343   6.169  11.094
25329W        W90589  38.374  27.560   4.631
25330W        W90590   9.908   7.067  12.471
25331W        W90591  33.362  40.168  10.235
25332W        W90592  32.121   6.001  11.483
25333W        W90593  18.155  27.499   1.975
25334W        W90594   8.456  33.951   1.871
25335W        W90595  37.070  13.231  13.291
25336W        W90596  42.621  42.454  10.641
25337W        W90597   6.408  15.547   5.083
25338W        W90598  20.907  12.167   2.795
25339W        W90599  25.778  37.275   2.847
25340W        W90600  17.166  28.057  12.606
25341W        W90601  20.257  30.585   3.650
25342W        W90602   3.947  27.605  12.530
25343W        W90603  32.047  29.980  13.884
25344W        W90604   4.373  27.872  13.077
25345W        W90605   9.515  24.218   4.875
25346W        W90606  34.929  42.724   4.523
25347W        W90607  43.000  44.933  12.142
25348W        W90608   8.714  27.404  14.205
25349W        W90609  15.752  37.425  11.626
25350W        W90610  38.554  37.332  12.170
25351W        W90611   6.550  31.002  13.074
25352W        W90612  30.885  27.260   4.694
25353W        W90613   1.436  36.334   1.027
25354W        W90614  30.954  32.549   4.513
25355W        W90615   8.668  21.991   3.177
25356W        W90616  42.920  10.834  13.329
25357W        W90617  27.253   5.369   3.759
25358W        W90618  27.965  21.039  14.651
25359W        W90619   1.883   2.408   1.024
25360W        W90620   1.883  37.448  11.196
25361W        W90621  23.935  10.146  13.073
25362W        W90622   1.640  36.618   3.743
25363W        W90623  31.113  12.615  12.033
25364W        W90624  21.725  23.080  13.427
25365W        W90625  42.485   3.688  13.882
25366W        W90626   7.860  44.782  10.331
25367W        W90627  23.039  18.847   2.599
25368W        W90628  37.040  22.465   2.808
25369W        W90629  15.821   5.288  14.388
25370W        W90630  21.304   9.247   0.296
25371W        W90631  21.402  34.468   2.852
25372W        W90632  34.918   5.858  12.925
25373W        W90633   4.779  19.791  14.332
25374W        W90634  27.954  13.248   4.119
25375W        W90635  17.892  19.265  11.643
25376W        W90636  15.521  35.773   9.968
25377W        W90637  39.502  27.392   0.856
25378W        W90638  31.429  22.235  13.875
25379W        W90639  23.071  34.331   4.182
25380W        W90640   4.579  18.713   0.872
25381W        W90641  10.283  26.546   1.222
25382W        W90642  40.984  43.978   2.921
25383W        W90643  26.048   2.175   3.891
25384W        W90644  27.591  22.524  12.331
25385W        W90645  20.100  25.833   1.940
25386W        W90646  27.023   2.265   2.283
25387W        W90647  37.875  37.402  11.227
25388W        W90648   7.735  12.671   4.978
25389W        W90649  25.160  24.753   4.441
25390W        W90650  42.843   6.346   2.921
25391W        W90651  24.548  35.627  13.379
25392W        W90652  27.022  25.401   0.855
25393W        W90653   6.723  30.973  11.220
25394W        W90654   9.377  11.638   4.299
25395W        W90655  31.537   3.849  10.465
25396W        W90656  26.577  30.918   2.885
25397W        W90657  18.297  37.009  12.433
25398W        W90658  43.912  18.414   0.042
25399W        W90659  43.335   5.026  11.083
25400W        W90660  33.940  25.712   1.754
25401W        W90661  33.721  36.782  10.762
25402W        W90662  30.304  43.646  13.566
25403W        W90663  30.468  26.851   4.161
25404W        W90664  16.743  44.996  13.931
25405W        W90665  22.386   2.741   4.025
25406W        W90666  27.299  22.992  12.295
25407W        W90667  31.749  38.151  14.446
25408W        W90668  44.493  42.822   1.595
25409W        W90669  40.833  16.324  10.621
25410W        W90670   4.222   1.854  11.602
25411W        W90671  12.856   2.380  13.018
25412W        W90672  34.815  12.267   2.889
25413W        W90673  14.724  11.249   1.936
25414W        W90674  30.076  18.109  11.429
25415W        W90675   0.007  26.347   1.456
25416W        W90676   1.392  33.410   3.383
25417W        W90677  20.546   6.175  11.063
25418W        W90678  22.457  24.715   0.790
25419W        W90679   8.192  41.581  14.882
25420W        W90680  35.551  11.090  14.700
25421W        W90681  15.600  12.548  14.287
25422W        W90682   9.089  37.139  12.965
25423W        W90683  41.829   2.121   0.470
25424W        W90684  20.993  10.647   2.232
25425W        W90685  13.726  11.692  14.368
25426W        W90686  11.273  32.515   0.463
25427W        W90687  33.946  41.377   4.856
25428W        W90688  26.216  31.279   2.153
25429W        W90689  34.590  36.936   0.727
25430W        W90690  16.659   5.085   1.152
25431W        W90691  25.387  37.176   4.519
25432W        W90692  40.571  37.307   2.867
25433W        W90693  28.007  23.757  10.981
25434W        W90694  21.024  32.354   4.705
25435W        W90695   1.755  37.466  14.780
25436W        W90696   9.212   8.145   4.330
25437W        W90697   7.943  37.754   3.147
25438W        W90698  15.392  40.044   2.422
25439W        W90699  29.559   4.912   1.635
25440W        W90700  23.751   6.456  11.978
25441W        W90701   1.387   2.970  14.379
25442W        W90702  44.589  14.324   0.529
25443W        W90703  27.964  32.898   3.201
25444W        W90704  12.760  32.402  12.585
25445W        W90705  31.501  37.882   3.156
25446W        W90706  15.220  12.167   0.881
25447W        W90707  23.272   6.724   2.256
25448W        W90708  28.407   3.721   0.487
25449W        W90709   8.783  41.015   1.955
25450W        W90710  14.868  10.602  12.956
25451W        W90711   1.450  23.198   3.173
25452W        W90712  43.836  39.449  13.962
25453W        W90713  30.964   0.248  14.106
25454W        W90714  15.057  12.398  14.021
25455W        W90715  35.426  28.448  13.552
25456W        W90716   0.721  13.991   1.384
25457W        W90717  17.210  44.441  12.996
25458W        W90718  43.506  39.310  11.672
25459W        W90719  23.054  36.614   3.140
25460W        W90720  20.185  26.417  13.767
25461W        W90721  19.177  43.872  13.831
25462W        W90722  25.521  30.899   1.340
25463W        W90723  40.367  27.875  13.458
25464W        W90724  16.207  27.856  13.411
25465W        W90725  40.968  21.436  11.449
25466W        W90726  44.312   2.771   1.248
25467W        W90727   8.663  36.093   2.637
25468W        W90728   3.175   2.502   1.756
25469W        W90729  15.803  16.635   2.822
25470W        W90730   0.382  42.293  13.903
25471W        W90731  10.700   8.988   4.583
25472W        W90732  21.639  16.991  10.703
25473W        W90733   7.862   5.145   2.001
25474W        W90734  40.613  11.718  12.925
25475W        W90735   8.624  15.189  13.431
25476W        W90736  16.794  41.235  12.030
25477W        W90737  33.762  36.100   2.415
25478W        W90738  16.863  32.374  10.665
25479W        W90739   7.005   0.947   4.012
25480W        W90740  10.819  38.025  14.831
25481W        W90741  33.690  34.581   1.110
25482W        W90742  12.578  40.173  14.054
25483W        W90743  20.249   0.318   2.762
25484W        W90744  37.404  35.102   0.243
25485W        W90745  31.908  43.368  12.620
25486W        W90746  21.637  38.630   2.412
25487W        W90747  27.148   5.974   0.766
25488W        W90748  18.134  20.130   1.984
25489W        W90749  22.335  14.358   3.181
25490W        W90750  28.489  40.970  11.108
25491W        W90751  43.721  25.134  11.243
25492W        W90752  40.555  15.373  12.053
25493W        W90753  44.270  29.107  12.488
25494W        W90754  35.560  38.565   0.900
25495W        W90755  14.279   1.873   4.991
25496W        W90756   9.632  38.269   1.238
25497W        W90757   8.432  42.500   0.317
25498W        W90758  41.697   7.160  10.772
25499W        W90759  29.435  20.203   2.704
25500W        W90760  32.292  21.506   2.071
25501W        W90761   8.593   0.785   2.899
25502W        W90762  18.667   0.766  12.400
25503W        W90763  33.963  26.386   5.377
25504W        W90764  25.536  31.058   4.900
25505W        W90765  33.574  37.591  14.463
25506W        W90766  30.994  27.212   5.196
25507W        W90767  38.795  32.426  10.281
25508W        W90768  44.423   5.332   2.248
25509W        W90769  33.123  31.244  11.927
25510W        W90770  11.937  44.631   1.340
25511W        W90771  36.128  20.644   4.536
25512W        W90772  30.412  30.427  11.453
25513W        W90773   6.167  29.586   3.721
25514W        W90774  24.124  27.674  13.507
25515W        W90775  40.190  13.330   0.057
25516W        W90776  19.543  33.825   1.308
25517W        W90777  17.812  35.485   0.638
25518W        W90778  43.923  11.596  14.973
25519W        W90779  31.137  16.045  13.971
25520W        W90780  13.141  31.161   3.165
25521W        W90781  37.476  21.033   4.027
25522W        W90782  17.172  39.578  14.330
25523W        W90783  33.135  23.653   1.992
25524W        W90784   1.643  43.437   4.159
25525W        W90785  26.123  37.953  10.593
25526W        W90786  27.745  40.952   2.270
25527W        W90787  13.626   1.798   1.464
25528W        W90788  20.100   8.834   3.336
25529W        W90789  14.834   7.671   3.277
25530W        W90790  44.044   3.709   3.241
25531W        W90791   8.194  40.765   3.102
25532W        W90792  32.588  28.166   5.209
25533W        W90793  44.268   9.206  14.969
25534W        W90794  38.495   2.201  13.820
25535W        W90795  21.717  27.654  14.362
25536W        W90796  21.107  43.710   3.166
25537W        W90797   9.584  35.363  14.034
25538W        W90798  37.288  44.819   2.683
25539W        W90799  15.645   1.682  14.082
25540W        W90800  33.297  26.048   2.356
25541W        W90801  41.827  10.087   0.278
25542W        W90802  24.975  28.440   1.271
25543W        W90803  24.430  34.953  14.911
25544W        W90804  14.351  41.515  12.562
25545W        W90805  18.396   1.304  10.753
25546W        W90806  43.821  16.780   0.780
25547W        W90807  36.452  41.475  12.427
25548W        W90808  30.713  26.494  12.939
25549W        W90809  18.765  22.067  13.399
25550W        W90810  37.060  23.980   3.778
25551W        W90811  34.379   3.109  10.642
25552W        W90812  10.073   6.912  11.194
25553W        W90813   2.305   8.564   0.710
25554W        W90814  35.605  15.710  11.879
25555W        W90815   7.448  42.964  10.754
25556W        W90816  39.946  29.976   2.129
25557W        W90817  30.409   8.372  14.471
25558W        W90818  38.754   6.928   0.939
25559W        W90819  26.958  11.185  11.111
25560W        W90820   3.755  11.888   0.854
25561W        W90821   9.773  44.946   3.709
25562W        W90822  40.095  28.478  10.719
25563W        W90823  20.532  30.310  10.893
25564W        W90824  24.402  38.871   0.354
25565W        W90825  39.781   3.003  11.458
25566W        W90826  14.723  25.547   3.811
25567W        W90827  33.018  12.302   4.635
25568W        W90828  38.379  10.178  10.242
25569W        W90829  34.217  39.784   3.272
25570W        W90830  12.149  32.592   0.490
25571W        W90831   0.865  34.527  12.479
25572W        W90832  33.864  30.559  13.389
25573W        W90833  37.149  21.041  11.449
25574W        W90834  28.075   8.254  13.294
25575W        W90835  14.744   7.840   9.788
25576W        W90836   1.300  24.683   0.582
25577W        W90837  40.286  31.104   1.224
25578W        W90838  28.617  40.879   0.901
25579W        W90839  42.925  17.301   0.662
25580W        W90840  37.058   6.305  13.940
25581W        W90841  37.804   0.250  14.161
25582W        W90842  11.981  43.947  11.421
25583W        W90843  35.824  22.829   3.188
25584W        W90844  38.274   8.813  12.219
25585W        W90845  44.950  16.500   0.223
25586W        W90846  14.638  41.153  13.381
25587W        W90847  25.381   5.217   0.587
25588W        W90848  37.738  18.845  12.470
25589W        W90849  16.005  29.961   3.118
25590W        W90850   9.609  17.212   3.156
25591W        W90851  37.046  25.883   0.594
25592W        W90852  23.494  42.854   2.630
25593W        W90853  20.673   1.882   0.453
25594W        W90854  43.753  25.591  12.965
25595W        W90855  23.045  42.235   3.990
25596W        W90856  12.272  37.001  11.613
25597W        W90857   6.279  14.099   0.363
25598W        W90858   8.551  18.472  11.805
25599W        W90859   3.802  39.875  12.519
25600W        W90860   6.902  25.905   3.204
25601W        W90861  42.931  41.779  12.894
25602W        W90862  42.572  14.611   2.429
25603W        W90863   8.006  41.924  12.317
25604W        W90864   4.479  27.259   0.218
25605W        W90865  34.119  33.216   3.191
25606W        W90866   9.261  10.744   0.733
25607W        W90867  21.730  15.581  11.499
25608W        W90868   6.327  32.575   4.007
25609W        W90869  27.464  33.487   1.701
25610W        W90870   6.737  31.041  13.562
25611W        W90871  28.129  42.717   0.430
25612W        W90872   3.927   4.686  12.641
25613W        W90873   1.246  14.369  13.752
25614W        W90874  38.003  35.100   2.235
25615W        W90875  37.769  19.461   1.548
25616W        W90876   5.279  32.316  12.512
25617W        W90877   7.379   9.347  14.007
25618W        W90878  30.629  33.960  11.885
25619W        W90879  12.682  39.309   1.220
25620W        W90880   8.809   0.432  14.540
25621W        W90881  10.732  25.011   3.169
25622W        W90882  16.057  15.598  13.601
25623W        W90883  41.130   0.358  10.369
25624W        W90884   5.888  33.426  10.987
25625W        W90885  29.953  42.253   4.503
25626W        W90886  19.857  29.179  14.868
25627W        W90887  14.662  39.141   3.653
25628W        W90888   1.363  41.467  12.881
25629W        W90889  18.062   4.987  11.925
25630W        W90890  33.616  23.553   0.428
25631W        W90891  19.683  12.602  14.124
25632W        W90892   6.248  44.262   1.222
25633W        W90893  27.238  16.936   4.015
25634W        W90894  38.992  18.306  10.647
25635W        W90895   1.377   6.188   4.596
25636W        W90896  26.087   3.126   4.321
25637W        W90897   6.703  17.577  12.511
25638W        W90898  33.634  30.545   4.223
25639W        W90899  39.937  38.076  12.447
25640W        W90900  35.115  11.695  11.372
25641W        W90901  17.778  11.188  11.950
25642W        W90902  29.663  26.107   2.368
25643W        W90903  26.354  15.659   1.320
25644W        W90904  29.498  30.570   4.624
25645W        W90905  24.613   8.854   1.759
25646W        W90906  23.156  22.677   3.191
25647W        W90907  34.865  30.592  11.736
25648W        W90908  19.260   0.795   3.996
25649W        W90909  10.395   9.817  13.797
25650W        W90910  33.540   5.453   4.540
25651W        W90911   3.839  22.614   2.761
25652W        W90912  38.329  34.303  13.873
25653W        W90913  16.931  27.037  10.502
25654W        W90914  26.128  17.091  11.530
25655W        W90915  44.660  42.134  10.805
25656W        W90916  16.644  26.607  14.858
25657W        W90917  43.882   5.613   3.375
25658W        W90918  34.603  21.593  14.564
25659W        W90919  34.123   7.183   4.574
25660W        W90920  33.741  15.772   4.107
25661W        W90921   8.160  26.607   0.646
25662W        W90922   1.840  24.390  14.348
25663W        W90923  21.532  31.583   0.008
25664W        W90924  17.368   9.221  14.438
25665W        W90925   3.540   5.090   1.709
25666W        W90926  10.759  14.586  11.852
25667W        W90927   9.755  16.102   4.712
25668W        W90928  40.468   5.403   0.163
25669W        W90929  42.643   5.636   3.318
25670W        W90930  11.290  20.986   2.747
25671W        W90931  31.022  34.164   3.884
25672W        W90932   0.808  44.714   0.459
25673W        W90933   8.286  30.943   2.419
25674W        W90934  19.234  33.823  13.596
25675W        W90935  22.687   3.705  13.285
25676W        W90936  18.829  39.736   3.526
25677W        W90937  20.701   8.805   0.756
25678W        W90938  12.382   0.820  11.501
25679W        W90939  36.995  16.751  12.880
25680W        W90940  23.115  23.760   1.171
25681W        W90941  36.970  39.584   3.380
25682W        W90942  35.877  36.766   0.832
25683W        W90943  12.608   1.978  10.536
25684W        W90944  33.330   7.997  11.575
25685W        W90945  42.846  19.176   1.190
25686W        W90946   3.101   7.663   4.212
25687W        W90947  42.962  31.848   0.003
25688W        W90948  12.225  20.983   2.705
25689W        W90949  24.215  13.301   3.447
25690W        W90950  33.142   1.241  11.622
25691W        W90951  24.903  11.817  11.610
25692W        W90952  43.947  44.891  13.320
25693W        W90953  33.207   8.169  13.494
25694W        W90954   1.307  39.782  12.643
25695W        W90955   6.093  14.365  11.379
25696W        W90956   3.784   5.203  11.988
25697W        W90957   2.244  35.424   4.706
25698W        W90958   7.742   1.994   3.914
25699W        W90959   7.177  34.517  13.402
25700W        W90960   0.507  28.983   3.344
25701W        W90961  40.819   6.721  12.272
25702W        W90962   1.815   8.392   0.848
25703W        W90963  10.862  15.596   5.024
25704W        W90964  29.452  30.617   1.398
25705W        W90965  26.036   5.889  12.921
25706W        W90966  32.015   8.435   2.444
25707W        W90967  44.018  19.435  11.353
25708W        W90968  18.544  29.932  13.403
25709W        W90969  17.037  42.012   1.759
25710W        W90970  43.339  41.373   2.738
25711W        W90971  38.078   5.503   1.212
25712W        W90972   6.119  35.543  13.867
25713W        W90973   0.621  34.057   4.121
25714W        W90974  16.471  23.689   3.462
25715W        W90975  26.248   1.942  13.413
25716W        W90976   9.627  15.086  12.424
25717W        W90977   9.969  20.708   0.807
25718W        W90978  43.205  15.561   0.762
25719W        W90979   4.665  25.599  14.337
25720W        W90980   3.210   6.385   4.508
25721W        W90981  26.760  33.404  11.954
25722W        W90982  10.186  20.844   1.255
25723W        W90983  26.460  27.520  11.955
25724W        W90984  31.980  16.232  11.470
25725W        W90985  39.484  37.470  12.560
25726W        W90986  44.485  35.459   0.295
25727W        W90987  14.820  10.832   4.056
25728W        W90988  34.690  32.434   4.319
25729W        W90989  17.166  16.862   1.509
25730W        W90990  14.688  29.390  12.428
25731W        W90991   5.813  18.108  12.223
25732W        W90992   4.940  34.685   3.628
25733W        W90993  25.252  33.409  12.560
25734W        W90994   9.166  43.182   2.217
25735W        W90995  22.089  34.029  11.876
25736W        W90996  43.221  22.952   1.582
25737W        W90997   7.672  20.587   0.349
25738W        W90998  13.858  38.013   0.210
25739W        W90999   4.392  26.619  14.510
25740W        W91000   2.938  20.151  12.026
25741W        W91001  30.652  21.962   0.847
25742W        W91002  42.046   7.838   1.378
25743W        W91003  29.021  24.408  11.664
25744W        W91004  35.309   5.221  12.042
25745W        W91005   2.516  16.802  14.872
25746W        W91006  15.598   4.983  13.817
25747W        W91007  22.985  38.441  11.987
25748W        W91008  20.494  27.110  14.956
25749W        W91009  10.962  24.924   1.660
25750W        W91010  25.274   7.175  13.145
25751W        W91011  11.795  22.611   4.594
25752W        W91012  10.606   9.676   1.285
25753W        W91013  39.313  42.336   4.761
25754W        W91014  42.445  44.938  13.559
25755W        W91015  35.783  25.995  12.521
25756W        W91016  19.239   6.852   0.189
25757W        W91017  16.233  25.879  11.547
25758W        W91018  14.561  21.761  13.343
25759W        W91019  17.067   3.611  12.478
25760W        W91020  25.290  41.537  13.865
25761W        W91021   9.401  41.954  10.714
25762W        W91022  13.150  34.423   2.762
25763W        W91023  43.707  26.954  11.193
25764W        W91024  28.606  29.287  12.527
25765W        W91025  26.269  26.156   2.212
25766W        W91026  37.437  28.752  13.873
25767W        W91027  39.298  12.931  13.730
25768W        W91028   0.397  42.606  13.485
25769W        W91029  37.124  20.797   4.321
25770W        W91030  33.479  30.374  11.484
25771W        W91031  15.660   5.373   0.776
25772W        W91032  14.844  14.390   2.268
25773W        W91033  26.145  11.994   4.448
25774W        W91034   4.311  34.153  12.892
25775W        W91035  42.258  31.504   3.773
25776W        W91036   5.964  19.024   1.833
25777W        W91037  13.319  27.645  11.949
25778W        W91038  35.895  22.716  11.926
25779W        W91039  11.656  10.872   2.176
25780W        W91040  39.600  18.172   3.982
25781W        W91041  16.757  13.856   0.793
25782W        W91042   0.278  21.642   3.541
25783W        W91043  26.149   1.336  11.065
25784W        W91044  35.855  32.947   0.408
25785W        W91045  19.003   1.268   2.819
25786W        W91046  32.296  30.195   3.203
25787W        W91047   1.938  41.705   3.879
25788W        W91048  39.309   8.890   3.844
25789W        W91049  13.279   3.158   1.894
25790W        W91050  23.677  30.870   0.471
25791W        W91051   8.228  31.883   4.140
25792W        W91052  16.209  42.010  12.896
25793W        W91053  13.585   6.945   1.321
25794W        W91054  27.755  18.037  11.562
25795W        W91055  31.471  38.089  14.003
25796W        W91056   9.702  19.071  12.466
25797W        W91057  18.923   7.200  11.082
25798W        W91058  42.788  39.324  12.400
25799W        W91059  23.589  25.979   2.436
25800W        W91060  38.604  44.214  12.029
25801W        W91061  18.910  12.560  13.337
25802W        W91062  18.719   5.044   3.628
25803W        W91063  35.134  34.390  12.353
25804W        W91064   5.636   5.935  11.071
25805W        W91065  11.646  23.056   4.403
25806W        W91066   2.860  43.409   4.611
25807W        W91067  29.390   8.246   4.557
25808W        W91068  41.113  17.566   2.659
25809W        W91069  24.698   7.855   1.448
25810W        W91070  23.702  43.472  11.598
25811W        W91071   4.120   7.434   2.689
25812W        W91072   1.031  25.448  13.479
25813W        W91073  41.268  15.120   1.599
25814W        W91074   8.415  12.371   3.652
25815W        W91075   1.776  27.941   3.448
25816W        W91076  44.495  13.045   0.418
25817W        W91077  19.527  42.550   4.105
25818W        W91078   4.206  42.739  13.327
25819W        W91079   0.067  31.379   2.768
25820W        W91080   0.233   5.631  10.741
25821W        W91081  10.162  39.051  12.043
25822W        W91082  19.786  33.877  12.876
25823W        W91083  35.353  31.499  11.628
25824W        W91084   9.481   9.391   0.684
25825W        W91085  36.616  19.697   4.614
25826W        W91086  36.137  29.052   1.243
25827W        W91087  31.388  26.662   0.484
25828W        W91088   1.629  44.023   3.191
25829W        W91089  21.998  11.216  10.577
25830W        W91090  10.834  20.499  14.510
25831W        W91091  42.892  33.599  10.477
25832W        W91092  22.276  22.975   2.598
25833W        W91093  38.768  24.943   2.389
25834W        W91094  43.951  21.225   2.398
25835W        W91095  30.645  11.203   2.899
25836W        W91096  32.480   1.201   0.297
25837W        W91097  18.681   8.500  11.980
25838W        W91098   6.930  17.695   4.212
25839W        W91099  22.188  29.771  12.033
25840W        W91100  24.970  38.573   2.758
25841W        W91101   6.456   1.373  12.455
25842W        W91102   9.964  29.627  10.057
25843W        W91103   5.399  16.334  10.675
25844W        W91104  17.577  32.081  12.882
25845W        W91105  34.164  40.483  13.308
25846W        W91106  12.858  11.415  14.749
25847W        W91107   5.946  36.072  11.818
25848W        W91108   2.233  10.871   9.941
25849W        W91109  37.735  23.942  10.731
25850W        W91110  23.454  42.354   2.513
25851W        W91111   0.972  17.036   3.648
25852W        W91112  28.553  13.209   2.107
25853W        W91113  32.642  42.078   1.957
25854W        W91114  18.160   7.990  13.546
25855W        W91115  35.980  21.570   2.055
25856W        W91116   0.863  27.778  12.535
25857W        W91117  26.634   1.215   0.855
25858W        W91118  21.607  38.561  14.518
25859W        W91119  42.792  18.667   4.050
25860W        W91120  19.855  25.404   3.619
25861W        W91121  32.133  18.047  13.383
25862W        W91122   7.446   4.865   1.896
25863W        W91123  43.720  10.324   0.303
25864W        W91124  42.364   5.127  13.079
25865W        W91125  23.938  15.805   0.841
25866W        W91126  24.630  19.836   1.898
25867W        W91127  26.278  23.566   3.256
25868W        W91128  29.131   2.894  12.370
25869W        W91129  40.412   0.276   0.199
25870W        W91130  41.476   3.819   3.164
25871W        W91131  11.124   9.334   2.382
25872W        W91132  26.543   0.713   0.786
25873W        W91133  25.062  20.216  11.636
25874W        W91134  39.080   1.782   2.677
25875W        W91135  28.597  34.251  13.940
25876W        W91136  29.024  36.019   2.263
25877W        W91137  41.657  24.976  14.233
25878W        W91138   1.285   7.866   0.323
25879W        W91139   7.688  23.496  14.551
25880W        W91140   9.450   6.752   3.636
25881W        W91141  42.913  10.312   1.658
25882W        W91142  13.937   5.490   1.144
25883W        W91143  20.270   1.874   0.818
25884W        W91144  41.303  23.438  14.429
25885W        W91145  29.078   4.150   0.130
25886W        W91146  36.517  32.465   0.927
25887W        W91147  18.009  18.990   1.945
25888W        W91148  12.601   0.886  12.854
25889W        W91149  39.919  16.209  13.259
25890W        W91150  32.242  40.680   0.165
25891W        W91151  22.241  30.950  13.829
25892W        W91152   5.639  15.725   0.315
25893W        W91153  19.626  15.696  14.817
25894W        W91154  39.556  26.684  11.618
25895W        W91155  33.923  25.025   4.936
25896W        W91156  16.582  18.825  11.541
25897W        W91157  22.492  16.525   4.083
25898W        W91158  29.784  20.271  11.967
25899W        W91159   6.844  12.339  10.753
25900W        W91160  37.638  16.675   1.433
25901W        W91161  20.549  36.071  11.664
25902W        W91162  35.807  19.553  14.427
25903W        W91163   5.991  34.342   1.159
25904W        W91164  16.110  12.183   0.663
25905W        W91165  13.815  30.232   0.534
25906W        W91166  27.746  38.986   4.640
25907W        W91167  35.978  38.637  10.758
25908W        W91168  12.178  23.392  14.537
25909W        W91169  26.737   2.490  11.061
25910W        W91170  13.248  17.634   0.309
25911W        W91171  24.677  43.565  10.637
25912W        W91172   3.707  14.756   3.589
25913W        W91173  13.570   1.385   0.159
25914W        W91174  38.917   4.374   0.071
25915W        W91175  16.379  39.468  11.628
25916W        W91176  38.609   7.397  13.843
25917W        W91177  36.822  18.706  13.484
25918W        W91178   6.112  34.974   0.122
25919W        W91179  18.754  16.070   2.788
25920W        W91180  44.361  21.455  13.916
25921W        W91181  38.777  24.257  11.544
25922W        W91182  19.594  43.960   1.345
25923W        W91183  24.919  17.583  14.251
25924W        W91184  13.270   4.743  12.111
25925W        W91185   4.343  41.364   4.608
25926W        W91186   9.641  16.108  10.403
25927W        W91187  16.287  14.955   2.348
25928W        W91188  23.085  20.438   0.412
25929W        W91189  36.986  18.272  10.695
25930W        W91190  14.662  22.950   1.660
25931W        W91191  18.516  37.986   1.129
25932W        W91192  12.661  26.855   5.473
25933W        W91193   2.738   4.967  14.450
25934W        W91194   0.752  30.525  14.239
25935W        W91195   3.456  26.581   0.316
25936W        W91196  31.992  17.776  11.503
25937W        W91197   3.563  32.615  13.462
25938W        W91198  22.130  15.071  13.855
25939W        W91199  28.528  40.255   1.965
25940W        W91200  25.845  23.284   3.636
25941W        W91201  32.002  10.436   0.884
25942W        W91202  39.060  11.322   1.946
25943W        W91203  41.407  32.810   1.149
25944W        W91204  19.445   9.381   0.903
25945W        W91205  32.135  17.481  12.806
25946W        W91206  34.498  23.397   3.682
25947W        W91207  28.478   9.493   2.904
25948W        W91208  22.744  38.891   2.585
25949W        W91209  24.576   2.163   3.621
25950W        W91210  28.027  32.892   1.732
25951W        W91211   4.179  20.659  12.101
25952W        W91212  10.331  15.045  14.455
25953W        W91213  35.288  34.082   4.475
25954W        W91214  28.996  43.480  14.307
25955W        W91215  35.404  33.362  13.903
25956W        W91216   8.338   6.290   1.790
25957W        W91217   7.307  28.937  12.990
25958W        W91218  23.684  34.656  13.851
25959W        W91219  15.821   4.151  11.070
25960W        W91220  34.085  37.380  12.123
25961W        W91221  28.697  44.869  11.968
25962W        W91222  41.367   4.278   3.915
25963W        W91223   3.984  21.583   4.164
25964W        W91224   1.431  13.350  13.829
25965W        W91225  13.323   7.783   2.733
25966W        W91226  22.643  12.200  11.594
25967W        W91227  26.753  15.555  12.584
25968W        W91228   4.333  43.083   3.380
25969W        W91229   7.266  19.211  12.790
25970W        W91230  35.103   9.224  11.560
25971W        W91231  28.552  28.584  13.616
25972W        W91232  32.680   1.899  13.947
25973W        W91233  30.006  39.324  11.866
25974W        W91234  29.615  42.897   0.257
25975W        W91235  21.639  35.169  13.749
25976W        W91236   5.809  31.043   4.683
25977W        W91237   9.282   5.643   1.358
25978W        W91238  11.875   0.557  12.840
25979W        W91239  34.294  40.425   4.565
25980W        W91240   3.753  37.025  14.514
25981W        W91241  26.536  28.205   5.102
25982W        W91242  35.152   9.338  12.740
25983W        W91243   4.571  16.515  13.958
25984W        W91244  26.743   9.316   3.642
25985W        W91245  32.678  13.586  12.566
25986W        W91246  43.938  43.454   0.938
25987W        W91247  41.263  15.232  13.523
25988W        W91248  22.960  23.695  12.049
25989W        W91249   8.099  37.593   1.338
25990W        W91250  34.591  11.742   1.296
25991W        W91251  42.498  31.980   2.809
25992W        W91252  37.889   8.178   3.704
25993W        W91253  22.667  30.491   2.760
25994W        W91254  43.702  43.944  13.302
25995W        W91255  15.856   8.888   1.286
25996W        W91256  29.606  13.867  12.957
25997W        W91257  18.894   8.268  10.678
25998W        W91258  31.360   1.069  13.548
25999W        W91259  37.928  39.307  12.469
26000W        W91260  19.251  25.938   0.037
26001W        W91261  34.772   0.815   1.387
26002W        W91262  43.828  15.389   3.120
26003W        W91263  30.431  22.340  10.797
26004W        W91264  25.699  11.910   1.337
26005W        W91265  30.025   9.113  11.361
26006W        W91266  40.277  12.059  11.635
26007W        W91267  13.109  29.595   3.729
26008W        W91268  42.439  42.777   0.272
26009W        W91269   2.161  30.370  14.008
26010W        W91270  28.972   0.907   3.366
26011W        W91271  43.806   3.916   2.827
26012W        W91272  41.900   4.933  12.440
26013W        W91273  30.603  21.079  13.537
26014W        W91274  21.752  39.762  12.074
26015W        W91275  10.243   4.087   1.792
26016W        W91276  19.265  27.119  12.408
26017W        W91277  44.704  19.092   1.969
26018W        W91278  17.990   5.397  12.491
26019W        W91279   0.296   5.124   2.945
26020W        W91280  26.422  13.829   3.188
26021W        W91281  42.876  28.257   0.861
26022W        W91282  43.529  29.041   0.065
26023W        W91283  32.977  34.840   0.672
26024W        W91284  18.047   9.555   0.759
26025W        W91285   6.710  10.391  12.557
26026W        W91286  15.178  40.618  14.418
26027W        W91287  16.369  36.515  11.471
26028W        W91288  39.108  43.050  11.223
26029W        W91289  21.434  24.284  14.257
26030W        W91290  12.493  42.983   3.152
26031W        W91291  27.191  21.769   4.126
26032W        W91292  19.065  32.031   3.383
26033W        W91293  39.549   0.449  14.729
26034W        W91294  29.611  36.507  14.221
26035W        W91295  27.389  20.306   1.852
26036W        W91296  25.649  24.656   4.600
26037W        W91297  29.213   7.584   2.735
26038W        W91298   9.083   7.152   4.579
26039W        W91299  39.177  24.678  10.242
26040W        W91300  11.831  40.878  12.781
26041W        W91301  33.214  38.090   3.367
26042W        W91302  20.257  23.438  11.564
26043W        W91303  38.869  16.758  10.657
26044W        W91304  15.750  38.523   3.698
26045W        W91305  26.921  26.107   3.651
26046W        W91306   7.822  24.984  14.284
26047W        W91307  13.579  13.248   3.856
26048W        W91308  30.807  39.353  11.270
26049W        W91309  42.214  37.806   0.447
26050W        W91310  39.138  44.560   4.593
26051W        W91311  15.180  28.657  13.987
26052W        W91312  44.351  26.013  11.637
26053W        W91313  42.291  31.332   0.374
26054W        W91314  20.331   0.268   3.521
26055W        W91315   6.180  33.690  11.921
26056W        W91316  41.375  17.115   3.343
26057W        W91317  42.539  20.026   3.417
26058W        W91318  20.608  15.614   1.785
26059W        W91319   3.502  37.409   1.801
26060W        W91320   8.561  20.748  13.508
26061W        W91321  10.623   9.174   2.262
26062W        W91322  42.237  13.582  11.539
26063W        W91323  41.993  32.128  11.968
26064W        W91324  10.094  21.762   1.025
26065W        W91325  23.739  42.462   3.896
26066W        W91326  22.765  44.507   3.796
26067W        W91327  28.161  37.437   4.642
26068W        W91328  10.064  18.070  14.031
26069W        W91329   2.386  38.599  12.590
26070W        W91330  16.577  31.374   0.766
26071W        W91331  30.598   7.380   4.313
26072W        W91332  21.333   6.133  11.889
26073W        W91333  38.258   9.337  13.902
26074W        W91334  32.450  27.231   4.987
26075W        W91335  27.514   3.483   4.452
26076W        W91336  32.679  43.692   1.437
26077W        W91337  41.347  24.203  10.660
26078W        W91338  17.339  34.632  13.090
26079W        W91339  21.580  23.726  12.948
26080W        W91340  11.986  33.963  14.929
26081W        W91341  29.010  42.015  11.571
26082W        W91342   1.938  16.534  13.584
26083W        W91343  19.118  44.047   4.368
26084W        W91344  11.637   9.793  11.666
26085W        W91345   8.638   6.425  13.126
26086W        W91346  11.250  14.598  12.130
26087W        W91347   4.488  11.488  13.431
26088W        W91348  22.580  18.817   4.947
26089W        W91349  41.420  13.313  10.676
26090W        W91350  20.768  21.267  13.389
26091W        W91351  16.476  26.057  12.101
26092W        W91352   9.743  21.499   0.743
26093W        W91353   8.262   7.365   4.063
26094W        W91354  27.777   8.487   1.044
26095W        W91355  43.008  27.030  14.359
26096W        W91356  35.635   7.208   3.140
26097W        W91357  33.973  10.480  11.956
26098W        W91358   2.919  41.252   4.419
26099W        W91359   8.869   8.093   0.230
26100W        W91360  38.918  32.806  12.578
26101W        W91361  31.000  31.519  14.766
26102W        W91362   8.253  38.302  12.781
26103W        W91363   0.321  43.487   3.326
26104W        W91364  32.445   2.385   4.986
26105W        W91365   6.934   7.375  14.344
26106W        W91366   2.241  39.423   2.813
26107W        W91367   4.013  29.544   0.237
26108W        W91368  10.103  17.683  13.528
26109W        W91369   4.354  37.444  11.619
26110W        W91370  34.862   8.213  12.147
26111W        W91371  30.062  20.207  11.541
26112W        W91372  44.982   2.291   2.239
26113W        W91373  12.129  24.550   0.308
26114W        W91374  43.424   6.809   2.491
26115W        W91375  26.805  10.735  12.951
26116W        W91376  39.436   0.804  11.949
26117W        W91377  17.735  13.507   4.118
26118W        W91378  27.482  36.016   0.234
26119W        W91379   6.130  35.595   2.384
26120W        W91380  39.838  10.363  10.538
26121W        W91381  22.522  28.631  11.631
26122W        W91382  24.216  13.411   1.924
26123W        W91383  37.485   2.324   0.764
26124W        W91384  44.253   6.197   4.143
26125W        W91385  36.698  19.072   3.663
26126W        W91386  20.119  32.893   0.508
26127W        W91387   2.078  31.034   3.208
26128W        W91388  22.201  34.096   3.803
26129W        W91389  17.477  42.368  10.649
26130W        W91390  42.791  30.023   1.788
26131W        W91391  25.206  44.938   1.837
26132W        W91392   5.140  33.114  13.289
26133W        W91393  29.948  35.796   0.777
26134W        W91394  23.671  43.868  12.471
26135W        W91395  21.440  29.901   4.156
26136W        W91396  28.530  11.567  13.505
26137W        W91397  26.070  16.879   0.311
26138W        W91398  44.921  10.246  14.060
26139W        W91399  38.795  18.658   2.222
26140W        W91400   3.694  13.657   4.662
26141W        W91401  42.653  17.794   4.567
26142W        W91402  28.581   2.192  14.460
26143W        W91403   2.751   9.116   4.151
26144W        W91404  31.606  13.905  11.930
26145W        W91405  34.539  35.056  13.708
26146W        W91406  14.796  23.051   2.588
26147W        W91407   0.317   2.394   3.709
26148W        W91408  23.667  44.812  14.227
26149W        W91409  10.846  20.956  12.038
26150W        W91410  20.873  18.014  13.032
26151W        W91411  11.584   5.347   4.229
26152W        W91412  39.745  11.838  13.861
26153W        W91413  23.558  19.382   0.798
26154W        W91414  42.010   7.772   4.615
26155W        W91415  13.265  20.799   1.428
26156W        W91416  25.069  22.563  14.659
26157W        W91417  35.289  27.995   4.103
26158W        W91418  26.927   2.780   2.273
26159W        W91419  28.104  39.595   4.129
26160W        W91420  11.224   2.186   3.733
26161W        W91421  23.486  29.697  13.463
26162W        W91422  35.943  18.295  13.384
26163W        W91423  24.222  36.300  13.069
26164W        W91424  14.577   6.182   4.182
26165W        W91425  43.004  35.832   4.132
26166W        W91426  41.338  42.859   1.731
26167W        W91427  11.638   1.402  14.545
26168W        W91428  37.498   2.433  12.870
26169W        W91429  17.152  41.529   4.562
26170W        W91430  14.293  16.748  14.635
26171W        W91431  27.119   7.621   3.179
26172W        W91432  30.433  25.398   3.589
26173W        W91433  32.187  28.579   4.088
26174W        W91434  18.301  26.408   2.172
26175W        W91435  14.861  38.446  13.549
26176W        W91436  38.247  29.126  10.999
26177W        W91437  22.427  16.052   3.513
26178W        W91438   3.142  42.137   3.671
26179W        W91439  31.264  35.475   0.252
26180W        W91440  33.236  24.780  11.963
26181W        W91441   8.649  21.038   4.102
26182W        W91442  36.944  18.362  12.531
26183W        W91443   7.934  26.141  10.231
26184W        W91444   8.330  10.702   0.755
26185W        W91445  35.457  33.942   3.231
26186W        W91446  40.096   6.596   3.726
26187W        W91447   9.364  33.020   4.122
26188W        W91448  21.665   5.971  13.463
26189W        W91449  21.059   1.276  12.531
26190W        W91450  16.215   6.720   3.843
26191W        W91451   6.927  11.196  14.475
26192W        W91452   9.228  30.207  11.960
26193W        W91453  28.554  25.972  14.845
26194W        W91454   6.303  20.458   0.068
26195W        W91455  38.092  12.978   0.296
26196W        W91456  44.443   0.934   2.789
26197W        W91457   1.656  19.211  14.020
26198W        W91458  18.057  40.018  12.944
26199W        W91459  37.342  30.313  12.441
26200W        W91460  20.344  36.540   5.445
26201W        W91461   1.424  38.834  12.125
26202W        W91462   4.765  19.564   1.437
26203W        W91463  22.765  23.979   3.606
26204W        W91464   5.458   4.078   3.725
26205W        W91465  26.972   0.032  11.240
26206W        W91466  36.094   8.347  14.829
26207W        W91467  22.863  37.630  12.440
26208W        W91468  26.917   4.151  12.393
26209W        W91469   8.451   5.710   2.761
26210W        W91470   5.940  39.763   0.301
26211W        W91471  42.940  34.169  13.551
26212W        W91472   9.270   6.759  10.606
26213W        W91473   9.692  32.950  11.662
26214W        W91474  35.519   8.956   4.413
26215W        W91475  25.904  26.753  14.127
26216W        W91476   2.308  13.196  13.595
26217W        W91477  18.044   8.358   2.346
26218W        W91478  14.057  16.170  11.622
26219W        W91479  24.999  25.408  13.456
26220W        W91480   5.397  32.972   3.024
26221W        W91481  42.910   7.163  11.224
26222W        W91482  15.999  37.819   3.095
26223W        W91483  42.935  17.493  13.398
26224W        W91484   2.845  44.208   4.155
26225W        W91485  15.147  42.538   2.237
26226W        W91486  28.563  42.513  14.044
26227W        W91487   8.417  33.129   3.694
26228W        W91488  32.732  19.091   2.551
26229W        W91489  16.250  10.660  10.532
26230W        W91490  42.989  34.616   2.377
26231W        W91491  17.596  42.075   1.416
26232W        W91492  10.747   1.203  12.437
26233W        W91493   6.144  25.249  10.164
26234W        W91494   1.690   3.916   4.550
26235W        W91495   9.466  17.526  11.526
26236W        W91496  10.727  11.946   3.773
26237W        W91497  20.805  36.958  11.891
26238W        W91498   1.327  22.002   4.524
26239W        W91499  27.959  33.220  14.385
26240W        W91500  25.885   9.238   1.685
26241W        W91501   6.222  23.055  14.104
26242W        W91502  32.014  43.371   1.875
26243W        W91503  31.322  12.742  10.706
26244W        W91504  44.321  29.232   1.379
26245W        W91505  34.359  36.412   1.900
26246W        W91506  42.253  13.353  13.888
26247W        W91507   4.825  30.624  10.171
26248W        W91508  28.220  14.786   2.499
26249W        W91509  38.865  11.141   1.261
26250W        W91510  36.418  39.066   3.407
26251W        W91511  11.655  25.639  10.590
26252W        W91512  13.875  10.195  13.923
26253W        W91513  32.057  41.429  14.411
26254W        W91514  23.518   2.233   0.594
26255W        W91515  10.689  14.033   2.778
26256W        W91516  17.368  28.914   3.348
26257W        W91517  11.679   6.499  10.176
26258W        W91518  17.829   9.474   3.586
26259W        W91519  19.712  12.073  11.036
26260W        W91520  12.199  32.484  12.977
26261W        W91521   7.937   0.297  10.734
26262W        W91522   6.834  43.805   0.943
26263W        W91523  28.158  23.316  11.264
26264W        W91524   2.597   4.893   3.097
26265W        W91525   8.926  12.582   4.149
26266W        W91526  14.448  28.629   0.703
26267W        W91527  39.848  38.454   3.308
26268W        W91528  20.560  44.230  14.986
26269W        W91529  39.787  43.098   1.710
26270W        W91530  27.150   8.386  13.006
26271W        W91531   8.654  32.514   4.585
26272W        W91532  27.529  10.408   2.338
26273W        W91533  11.423  34.901  13.493
26274W        W91534   3.968  34.391   1.425
26275W        W91535  34.902  44.469  11.646
26276W        W91536  25.638  22.936   1.722
26277W        W91537  16.053  30.526   3.834
26278W        W91538  17.571  44.262  13.514
26279W        W91539  17.949  11.744  13.028
26280W        W91540  39.414  42.069   3.899
26281W        W91541   4.546  22.731   4.483
26282W        W91542  31.247  13.187  14.458
26283W        W91543   3.879  44.033   3.264
26284W        W91544   6.400  26.933   0.790
26285W        W91545  41.892   2.673   4.426
26286W        W91546  17.121  28.198  11.587
26287W        W91547  15.366   7.040  10.028
26288W        W91548   2.465  40.301  13.097
26289W        W91549  18.780  44.677   4.912
26290W        W91550  12.695  18.167   3.352
26291W        W91551   8.489  44.104  11.698
26292W        W91552  18.643   4.278   3.956
26293W        W91553  41.097  30.688   1.865
26294W        W91554  22.702  25.739  13.974
26295W        W91555  39.120  36.608   4.811
26296W        W91556  21.546  13.826  10.752
26297W        W91557  21.209  42.847  11.093
26298W        W91558  38.000  13.309   4.128
26299W        W91559  12.045  27.909  12.364
26300W        W91560  21.125   1.452  10.678
26301W        W91561  19.773  23.214  11.566
26302W        W91562  18.237   1.705  13.201
26303W        W91563  16.002  41.917   0.841
26304W        W91564  11.308   2.480  14.551
26305W        W91565  16.802   1.908  13.857
26306W        W91566   2.190   4.849  10.709
26307W        W91567  42.323   7.851   2.292
26308W        W91568  14.226  35.612   3.748
26309W        W91569  32.211  36.028   1.860
26310W        W91570  22.478  38.542  12.003
26311W        W91571   2.404   1.297  13.771
26312W        W91572   8.622   1.202  13.110
26313W        W91573  30.100  24.461   0.161
26314W        W91574  31.333   6.399   1.552
26315W        W91575  23.690  34.110  10.688
26316W        W91576  29.535  17.355  11.421
26317W        W91577   3.716  35.377   2.376
26318W        W91578  19.669  13.761   3.390
26319W        W91579  28.414  42.067   3.300
26320W        W91580  30.764  34.975  11.736
26321W        W91581  32.128   2.629  13.893
26322W        W91582  13.309  29.737  12.900
26323W        W91583  20.576  15.007   2.885
26324W        W91584  14.848  33.395  12.464
26325W        W91585  11.359  20.586   3.105
26326W        W91586  34.081  44.745  14.481
26327W        W91587   1.286  37.994  10.921
26328W        W91588  32.858  24.737   3.216
26329W        W91589  44.381  24.608  12.495
26330W        W91590  18.998  19.502   2.691
26331W        W91591  19.320   5.681  14.764
26332W        W91592  43.563   2.226  10.610
26333W        W91593  35.541  17.562   1.903
26334W        W91594   5.920  42.802   3.240
26335W        W91595  38.013  30.158  13.516
26336W        W91596  33.088  25.490   2.522
26337W        W91597  11.845  30.656  13.351
26338W        W91598  25.988  15.907  14.488
26339W        W91599  20.334  38.067   9.896
26340W        W91600  27.528  43.976   4.614
26341W        W91601  33.021  10.341   1.273
26342W        W91602  21.765  16.035  13.399
26343W        W91603  22.304  37.152  14.203
26344W        W91604  31.153  40.829  11.083
26345W        W91605  24.930  10.088   2.420
26346W        W91606  24.563  31.446  13.819
26347W        W91607  35.598  28.520  14.407
26348W        W91608  10.685  19.125   4.213
26349W        W91609  24.476  23.149   3.223
26350W        W91610  28.079   9.224  11.118
26351W        W91611  43.817  16.181   4.153
26352W        W91612  23.436  15.357   2.005
26353W        W91613   6.792  32.689  13.993
26354W        W91614  28.084  16.592  14.754
26355W        W91615  28.409  32.930  11.001
26356W        W91616  29.896  17.143  13.880
26357W        W91617   2.954  33.888   0.556
26358W        W91618  27.723  24.062   5.003
26359W        W91619  12.279  20.163   1.698
26360W        W91620  15.859   1.514  10.628
26361W        W91621  29.266   5.995  12.055
26362W        W91622  14.116  25.894   4.794
26363W        W91623  26.231  34.499  10.991
26364W        W91624  20.136  40.334   2.776
26365W        W91625  25.940  29.101  13.525
26366W        W91626  26.677  36.636  14.676
26367W        W91627   7.740  39.945   0.697
26368W        W91628  29.518   0.262  11.730
26369W        W91629  20.181  24.294  11.975
26370W        W91630   8.577   4.192   1.258
26371W        W91631  32.876  29.749  11.645
26372W        W91632  36.535  10.593   0.307
26373W        W91633  17.510  19.549   2.903
26374W        W91634  29.518  38.347   3.607
26375W        W91635  33.456  28.270   3.852
26376W        W91636  10.400  35.010   0.036
26377W        W91637  30.163  10.797  10.835
26378W        W91638  27.334   9.015   0.265
26379W        W91639  14.707  33.563   4.615
26380W        W91640   4.014  36.624  11.066
26381W        W91641  11.984   9.909  12.493
26382W        W91642  41.673  30.255  12.126
26383W        W91643  21.190  15.102  10.932
26384W        W91644  19.835   8.768   2.436
26385W        W91645  16.717   5.652   3.275
26386W        W91646  13.229   8.340   1.936
26387W        W91647  11.842  22.781   0.301
26388W        W91648  17.363  29.071   2.144
26389W        W91649  16.899  23.624   0.233
26390W        W91650  34.623  25.734  10.385
26391W        W91651  27.733   7.860  12.410
26392W        W91652  31.453  42.838  13.946
26393W        W91653  24.502   8.876  10.491
26394W        W91654  33.544   7.970  14.477
26395W        W91655  42.023  41.375  14.246
26396W        W91656  16.230  20.123  12.635
26397W        W91657  34.506  12.138  10.667
26398W        W91658  39.104  34.977  13.070
26399W        W91659  28.705  12.364  11.659
26400W        W91660  15.580  38.901  10.726
26401W        W91661  43.514  39.021   2.370
26402W        W91662   5.740  26.074  14.978
26403W        W91663  23.947  41.099  13.008
26404W        W91664  23.168  31.512  10.703
26405W        W91665  30.909  42.850  13.069
26406W        W91666   7.091   5.143  14.443
26407W        W91667  18.489  43.706  12.063
26408W        W91668  38.517  11.522  13.508
26409W        W91669  14.825  13.803  11.635
26410W        W91670  44.496  29.476   0.936
26411W        W91671  22.644  10.315  11.447
26412W        W91672   3.216  15.617   4.305
26413W        W91673  33.639   1.156   3.877
26414W        W91674  35.921  32.241  14.290
26415W        W91675  37.083   5.956   1.947
26416W        W91676  27.767   5.235  12.440
26417W        W91677   8.231  27.289  13.736
26418W        W91678  41.007  11.693  13.516
26419W        W91679  15.881  11.753   0.853
26420W        W91680  30.111  18.540   3.372
26421W        W91681  25.658  13.674   4.332
26422W        W91682  37.309  13.703  13.024
26423W        W91683  14.736  42.233   2.251
26424W        W91684  41.538  44.299   3.592
26425W        W91685  44.537   6.249   2.301
26426W        W91686  37.595   5.776   3.231
26427W        W91687   7.879  33.789  12.399
26428W        W91688  15.777  11.597  14.083
26429W        W91689  10.014  27.462   0.891
26430W        W91690  11.793  16.684  11.461
26431W        W91691  37.587  13.251   1.961
26432W        W91692  34.508  25.124  13.236
26433W        W91693  39.300   2.458   0.010
26434W        W91694   9.470  32.376  13.544
26435W        W91695  43.520  24.105   3.597
26436W        W91696  22.246   4.839  14.049
26437W        W91697   7.801  43.971   1.228
26438W        W91698  29.605  38.406  11.570
26439W        W91699  24.978   2.424  14.714
26440W        W91700  27.052  38.934  12.125
26441W        W91701  35.038   1.890  10.096
26442W        W91702  33.476   5.741  14.397
26443W        W91703  32.317  14.586   2.205
26444W        W91704   1.334   0.772   4.891
26445W        W91705  35.388  15.535  12.357
26446W        W91706  19.565   8.623  11.607
26447W        W91707  43.008  32.799   1.506
26448W        W91708  29.612   0.409  13.987
26449W        W91709  26.696  38.099   2.849
26450W        W91710  21.041  14.034  11.592
26451W        W91711   9.314  24.227  12.785
26452W        W91712  23.950  31.559  11.918
26453W        W91713  17.493  37.478  11.096
26454W        W91714  42.855  29.983  12.309
26455W        W91715  37.253  29.687  14.592
26456W        W91716  23.376  23.238  11.084
26457W        W91717  35.039  35.878   4.960
26458W        W91718  43.546  43.331  14.932
26459W        W91719  17.573  25.123   3.267
26460W        W91720  11.642  32.714   4.687
26461W        W91721  41.154  21.943   1.818
26462W        W91722   1.749  17.444  13.755
26463W        W91723   0.296  28.931   2.670
26464W        W91724  22.596  41.530  13.514
26465W        W91725   1.280   0.510  12.650
26466W        W91726  10.721  13.996   5.033
26467W        W91727   8.906  12.371  12.632
26468W        W91728   0.272  28.489  14.954
26469W        W91729  30.478  30.539   4.053
26470W        W91730  39.409  44.469   5.047
26471W        W91731  13.821  31.078   1.715
26472W        W91732  31.515   5.591  13.318
26473W        W91733  44.465  27.442   1.310
26474W        W91734  31.982  14.478   5.097
26475W        W91735  40.011  29.511  11.628
26476W        W91736  32.992  26.075  14.880
26477W        W91737  16.130  20.691  14.848
26478W        W91738   6.878  19.770  14.581
26479W        W91739  11.614  16.918   3.902
26480W        W91740  37.824  39.416  13.428
26481W        W91741   6.619  36.938  11.652
26482W        W91742   6.858   3.633   1.877
26483W        W91743   2.880  34.061   0.049
26484W        W91744   6.081  33.546   3.237
26485W        W91745   3.249  39.080  11.093
26486W        W91746  25.986  32.853  10.582
26487W        W91747  24.562   5.102  13.966
26488W        W91748  11.583  39.927   2.228
26489W        W91749  23.109  31.053  14.777
26490W        W91750  17.237  43.735  10.791
26491W        W91751  42.832  35.352  12.157
26492W        W91752   5.209  34.626  12.138
26493W        W91753   2.717  33.563   5.030
26494W        W91754   1.775  22.045  10.685
26495W        W91755   2.371  35.954   4.660
26496W        W91756   1.374   5.206  10.495
26497W        W91757   1.989  41.395  14.832
26498W        W91758  30.446  29.211   1.912
26499W        W91759  23.080  12.123   2.727
26500W        W91760  23.447  44.246   3.182
26501W        W91761  29.081  23.983   3.639
26502W        W91762   6.398  22.621   4.125
26503W        W91763   1.397  36.580  12.061
26504W        W91764  21.943  18.811   0.171
26505W        W91765  37.499   4.189  14.021
26506W        W91766   5.990  32.915  11.099
26507W        W91767  32.159  22.633  12.020
26508W        W91768   9.361  40.866  14.883
26509W        W91769  31.104  20.240   0.856
26510W        W91770  37.010  10.433  13.866
26511W        W91771  20.727   5.695   5.446
26512W        W91772  15.283  34.592   0.713
26513W        W91773  34.096  29.336   0.843
26514W        W91774  15.909  18.304   0.766
26515W        W91775  42.294  23.244   3.704
26516W        W91776  29.707  37.989   2.380
26517W        W91777  23.683  31.605  10.687
26518W        W91778  35.554  41.452   3.739
26519W        W91779  18.654  26.799   4.494
26520W        W91780  33.499  17.091  13.401
26521W        W91781   1.414  39.051   2.849
26522W        W91782  26.578  20.225   2.622
26523W        W91783  27.707  37.392  11.639
26524W        W91784  44.364   6.722   4.799
26525W        W91785  41.451  20.968   1.767
26526W        W91786  22.881  35.323   4.585
26527W        W91787  18.699  17.552   2.696
26528W        W91788  18.684  42.435   0.939
26529W        W91789   6.774  27.579  10.471
26530W        W91790  39.986  37.838  14.762
26531W        W91791  26.959   1.768   1.234
26532W        W91792  35.965  32.482   0.770
26533W        W91793  41.040   2.499  12.968
26534W        W91794  38.051  38.414   2.156
26535W        W91795  22.489  16.583  14.332
26536W        W91796   9.228  44.319   2.364
26537W        W91797   2.215  44.292   1.514
26538W        W91798  34.394  34.705   2.717
26539W        W91799  12.838  26.106   4.446
26540W        W91800  20.169  12.331   2.204
26541W        W91801  18.501  30.656   2.440
26542W        W91802  42.473   2.468   0.767
26543W        W91803  19.052   0.554  11.965
26544W        W91804  17.174   7.120  13.809
26545W        W91805  13.454  40.792   4.678
26546W        W91806  15.854  34.197  12.440
26547W        W91807   1.964   8.687   2.943
26548W        W91808   6.110  24.567   0.298
26549W        W91809  25.730  31.656  14.345
26550W        W91810   0.740  14.506  10.862
26551W        W91811  17.190  41.485   5.090
26552W        W91812  21.053   4.231   5.600
26553W        W91813  27.224  35.671   2.110
26554W        W91814  32.469  18.661  10.665
26555W        W91815   9.984  43.076  14.421
26556W        W91816  37.804  39.343   2.246
26557W        W91817  40.898  42.775   2.271
26558W        W91818  34.186  43.905  12.038
26559W        W91819  35.032  29.737   9.859
26560W        W91820   0.666   9.409   3.180
26561W        W91821  29.531  39.551  10.581
26562W        W91822   2.402  11.041   3.731
26563W        W91823  41.545  16.614  11.582
26564W        W91824  14.204  42.892  12.102
26565W        W91825  31.053   8.771   4.065
26566W        W91826  25.087  10.659  13.219
26567W        W91827  34.009  13.681   0.689
26568W        W91828   1.925  33.093  11.135
26569W        W91829  23.480  40.565   1.637
26570W        W91830  20.387  15.710   3.343
26571W        W91831  35.563  23.228   2.087
26572W        W91832   0.889  33.594   2.655
26573W        W91833   5.474  18.618   0.472
26574W        W91834  27.124  41.216   1.785
26575W        W91835  13.872   8.224  11.814
26576W        W91836  39.233  44.276  10.764
26577W        W91837   4.453   9.735  13.617
26578W        W91838  14.114  20.212   1.390
26579W        W91839  13.164  32.357   1.335
26580W        W91840  29.808  24.696   4.463
26581W        W91841   2.458  31.069   4.510
26582W        W91842  37.385   0.071  13.878
26583W        W91843  18.292  23.981  13.596
26584W        W91844  40.992  43.029   4.136
26585W        W91845  28.027  15.189  14.010
26586W        W91846  31.085   3.203   2.913
26587W        W91847   9.811  41.478   4.145
26588W        W91848  37.351   6.250   3.230
26589W        W91849   0.886  15.783  10.487
26590W        W91850   6.712   7.173   1.422
26591W        W91851   3.298  33.907   1.015
26592W        W91852   8.370  13.278  11.179
26593W        W91853  28.808   9.684   3.711
26594W        W91854   5.171   4.972  13.528
26595W        W91855   0.152   4.215   0.812
26596W        W91856   5.325  39.143   0.127
26597W        W91857  39.840  32.289  11.119
26598W        W91858  40.701  44.314   4.890
26599W        W91859  14.348  24.085  14.628
26600W        W91860  18.344  44.257  12.906
26601W        W91861  44.940  32.864  14.528
26602W        W91862  19.874  28.873   0.309
26603W        W91863  33.581  32.594  10.650
26604W        W91864   3.830  25.756   9.848
26605W        W91865  23.536   0.447   0.471
26606W        W91866  35.827  31.540   4.919
26607W        W91867   8.436   7.077  11.277
26608W        W91868  19.596   5.230   3.147
26609W        W91869   0.097  33.672   2.898
26610W        W91870  37.911  11.766  12.379
26611W        W91871   6.902  10.354   2.760
26612W        W91872  28.706  19.182  14.027
26613W        W91873  34.024  21.590   0.985
26614W        W91874   2.432  38.803  13.328
26615W        W91875  15.537  21.467   2.061
26616W        W91876  21.018   7.730  12.471
26617W        W91877  32.646  11.172  14.428
26618W        W91878  26.932   9.690  12.466
26619W        W91879  32.189  17.846   2.895
26620W        W91880  40.311  43.354   3.763
26621W        W91881  14.741  27.993   2.779
26622W        W91882  26.068  35.182   4.262
26623W        W91883   9.764  22.864  11.696
26624W        W91884  17.232  29.008  12.096
26625W        W91885  44.339   3.932   0.449
26626W        W91886   2.386   5.373  14.307
26627W        W91887  24.105  29.503  12.530
26628W        W91888  18.150  18.792   1.003
26629W        W91889  14.316  29.170  14.544
26630W        W91890   5.578  21.593  13.309
26631W        W91891   8.775  41.063  11.928
26632W        W91892   0.296  33.992   0.699
26633W        W91893   7.278  36.510  10.718
26634W        W91894  32.553  44.476  11.455
26635W        W91895  31.844   4.181   1.881
26636W        W91896  39.040  43.465   3.637
26637W        W91897  38.854  37.614  10.991
26638W        W91898  35.962  39.403   4.913
26639W        W91899  16.745   8.137  14.841
26640W        W91900  34.591  25.011  14.276
26641W        W91901   2.339  13.131  12.875
26642W        W91902  14.755  18.824   2.127
26643W        W91903  27.286  34.070  11.599
26644W        W91904  14.286  44.615  13.878
26645W        W91905  24.174  27.754   4.567
26646W        W91906   7.372  13.271   0.430
26647W        W91907  44.664  38.518  10.677
26648W        W91908   6.864   0.244  14.875
26649W        W91909  11.868  39.979   3.853
26650W        W91910  43.205  29.551  13.728
26651W        W91911  32.588  11.664  14.334
26652W        W91912  41.988  33.963  11.200
26653W        W91913  13.885  31.366   4.195
26654W        W91914   9.694  12.102   1.439
26655W        W91915  31.433   3.243  10.377
26656W        W91916   1.560  18.804   3.762
26657W        W91917  14.293  32.209   1.512
26658W        W91918  30.601  34.630   1.959
26659W        W91919  38.140   5.385   5.566
26660W        W91920   2.774   5.013   0.733
26661W        W91921   8.512  32.256  12.733
26662W        W91922  43.992  37.985   0.692
26663W        W91923  11.327  26.926  14.334
26664W        W91924  12.781  12.141   3.816
26665W        W91925  41.016  24.011   3.102
26666W        W91926  19.344  12.369   2.197
26667W        W91927  44.225  44.561  11.614
26668W        W91928  32.714   4.748  12.390
26669W        W91929  18.202   7.845   1.515
26670W        W91930  44.573  31.033  14.533
26671W        W91931   3.416  40.352   0.260
26672W        W91932  26.570  37.041  14.993
26673W        W91933  30.445  36.468   2.491
26674W        W91934  26.121   7.191  13.150
26675W        W91935  25.191   7.821   1.254
26676W        W91936  24.085   8.208   0.769
26677W        W91937  21.079  36.728  14.223
26678W        W91938  25.485  13.708   1.797
26679W        W91939  40.781  30.061  12.982
26680W        W91940  12.852  35.510  11.456
26681W        W91941  30.530  26.567   1.066
26682W        W91942  19.130  14.319   0.773
26683W        W91943   0.698  40.409  13.394
26684W        W91944  21.002  39.828  11.502
26685W        W91945   0.896  38.940   2.814
26686W        W91946  42.041  22.663  13.339
26687W        W91947   2.801   0.034   2.136
26688W        W91948  23.789  10.970   0.591
26689W        W91949   1.159   9.185   0.692
26690W        W91950  43.053   8.827  10.574
26691W        W91951  29.132  25.711  14.147
26692W        W91952  29.064  14.406  12.626
26693W        W91953  35.991  44.741   2.844
26694W        W91954  29.604  36.337  10.745
26695W        W91955  30.495  18.502  14.905
26696W        W91956  36.064  17.505  13.773
26697W        W91957  14.144  41.436   2.312
26698W        W91958  10.874  30.852   0.965
26699W        W91959   8.888  32.150   2.223
26700W        W91960  26.980  33.395   1.408
26701W        W91961  19.577  14.077   0.946
26702W        W91962  18.716  33.866   3.319
26703W        W91963   3.456  40.363  13.046
26704W        W91964  14.370  36.019   1.431
26705W        W91965  30.513  31.190  14.008
26706W        W91966  23.461  23.118   3.257
26707W        W91967   8.736   0.329   3.187
26708W        W91968  34.454  17.344   2.414
26709W        W91969  27.614  25.226  12.966
26710W        W91970  44.425   2.954   3.737
26711W        W91971   6.141  20.939  10.691
26712W        W91972   8.927   1.482  12.104
26713W        W91973   8.228  36.109  14.277
26714W        W91974  34.350   5.672   1.790
26715W        W91975  22.004  22.610  13.411
26716W        W91976  25.013  44.791  11.127
26717W        W91977   3.612   3.829  14.053
26718W        W91978  36.768  25.530   0.860
26719W        W91979  24.464  23.188  12.194
26720W        W91980  24.688  16.229  12.066
26721W        W91981  10.598  44.989  12.008
26722W        W91982  43.711  24.637  10.529
26723W        W91983  25.468  18.207   0.882
26724W        W91984   0.330  19.286  12.188
26725W        W91985  10.338   9.883  14.342
26726W        W91986   9.003  30.419  12.402
26727W        W91987  24.772  19.755  14.012
26728W        W91988  41.045  24.392  13.559
26729W        W91989  23.571  12.197  14.719
26730W        W91990   1.815   7.219  14.553
26731W        W91991  37.738  26.063  13.464
26732W        W91992   6.922  17.576   1.384
26733W        W91993  14.490  15.210  10.992
26734W        W91994  39.287  36.921  13.181
26735W        W91995  40.752  28.716   3.366
26736W        W91996   5.321  22.580   2.644
26737W        W91997  38.775  29.095  12.941
26738W        W91998  19.866   0.779   4.030
26739W        W91999  32.085  43.701  11.558
26740W        W92000   1.970   1.227  14.611
26741W        W92001  35.383   1.990   2.635
26742W        W92002   4.942  12.032   4.304
26743W        W92003  10.825  10.283  13.043
26744W        W92004  19.102  32.053   1.445
26745W        W92005  23.254  17.173  11.477
26746W        W92006  32.394  30.384   3.686
26747W        W92007  27.154  40.040  12.362
26748W        W92008  13.799  42.879  12.991
26749W        W92009   4.579  34.519   4.883
26750W        W92010   0.391  11.885   0.976
26751W        W92011  28.716  24.976   0.759
26752W        W92012   8.120  28.167  13.454
26753W        W92013  30.552  11.591  10.661
26754W        W92014   5.671  21.702   2.940
26755W        W92015   3.751  39.510  14.931
26756W        W92016   2.812  17.803   4.271
26757W        W92017  16.856  31.060   1.873
26758W        W92018  21.088  24.193  13.270
26759W        W92019  17.646   8.429  11.017
26760W        W92020  18.127   1.765   3.646
26761W        W92021   0.464  21.506  13.378
26762W        W92022   4.359   5.086  10.694
26763W        W92023  12.796  23.039   4.691
26764W        W92024  37.119  25.100   1.792
26765W        W92025  35.869  13.930   4.781
26766W        W92026  32.413   5.652   1.810
26767W        W92027  20.689  14.443  11.650
26768W        W92028   3.436   3.045  11.453
26769W        W92029   0.870  23.508  13.645
26770W        W92030   3.342  34.154   0.324
26771W        W92031  42.736  28.621   2.316
26772W        W92032   2.165  32.402   3.797
26773W        W92033  44.327  20.401  11.445
26774W        W92034  14.860  44.383  12.667
26775W        W92035  18.740   8.347  13.380
26776W        W92036  20.097   5.643  10.020
26777W        W92037   6.070  34.573   0.685
26778W        W92038   8.481   3.701   3.242
26779W        W92039   7.398  12.715   4.545
26780W        W92040  13.171   2.167   1.856
26781W        W92041  43.832   2.839   1.018
26782W        W92042   4.819  26.622  11.481
26783W        W92043  10.636   3.286  12.549
26784W        W92044  26.926  44.500   0.970
26785W        W92045   7.883  29.536  12.422
26786W        W92046  17.505  28.037  13.491
26787W        W92047  25.127  17.459   4.936
26788W        W92048  23.572   2.501   5.536
26789W        W92049  27.462   0.840   1.568
26790W        W92050   2.152  22.407  12.379
26791W        W92051  30.025  37.337   1.717
26792W        W92052  18.873  44.391  10.535
26793W        W92053   5.899  34.834  13.321
26794W        W92054  38.384  42.420   1.729
26795W        W92055  19.120  31.589  14.240
26796W        W92056   0.144  24.579  11.116
26797W        W92057   7.602  10.920  10.985
26798W        W92058  33.522  34.367   3.679
26799W        W92059   2.774  32.024  12.249
26800W        W92060   1.954  28.726   4.122
26801W        W92061   7.801  33.097   0.366
26802W        W92062  10.248  28.839   3.573
26803W        W92063  13.778   1.193   2.134
26804W        W92064  23.764   9.759   2.914
26805W        W92065  12.268  26.249  12.035
26806W        W92066  19.551  17.794   0.980
26807W        W92067  17.245  18.111  12.984
26808W        W92068  28.637  36.677  14.359
26809W        W92069  39.454  26.753   4.857
26810W        W92070  35.570  19.222   0.623
26811W        W92071   8.703  24.660  11.624
26812W        W92072  41.596  34.319  13.518
26813W        W92073   6.626  12.422   1.522
26814W        W92074   5.157  12.744  11.870
26815W        W92075  41.628  18.090   4.039
26816W        W92076  40.544  11.128  11.578
26817W        W92077   1.460  40.557   2.647
26818W        W92078   0.774  43.711  13.099
26819W        W92079  36.479  12.636  13.961
26820W        W92080   4.315   6.497  12.367
26821W        W92081  41.348  16.859  11.154
26822W        W92082  30.115   5.766  13.557
26823W        W92083  36.957   8.107  13.151
26824W        W92084  42.767  26.045  13.400
26825W        W92085  21.237   8.402  14.459
26826W        W92086  42.236   0.872  12.984
26827W        W92087  28.377  21.871  10.159
26828W        W92088  11.810  28.711  11.084
26829W        W92089   8.441  38.380   1.798
26830W        W92090   5.372  25.429   1.756
26831W        W92091  44.260   6.320  12.481
26832W        W92092  40.168  38.032  14.318
26833W        W92093  29.657  17.531  13.568
26834W        W92094  22.836  28.207  11.605
26835W        W92095  20.769  30.595  12.976
26836W        W92096  19.583  15.732  11.069
26837W        W92097  35.411  41.532  12.528
26838W        W92098   7.833  32.203   3.140
26839W        W92099  13.168  34.855  12.612
26840W        W92100  30.208  29.082   1.396
26841W        W92101  21.800   4.141  12.477
26842W        W92102  39.885   3.319  13.456
26843W        W92103  10.987  32.647   2.834
26844W        W92104  40.540  29.631  12.769
26845W        W92105  43.303  16.986  11.531
26846W        W92106   6.518  44.516  12.489
26847W        W92107   8.296  36.039   4.729
26848W        W92108  26.221  40.801   4.570
26849W        W92109   8.432  31.324   0.779
26850W        W92110  18.582  26.608   1.796
26851W        W92111  12.289   6.307   3.098
26852W        W92112  29.066   1.017  14.947
26853W        W92113  12.274  43.603  12.353
26854W        W92114  29.304  35.859  10.330
26855W        W92115   4.789  24.512  10.706
26856W        W92116  28.500   1.291  12.922
26857W        W92117  36.979  40.564  14.688
26858W        W92118  34.433  33.475  14.779
26859W        W92119  37.517  22.302   2.760
26860W        W92120  30.088  40.897   1.930
26861W        W92121   5.494   1.011   4.459
26862W        W92122   1.273  44.768  11.522
26863W        W92123  29.131   1.511  12.413
26864W        W92124   9.218  36.519   4.764
26865W        W92125  16.827   8.853  12.871
26866W        W92126  14.977   2.357   2.114
26867W        W92127  12.679  14.474   1.948
26868W        W92128   4.797   8.473  13.405
26869W        W92129  12.144  16.093  11.618
26870W        W92130  41.824  31.860   4.150
26871W        W92131  13.121  21.369  13.096
26872W        W92132  20.326  18.901  14.247
26873W        W92133   9.955   6.633   3.577
26874W        W92134  30.903   0.766   3.291
26875W        W92135  42.863  39.809   0.390
26876W        W92136  14.276  13.234  12.577
26877W        W92137  38.323  24.714  12.965
26878W        W92138  14.508  44.967   4.690
26879W        W92139  28.661  21.967   1.234
26880W        W92140  36.480   0.984   2.313
26881W        W92141   6.221  35.839  13.254
26882W        W92142  36.948  22.523  14.615
26883W        W92143  36.197  43.275  11.078
26884W        W92144   2.214  37.548  14.999
26885W        W92145  37.203  35.540  14.311
26886W        W92146  40.783  37.843   3.697
26887W        W92147   9.563   3.784   0.295
26888W        W92148  43.238   5.702   2.385
26889W        W92149  33.078  13.345  11.397
26890W        W92150  20.575   2.109   4.128
26891W        W92151   0.659   4.689  10.552
26892W        W92152  24.948  26.801  13.139
26893W        W92153   2.621   5.261  12.716
26894W        W92154  15.546  19.493  11.871
26895W        W92155  34.610  31.946   3.138
26896W        W92156   5.330  39.820  13.019
26897W        W92157  23.173  23.036  11.505
26898W        W92158  13.732  27.110   3.468
26899W        W92159  39.212  27.779   1.314
26900W        W92160  30.694  34.353   3.323
26901W        W92161  40.975  29.924  12.524
26902W        W92162  34.805  27.131  12.941
26903W        W92163  16.999  17.752   0.032
26904W        W92164  14.188   5.287   2.760
26905W        W92165  16.775   1.493   0.989
26906W        W92166   5.198  21.110  12.891
26907W        W92167  17.347  38.507  13.572
26908W        W92168  26.458  10.168   1.827
26909W        W92169  27.360  38.757  13.414
26910W        W92170   6.733  41.016  14.704
26911W        W92171  35.479  35.591  13.330
26912W        W92172  25.594  44.345   3.918
26913W        W92173  24.214  21.285  11.102
26914W        W92174  36.941   6.718   1.280
26915W        W92175  18.959  23.657  11.859
26916W        W92176  44.489  40.563  12.856
26917W        W92177  39.342  22.708   3.292
26918W        W92178  23.937  23.699   2.208
26919W        W92179  15.935   6.674   1.835
26920W        W92180   4.390  35.402  14.271
26921W        W92181  17.596   0.727  10.213
26922W        W92182  13.087  32.183   3.156
26923W        W92183  19.296  12.873  13.388
26924W        W92184  10.247  33.339  12.580
26925W        W92185  12.815  31.988   2.744
26926W        W92186  24.663  15.723   5.117
26927W        W92187  41.739  27.981  11.144
26928W        W92188   1.776  15.860  13.514
26929W        W92189  29.424   2.447  10.781
26930W        W92190  30.385  24.485  10.714
26931W        W92191  41.426  25.123   0.406
26932W        W92192  29.878  16.005   0.158
26933W        W92193   5.795  21.418  12.029
26934W        W92194  13.814  24.049   1.874
26935W        W92195  34.154  14.815   2.301
26936W        W92196  13.720  16.821   0.438
26937W        W92197  27.015   7.618   2.247
26938W        W92198  15.116  13.099   3.048
26939W        W92199   8.636  34.822  12.901
26940W        W92200  35.885  34.731  14.780
26941W        W92201  13.852   9.232   0.860
26942W        W92202   5.912  17.758   2.280
26943W        W92203  35.405  35.157  12.334
26944W        W92204   3.741  17.559   4.822
26945W        W92205   4.951  18.073  11.107
26946W        W92206  12.812   1.720   0.965
26947W        W92207  31.315  18.937   2.867
26948W        W92208  39.853  35.851   4.875
26949W        W92209  13.632  24.134   3.208
26950W        W92210   3.908  32.972   3.350
26951W        W92211  14.396   1.992  11.676
26952W        W92212   2.783  23.174   4.219
26953W        W92213  28.063  37.497  13.423
26954W        W92214  32.291  20.547   0.287
26955W        W92215  36.490  21.751  14.362
26956W        W92216  41.485   5.907   2.668
26957W        W92217  27.659   6.358   3.257
26958W        W92218  44.917   8.238   3.874
26959W        W92219  20.975  39.781   3.830
26960W        W92220  42.085   9.046  14.052
26961W        W92221   9.572   1.386   3.603
26962W        W92222  29.539  42.083   2.910
26963W        W92223  39.445  38.026  10.905
26964W        W92224  10.867  11.301  14.537
26965W        W92225  19.993  27.572   4.169
26966W        W92226   1.111  43.181   5.009
26967W        W92227  33.427  35.354  10.733
26968W        W92228  33.521  17.298  12.942
26969W        W92229  44.908   0.983  13.549
26970W        W92230   9.949  37.283  10.161
26971W        W92231  31.368  39.903  12.356
26972W        W92232   0.847  30.377  10.699
26973W        W92233   3.170  28.684  12.529
26974W        W92234  22.746  11.476   3.745
26975W        W92235  18.148  22.419  11.061
26976W        W92236  31.510   2.239   0.256
26977W        W92237  42.731   0.718  14.901
26978W        W92238  36.571  10.121  12.269
26979W        W92239  11.671  43.987  13.085
26980W        W92240  36.380   8.697  10.555
26981W        W92241  29.149  19.185  14.310
26982W        W92242  27.373  22.348  12.774
26983W        W92243   6.184   3.257  11.540
26984W        W92244  30.353  44.795  11.877
26985W        W92245  24.879  23.290  13.063
26986W        W92246  19.750  27.119   4.232
26987W        W92247  23.476  10.842   1.354
26988W        W92248  32.177  10.641   2.246
26989W        W92249  37.314  30.032   2.250
26990W        W92250  12.109  13.235   0.717
26991W        W92251   4.857  41.541   4.554
26992W        W92252  23.673  26.988  13.990
26993W        W92253   9.799  27.482   1.375
26994W        W92254  28.713  24.222  13.453
26995W        W92255   1.279  12.743   3.493
26996W        W92256  36.468  17.289  14.029
26997W        W92257  15.275   8.800   0.779
26998W        W92258  33.615   8.754  11.996
26999W        W92259  16.686  44.017  14.726
27000W        W92260  34.942  13.182   4.574
27001W        W92261  44.726  28.145   2.893
27002W        W92262  11.680  26.632   0.472
27003W        W92263   4.465  11.007  12.432
27004W        W92264  16.843  24.170   0.899
27005W        W92265   2.985  20.256  11.097
27006W        W92266  24.555  27.535   1.414
27007W        W92267  39.735  30.079  13.048
27008W        W92268  25.634  41.420  14.285
27009W        W92269  14.896  33.114   0.275
27010W        W92270  42.712  27.719   3.765
27011W        W92271  36.122  14.094   1.155
27012W        W92272  28.955  16.922   0.750
27013W        W92273  21.706  11.195   3.151
27014W        W92274   9.930  40.226   1.877
27015W        W92275  10.320  19.260  13.177
27016W        W92276  23.606  42.363   4.898
27017W        W92277  30.568  30.530   4.600
27018W        W92278  36.617  16.088   1.893
27019W        W92279  16.331   7.460   3.504
27020W        W92280  29.034  21.443   4.771
27021W        W92281  33.620  11.191  14.490
27022W        W92282  13.781  30.899  13.911
27023W        W92283  21.100  37.333   1.683
27024W        W92284  12.936  14.186  11.064
27025W        W92285  42.734   2.008  12.202
27026W        W92286  29.593  42.433  11.452
27027W        W92287  14.107  14.967   0.376
27028W        W92288  12.838  20.930   2.090
27029W        W92289  22.137  17.198   2.742
27030W        W92290  16.686  35.382  11.636
27031W        W92291  39.109  34.839  14.383
27032W        W92292  26.890  15.546   0.885
27033W        W92293  31.188  23.467  13.924
27034W        W92294  26.454   6.793   2.870
27035W        W92295  19.119  16.224  12.061
27036W        W92296   5.409  42.360  10.833
27037W        W92297  13.660   9.153   2.871
27038W        W92298  42.326  28.542   3.214
27039W        W92299   9.666  14.206   1.948
27040W        W92300  29.075  44.836  11.522
27041W        W92301   2.009  34.290  10.658
27042W        W92302   4.436  32.378   3.205
27043W        W92303  26.187  19.950   1.879
27044W        W92304  10.788  19.695   0.022
27045W        W92305  43.069   4.969   0.528
27046W        W92306  12.290   4.263  13.512
27047W        W92307  13.662  14.596   2.775
27048W        W92308  30.079  19.516  11.136
27049W        W92309  32.912  11.778  14.801
27050W        W92310  43.877  30.406  11.713
27051W        W92311  22.138  30.377  14.874
27052W        W92312  30.588  38.230   2.771
27053W        W92313   5.724  25.535   0.257
27054W        W92314  30.012  18.288   1.035
27055W        W92315  35.109  30.759  14.425
27056W        W92316  15.679   0.006   3.489
27057W        W92317  31.205   2.407  13.843
27058W        W92318   4.072   3.958   3.403
27059W        W92319  33.593  12.131   3.691
27060W        W92320  16.723   2.297  12.241
27061W        W92321   9.345   9.526  11.097
27062W        W92322  17.820  37.397  13.378
27063W        W92323  28.911  27.006  12.518
27064W        W92324  41.428   0.764  12.281
27065W        W92325   6.263  32.882  11.547
27066W        W92326  10.901   9.229  12.869
27067W        W92327   4.601  34.089   4.582
27068W        W92328  17.842  28.831   2.250
27069W        W92329  24.697  21.660   4.115
27070W        W92330   2.453  16.850   3.205
27071W        W92331  15.185  12.169   4.745
27072W        W92332  22.082  40.746   4.029
27073W        W92333  42.816  33.969  12.143
27074W        W92334  21.490  33.102   0.345
27075W        W92335  17.932   5.111   1.384
27076W        W92336   4.647  12.985   4.765
27077W        W92337  39.025   2.910   1.447
27078W        W92338  33.206  29.181  10.642
27079W        W92339   6.435   5.848  13.007
27080W        W92340  14.732  24.163  14.317
27081W        W92341  16.724   5.173   1.978
27082W        W92342  37.305  38.771  12.361
27083W        W92343  11.158  43.284   3.688
27084W        W92344  11.696   3.272   2.680
27085W        W92345  31.433  12.839   2.220
27086W        W92346  12.773  18.270  11.893
27087W        W92347   5.885   3.606   0.711
27088W        W92348   3.335  22.463  11.102
27089W        W92349  36.299  10.078   4.142
27090W        W92350  24.597  39.339   4.983
27091W        W92351  20.300   3.452  13.941
27092W        W92352  40.269  24.441   3.691
27093W        W92353  44.299  35.635  14.829
27094W        W92354  30.318  14.229   0.279
27095W        W92355  31.423  13.183   2.600
27096W        W92356  43.516  20.191   4.863
27097W        W92357   1.296  20.892  13.564
27098W        W92358  14.637  24.139   2.365
27099W        W92359  15.032  29.069   4.650
27100W        W92360  16.417  22.517   3.089
27101W        W92361   9.567   1.818  12.513
27102W        W92362  22.056  43.459   2.829
27103W        W92363  37.795  42.678   5.169
27104W        W92364  28.180  36.949  10.495
27105W        W92365  10.734  37.051   2.751
27106W        W92366  10.138  37.394   1.244
27107W        W92367   9.940  21.222   2.013
27108W        W92368  16.501  17.520  13.109
27109W        W92369   1.609   3.949   3.562
27110W        W92370  12.515  31.192  10.930
27111W        W92371  17.809  23.765   3.658
27112W        W92372  18.359  33.993  14.976
27113W        W92373  12.115  25.763  11.926
27114W        W92374   1.122   5.313   2.609
27115W        W92375  14.129   3.943  10.734
27116W        W92376  27.767  13.678   0.970
27117W        W92377   6.748   8.739   4.722
27118W        W92378  20.799  30.995   0.968
27119W        W92379  41.617  18.687  14.503
27120W        W92380  20.177  30.630  14.773
27121W        W92381   7.771   9.635   0.780
27122W        W92382   5.176  11.637   1.107
27123W        W92383  23.615  12.732   2.727
27124W        W92384  36.430   2.349   2.721
27125W        W92385  17.118   6.424   1.071
27126W        W92386  43.472  19.219   0.977
27127W        W92387  21.558  33.428  10.668
27128W        W92388  25.136  44.923  12.434
27129W        W92389  16.275  27.577  12.969
27130W        W92390  17.080   9.958  13.900
27131W        W92391  23.884  11.568  11.565
27132W        W92392  12.430  11.334   2.465
27133W        W92393  26.305  21.667  11.714
27134W        W92394  33.622  16.787  12.963
27135W        W92395  23.549  36.877   5.632
27136W        W92396  38.503  40.316   4.613
27137W        W92397  41.440   8.205   3.437
27138W        W92398   5.822   3.630  10.457
27139W        W92399  13.563  21.076  12.659
27140W        W92400  16.565  33.176   1.741
27141W        W92401  23.319   2.618   1.665
27142W        W92402  20.315   2.209  13.307
27143W        W92403   0.523  33.381  14.411
27144W        W92404  32.875  21.102   4.957
27145W        W92405   6.850  43.303  11.575
27146W        W92406  42.752  26.682   0.259
27147W        W92407  18.467   8.199  12.937
27148W        W92408  36.469  26.208  13.944
27149W        W92409  20.783   7.037   0.264
27150W        W92410   1.851   0.023   1.344
27151W        W92411  30.307  17.745   1.478
27152W        W92412   9.907   4.928   2.713
27153W        W92413  11.164  40.978   2.735
27154W        W92414  22.182   7.290  13.509
27155W        W92415  39.537  39.775  13.487
27156W        W92416  10.099  25.087  14.973
27157W        W92417   7.991  28.984   3.339
27158W        W92418  41.308  12.183  12.515
27159W        W92419  42.152  15.596   3.700
27160W        W92420  33.625  38.984   3.247
27161W        W92421  15.645  30.576  11.417
27162W        W92422  22.710  39.507  13.443
27163W        W92423  24.043  30.001  10.714
27164W        W92424  28.387  24.131  11.187
27165W        W92425  19.152  24.179   1.210
27166W        W92426  32.664  22.078   0.784
27167W        W92427  19.286   3.028   4.205
27168W        W92428  29.059  21.517   1.469
27169W        W92429   7.923  14.227   2.305
27170W        W92430  11.358   1.841   4.172
27171W        W92431  43.247  27.497  14.884
27172W        W92432  41.519  15.629   1.533
27173W        W92433  38.600  28.048  11.989
27174W        W92434  12.654  16.580   0.792
27175W        W92435  29.043  29.038   4.445
27176W        W92436   1.942  24.467   2.394
27177W        W92437  44.960   7.736  11.553
27178W        W92438  25.570   0.483  14.383
27179W        W92439  18.630   9.577  13.060
27180W        W92440  43.041  30.242  11.885
27181W        W92441  24.170  10.736   2.001
27182W        W92442  14.293   7.832   4.628
27183W        W92443  27.609  18.190   1.425
27184W        W92444  39.374  21.715  11.217
27185W        W92445  20.679  38.580  12.634
27186W        W92446  34.388  21.684  12.659
27187W        W92447   8.145  24.132   1.824
27188W        W92448  37.565  39.822   0.276
27189W        W92449  42.800  30.614   0.589
27190W        W92450  25.104  16.669   5.396
27191W        W92451  43.602   6.358  11.472
27192W        W92452  33.063  12.037   0.846
27193W        W92453  24.262   2.309  10.638
27194W        W92454  39.444  11.843   0.815
27195W        W92455  11.759  28.201  13.260
27196W        W92456  12.803  30.021   3.631
27197W        W92457  38.817  14.725   2.833
27198W        W92458  29.711   5.745  10.587
27199W        W92459  13.836   6.226   3.750
27200W        W92460  31.455  43.564   0.839
27201W        W92461  12.574  27.707  14.517
27202W        W92462  27.240  30.288   4.064
27203W        W92463  40.491   8.838  12.080
27204W        W92464   2.269  31.996  12.207
27205W        W92465  17.899  21.037  13.980
27206W        W92466  43.947  19.478  13.841
27207W        W92467  43.409  43.266   4.752
27208W        W92468  13.126  26.121  13.500
27209W        W92469  29.412  42.312  14.697
27210W        W92470   3.885   7.957   1.203
27211W        W92471  14.547   2.198   4.259
27212W        W92472  38.244  17.323  11.467
27213W        W92473  17.775  32.692   2.705
27214W        W92474   9.104  29.114   2.655
27215W        W92475  34.390  22.119  12.926
27216W        W92476  35.991  20.281   3.176
27217W        W92477   4.350  39.926  12.814
27218W        W92478   8.515  42.727   4.155
27219W        W92479  26.095  12.293  12.455
27220W        W92480  19.523   8.382   2.820
27221W        W92481   3.831   2.310   3.888
27222W        W92482  29.525  32.861   1.803
27223W        W92483  41.916  10.323   0.755
27224W        W92484   4.415  23.192   3.180
27225W        W92485  24.135   3.384   3.605
27226W        W92486  20.620  23.116   4.267
27227W        W92487  38.533  21.032  10.574
27228W        W92488  28.100  17.665   9.674
27229W        W92489   5.491   6.444   3.561
27230W        W92490  37.905  14.230   2.595
27231W        W92491  41.741  22.434   3.719
27232W        W92492  32.579  15.655   0.348
27233W        W92493  44.271   0.088  10.538
27234W        W92494   2.960  39.149  12.067
27235W        W92495   9.756  28.607  10.469
27236W        W92496  29.578  42.311  10.946
27237W        W92497  30.004   5.446  13.022
27238W        W92498   6.833  27.081  14.087
27239W        W92499  18.747  23.836   1.325
27240W        W92500  23.891   7.137  10.300
27241W        W92501  34.459  25.521   1.893
27242W        W92502   6.847  26.315  13.566
27243W        W92503  43.746  24.523   1.200
27244W        W92504  24.473   4.457   0.320
27245W        W92505  41.128   8.739  11.578
27246W        W92506  32.665  12.732   0.225
27247W        W92507  44.932  24.602   0.018
27248W        W92508  44.729  29.481  10.455
27249W        W92509   1.134  33.344  10.495
27250W        W92510   7.321  30.527  12.954
27251W        W92511  36.098  37.415   4.216
27252W        W92512  36.603   4.986  14.059
27253W        W92513  44.929  15.369   4.092
27254W        W92514  31.614  38.783   0.604
27255W        W92515  25.716  18.265  13.938
27256W        W92516  23.337  15.517  14.347
27257W        W92517  25.194  44.698   2.330
27258W        W92518  29.859  39.568  13.806
27259W        W92519   1.909  18.228   3.179
27260W        W92520  31.913  22.545   0.913
27261W        W92521  42.007  42.180   4.221
27262W        W92522  26.795   7.690  14.123
27263W        W92523   5.810   0.816   0.389
27264W        W92524  21.014  35.205  10.735
27265W        W92525  29.739  34.079   0.691
27266W        W92526   2.188  22.265   2.637
27267W        W92527  37.923  26.780   2.692
27268W        W92528  40.350  15.168   1.724
27269W        W92529   5.226  44.215  13.458
27270W        W92530   9.796  41.639   1.428
27271W        W92531  19.221  14.261   1.287
27272W        W92532  24.914   1.334  14.328
27273W        W92533  21.771   6.421   1.530
27274W        W92534  41.481  33.467  13.650
27275W        W92535   2.221  17.012   0.288
27276W        W92536  14.704  37.070   2.716
27277W        W92537  23.103  43.754   0.279
27278W        W92538  25.464  41.921   0.533
27279W        W92539  33.346  33.676   0.717
27280W        W92540  22.475  40.499   3.219
27281W        W92541  41.870  26.124   2.645
27282W        W92542   4.528  15.682   5.273
27283W        W92543  11.244  10.003  12.959
27284W        W92544  26.732   4.698   9.852
27285W        W92545  22.000  33.725   9.803
27286W        W92546  21.520  17.160   1.670
27287W        W92547  13.780  22.970   2.662
27288W        W92548  25.890  44.568   3.153
27289W        W92549  41.434   4.796  13.790
27290W        W92550  34.005  39.549  14.723
27291W        W92551  12.768  11.702   4.827
27292W        W92552  30.108  43.003  13.947
27293W        W92553  44.002   0.048   4.853
27294W        W92554  23.257  20.990   2.982
27295W        W92555  20.477  25.790   4.775
27296W        W92556  28.631   9.723  13.241
27297W        W92557  24.305  16.216   0.231
27298W        W92558  43.221  21.777  11.038
27299W        W92559  24.350  41.775  13.520
27300W        W92560  29.814  36.519  11.180
27301W        W92561   9.068  13.800   3.354
27302W        W92562  22.153  41.813  12.880
27303W        W92563  36.435  43.231   3.603
27304W        W92564   8.916  43.718   3.850
27305W        W92565  38.910  13.286  11.309
27306W        W92566  30.076  38.024   4.700
27307W        W92567   1.660   1.898  13.841
27308W        W92568  32.673  13.397  11.078
27309W        W92569   7.961  30.444   0.458
27310W        W92570  24.807  19.098   2.266
27311W        W92571  30.021  12.252  13.173
27312W        W92572  14.555  33.984   0.709
27313W        W92573  38.539  29.984  14.309
27314W        W92574   6.179  27.092   3.767
27315W        W92575  40.942  14.704   2.159
27316W        W92576   3.764  41.318  12.564
27317W        W92577   2.290  22.686  11.900
27318W        W92578  21.257   6.744  14.994
27319W        W92579  15.317  32.491   0.342
27320W        W92580  43.496  26.079   3.800
27321W        W92581   4.866  34.932   0.301
27322W        W92582  19.029  37.903   2.446
27323W        W92583  33.068  43.117  11.606
27324W        W92584  32.157  13.409   4.565
27325W        W92585  18.236  30.518  12.539
27326W        W92586  44.815  40.865   4.543
27327W        W92587  44.354   3.707  14.103
27328W        W92588  24.446  33.387  13.051
27329W        W92589  10.704  14.639  10.421
27330W        W92590  22.536   2.744   3.014
27331W        W92591  43.753  32.507   0.725
27332W        W92592  11.606   7.142   0.361
27333W        W92593  24.351  26.657   2.406
27334W        W92594   2.502   6.887   1.154
27335W        W92595  27.995  42.960   1.775
27336W        W92596  39.056   1.757   1.869
27337W        W92597  28.931  39.476   0.353
27338W        W92598  30.341  37.071  13.708
27339W        W92599  37.044  40.043   3.154
27340W        W92600  31.095  19.817   5.093
27341W        W92601  32.136   8.283  13.408
27342W        W92602   5.436  35.505  12.722
27343W        W92603  39.558  12.301   0.547
27344W        W92604  24.426  10.456   0.861
27345W        W92605  25.076   7.265   0.529
27346W        W92606  11.676  17.806   4.105
27347W        W92607  30.936  36.100  11.611
27348W        W92608  27.813   7.259   1.403
27349W        W92609  18.097  23.620   0.729
27350W        W92610  15.324  33.601   2.662
27351W        W92611  21.750  41.854   1.342
27352W        W92612  30.919   4.104  10.701
27353W        W92613  35.331   4.690  11.966
27354W        W92614  21.389  26.728   3.789
27355W        W92615   9.449  31.150  11.092
27356W        W92616  34.388  40.784   0.524
27357W        W92617  21.302  11.752  12.559
27358W        W92618  13.731  20.491  10.594
27359W        W92619   1.769  33.991   3.947
27360W        W92620  32.117  22.431  13.342
27361W        W92621   4.724  21.299   1.418
27362W        W92622  43.080   3.264   1.270
27363W        W92623  40.929  22.592  10.910
27364W        W92624   9.721   3.283  12.694
27365W        W92625   8.297  25.570  13.112
27366W        W92626  31.025   8.805  11.633
27367W        W92627  17.635  31.680  13.436
27368W        W92628  20.373  20.685  10.928
27369W        W92629  21.272  39.512   5.077
27370W        W92630  28.515  43.321  14.005
27371W        W92631  26.006  28.138   1.359
27372W        W92632  34.503  35.893  14.554
27373W        W92633  18.801  32.420   1.944
27374W        W92634  13.699  42.135   4.724
27375W        W92635  24.052  33.468  12.018
27376W        W92636   0.748  34.138   0.903
27377W        W92637  13.516  33.389   3.812
27378W        W92638  38.127  20.892  13.485
27379W        W92639  31.143  39.745  11.520
27380W        W92640   8.659  17.792   3.821
27381W        W92641   2.909  41.326   3.927
27382W        W92642  36.012   9.186   4.098
27383W        W92643   9.688  38.893  10.609
27384W        W92644   6.237   7.260  13.833
27385W        W92645  30.422  16.935  13.109
27386W        W92646   6.591  21.822  11.980
27387W        W92647   1.775  13.367  10.532
27388W        W92648  44.006  35.998   2.844
27389W        W92649  20.023  43.526   4.715
27390W        W92650   4.375  30.210  14.826
27391W        W92651  23.036  41.415  12.567
27392W        W92652  38.587  24.995  14.169
27393W        W92653  27.085  28.971   3.646
27394W        W92654  12.204   4.650   1.799
27395W        W92655  35.390   3.325   3.922
27396W        W92656  30.657  11.151  14.468
27397W        W92657   9.708  23.254   4.157
27398W        W92658  27.213  38.847   2.678
27399W        W92659  40.115  13.786   0.406
27400W        W92660  14.682  16.575   1.720
27401W        W92661  11.114  20.124  13.510
27402W        W92662  13.489  13.785   1.212
27403W        W92663  13.377   5.543  12.221
27404W        W92664  25.607  20.566   5.001
27405W        W92665  16.094  22.977   1.326
27406W        W92666  26.924  26.179  11.549
27407W        W92667  34.931  18.760  10.927
27408W        W92668  42.464  41.220  13.464
27409W        W92669  36.546   3.232  11.348
27410W        W92670  41.210  24.094   2.398
27411W        W92671   7.558  14.410   1.000
27412W        W92672  43.973   9.219  10.725
27413W        W92673  27.231  16.715  10.910
27414W        W92674  38.314  19.536  13.470
27415W        W92675  20.041  26.372   3.640
27416W        W92676   0.724  34.015  14.465
27417W        W92677  27.548   4.753  10.788
27418W        W92678   8.776   2.018   1.661
27419W        W92679  14.109  13.736   4.269
27420W        W92680  31.993  43.930  10.675
27421W        W92681  31.153  37.501   2.834
27422W        W92682  29.703  21.780   3.770
27423W        W92683  24.431  18.017  13.457
27424W        W92684   9.868  18.329  10.646
27425W        W92685  33.328  32.957  11.471
27426W        W92686  42.338  38.770  11.934
27427W        W92687  30.827  20.636   4.469
27428W        W92688  38.631   7.309  13.012
27429W        W92689  20.227   7.700  13.857
27430W        W92690  44.481  44.338  14.987
27431W        W92691  39.960   9.086   0.937
27432W        W92692  36.343  12.576  11.002
27433W        W92693   0.889  37.888  14.444
27434W        W92694  13.312   0.723  11.571
27435W        W92695  41.045  32.937  14.476
27436W        W92696  29.248  20.040   3.150
27437W        W92697  30.517   3.454  12.045
27438W        W92698  28.465  41.486  10.445
27439W        W92699   7.825  21.155   4.499
27440W        W92700  40.546  30.758  11.501
27441W        W92701  35.567  41.671  14.394
27442W        W92702  21.036   9.637   3.472
27443W        W92703   3.557  14.598  14.961
27444W        W92704   0.819  44.766   4.454
27445W        W92705  11.319  34.499   4.431
27446W        W92706  27.137  37.081   2.196
27447W        W92707  23.415  14.677  12.022
27448W        W92708  12.148   5.247   2.658
27449W        W92709   4.717  37.888  12.674
27450W        W92710   8.143   5.010  10.714
27451W        W92711   7.270  16.853   4.590
27452W        W92712  11.523  43.203   3.311
27453W        W92713   4.412   5.782  12.999
27454W        W92714  32.864  19.209   3.293
27455W        W92715  10.453   0.905   0.859
27456W        W92716  14.253  31.105   4.617
27457W        W92717  11.379  28.138   1.840
27458W        W92718  31.598  19.262   0.276
27459W        W92719   4.712  35.949   2.216
27460W        W92720  40.373  36.317   0.355
27461W        W92721   8.238  29.850  12.003
27462W        W92722  22.008   0.941  12.446
27463W        W92723  37.534  29.667  12.921
27464W        W92724  27.251  40.736  13.441
27465W        W92725  38.390  41.406   3.637
27466W        W92726  10.890  34.999   0.977
27467W        W92727   0.458  11.378   0.830
27468W        W92728   9.781  35.456  10.618
27469W        W92729  42.967   3.343  10.811
27470W        W92730  43.890  25.656   1.017
27471W        W92731   7.576  39.866   4.576
27472W        W92732  42.856  19.286  11.738
27473W        W92733  11.217   5.222  12.306
27474W        W92734   4.951  10.403   0.437
27475W        W92735   0.795  21.127  12.621
27476W        W92736   0.241  15.442  12.903
27477W        W92737  24.196   5.057   1.686
27478W        W92738  22.380  28.720   0.787
27479W        W92739  25.354  11.138   3.562
27480W        W92740  30.005  12.802   3.256
27481W        W92741  44.950  36.075  13.311
27482W        W92742   0.937  30.717   0.735
27483W        W92743  24.020  31.977  11.127
27484W        W92744  38.024  20.618  12.212
27485W        W92745  32.931  20.339   1.757
27486W        W92746   0.860  41.563   2.876
27487W        W92747  12.200  30.351   2.597
27488W        W92748  42.346  42.502   2.775
27489W        W92749  20.212  39.557   2.173
27490W        W92750  41.644   6.140  12.532
27491W        W92751  13.917  26.717  14.282
27492W        W92752   2.734   4.804   4.143
27493W        W92753  14.697  20.093  12.541
27494W        W92754  36.519  27.369   1.807
27495W        W92755  29.610   1.876   1.034
27496W        W92756  41.363   6.375  13.927
27497W        W92757  37.436  35.592   1.970
27498W        W92758   7.737  39.702   3.818
27499W        W92759   4.012  42.419  14.268
27500W        W92760   5.394  16.090   2.199
27501W        W92761  11.865   1.068   3.188
27502W        W92762  27.183   4.023   2.017
27503W        W92763   7.832  10.306   5.156
27504W        W92764  26.244  38.543   1.414
27505W        W92765  44.421  15.538   4.220
27506W        W92766  12.364  11.262   1.468
27507W        W92767  15.251   5.800  13.524
27508W        W92768  29.557   1.489  14.031
27509W        W92769   0.951   6.467  14.855
27510W        W92770  20.216  35.422  10.206
27511W        W92771   3.474  41.819  12.601
27512W        W92772  37.427  29.671   1.884
27513W        W92773  40.872  26.192  14.900
27514W        W92774  35.822  25.211   0.732
27515W        W92775   9.638  35.084   1.332
27516W        W92776  23.477   1.887   4.203
27517W        W92777   0.469  43.620  13.535
27518W        W92778  10.361  15.171  11.040
27519W        W92779  21.822  30.288   4.105
27520W        W92780  23.932   7.378   5.237
27521W        W92781  17.601  20.064  14.534
27522W        W92782   9.537  18.139   3.149
27523W        W92783  29.414  16.546  12.532
27524W        W92784  30.123   5.955   0.826
27525W        W92785  34.589  23.433   2.349
27526W        W92786  39.946  19.835   4.228
27527W        W92787  28.119  42.051  13.409
27528W        W92788  18.185  32.840  14.494
27529W        W92789  39.464  13.819  13.955
27530W        W92790  21.953  31.153  13.424
27531W        W92791  10.823   6.886  12.088
27532W        W92792  39.687  22.045  12.043
27533W        W92793  16.049  18.762   2.815
27534W        W92794  26.662  37.818   4.185
27535W        W92795  43.202   3.284  12.637
27536W        W92796   5.960  41.960  13.825
27537W        W92797  18.555  12.273  12.417
27538W        W92798  21.249  35.258  11.507
27539W        W92799  32.650  31.106  12.818
27540W        W92800  32.493   1.936   4.608
27541W        W92801  30.117   3.043  11.214
27542W        W92802   6.721  40.744  14.270
27543W        W92803  28.987  23.713   4.064
27544W        W92804  13.319  23.250  12.960
27545W        W92805   4.300  21.511  10.471
27546W        W92806  40.439  18.284   3.700
27547W        W92807  24.171  40.852   0.257
27548W        W92808  35.912  37.037  11.624
27549W        W92809  15.815  30.009   0.781
27550W        W92810  13.948   7.767   3.373
27551W        W92811  26.070  40.856   4.063
27552W        W92812  17.036  38.449  11.992
27553W        W92813  38.074   5.301  14.828
27554W        W92814  35.116   7.860  11.882
27555W        W92815  26.298  29.493  11.673
27556W        W92816  23.144   8.168  11.492
27557W        W92817   8.688  39.818   1.353
27558W        W92818  12.304  38.552  13.352
27559W        W92819   8.844  42.033  12.107
27560W        W92820  29.125  13.132  13.810
27561W        W92821  19.320  33.192  11.149
27562W        W92822  30.622  28.858  12.969
27563W        W92823  14.073  15.511  12.203
27564W        W92824  35.517  33.334  11.957
27565W        W92825   6.238  11.916   2.042
27566W        W92826   1.051  40.309   2.889
27567W        W92827   6.448   6.340   3.220
27568W        W92828  32.811  14.901  14.920
27569W        W92829  34.158   7.911   3.732
27570W        W92830  39.019  10.822   3.148
27571W        W92831  18.652  19.178  12.894
27572W        W92832  13.133   4.111  13.981
27573W        W92833  37.030  12.715  11.534
27574W        W92834  36.762  11.130  13.437
27575W        W92835  31.115  40.332   3.322
27576W        W92836  36.068  44.259  12.629
27577W        W92837  17.093  12.712  12.569
27578W        W92838   8.168  39.984   4.566
27579W        W92839  33.555  42.705   1.332
27580W        W92840  44.768  26.132   2.414
27581W        W92841   2.998  10.676   0.466
27582W        W92842   8.327  31.182  14.249
27583W        W92843  28.764  13.083  12.219
27584W        W92844  22.677  21.035  13.998
27585W        W92845   4.413  14.654   2.381
27586W        W92846  19.929  37.250  10.678
27587W        W92847  12.812   3.149   0.712
27588W        W92848  11.318   7.075   4.058
27589W        W92849  34.459  30.629   4.572
27590W        W92850  24.419  43.479  12.832
27591W        W92851  31.215  14.016  10.264
27592W        W92852   9.809   1.486  11.596
27593W        W92853   5.301  21.517   1.470
27594W        W92854  41.860  18.525   3.582
27595W        W92855  35.083   1.269   1.474
27596W        W92856  17.659  30.605  14.301
27597W        W92857  23.163   8.099  14.800
27598W        W92858  12.314  40.313   1.780
27599W        W92859   4.841  37.498   3.697
27600W        W92860  41.981  16.283   1.857
27601W        W92861  33.317   9.963   4.300
27602W        W92862  40.048   9.194   4.244
27603W        W92863  35.155  40.559  10.642
27604W        W92864  21.692  44.462   1.773
27605W        W92865   0.710  19.550  14.331
27606W        W92866  34.094  13.800  12.414
27607W        W92867  17.317   0.575   3.650
27608W        W92868  23.141   7.858  11.060
27609W        W92869  28.395  17.565  14.971
27610W        W92870  38.354  36.598  13.453
27611W        W92871   4.204  12.685   3.665
27612W        W92872  28.712  10.838  11.967
27613W        W92873  26.430   7.713  10.017
27614W        W92874  32.310  40.502  14.326
27615W        W92875  20.130  43.186  12.394
27616W        W92876   0.965  44.681   1.719
27617W        W92877  19.217  34.693   4.363
27618W        W92878   9.705  43.506  13.984
27619W        W92879   5.817  29.596   3.215
27620W        W92880  32.583  43.022   4.671
27621W        W92881   4.278  29.961   0.364
27622W        W92882  38.888  11.341  12.558
27623W        W92883  32.828  22.006   3.873
27624W        W92884  12.695  39.626  14.195
27625W        W92885  15.091  19.479   5.604
27626W        W92886   2.106  28.073   4.560
27627W        W92887  34.863   2.201   2.788
27628W        W92888   7.015  44.903  10.903
27629W        W92889  11.372  23.740  12.828
27630W        W92890  26.983   8.812  10.788
27631W        W92891  41.457   3.377  12.425
27632W        W92892  38.042  39.801   1.495
27633W        W92893  23.564   3.709   3.747
27634W        W92894  31.687  21.180  10.280
27635W        W92895  44.504  21.708   1.300
27636W        W92896  25.145  43.797  14.343
27637W        W92897  39.899  12.877   4.406
27638W        W92898  38.517  19.086   1.237
27639W        W92899   5.780  40.159  10.993
27640W        W92900  15.235   5.700   0.926
27641W        W92901  36.889   7.884   1.749
27642W        W92902   0.793   4.211  13.813
27643W        W92903  15.995  21.595   1.355
27644W        W92904  35.000  29.192   0.502
27645W        W92905  25.195  37.343  12.868
27646W        W92906  19.100  24.171  14.837
27647W        W92907  26.966  19.870   2.745
27648W        W92908  10.779   2.079   2.332
27649W        W92909   1.924  13.448   3.931
27650W        W92910   3.751  30.999   0.781
27651W        W92911   9.269  15.827  12.029
27652W        W92912  36.356   1.831   1.355
27653W        W92913  44.260  21.410  11.148
27654W        W92914  23.655  31.084   4.655
27655W        W92915   1.640  34.522  12.009
27656W        W92916  38.292  43.066  11.563
27657W        W92917  21.052  10.241  14.466
27658W        W92918  11.739  11.149  10.883
27659W        W92919   3.898  24.063   3.091
27660W        W92920  25.157  11.051   2.098
27661W        W92921  39.227   5.019  11.395
27662W        W92922  20.514  28.221   1.638
27663W        W92923  19.632  10.162  10.831
27664W        W92924  16.923  10.564  13.856
27665W        W92925  42.336  34.869  12.966
27666W        W92926   4.235  39.915   2.264
27667W        W92927  31.050   7.665   0.984
27668W        W92928  37.513  17.673  11.634
27669W        W92929  42.553   8.819   3.719
27670W        W92930  33.884  30.375   1.830
27671W        W92931   9.287   5.445  11.069
27672W        W92932   8.292   6.705  14.428
27673W        W92933  27.064  36.751   3.619
27674W        W92934  40.281   2.583  12.673
27675W        W92935  17.688  31.629   4.838
27676W        W92936  13.221  35.282  13.936
27677W        W92937   5.902  16.259  10.740
27678W        W92938   5.191  36.368  12.912
27679W        W92939   3.244   4.818   2.064
27680W        W92940   5.425  26.695   1.479
27681W        W92941  40.580  20.802   0.097
27682W        W92942  39.029  35.341  14.451
27683W        W92943   9.851  11.035   0.601
27684W        W92944   9.867  35.105  11.346
27685W        W92945   8.701  20.075  11.071
27686W        W92946  40.780  39.480  11.462
27687W        W92947  19.649  22.385  14.956
27688W        W92948   6.027  14.218  11.875
27689W        W92949  27.372   6.203  12.034
27690W        W92950  23.534  42.362  14.645
27691W        W92951  42.422  27.977  13.349
27692W        W92952   9.817  13.083   1.297
27693W        W92953  38.039  23.342   0.184
27694W        W92954   0.974  23.032  11.591
27695W        W92955  35.229  39.763  13.844
27696W        W92956  44.181  18.756   4.107
27697W        W92957  12.679  41.929   4.195
27698W        W92958  39.784  16.346  12.801
27699W        W92959  22.547  30.569  13.984
27700W        W92960  34.426  22.508  13.560
27701W        W92961  10.371  27.063   2.960
27702W        W92962  41.754  15.351  12.570
27703W        W92963  23.026   5.721  12.682
27704W        W92964  33.686  37.455  12.465
27705W        W92965   9.724  41.605  11.450
27706W        W92966  25.072  26.086  12.957
27707W        W92967  11.203   7.671   0.887
27708W        W92968  27.389  23.448  10.470
27709W        W92969   4.706  33.106   0.618
27710W        W92970  14.481  38.394   4.671
27711W        W92971  27.280  38.992   3.881
27712W        W92972  19.785  13.094   4.582
27713W        W92973  17.474   7.109   2.397
27714W        W92974  10.209  31.114   4.116
27715W        W92975  26.567  37.313   3.318
27716W        W92976  39.721   5.509   4.194
27717W        W92977  14.154   7.881  14.287
27718W        W92978  10.151   0.877  12.844
27719W        W92979  13.328  29.985  12.404
27720W        W92980  40.670   2.859   0.720
27721W        W92981   1.681  28.206   1.509
27722W        W92982  44.306  44.771  10.093
27723W        W92983  43.051  32.318   5.084
27724W        W92984  30.069  19.761  13.739
27725W        W92985   8.681  39.902   3.257
27726W        W92986   8.452  29.955  13.721
27727W        W92987   2.189  34.959   3.258
27728W        W92988  43.311  17.839   2.268
27729W        W92989   5.366  38.503  11.061
27730W        W92990   5.722   7.428   0.863
27731W        W92991  27.582  11.332   4.493
27732W        W92992  24.664  42.470  11.628
27733W        W92993  14.279   0.261   3.827
27734W        W92994   2.698   6.817  12.495
27735W        W92995  37.290  20.974   0.194
27736W        W92996  13.928   3.925   3.645
27737W        W92997  33.568   4.435   0.276
27738W        W92998  41.032   5.634  13.156
27739W        W92999  15.367  17.511  13.913
27740W        W93000  10.326  16.336  13.529
27741W        W93001  19.730  25.454   4.531
27742W        W93002   3.832  17.105   4.546
27743W        W93003  42.262   8.016  11.124
27744W        W93004  19.309  23.609  10.595
27745W        W93005   2.356  36.164   4.148
27746W        W93006  21.284  33.017   4.612
27747W        W93007  24.466  27.552   4.189
27748W        W93008  31.355  44.767  12.894
27749W        W93009  32.042  43.130   3.245
27750W        W93010  25.720   8.793   2.821
27751W        W93011   4.037  42.847  10.753
27752W        W93012  23.210  39.613   4.060
27753W        W93013  29.562  17.254   4.603
27754W        W93014  22.204  37.210  11.934
27755W        W93015  23.978  35.952  14.256
27756W        W93016  25.414  43.889  13.880
27757W        W93017  21.658   7.881   2.125
27758W        W93018  27.526   6.298  10.106
27759W        W93019   5.899  37.129   1.877
27760W        W93020  31.965  35.553   1.950
27761W        W93021  16.714  12.362  11.596
27762W        W93022   4.708  13.987  12.525
27763W        W93023  41.050  38.618  12.449
27764W        W93024   7.604  40.353   1.882
27765W        W93025  30.019  41.431   0.702
27766W        W93026  33.957  42.361   4.204
27767W        W93027  34.932  14.899  14.947
27768W        W93028   1.322  22.731  10.490
27769W        W93029  37.958  24.050   3.770
27770W        W93030  40.754  42.967   1.815
27771W        W93031  29.004  32.981   1.948
27772W        W93032  25.112  39.049  14.312
27773W        W93033  28.257   7.972  12.365
27774W        W93034  25.656  40.375   1.808
27775W        W93035  39.328  13.319   3.653
27776W        W93036   6.884  43.180   4.043
27777W        W93037  22.263  41.814  13.808
27778W        W93038   7.470  37.163  14.468
27779W        W93039  37.012  19.613  14.834
27780W        W93040   8.947   0.559   1.804
27781W        W93041  34.266   6.548  14.091
27782W        W93042  41.494  28.101  12.938
27783W        W93043  19.174   2.062   2.283
27784W        W93044  12.907  31.903  14.361
27785W        W93045  33.255  19.527  11.948
27786W        W93046  20.321  25.794   0.724
27787W        W93047  28.972   1.397  14.417
27788W        W93048  17.639  41.910  13.967
27789W        W93049   4.830  41.387   9.616
27790W        W93050  19.825  24.945   1.350
27791W        W93051  14.136  32.864   0.718
27792W        W93052  30.414  23.614  13.528
27793W        W93053   5.125  18.937   3.623
27794W        W93054  22.178  44.365  12.468
27795W        W93055  38.928  42.770  13.321
27796W        W93056   6.792   1.505  10.876
27797W        W93057  10.810   7.811  12.081
27798W        W93058  14.057  34.545  14.760
27799W        W93059   5.237   2.513  13.398
27800W        W93060  34.474  42.352  14.011
27801W        W93061  27.636  29.142   3.230
27802W        W93062   2.780  16.875   4.079
27803W        W93063  18.481  31.642   0.925
27804W        W93064  15.221  37.608  12.964
27805W        W93065  19.535  35.175   2.350
27806W        W93066  33.105   4.677   1.391
27807W        W93067  38.357   8.826  13.860
27808W        W93068  20.292  33.387   3.284
27809W        W93069  36.621   6.434   0.864
27810W        W93070  18.459   8.136  14.362
27811W        W93071  33.644  37.850   0.826
27812W        W93072   9.108  16.298  11.864
27813W        W93073   6.378   6.716   1.436
27814W        W93074  36.834  19.544  14.350
27815W        W93075  37.761  31.908  13.011
27816W        W93076  44.929  30.069   4.609
27817W        W93077  35.590  42.333  12.813
27818W        W93078   8.285  39.062  14.451
27819W        W93079   4.178  16.110  14.541
27820W        W93080  43.915  34.555  14.399
27821W        W93081  40.095  37.370   3.887
27822W        W93082   8.121  21.836   4.024
27823W        W93083  35.909   2.645   1.954
27824W        W93084  10.274  36.711  12.408
27825W        W93085  39.210  21.615   0.017
27826W        W93086  32.079  14.769  14.413
27827W        W93087   7.906  30.495  14.582
27828W        W93088  18.555  16.312  11.393
27829W        W93089  27.486   8.709   2.586
27830W        W93090  16.097   3.435  14.817
27831W        W93091  41.299   7.224  11.591
27832W        W93092   7.552   5.049   2.407
27833W        W93093  28.044  30.490   3.179
27834W        W93094   0.035  40.400  11.183
27835W        W93095  41.711   9.235   2.357
27836W        W93096  25.111  29.467  11.582
27837W        W93097  12.330   6.211   1.745
27838W        W93098  24.516   3.696  14.049
27839W        W93099  12.245  24.431  14.492
27840W        W93100  32.996  31.332   1.783
27841W        W93101   4.271   3.771  12.885
27842W        W93102  37.377   7.599   4.093
27843W        W93103  40.862  18.666   2.627
27844W        W93104  39.574   1.756   0.313
27845W        W93105  33.508  24.173  13.577
27846W        W93106  18.019   7.507  13.435
27847W        W93107   5.721   6.613  14.467
27848W        W93108  29.835  18.619   4.212
27849W        W93109  30.037  22.228   3.637
27850W        W93110   6.706  20.768   1.770
27851W        W93111   9.358   5.789  13.011
27852W        W93112  16.225  30.455   2.388
27853W        W93113  31.839  39.948  13.768
27854W        W93114  23.368  38.406  12.451
27855W        W93115  22.548  19.671  12.523
27856W        W93116  27.743  44.536   1.711
27857W        W93117  42.004  15.183   0.379
27858W        W93118   8.121  17.682  14.738
27859W        W93119  43.932   1.312   1.734
27860W        W93120   4.748  25.016   3.261
27861W        W93121  13.951   0.870   4.956
27862W        W93122  41.249  24.145  12.037
27863W        W93123  17.098  29.231  13.520
27864W        W93124   6.222  32.102   4.159
27865W        W93125   8.612  42.945   3.263
27866W        W93126  26.146  23.785  12.114
27867W        W93127  37.815  19.901   1.257
27868W        W93128  23.447  14.214  14.951
27869W        W93129  27.102  20.981   0.613
27870W        W93130  15.410   4.474   4.154
27871W        W93131  22.718  34.405  10.695
27872W        W93132  24.730  29.140  11.114
27873W        W93133  37.870   3.484  11.203
27874W        W93134  20.867   0.769  14.292
27875W        W93135  19.234  14.733  10.949
27876W        W93136  32.036  26.476  13.817
27877W        W93137  36.575  30.506   2.131
27878W        W93138  38.374   8.903   3.643
27879W        W93139  44.031   2.470  12.140
27880W        W93140  28.043  34.964  10.927
27881W        W93141  12.325   4.379   4.496
27882W        W93142  40.128   5.431   0.562
27883W        W93143   4.757  30.057  12.020
27884W        W93144  14.261  13.769  10.453
27885W        W93145  39.260  40.027  12.593
27886W        W93146  14.794   3.342  13.553
27887W        W93147  23.086  12.629   0.798
27888W        W93148   9.271  41.203   0.264
27889W        W93149  12.083  35.122   4.204
27890W        W93150  13.722  28.407   4.517
27891W        W93151  32.908  38.393  14.307
27892W        W93152  10.817  37.940  14.312
27893W        W93153   9.560  10.917  14.461
27894W        W93154  23.984  24.116  12.501
27895W        W93155  36.636  29.138   1.431
27896W        W93156   8.647  38.960  13.809
27897W        W93157  17.692  28.399  14.416
27898W        W93158  25.104  12.238  11.916
27899W        W93159   0.493  18.179  10.904
27900W        W93160  20.761  37.028   2.018
27901W        W93161  10.739  42.036  13.961
27902W        W93162  18.250  20.940  13.005
27903W        W93163  21.449  35.560   1.304
27904W        W93164  21.061   8.741  10.664
27905W        W93165  18.169  20.086   4.582
27906W        W93166  19.647  30.796   1.734
27907W        W93167  29.306   4.423  13.907
27908W        W93168   9.726  12.743   1.712
27909W        W93169  36.206  42.917  12.653
27910W        W93170  31.545  36.353  10.783
27911W        W93171  23.798  40.524   0.408
27912W        W93172  32.379  26.611  14.369
27913W        W93173  10.216  19.301  12.674
27914W        W93174  40.304  23.026  12.988
27915W        W93175   5.076  18.362   3.958
27916W        W93176  12.479   2.211  14.894
27917W        W93177  43.364   2.273   0.402
27918W        W93178  20.143  18.743  13.790
27919W        W93179   5.137  20.910  12.319
27920W        W93180   2.760  26.613   4.827
27921W        W93181   1.580  26.192   0.528
27922W        W93182   3.474  29.464  12.055
27923W        W93183   6.559   7.263  10.214
27924W        W93184   6.310   3.900   3.162
27925W        W93185  39.999  42.382   2.252
27926W        W93186  25.685  35.870  10.231
27927W        W93187  31.037   9.311   2.915
27928W        W93188  36.043  20.139  13.831
27929W        W93189  17.062  19.219   2.323
27930W        W93190  19.080  14.736   1.464
27931W        W93191  29.249   6.209   2.403
27932W        W93192  36.628  41.540  13.826
27933W        W93193   6.264  15.512   4.576
27934W        W93194   3.460   5.351  11.593
27935W        W93195  15.258  44.251  14.585
27936W        W93196  39.990  32.577   4.556
27937W        W93197  40.638  21.835   1.198
27938W        W93198  13.282  36.354  11.154
27939W        W93199  19.088  38.005   3.685
27940W        W93200  39.863  35.503   3.298
27941W        W93201  23.737  22.296   1.893
27942W        W93202  37.299  17.100  14.397
27943W        W93203  43.463  25.650  12.189
27944W        W93204  28.697  27.280   0.434
27945W        W93205  22.993  11.731   1.353
27946W        W93206  42.514  20.765   0.737
27947W        W93207  19.999  12.342  12.382
27948W        W93208   5.648  22.086  14.554
27949W        W93209  30.472  40.538  12.139
27950W        W93210  29.770  24.051  12.077
27951W        W93211  25.976  10.276  14.326
27952W        W93212  33.028  15.685  10.609
27953W        W93213  42.721  23.275  14.516
27954W        W93214   9.233  17.120   2.733
27955W        W93215   5.228   3.577   3.246
27956W        W93216  29.432  17.629   0.081
27957W        W93217  29.083  30.220   3.724
27958W        W93218  39.307  35.913  13.686
27959W        W93219   1.918  42.334  13.367
27960W        W93220  10.773  15.378  14.426
27961W        W93221  13.471  39.365   4.505
27962W        W93222  22.493   1.874  10.285
27963W        W93223  19.503   2.361  13.482
27964W        W93224  16.825  38.548  10.630
27965W        W93225  26.958  36.491   1.921
27966W        W93226  22.061  22.127  14.413
27967W        W93227  12.450  43.849   4.404
27968W        W93228  23.077  11.558  11.019
27969W        W93229  11.884   0.770   0.852
27970W        W93230  36.554  35.099  14.405
27971W        W93231  25.709  37.073   3.754
27972W        W93232  36.550  42.438  13.361
27973W        W93233   6.588  18.291   2.034
27974W        W93234  39.425  27.175  11.751
27975W        W93235  27.042   8.630   4.339
27976W        W93236  29.414  26.563   2.186
27977W        W93237  31.381   2.296  14.340
27978W        W93238  25.718   7.307   3.837
27979W        W93239   1.358  20.728   0.556
27980W        W93240  12.258  16.195   4.108
27981W        W93241  17.545  19.957   3.277
27982W        W93242   1.967  10.699   3.804
27983W        W93243  30.441   7.608   1.464
27984W        W93244  23.692   1.740  10.533
27985W        W93245  25.192  32.123   3.258
27986W        W93246  25.450  37.377   0.064
27987W        W93247  39.734   4.310  12.096
27988W        W93248  25.031  31.563   2.386
27989W        W93249   7.371  13.075  14.916
27990W        W93250  30.028   7.437  10.496
27991W        W93251   6.589  21.488   1.413
27992W        W93252  28.549  43.409   4.881
27993W        W93253  39.365  23.108   0.814
27994W        W93254  22.334  21.211  12.953
27995W        W93255   0.294  16.803  10.640
27996W        W93256   6.777  42.335  13.982
27997W        W93257  15.380  39.969   3.284
27998W        W93258  11.396   7.766   3.406
27999W        W93259  25.851  43.047   3.944
28000W        W93260  40.827  38.660   0.989
28001W        W93261  19.562  30.605  11.174
28002W        W93262   7.413   4.833   3.779
28003W        W93263   0.358  34.900   0.354
28004W        W93264   4.813   2.905   2.428
28005W        W93265  43.662  15.220  14.940
28006W        W93266  18.309  31.755   1.720
28007W        W93267   4.181  21.629   3.307
28008W        W93268  32.414  32.078  13.751
28009W        W93269  36.311  42.487  11.344
28010W        W93270  37.965  13.876  12.655
28011W        W93271   7.137  24.969   3.658
28012W        W93272   5.428  44.545  13.983
28013W        W93273  12.347  40.667  14.001
28014W        W93274  23.253   7.281   1.667
28015W        W93275  39.538  28.410   1.822
28016W        W93276  41.308  41.350   2.938
28017W        W93277  35.465  23.713   1.826
28018W        W93278   0.151  19.790  11.965
28019W        W93279  39.003  43.957   2.727
28020W        W93280  36.818  10.455  11.958
28021W        W93281   9.439  10.704   4.141
28022W        W93282  36.997  15.349  14.839
28023W        W93283  13.671  20.513   1.342
28024W        W93284   3.879  20.198   3.646
28025W        W93285  36.332  10.731  14.848
28026W        W93286  23.252   7.057   3.974
28027W        W93287  26.694  19.880  13.946
28028W        W93288  39.924  27.101   0.888
28029W        W93289  23.589  12.243   3.600
28030W        W93290   4.392  44.120  12.197
28031W        W93291  15.628  12.255   0.494
28032W        W93292   0.176  34.460  10.517
28033W        W93293   4.661  43.963   2.825
28034W        W93294  28.942  14.171   4.095
28035W        W93295  42.922  36.825  11.432
28036W        W93296  25.248  37.291   3.623
28037W        W93297  35.279  36.442   0.280
28038W        W93298   8.568   3.522  14.009
28039W        W93299  37.508  39.066   1.887
28040W        W93300  29.402  21.531  12.814
28041W        W93301  11.574  18.127  10.352
28042W        W93302   1.902  26.660  12.064
28043W        W93303  44.962   3.738  14.425
28044W        W93304   5.997  37.589  12.990
28045W        W93305   4.699  41.387  14.916
28046W        W93306  37.116  35.831  11.349
28047W        W93307   7.235  15.311  12.664
28048W        W93308  17.794  10.232  13.759
28049W        W93309  12.566  42.226  12.971
28050W        W93310   0.383  43.943   3.881
28051W        W93311  24.209  38.790   2.823
28052W        W93312   7.754  38.927   1.307
28053W        W93313  29.494  39.022  12.799
28054W        W93314  36.362  33.553   4.110
28055W        W93315  13.695  35.165   0.406
28056W        W93316  26.918  36.836  11.012
28057W        W93317   8.441   7.928  13.059
28058W        W93318  28.685  35.388  12.020
28059W        W93319  18.162   4.394   0.711
28060W        W93320  11.041  33.119  11.133
28061W        W93321  20.695  19.781   1.264
28062W        W93322  17.386  31.011   2.785
28063W        W93323  36.354  38.585   3.636
28064W        W93324  15.256  24.635  11.183
28065W        W93325   6.439   6.386  11.065
28066W        W93326  33.882  21.949   0.633
28067W        W93327  24.050  41.086  10.359
28068W        W93328  32.629  31.369  12.253
28069W        W93329   9.672  12.604  11.390
28070W        W93330   9.383  20.615   2.891
28071W        W93331  34.638  23.210  11.451
28072W        W93332  26.941   6.956   0.646
28073W        W93333   3.239  32.673  14.361
28074W        W93334  34.080  12.846   2.362
28075W        W93335  19.191  21.741  14.743
28076W        W93336   1.881  40.828   2.847
28077W        W93337   8.723   1.732   1.223
28078W        W93338  25.297  36.993  11.658
28079W        W93339  13.686  32.994  13.794
28080W        W93340  17.090   1.480   4.508
28081W        W93341  13.796  25.628  14.850
28082W        W93342  12.128  17.271   1.060
28083W        W93343  28.169   2.915  10.373
28084W        W93344  11.323   4.143   2.166
28085W        W93345  13.724  32.474  13.701
28086W        W93346  23.912  22.695  10.655
28087W        W93347  12.715  38.519   2.323
28088W        W93348  29.483  40.976  10.976
28089W        W93349  34.868  10.253   4.203
28090W        W93350  28.978   0.482   3.659
28091W        W93351  23.031  21.803  14.400
28092W        W93352   8.776  44.762  13.004
28093W        W93353   9.604  23.640   2.726
28094W        W93354  41.062  31.251   2.726
28095W        W93355   6.372  10.027  14.385
28096W        W93356  17.640   6.810  11.743
28097W        W93357   4.379  19.259  11.957
28098W        W93358  14.699  11.393  14.981
28099W        W93359  27.256  30.661   1.402
28100W        W93360  24.044  17.311   3.149
28101W        W93361  31.420  16.788  12.440
28102W        W93362  27.738  28.078  13.844
28103W        W93363  19.120  12.737   4.618
28104W        W93364  25.191  11.375  11.616
28105W        W93365  44.974   8.322   2.908
28106W        W93366  32.718  41.801   2.399
28107W        W93367  31.004  39.301   2.151
28108W        W93368   1.992   7.386  13.856
28109W        W93369  14.032  17.980   4.067
28110W        W93370  24.969  27.426   4.131
28111W        W93371   7.436  19.149  11.861
28112W        W93372  16.731   2.750  10.472
28113W        W93373  16.589   2.818   1.417
28114W        W93374  33.893  21.690   0.159
28115W        W93375  23.522  27.546   1.351
28116W        W93376  36.359  31.167   1.894
28117W        W93377  38.022  10.014   2.921
28118W        W93378   7.972  14.587  11.223
28119W        W93379  40.754  14.572   1.112
28120W        W93380  18.540   5.647  14.098
28121W        W93381   1.462  16.731   1.522
28122W        W93382  20.046   4.381   1.919
28123W        W93383  25.973  13.289  11.553
28124W        W93384  15.094  15.654  13.981
28125W        W93385  21.132  43.856   1.396
28126W        W93386  22.615  34.978  11.394
28127W        W93387  33.419  19.201   5.117
28128W        W93388  31.579  31.990  11.580
28129W        W93389   9.223  31.103  11.553
28130W        W93390   9.378  27.144  10.954
28131W        W93391  31.073  13.802   4.735
28132W        W93392   4.900  27.540   0.365
28133W        W93393  34.340  40.069  10.651
28134W        W93394  20.638  36.576   1.726
28135W        W93395  39.973  14.541   4.380
28136W        W93396  36.069  40.316   0.897
28137W        W93397  22.186  38.940  11.918
28138W        W93398  35.844  24.040   0.845
28139W        W93399   7.273  14.855  13.428
28140W        W93400  28.617   1.809   2.655
28141W        W93401  13.518   8.246  11.112
28142W        W93402   4.091  41.649   0.306
28143W        W93403  22.334  21.273   5.018
28144W        W93404  23.117   5.650   3.524
28145W        W93405   9.390  43.291   1.164
28146W        W93406  11.815  10.676  11.111
28147W        W93407  34.068  40.805  12.043
28148W        W93408   5.741  32.323   4.197
28149W        W93409  34.569  20.214   1.378
28150W        W93410  39.308  23.618   0.912
28151W        W93411   7.257  17.955  13.076
28152W        W93412  24.007  16.818  10.679
28153W        W93413  28.898  13.851  13.379
28154W        W93414  31.763  18.664   2.829
28155W        W93415  26.883  34.940  14.343
28156W        W93416   6.159  11.206  11.393
28157W        W93417  27.587   6.874  11.161
28158W        W93418  41.085   8.242   4.627
28159W        W93419   2.195  40.572  12.692
28160W        W93420  12.659  23.714   0.327
28161W        W93421   6.300   0.549  11.413
28162W        W93422  24.151  22.529   0.670
28163W        W93423  13.567  34.151  10.671
28164W        W93424  34.818  42.890  12.001
28165W        W93425  42.278  35.583  13.353
28166W        W93426  29.330  21.524  11.573
28167W        W93427  36.342  26.902   0.357
28168W        W93428  10.237  34.587   3.615
28169W        W93429  42.533  26.105   1.307
28170W        W93430   7.016   1.281   3.331
28171W        W93431   3.760   8.852   1.204
28172W        W93432  40.898  44.809   4.837
28173W        W93433  15.874   8.279  11.958
28174W        W93434   9.808  16.291  11.360
28175W        W93435   4.923  24.069   0.260
28176W        W93436  18.687  25.540   1.840
28177W        W93437  15.940   8.778   4.177
28178W        W93438  43.839  20.046   3.595
28179W        W93439  25.496  42.281  12.080
28180W        W93440  27.229  32.463   4.865
28181W        W93441   1.903  35.835  13.865
28182W        W93442  27.088  13.268  12.059
28183W        W93443  38.359  13.066  11.462
28184W        W93444  13.588  36.861  12.036
28185W        W93445  19.051  41.853  13.547
28186W        W93446  41.765   8.515   4.168
28187W        W93447   8.779  40.266  12.253
28188W        W93448  13.616  11.370  11.579
28189W        W93449  12.948   3.791   3.651
28190W        W93450  43.460  11.251  12.416
28191W        W93451  36.756  11.745   1.847
28192W        W93452   0.183  38.495  14.457
28193W        W93453  16.169   2.671   0.107
28194W        W93454  30.532   6.526  11.054
28195W        W93455  31.945  20.022  11.154
28196W        W93456  24.554   8.453  12.482
28197W        W93457  39.735  26.151  14.485
28198W        W93458  20.618   5.300  10.325
28199W        W93459   7.172  43.559  13.067
28200W        W93460  25.947  42.982   3.423
28201W        W93461  21.996  20.628  12.328
28202W        W93462   1.427  16.364  11.014
28203W        W93463  15.166   6.189   1.841
28204W        W93464  29.703  13.816   1.774
28205W        W93465   7.394  16.050  14.994
28206W        W93466  27.243  38.371   1.338
28207W        W93467  25.787   9.948   5.000
28208W        W93468   6.889  34.870   3.645
28209W        W93469  19.003   2.447   3.180
28210W        W93470   4.240  13.969   3.762
28211W        W93471  32.945   4.902   1.813
28212W        W93472  23.998  31.117  13.524
28213W        W93473  41.015   8.661   3.716
28214W        W93474  28.939  27.243  10.122
28215W        W93475   3.667  43.916   2.767
28216W        W93476  26.521  13.167   3.799
28217W        W93477  23.698  19.813   3.430
28218W        W93478   4.954  26.480   1.651
28219W        W93479  43.283  29.919  12.558
28220W        W93480  11.348   2.938   0.899
28221W        W93481  30.834  27.175  10.629
28222W        W93482  15.630  25.419  12.581
28223W        W93483   1.235  19.790  11.932
28224W        W93484  21.709   9.960  10.704
28225W        W93485  35.748   0.358   0.080
28226W        W93486  31.400  27.139   4.810
28227W        W93487   8.366  23.986   1.389
28228W        W93488  44.897   6.243  13.667
28229W        W93489  16.659   9.883   4.245
28230W        W93490  12.800  23.595  12.521
28231W        W93491  14.899   2.245   0.347
28232W        W93492  42.330  19.532   1.910
28233W        W93493  41.099  17.233   4.325
28234W        W93494  40.285  12.401   1.049
28235W        W93495  12.136  15.861  14.414
28236W        W93496  15.520  44.121   0.479
28237W        W93497  38.265  22.310  14.049
28238W        W93498   2.023  14.311  10.919
28239W        W93499  15.714  23.918   4.989
28240W        W93500   0.801  27.846  12.018
28241W        W93501  36.428  16.739  14.132
28242W        W93502  17.989  37.900  12.301
28243W        W93503  16.718  23.819  12.431
28244W        W93504  25.921  21.639   4.940
28245W        W93505  44.074  25.671   4.306
28246W        W93506  28.416   7.798  10.387
28247W        W93507   3.259  32.646  13.049
28248W        W93508  22.139   8.118  10.337
28249W        W93509  24.439   8.614   0.758
28250W        W93510  24.547  29.822   4.479
28251W        W93511  13.200  44.528   2.332
28252W        W93512  28.616  22.082   4.594
28253W        W93513   5.371  10.262  14.175
28254W        W93514  29.443  42.357   4.551
28255W        W93515  33.629  24.519   2.235
28256W        W93516   6.750  25.150   1.764
28257W        W93517   2.001  15.215   4.799
28258W        W93518  11.326   0.412  14.942
28259W        W93519  39.636   1.955  10.296
28260W        W93520   9.166  29.453   0.149
28261W        W93521  31.352  37.029   1.818
28262W        W93522  43.129   3.832   2.317
28263W        W93523   5.463  22.946  11.975
28264W        W93524   8.169   7.635  14.948
28265W        W93525   0.838  14.631   0.862
28266W        W93526  35.816  19.671   0.299
28267W        W93527   7.136   9.101  11.122
28268W        W93528  37.930  18.034   2.234
28269W        W93529  17.626   7.086   3.409
28270W        W93530   5.664  12.003  10.971
28271W        W93531  32.126  37.449  11.165
28272W        W93532  44.882  10.919  13.282
28273W        W93533  30.362  44.565   0.171
28274W        W93534   6.057   4.770   4.266
28275W        W93535  35.384  27.903  10.205
28276W        W93536   2.612   4.170  14.718
28277W        W93537  40.393  14.867  12.089
28278W        W93538  41.354  24.969  12.279
28279W        W93539   0.864  26.045  14.979
28280W        W93540   2.566  11.839   1.354
28281W        W93541  22.569  25.725   0.956
28282W        W93542  13.150   1.722   1.608
28283W        W93543   9.952  37.004  11.455
28284W        W93544  40.038   6.886   0.399
28285W        W93545  12.951   6.393  11.624
28286W        W93546  32.526   8.599   3.143
28287W        W93547  15.935  33.606  10.305
28288W        W93548  19.369   6.937   4.697
28289W        W93549  30.756  39.438  14.710
28290W        W93550  27.500  26.908   1.841
28291W        W93551  11.806  11.349   3.284
28292W        W93552   3.395  38.187   1.735
28293W        W93553  34.560   7.089  12.923
28294W        W93554  39.316  34.119  13.864
28295W        W93555  17.719  17.724  10.190
28296W        W93556  42.446  29.535   3.776
28297W        W93557  18.281  24.341  12.632
28298W        W93558   7.835   3.603  12.010
28299W        W93559  17.767  32.533   1.940
28300W        W93560  15.226  37.773   3.783
28301W        W93561  29.009  33.563  13.471
28302W        W93562   4.627  38.777   0.415
28303W        W93563   1.450  21.542   9.579
28304W        W93564  28.581  19.705   2.458
28305W        W93565  19.165  43.618   2.674
28306W        W93566  23.993   6.763   3.682
28307W        W93567  37.622  10.331  13.101
28308W        W93568  34.119  28.339   0.945
28309W        W93569  41.508  42.554  12.419
28310W        W93570   4.528  19.697   1.883
28311W        W93571  34.259  25.576  10.048
28312W        W93572  11.728  28.981   3.789
28313W        W93573  34.331   5.386  13.352
28314W        W93574  10.623  37.483   3.766
28315W        W93575  38.548   0.667  14.009
28316W        W93576  38.058  36.069   4.107
28317W        W93577  35.567   4.505  11.537
28318W        W93578   5.677  15.132  11.123
28319W        W93579   4.727   3.757   4.398
28320W        W93580   8.474  43.910  14.325
28321W        W93581  16.523  25.580  14.977
28322W        W93582  40.522   8.534  10.783
28323W        W93583   4.736  23.382  13.775
28324W        W93584  11.882  38.792  10.550
28325W        W93585  19.631  44.852   3.224
28326W        W93586  20.945  26.620  10.711
28327W        W93587  21.040  16.253   3.769
28328W        W93588  41.559  32.100  12.228
28329W        W93589  44.662  18.183  12.098
28330W        W93590  16.095  17.086   2.795
28331W        W93591  11.723  18.992  12.527
28332W        W93592  10.745   1.395   3.610
28333W        W93593   1.701  16.932   1.114
28334W        W93594  43.271  32.936  12.537
28335W        W93595  20.784  22.311  11.562
28336W        W93596  22.667  41.094  10.849
28337W        W93597  33.505  15.296  14.080
28338W        W93598  35.485  37.761  14.518
28339W        W93599  20.280  38.952  10.103
28340W        W93600  34.437   2.772   1.009
28341W        W93601  17.967  19.140  12.432
28342W        W93602  41.784  19.641  10.837
28343W        W93603   4.166  37.957   3.336
28344W        W93604  11.685  23.369   2.421
28345W        W93605  30.938  15.067   0.931
28346W        W93606   3.465  17.142   3.379
28347W        W93607   7.285   4.325   0.259
28348W        W93608  26.476  36.569  10.873
28349W        W93609  17.767   2.112   3.706
28350W        W93610  22.945  28.445  10.473
28351W        W93611   8.655  26.221   0.221
28352W        W93612   6.653  25.805  14.381
28353W        W93613  12.055  44.907   2.765
28354W        W93614   9.661   9.192   2.669
28355W        W93615  35.928  14.750  10.952
28356W        W93616  28.032  11.240   1.280
28357W        W93617  11.226  43.433  12.013
28358W        W93618  26.142  24.285   3.739
28359W        W93619  29.203  14.158  13.088
28360W        W93620  27.972  29.867   3.697
28361W        W93621  43.454  38.462  14.333
28362W        W93622  26.993  12.895  12.933
28363W        W93623  30.325  18.231  10.801
28364W        W93624   8.807   6.427   2.813
28365W        W93625  33.939  42.106  13.923
28366W        W93626  11.661   7.491   4.942
28367W        W93627  31.897  34.482   3.792
28368W        W93628  31.679  28.124   2.884
28369W        W93629  10.800  32.786   0.986
28370W        W93630  12.666  17.506   2.746
28371W        W93631  18.858  34.410   2.221
28372W        W93632   9.863  18.593  13.296
28373W        W93633  38.976   7.136   0.509
28374W        W93634   4.926  38.329  12.905
28375W        W93635   9.330   7.782   0.988
28376W        W93636  36.414  17.815   2.274
28377W        W93637  10.408  31.166  11.941
28378W        W93638   4.276  40.812   4.650
28379W        W93639   7.333  36.013  11.925
28380W        W93640  29.075   4.776  11.240
28381W        W93641  27.262  16.111   1.307
28382W        W93642   5.955  26.157   3.331
28383W        W93643   5.343  20.501   2.423
28384W        W93644  44.771  21.663  13.682
28385W        W93645  18.186  13.865  10.619
28386W        W93646  26.281  15.377   4.621
28387W        W93647   2.563   6.370   0.252
28388W        W93648  30.904  15.512  14.349
28389W        W93649  36.193  31.411  13.951
28390W        W93650   9.704  15.154   3.273
28391W        W93651  20.142  39.890   4.434
28392W        W93652   7.617  38.417  12.490
28393W        W93653  28.541  44.969  11.366
28394W        W93654  28.223   8.862   0.033
28395W        W93655   4.902  25.494  11.984
28396W        W93656  42.271  27.570  14.392
28397W        W93657  42.064  26.729   4.589
28398W        W93658  25.482   5.560   5.372
28399W        W93659  32.423  19.815   3.297
28400W        W93660  16.307  11.551   2.234
28401W        W93661  17.665  16.429   1.204
28402W        W93662  42.028  26.600  13.312
28403W        W93663  23.501  24.534  11.563
28404W        W93664  17.048  44.368  11.663
28405W        W93665   0.225  41.806   0.899
28406W        W93666   4.279  44.851   3.843
28407W        W93667  31.968  40.777  12.415
28408W        W93668  23.138  10.740   1.748
28409W        W93669   4.690  22.047  14.585
28410W        W93670  26.812  28.858  10.075
28411W        W93671  17.675  41.442   4.210
28412W        W93672  19.574  43.484  14.891
28413W        W93673  40.756   0.719   5.389
28414W        W93674   6.627  24.597   0.269
28415W        W93675   2.236  29.983   4.690
28416W        W93676  18.678  42.489   1.488
28417W        W93677  29.438  35.917   0.802
28418W        W93678  41.816   1.528   2.325
28419W        W93679  17.086  32.606   2.214
28420W        W93680  11.494  43.484  10.883
28421W        W93681   1.452  32.424  11.636
28422W        W93682  37.352  24.455   3.717
28423W        W93683  40.968  27.923   4.247
28424W        W93684  22.191   9.453  10.589
28425W        W93685  22.737  10.144   2.334
28426W        W93686   7.720  30.685   2.790
28427W        W93687  14.716   7.850   2.464
28428W        W93688  19.775   6.853   3.184
28429W        W93689  22.174  20.560   4.195
28430W        W93690  39.903  38.867   3.617
28431W        W93691   8.768   2.351   3.285
28432W        W93692  32.914  44.000  13.057
28433W        W93693  27.610  16.978  13.318
28434W        W93694   1.286  44.031  10.980
28435W        W93695  26.474  22.632  10.160
28436W        W93696   1.192  24.412  12.538
28437W        W93697  34.557  22.717  11.598
28438W        W93698  43.955  13.843   4.126
28439W        W93699   0.284  19.037  10.678
28440W        W93700  18.048  10.062   0.844
28441W        W93701   8.347  28.473   1.308
28442W        W93702  12.238  30.058   1.117
28443W        W93703   4.135  31.716   3.705
28444W        W93704   0.437  28.088   0.236
28445W        W93705   8.821  21.563   4.502
28446W        W93706  39.124   6.144   5.171
28447W        W93707  25.620   5.223   1.739
28448W        W93708  24.004  22.115  13.888
28449W        W93709  38.856  40.522  14.723
28450W        W93710   1.888  32.549   4.225
28451W        W93711  15.035  36.877  14.487
28452W        W93712  38.582   6.704  14.246
28453W        W93713  11.948  11.399  14.291
28454W        W93714  14.235  33.839   2.410
28455W        W93715   2.385  30.737   0.790
28456W        W93716   7.814  11.185   3.346
28457W        W93717   6.469  18.480   5.073
28458W        W93718  21.459  20.050   5.478
28459W        W93719  43.254  20.649  14.429
28460W        W93720   1.555  20.067   1.767
28461W        W93721  26.118  42.582  12.996
28462W        W93722  37.088  41.292   4.109
28463W        W93723  34.094  42.783   0.669
28464W        W93724  37.756  10.814   2.376
28465W        W93725  19.219  10.425   0.692
28466W        W93726  28.261  32.048   3.555
28467W        W93727  42.733  17.211   3.326
28468W        W93728  18.518  34.188  11.123
28469W        W93729   0.029  31.994  14.328
28470W        W93730  20.258  12.063  12.742
28471W        W93731  42.734  16.699   1.403
28472W        W93732  32.160  26.596   4.088
28473W        W93733  19.991   9.775   2.330
28474W        W93734  20.700  30.624   1.311
28475W        W93735  19.255  28.543  13.169
28476W        W93736   4.387  22.312   2.511
28477W        W93737   1.599  27.938   4.570
28478W        W93738  18.631  13.584   1.227
28479W        W93739  18.196  27.230   1.236
28480W        W93740  12.770   6.260  14.543
28481W        W93741  42.895   1.291   1.027
28482W        W93742  14.549  36.460   1.674
28483W        W93743  21.855  42.983  10.441
28484W        W93744  25.416  19.148  12.474
28485W        W93745   5.427   7.242   3.022
28486W        W93746   6.903  20.606  11.482
28487W        W93747  30.312  15.098   3.644
28488W        W93748  16.635  16.642   5.740
28489W        W93749  15.700  36.521   3.947
28490W        W93750  13.073   9.784  14.970
28491W        W93751  29.234   7.446   3.237
28492W        W93752   5.734   2.851   1.852
28493W        W93753  20.774  43.109  14.375
28494W        W93754  38.356   3.133   3.551
28495W        W93755  36.449  28.029  11.411
28496W        W93756  25.642   1.424   4.712
28497W        W93757   1.049  13.397  12.308
28498W        W93758  14.091  30.400   4.057
28499W        W93759  11.577   1.059  11.720
28500W        W93760   4.380  24.457   4.717
28501W        W93761   9.517   7.469   5.133
28502W        W93762   3.719  37.855   2.006
28503W        W93763  35.659   2.432  14.655
28504W        W93764   4.878  42.255  11.599
28505W        W93765  20.777  24.353  13.642
28506W        W93766  34.504  14.592  13.441
28507W        W93767  40.487  35.526   4.068
28508W        W93768   5.861  21.781  14.956
28509W        W93769  15.994  28.652   1.263
28510W        W93770  28.888  32.949  14.262
28511W        W93771  24.734  33.460   1.246
28512W        W93772  25.130  20.589   0.812
28513W        W93773   8.761   8.228   1.614
28514W        W93774  44.824  20.475  13.010
28515W        W93775  15.819  43.050   3.629
28516W        W93776   4.920  42.843  11.715
28517W        W93777  18.345  28.208   1.489
28518W        W93778  31.423   1.471  12.889
28519W        W93779  15.472  40.081  11.124
28520W        W93780  37.613  25.509   1.359
28521W        W93781  10.322  23.809  11.037
28522W        W93782  30.392  10.600  12.646
28523W        W93783  39.835  35.632   1.397
28524W        W93784  16.010  36.152   2.310
28525W        W93785  33.969  14.084  10.700
28526W        W93786  35.493  29.577  14.333
28527W        W93787   1.985  40.251  11.992
28528W        W93788  14.590  15.688   2.441
28529W        W93789   2.301  13.668   1.831
28530W        W93790  40.750  27.677  12.670
28531W        W93791  22.017  21.524  14.823
28532W        W93792  38.923   0.992  13.093
28533W        W93793   1.522  39.298   3.293
28534W        W93794  27.837  34.580  14.421
28535W        W93795  34.134  29.409   3.533
28536W        W93796  13.242  29.800   4.753
28537W        W93797  38.604   2.374  11.969
28538W        W93798  41.098  41.301  11.615
28539W        W93799  30.471  23.633   2.110
28540W        W93800  22.745  13.098   1.684
28541W        W93801  21.798  14.369  11.159
28542W        W93802   7.176  17.360  12.483
28543W        W93803   3.382  29.595  14.590
28544W        W93804   2.202  25.810  12.115
28545W        W93805  31.905  42.574  10.497
28546W        W93806   5.225  40.489  13.815
28547W        W93807   4.441  38.022   4.186
28548W        W93808  12.776  19.060  14.528
28549W        W93809  12.374   9.746   2.410
28550W        W93810  16.056  23.758  14.431
28551W        W93811   9.310  17.103   4.099
28552W        W93812  12.302  39.779   3.665
28553W        W93813  33.491  43.730  12.912
28554W        W93814  33.060  36.795  12.895
28555W        W93815   2.692  13.215   0.453
28556W        W93816  40.447   1.518  13.570
28557W        W93817   5.401  30.341  12.473
28558W        W93818  27.495   1.913  13.777
28559W        W93819  36.409  43.814  13.308
28560W        W93820   0.294  36.371   1.653
28561W        W93821  26.720  10.183   0.009
28562W        W93822   9.803  22.311  12.398
28563W        W93823  29.414  24.767  12.491
28564W        W93824  16.521  18.309   3.665
28565W        W93825  14.764  21.221   1.189
28566W        W93826  27.151  26.496  14.372
28567W        W93827  17.308  34.504  13.628
28568W        W93828  36.927  12.358   4.510
28569W        W93829   4.378  37.351   4.964
28570W        W93830  32.892  11.341   1.269
28571W        W93831  12.093   5.684  13.974
28572W        W93832  13.146  37.415   5.029
28573W        W93833  19.560  21.767  12.980
28574W        W93834  33.666  23.301  11.642
28575W        W93835  40.479   6.804   4.679
28576W        W93836  18.875  36.776  13.408
28577W        W93837   1.445  40.106  13.037
28578W        W93838   0.394  25.515  12.593
28579W        W93839   2.349   0.265  13.465
28580W        W93840  33.433  32.824   3.784
28581W        W93841  42.407   2.175   1.908
28582W        W93842   5.794   9.903   0.265
28583W        W93843  20.170  36.217   0.851
28584W        W93844  17.673  33.034   1.812
28585W        W93845  12.946   8.742   2.881
28586W        W93846  27.222   6.094   2.373
28587W        W93847  23.238   7.428   4.636
28588W        W93848  17.647  22.135   2.337
28589W        W93849  35.068   9.474   1.670
28590W        W93850  37.426   1.355   3.660
28591W        W93851  38.462  23.364  12.099
28592W        W93852  44.415  39.242  14.865
28593W        W93853  42.767   4.758   0.911
28594W        W93854  31.501   2.603   4.622
28595W        W93855  13.369  22.301   1.206
28596W        W93856   0.094   6.400   0.326
28597W        W93857  32.313  15.100   1.260
28598W        W93858   5.403  35.189  14.549
28599W        W93859  44.479  28.042  13.038
28600W        W93860  41.939   2.513   2.855
28601W        W93861  22.289  38.040   4.181
28602W        W93862   1.846  27.473   1.338
28603W        W93863  32.072  18.105   3.677
28604W        W93864   5.620  33.529   1.431
28605W        W93865  36.097  34.919  11.634
28606W        W93866  16.690   9.583   4.661
28607W        W93867   8.066  23.669   2.611
28608W        W93868  40.974  26.017   1.244
28609W        W93869  12.098  32.689  13.475
28610W        W93870   1.801  12.598  12.923
28611W        W93871  40.714  35.933   0.381
28612W        W93872   6.269  40.832  14.542
28613W        W93873  20.184   3.542  12.141
28614W        W93874  16.139  26.070   2.148
28615W        W93875   4.853   2.017  12.089
28616W        W93876  31.851  28.661  10.115
28617W        W93877  12.132  11.104   0.476
28618W        W93878  33.448  17.526  11.432
28619W        W93879   3.292  34.799   1.795
28620W        W93880  15.683  24.780  11.981
28621W        W93881  28.033  34.886   2.745
28622W        W93882  32.387   1.951  10.738
28623W        W93883   1.723  12.660   1.068
28624W        W93884  36.845  39.185   0.756
28625W        W93885   3.241  23.644  13.812
28626W        W93886  23.765  18.636   0.270
28627W        W93887   0.310  28.085  11.957
28628W        W93888   9.201   5.155  10.632
28629W        W93889  30.858  36.350  13.825
28630W        W93890  23.098  37.572   2.166
28631W        W93891  41.908   5.778   0.477
28632W        W93892  11.750   4.677   2.353
28633W        W93893  29.597  25.024  12.898
28634W        W93894  26.412   6.575   1.990
28635W        W93895   5.916  22.837  12.604
28636W        W93896   4.212   7.814   3.604
28637W        W93897  23.957  23.584  14.528
28638W        W93898  39.108   2.485   4.004
28639W        W93899  11.241  27.639  14.707
28640W        W93900  27.050   6.257   9.899
28641W        W93901  21.522  26.629  12.919
28642W        W93902   5.362  18.688   4.483
28643W        W93903   7.669  34.708  12.056
28644W        W93904  25.939   5.770  14.810
28645W        W93905   2.455  15.168   4.235
28646W        W93906  20.991  21.497  12.442
28647W        W93907  23.988  13.723  13.284
28648W        W93908   6.745  11.035   1.807
28649W        W93909  33.972  22.996  12.620
28650W        W93910   8.437  20.328   1.141
28651W        W93911  11.698  22.022  12.013
28652W        W93912   3.962  20.258   1.860
28653W        W93913  21.695   6.482  13.499
28654W        W93914   8.750  39.509   2.690
28655W        W93915  14.647  41.221   4.291
28656W        W93916  23.124  32.120  13.755
28657W        W93917  44.124  22.061   1.515
28658W        W93918  30.167  21.245   3.357
28659W        W93919  15.439  34.112   0.838
28660W        W93920  24.604  41.286  11.503
28661W        W93921  13.769  43.142   5.057
28662W        W93922  37.781  30.923  12.145
28663W        W93923  26.826   0.251   1.410
28664W        W93924  23.118   7.256  11.544
28665W        W93925  38.319  43.031   2.397
28666W        W93926  40.851   0.928   1.780
28667W        W93927   7.694  40.616   0.876
28668W        W93928  14.922  15.573   2.885
28669W        W93929   6.241   5.205   2.488
28670W        W93930  40.457  31.079  11.094
28671W        W93931  23.996  21.282  11.971
28672W        W93932   7.039  15.716   4.186
28673W        W93933  12.083  29.600   0.949
28674W        W93934  16.864  42.023  13.517
28675W        W93935  43.250   9.364   1.933
28676W        W93936  10.209  21.691  13.615
28677W        W93937  42.034   6.739  13.980
28678W        W93938  37.380  19.112   1.242
28679W        W93939  27.840  31.688   4.254
28680W        W93940  24.674  15.665  14.379
28681W        W93941  42.447   6.990  11.142
28682W        W93942  23.122  18.705  14.550
28683W        W93943  11.317  40.381   0.838
28684W        W93944   8.681  29.676   0.031
28685W        W93945  30.637   2.224  10.695
28686W        W93946  40.143  35.068   0.705
28687W        W93947  39.627  27.982   1.512
28688W        W93948  25.879  40.237  12.397
28689W        W93949  14.785  28.853  10.992
28690W        W93950   5.247  30.900   3.810
28691W        W93951  30.580  43.494   3.906
28692W        W93952  25.069  30.448  14.784
28693W        W93953  15.905   4.539  12.460
28694W        W93954  20.498   1.552   2.833
28695W        W93955  12.792  32.322   4.073
28696W        W93956  18.349  12.906   0.164
28697W        W93957  12.879  17.215  13.565
28698W        W93958  33.077  39.356  12.453
28699W        W93959  20.031  22.397   1.850
28700W        W93960  17.887   2.837  13.909
28701W        W93961  19.632  39.932  14.971
28702W        W93962  32.160  11.387  14.411
28703W        W93963  42.864   3.843  11.025
28704W        W93964  43.876   0.767  13.277
28705W        W93965  24.911  31.390   1.860
28706W        W93966  42.723  16.436   2.239
28707W        W93967  27.523   8.267   3.867
28708W        W93968   9.730  11.596   1.290
28709W        W93969   9.732   3.012  14.908
28710W        W93970  34.900   5.169  10.181
28711W        W93971   6.910  18.569  14.488
28712W        W93972  12.977  10.264  10.597
28713W        W93973  28.772   1.395   4.136
28714W        W93974  17.148  22.022  12.387
28715W        W93975  20.209  32.538  13.737
28716W        W93976  18.092  10.861   1.328
28717W        W93977  29.075  35.071  11.900
28718W        W93978  13.130  37.024  12.902
28719W        W93979   2.469  28.690   0.798
28720W        W93980  20.838  23.616   3.394
28721W        W93981  25.031  16.824   2.112
28722W        W93982  43.520   0.245  12.436
28723W        W93983   3.762  10.319   3.394
28724W        W93984  31.129  18.271  12.428
28725W        W93985  44.378  11.273  11.135
28726W        W93986  44.838  20.371   4.533
28727W        W93987  14.826   5.072   3.229
28728W        W93988  42.935   8.632   0.211
28729W        W93989  18.514  39.515  14.980
28730W        W93990  20.507  22.737  14.906
28731W        W93991  37.856   7.659   4.642
28732W        W93992  32.117  14.108  12.373
28733W        W93993  27.976  33.989  10.297
28734W        W93994  22.857   2.527   3.677
28735W        W93995  17.103   1.961  13.341
28736W        W93996   5.008  12.703  13.550
28737W        W93997   1.241  32.381   1.320
28738W        W93998  33.701  29.225  13.062
28739W        W93999  24.516   5.015   3.096
28740W        W94000  34.447  31.540  12.157
28741W        W94001  21.915   9.302  12.807
28742W        W94002  21.798  28.228   1.375
28743W        W94003  35.822  29.519  12.893
28744W        W94004   5.386   2.964  10.651
28745W        W94005  10.425  23.662  13.079
28746W        W94006  15.345  27.537  14.810
28747W        W94007   2.526  41.392  14.697
28748W        W94008  15.275  25.331  11.566
28749W        W94009  37.507  13.016  13.512
28750W        W94010  18.886  11.197  14.993
28751W        W94011  24.011  10.229   4.068
28752W        W94012   8.971  16.173   4.195
28753W        W94013  29.640   2.427  13.856
28754W        W94014  34.927  28.531   4.539
28755W        W94015  34.477  36.123   3.642
28756W        W94016   3.805   1.785  12.941
28757W        W94017  29.787  34.505  12.688
28758W        W94018   5.475  39.917   4.992
28759W        W94019  17.590  25.988   3.182
28760W        W94020   4.449  11.042  13.852
28761W        W94021   8.664  28.097   0.449
28762W        W94022  39.123   2.479  12.996
28763W        W94023  22.656  25.165  14.843
28764W        W94024  14.571  35.328  14.308
28765W        W94025  13.681  28.044  14.955
28766W        W94026  43.983  18.136   2.860
28767W        W94027   0.312  44.404   0.341
28768W        W94028   5.713  42.986   2.647
28769W        W94029  32.951  17.314  11.471
28770W        W94030   9.345  20.620   4.787
28771W        W94031  37.364  44.167   4.116
28772W        W94032  29.185  42.466  11.747
28773W        W94033  42.797   7.467  11.614
28774W        W94034  29.242  15.145  11.469
28775W        W94035  20.604  10.341   4.683
28776W        W94036   5.426  34.168  14.457
28777W        W94037  24.604  29.622   0.320
28778W        W94038  23.956  18.719  13.881
28779W        W94039  20.031   8.028   2.025
28780W        W94040   6.240  44.443  14.455
28781W        W94041  24.970  36.512   0.283
28782W        W94042  37.821   1.675   0.320
28783W        W94043  18.429  36.080   4.094
28784W        W94044  31.047  32.902   1.738
28785W        W94045  33.938  41.493   1.188
28786W        W94046  43.966   0.349  14.492
28787W        W94047   2.174   2.772   1.370
28788W        W94048  23.727  27.073   1.232
28789W        W94049  29.667  21.990  11.186
28790W        W94050   4.219  38.374  14.609
28791W        W94051  15.335  32.419  12.418
28792W        W94052  13.646  43.096  12.511
28793W        W94053   3.912  28.564   2.450
28794W        W94054   9.710   9.479  13.971
28795W        W94055   8.670  37.623  13.359
28796W        W94056  10.344  25.563   0.790
28797W        W94057  37.896  21.794   0.729
28798W        W94058  26.182   2.923  11.626
28799W        W94059  20.506  17.807  13.421
28800W        W94060  31.383  35.459   2.752
28801W        W94061  19.474   7.244   1.837
28802W        W94062  27.935  27.649   0.238
28803W        W94063   2.875  21.023   1.708
28804W        W94064  13.353   2.525  12.998
28805W        W94065  37.570  16.424   0.977
28806W        W94066  31.187  38.088  14.430
28807W        W94067  17.642   8.871   3.561
28808W        W94068  29.138  18.332   1.206
28809W        W94069  43.035   3.398  10.312
28810W        W94070  30.364   6.208  13.367
28811W        W94071  25.029  10.263   3.954
28812W        W94072  16.278  28.023  12.665
28813W        W94073   0.256  24.557   2.258
28814W        W94074  11.001  43.496   2.169
28815W        W94075  28.042  16.547   1.728
28816W        W94076  18.367   6.959   0.728
28817W        W94077  38.976   4.775   0.469
28818W        W94078  25.513  42.464  14.776
28819W        W94079   1.506   8.700  12.024
28820W        W94080  28.142  16.301  10.691
28821W        W94081  34.345  24.550  14.424
28822W        W94082  13.346   5.813  13.974
28823W        W94083  14.343  42.875   2.766
28824W        W94084  32.462  14.384   0.829
28825W        W94085   2.930  28.914   3.725
28826W        W94086  43.950   5.021  13.764
28827W        W94087  13.228  21.300   1.324
28828W        W94088  28.009  44.807   3.227
28829W        W94089  31.041  23.033  13.620
28830W        W94090  11.353  37.287  13.465
28831W        W94091  11.813   6.729   2.478
28832W        W94092  34.423  30.414  13.531
28833W        W94093  32.772  29.157   2.774
28834W        W94094  24.502  14.627  14.892
28835W        W94095  28.631  34.840   4.638
28836W        W94096  22.158   0.930  13.599
28837W        W94097  19.544  14.362  10.758
28838W        W94098  11.250  33.867  10.902
28839W        W94099  13.167  15.702   4.056
28840W        W94100  44.341  15.524   3.251
28841W        W94101  14.555  21.682   3.733
28842W        W94102  41.495  38.833   3.497
28843W        W94103  36.533  31.477   2.750
28844W        W94104  20.698  44.059   0.499
28845W        W94105  26.212  40.040  13.296
28846W        W94106  33.597  27.137   1.153
28847W        W94107   7.220  27.204   3.859
28848W        W94108  13.561  28.036   3.787
28849W        W94109  38.156  40.387  13.959
28850W        W94110   9.575   7.992  10.091
28851W        W94111  14.303   7.609   9.632
28852W        W94112  24.063  24.977  12.882
28853W        W94113   1.524  41.536   4.680
28854W        W94114  40.251  36.588  11.763
28855W        W94115   7.524  26.704   5.400
28856W        W94116  12.400  18.125  10.524
28857W        W94117  29.360  11.871   5.050
28858W        W94118  20.819   8.875  11.107
28859W        W94119  16.625  10.704   3.848
28860W        W94120  42.316  39.350  11.889
28861W        W94121  29.614   3.800   4.763
28862W        W94122   6.304  25.165  13.835
28863W        W94123   6.123  15.586   2.896
28864W        W94124  11.198  23.038  13.791
28865W        W94125  22.659  30.436   0.332
28866W        W94126   8.926  39.999   1.815
28867W        W94127   7.935   8.915  14.444
28868W        W94128   7.664   3.397  13.783
28869W        W94129  42.899  33.735   3.829
28870W        W94130  29.200  26.109  12.460
28871W        W94131  24.986  27.647  13.744
28872W        W94132   1.781   1.301   0.631
28873W        W94133   5.862   2.784  14.067
28874W        W94134  11.195  29.453   4.075
28875W        W94135  34.478  44.093   4.726
28876W        W94136  43.355   6.810   0.199
28877W        W94137  37.759   9.675  10.229
28878W        W94138  11.326  16.738  12.849
28879W        W94139   4.931  15.341  12.051
28880W        W94140  15.533  30.905  13.518
28881W        W94141   4.207  38.554  12.429
28882W        W94142   8.855  15.584  14.782
28883W        W94143   9.630   5.044  13.956
28884W        W94144  27.824  29.365   3.677
28885W        W94145  40.058  31.262   3.410
28886W        W94146  42.341   6.414   3.110
28887W        W94147  33.315   5.159  12.581
28888W        W94148   3.765  12.729   1.243
28889W        W94149  21.272   4.208   3.594
28890W        W94150  17.840   6.829   1.446
28891W        W94151  33.034   0.241  12.545
28892W        W94152  21.269  12.043   1.776
28893W        W94153  11.089  22.608   2.406
28894W        W94154  13.402  17.258  13.490
28895W        W94155   4.773  20.808   1.654
28896W        W94156  39.732   6.205   3.817
28897W        W94157   2.388  26.797   5.293
28898W        W94158  17.725   6.014   4.266
28899W        W94159  19.807   0.871   2.691
28900W        W94160  39.326   8.847   9.978
28901W        W94161   6.678  38.435   2.326
28902W        W94162  29.156  21.988  12.896
28903W        W94163   9.857   2.479  14.843
28904W        W94164  15.067  32.958  11.609
28905W        W94165  33.514  16.987   1.090
28906W        W94166  34.887  34.394   4.552
28907W        W94167  22.870   1.683   1.654
28908W        W94168   1.491  11.005   3.673
28909W        W94169  12.981   5.763  11.917
28910W        W94170  20.540  26.475   3.554
28911W        W94171  31.182  24.211   3.107
28912W        W94172  18.543  32.725  14.868
28913W        W94173  36.800  30.641  12.141
28914W        W94174  14.366  43.082   3.311
28915W        W94175  15.124  33.971  10.443
28916W        W94176  19.316  43.408   3.120
28917W        W94177  30.474  21.592   1.357
28918W        W94178  27.146   2.842  10.459
28919W        W94179  42.564  25.770   2.622
28920W        W94180  11.729   9.843  12.929
28921W        W94181   8.828  28.881   2.242
28922W        W94182   6.308  44.688  12.926
28923W        W94183  38.290  26.108   4.098
28924W        W94184  33.447  30.948   0.990
28925W        W94185  23.201  25.645   4.108
28926W        W94186  37.733  38.818   2.290
28927W        W94187  18.532  23.258  10.639
28928W        W94188  42.037  43.515   1.766
28929W        W94189  32.415   5.381  13.901
28930W        W94190  12.622  32.538   4.538
28931W        W94191  22.207   2.535   1.242
28932W        W94192   7.971  10.778  13.923
28933W        W94193  14.434  41.724   0.496
28934W        W94194  12.631  29.009   2.737
28935W        W94195  32.180  44.289   4.297
28936W        W94196  25.114   4.071  12.488
28937W        W94197  23.730  17.502   1.381
28938W        W94198  40.583  12.741   3.216
28939W        W94199  25.040  20.686   4.173
28940W        W94200  33.870  12.709   1.008
28941W        W94201  27.632   8.353  13.902
28942W        W94202  30.620  32.432   3.337
28943W        W94203  28.999   5.304  10.446
28944W        W94204  32.445  21.078   2.684
28945W        W94205  26.261  18.253  12.946
28946W        W94206  29.428  25.035  12.023
28947W        W94207  33.554  22.557  10.319
28948W        W94208  22.824  22.760   4.191
28949W        W94209  38.826  38.965   0.760
28950W        W94210  34.075   0.559   1.848
28951W        W94211  36.592   4.568   2.714
28952W        W94212   5.905  25.546   2.662
28953W        W94213  16.328   0.282   0.242
28954W        W94214  43.911  22.585  13.792
28955W        W94215   5.743  23.923   2.945
28956W        W94216  31.067  39.355   3.941
28957W        W94217  39.997  41.011   4.157
28958W        W94218   9.405  12.063   2.350
28959W        W94219   7.439  33.529  13.369
28960W        W94220  22.040   7.390  12.428
28961W        W94221  13.365   2.971  11.325
28962W        W94222  40.939  31.607  14.191
28963W        W94223  26.276  41.569  13.358
28964W        W94224  28.198   0.315   4.125
28965W        W94225  21.033   8.175  13.644
28966W        W94226   3.893  35.838  13.827
28967W        W94227  42.799  42.242  11.648
28968W        W94228   5.761  21.757  12.469
28969W        W94229  24.403  17.355   3.657
28970W        W94230  37.133  44.353   2.829
28971W        W94231  16.773  34.557   0.401
28972W        W94232  27.145  41.336  10.368
28973W        W94233  20.029   5.041   5.095
28974W        W94234  11.436  26.580  12.140
28975W        W94235  37.942   6.683   2.144
28976W        W94236  29.514   2.402   3.687
28977W        W94237  28.964  13.297   0.418
28978W        W94238   3.835  43.266  13.532
28979W        W94239  36.879  14.697  12.534
28980W        W94240  39.857  37.835   3.780
28981W        W94241  24.126  28.210   0.617
28982W        W94242  26.153  32.173   2.868
28983W        W94243  24.505  27.488   3.312
28984W        W94244  20.000  12.650  10.635
28985W        W94245  28.437  43.743   3.768
28986W        W94246  19.088  10.600  10.166
28987W        W94247  12.178   2.183  13.586
28988W        W94248  44.125   0.881  12.397
28989W        W94249  26.836   6.622   0.203
28990W        W94250  19.489  37.779  11.040
28991W        W94251  18.212  37.511  11.513
28992W        W94252  15.396  43.739   1.333
28993W        W94253  39.005  17.008  11.114
28994W        W94254  17.557  12.778   0.294
28995W        W94255  19.673  11.490   4.949
28996W        W94256   8.305  22.818   1.217
28997W        W94257  12.930   9.583  11.481
28998W        W94258  27.359  20.121   3.713
28999W        W94259  35.322  17.193  13.524
29000W        W94260  43.142   2.919  11.050
29001W        W94261   9.504   6.784   4.961
29002W        W94262  14.854  35.302   1.107
29003W        W94263  31.028   7.244  11.865
29004W        W94264   6.428  24.342   3.268
29005W        W94265  20.645  39.668   0.864
29006W        W94266  20.552  36.656  12.950
29007W        W94267  20.434  13.892   0.832
29008W        W94268  11.771  18.073  14.501
29009W        W94269   5.324  38.484   4.395
29010W        W94270  26.610  31.906   2.752
29011W        W94271  41.017  31.480  11.194
29012W        W94272   2.993  11.561   1.374
29013W        W94273  40.744  10.035   2.841
29014W        W94274   1.305  39.341   2.396
29015W        W94275   8.813   2.943   4.307
29016W        W94276   3.899  44.780  12.035
29017W        W94277  14.798  16.073  13.975
29018W        W94278  30.668  36.018   4.658
29019W        W94279  33.050  43.100   4.413
29020W        W94280  11.737  36.674   1.845
29021W        W94281  23.625   4.410  13.557
29022W        W94282  37.018  11.964   1.262
29023W        W94283  43.945  22.709   3.189
29024W        W94284  17.302  25.288  10.664
29025W        W94285  36.174  14.966   5.042
29026W        W94286   6.247  36.493   4.564
29027W        W94287  10.368   8.716   0.099
29028W        W94288  23.716  12.137   1.870
29029W        W94289  27.679  34.310   4.531
29030W        W94290   3.007  15.190  12.657
29031W        W94291  36.600  32.981  13.513
29032W        W94292  34.987  34.929   0.884
29033W        W94293  35.706   6.341  14.578
29034W        W94294   8.290  23.965  10.258
29035W        W94295  34.154  35.539   0.218
29036W        W94296   2.730   2.488  13.409
29037W        W94297  32.339  14.168   1.285
29038W        W94298  18.700  35.949  10.659
29039W        W94299  25.393  23.126   3.829
29040W        W94300  23.933  34.840   0.079
29041W        W94301  17.007  39.998   4.599
29042W        W94302  40.404   3.792   3.193
29043W        W94303   4.713  43.280  13.810
29044W        W94304   0.318  34.092   4.545
29045W        W94305  24.505  34.377   1.020
29046W        W94306  44.723  21.701  12.167
29047W        W94307   6.835  41.070   3.370
29048W        W94308  33.181   9.564   2.403
29049W        W94309   1.363  32.471  10.633
29050W        W94310  15.536  18.080  10.893
29051W        W94311  38.321   2.066   0.222
29052W        W94312   5.163  11.170   4.119
29053W        W94313   1.473  20.291  11.411
29054W        W94314  35.926   9.293   2.124
29055W        W94315  40.597  13.112   4.574
29056W        W94316  30.707  26.659  13.426
29057W        W94317  23.572   2.823  13.849
29058W        W94318   5.478  11.520  14.662
29059W        W94319  33.100  22.671   3.722
29060W        W94320  12.382  15.792  12.497
29061W        W94321  43.268  19.317   3.311
29062W        W94322   6.761  35.010  11.642
29063W        W94323  37.131  19.565   2.284
29064W        W94324  20.221  34.898  13.870
29065W        W94325   8.192  15.449   1.929
29066W        W94326  14.174  24.053  10.492
29067W        W94327  41.075  10.597   4.148
29068W        W94328  21.457  16.462   9.817
29069W        W94329  32.492  35.879  14.434
29070W        W94330  41.890   8.080  13.824
29071W        W94331  34.032  22.763  12.010
29072W        W94332  38.605  12.415   2.834
29073W        W94333  11.264  34.003  13.622
29074W        W94334  19.679  43.450   0.782
29075W        W94335   3.265   1.044  12.856
29076W        W94336  27.463  27.542   0.531
29077W        W94337   6.921   3.296   1.453
29078W        W94338  25.438  12.646  14.270
29079W        W94339   4.606   7.694   3.232
29080W        W94340  44.402   8.211  13.035
29081W        W94341  43.853  27.356   3.343
29082W        W94342  40.393  26.892   0.903
29083W        W94343  42.973   5.997   1.033
29084W        W94344  32.820  33.024   2.743
29085W        W94345  41.424  32.541  12.459
29086W        W94346  36.507  30.986  12.454
29087W        W94347  27.162  26.236   2.731
29088W        W94348   3.874  33.906   3.287
29089W        W94349   5.323  42.292  11.329
29090W        W94350  40.112  29.403  14.464
29091W        W94351   3.486  22.728   0.757
29092W        W94352  35.145  22.610   3.669
29093W        W94353  38.330   5.614  12.450
29094W        W94354  28.219  34.614  12.925
29095W        W94355  13.287  33.070  11.102
29096W        W94356  25.788  17.133  10.740
29097W        W94357  31.039  18.577   2.604
29098W        W94358  26.692   7.700  11.022
29099W        W94359   7.445  44.390   1.381
29100W        W94360  41.853  38.290   4.252
29101W        W94361  44.949  36.427   2.410
29102W        W94362  32.720  15.673  10.189
29103W        W94363  10.251  21.727  11.911
29104W        W94364   0.045   3.268   5.044
29105W        W94365  36.580  11.595   3.959
29106W        W94366  11.432   4.435  14.854
29107W        W94367  25.452   4.056   0.334
29108W        W94368   7.089  31.268  14.979
29109W        W94369  36.382  31.969  10.619
29110W        W94370  26.067   2.657   4.087
29111W        W94371  36.402  16.872   4.631
29112W        W94372  26.093  30.930   4.203
29113W        W94373  21.287  43.979   0.920
29114W        W94374  32.830  40.436  14.305
29115W        W94375  27.482   0.421  13.498
29116W        W94376  33.293  29.558  13.025
29117W        W94377  23.401  26.463   1.838
29118W        W94378  41.428   0.506   3.217
29119W        W94379  34.051  42.894   3.497
29120W        W94380   5.909   0.067  10.426
29121W        W94381  42.823  38.295  12.511
29122W        W94382  27.798  24.991   4.892
29123W        W94383   1.248  29.825  14.438
29124W        W94384  43.381  38.495   2.477
29125W        W94385   0.824  12.873  13.329
29126W        W94386  21.417  38.608  11.990
29127W        W94387  19.514  38.493   3.630
29128W        W94388  17.792  40.903  14.467
29129W        W94389   1.260   7.305  10.700
29130W        W94390  44.597  24.225   0.227
29131W        W94391  16.104  35.161  13.807
29132W        W94392   3.839   0.653   3.589
29133W        W94393  22.612  34.364   0.345
29134W        W94394   5.692  33.879  10.760
29135W        W94395  21.714   3.865  11.169
29136W        W94396   4.413  20.272   3.611
29137W        W94397  20.355  15.390  13.506
29138W        W94398  43.212  22.315  13.996
29139W        W94399  40.447   4.939  14.913
29140W        W94400   9.174  19.153   1.373
29141W        W94401   9.314  42.448  11.909
29142W        W94402  21.679  25.821  14.497
29143W        W94403   6.256  19.642   0.757
29144W        W94404   4.721  32.805   3.699
29145W        W94405  30.982  30.430   2.236
29146W        W94406  24.641   7.946  12.427
29147W        W94407   7.448  17.707   4.299
29148W        W94408  20.238  34.101  12.697
29149W        W94409  41.693  25.563  11.558
29150W        W94410  24.643  30.062   2.271
29151W        W94411   7.325  28.236   4.701
29152W        W94412   9.342   7.414  14.507
29153W        W94413  39.549   2.368  13.312
29154W        W94414  15.725  37.803  14.453
29155W        W94415   8.367  36.947   2.304
29156W        W94416  14.469  43.196  11.151
29157W        W94417  20.064  12.337   4.843
29158W        W94418   3.664  42.446   0.551
29159W        W94419  37.128  12.656  13.346
29160W        W94420  34.159  15.319   0.977
29161W        W94421  38.790  17.814  10.674
29162W        W94422  30.125  15.714   3.274
29163W        W94423  21.244  30.351  12.492
29164W        W94424  15.155  28.634   4.908
29165W        W94425  32.610  40.821  13.104
29166W        W94426   7.008  21.007  12.455
29167W        W94427   0.425   3.507  10.994
29168W        W94428  34.588  11.116   3.221
29169W        W94429  10.052  31.974  11.127
29170W        W94430  39.800   4.980   4.259
29171W        W94431   7.623  42.855  13.655
29172W        W94432  11.671   9.335  12.454
29173W        W94433  28.178  34.574   0.405
29174W        W94434  44.757  35.643   1.266
29175W        W94435  23.955   3.692  12.005
29176W        W94436  44.859  19.002  12.310
29177W        W94437  29.451  12.874  12.943
29178W        W94438  40.083  30.325   0.804
29179W        W94439  20.325  12.250  10.495
29180W        W94440  24.549  12.620  11.936
29181W        W94441  16.648  32.835  11.583
29182W        W94442  16.597  10.638   4.758
29183W        W94443   4.672  18.699   2.737
29184W        W94444  43.734  27.231   0.855
29185W        W94445  29.408  23.927   2.222
29186W        W94446  13.405  18.709   0.950
29187W        W94447  15.864   9.101   4.571
29188W        W94448  20.996  13.114   4.261
29189W        W94449  34.948   5.900   2.643
29190W        W94450  31.413  42.577  11.380
29191W        W94451  33.335  40.960  10.886
29192W        W94452  29.629  11.673   0.781
29193W        W94453  12.268  22.676   3.350
29194W        W94454  19.087  28.520   3.333
29195W        W94455  13.673  43.332   2.893
29196W        W94456   2.559  18.383   5.055
29197W        W94457  10.918   7.377   1.742
29198W        W94458  12.095  19.489   3.682
29199W        W94459   2.246  40.749  11.429
29200W        W94460   2.972  11.573   0.295
29201W        W94461  23.268   8.454   2.443
29202W        W94462  11.687   2.392   1.816
29203W        W94463   5.205   1.671   2.273
29204W        W94464  16.330  17.384   5.563
29205W        W94465  23.244  19.163  14.291
29206W        W94466  25.737  13.341  13.350
29207W        W94467  15.234   7.494  14.917
29208W        W94468  21.706   4.587  12.716
29209W        W94469  24.211   2.761   1.548
29210W        W94470  24.892  42.204   2.219
29211W        W94471  41.342  30.623  11.999
29212W        W94472   4.476  32.955   1.189
29213W        W94473  31.975  12.817   4.501
29214W        W94474  29.658   0.578  12.114
29215W        W94475  29.049  32.894  10.601
29216W        W94476  20.276   2.464  12.856
29217W        W94477  31.968  12.278  11.077
29218W        W94478  37.979  18.799   1.930
29219W        W94479  33.928  19.018   2.174
29220W        W94480  28.178   6.577  12.914
29221W        W94481   5.241  20.500  10.355
29222W        W94482  33.393  31.454   4.185
29223W        W94483   2.338   0.091   0.382
29224W        W94484   6.136  30.215  14.468
29225W        W94485  28.484  10.566  13.341
29226W        W94486  11.361  15.176   4.208
29227W        W94487  39.330  12.146   4.144
29228W        W94488   5.718  24.441  12.054
29229W        W94489   1.177   3.907   4.467
29230W        W94490  11.674  12.796  12.006
29231W        W94491  32.013  22.452   1.945
29232W        W94492  28.133   2.917   9.833
29233W        W94493  12.030  13.183   4.746
29234W        W94494  40.410  18.867  13.791
29235W        W94495  19.902  33.856  12.386
29236W        W94496  34.044  31.563   0.550
29237W        W94497  10.587  35.348   2.173
29238W        W94498  13.701   1.393   1.129
29239W        W94499  36.575  44.314  11.601
29240W        W94500  37.853  44.917  11.675
29241W        W94501  17.106  19.850   1.594
29242W        W94502  24.282  16.016   5.441
29243W        W94503  25.661  20.487   0.768
29244W        W94504  38.623   7.422   0.738
29245W        W94505  12.131   0.337   4.013
29246W        W94506   8.081   4.438   2.721
29247W        W94507   8.495  23.350  11.037
29248W        W94508  37.989  37.263   2.614
29249W        W94509  28.728   9.742  12.743
29250W        W94510  40.053  11.287   3.728
29251W        W94511  38.348  14.714   2.597
29252W        W94512   2.756  10.923  12.498
29253W        W94513  41.322  11.917   0.912
29254W        W94514  29.953   7.224   2.646
29255W        W94515  30.383  44.967  12.582
29256W        W94516   7.126   4.756   2.674
29257W        W94517  41.955  24.104  14.650
29258W        W94518  40.596   7.208  14.819
29259W        W94519   6.355  38.381   1.922
29260W        W94520  28.769   6.375   1.205
29261W        W94521   2.858  44.698  14.731
29262W        W94522  28.652  37.816   2.200
29263W        W94523  42.187  30.708  11.568
29264W        W94524  16.990  29.476  13.945
29265W        W94525  11.723   9.296   4.491
29266W        W94526  41.907  37.828  13.421
29267W        W94527   2.719  13.879   2.731
29268W        W94528   9.928  21.036   3.893
29269W        W94529  34.728  22.915  13.442
29270W        W94530  12.618   9.286   2.389
29271W        W94531  28.913  34.487  13.577
29272W        W94532   5.086   8.848  11.718
29273W        W94533   9.064  44.107  10.786
29274W        W94534   3.153  24.433   1.464
29275W        W94535  42.973  25.513   0.071
29276W        W94536  15.431  14.276  11.896
29277W        W94537   3.689  12.117   0.025
29278W        W94538  41.337   2.419  10.484
29279W        W94539  15.248  19.488   3.419
29280W        W94540  41.921  31.117  11.369
29281W        W94541  26.929  34.693  13.339
29282W        W94542  19.735  10.239  14.059
29283W        W94543  16.361  16.393   0.832
29284W        W94544  35.877  36.986   2.267
29285W        W94545  40.465  19.011  11.639
29286W        W94546  27.563  22.084  11.144
29287W        W94547  24.678   5.231  12.252
29288W        W94548  28.993  28.206  12.056
29289W        W94549  10.709  24.726   0.495
29290W        W94550  14.173  27.836  10.701
29291W        W94551  26.117  23.567  12.582
29292W        W94552  41.957  25.921   3.631
29293W        W94553  36.832  34.817   3.859
29294W        W94554  40.933   8.160   3.655
29295W        W94555  27.369   0.916  13.396
29296W        W94556  34.575  26.771   4.157
29297W        W94557  31.547   2.209   2.947
29298W        W94558  13.004   6.084  10.844
29299W        W94559  37.719  27.187   3.566
29300W        W94560  14.056  43.975   3.234
29301W        W94561  11.691  40.176  11.504
29302W        W94562  23.362  17.789  13.070
29303W        W94563  41.030  16.067   2.159
29304W        W94564   3.742   2.844  12.615
29305W        W94565  24.551  38.436  12.604
29306W        W94566  39.301  40.808  12.080
29307W        W94567  22.239   4.512  13.368
29308W        W94568  15.587  35.177   1.921
29309W        W94569  28.003  14.217   1.220
29310W        W94570  10.170  33.569  12.121
29311W        W94571  15.675   2.141  13.856
29312W        W94572  22.808   2.993  11.668
29313W        W94573  33.850   8.066   0.977
29314W        W94574  28.824  25.216   0.315
29315W        W94575  40.005  14.473   2.602
29316W        W94576  32.886   7.209   0.287
29317W        W94577   7.890  29.984  14.672
29318W        W94578  13.431  13.007  11.177
29319W        W94579  37.118   8.932  11.253
29320W        W94580  43.834  18.053  14.043
29321W        W94581  30.614  25.053  14.758
29322W        W94582  36.801  11.063  11.146
29323W        W94583  13.420  14.759  11.597
29324W        W94584  42.721  24.353   0.791
29325W        W94585  31.575  42.557   0.753
29326W        W94586  44.260  44.211   4.239
29327W        W94587  35.403  36.998   3.215
29328W        W94588   1.805   3.154   4.184
29329W        W94589  28.889  41.474   3.994
29330W        W94590  11.895  13.268  11.896
29331W        W94591   4.197  36.981   2.168
29332W        W94592  33.052  35.497   4.176
29333W        W94593  37.312  37.903   4.919
29334W        W94594  28.539  14.171   4.904
29335W        W94595  18.461  33.349  12.417
29336W        W94596  31.033  25.100   0.576
29337W        W94597  38.141  43.415  10.164
29338W        W94598  16.248   9.860   3.109
29339W        W94599  23.214  36.079  11.171
29340W        W94600  37.899   0.939   2.964
29341W        W94601   9.266  14.183  12.072
29342W        W94602  29.986   4.165   1.787
29343W        W94603   0.998  22.464   0.831
29344W        W94604  25.850   7.748  11.454
29345W        W94605  30.138   4.014   3.097
29346W        W94606   7.705   4.647  12.870
29347W        W94607  37.053  33.383  11.687
29348W        W94608  26.796  38.088   4.605
29349W        W94609  18.641  20.970   2.309
29350W        W94610  39.868  40.085  10.719
29351W        W94611  26.111  20.458  13.465
29352W        W94612  42.982  36.342  14.033
29353W        W94613   8.160  13.787   2.444
29354W        W94614  14.182  18.999  12.030
29355W        W94615  11.310  10.328   1.859
29356W        W94616  12.459  44.750   4.318
29357W        W94617  22.979   3.633   5.528
29358W        W94618  33.481   8.685   3.818
29359W        W94619  23.740  11.121   2.184
29360W        W94620  15.549  21.231   2.968
29361W        W94621  35.491   6.537  10.611
29362W        W94622  43.057  31.998  10.898
29363W        W94623  38.195  37.079  11.906
29364W        W94624  26.012   0.379   4.108
29365W        W94625  19.575  19.229   1.118
29366W        W94626  21.574   3.381   0.310
29367W        W94627  11.700  17.699  12.165
29368W        W94628  24.831   1.754   0.848
29369W        W94629  11.857  29.013  14.911
29370W        W94630   2.392  36.188  11.886
29371W        W94631  28.855  22.504   3.703
29372W        W94632  32.469  22.069   1.386
29373W        W94633  26.613  21.262  13.892
29374W        W94634  16.224   4.954  14.532
29375W        W94635   2.795  15.888   3.110
29376W        W94636  15.618  22.630  13.317
29377W        W94637   1.355  36.244  10.472
29378W        W94638  26.965  36.811   2.619
29379W        W94639  17.535  22.601   0.026
29380W        W94640  29.426  35.023   1.265
29381W        W94641  14.267  29.882  10.713
29382W        W94642   2.315  10.694  13.849
29383W        W94643  19.113   3.012  10.715
29384W        W94644  19.099  41.057  12.080
29385W        W94645   2.356   7.915  13.275
29386W        W94646  30.121   1.989   4.876
29387W        W94647   7.343   5.928  12.086
29388W        W94648   7.199  27.779  10.682
29389W        W94649   3.528   6.153   2.804
29390W        W94650   4.499  39.585  13.832
29391W        W94651  24.629  25.030  13.600
29392W        W94652  41.886   1.386  13.288
29393W        W94653  37.475  23.175   2.908
29394W        W94654  32.966  24.027  11.435
29395W        W94655   9.356  28.441  10.744
29396W        W94656   4.781  43.201   0.376
29397W        W94657  43.224  28.764   2.158
29398W        W94658  43.399  17.330  11.141
29399W        W94659  27.463   6.769   2.771
29400W        W94660  24.166  41.111  11.701
29401W        W94661  10.651   1.783  12.456
29402W        W94662  10.258  22.452   5.027
29403W        W94663  15.220  17.164  14.394
29404W        W94664  13.386  10.266   3.918
29405W        W94665  41.889  33.772  12.385
29406W        W94666   9.590  21.052   3.056
29407W        W94667  15.635  20.942   4.176
29408W        W94668  31.554  22.723  10.610
29409W        W94669  12.602   0.225  11.660
29410W        W94670  15.554   3.836   0.540
29411W        W94671  25.660  11.710  12.911
29412W        W94672   1.212   7.254  13.569
29413W        W94673  36.496   3.901  12.888
29414W        W94674   7.055  19.340  11.538
29415W        W94675   5.649  29.947  14.372
29416W        W94676   9.416   4.005   0.735
29417W        W94677  39.505  28.047  14.520
29418W        W94678  41.475  39.038  14.877
29419W        W94679  32.409  33.943  14.758
29420W        W94680   2.702  40.599  13.501
29421W        W94681  14.761  24.867   1.408
29422W        W94682  30.703  17.259   1.245
29423W        W94683  34.633  32.668  12.456
29424W        W94684   6.831   4.812  12.058
29425W        W94685  39.759  19.299  13.362
29426W        W94686   6.938  18.864  11.077
29427W        W94687  31.982  31.511  10.746
29428W        W94688   3.740  17.130  11.157
29429W        W94689   5.713  34.665  12.247
29430W        W94690  31.922  12.683   2.275
29431W        W94691  39.754   0.815   0.847
29432W        W94692  24.075  34.409  12.827
29433W        W94693   8.413  30.412   4.189
29434W        W94694  30.069  13.349  12.640
29435W        W94695  22.968  15.100   2.667
29436W        W94696  17.777  42.324   4.243
29437W        W94697   5.691  33.574  12.860
29438W        W94698  18.171   5.886   3.282
29439W        W94699   8.204  20.641   0.294
29440W        W94700  38.098  25.716   3.650
29441W        W94701  38.480   9.701   2.330
29442W        W94702  20.666  18.673  13.925
29443W        W94703  13.186  25.441  14.470
29444W        W94704   9.125  13.554   2.366
29445W        W94705   8.304  35.820   4.251
29446W        W94706   3.439   8.827   2.735
29447W        W94707  41.968  23.035   1.744
29448W        W94708  13.153  14.663  11.165
29449W        W94709   2.054  42.486  10.779
29450W        W94710  24.828  42.992   4.162
29451W        W94711  33.473  43.344  10.563
29452W        W94712  16.388  34.281  10.723
29453W        W94713  40.815  23.128   2.284
29454W        W94714  23.616  36.540  12.534
29455W        W94715   2.383  20.669   5.195
29456W        W94716  13.710  20.745   0.816
29457W        W94717  40.089   8.737  12.883
29458W        W94718  43.857  34.050  10.608
29459W        W94719  44.285  34.427   3.243
29460W        W94720  15.798  17.213  11.413
29461W        W94721  17.539  15.695  12.492
29462W        W94722  35.135  20.115   4.357
29463W        W94723  41.684  13.281   0.912
29464W        W94724  37.354  39.859   0.769
29465W        W94725  27.211  10.729  11.146
29466W        W94726   7.976   4.463  12.462
29467W        W94727  34.206  37.662   0.402
29468W        W94728  18.335  23.458   4.218
29469W        W94729  32.471  27.704   0.786
29470W        W94730  38.791  44.389  13.352
29471W        W94731  12.923  26.253   1.766
29472W        W94732   7.915  43.806   3.760
29473W        W94733  40.987  24.780  14.446
29474W        W94734  40.031  33.372  13.006
29475W        W94735  43.030  25.682   0.886
29476W        W94736  26.509  26.377   3.430
29477W        W94737  43.510  19.631   0.015
29478W        W94738  40.275   8.668  13.373
29479W        W94739   3.903   2.969   2.298
29480W        W94740  16.144  31.948  13.829
29481W        W94741  18.688  26.887  12.144
29482W        W94742  26.709  40.427   0.503
29483W        W94743  15.770  14.067  12.913
29484W        W94744  22.082   4.681  14.966
29485W        W94745  16.384   8.767   1.283
29486W        W94746   5.039   4.688   0.678
29487W        W94747  13.356  19.993   1.825
29488W        W94748  10.927  14.594   1.111
29489W        W94749  14.544  16.200   2.582
29490W        W94750  39.460  12.328  12.970
29491W        W94751  38.000   9.008   4.030
29492W        W94752  14.155  36.428   2.848
29493W        W94753  29.873  33.145  13.946
29494W        W94754  28.894  30.727  11.429
29495W        W94755   0.946  21.486  11.665
29496W        W94756   6.207  42.341   3.156
29497W        W94757  28.729   1.665   1.346
29498W        W94758  33.527  44.730  14.245
29499W        W94759  25.710  17.680  11.947
29500W        W94760   6.434   4.484  11.902
29501W        W94761  31.382   4.948  11.044
29502W        W94762   3.276   9.409   4.188
29503W        W94763  24.597  22.940   4.594
29504W        W94764   5.867   4.252   4.339
29505W        W94765  29.254  38.584   2.368
29506W        W94766  37.276  37.328  14.762
29507W        W94767  14.380  19.210   1.757
29508W        W94768   4.349  31.287   0.373
29509W        W94769  31.885  17.236  14.404
29510W        W94770  29.383  44.021  10.670
29511W        W94771  25.656  44.932  12.311
29512W        W94772  39.708  31.471   3.711
29513W        W94773  31.969  37.920  11.044
29514W        W94774  27.679   1.070  14.419
29515W        W94775  27.228  13.973   2.726
29516W        W94776   6.524  17.511  12.029
29517W        W94777  31.642  39.001  13.043
29518W        W94778  40.941  18.702  10.749
29519W        W94779  12.320  36.101  11.590
29520W        W94780  11.233  15.810   1.840
29521W        W94781  31.774  31.968   1.400
29522W        W94782  33.113  41.533   3.703
29523W        W94783   4.468   2.829  13.851
29524W        W94784  37.786  31.931   4.649
29525W        W94785  21.418   3.808  11.597
29526W        W94786  37.880  44.784   3.850
29527W        W94787   3.942  23.460  12.867
29528W        W94788  30.948   6.280  10.867
29529W        W94789  36.300  31.732  13.062
29530W        W94790  12.704  12.920   1.954
29531W        W94791   8.372  30.158  14.795
29532W        W94792  32.703  38.145  12.814
29533W        W94793  24.053  40.108  11.561
29534W        W94794  36.929  22.582  10.773
29535W        W94795  30.589  37.145  12.875
29536W        W94796  26.365   9.318   0.802
29537W        W94797   6.186  32.109   1.404
29538W        W94798  23.437  10.451  11.040
29539W        W94799  25.554  33.159  13.364
29540W        W94800  19.583  19.476  13.714
29541W        W94801  40.067   5.288  11.913
29542W        W94802  10.423  44.477  12.644
29543W        W94803   7.266  30.464  13.944
29544W        W94804  17.157   8.288   2.521
29545W        W94805  12.032   8.429   0.498
29546W        W94806  32.816  17.325  14.268
29547W        W94807  16.242   8.387  11.027
29548W        W94808  43.539   6.385   0.431
29549W        W94809  32.127  31.891  11.540
29550W        W94810  29.080   9.319   1.208
29551W        W94811  24.195  44.584   4.523
29552W        W94812  23.962   9.534  10.684
29553W        W94813  44.180  33.601   1.412
29554W        W94814   7.131  17.579   2.287
29555W        W94815   3.888  41.087   3.579
29556W        W94816  27.186  10.606   3.320
29557W        W94817  13.220  35.346   3.709
29558W        W94818  22.612  19.702   4.205
29559W        W94819   6.424   8.986   1.248
29560W        W94820  16.815  25.470  10.675
29561W        W94821   6.758  26.446  12.138
29562W        W94822  38.497  17.739  13.904
29563W        W94823   6.307   4.890  12.174
29564W        W94824  44.819  22.267  10.554
29565W        W94825  36.607   7.925   3.692
29566W        W94826  16.009  22.765   1.820
29567W        W94827   3.796  13.637  11.386
29568W        W94828  39.887  21.571   1.780
29569W        W94829  10.176  24.543   1.519
29570W        W94830  37.673  43.304  11.045
29571W        W94831  16.706  17.565  10.127
29572W        W94832  21.014  44.240   3.128
29573W        W94833   1.818   5.230  10.852
29574W        W94834  31.926  17.576   0.566
29575W        W94835  12.748  35.482   4.606
29576W        W94836  14.113  43.614  13.916
29577W        W94837  19.204  32.699   0.866
29578W        W94838  26.005  19.968  13.347
29579W        W94839   6.446  27.969  12.520
29580W        W94840  15.064  19.978   9.786
29581W        W94841  27.693  10.192  12.570
29582W        W94842  40.059   3.737   0.800
29583W        W94843  19.157  35.043   2.869
29584W        W94844  10.284   4.158  12.880
29585W        W94845  24.204  37.848  13.574
29586W        W94846  14.365  24.393  12.403
29587W        W94847  31.949  30.915   0.031
29588W        W94848   3.459  18.709   4.154
29589W        W94849   3.300   0.232  13.327
29590W        W94850  21.613  40.561  14.766
29591W        W94851   5.715  32.563  11.333
29592W        W94852   6.677  32.218  13.289
29593W        W94853  22.052  12.064   0.395
29594W        W94854  24.264   4.246   1.292
29595W        W94855  15.409  31.089  12.872
29596W        W94856   0.828  11.653   1.234
29597W        W94857  23.151  10.528  11.459
29598W        W94858   6.435  22.627   4.647
29599W        W94859  39.971   4.636   0.753
29600W        W94860  42.296  37.507  12.897
29601W        W94861  12.877   7.688   0.397
29602W        W94862  28.961  11.288  11.974
29603W        W94863  12.685  33.372  14.966
29604W        W94864  18.280  16.271  12.618
29605W        W94865   4.352  33.178  11.537
29606W        W94866  15.408  29.214   1.758
29607W        W94867  22.613   1.922   0.189
29608W        W94868  31.128  21.313  11.931
29609W        W94869  15.919   0.964  12.538
29610W        W94870  14.728  10.939   0.863
29611W        W94871  34.677  38.437   3.547
29612W        W94872   1.956  25.364   1.341
29613W        W94873  21.243  25.049   0.532
29614W        W94874   1.732   4.925   1.614
29615W        W94875  42.727  33.348  13.929
29616W        W94876   8.606  16.859  12.534
29617W        W94877  38.002  36.940  13.335
29618W        W94878  40.115  10.906   5.417
29619W        W94879  35.318  25.114   0.769
29620W        W94880  10.330  41.969  10.678
29621W        W94881   2.854  23.738  13.424
29622W        W94882  15.178  33.120   4.080
29623W        W94883  13.841   2.039  14.043
29624W        W94884  39.292  36.562   2.863
29625W        W94885  34.727  10.344   4.997
29626W        W94886  31.353  29.018  12.467
29627W        W94887  30.124  15.162  11.034
29628W        W94888  42.916  26.865  10.539
29629W        W94889  20.630  11.801  13.757
29630W        W94890  33.875  23.274  11.150
29631W        W94891   7.617  35.377   4.819
29632W        W94892  14.825  11.789  11.328
29633W        W94893   3.744  43.324   0.268
29634W        W94894  12.658   4.030   4.653
29635W        W94895  40.573  20.327  14.854
29636W        W94896  14.254  34.381   1.802
29637W        W94897  14.549   9.275  12.714
29638W        W94898   3.200  10.158   1.228
29639W        W94899  42.000  27.933  11.591
29640W        W94900  38.480  17.100  11.068
29641W        W94901   1.345  42.466  11.123
29642W        W94902  33.562   3.714   4.716
29643W        W94903  30.889   1.989  14.783
29644W        W94904  34.886   7.930  13.992
29645W        W94905  37.032  17.823  10.436
29646W        W94906   6.329  28.428  14.058
29647W        W94907   9.625  29.845   0.973
29648W        W94908  10.202  28.649  12.902
29649W        W94909  15.841  13.190  12.464
29650W        W94910  33.394   1.287  12.948
29651W        W94911  10.607  35.244  13.861
29652W        W94912   7.323  15.057   3.599
29653W        W94913  41.881  37.795   4.087
29654W        W94914  18.578  24.744  11.217
29655W        W94915   1.487  16.440   1.921
29656W        W94916  41.400  20.125   2.233
29657W        W94917  18.628  34.020   0.417
29658W        W94918  12.837  21.444   2.014
29659W        W94919   0.334   8.275   1.718
29660W        W94920   6.316  26.946  14.052
29661W        W94921  32.107  23.732  10.288
29662W        W94922  16.718  23.986  10.655
29663W        W94923  34.003  40.599  11.068
29664W        W94924  19.212  10.298   2.491
29665W        W94925  28.245   1.320  11.584
29666W        W94926  20.005  26.583  14.222
29667W        W94927   1.718   3.354  11.625
29668W        W94928  24.409  22.048   2.398
29669W        W94929  36.504   1.431   0.405
29670W        W94930  40.464   7.408   2.281
29671W        W94931  43.485  44.391  14.115
29672W        W94932   1.518  41.016   3.426
29673W        W94933  35.374   1.932  13.467
29674W        W94934   9.540  28.854   2.664
29675W        W94935  39.434  22.983   0.292
29676W        W94936   8.153  36.512  11.155
29677W        W94937   7.791  39.291  11.184
29678W        W94938  34.608   6.971   4.590
29679W        W94939  28.385   6.925  13.496
29680W        W94940   2.356   0.778  13.337
29681W        W94941  18.712  11.246   3.215
29682W        W94942  42.077  14.833   3.273
29683W        W94943   1.238  21.145   0.256
29684W        W94944  25.512  38.564  14.025
29685W        W94945  18.152  26.111   4.930
29686W        W94946  16.090   8.607   3.710
29687W        W94947  22.455  34.570  11.111
29688W        W94948  15.015   8.709   3.713
29689W        W94949  26.506  34.984   4.088
29690W        W94950  35.851   1.826  13.315
29691W        W94951  36.859  18.546  14.314
29692W        W94952   2.297  26.164  14.485
29693W        W94953   3.297   8.465  11.738
29694W        W94954  24.766   5.011   1.172
29695W        W94955   0.312   7.860   4.783
29696W        W94956  25.496   8.610   3.677
29697W        W94957  41.273  20.732  11.327
29698W        W94958  17.731  11.135   2.231
29699W        W94959  30.498  23.018   4.406
29700W        W94960  20.443  17.010   3.074
29701W        W94961  27.332  19.513   1.816
29702W        W94962   3.220  30.047  14.781
29703W        W94963  21.664  10.215   0.678
29704W        W94964  20.663  39.092   4.470
29705W        W94965  43.851  18.796  14.676
29706W        W94966  20.064   1.592   1.954
29707W        W94967   6.981   0.229   1.639
29708W        W94968   5.704  32.411   1.767
29709W        W94969  18.347  25.094   4.605
29710W        W94970   6.949   4.782  12.993
29711W        W94971   3.369  37.519   2.347
29712W        W94972  28.894  37.022   3.146
29713W        W94973  23.076   1.380   2.463
29714W        W94974  37.956  17.263  12.615
29715W        W94975  13.262  37.310  11.650
29716W        W94976  27.565  39.828   1.824
29717W        W94977   9.602  24.462   5.331
29718W        W94978  27.727   1.513   4.412
29719W        W94979  15.806  39.363  10.757
29720W        W94980  24.171   8.624   0.273
29721W        W94981  27.849  43.230  13.269
29722W        W94982  17.334  37.463   1.464
29723W        W94983  18.579  21.980   2.756
29724W        W94984  14.077  18.926   3.827
29725W        W94985  24.507  20.734   2.102
29726W        W94986  26.644  26.427  14.336
29727W        W94987  18.555   8.940   3.430
29728W        W94988   2.316  28.327  12.614
29729W        W94989  36.855  26.947   1.475
29730W        W94990  21.666  18.942   2.575
29731W        W94991  27.001  15.672  12.086
29732W        W94992   6.237  12.330   0.719
29733W        W94993  25.238  34.153  12.168
29734W        W94994  13.646  21.630   2.792
29735W        W94995   9.841  43.880  10.873
29736W        W94996  31.029   7.596  10.545
29737W        W94997  41.438  19.109  12.583
29738W        W94998  27.481  32.141   4.547
29739W        W94999  29.207  13.112   2.739
29740W        W95000  33.179  29.610   9.883
29741W        W95001  29.729  38.892   0.303
29742W        W95002  16.340  30.430  10.675
29743W        W95003  13.269  31.849   0.049
29744W        W95004  32.312  29.419   2.739
29745W        W95005  14.540   3.272   3.505
29746W        W95006  19.574  17.727   2.811
29747W        W95007   0.933  10.155  12.619
29748W        W95008  13.220  43.326  11.574
29749W        W95009  36.917  20.727   3.255
29750W        W95010  28.524  39.303   2.364
29751W        W95011   5.961  22.085   2.737
29752W        W95012   4.488  12.685  10.651
29753W        W95013  10.167  27.452  13.518
29754W        W95014  13.171  44.955  11.145
29755W        W95015  40.418  19.342  11.266
29756W        W95016  33.104  12.542   2.740
29757W        W95017  28.614  17.624  12.920
29758W        W95018   6.262  31.877  14.950
29759W        W95019  31.189  44.860   0.465
29760W        W95020  27.411   1.006   2.619
29761W        W95021  16.091  24.190   4.765
29762W        W95022  16.726   7.332   3.160
29763W        W95023  11.648   5.457   0.020
29764W        W95024  41.418   7.694   2.149
29765W        W95025  13.231  23.237   3.765
29766W        W95026  23.543  16.311  13.581
29767W        W95027  29.934  40.429   1.723
29768W        W95028  25.117  38.341  10.910
29769W        W95029  11.967  15.784  12.838
29770W        W95030  26.202  12.572  14.976
29771W        W95031  18.187  41.979  10.559
29772W        W95032  37.063  22.084  10.752
29773W        W95033  15.314  11.677  13.500
29774W        W95034   4.511   3.278  14.117
29775W        W95035  44.498  14.281   4.372
29776W        W95036  18.287  37.372   1.550
29777W        W95037  22.006  15.422   5.100
29778W        W95038  29.989   5.462   2.192
29779W        W95039  27.970  29.718  11.784
29780W        W95040   8.778  37.127  13.436
29781W        W95041  34.433  15.831  14.014
29782W        W95042  33.446  26.035  13.074
29783W        W95043   0.383   5.185  11.020
29784W        W95044  35.526   1.488  14.300
29785W        W95045  38.652  36.838  11.951
29786W        W95046  38.580   3.799   1.834
29787W        W95047  20.080  11.410  10.531
29788W        W95048  19.674  22.308   3.032
29789W        W95049  31.004  39.060  14.418
29790W        W95050  38.177  29.213  11.892
29791W        W95051  30.972  13.415  12.505
29792W        W95052  14.877  41.221  11.960
29793W        W95053  22.885  25.151   2.089
29794W        W95054  29.022  28.797   1.998
29795W        W95055   8.894  42.040   5.048
29796W        W95056  15.043  21.488  12.037
29797W        W95057   6.281  21.186   2.852
29798W        W95058   4.975  38.209  14.780
29799W        W95059   5.603  15.574   2.833
29800W        W95060   1.486   0.347   2.285
29801W        W95061  29.019   2.329   3.557
29802W        W95062  41.084  25.993  11.108
29803W        W95063  32.033  33.897   3.013
29804W        W95064  30.683  30.407   0.292
29805W        W95065  41.067  40.572   4.649
29806W        W95066  17.608   8.770  14.866
29807W        W95067  35.302  20.716  11.103
29808W        W95068  37.010  17.751  13.353
29809W        W95069  25.231  17.281   0.354
29810W        W95070   3.966  12.604  10.560
29811W        W95071   3.888  29.700  10.769
29812W        W95072   9.728  25.263   0.330
29813W        W95073  15.485  25.724   3.706
29814W        W95074   2.194  17.683   3.489
29815W        W95075  10.520  38.098  12.368
29816W        W95076   5.919  44.705  13.790
29817W        W95077   3.260   3.988   4.435
29818W        W95078   9.501  40.850   3.665
29819W        W95079  33.860  26.416  14.527
29820W        W95080   0.018  12.161  14.476
29821W        W95081  29.433   0.811  10.593
29822W        W95082  25.945  32.116  13.075
29823W        W95083  11.536   4.400  11.417
29824W        W95084  12.274   9.646  13.721
29825W        W95085  13.386  37.099   2.358
29826W        W95086  27.689  16.493  10.834
29827W        W95087  11.707  26.232  11.187
29828W        W95088   1.996  44.539  11.083
29829W        W95089   2.574  36.937  14.309
29830W        W95090  29.022  39.786  12.799
29831W        W95091  22.097  16.567   1.884
29832W        W95092   8.097   8.091   2.059
29833W        W95093  33.471  17.637  13.362
29834W        W95094  42.560  43.022   2.724
29835W        W95095  39.340  26.620   0.475
29836W        W95096  17.213   8.647   0.317
29837W        W95097  24.231  31.161  12.091
29838W        W95098  37.598  13.772   3.675
29839W        W95099  16.183  16.046  12.327
29840W        W95100  39.125   6.228  12.954
29841W        W95101  34.513  40.732   1.804
29842W        W95102   0.448  44.025  14.807
29843W        W95103  41.765  29.103   3.311
29844W        W95104  40.295  31.679   4.840
29845W        W95105  16.488   7.311  11.626
29846W        W95106  12.630  29.659  13.234
29847W        W95107  34.246   7.142   2.288
29848W        W95108   0.077  25.092   2.233
29849W        W95109  42.236  41.702  10.921
29850W        W95110   3.157  43.701  12.352
29851W        W95111  38.067   2.727   3.408
29852W        W95112  39.950  16.268   2.224
29853W        W95113  16.092  33.410   1.965
29854W        W95114   4.049  41.097  10.991
29855W        W95115  44.457  41.443   4.681
29856W        W95116   5.801  17.219  12.305
29857W        W95117  29.167  25.768  12.042
29858W        W95118  14.584   5.329   0.506
29859W        W95119  33.938  13.109  11.849
29860W        W95120  37.402  35.874   3.783
29861W        W95121  24.612  18.808   0.631
29862W        W95122  33.966  39.526   1.812
29863W        W95123  34.411  10.769  12.887
29864W        W95124  29.600  24.543  12.063
29865W        W95125  11.639  20.234  13.471
29866W        W95126  16.706   6.219   0.383
29867W        W95127  20.460   2.421   3.170
29868W        W95128  27.082  20.558   3.688
29869W        W95129  20.727  26.174  14.474
29870W        W95130  44.077  26.427   1.309
29871W        W95131   2.863  43.400   3.727
29872W        W95132  32.593  40.155   3.175
29873W        W95133  16.895   9.801  12.526
29874W        W95134   9.922  17.827  11.421
29875W        W95135  16.093  13.271   3.257
29876W        W95136  12.933  32.826  14.950
29877W        W95137   5.615  21.098   5.056
29878W        W95138   6.232  13.119   2.799
29879W        W95139   9.582  27.652  10.386
29880W        W95140  37.661  13.395   3.327
29881W        W95141  35.441  36.320   1.856
29882W        W95142   4.678  36.557  10.405
29883W        W95143  34.322  30.759  12.466
29884W        W95144  31.734   1.883  13.065
29885W        W95145  37.918  41.125  12.437
29886W        W95146  25.066  11.881  13.987
29887W        W95147  26.662  25.189  12.448
29888W        W95148  34.431  21.619   2.810
29889W        W95149  29.100  17.138   2.449
29890W        W95150  12.540  41.243   0.521
29891W        W95151  28.083  43.444  14.282
29892W        W95152   3.361  36.781  14.852
29893W        W95153  28.910  15.029  10.791
29894W        W95154  29.169  12.413   2.288
29895W        W95155  22.031   5.522  14.615
29896W        W95156  30.149  10.744   0.828
29897W        W95157  26.792  17.539   4.087
29898W        W95158   6.163  35.934   3.722
29899W        W95159  33.133  16.548  11.663
29900W        W95160   2.867   6.366  13.620
29901W        W95161  44.560  12.064   0.383
29902W        W95162  13.755  43.062  14.904
29903W        W95163   0.885  12.824   1.471
29904W        W95164  19.183  31.015  11.676
29905W        W95165  38.659  11.044  13.774
29906W        W95166  23.852   8.459  10.997
29907W        W95167   6.678  10.023  13.819
29908W        W95168  15.662  23.647  10.653
29909W        W95169  15.220  36.678  11.176
29910W        W95170   5.289  39.254   1.417
29911W        W95171   4.695  17.892   4.551
29912W        W95172  41.628  34.790  11.137
29913W        W95173  39.869  36.274   2.031
29914W        W95174  36.030  41.296   0.661
29915W        W95175  44.822  18.471   0.457
29916W        W95176   2.917  39.852  14.824
29917W        W95177  19.691  40.550   3.862
29918W        W95178   8.208   4.276   4.968
29919W        W95179  24.982  30.182   3.834
29920W        W95180  23.734  20.682  13.132
29921W        W95181  21.740  40.234  11.373
29922W        W95182  23.083   0.170  11.608
29923W        W95183   7.241  10.752   2.834
29924W        W95184  40.765  42.589  14.146
29925W        W95185  41.920  30.004   0.749
29926W        W95186  34.200  22.677   1.242
29927W        W95187  39.952  26.930  10.432
29928W        W95188  34.572   3.429   2.445
29929W        W95189  14.361  23.807   0.636
29930W        W95190  32.385  18.095  11.758
29931W        W95191  20.033   1.284  14.569
29932W        W95192  28.793  25.373  13.923
29933W        W95193  25.559  32.126   0.756
29934W        W95194  40.397  15.199  14.474
29935W        W95195  14.239   1.747   4.256
29936W        W95196  18.017  26.620   0.432
29937W        W95197  40.045  39.051   4.644
29938W        W95198  24.203  22.077   1.926
29939W        W95199  22.544  18.880   2.364
29940W        W95200  37.146  41.625   1.309
29941W        W95201  43.922  20.831  10.570
29942W        W95202  33.037  33.852   1.529
29943W        W95203  29.390  27.107  10.424
29944W        W95204  20.507   4.291   5.379
29945W        W95205  31.226  44.328  11.539
29946W        W95206  32.693  26.706  12.611
29947W        W95207  17.968  16.053  13.930
29948W        W95208  18.711  10.767   3.008
29949W        W95209  12.650  20.569   3.298
29950W        W95210   0.941   3.243  14.603
29951W        W95211   7.859  40.305  10.843
29952W        W95212  28.244   1.452   2.608
29953W        W95213  16.173  20.072  14.095
29954W        W95214  18.723   1.411  14.067
29955W        W95215   9.278  33.142  14.569
29956W        W95216  21.148  35.287   4.555
29957W        W95217  24.812   9.854   4.163
29958W        W95218  23.793  39.914   0.767
29959W        W95219  10.706   9.327   0.446
29960W        W95220  43.580  28.705   0.458
29961W        W95221  36.033   1.013  13.000
29962W        W95222   1.738   1.429  11.973
29963W        W95223  23.873   3.196   4.532
29964W        W95224  21.725  35.095  12.931
29965W        W95225   2.448  15.248   3.712
29966W        W95226   2.194   8.047   0.788
29967W        W95227  24.152  36.374  13.943
29968W        W95228  21.110   6.544   3.665
29969W        W95229  26.627  17.181   2.395
29970W        W95230  28.124  22.181   3.333
29971W        W95231  41.012  32.907   3.918
29972W        W95232  21.618  13.910  13.480
29973W        W95233  12.098   1.512   0.380
29974W        W95234  24.484  32.175   3.619
29975W        W95235  31.136  31.805  13.474
29976W        W95236   2.161  30.408  11.720
29977W        W95237  40.577  21.297   2.718
29978W        W95238  29.165  26.889   1.532
29979W        W95239  26.129  11.837   1.784
29980W        W95240  42.012  36.588   3.276
29981W        W95241  38.936   3.306  11.435
29982W        W95242   1.799  13.692  13.930
29983W        W95243   4.152   8.766   2.667
29984W        W95244  28.221  32.601   4.187
29985W        W95245  44.411  21.146   0.299
29986W        W95246  25.710  40.671  11.140
29987W        W95247  44.008  14.814  10.305
29988W        W95248  16.857  15.698  11.100
29989W        W95249  14.171  22.043   4.581
29990W        W95250  32.019  36.994   0.008
29991W        W95251  35.113  23.312  11.735
29992W        W95252  11.283   4.398   4.198
29993W        W95253  30.608  24.266  13.490
29994W        W95254   7.814   3.809   3.742
29995W        W95255  34.429  18.657  11.014
29996W        W95256  10.252   5.551   1.859
29997W        W95257  43.793  37.870  13.024
29998W        W95258  24.267   4.138  14.138
29999W        W95259  22.489  39.461  14.081
30000W        W95260  41.217  17.034  13.827
30001W        W95261   3.963   2.856  12.134
30002W        W95262  36.140  39.348  13.030
30003W        W95263  14.397  11.291  12.815
30004W        W95264  43.275  40.521  13.870
30005W        W95265  31.507  12.206   3.385
30006W        W95266  21.592  36.619  12.526
30007W        W95267  19.513   0.039   3.755
30008W        W95268  20.225   4.451   0.507
30009W        W95269   0.300  26.611  10.303
30010W        W95270   1.364  44.455  12.441
30011W        W95271  26.155  29.754   3.330
30012W        W95272  25.767   7.212   3.335
30013W        W95273  28.105  37.776  14.949
30014W        W95274  34.938   0.433  13.444
30015W        W95275  38.314  29.853   1.277
30016W        W95276   4.688  38.523  11.584
30017W        W95277  29.431   3.446  12.361
30018W        W95278   0.370   1.326  10.462
30019W        W95279  11.729  32.295   4.160
30020W        W95280  26.946  12.357   3.664
30021W        W95281  19.660  29.875   4.316
30022W        W95282  15.194  35.282  11.603
30023W        W95283  14.307   0.016   1.313
30024W        W95284  19.210  23.247  12.081
30025W        W95285  33.111  17.802  10.542
30026W        W95286  24.632   0.228   3.294
30027W        W95287  34.412  10.387   0.754
30028W        W95288  13.225  30.221  11.448
30029W        W95289  44.801  20.821  11.632
30030W        W95290  38.765   8.971   2.748
30031W        W95291  16.159  27.657  11.909
30032W        W95292  36.062  26.661  13.263
30033W        W95293  11.253  39.611  13.915
30034W        W95294  23.440  15.747   0.954
30035W        W95295  43.077  36.801  13.327
30036W        W95296  31.898   9.196   4.719
30037W        W95297  19.437  17.478   3.248
30038W        W95298  42.476  11.692   0.395
30039W        W95299  14.148  24.031   4.297
30040W        W95300  44.393  11.125  13.355
30041W        W95301   2.672  30.184  13.422
30042W        W95302  33.617   6.030   1.410
30043W        W95303  33.488   8.205  12.956
30044W        W95304  28.094   1.815   2.103
30045W        W95305   4.945  20.061   4.235
30046W        W95306  33.390  36.424  10.523
30047W        W95307  19.725   6.369   3.831
30048W        W95308  17.189  18.588   5.173
30049W        W95309  11.169  33.504   2.095
30050W        W95310  35.074  29.948   2.806
30051W        W95311  37.554  40.438  13.026
30052W        W95312  24.179  22.557   1.711
30053W        W95313  40.047  27.914  11.526
30054W        W95314  19.796  41.546  13.418
30055W        W95315  10.394  41.014   3.098
30056W        W95316   7.941   9.216  10.660
30057W        W95317  44.937   0.730  14.515
30058W        W95318  16.409   6.942  12.349
30059W        W95319   4.451  40.311   4.632
30060W        W95320  40.288  42.285   1.401
30061W        W95321  10.585   3.505  14.184
30062W        W95322  33.426  10.001  12.455
30063W        W95323  41.220  12.588  13.804
30064W        W95324  41.892  34.164   3.270
30065W        W95325  42.014  39.197   0.864
30066W        W95326   5.210  13.170  14.434
30067W        W95327   5.783   9.780   1.302
30068W        W95328  37.356  42.330   1.809
30069W        W95329   6.369  22.530  12.625
30070W        W95330  22.152   2.503  13.504
30071W        W95331  40.986  12.658   3.497
30072W        W95332  23.137  12.198   1.141
30073W        W95333   0.211  35.379   2.958
30074W        W95334  29.050  13.676   1.350
30075W        W95335  13.336  39.515   2.370
30076W        W95336  42.471   9.329  13.797
30077W        W95337  39.644  21.467   2.692
30078W        W95338  16.028  24.034   2.353
30079W        W95339  34.199  43.432   2.811
30080W        W95340  27.030   6.113   3.124
30081W        W95341  18.622  12.932  13.006
30082W        W95342  13.169  13.580   3.273
30083W        W95343  44.918  43.452  10.675
30084W        W95344  18.616   2.391   0.640
30085W        W95345  21.940  19.674   0.693
30086W        W95346   3.767  22.774  13.906
30087W        W95347  37.746  21.426  12.896
30088W        W95348  32.898  23.489   3.357
30089W        W95349  38.452  26.097   0.295
30090W        W95350  34.196  41.854  12.912
30091W        W95351  26.107   7.747  14.749
30092W        W95352  15.596  43.521  12.588
30093W        W95353   5.711  44.885  14.261
30094W        W95354  24.583  14.025   3.238
30095W        W95355   0.729  12.569   2.784
30096W        W95356  15.725  24.548  11.492
30097W        W95357  41.633  43.964  11.564
30098W        W95358  23.931  31.273   2.924
30099W        W95359  41.779   8.743  14.367
30100W        W95360   0.485  10.391   4.646
30101W        W95361  30.586  21.228  14.058
30102W        W95362   9.027  39.400   2.246
30103W        W95363   5.173  25.584  14.506
30104W        W95364  17.364  30.557   0.339
30105W        W95365  24.538  11.428  14.996
30106W        W95366  25.300  40.895   4.669
30107W        W95367  43.924   5.378  11.642
30108W        W95368  34.652  19.707   3.764
30109W        W95369  37.926  23.166  12.042
30110W        W95370  41.512   6.979   1.329
30111W        W95371  23.454   6.371   4.022
30112W        W95372  35.780  10.123   4.162
30113W        W95373  20.484   8.553  13.873
30114W        W95374   6.858  25.291   4.155
30115W        W95375  14.143  37.880   0.831
30116W        W95376  30.622  40.113  12.418
30117W        W95377  41.377  19.365   3.799
30118W        W95378  24.212  43.101   4.867
30119W        W95379   0.479   4.626   4.017
30120W        W95380  28.146  19.668  10.072
30121W        W95381   8.233  17.525  13.913
30122W        W95382  25.240  34.108   1.649
30123W        W95383   5.650  25.023   3.794
30124W        W95384   9.716  25.187   4.000
30125W        W95385  26.582  14.142  11.051
30126W        W95386  13.318   0.919   0.142
30127W        W95387  36.044  24.665  12.000
30128W        W95388  39.731  26.403  11.226
30129W        W95389  13.662   0.819   3.454
30130W        W95390  38.161  27.183  11.141
30131W        W95391  10.801  33.311  13.857
30132W        W95392  29.620  36.690  13.294
30133W        W95393  36.962  21.284  11.861
30134W        W95394  39.892  22.616  14.756
30135W        W95395   2.558   0.804  10.497
30136W        W95396  19.511  10.856   0.665
30137W        W95397  33.957  16.725   4.510
30138W        W95398  32.169   2.867  14.383
30139W        W95399   3.362  15.799  14.381
30140W        W95400   9.367  30.545   0.774
30141W        W95401   1.244   6.699   3.308
30142W        W95402  37.411  34.321  14.894
30143W        W95403  12.801   8.402  14.937
30144W        W95404  17.633  25.528   2.917
30145W        W95405  11.343  27.600  12.820
30146W        W95406  40.044  40.098  13.981
30147W        W95407   3.924  21.037   1.962
30148W        W95408  11.835  23.773   2.767
30149W        W95409  33.148  44.342   4.098
30150W        W95410  14.747   7.320  14.987
30151W        W95411  38.781   8.502  11.561
30152W        W95412  44.316  42.847  14.021
30153W        W95413  10.005   9.141  11.532
30154W        W95414   5.871  16.119   4.014
30155W        W95415   6.441  37.870   1.990
30156W        W95416   8.638  41.213  11.035
30157W        W95417  19.501  44.235  11.090
30158W        W95418   5.075  20.392   3.479
30159W        W95419   4.308  21.573  10.988
30160W        W95420  10.704  22.164  10.711
30161W        W95421  13.418  10.867  11.405
30162W        W95422   1.928  44.139   0.021
30163W        W95423  23.532  38.562  11.133
30164W        W95424   9.354  14.186   0.394
30165W        W95425  35.814  12.210  12.480
30166W        W95426  30.920  28.393   2.368
30167W        W95427  11.378  38.432   3.733
30168W        W95428  35.364  41.061   0.424
30169W        W95429  10.679   4.014  13.358
30170W        W95430  15.561  14.104  13.385
30171W        W95431  44.935  36.528   0.261
30172W        W95432  32.939  13.157   0.980
30173W        W95433  21.069  10.736  11.939
30174W        W95434  16.327   4.229   2.269
30175W        W95435   3.828  43.925  13.448
30176W        W95436  37.782  11.084   4.154
30177W        W95437   0.784   6.721   2.677
30178W        W95438  16.877  31.426  14.314
30179W        W95439  31.357   6.690   3.271
30180W        W95440  15.500  24.084  13.492
30181W        W95441  21.188  11.501  13.008
30182W        W95442  15.823  41.845   3.221
30183W        W95443  21.214  30.629  14.840
30184W        W95444  13.448  35.909   0.036
30185W        W95445  13.799  15.569  13.061
30186W        W95446   4.319  15.110  11.545
30187W        W95447  18.747  13.666   3.409
30188W        W95448  29.820  30.598   1.901
30189W        W95449  40.982   6.326  14.319
30190W        W95450   0.682   7.365   3.122
30191W        W95451  14.997  21.297   1.685
30192W        W95452   8.623  24.054  14.004
30193W        W95453  16.698  14.634   1.834
30194W        W95454   6.497  33.685  12.375
30195W        W95455  43.787   8.057   0.000
30196W        W95456   9.134   5.762   3.767
30197W        W95457  23.803  13.234   0.438
30198W        W95458  34.508  25.401   2.878
30199W        W95459   8.648  36.274   1.323
30200W        W95460  17.256  38.766  10.074
30201W        W95461  38.994  19.079   2.837
30202W        W95462   9.434  29.520  12.282
30203W        W95463  10.246  43.353  10.397
30204W        W95464   3.343   5.497   4.608
30205W        W95465   3.206  22.290   3.188
30206W        W95466  18.193   8.218   3.302
30207W        W95467   3.798  10.245   1.863
30208W        W95468  21.188   6.728  12.771
30209W        W95469  18.835  43.277  12.056
30210W        W95470   2.517  20.545   2.556
30211W        W95471  32.845  15.877  14.935
30212W        W95472  11.864  12.115   3.653
30213W        W95473  16.260  42.438   0.918
30214W        W95474  18.101  16.358   2.001
30215W        W95475  11.123  17.117  14.116
30216W        W95476  44.713  15.156   1.846
30217W        W95477   8.815  21.056  14.516
30218W        W95478  33.927   3.822   3.820
30219W        W95479   0.451  29.622  14.029
30220W        W95480  28.110  10.120   3.388
30221W        W95481  27.210  29.450  12.173
30222W        W95482  11.858  13.801   3.707
30223W        W95483  24.043  12.226   0.507
30224W        W95484  25.717  16.777   0.884
30225W        W95485  37.405  13.328   4.608
30226W        W95486  14.071   6.199   4.201
30227W        W95487  28.724  40.605   2.339
30228W        W95488  33.618  37.024   0.430
30229W        W95489   4.173   8.218   1.926
30230W        W95490  23.803   5.883  14.541
30231W        W95491  21.064  23.815  13.628
30232W        W95492  20.493  40.358  12.566
30233W        W95493  12.192   9.942   4.306
30234W        W95494  29.952  27.505  11.469
30235W        W95495  37.791  32.954   3.769
30236W        W95496  27.822   3.196   3.217
30237W        W95497  43.651   2.661   4.211
30238W        W95498  43.994  24.169  11.024
30239W        W95499   4.992   2.320  13.890
30240W        W95500  14.981  40.161  11.016
30241W        W95501  39.038  38.546   1.889
30242W        W95502  15.492  14.135   1.799
30243W        W95503  22.168  29.372   3.186
30244W        W95504  29.853   6.375  14.724
30245W        W95505  29.077  13.377   0.932
30246W        W95506  11.879  13.644   0.902
30247W        W95507  18.764  25.799   2.319
30248W        W95508  13.361   2.853  10.829
30249W        W95509   3.164   8.074   5.244
30250W        W95510  17.664  39.733   1.039
30251W        W95511  40.761  11.840  11.613
30252W        W95512  15.595  38.486  14.899
30253W        W95513  17.265  17.997   4.172
30254W        W95514  32.935  18.521   1.932
30255W        W95515   5.192  10.379  12.439
30256W        W95516   6.807   9.441   4.240
30257W        W95517  11.455  14.773   3.568
30258W        W95518  13.106  26.175   3.691
30259W        W95519  26.071  15.911  13.030
30260W        W95520  10.434  33.356  11.277
30261W        W95521   0.214  38.722   1.242
30262W        W95522  42.205  20.604   0.246
30263W        W95523  20.724   7.585  13.791
30264W        W95524  20.112  27.114  10.943
30265W        W95525  36.328  43.899  10.308
30266W        W95526  44.870  16.810  14.290
30267W        W95527  25.617   4.531   3.310
30268W        W95528  15.868  30.233  10.688
30269W        W95529   1.048   0.677   0.230
30270W        W95530   1.898   1.535   3.329
30271W        W95531  42.356   4.474   3.531
30272W        W95532  30.689  10.542  10.128
30273W        W95533  39.470  12.591  13.399
30274W        W95534  19.238  36.952   0.624
30275W        W95535  44.965  40.281  13.997
30276W        W95536   0.930  33.152  12.099
30277W        W95537  28.063  20.085  13.388
30278W        W95538  17.059  36.135  13.979
30279W        W95539  27.446   7.716  10.597
30280W        W95540  31.232  11.670  14.712
30281W        W95541  38.089  36.133   1.415
30282W        W95542  27.862  26.123  14.485
30283W        W95543   2.798  19.174  11.185
30284W        W95544  16.391  21.026  14.547
30285W        W95545  10.292  34.745  10.480
30286W        W95546  10.399  41.992   0.687
30287W        W95547  18.020   3.672  12.734
30288W        W95548  11.232  20.346  13.973
30289W        W95549  21.413  29.163  11.547
30290W        W95550   1.295  17.708  10.937
30291W        W95551  13.985   1.842  11.413
30292W        W95552  12.177  33.456   0.028
30293W        W95553   7.423  10.361   3.931
30294W        W95554  33.882   3.817   9.771
30295W        W95555  21.959  34.036  14.381
30296W        W95556  29.699  27.209  14.860
30297W        W95557   4.516   5.539   1.945
30298W        W95558  44.847  39.297  13.030
30299W        W95559   7.277  26.761   0.331
30300W        W95560  23.076  27.364  10.533
30301W        W95561  44.296  40.724  11.364
30302W        W95562  31.380  40.531  13.561
30303W        W95563  29.376  19.071   1.823
30304W        W95564  33.033  10.768   3.915
30305W        W95565  40.625  36.081  11.166
30306W        W95566  29.324  43.881  13.600
30307W        W95567   8.867  37.037  12.508
30308W        W95568  14.403  38.456  11.144
30309W        W95569  12.106  43.361  14.791
30310W        W95570  14.815  36.137  13.544
30311W        W95571  30.172   2.666  14.507
30312W        W95572  12.174  28.185   2.176
30313W        W95573   7.807  40.383   1.370
30314W        W95574  31.366  40.089  14.447
30315W        W95575   3.439  42.407   2.796
30316W        W95576   1.322  28.225   2.406
30317W        W95577  44.372  27.476  11.431
30318W        W95578  19.546  44.010  13.501
30319W        W95579   7.074  19.285   3.650
30320W        W95580  26.984  25.195   3.876
30321W        W95581  18.150  35.984  10.703
30322W        W95582  30.256  24.554   1.646
30323W        W95583  13.050  12.889  12.341
30324W        W95584   8.003  16.294   3.778
30325W        W95585  32.300  31.459   4.264
30326W        W95586   6.158  28.787  10.207
30327W        W95587  14.927   9.797   2.841
30328W        W95588   4.349  27.020  13.719
30329W        W95589  28.495   7.917  13.627
30330W        W95590  38.838  28.793  14.811
30331W        W95591  15.352   4.773  11.995
30332W        W95592  33.042  41.290  14.964
30333W        W95593   7.697  19.143  14.561
30334W        W95594  27.706   4.420  14.413
30335W        W95595  18.589   8.638  14.310
30336W        W95596  34.879   3.916   3.915
30337W        W95597  42.384  33.494   2.895
30338W        W95598  44.295   9.259   0.905
30339W        W95599  32.775  15.670   2.742
30340W        W95600  44.848   1.171  11.189
30341W        W95601  17.298  43.790   1.556
30342W        W95602  28.530  26.216   4.073
30343W        W95603  23.137  37.090  14.531
30344W        W95604  39.993  25.035   1.760
30345W        W95605  42.798  15.404  12.015
30346W        W95606  20.189  16.416  11.023
30347W        W95607  33.063  37.140   4.595
30348W        W95608  14.110  30.677   3.592
30349W        W95609  42.389  31.022  11.181
30350W        W95610  31.203  27.592   4.432
30351W        W95611  20.097   5.381   3.733
30352W        W95612  16.271  15.438  11.967
30353W        W95613  29.150  21.469  12.352
30354W        W95614  10.800   9.795   0.233
30355W        W95615   0.789  30.233   0.075
30356W        W95616  11.603  28.996   1.414
30357W        W95617  18.453  25.399  14.972
30358W        W95618  18.816   6.827   4.724
30359W        W95619  35.476  32.454  14.462
30360W        W95620  38.974   9.479   2.366
30361W        W95621  33.817  24.520  14.391
30362W        W95622  15.350  36.965  14.097
30363W        W95623  25.568  42.550  12.515
30364W        W95624  29.887  42.274   3.735
30365W        W95625  42.852  10.627   2.781
30366W        W95626   8.570  39.570  11.683
30367W        W95627   5.669  18.326   3.156
30368W        W95628   6.165  12.288  14.021
30369W        W95629  11.868  42.826  11.977
30370W        W95630  25.227   0.991   3.204
30371W        W95631  31.646   7.917  13.524
30372W        W95632  30.895  11.876  13.332
30373W        W95633   0.692  20.279   4.863
30374W        W95634   5.998  17.039   0.378
30375W        W95635  38.830   8.338   4.128
30376W        W95636  41.023   4.310  10.599
30377W        W95637  18.685  37.391  11.926
30378W        W95638   0.228  37.922  10.325
30379W        W95639  25.681  33.165   1.035
30380W        W95640  34.346  40.982   2.301
30381W        W95641  32.399  34.451   4.721
30382W        W95642  44.353  41.913   1.887
30383W        W95643  44.460  36.602   2.266
30384W        W95644  18.158  14.323  10.832
30385W        W95645  27.749  22.072  12.520
30386W        W95646  26.511   4.234   9.942
30387W        W95647  35.511  32.374   2.306
30388W        W95648  25.902  13.932   1.928
30389W        W95649   7.626  39.861  10.705
30390W        W95650  37.906   8.559  11.416
30391W        W95651  19.144  39.595   0.627
30392W        W95652  41.201   6.677  13.500
30393W        W95653  18.130  22.855  14.613
30394W        W95654  44.931  39.755   1.280
30395W        W95655  22.794  11.433   4.277
30396W        W95656   2.036  40.773  11.920
30397W        W95657  41.079   1.626  11.474
30398W        W95658   2.571   2.309   3.077
30399W        W95659  12.387  16.697  12.841
30400W        W95660  28.666   4.925   2.471
30401W        W95661  24.674  39.419   5.764
30402W        W95662   8.466  36.419  11.567
30403W        W95663  37.513  21.102   4.539
30404W        W95664  32.510  37.484   2.165
30405W        W95665   3.122  16.893   1.311
30406W        W95666  28.082   8.336   3.131
30407W        W95667  39.449  28.893  11.538
30408W        W95668  16.943  39.776  11.908
30409W        W95669  29.113   6.381   3.168
30410W        W95670  37.501  36.821  14.085
30411W        W95671  19.339  11.851   2.215
30412W        W95672  43.919  36.614  13.555
30413W        W95673   2.990  11.337  13.985
30414W        W95674  31.568  22.986   0.875
30415W        W95675  16.327  43.742   2.748
30416W        W95676  36.445  21.308   0.284
30417W        W95677  38.319  19.614   4.532
30418W        W95678  16.272   0.927  13.381
30419W        W95679  19.699  36.894  10.972
30420W        W95680  34.488  42.973  10.540
30421W        W95681  28.989  22.662  11.221
30422W        W95682  17.691   5.269   4.547
30423W        W95683  28.441  17.472  14.103
30424W        W95684  19.149  37.492  12.667
30425W        W95685  27.695  30.012  11.464
30426W        W95686  30.457   9.819   4.642
30427W        W95687  36.066  44.743   4.675
30428W        W95688  17.181  30.352  12.504
30429W        W95689  12.577  31.711   2.303
30430W        W95690   7.392  29.877  14.779
30431W        W95691  37.528   8.300   3.323
30432W        W95692  14.803  36.232   1.255
30433W        W95693  15.684  11.430  10.593
30434W        W95694  18.635   1.020  13.351
30435W        W95695  31.557   0.444   1.914
30436W        W95696  19.935  25.772   4.950
30437W        W95697  41.340  35.609  14.453
30438W        W95698  38.284  27.631  12.006
30439W        W95699  28.443  43.964  12.837
30440W        W95700   3.285   6.369  12.835
30441W        W95701  35.888  11.070   3.788
30442W        W95702  10.824  39.447   2.020
30443W        W95703  44.903   6.490   4.775
30444W        W95704   8.603  13.264  13.858
30445W        W95705  40.523  35.103  13.367
30446W        W95706   0.726  11.739  12.975
30447W        W95707   1.464   8.771   0.787
30448W        W95708  39.010  26.663   1.676
30449W        W95709  27.028  13.088   0.364
30450W        W95710  28.059   1.291   2.134
30451W        W95711  14.534  10.805   1.698
30452W        W95712   9.495   2.213  13.829
30453W        W95713   5.167  19.002  14.055
30454W        W95714  13.095   1.719   4.606
30455W        W95715   2.387  21.294  14.377
30456W        W95716   7.976  15.696  12.043
30457W        W95717  32.373  36.641  13.871
30458W        W95718   3.283  13.100   1.888
30459W        W95719  33.661  36.466  14.369
30460W        W95720  40.292  27.384   4.652
30461W        W95721  17.361  24.125   3.582
30462W        W95722   3.726  19.096   3.320
30463W        W95723  18.850  29.933   2.788
30464W        W95724  42.856  24.554  13.872
30465W        W95725  20.323  17.885  14.004
30466W        W95726  17.093  33.630  13.845
30467W        W95727  27.696  43.049   0.504
30468W        W95728  36.868  34.608  12.708
30469W        W95729  15.901  10.403   0.328
30470W        W95730   6.190  21.779  13.950
30471W        W95731  21.543  31.229  11.492
30472W        W95732  11.753  13.894   4.223
30473W        W95733   9.171  38.138   3.649
30474W        W95734  31.060  21.146  10.411
30475W        W95735  32.142  29.626  14.312
30476W        W95736  23.736  17.194  14.573
30477W        W95737  25.610  34.799   0.023
30478W        W95738  37.409  43.709  11.186
30479W        W95739   9.161  26.736  13.888
30480W        W95740  19.233  17.365  14.792
30481W        W95741   4.853  18.549  12.362
30482W        W95742  30.091   9.702   3.194
30483W        W95743  33.003   2.028   0.873
30484W        W95744  35.925  11.132   2.197
30485W        W95745  11.433   1.387   3.078
30486W        W95746  32.166  38.791   1.670
30487W        W95747  14.026  21.663  10.951
30488W        W95748  15.276   9.254  13.969
30489W        W95749  24.235  25.469  10.696
30490W        W95750  25.146  23.390  13.517
30491W        W95751  35.115  24.330   4.238
30492W        W95752  41.025  33.422  13.424
30493W        W95753  34.771  37.884   2.345
30494W        W95754  41.010  44.880  11.976
30495W        W95755  33.993   1.011  14.762
30496W        W95756  32.104  44.706  11.592
30497W        W95757  16.849  44.295   3.658
30498W        W95758  34.901  35.461   1.734
30499W        W95759  29.192  28.597   4.177
30500W        W95760  38.276  18.618   2.304
30501W        W95761  38.340  40.792  13.566
30502W        W95762  26.856  25.673  11.610
30503W        W95763  43.312  25.748   0.376
30504W        W95764   1.543  11.731   1.438
30505W        W95765  18.581   9.116  13.855
30506W        W95766  11.647  22.441  14.194
30507W        W95767   0.692   8.331  10.702
30508W        W95768   2.297  43.133  11.630
30509W        W95769  16.270  24.144  14.693
30510W        W95770  44.127  40.900   0.856
30511W        W95771  12.063  32.940   3.761
30512W        W95772  23.953  41.544  14.751
30513W        W95773  20.174  10.065   1.951
30514W        W95774  22.711  37.198   5.078
30515W        W95775   6.955  24.185   3.267
30516W        W95776   3.927  43.953   0.936
30517W        W95777  44.401  17.161  10.905
30518W        W95778  16.678  41.056  14.902
30519W        W95779  33.064  37.593   0.358
30520W        W95780  13.437  42.828   2.898
30521W        W95781  31.533  25.011   2.999
30522W        W95782  41.837  30.102  14.850
30523W        W95783   8.344   9.845  11.426
30524W        W95784  21.128  24.738   1.961
30525W        W95785  12.331   4.913   1.347
30526W        W95786  11.777   1.031   1.272
30527W        W95787   9.596  35.070  11.785
30528W        W95788   6.807  22.482   1.392
30529W        W95789   4.494  36.285  14.412
30530W        W95790  26.975  38.603  12.541
30531W        W95791  43.476  38.828  11.528
30532W        W95792  12.299  44.424   3.208
30533W        W95793  21.699  34.384   1.927
30534W        W95794   1.651  34.206  14.444
30535W        W95795  33.472   1.759   0.754
30536W        W95796  12.788  16.286   3.088
30537W        W95797  24.689  36.910   1.642
30538W        W95798  11.273  20.204   1.767
30539W        W95799   6.949  15.712  12.071
30540W        W95800   3.751  12.640  14.866
30541W        W95801  15.240  44.537  14.126
30542W        W95802  44.383   1.457  11.373
30543W        W95803  33.619  13.207   3.701
30544W        W95804   2.051  41.616   4.626
30545W        W95805  15.620  25.574  11.271
30546W        W95806  31.012  35.406   1.953
30547W        W95807  12.651   6.030   2.772
30548W        W95808  23.664   3.199   3.782
30549W        W95809   9.126  11.610  12.036
30550W        W95810  41.108   8.313   2.569
30551W        W95811  39.378   1.642  14.419
30552W        W95812  19.261  35.754  14.945
30553W        W95813  35.289  26.694  14.785
30554W        W95814  16.746  14.795  11.982
30555W        W95815  21.851  10.656   0.891
30556W        W95816  18.060  38.557   1.857
30557W        W95817  31.022  42.463  12.658
30558W        W95818  32.667   0.351  11.032
30559W        W95819  25.610  33.443   1.476
30560W        W95820   2.719  34.327   2.692
30561W        W95821   9.917  31.205   3.264
30562W        W95822   2.672   8.759   3.792
30563W        W95823   4.645   0.043  13.979
30564W        W95824  31.203  29.601   3.784
30565W        W95825  35.468  14.074  12.355
30566W        W95826  41.600  18.697  13.422
30567W        W95827  18.198   9.744   2.146
30568W        W95828  39.977  13.809   1.364
30569W        W95829  37.200  18.279  10.203
30570W        W95830  16.166  23.224  11.514
30571W        W95831  23.061  38.146   3.115
30572W        W95832  11.464  30.336  12.524
30573W        W95833  15.349  39.381   0.285
30574W        W95834  19.036  11.131   2.785
30575W        W95835   5.533  11.249  10.704
30576W        W95836  11.260  22.447   2.857
30577W        W95837  19.076  43.796  14.837
30578W        W95838  30.352  15.033  12.443
30579W        W95839  35.481  22.393   1.112
30580W        W95840   1.768  21.181   2.726
30581W        W95841  31.977  42.299   0.402
30582W        W95842  37.336  10.258   3.175
30583W        W95843  13.232  24.942  10.429
30584W        W95844  36.140  40.024   2.211
30585W        W95845  25.074  10.191  13.401
30586W        W95846  34.473  43.870   4.263
30587W        W95847  12.342   8.224  14.714
30588W        W95848   5.305  34.559  14.981
30589W        W95849   4.610  14.923  14.908
30590W        W95850  34.625  14.274  11.858
30591W        W95851  10.781  16.761  11.485
30592W        W95852   1.505  10.167  13.991
30593W        W95853  35.433   5.170  10.736
30594W        W95854  27.736   2.459  14.555
30595W        W95855  33.830  37.139   1.855
30596W        W95856  12.866  31.966   3.662
30597W        W95857  23.745  11.287   1.239
30598W        W95858  17.806   1.356   0.075
30599W        W95859  26.608  42.638   3.666
30600W        W95860  23.102  35.823  12.505
30601W        W95861  17.486   8.019   2.823
30602W        W95862  21.712  43.768   2.536
30603W        W95863  15.062  13.159  14.836
30604W        W95864  29.448  11.140   1.165
30605W        W95865  44.273  13.249  14.846
30606W        W95866   4.159  43.923   2.823
30607W        W95867  41.537  19.552  13.771
30608W        W95868  22.677  43.364   4.495
30609W        W95869   8.902  40.850   0.167
30610W        W95870   0.201  42.479   4.697
30611W        W95871  14.841  16.962  11.631
30612W        W95872  33.954  18.253   0.773
30613W        W95873   3.458  33.582  10.591
30614W        W95874  10.837  40.246   2.068
30615W        W95875   4.354  11.409  12.065
30616W        W95876  41.487  37.466   1.758
30617W        W95877   2.826   5.973  10.625
30618W        W95878  26.664  31.087   2.396
30619W        W95879  20.216  24.146  14.064
30620W        W95880  30.979  17.563   0.895
30621W        W95881  17.683  14.132   0.536
30622W        W95882  39.312  28.612   4.432
30623W        W95883  20.609  24.189   2.716
30624W        W95884  40.519   2.809   4.245
30625W        W95885  38.907  42.052   2.239
30626W        W95886   4.230   9.924  11.751
30627W        W95887   0.220   5.342   3.841
30628W        W95888  42.315  16.087   3.935
30629W        W95889  41.826   2.218  11.108
30630W        W95890  32.048  14.635   1.323
30631W        W95891  39.998  40.397  12.658
30632W        W95892   7.973  41.484   0.710
30633W        W95893  22.997  29.085   2.150
30634W        W95894   5.713  24.981  10.683
30635W        W95895   9.614   6.304   5.712
30636W        W95896  42.775   4.884   3.537
30637W        W95897  15.162  17.990  14.794
30638W        W95898  43.974   8.374  14.423
30639W        W95899  10.212  33.703   2.357
30640W        W95900  22.661   2.286  13.512
30641W        W95901  30.477  25.103   3.140
30642W        W95902   5.322  39.466   3.307
30643W        W95903   9.326  27.085  11.481
30644W        W95904  31.420   0.383   0.442
30645W        W95905  14.783  30.201  14.523
30646W        W95906   7.335  33.092   1.637
30647W        W95907  36.427  23.837   5.229
30648W        W95908  24.877  20.692   0.364
30649W        W95909  38.292  37.422  10.259
30650W        W95910   2.403  25.660  14.599
30651W        W95911   3.544  12.894  13.435
30652W        W95912  32.148   9.261   0.065
30653W        W95913  32.576   2.491  11.705
30654W        W95914  39.569   6.697   3.675
30655W        W95915   8.332  38.113  14.523
30656W        W95916  38.591  13.830  11.068
30657W        W95917  10.132   0.198  11.134
30658W        W95918  36.030  18.811  13.364
30659W        W95919  37.213  43.889  14.007
30660W        W95920  33.533   4.206   5.010
30661W        W95921   6.170  32.618   0.443
30662W        W95922  11.753  21.736  12.972
30663W        W95923   0.409   4.251  11.477
30664W        W95924   3.314   9.927  12.032
30665W        W95925  20.188  11.152   0.899
30666W        W95926  42.772  10.371  14.434
30667W        W95927   4.474  32.138   3.670
30668W        W95928  25.530  16.693  10.644
30669W        W95929  40.505  23.905  10.984
30670W        W95930   5.690  11.734   1.280
30671W        W95931  14.281  12.791  13.278
30672W        W95932  33.380  14.915  12.021
30673W        W95933  19.623   7.677  13.291
30674W        W95934   8.920  27.733   0.167
30675W        W95935  12.028  40.868  11.933
30676W        W95936  11.337  40.476  12.400
30677W        W95937  13.077  17.686  12.541
30678W        W95938  33.457  41.929   3.661
30679W        W95939  36.416  18.238  11.898
30680W        W95940  13.908  19.682   3.164
30681W        W95941  16.312  25.223  12.522
30682W        W95942  33.123  37.844   0.909
30683W        W95943  37.342  11.607  13.840
30684W        W95944  35.061  13.546   2.737
30685W        W95945  37.136  18.286   0.284
30686W        W95946  37.773  36.803   3.318
30687W        W95947  38.874  13.203  13.816
30688W        W95948  14.872  33.456  11.601
30689W        W95949  37.460  26.816   3.295
30690W        W95950  24.021  39.620  10.256
30691W        W95951   3.204  33.983  13.494
30692W        W95952  31.644  43.515   4.805
30693W        W95953  19.189  40.360  13.805
30694W        W95954  22.267  34.461  14.536
30695W        W95955   5.488   6.436  13.366
30696W        W95956  13.825   9.895  13.399
30697W        W95957   0.196  31.051  13.947
30698W        W95958  32.635   3.341   0.258
30699W        W95959   7.821  16.291   0.203
30700W        W95960  37.450  18.697   0.257
30701W        W95961  44.334  19.461   1.844
30702W        W95962  39.881  14.803  13.817
30703W        W95963  41.175  43.488  12.962
30704W        W95964  37.455  34.346  11.579
30705W        W95965  36.762  44.853  10.190
30706W        W95966  23.952   2.651  10.377
30707W        W95967  15.105  15.077  11.473
30708W        W95968  16.354  15.281   3.220
30709W        W95969   8.838  29.017   3.222
30710W        W95970  36.933  41.405   3.134
30711W        W95971  20.178  28.609  13.005
30712W        W95972  12.719  21.798  13.911
30713W        W95973  36.125  34.207   1.010
30714W        W95974  40.552  31.124   4.173
30715W        W95975   8.498  18.030  10.163
30716W        W95976  13.824   7.709  11.983
30717W        W95977  44.690   9.828  13.820
30718W        W95978  41.417  27.121  13.095
30719W        W95979   7.267  22.483  14.871
30720W        W95980  22.861  26.428   1.152
30721W        W95981  20.561   3.022  13.820
30722W        W95982   3.508  36.801   4.604
30723W        W95983  29.111   3.457   4.985
30724W        W95984   2.879  14.353  11.257
30725W        W95985  35.242  30.013   0.429
30726W        W95986  23.104  14.756   4.404
30727W        W95987   6.137  29.806  10.225
30728W        W95988  12.894  23.086   1.552
30729W        W95989  35.389  28.344   1.909
30730W        W95990  32.695  14.873  11.194
30731W        W95991  22.238  32.863  13.852
30732W        W95992  12.093  18.679  14.807
30733W        W95993  26.597   1.853   4.531
30734W        W95994  35.413   0.462   1.844
30735W        W95995  18.452  36.588   0.398
30736W        W95996  38.477  22.550  11.744
30737W        W95997  10.899   4.837   1.525
30738W        W95998  13.166  23.995  14.063
30739W        W95999  24.021  44.604  10.377
30740W        W96000  32.466  35.016  11.221
30741W        W96001  44.460  27.176   0.243
30742W        W96002  31.699  32.855   1.974
30743W        W96003  41.103  21.353  10.561
30744W        W96004  24.495  44.993   4.606
30745W        W96005  20.689  41.458  10.486
30746W        W96006  28.106  20.967   1.933
30747W        W96007   1.515  13.792   1.797
30748W        W96008  35.630  38.112   2.656
30749W        W96009  25.002  30.871   1.754
30750W        W96010  30.696  27.431   3.667
30751W        W96011   1.284  41.353   1.009
30752W        W96012  10.046  30.950  13.177
30753W        W96013   6.550   8.168  14.965
30754W        W96014  42.516  41.592  12.526
30755W        W96015  14.144   8.244   4.931
30756W        W96016  17.269   4.445  10.662
30757W        W96017  30.514  22.473   3.479
30758W        W96018  29.134  20.963   4.092
30759W        W96019  18.684  38.839   3.720
30760W        W96020  38.574  35.507  14.274
30761W        W96021   7.924   5.508  11.609
30762W        W96022   6.402  43.888  13.314
30763W        W96023  30.908  16.129  14.970
30764W        W96024  12.615  20.696   4.362
30765W        W96025  20.557  38.499   1.854
30766W        W96026  15.251  28.429   0.045
30767W        W96027   7.805  14.548   1.908
30768W        W96028  39.249  35.017  13.876
30769W        W96029  11.807   1.499   4.409
30770W        W96030  15.238  30.885   0.806
30771W        W96031   2.986  22.443   0.026
30772W        W96032   7.812  17.328   3.549
30773W        W96033  34.053  41.411   2.223
30774W        W96034  37.631  41.549  13.626
30775W        W96035  22.486  43.394  13.960
30776W        W96036  20.846  12.829  14.540
30777W        W96037  10.602  36.141   4.570
30778W        W96038  42.275   5.333   4.060
30779W        W96039  10.224   2.182  11.088
30780W        W96040   8.957  12.285   1.867
30781W        W96041  42.951  11.581   1.258
30782W        W96042  21.932   1.849  12.103
30783W        W96043   6.361  42.967  10.682
30784W        W96044  16.486  16.931  12.046
30785W        W96045  13.563  21.814  11.037
30786W        W96046  21.845   5.089   2.699
30787W        W96047  29.482   9.139   3.811
30788W        W96048  35.305   0.426  11.220
30789W        W96049   9.354  16.948   4.619
30790W        W96050  40.655  30.431   0.816
30791W        W96051  26.518   3.810   0.751
30792W        W96052   5.874   1.444   1.065
30793W        W96053  35.925  35.904  13.408
30794W        W96054   5.907  15.499  14.024
30795W        W96055  32.698  11.689   3.111
30796W        W96056  28.716  21.263   4.177
30797W        W96057   9.942  24.213   3.986
30798W        W96058  13.215  29.591   3.196
30799W        W96059   2.148  12.018   2.818
30800W        W96060   6.800   3.951   3.810
30801W        W96061   7.174  31.466  11.791
30802W        W96062  16.987  27.698  11.587
30803W        W96063  27.105  43.627  14.925
30804W        W96064   7.149  15.145   2.684
30805W        W96065  23.200  26.822  11.292
30806W        W96066   4.511  13.368  11.342
30807W        W96067  16.033   4.396   3.220
30808W        W96068   9.241  20.255   0.750
30809W        W96069  27.620  22.545   4.109
30810W        W96070  32.473  32.165   4.781
30811W        W96071  15.169  42.291   4.513
30812W        W96072  23.696  14.585   3.117
30813W        W96073  17.379   6.896  10.761
30814W        W96074  32.859   7.905  11.054
30815W        W96075  14.692  14.633  12.109
30816W        W96076  38.478  37.838   0.980
30817W        W96077   1.739   8.263  13.482
30818W        W96078   0.785   8.869   3.188
30819W        W96079  33.642  35.513   2.721
30820W        W96080   6.407  25.543  10.501
30821W        W96081  41.793  12.110  12.314
30822W        W96082   8.218  39.777   0.865
30823W        W96083  10.515  17.718   2.801
30824W        W96084  41.486  37.214   2.348
30825W        W96085  23.554  13.226  12.364
30826W        W96086   0.856   1.774  12.012
30827W        W96087  20.023  11.665   4.598
30828W        W96088  35.310  14.954   4.221
30829W        W96089  44.484  23.539  13.309
30830W        W96090   9.341  43.291  14.290
30831W        W96091  13.175   8.189  10.284
30832W        W96092  24.622   8.461  10.763
30833W        W96093   4.774  44.196  13.763
30834W        W96094  35.001  18.300   2.837
30835W        W96095  40.073  26.644  11.566
30836W        W96096  28.420  37.602   0.413
30837W        W96097  42.546  16.957   4.364
30838W        W96098  12.475  26.652  12.793
30839W        W96099  32.889   9.381   3.645
30840W        W96100   0.111  24.029  14.347
30841W        W96101  25.440  15.766  11.027
30842W        W96102   9.863   6.723  14.119
30843W        W96103  17.806  31.312  11.396
30844W        W96104  13.415  19.922   0.888
30845W        W96105  24.575   6.423  14.652
30846W        W96106  33.048  13.054  10.982
30847W        W96107   5.361  42.882   1.021
30848W        W96108  14.357  34.294  12.416
30849W        W96109  37.355   7.978   4.427
30850W        W96110  14.311  28.058  14.507
30851W        W96111  40.501  24.121   3.179
30852W        W96112  19.023  12.876   0.823
30853W        W96113  17.110  18.809   1.467
30854W        W96114  33.059  35.542  12.384
30855W        W96115  14.738  44.038   3.531
30856W        W96116  24.589  25.413  12.604
30857W        W96117  13.237  10.878  10.379
30858W        W96118   5.841  36.289  14.233
30859W        W96119  28.022  12.123   4.240
30860W        W96120  38.389  44.090   0.276
30861W        W96121  39.910  13.677  11.394
30862W        W96122   0.750   0.450   0.918
30863W        W96123  41.082  24.475   3.427
30864W        W96124  39.855  18.099  13.817
30865W        W96125  10.930  19.549  12.012
30866W        W96126  35.554  33.147  14.355
30867W        W96127  36.003  39.805   0.842
30868W        W96128   5.932  22.302  14.921
30869W        W96129   1.391  15.750  12.223
30870W        W96130  16.585  26.363   0.334
30871W        W96131  28.145  37.814  13.015
30872W        W96132  19.954   5.434  12.655
30873W        W96133   4.266  10.590   0.928
30874W        W96134  38.018  36.583   5.022
30875W        W96135  21.860  40.398  12.914
30876W        W96136  14.479  19.821   2.219
30877W        W96137  40.340   7.757   2.630
30878W        W96138   7.714  12.491  14.487
30879W        W96139   2.475  44.562   4.328
30880W        W96140   9.237  27.597   2.253
30881W        W96141  20.934  12.846  13.979
30882W        W96142  20.546  28.663  12.420
30883W        W96143  44.419  24.415   3.636
30884W        W96144  23.671   2.772   4.717
30885W        W96145  41.984   6.832  10.460
30886W        W96146  31.873  36.993  12.489
30887W        W96147  21.253  16.362   1.949
30888W        W96148  31.716  11.756   3.245
30889W        W96149  35.840  29.224   3.779
30890W        W96150  23.856  19.352   4.479
30891W        W96151   3.402  15.255   3.109
30892W        W96152  19.254  41.868  14.015
30893W        W96153  33.784   6.406   1.805
30894W        W96154  12.865  10.384   0.355
30895W        W96155  18.320  29.349   4.496
30896W        W96156  17.068  39.860  12.786
30897W        W96157  22.965  18.413  13.604
30898W        W96158  20.279  34.130   0.929
30899W        W96159  37.996  36.908   4.591
30900W        W96160  33.251  20.391   1.326
30901W        W96161  16.558   4.220   3.408
30902W        W96162  13.262  29.572   2.156
30903W        W96163  14.518  44.791  12.560
30904W        W96164  14.758  34.539   2.864
30905W        W96165  16.319  42.506   3.844
30906W        W96166  41.907  41.035   1.236
30907W        W96167  21.655  30.682   2.240
30908W        W96168  33.037  31.201   1.294
30909W        W96169  17.728   2.349   2.688
30910W        W96170  26.109  28.229   0.406
30911W        W96171  14.965   2.189   1.641
30912W        W96172   6.323   2.734  11.490
30913W        W96173  25.570   4.790  12.284
30914W        W96174  33.844   7.650  12.940
30915W        W96175  32.091  37.909   0.923
30916W        W96176  19.993  26.648  10.670
30917W        W96177  32.057  21.584   3.902
30918W        W96178   9.296  11.426   2.961
30919W        W96179  37.836  35.305  11.539
30920W        W96180   2.940   9.614   2.786
30921W        W96181  26.437  24.246  11.514
30922W        W96182   8.719   3.877  12.739
30923W        W96183  17.116  36.769   0.718
30924W        W96184  31.795  40.494  14.380
30925W        W96185  13.026  32.285  14.854
30926W        W96186   2.727  29.464  10.930
30927W        W96187  13.764   6.973  13.927
30928W        W96188   3.720  35.115   1.920
30929W        W96189  11.563  12.639  13.963
30930W        W96190   8.128  31.922  12.587
30931W        W96191  34.464  29.389   4.688
30932W        W96192   4.347  24.061   2.830
30933W        W96193   5.557  11.279   0.991
30934W        W96194  42.270  21.496  11.169
30935W        W96195   4.859  26.941   4.760
30936W        W96196   4.378  16.729  12.867
30937W        W96197   8.854  14.341   4.108
30938W        W96198   1.349   7.668  14.843
30939W        W96199  14.377  10.658   1.198
30940W        W96200   2.502  44.833   3.619
30941W        W96201  41.547  19.187  10.578
30942W        W96202  18.892   0.514  14.299
30943W        W96203  13.347  16.278  12.148
30944W        W96204  10.007  21.711  14.897
30945W        W96205  33.146  35.363   2.678
30946W        W96206   3.637  11.590   5.131
30947W        W96207  18.129  20.976  11.272
30948W        W96208   4.309  36.804  11.936
30949W        W96209   7.512   2.802   1.925
30950W        W96210  11.142   1.933   4.654
30951W        W96211  10.926  13.842   2.354
30952W        W96212  35.817  27.546   0.503
30953W        W96213  41.783  44.045  12.472
30954W        W96214   5.143  14.753   4.819
30955W        W96215  19.340  43.362  12.019
30956W        W96216  29.043  32.950  11.899
30957W        W96217  33.495  44.767   2.577
30958W        W96218  34.129  22.329   1.613
30959W        W96219  28.441   3.399   3.834
30960W        W96220   6.860  37.761   1.174
30961W        W96221  43.573   5.804  12.314
30962W        W96222  39.130   6.798  13.422
30963W        W96223  29.507  27.913   2.232
30964W        W96224  43.028  41.600   3.539
30965W        W96225  30.317  24.820   4.479
30966W        W96226  18.738  27.707   2.195
30967W        W96227  36.887  28.490   4.564
30968W        W96228  19.136   7.328  14.944
30969W        W96229  13.220  18.547  10.707
30970W        W96230  40.241  16.817  13.736
30971W        W96231  21.128  40.915   4.131
30972W        W96232  30.077  15.219  13.706
30973W        W96233  22.951  10.385   0.871
30974W        W96234  44.775  30.972   1.427
30975W        W96235  19.466  29.026  13.377
30976W        W96236  28.010  22.666  11.454
30977W        W96237  40.904  43.258  13.405
30978W        W96238   5.740   0.216   3.220
30979W        W96239   8.431  24.068  12.604
30980W        W96240  14.527   4.915   2.847
30981W        W96241  37.460   2.461   2.256
30982W        W96242  26.532  13.229  12.004
30983W        W96243  11.247  32.645  13.372
30984W        W96244  34.562  44.715  11.289
30985W        W96245   4.439  32.569   4.134
30986W        W96246  29.566  35.730   4.057
30987W        W96247  12.850  14.382   2.425
30988W        W96248  37.034  20.494  12.012
30989W        W96249  40.347  44.036  14.301
30990W        W96250  29.402  18.342   2.369
30991W        W96251  31.374  30.396   9.926
30992W        W96252  30.637   7.407   0.818
30993W        W96253  38.349  21.538   3.930
30994W        W96254  42.519  13.853  10.741
30995W        W96255  26.227  30.835   0.253
30996W        W96256  18.077  34.441  11.081
30997W        W96257   5.322  27.247   0.461
30998W        W96258  40.232  33.153  12.579
30999W        W96259  38.838  21.026  10.136
31000W        W96260   5.292   4.507   0.250
31001W        W96261  34.600  32.998  12.055
31002W        W96262  36.990  26.043  12.343
31003W        W96263  10.597  39.897  10.783
31004W        W96264  39.560  37.000   2.790
31005W        W96265   3.822  41.328   4.728
31006W        W96266   3.171  28.042   3.793
31007W        W96267  18.168   8.894  14.115
31008W        W96268   3.792  18.000   0.743
31009W        W96269   2.309  17.969   4.345
31010W        W96270  35.838   8.845  14.957
31011W        W96271  40.233  21.147   4.574
31012W        W96272   1.732  34.714  10.730
31013W        W96273  42.570  29.532   1.780
31014W        W96274  33.040  16.034  13.854
31015W        W96275  20.043   1.325   2.777
31016W        W96276  22.636  17.602  12.624
31017W        W96277  16.422  11.929  11.574
31018W        W96278  32.296  39.911  13.519
31019W        W96279  28.453   0.412  13.732
31020W        W96280   2.965  21.753  13.427
31021W        W96281  29.406  28.231   0.282
31022W        W96282  15.329  31.648  13.987
31023W        W96283  36.516  14.712  12.153
31024W        W96284  16.591   1.743  14.295
31025W        W96285  33.023   6.161  10.604
31026W        W96286  33.627  27.643   1.253
31027W        W96287   6.348  37.861   3.259
31028W        W96288  36.631  11.280  12.918
31029W        W96289  22.992  32.357   2.718
31030W        W96290  34.680  14.818   1.430
31031W        W96291  12.210  18.797  11.630
31032W        W96292  27.364   2.518  14.916
31033W        W96293   6.295  17.124   4.335
31034W        W96294  39.551  41.260  11.202
31035W        W96295  27.461  29.965   3.693
31036W        W96296  30.824   3.689   0.364
31037W        W96297  39.041  35.454   3.733
31038W        W96298   9.194  25.181   1.819
31039W        W96299  22.554   6.774  12.137
31040W        W96300  40.338  38.811  12.054
31041W        W96301   0.712   7.831  12.626
31042W        W96302  42.764  16.799  11.463
31043W        W96303  28.411  12.870  14.448
31044W        W96304  41.834  32.303   0.834
31045W        W96305  12.388   6.169  12.479
31046W        W96306  36.240  44.021   2.824
31047W        W96307  27.714   0.707  11.169
31048W        W96308  40.282   7.813  10.987
31049W        W96309   0.490   1.002  11.632
31050W        W96310  18.693   5.703   0.386
31051W        W96311   1.492  10.491   3.713
31052W        W96312   8.873   0.887  14.265
31053W        W96313  33.974  22.845   4.180
31054W        W96314  20.215  41.643   0.009
31055W        W96315  14.951   7.730   5.040
31056W        W96316  38.878   8.860   4.185
31057W        W96317  24.080   1.701  13.025
31058W        W96318  35.455  33.163   4.107
31059W        W96319  42.863  32.393  13.343
31060W        W96320  28.114  18.149   0.982
31061W        W96321  27.915   3.801   0.968
31062W        W96322  30.910  37.729   0.809
31063W        W96323   3.059   5.237   1.436
31064W        W96324   0.821  41.815  10.180
31065W        W96325  40.338  30.880  11.939
31066W        W96326   4.603  44.809   1.395
31067W        W96327   7.571  25.648   2.370
31068W        W96328   9.034  42.133  13.610
31069W        W96329  24.872   7.352   1.481
31070W        W96330  40.359  37.816   1.559
31071W        W96331  19.835   5.314  13.149
31072W        W96332  36.106  15.592   1.364
31073W        W96333  16.775  11.504  14.091
31074W        W96334  11.611   2.831   0.475
31075W        W96335   1.247  27.518   4.590
31076W        W96336  28.451   3.738   1.006
31077W        W96337  40.499  42.494   2.484
31078W        W96338  16.873  24.490   2.188
31079W        W96339  16.529  33.228   3.294
31080W        W96340  10.907  23.066   1.485
31081W        W96341   3.173  36.850  12.742
31082W        W96342  34.388  39.445  13.978
31083W        W96343  26.920   1.852  11.064
31084W        W96344  35.890  35.394   3.275
31085W        W96345  36.167  14.583   4.046
31086W        W96346  17.412   2.433  11.458
31087W        W96347  37.786  35.443   3.270
31088W        W96348  24.018  14.377  13.430
31089W        W96349  15.667  43.256   3.158
31090W        W96350  10.252  34.287   2.348
31091W        W96351  23.718   6.169  12.444
31092W        W96352  18.610  31.388  14.002
31093W        W96353  26.530  15.604   0.309
31094W        W96354  24.795  25.527   1.290
31095W        W96355   5.900  20.439  14.009
31096W        W96356  40.913  18.469   1.178
31097W        W96357  42.402   8.808  13.611
31098W        W96358  38.768  38.317  12.860
31099W        W96359  12.362  41.844  12.102
31100W        W96360  32.459  19.623  13.868
31101W        W96361  11.862   6.427   1.751
31102W        W96362   2.587  10.725   1.402
31103W        W96363   8.014  19.142   1.733
31104W        W96364  15.391  35.596   4.222
31105W        W96365  36.145  29.582  12.503
31106W        W96366  11.912  14.699  14.946
31107W        W96367  42.556  41.342   2.249
31108W        W96368  19.930  29.479  11.785
31109W        W96369  35.407  22.636  14.377
31110W        W96370  27.035  18.165  14.925
31111W        W96371  29.329  16.740   4.517
31112W        W96372   7.698   4.415   3.677
31113W        W96373  22.366   7.269  11.002
31114W        W96374  34.779  19.702  11.684
31115W        W96375  36.172  24.208   4.956
31116W        W96376   3.495   1.745  11.107
31117W        W96377  25.289  17.591  11.670
31118W        W96378  16.614  38.214   1.125
31119W        W96379  10.832  18.013  14.854
31120W        W96380  35.332  22.224  12.629
31121W        W96381  26.365   6.583   0.502
31122W        W96382  12.436   7.625  14.673
31123W        W96383  38.408  16.772   4.393
31124W        W96384  13.440  42.179  13.189
31125W        W96385   4.781  38.387   4.620
31126W        W96386   0.794  17.741   0.772
31127W        W96387  18.567  25.611   2.835
31128W        W96388   5.505  40.834  13.030
31129W        W96389  30.077  12.878   2.350
31130W        W96390  35.977  26.448  14.714
31131W        W96391   9.320   5.889  14.060
31132W        W96392  39.290  12.565   2.776
31133W        W96393   2.349  37.601   3.229
31134W        W96394  26.095  16.788  11.938
31135W        W96395  16.468  24.740  13.910
31136W        W96396  23.726  25.927   2.947
31137W        W96397  20.203  17.751  11.980
31138W        W96398  32.098  28.095   0.378
31139W        W96399  35.875  22.067   2.930
31140W        W96400   9.281  16.580   4.262
31141W        W96401   1.831  35.630  12.876
31142W        W96402  27.638   3.876   2.782
31143W        W96403   5.736  17.562  14.787
31144W        W96404   1.709  32.177   1.246
31145W        W96405  38.538  10.163  10.761
31146W        W96406  14.239  22.018  12.972
31147W        W96407  44.268   3.245  13.834
31148W        W96408  44.633  22.502  14.903
31149W        W96409  35.071   5.348   1.391
31150W        W96410  12.653  28.177   1.162
31151W        W96411  12.651   5.157  11.133
31152W        W96412  32.505  13.891   3.956
31153W        W96413  32.639  18.808  12.109
31154W        W96414  44.392   0.780   3.263
31155W        W96415  42.226  18.354  11.535
31156W        W96416  19.574  20.115  12.028
31157W        W96417   6.388  25.719   3.733
31158W        W96418  17.830  30.263  12.931
31159W        W96419  20.055   4.871  11.962
31160W        W96420  35.136  15.231   2.759
31161W        W96421  18.014  11.246   4.063
31162W        W96422   5.835  12.156   2.700
31163W        W96423  41.106   0.544   2.433
31164W        W96424   8.977  38.894   5.342
31165W        W96425  31.413  38.903  12.455
31166W        W96426  41.925  35.768  10.889
31167W        W96427  33.008  44.188  11.650
31168W        W96428  35.358  26.927   0.300
31169W        W96429   6.480  26.754   3.518
31170W        W96430  30.323   2.505  12.087
31171W        W96431   2.160  16.744   1.212
31172W        W96432  43.045  18.233  14.984
31173W        W96433  25.786  36.479  13.509
31174W        W96434  39.148   9.484  11.463
31175W        W96435  20.258   2.692  13.483
31176W        W96436   3.743  38.618   4.172
31177W        W96437   5.866  29.515   0.236
31178W        W96438  28.544  44.268  14.455
31179W        W96439  24.103   8.396  14.766
31180W        W96440   1.689  10.222  11.470
31181W        W96441  11.789  36.030   4.152
31182W        W96442  43.601  41.256   1.394
31183W        W96443  19.120  25.192   5.078
31184W        W96444   4.710   5.923   2.279
31185W        W96445   8.335   1.354  14.938
31186W        W96446   9.578  28.578  12.001
31187W        W96447  43.366  22.571  14.439
31188W        W96448  17.022  15.326  14.830
31189W        W96449  18.746  32.435   3.280
31190W        W96450  35.268   7.303   1.849
31191W        W96451  41.223  28.079   3.817
31192W        W96452  33.763   7.273   0.493
31193W        W96453  32.518  23.451  14.396
31194W        W96454  18.121  13.199  14.804
31195W        W96455  37.922  34.886   3.147
31196W        W96456  23.372  32.298   0.378
31197W        W96457  12.220  26.446  14.220
31198W        W96458  27.411  43.859   1.076
31199W        W96459  30.022  34.641  13.579
31200W        W96460  44.222   2.634   0.747
31201W        W96461  36.292  28.720  12.032
31202W        W96462  18.983  18.354   1.791
31203W        W96463  41.576  31.459  12.936
31204W        W96464  35.884   7.495   3.482
31205W        W96465  32.863  14.729   1.716
31206W        W96466  43.743  36.540   3.626
31207W        W96467   9.826  10.839  13.089
31208W        W96468  22.451  31.730   1.700
31209W        W96469  36.926  19.291   0.250
31210W        W96470  39.622  12.344  11.304
31211W        W96471  37.304  11.236  11.179
31212W        W96472   3.686   9.325   3.240
31213W        W96473  36.505  14.079  12.985
31214W        W96474   1.487  33.935   3.169
31215W        W96475  31.876   9.680   0.304
31216W        W96476  21.970  16.106  10.161
31217W        W96477  21.747  23.403  12.542
31218W        W96478  12.605  31.610   1.408
31219W        W96479  41.966  16.042  12.030
31220W        W96480  43.181  26.258  13.955
31221W        W96481   6.788  29.100   2.044
31222W        W96482  40.115  27.882   2.182
31223W        W96483  42.071   1.231  14.852
31224W        W96484  34.018   2.538  14.286
31225W        W96485  26.656  39.075  10.526
31226W        W96486  15.834   0.015   0.327
31227W        W96487  19.824  25.155  14.947
31228W        W96488   2.813  14.145   0.447
31229W        W96489   3.008  41.530   2.951
31230W        W96490  36.935  19.278  12.481
31231W        W96491  26.740  33.554  12.880
31232W        W96492  40.533  15.692  10.503
31233W        W96493   8.792  43.781   0.726
31234W        W96494  13.817  17.216  12.606
31235W        W96495  31.240   0.135  14.993
31236W        W96496  34.505   0.347   2.045
31237W        W96497  29.170  41.462  11.180
31238W        W96498  10.377   5.626   0.458
31239W        W96499  30.748  31.871   1.338
31240W        W96500  23.727  17.965  14.784
31241W        W96501   9.647   4.654  10.785
31242W        W96502  26.150  15.892   4.794
31243W        W96503  34.948  20.658  10.732
31244W        W96504  16.951  37.513  12.167
31245W        W96505  28.355   4.408   4.499
31246W        W96506   6.380  38.604   2.726
31247W        W96507  18.267   9.806  14.476
31248W        W96508  22.297  14.133  10.549
31249W        W96509  37.833  19.528   3.197
31250W        W96510  11.468  15.416   1.165
31251W        W96511  20.550  28.206  11.575
31252W        W96512  31.858   6.491  13.868
31253W        W96513  16.752  23.660  13.808
31254W        W96514   4.914  18.551  13.394
31255W        W96515  30.343  39.755   1.792
31256W        W96516  12.779  38.024   1.713
31257W        W96517  11.931  41.778   3.350
31258W        W96518  26.395  36.346  12.811
31259W        W96519  15.675  25.692   4.175
31260W        W96520  18.306   6.807  14.771
31261W        W96521  32.150  18.065  10.293
31262W        W96522  22.439  39.875  11.470
31263W        W96523   2.688   6.203   3.714
31264W        W96524   2.782  35.444   1.272
31265W        W96525  15.575   3.907   4.129
31266W        W96526  40.462  13.702   3.185
31267W        W96527  35.918  24.540  14.503
31268W        W96528  41.268  34.410   1.358
31269W        W96529  11.031   9.986   1.191
31270W        W96530  24.311  11.293  13.574
31271W        W96531   1.250  34.110  11.151
31272W        W96532  42.630  28.125   2.211
31273W        W96533  23.655   1.767   3.749
31274W        W96534   4.886  36.538   2.299
31275W        W96535  44.671   7.645   3.078
31276W        W96536  35.784  41.729   4.125
31277W        W96537  20.669   7.853   3.108
31278W        W96538  12.297   8.913   2.240
31279W        W96539  17.290  44.539   3.774
31280W        W96540  14.702  38.921  13.405
31281W        W96541  32.954  28.451   0.480
31282W        W96542  40.531  22.203   3.116
31283W        W96543  34.570  13.545   2.903
31284W        W96544  24.452  18.643  14.746
31285W        W96545  29.578  10.276  13.797
31286W        W96546  12.830   9.904  12.880
31287W        W96547  26.476  38.045  11.508
31288W        W96548  29.940  11.837  14.539
31289W        W96549  27.047   5.114   2.867
31290W        W96550   9.091  14.497   3.638
31291W        W96551   9.180  20.760  12.104
31292W        W96552  21.767  36.632  13.714
31293W        W96553   9.456  11.193   0.965
31294W        W96554  44.784  23.089  11.176
31295W        W96555  31.028  38.069   4.789
31296W        W96556  10.694  13.117   4.429
31297W        W96557   0.877   5.485  13.780
31298W        W96558   5.661  18.496  11.889
31299W        W96559  36.787  25.713  12.681
31300W        W96560  40.861   1.910  11.847
31301W        W96561   2.865   9.230  10.488
31302W        W96562  22.210  26.142  14.769
31303W        W96563  39.992  27.656   1.725
31304W        W96564   3.767  39.091  11.140
31305W        W96565  22.913  14.440  13.866
31306W        W96566  10.558  16.049  10.731
31307W        W96567   9.839  10.350  13.791
31308W        W96568  37.426  27.151   4.839
31309W        W96569  38.809  27.950  11.114
31310W        W96570  12.273  21.531   0.757
31311W        W96571  31.858  23.455   4.452
31312W        W96572  20.215  27.414   1.915
31313W        W96573   3.948  17.650  12.969
31314W        W96574  20.083  31.162   4.652
31315W        W96575  40.085  15.340   0.387
31316W        W96576  41.995  20.631  13.971
31317W        W96577  35.544   7.893   3.653
31318W        W96578  33.962  32.393  11.612
31319W        W96579  38.506  22.071   0.420
31320W        W96580  20.503   0.805   4.227
31321W        W96581  10.314  39.060   4.715
31322W        W96582  30.042  39.434   1.021
31323W        W96583  43.974   3.378  10.915
31324W        W96584  21.463  15.636   4.286
31325W        W96585  13.685  27.883   4.676
31326W        W96586  38.337  38.628  10.962
31327W        W96587  19.328  44.979   2.786
31328W        W96588  28.625  18.780  14.894
31329W        W96589   9.344  18.571  13.254
31330W        W96590  19.481  35.080  11.198
31331W        W96591   5.936  31.464   0.737
31332W        W96592  10.062  25.516  14.423
31333W        W96593  15.097  28.225  11.798
31334W        W96594   0.717  44.768   3.203
31335W        W96595   0.488  13.543   0.189
31336W        W96596  26.700  16.694   1.819
31337W        W96597  35.888  21.122  14.000
31338W        W96598  21.702  41.510  12.100
31339W        W96599  15.654  19.227   0.961
31340W        W96600  38.120   3.234   2.601
31341W        W96601  29.165  17.664   0.539
31342W        W96602  17.584  24.742   3.629
31343W        W96603  38.856  11.826  14.301
31344W        W96604  20.809   5.171   2.799
31345W        W96605  16.816  38.010   3.184
31346W        W96606   9.991   0.429   3.661
31347W        W96607  34.869  10.227   3.262
31348W        W96608  29.477  40.332  14.066
31349W        W96609  44.359   1.530  10.340
31350W        W96610  19.721  21.121   3.703
31351W        W96611   2.023  37.282  10.738
31352W        W96612  36.560  12.901  14.427
31353W        W96613  37.421   1.932  12.554
31354W        W96614  31.576   4.062   4.746
31355W        W96615   9.157  34.036  11.533
31356W        W96616  21.024   4.804  11.868
31357W        W96617   1.052  11.135  11.098
31358W        W96618  31.080  19.206  10.604
31359W        W96619  27.949   8.006  11.952
31360W        W96620   5.928  39.968   1.239
31361W        W96621   8.775  20.468  13.917
31362W        W96622  35.041  33.343  11.602
31363W        W96623  34.026  32.661  14.830
31364W        W96624   7.292   1.492   1.232
31365W        W96625  10.758   1.022  11.592
31366W        W96626  27.784  40.409   3.448
31367W        W96627  19.780   6.231  11.642
31368W        W96628   2.983  40.627   0.221
31369W        W96629  34.088   9.201  11.610
31370W        W96630  24.990  29.473   4.382
31371W        W96631  41.474   6.239   4.032
31372W        W96632  24.974  31.986  12.444
31373W        W96633  20.050  27.516  10.611
31374W        W96634  17.940  32.623  12.817
31375W        W96635  37.781  30.089   3.190
31376W        W96636  29.692  27.722   3.591
31377W        W96637  41.442  40.512   0.979
31378W        W96638   5.211  15.625  11.664
31379W        W96639  27.693   0.572  11.661
31380W        W96640   3.808  10.734  13.958
31381W        W96641  19.107  29.881   4.580
31382W        W96642  41.169  34.631   1.843
31383W        W96643  36.331  13.150   0.334
31384W        W96644  37.904  42.877  11.249
31385W        W96645  17.584   7.870  14.291
31386W        W96646  18.360  29.185  12.115
31387W        W96647   0.747   7.755  13.971
31388W        W96648  11.653   8.355   4.057
31389W        W96649   4.349  40.883  11.907
31390W        W96650  12.613  42.414   4.936
31391W        W96651   2.226  34.491   3.449
31392W        W96652  23.780  29.515  13.035
31393W        W96653   1.501  17.704   1.224
31394W        W96654  28.696  14.220  12.985
31395W        W96655  35.469  38.624   1.422
31396W        W96656  20.568   2.395   0.814
31397W        W96657   3.675  32.612   3.676
31398W        W96658  24.251  21.266   0.472
31399W        W96659   8.340  20.720   3.622
31400W        W96660  44.479  12.479  14.435
31401W        W96661  33.101  43.437  13.900
31402W        W96662  27.085  13.394  10.676
31403W        W96663  42.726  26.208  12.903
31404W        W96664  18.323  15.124   2.167
31405W        W96665   0.882   2.359   0.713
31406W        W96666  18.096   1.636  14.718
31407W        W96667  43.292   4.920  13.968
31408W        W96668  11.939  24.506  10.529
31409W        W96669  22.179   5.020  14.546
31410W        W96670  42.950  22.474  12.666
31411W        W96671  20.934  30.802  14.397
31412W        W96672  18.923  42.385  10.358
31413W        W96673  42.282  42.463  12.886
31414W        W96674  38.671   7.914   3.850
31415W        W96675   7.537   6.990   3.809
31416W        W96676  18.120  41.357   1.331
31417W        W96677   0.456  20.806   2.359
31418W        W96678  35.840   8.338  11.872
31419W        W96679  14.143  24.664   2.769
31420W        W96680  41.882   1.237   0.902
31421W        W96681   5.415  14.561   2.401
31422W        W96682  42.337  25.685   3.087
31423W        W96683   3.831  31.141  12.578
31424W        W96684  42.890  23.220  11.803
31425W        W96685  37.087  24.486  13.142
31426W        W96686  25.861  32.107  11.525
31427W        W96687   2.745  42.948  12.533
31428W        W96688  34.982   4.458   3.256
31429W        W96689  14.312  37.480  10.531
31430W        W96690  24.268  32.247   0.330
31431W        W96691   6.151  28.814   0.497
31432W        W96692  27.302   4.304  12.796
31433W        W96693  43.026  12.942   4.731
31434W        W96694  41.094  39.091   0.856
31435W        W96695  37.084  13.280   4.213
31436W        W96696  30.112  23.602  13.962
31437W        W96697  35.783  29.189   4.607
31438W        W96698  10.679  17.254   2.687
31439W        W96699  21.787   3.259   0.791
31440W        W96700  42.528  26.252   0.432
31441W        W96701   2.934  21.846  12.546
31442W        W96702  23.415   1.081   5.380
31443W        W96703  33.688   2.744  11.369
31444W        W96704  25.496  25.323  11.011
31445W        W96705  23.283  29.008   3.158
31446W        W96706  23.252   0.916   0.701
31447W        W96707   5.869  25.937   5.481
31448W        W96708  17.751   8.769  13.819
31449W        W96709  16.699   4.705  13.027
31450W        W96710  11.429  15.452   0.373
31451W        W96711  32.927  13.817  14.554
31452W        W96712  25.899  25.584   4.105
31453W        W96713  31.528  23.903   2.333
31454W        W96714   3.724  44.515   4.298
31455W        W96715  17.106  36.472   0.208
31456W        W96716   2.205  42.313  12.549
31457W        W96717  12.821  41.056   1.847
31458W        W96718  36.471  12.632   4.606
31459W        W96719  14.777  15.956  12.140
31460W        W96720  15.110  13.508  13.881
31461W        W96721  43.892  13.255  12.596
31462W        W96722  40.544  17.435  11.649
31463W        W96723  14.805   1.521   3.818
31464W        W96724  16.580  19.098  12.884
31465W        W96725  42.730   3.188   4.547
31466W        W96726   7.211  11.906  12.333
31467W        W96727  31.884  27.600   0.321
31468W        W96728  35.841  19.498   2.282
31469W        W96729  14.385  20.294   0.948
31470W        W96730  26.538  31.236   0.440
31471W        W96731  14.414   8.249   1.788
31472W        W96732   7.727  17.720   0.092
31473W        W96733  21.038  18.548  11.916
31474W        W96734  14.174  18.265   0.003
31475W        W96735  14.761  32.491   4.674
31476W        W96736  13.286  30.089  10.438
31477W        W96737  43.239  17.614   2.732
31478W        W96738  38.426  30.554   2.686
31479W        W96739  17.960  32.161   0.275
31480W        W96740  41.099  22.350  14.328
31481W        W96741  21.180   2.533   4.561
31482W        W96742  21.987   2.722  13.037
31483W        W96743  40.596  35.107   4.997
31484W        W96744  21.514  34.584   1.429
31485W        W96745   8.705  41.377   1.464
31486W        W96746  25.634  28.087   2.621
31487W        W96747  29.405  26.188   0.362
31488W        W96748   0.830  21.781  12.097
31489W        W96749  24.853  11.104   3.431
31490W        W96750  28.344  30.212   1.819
31491W        W96751  12.753   6.644   0.345
31492W        W96752  37.534  24.407   4.272
31493W        W96753  37.192  16.501  12.093
31494W        W96754  19.155  23.497  10.125
31495W        W96755  10.941  20.112   0.367
31496W        W96756   6.196  25.089  10.652
31497W        W96757  22.005  40.693  11.951
31498W        W96758  40.105   1.729  10.179
31499W        W96759   7.321  29.380   0.320
31500W        W96760  35.579  22.108  10.762
31501W        W96761   4.665  36.122   1.255
31502W        W96762  33.810  24.472   0.269
31503W        W96763  28.524  15.001   2.163
31504W        W96764  22.471  44.867   1.780
31505W        W96765  35.076  23.799   4.230
31506W        W96766  42.873   7.402  13.001
31507W        W96767  34.442   9.953  13.508
31508W        W96768  30.654  42.068   3.820
31509W        W96769  10.274   1.867   4.124
31510W        W96770  15.750   5.445  12.473
31511W        W96771  38.414  32.504   0.421
31512W        W96772  43.744  35.034  13.417
31513W        W96773  35.395  44.541   3.573
31514W        W96774  30.211   2.201  11.092
31515W        W96775  31.169   1.853  13.129
31516W        W96776  39.632   2.586  12.875
31517W        W96777   6.196  19.981  10.480
31518W        W96778  33.627  41.925   0.558
31519W        W96779  41.014  22.372  12.485
31520W        W96780  41.391  24.784   3.087
31521W        W96781  30.336  29.476   3.995
31522W        W96782  36.951  21.038  12.852
31523W        W96783  31.605   3.179   2.098
31524W        W96784   6.851  40.415   2.367
31525W        W96785   8.170   7.194   0.911
31526W        W96786  20.593  35.478  10.633
31527W        W96787  26.754   8.955   1.589
31528W        W96788  44.214  42.381   1.674
31529W        W96789  27.410   2.794  14.261
31530W        W96790  43.336  29.137  14.598
31531W        W96791   5.665   3.371   4.144
31532W        W96792  43.009  16.705  11.889
31533W        W96793  29.511   0.114   4.049
31534W        W96794  13.983  15.325  10.943
31535W        W96795   1.872  15.739  14.854
31536W        W96796  34.458  13.136   2.179
31537W        W96797  14.255  44.446   3.199
31538W        W96798  18.545   8.283  12.425
31539W        W96799  34.903  25.975   9.582
31540W        W96800  16.811  22.839   3.226
31541W        W96801  44.185  24.647  10.975
31542W        W96802  36.466  36.787   0.047
31543W        W96803  10.827  21.487   3.610
31544W        W96804  25.928  14.180   0.917
31545W        W96805  15.100  23.599   2.790
31546W        W96806  34.543  29.093  12.372
31547W        W96807  14.175  14.250  11.683
31548W        W96808  22.746  43.810  11.981
31549W        W96809  33.483  39.343   1.656
31550W        W96810  20.733  24.739   3.612
31551W        W96811  28.626  16.762   1.743
31552W        W96812  27.692  23.126  11.154
31553W        W96813  15.157  37.221   2.922
31554W        W96814  10.718  13.585   0.373
31555W        W96815  17.029   4.661   1.267
31556W        W96816   3.244  38.535   4.284
31557W        W96817  44.384  11.821   2.853
31558W        W96818  12.855  22.128  14.762
31559W        W96819  14.408  38.051   4.089
31560W        W96820  29.649  30.453   0.953
31561W        W96821  16.563  43.763  12.961
31562W        W96822  35.550   5.126   1.420
31563W        W96823  44.729  26.985   4.522
31564W        W96824  19.008  13.123  13.815
31565W        W96825  34.213   6.739   1.969
31566W        W96826  19.185  27.708   2.818
31567W        W96827  39.516  15.668  14.810
31568W        W96828  11.717  41.863   2.837
31569W        W96829   4.357  28.295   5.018
31570W        W96830   1.687  22.115  14.426
31571W        W96831   7.315   2.960   0.523
31572W        W96832  34.875  15.284   2.304
31573W        W96833  17.098  28.633   2.870
31574W        W96834   1.455  39.314  11.157
31575W        W96835  35.395  20.504   0.402
31576W        W96836   3.396  14.333   0.524
31577W        W96837  30.975   4.353  12.439
31578W        W96838  22.402  23.075   3.249
31579W        W96839  13.882   9.510  14.942
31580W        W96840   0.912  20.003  13.014
31581W        W96841   0.617  36.260  14.445
31582W        W96842  34.127  24.117   4.373
31583W        W96843   3.767  18.857   2.129
31584W        W96844  11.055  20.238  11.338
31585W        W96845  36.392  31.613   0.980
31586W        W96846  43.470  44.884  13.536
31587W        W96847  33.090   3.910  14.770
31588W        W96848  42.202  29.524   0.866
31589W        W96849  44.225  32.008   2.236
31590W        W96850   4.730  16.059  11.159
31591W        W96851   7.336  26.024  11.960
31592W        W96852  36.194   6.187   2.157
31593W        W96853  29.642  24.617  14.945
31594W        W96854  15.330  41.610   0.325
31595W        W96855  18.491  16.182  13.985
31596W        W96856   0.491  17.575  11.268
31597W        W96857  18.997  38.531   4.840
31598W        W96858  34.690  24.651   4.913
31599W        W96859  20.840   9.807  11.125
31600W        W96860  42.268  31.020   0.808
31601W        W96861  41.915  41.287   0.761
31602W        W96862  26.993   7.979  10.671
31603W        W96863  17.771  16.141   0.695
31604W        W96864  39.734  15.282  10.572
31605W        W96865  22.209  17.647  14.041
31606W        W96866  38.289  37.410  13.919
31607W        W96867   8.701  16.769   3.067
31608W        W96868  41.969  20.154   4.742
31609W        W96869  11.597  16.769  13.282
31610W        W96870  28.942  24.999   1.551
31611W        W96871  11.035  14.461   1.903
31612W        W96872  25.721  20.162  14.826
31613W        W96873  14.738  23.474   0.815
31614W        W96874  34.049  14.269  13.366
31615W        W96875  18.203  30.015   1.424
31616W        W96876  18.086  33.106  10.715
31617W        W96877   0.989  26.037   1.815
31618W        W96878  23.028  16.616   0.812
31619W        W96879  13.359  43.322   3.787
31620W        W96880  23.352   2.212   2.080
31621W        W96881  13.384  19.509   1.385
31622W        W96882  27.797  19.057   2.489
31623W        W96883   8.648  43.007  13.419
31624W        W96884   5.683  43.927   2.843
31625W        W96885  43.491  33.949   0.391
31626W        W96886  23.780  21.763   1.797
31627W        W96887  23.605  39.489  11.996
31628W        W96888  20.565  28.504   0.953
31629W        W96889   0.384   9.909   3.797
31630W        W96890  25.993   6.496   4.106
31631W        W96891  32.183  20.809  12.350
31632W        W96892  13.201  33.305  12.847
31633W        W96893  44.741  24.483   1.397
31634W        W96894  43.310  35.077  10.662
31635W        W96895  28.957  39.867  14.809
31636W        W96896  15.647  19.127  10.652
31637W        W96897   0.470  43.901   0.313
31638W        W96898  14.154  44.013   0.193
31639W        W96899   2.170  34.899   0.664
31640W        W96900  41.914  19.641  13.322
31641W        W96901  43.873  14.200   0.054
31642W        W96902   0.989  36.010   2.826
31643W        W96903  43.598   8.166   1.394
31644W        W96904   7.659  18.970  10.843
31645W        W96905  41.792  43.083  13.417
31646W        W96906  25.089  16.178   3.304
31647W        W96907  10.641  28.562   4.087
31648W        W96908  13.359  34.634  10.618
31649W        W96909   0.445  16.143  14.432
31650W        W96910  15.295   4.753  14.157
31651W        W96911  39.034   4.944   2.901
31652W        W96912  30.835  13.064   1.340
31653W        W96913   0.023  14.440   4.479
31654W        W96914  17.399  26.741  12.583
31655W        W96915   9.434  32.151   3.827
31656W        W96916  27.568  29.033  10.530
31657W        W96917   3.310   7.404  12.038
31658W        W96918  28.191  11.964  13.498
31659W        W96919  14.287  40.343  14.236
31660W        W96920  27.031  37.533   3.203
31661W        W96921  18.780  14.022   3.001
31662W        W96922  19.510  35.410   2.981
31663W        W96923  19.628   5.361   2.135
31664W        W96924  14.299   5.015   3.654
31665W        W96925  37.964   2.480  14.939
31666W        W96926  21.249  12.242   3.683
31667W        W96927  11.333   6.241  12.405
31668W        W96928  30.521  28.678   2.121
31669W        W96929  43.099   3.368  14.470
31670W        W96930   6.957  18.865  14.914
31671W        W96931  43.883   4.725   3.154
31672W        W96932  24.483  22.860   3.662
31673W        W96933  44.305   9.231  12.848
31674W        W96934  32.541   9.894   0.003
31675W        W96935   3.275   6.276   1.388
31676W        W96936  33.003   1.009  14.704
31677W        W96937   6.200  39.894   2.137
31678W        W96938  36.840   2.855  11.540
31679W        W96939  23.204   7.885   0.268
31680W        W96940   1.509  33.845   0.319
31681W        W96941  32.714  36.489   4.354
31682W        W96942  13.764  11.854  12.524
31683W        W96943  17.639  25.713  13.486
31684W        W96944  28.394  12.373   1.944
31685W        W96945  20.749  11.235  11.970
31686W        W96946   0.916   3.337   1.571
31687W        W96947   3.863  12.596   4.332
31688W        W96948  34.916  36.392   1.844
31689W        W96949  14.078   0.945   0.347
31690W        W96950  15.066  12.384   1.762
31691W        W96951   8.398   0.530   4.538
31692W        W96952  21.943  34.993  11.919
31693W        W96953  30.041  33.754  10.951
31694W        W96954  14.029  36.464   1.704
31695W        W96955  28.024  38.205   2.627
31696W        W96956   7.747  19.695   3.365
31697W        W96957  25.249  35.650  12.181
31698W        W96958  43.990  28.120  11.530
31699W        W96959  44.074  39.461  13.500
31700W        W96960   4.208  23.017   3.608
31701W        W96961   9.193  39.410  14.924
31702W        W96962   5.910  10.286  14.274
31703W        W96963  14.193  30.153  13.440
31704W        W96964  24.742  34.848  12.222
31705W        W96965  24.632  40.466  12.783
31706W        W96966  32.634   8.841  13.925
31707W        W96967  19.416  23.746  13.740
31708W        W96968  14.728  13.393   1.477
31709W        W96969  21.912  29.870   2.250
31710W        W96970  41.236  34.804  11.484
31711W        W96971  17.994   7.970   2.886
31712W        W96972  24.583   9.524   0.556
31713W        W96973  21.205   6.323  13.575
31714W        W96974  39.462  16.217   2.418
31715W        W96975  27.951   7.196  10.984
31716W        W96976  42.385   4.901  14.920
31717W        W96977  41.590  34.913   1.770
31718W        W96978   4.710  41.292   3.294
31719W        W96979  42.460  21.022  12.610
31720W        W96980   0.671  39.868  12.840
31721W        W96981  31.539  16.102   2.813
31722W        W96982  14.536  28.412   3.096
31723W        W96983   6.305  42.458   3.641
31724W        W96984  18.589  22.920   0.723
31725W        W96985  35.561  41.256  14.720
31726W        W96986   8.148  22.104  12.812
31727W        W96987  16.132  19.903  12.150
31728W        W96988  27.156  11.326   2.665
31729W        W96989  14.497   4.933   1.702
31730W        W96990   8.844  15.606  14.264
31731W        W96991  23.476  18.632   1.808
31732W        W96992  33.958  29.599  14.789
31733W        W96993  18.056   7.360   2.649
31734W        W96994  43.522  31.907   2.733
31735W        W96995   7.530  16.239  14.540
31736W        W96996  25.118   5.151  14.762
31737W        W96997  42.366  40.907  11.239
31738W        W96998  43.214  12.127   3.062
31739W        W96999   0.083  14.889   2.210
31740W        W97000   7.277  30.440   0.336
31741W        W97001  41.754  36.733   2.396
31742W        W97002   7.970  22.457   0.309
31743W        W97003  12.900  42.993   0.694
31744W        W97004  12.176   4.941  14.573
31745W        W97005   9.804   6.907  13.451
31746W        W97006  39.909  26.138  11.636
31747W        W97007   2.390  33.315   0.981
31748W        W97008  12.779  32.187  13.821
31749W        W97009  39.903   0.444   2.684
31750W        W97010   7.793  16.954   3.177
31751W        W97011  14.807   7.852  14.962
31752W        W97012   3.868  35.467   0.415
31753W        W97013  12.118  41.400   0.938
31754W        W97014  29.101  19.547   3.127
31755W        W97015  41.014  32.225  11.600
31756W        W97016   1.945  40.511   2.457
31757W        W97017  44.083  29.435  12.915
31758W        W97018   3.792   3.418   4.097
31759W        W97019  22.633   5.206   0.916
31760W        W97020  13.758   1.261   3.152
31761W        W97021  40.592  11.466  12.432
31762W        W97022  27.518  36.058   3.982
31763W        W97023   4.887   6.423   4.954
31764W        W97024  44.554   0.274  12.022
31765W        W97025  41.768  40.047   4.796
31766W        W97026   3.929  11.864   2.395
31767W        W97027  39.195  41.539  11.962
31768W        W97028  38.553   7.277   1.249
31769W        W97029  32.630   6.876   1.301
31770W        W97030   0.837  33.785  12.447
31771W        W97031  31.670  27.587   4.728
31772W        W97032   9.794  21.975  12.012
31773W        W97033   2.697  15.589  11.615
31774W        W97034  31.612  10.244   2.877
31775W        W97035  29.076  28.735  10.307
31776W        W97036  40.605   6.231   2.612
31777W        W97037  24.948  32.695   2.260
31778W        W97038   4.807  28.119   3.823
31779W        W97039   0.336  12.533   2.463
31780W        W97040  20.166  19.875   0.374
31781W        W97041  41.412  14.789   2.881
31782W        W97042  22.039   1.593   5.012
31783W        W97043  17.781  20.863  12.317
31784W        W97044   4.710   3.690  13.291
31785W        W97045  41.495  34.302  12.474
31786W        W97046   4.345  23.575   1.880
31787W        W97047  27.740  33.936   1.729
31788W        W97048  10.482  36.442   1.738
31789W        W97049  40.055  25.989   1.715
31790W        W97050  26.020  40.057   1.657
31791W        W97051  26.915  10.271  14.511
31792W        W97052  13.593  33.959   4.653
31793W        W97053  41.780  26.181  14.401
31794W        W97054  31.093  42.331  13.147
31795W        W97055  18.231   6.749  12.893
31796W        W97056  44.899   0.996   1.950
31797W        W97057  13.264  29.089   4.347
31798W        W97058  15.633   0.205   2.210
31799W        W97059  35.389  11.251  11.256
31800W        W97060   5.515  34.957   3.420
31801W        W97061  15.296   0.178  11.103
31802W        W97062  29.006  16.088   4.712
31803W        W97063   3.356  14.971  14.143
31804W        W97064  32.391  22.311   5.153
31805W        W97065  26.491  43.060  12.473
31806W        W97066  26.777   1.960   3.161
31807W        W97067   2.936   1.947  12.027
31808W        W97068   5.340  18.088  13.980
31809W        W97069   8.539  32.129  11.170
31810W        W97070  21.615  35.418   3.728
31811W        W97071  36.414  36.975   2.259
31812W        W97072  30.632  32.868  14.522
31813W        W97073   5.243  39.077  14.621
31814W        W97074  34.622  28.884  13.391
31815W        W97075   9.223  41.229  12.617
31816W        W97076  33.438   8.958   4.246
31817W        W97077  28.539  42.222  11.107
31818W        W97078  31.590  24.011   1.795
31819W        W97079  41.207  21.458  12.656
31820W        W97080   9.898  43.135   1.194
31821W        W97081  35.010   8.497   5.069
31822W        W97082  40.070  44.713   2.246
31823W        W97083  15.838  32.444   3.314
31824W        W97084   0.521   7.307  13.800
31825W        W97085  19.075   6.893  12.349
31826W        W97086  22.617  40.195  11.093
31827W        W97087  28.746  31.036   3.636
31828W        W97088  26.632  21.167  10.887
31829W        W97089   0.359  19.677   1.636
31830W        W97090   6.838  28.517   4.010
31831W        W97091  27.587  23.467  13.630
31832W        W97092   8.984  12.243  14.542
31833W        W97093  42.755   2.300  14.931
31834W        W97094  33.479  42.871   4.216
31835W        W97095  24.775  30.115   1.266
31836W        W97096  42.740  35.466  13.082
31837W        W97097  22.323  19.323  13.497
31838W        W97098  35.730  33.143   1.834
31839W        W97099  23.695  40.399  13.354
31840W        W97100  44.869  16.250  12.966
31841W        W97101  21.585  28.226  11.567
31842W        W97102   5.336  20.159  12.134
31843W        W97103  38.856  20.109  14.395
31844W        W97104   5.422  17.739  14.386
31845W        W97105  21.440  43.993  14.891
31846W        W97106   0.086   4.837  13.745
31847W        W97107  34.670  15.932   1.685
31848W        W97108   3.901  38.087   0.876
31849W        W97109  16.358  13.057  12.370
31850W        W97110  31.424   3.389  11.718
31851W        W97111   7.208  16.364   0.917
31852W        W97112  10.917  18.725   1.290
31853W        W97113  13.030  38.816   1.964
31854W        W97114  19.228   1.408  13.961
31855W        W97115  22.590  15.608  12.942
31856W        W97116  25.420  33.002   3.332
31857W        W97117  24.395   3.209   1.767
31858W        W97118  44.340  12.618  12.133
31859W        W97119  39.919  44.413  11.980
31860W        W97120  17.612   4.382   2.770
31861W        W97121  33.017  32.008  11.105
31862W        W97122   1.436  35.848   3.079
31863W        W97123  16.624  40.144  12.830
31864W        W97124  17.519  17.089   1.825
31865W        W97125  40.321   8.256   1.445
31866W        W97126  12.831  20.805   0.692
31867W        W97127   0.424  44.890   0.160
31868W        W97128  22.008  10.726   2.431
31869W        W97129   3.357  15.272   4.678
31870W        W97130   5.002  42.916  10.373
31871W        W97131  30.635  30.952  14.453
31872W        W97132  25.627  43.622  12.352
31873W        W97133  43.306   0.556   0.855
31874W        W97134   5.494  17.083  11.104
31875W        W97135  40.002   1.473  13.322
31876W        W97136  13.765   4.809   3.561
31877W        W97137  40.540  44.090   2.651
31878W        W97138  38.559  20.263   0.669
31879W        W97139  34.560  22.483   0.935
31880W        W97140  12.249  40.825   3.651
31881W        W97141  40.365  17.738  12.077
31882W        W97142  14.525   2.420   1.793
31883W        W97143   7.711  44.939  13.415
31884W        W97144  13.675  27.100  12.325
31885W        W97145   7.950  38.709   3.552
31886W        W97146   3.672  21.274   0.519
31887W        W97147  10.706  21.306  12.983
31888W        W97148  32.958   1.860   1.369
31889W        W97149  31.134  11.357   3.556
31890W        W97150  14.682  34.944   3.591
31891W        W97151  12.453  38.592   0.848
31892W        W97152   4.874  34.106   1.831
31893W        W97153  14.114   4.640  14.493
31894W        W97154  36.546  34.776   0.334
31895W        W97155  43.906  40.716  12.127
31896W        W97156   8.133  18.213  12.987
31897W        W97157   3.025  41.916  12.372
31898W        W97158  44.252   6.328  10.411
31899W        W97159  12.819  29.927  12.847
31900W        W97160  11.022  41.814  13.090
31901W        W97161  40.823  10.366   1.334
31902W        W97162  22.759  40.451  10.670
31903W        W97163  34.987  14.589  11.649
31904W        W97164  12.831  41.787  13.780
31905W        W97165  40.289  27.673   0.374
31906W        W97166   4.124  33.968   4.738
31907W        W97167   4.768  30.431  14.516
31908W        W97168  14.713  15.539  10.670
31909W        W97169  18.951   3.261   1.270
31910W        W97170  41.922  30.938   3.292
31911W        W97171  44.559  31.384  12.172
31912W        W97172  24.185  28.106   4.956
31913W        W97173  38.958  44.569  11.949
31914W        W97174  29.140  35.964   4.240
31915W        W97175  14.710  28.840  12.147
31916W        W97176  43.429  29.513  12.214
31917W        W97177  25.100  10.126   0.298
31918W        W97178   8.904   0.265  13.059
31919W        W97179  27.124  42.243  11.824
31920W        W97180  31.016  26.149   1.587
31921W        W97181  23.066  28.682   1.442
31922W        W97182   5.820  15.534   1.667
31923W        W97183  19.329  14.342  14.353
31924W        W97184  14.494  14.543  12.569
31925W        W97185  26.648   2.513   0.463
31926W        W97186  26.015   6.332   0.836
31927W        W97187   8.464   8.898  14.427
31928W        W97188   9.784  12.923  10.995
31929W        W97189  37.863  22.425  14.851
31930W        W97190  29.145  41.254  10.716
31931W        W97191  12.375  16.006   3.236
31932W        W97192  34.345  26.742  12.967
31933W        W97193  19.787  28.618   2.807
31934W        W97194  35.864  36.624  12.940
31935W        W97195  37.876  30.926   3.527
31936W        W97196  32.014   1.521   4.150
31937W        W97197  33.993  19.280  13.779
31938W        W97198   4.014  41.529   0.847
31939W        W97199  21.037  16.774  11.550
31940W        W97200  12.342  30.504   3.066
31941W        W97201  33.599  20.480   0.269
31942W        W97202  39.069  41.407  13.527
31943W        W97203  17.531   5.660  11.198
31944W        W97204   3.372  43.747  13.646
31945W        W97205   8.637  44.384  10.742
31946W        W97206  27.672  27.178  13.611
31947W        W97207  31.641  32.411  11.894
31948W        W97208  20.167  17.012   2.336
31949W        W97209  29.142  28.441   1.653
31950W        W97210  44.016  39.829   2.715
31951W        W97211  43.326   4.898  10.564
31952W        W97212   8.895  16.672   4.603
31953W        W97213   8.325   1.748   3.189
31954W        W97214  38.283   5.774  13.934
31955W        W97215  14.812  27.594  14.733
31956W        W97216  37.883  44.830   4.354
31957W        W97217  22.155  19.599   5.146
31958W        W97218  40.964  42.767   1.370
31959W        W97219  44.001  33.869   2.243
31960W        W97220   8.099  26.239   1.893
31961W        W97221   8.416  37.593  10.635
31962W        W97222  16.672  11.329   4.592
31963W        W97223  16.185  25.617  12.052
31964W        W97224  19.099   0.373  14.746
31965W        W97225  24.208   1.562  13.845
31966W        W97226  13.114  29.866   1.765
31967W        W97227  30.107  28.027  14.412
31968W        W97228  12.008  23.238   0.019
31969W        W97229   7.282   0.731   3.610
31970W        W97230  23.062  38.961   1.619
31971W        W97231  20.776  33.618  14.365
31972W        W97232  12.080  40.017   2.267
31973W        W97233  10.419   9.294  13.034
31974W        W97234  33.617  41.365  10.706
31975W        W97235   3.248   9.107   2.338
31976W        W97236   8.857  20.577   0.948
31977W        W97237   6.329  36.521  10.637
31978W        W97238   3.230   1.096   4.674
31979W        W97239  30.184   9.257   2.232
31980W        W97240  28.546   6.637  11.135
31981W        W97241  18.406  12.319   2.388
31982W        W97242  17.667  35.902  10.941
31983W        W97243  26.563  31.657  11.983
31984W        W97244   3.053  14.187   0.909
31985W        W97245   5.402   4.953   2.797
31986W        W97246   2.155  19.125  13.883
31987W        W97247  18.353  29.173   0.313
31988W        W97248   3.743  38.388   4.626
31989W        W97249  44.212  44.850   0.711
31990W        W97250  18.756  20.741   9.942
31991W        W97251  27.996  18.032  13.056
31992W        W97252  14.586   2.349  11.089
31993W        W97253   3.359  42.697  14.917
31994W        W97254  35.608  25.146   1.190
31995W        W97255   8.705   9.290   0.396
31996W        W97256   0.989   7.770  10.751
31997W        W97257  31.997  38.587   2.725
31998W        W97258  44.914  33.424  11.018
31999W        W97259  24.268  42.908   1.289
32000W        W97260  20.348  16.569   3.356
32001W        W97261   8.161  16.741   2.858
32002W        W97262   7.924  10.449   1.788
32003W        W97263  35.025  22.531  14.798
32004W        W97264  11.831  27.552  12.020
32005W        W97265   4.859  38.526  13.918
32006W        W97266  43.465  41.808  10.340
32007W        W97267  32.191  23.445  13.984
32008W        W97268  27.477  40.782  14.456
32009W        W97269  28.455  18.189   4.221
32010W        W97270  10.729  30.192  14.366
32011W        W97271  38.274  26.155  14.303
32012W        W97272   0.192  19.564   0.683
32013W        W97273  17.523   8.875  10.353
32014W        W97274  33.454  12.694  12.995
32015W        W97275  37.898  34.628   0.335
32016W        W97276  36.286   4.429   1.862
32017W        W97277  23.686   8.673  13.570
32018W        W97278   6.746   0.654  11.100
32019W        W97279   5.783  36.295   4.665
32020W        W97280  18.169  25.242  10.675
32021W        W97281  43.768  38.401  10.889
32022W        W97282   0.529  27.506  13.978
32023W        W97283  14.373  22.262  13.427
32024W        W97284  38.570  38.543  12.394
32025W        W97285   4.958   8.085   3.270
32026W        W97286  27.508  32.617  13.395
32027W        W97287  27.918  37.436   0.280
32028W        W97288  27.538  38.798   1.804
32029W        W97289  34.055   8.872   1.338
32030W        W97290  18.005  31.198   3.403
32031W        W97291  36.671  11.761  14.949
32032W        W97292  17.387  23.064   2.360
32033W        W97293  27.232   7.881  13.841
32034W        W97294  24.047  42.533   2.638
32035W        W97295  15.328  19.697  12.719
32036W        W97296   7.861  13.926   1.179
32037W        W97297  12.031  36.886  12.036
32038W        W97298  10.841  29.821   9.685
32039W        W97299  12.056  38.963   0.764
32040W        W97300   9.358  44.497   0.013
32041W        W97301  26.869  39.856   4.032
32042W        W97302  10.906  19.595  13.497
32043W        W97303   4.406  19.037   4.130
32044W        W97304  41.294  16.575  10.720
32045W        W97305  33.024  25.790  12.048
32046W        W97306  15.772  10.122  11.981
32047W        W97307  29.616  23.044  10.904
32048W        W97308   0.390   0.691   3.321
32049W        W97309  23.830  36.757  10.781
32050W        W97310  37.411  36.148  10.299
32051W        W97311  14.236  42.415  12.578
32052W        W97312  13.682  43.599  10.784
32053W        W97313  15.777   7.309   4.187
32054W        W97314  13.868  31.542   0.918
32055W        W97315  43.551   5.023   0.863
32056W        W97316  30.411   1.252  13.080
32057W        W97317  16.679  26.978   3.554
32058W        W97318  39.407  24.499  12.136
32059W        W97319   6.661  42.323   1.675
32060W        W97320  39.592  41.882  14.103
32061W        W97321  24.418  41.287   2.325
32062W        W97322  36.881  37.472  11.479
32063W        W97323  14.214  43.725   0.653
32064W        W97324  26.588  26.120  10.305
32065W        W97325  12.857   0.354   2.171
32066W        W97326  11.208  10.321  14.373
32067W        W97327  14.184  26.063   0.535
32068W        W97328   5.874  30.119   1.442
32069W        W97329  15.382  20.649  12.425
32070W        W97330  41.726  39.347  14.544
32071W        W97331  36.161  24.093  14.429
32072W        W97332  21.679   1.960   2.820
32073W        W97333   6.566  23.743  14.120
32074W        W97334  42.989   6.247   2.009
32075W        W97335  26.043  23.835   2.827
32076W        W97336   0.404  31.613  11.625
32077W        W97337  11.381  11.041  14.878
32078W        W97338  15.879   6.776  11.883
32079W        W97339  41.376   5.961  12.952
32080W        W97340  28.610   1.335  14.857
32081W        W97341   0.447  25.434  14.588
32082W        W97342   6.417   9.007   5.040
32083W        W97343  39.042  16.833  12.444
32084W        W97344  25.361  36.812  12.173
32085W        W97345  39.014  27.457   3.335
32086W        W97346  36.235  18.245   0.410
32087W        W97347  26.585  44.872   1.124
32088W        W97348  11.658  22.640  10.339
32089W        W97349  22.660  14.308  11.102
32090W        W97350   0.870  21.236  12.126
32091W        W97351  42.095  37.930  12.653
32092W        W97352  42.047   0.362  12.520
32093W        W97353   4.360   7.855  12.949
32094W        W97354  22.254  29.890   4.117
32095W        W97355   5.021   4.817   3.341
32096W        W97356  25.086   6.276  14.750
32097W        W97357  36.088  35.987  11.620
32098W        W97358  28.531  26.381  13.959
32099W        W97359  16.224  16.985  10.628
32100W        W97360   1.764  41.796   5.071
32101W        W97361  29.170   1.016   2.886
32102W        W97362  31.358  34.056  13.581
32103W        W97363   7.164  34.761  11.161
32104W        W97364  36.147  36.612   2.791
32105W        W97365  20.842   6.918   3.436
32106W        W97366  25.573  44.819  14.837
32107W        W97367   0.709  24.427  10.184
32108W        W97368  10.433  25.986   0.498
32109W        W97369   8.211  11.804   1.665
32110W        W97370  30.884  28.425   1.435
32111W        W97371   2.810   5.695   3.692
32112W        W97372  44.489  32.541   4.057
32113W        W97373   0.860  23.919   2.358
32114W        W97374   3.038   8.174   4.254
32115W        W97375  27.020   7.451  10.713
32116W        W97376  36.432   5.266  14.986
32117W        W97377  10.339  32.099   0.704
32118W        W97378  10.364  38.372  10.890
32119W        W97379   0.032  23.822   3.072
32120W        W97380  36.531  28.024   2.680
32121W        W97381  25.623   5.580   1.341
32122W        W97382  16.810  25.489   2.261
32123W        W97383   8.364  13.032  11.688
32124W        W97384   6.216  11.571  14.287
32125W        W97385  11.446  19.768  12.447
32126W        W97386  11.817   3.715   3.853
32127W        W97387  31.126   1.694  11.161
32128W        W97388  36.888   5.902   4.873
32129W        W97389   4.996   6.768   1.479
32130W        W97390  19.227  11.776  13.297
32131W        W97391  25.652  21.642  13.814
32132W        W97392  29.288  19.671   0.480
32133W        W97393  28.602   8.316  13.347
32134W        W97394  13.636  24.370   2.264
32135W        W97395   7.147  30.764  14.875
32136W        W97396  18.675  23.017   4.225
32137W        W97397  26.967   6.936  13.356
32138W        W97398   2.363  34.046  12.218
32139W        W97399  40.939   4.405  14.779
32140W        W97400  42.087  24.710  12.504
32141W        W97401  20.042  10.910  14.274
32142W        W97402  43.287   5.776  14.316
32143W        W97403   7.670  25.259  14.749
32144W        W97404  23.766  42.418   3.394
32145W        W97405   7.197  19.139   0.425
32146W        W97406  37.058   9.358   0.186
32147W        W97407   9.160  36.717  14.319
32148W        W97408  17.221   2.395  13.557
32149W        W97409  20.307  40.096   0.860
32150W        W97410  18.981   7.430   4.098
32151W        W97411   5.588  27.430   9.854
32152W        W97412   4.958  27.998  13.786
32153W        W97413   7.168   2.742  13.561
32154W        W97414  44.795  36.104   1.040
32155W        W97415   6.178   2.324   0.456
32156W        W97416  29.426   1.550  11.855
32157W        W97417  28.769   5.455  13.325
32158W        W97418  17.129  39.843  13.290
32159W        W97419  42.875  24.271   5.226
32160W        W97420  43.319   7.422  13.285
32161W        W97421  11.890   9.614   1.743
32162W        W97422   0.771   4.034   2.135
32163W        W97423   1.278  34.012  13.553
32164W        W97424  11.842  24.301  13.776
32165W        W97425  38.726  30.322  11.067
32166W        W97426  20.719  27.654  13.355
32167W        W97427  18.474  20.668  13.453
32168W        W97428  32.613  41.577   1.937
32169W        W97429  23.130  28.852  13.531
32170W        W97430  34.670  24.189  11.523
32171W        W97431  12.838  10.229  11.927
32172W        W97432  42.438  40.037  11.184
32173W        W97433  37.273  28.946  10.954
32174W        W97434  28.455  14.307  12.486
32175W        W97435  27.724   1.527   3.387
32176W        W97436  36.211   7.227  14.937
32177W        W97437  44.936  29.274  13.576
32178W        W97438  12.025  28.703   1.455
32179W        W97439  41.065   3.896   4.707
32180W        W97440  41.053  10.801   3.272
32181W        W97441  15.160  39.655  11.126
32182W        W97442  11.735  18.164  11.211
32183W        W97443   2.979  19.597   4.870
32184W        W97444  44.907  41.344  11.182
32185W        W97445  10.375  13.688   2.513
32186W        W97446  34.110  10.788  11.562
32187W        W97447   9.144  14.368  12.552
32188W        W97448  41.062  18.681  13.402
32189W        W97449  35.979  27.204   2.632
32190W        W97450   0.648  36.993  10.876
32191W        W97451  33.487   5.370  14.791
32192W        W97452  11.591  21.029  14.638
32193W        W97453  42.365  20.767   1.817
32194W        W97454  26.116  33.958  13.479
32195W        W97455  42.024  19.296   2.222
32196W        W97456  35.628   8.416   3.608
32197W        W97457  16.609  33.867  13.973
32198W        W97458  43.285  38.392   0.048
32199W        W97459  26.111  32.318   3.793
32200W        W97460  29.456   1.157   2.387
32201W        W97461  18.195  43.634   0.882
32202W        W97462   8.509   5.737  14.473
32203W        W97463  16.665  21.983  14.983
32204W        W97464  37.248  12.390  11.162
32205W        W97465  41.459  38.266  12.110
32206W        W97466  40.427  43.695   4.124
32207W        W97467  37.014  27.853   2.829
32208W        W97468   8.854  24.855   3.213
32209W        W97469  33.303  22.179   4.018
32210W        W97470  44.642   9.039   9.739
32211W        W97471   7.634  36.008  14.869
32212W        W97472  38.637  38.295  10.698
32213W        W97473  16.804  37.104  14.615
32214W        W97474  23.755  26.629  14.361
32215W        W97475  19.198  22.561   2.919
32216W        W97476  15.083   1.176  11.104
32217W        W97477  19.293  35.687  10.248
32218W        W97478  20.045  23.690   2.343
32219W        W97479   4.347   2.846  13.347
32220W        W97480  23.454  23.693  12.144
32221W        W97481  22.508  40.390   0.779
32222W        W97482  33.759  42.395  11.263
32223W        W97483  40.050  42.062  14.289
32224W        W97484  37.530  11.526   0.043
32225W        W97485   2.236  20.668  12.446
32226W        W97486  41.904  41.971   2.448
32227W        W97487   3.703  25.052   5.089
32228W        W97488  35.633   2.830   3.691
32229W        W97489  44.682  20.587   3.217
32230W        W97490   4.354  43.216  13.449
32231W        W97491  40.891  25.086   2.312
32232W        W97492  17.693  37.880   4.863
32233W        W97493  11.775  15.385  14.291
32234W        W97494  35.388   4.937   4.636
32235W        W97495  40.432   7.943   2.149
32236W        W97496  17.178  29.599   1.913
32237W        W97497   1.002  17.197   3.166
32238W        W97498  40.867  43.635  14.990
32239W        W97499   2.264  21.986   0.484
32240W        W97500  16.835  33.843   2.239
32241W        W97501  17.515  42.515   3.393
32242W        W97502  22.484  32.447   2.737
32243W        W97503  21.037  24.721  11.601
32244W        W97504   0.591  23.988   3.728
32245W        W97505  29.886   5.851   4.276
32246W        W97506  42.840   2.666   3.661
32247W        W97507  18.481  40.861   1.611
32248W        W97508  29.371  20.767   2.260
32249W        W97509  27.376   7.131  11.942
32250W        W97510   2.371  30.585  13.574
32251W        W97511  37.135  44.424   4.524
32252W        W97512   9.906  43.888   2.390
32253W        W97513  43.566   1.487   0.817
32254W        W97514  14.030  11.034   2.747
32255W        W97515  44.823   3.868  13.951
32256W        W97516  36.379  39.105   0.548
32257W        W97517  39.979  32.498   0.004
32258W        W97518  38.354  44.689   3.119
32259W        W97519  34.539  40.102   1.160
32260W        W97520  11.626  44.394   4.020
32261W        W97521  28.064  26.191   2.267
32262W        W97522   6.944  21.223   1.666
32263W        W97523  25.675  30.365  13.610
32264W        W97524   3.706  32.484  12.833
32265W        W97525  38.908  14.096  11.909
32266W        W97526   0.458   4.213   3.232
32267W        W97527   9.226  34.459   3.784
32268W        W97528  17.339  36.977   1.609
32269W        W97529  13.319  13.311  12.321
32270W        W97530  42.332  14.292   9.407
32271W        W97531  12.736  27.094   4.939
32272W        W97532  39.897  43.128  11.512
32273W        W97533   3.498  26.565  12.929
32274W        W97534  38.495  27.679  12.934
32275W        W97535  44.407   8.747   2.338
32276W        W97536  24.215  21.325   0.976
32277W        W97537  41.895  39.993   3.525
32278W        W97538  31.873  23.410  14.952
32279W        W97539  21.681  13.772   4.244
32280W        W97540  26.471  34.992  12.109
32281W        W97541  24.669  14.073   2.262
32282W        W97542  44.532  42.474  14.342
32283W        W97543  27.867  23.596   0.957
32284W        W97544   1.905  28.057   5.037
32285W        W97545  37.769   9.642   0.421
32286W        W97546  21.005   8.173   0.314
32287W        W97547   5.879  14.706   1.235
32288W        W97548  27.981  41.111   1.337
32289W        W97549  44.842   0.791   3.482
32290W        W97550  29.478  39.339  11.976
32291W        W97551   6.394  37.257  10.328
32292W        W97552   3.677   3.708   1.789
32293W        W97553   1.296  31.536   0.549
32294W        W97554   0.421  12.508  13.602
32295W        W97555   4.863   9.695  10.387
32296W        W97556  35.521  41.684  11.560
32297W        W97557   6.962  34.211  12.439
32298W        W97558  32.836   1.658  10.718
32299W        W97559  25.243  28.950   0.478
32300W        W97560   6.090  39.802   4.171
32301W        W97561  28.953  31.800   0.870
32302W        W97562  11.824  27.895   1.926
32303W        W97563   2.938  33.600  10.603
32304W        W97564  40.022   2.732   3.230
32305W        W97565   6.943  31.466  10.795
32306W        W97566   3.879   8.711  14.793
32307W        W97567  15.358   4.223  13.400
32308W        W97568  21.979  19.835   4.713
32309W        W97569  36.017  13.727   4.237
32310W        W97570  20.481  30.713   0.587
32311W        W97571  13.495  19.583   5.036
32312W        W97572  30.898   9.748  13.301
32313W        W97573  41.956  18.396   2.242
32314W        W97574  10.246  30.097   2.667
32315W        W97575  29.512  26.009  12.919
32316W        W97576  10.279   0.974   4.341
32317W        W97577  27.247  41.616   1.463
32318W        W97578  25.106  39.385   0.690
32319W        W97579   3.230  25.405   2.082
32320W        W97580  43.260   1.245  13.331
32321W        W97581  15.167  29.489  12.620
32322W        W97582  22.949   7.282   3.181
32323W        W97583  23.182  14.604   4.905
32324W        W97584  28.674  20.852  14.024
32325W        W97585  41.001  26.380  11.551
32326W        W97586  14.790  12.163   3.677
32327W        W97587  39.285  22.067   4.523
32328W        W97588   3.675  41.843  13.443
32329W        W97589  16.292  21.339  11.163
32330W        W97590  29.155  19.163  12.395
32331W        W97591  43.268  17.152  13.916
32332W        W97592  21.083  41.361   1.427
32333W        W97593  42.483   3.797  12.087
32334W        W97594   6.727  12.062   2.334
32335W        W97595   3.916   6.106  11.121
32336W        W97596   8.684  15.237   3.220
32337W        W97597  31.806   7.720   1.425
32338W        W97598  22.708  21.228  10.608
32339W        W97599  44.412  22.107  12.122
32340W        W97600  40.578  39.008   3.183
32341W        W97601   9.619  37.875   3.763
32342W        W97602  30.940  20.124   4.544
32343W        W97603  26.414  10.211  14.590
32344W        W97604  35.246   7.181   2.363
32345W        W97605  19.584   1.658   1.395
32346W        W97606  30.510  34.198  11.451
32347W        W97607   2.404  32.409  14.017
32348W        W97608  26.419  40.962   2.641
32349W        W97609  22.061  22.308   1.242
32350W        W97610  19.617  10.067   3.364
32351W        W97611  17.287  27.921   4.229
32352W        W97612  20.324  43.400   4.261
32353W        W97613  19.935   7.379   1.431
32354W        W97614   4.067   4.475   3.174
32355W        W97615  32.270  13.676  11.604
32356W        W97616  14.988  16.572   4.185
32357W        W97617   4.360   5.421   0.045
32358W        W97618  26.486  20.265  14.254
32359W        W97619  38.272  38.523  11.945
32360W        W97620  22.242  21.464  10.615
32361W        W97621  11.169  11.711  14.385
32362W        W97622  41.826  17.859  11.924
32363W        W97623  36.446  25.639   4.379
32364W        W97624   4.421   7.384  12.466
32365W        W97625  41.939  14.574   3.688
32366W        W97626  30.088  23.167   4.091
32367W        W97627  41.031  15.664   4.005
32368W        W97628  38.311  15.196   0.885
32369W        W97629  13.576  16.052   2.718
32370W        W97630  44.190  32.632  13.834
32371W        W97631  41.202  27.710  13.124
32372W        W97632  23.497  31.052  14.423
32373W        W97633   4.967  27.073  12.865
32374W        W97634  23.625   8.938   1.320
32375W        W97635  18.605  40.054  12.922
32376W        W97636  10.688  26.934  14.005
32377W        W97637  20.172   6.004   3.136
32378W        W97638   7.775  28.621   4.093
32379W        W97639  27.652  30.137  10.691
32380W        W97640  10.737   5.729  14.550
32381W        W97641   4.825  29.168   3.260
32382W        W97642  30.649   5.260   0.956
32383W        W97643  40.771  17.208   1.724
32384W        W97644  42.572  11.638  13.034
32385W        W97645  23.757  39.128   2.775
32386W        W97646  17.315  24.438  12.243
32387W        W97647  42.953   1.496   1.514
32388W        W97648  33.820   5.262  12.493
32389W        W97649   5.922  18.072  11.173
32390W        W97650  31.065   0.147  10.555
32391W        W97651  29.652  18.321   2.818
32392W        W97652  43.326   3.379  12.026
32393W        W97653  43.848   8.403   4.828
32394W        W97654   6.359  25.897   0.770
32395W        W97655   0.087  30.981  10.654
32396W        W97656  10.852   2.008  13.599
32397W        W97657   2.479  20.269  11.830
32398W        W97658  40.808  43.101  12.096
32399W        W97659  19.585  34.675  14.333
32400W        W97660  39.482  19.189  10.865
32401W        W97661  40.974  14.692  10.332
32402W        W97662  39.647  21.282  14.493
32403W        W97663  35.503  30.003  11.987
32404W        W97664  25.167  28.026  14.070
32405W        W97665  15.230   2.272   0.776
32406W        W97666   0.026   5.801  12.546
32407W        W97667  31.576  20.585  13.476
32408W        W97668  16.334   9.189   4.316
32409W        W97669   2.256  10.673  12.482
32410W        W97670   2.417   7.963  10.489
32411W        W97671   3.811   9.925  13.075
32412W        W97672  13.755  19.907  10.337
32413W        W97673  13.118  13.245   5.044
32414W        W97674  39.379   8.105  10.675
32415W        W97675  39.447  33.338  12.009
32416W        W97676  31.500   8.936  13.269
32417W        W97677  19.980  42.510   2.257
32418W        W97678  11.551  11.635  13.096
32419W        W97679  43.728  42.833   3.757
32420W        W97680  14.572  30.516   0.912
32421W        W97681  21.810  40.623   1.733
32422W        W97682  34.074  25.001  11.358
32423W        W97683   7.456  32.594  13.435
32424W        W97684  41.258  40.768   3.801
32425W        W97685   7.199  27.493  10.200
32426W        W97686  17.215  20.409  14.375
32427W        W97687  37.021  39.951   1.854
32428W        W97688  17.534  24.493   0.273
32429W        W97689  44.516   8.370  14.428
32430W        W97690  17.114   3.125   4.217
32431W        W97691  27.063  41.403  12.367
32432W        W97692  31.948  44.508   3.427
32433W        W97693  40.169  43.223   2.873
32434W        W97694  42.008  23.108   4.131
32435W        W97695  14.270   1.368   2.422
32436W        W97696  42.938  36.344   3.225
32437W        W97697  30.777  17.014  11.136
32438W        W97698  16.782  24.764   2.864
32439W        W97699  25.489   5.775  11.573
32440W        W97700  43.566   3.269   0.345
32441W        W97701  22.479   2.014   2.314
32442W        W97702  16.865  30.360   1.361
32443W        W97703  23.743   9.291  14.515
32444W        W97704  33.304  37.115  14.556
32445W        W97705   9.643  22.486  12.982
32446W        W97706  13.429  36.874  13.962
32447W        W97707   2.696  21.193   0.247
32448W        W97708   0.900  13.172  10.225
32449W        W97709  23.448  39.324   4.406
32450W        W97710  25.103  44.461   3.191
32451W        W97711  14.128  18.711  11.621
32452W        W97712  23.577  15.233  10.464
32453W        W97713  16.581  18.114   1.458
32454W        W97714  16.207  38.559   0.357
32455W        W97715  35.031  22.284   4.169
32456W        W97716  38.613  31.251   0.898
32457W        W97717  17.087  28.667   2.335
32458W        W97718   0.294  11.054   2.229
32459W        W97719  24.049  32.484   5.015
32460W        W97720  17.325  42.444   1.668
32461W        W97721   0.594  40.907  11.543
32462W        W97722  29.079  24.304  12.567
32463W        W97723  39.877   5.590  11.543
32464W        W97724   6.222   1.730  11.671
32465W        W97725  19.823  13.283  10.992
32466W        W97726  38.806  11.478   0.296
32467W        W97727  28.043   1.139  12.017
32468W        W97728  23.958   5.642   0.137
32469W        W97729  10.195  32.366  11.428
32470W        W97730   1.650  22.839   4.748
32471W        W97731  20.625  28.027   3.592
32472W        W97732  20.439  42.594   3.248
32473W        W97733  37.759  19.603   0.256
32474W        W97734  14.654  35.790   1.034
32475W        W97735  14.037  38.110  13.775
32476W        W97736  42.827  39.453  13.460
32477W        W97737   7.306  21.042  14.111
32478W        W97738  17.487  28.365  11.129
32479W        W97739  18.454  33.969   4.252
32480W        W97740   8.462  21.237   3.633
32481W        W97741  26.945  13.259  14.126
32482W        W97742  28.729  18.557   3.149
32483W        W97743  11.863  25.101  13.626
32484W        W97744   3.082  43.926  10.709
32485W        W97745  26.217  24.903   0.960
32486W        W97746  28.875  24.488   1.565
32487W        W97747  14.093  36.058  10.688
32488W        W97748  17.218  39.359  12.034
32489W        W97749  44.970  12.731  13.460
32490W        W97750   3.770   5.348   3.721
32491W        W97751  40.099  20.559  12.822
32492W        W97752  44.452  19.462  12.206
32493W        W97753   3.385  13.857   3.302
32494W        W97754  21.195   5.380   5.354
32495W        W97755  15.498   2.462   3.179
32496W        W97756  26.025  21.039   4.042
32497W        W97757   1.303   0.381   2.863
32498W        W97758  39.985   1.303   3.349
32499W        W97759  38.574  20.333  14.775
32500W        W97760  19.565  31.179   3.003
32501W        W97761  33.442  29.261  13.948
32502W        W97762  28.189  38.099   4.168
32503W        W97763   3.785  29.101   0.035
32504W        W97764  44.023  17.607  12.372
32505W        W97765  16.541  23.297   0.055
32506W        W97766  24.563  40.115  14.873
32507W        W97767  11.417   0.468  13.154
32508W        W97768  41.836  17.732   3.137
32509W        W97769   0.444  10.826  12.753
32510W        W97770  18.395   6.720  10.664
32511W        W97771  26.665  34.041   2.779
32512W        W97772  21.169  44.420   2.655
32513W        W97773  18.951  35.013   4.700
32514W        W97774   6.733  35.210   4.051
32515W        W97775   5.903  15.582  12.957
32516W        W97776  38.536  22.233  14.912
32517W        W97777  37.560  44.274  11.961
32518W        W97778  30.226  21.837   2.208
32519W        W97779   9.837  16.305  14.482
32520W        W97780  43.069  15.082  14.964
32521W        W97781  23.782   7.783   1.887
32522W        W97782   7.176  11.584   4.116
32523W        W97783  14.741  33.840  13.117
32524W        W97784  16.629  27.532  10.586
32525W        W97785   0.877  15.110   4.527
32526W        W97786  33.764  19.360   1.420
32527W        W97787  14.724   8.148   4.074
32528W        W97788  18.691  26.357  12.827
32529W        W97789  24.070   8.312   3.203
32530W        W97790  38.514  43.742   2.869
32531W        W97791   6.231   1.314  14.315
32532W        W97792  37.934  13.780  14.079
32533W        W97793  22.687  34.653  12.365
32534W        W97794   5.722  21.425  11.515
32535W        W97795   7.185  44.291  14.580
32536W        W97796  32.411  43.513   0.948
32537W        W97797  21.081  32.882  11.896
32538W        W97798  14.240  43.195   0.648
32539W        W97799  14.888  26.295  14.415
32540W        W97800   9.724   5.548  13.864
32541W        W97801   6.849  32.869   4.869
32542W        W97802  38.096  41.609  12.430
32543W        W97803  33.447  36.503   2.215
32544W        W97804  29.480  37.983   0.734
32545W        W97805  31.652  38.618   2.121
32546W        W97806   5.873   6.216   1.982
32547W        W97807  16.979  15.320  11.658
32548W        W97808  19.669  31.397  13.399
32549W        W97809  38.550  26.235  11.099
32550W        W97810   5.673  33.555   4.595
32551W        W97811  34.305   2.369   0.178
32552W        W97812   4.482  21.641  14.845
32553W        W97813  10.900  19.659   4.136
32554W        W97814  37.692  19.148   2.885
32555W        W97815  26.765   2.221   0.870
32556W        W97816   7.297  24.573   3.268
32557W        W97817  19.567  24.690  11.300
32558W        W97818  29.201  11.866  11.021
32559W        W97819  28.071  15.128   3.682
32560W        W97820  40.991  28.109  12.851
32561W        W97821  12.203  33.340  10.742
32562W        W97822   4.205  29.003   2.556
32563W        W97823  36.389  29.291   2.915
32564W        W97824  19.446  13.345   1.467
32565W        W97825  15.633   8.378  11.487
32566W        W97826  27.244  27.578  12.461
32567W        W97827  30.162  14.830  11.997
32568W        W97828  30.707  43.634  11.356
32569W        W97829   4.934  22.618   3.668
32570W        W97830   6.244   7.440  11.476
32571W        W97831  25.619  19.241   3.374
32572W        W97832  36.292  14.787  13.137
32573W        W97833   2.082  19.507  10.882
32574W        W97834  42.261   5.522  13.389
32575W        W97835  19.042  22.241  11.157
32576W        W97836  36.593  37.876  13.498
32577W        W97837  27.945  36.057  11.896
32578W        W97838  18.923  39.654  13.850
32579W        W97839  38.584  29.006  14.381
32580W        W97840  26.660  43.997  10.864
32581W        W97841  37.877   1.061  13.004
32582W        W97842   8.387  42.687  11.624
32583W        W97843  22.039  36.989   0.246
32584W        W97844  30.874  17.116  13.307
32585W        W97845  34.084  31.586   2.491
32586W        W97846  29.038  25.662   0.157
32587W        W97847  19.990   4.667  10.131
32588W        W97848  37.078  37.274   3.667
32589W        W97849   5.962  44.440   3.744
32590W        W97850  20.182  19.017   1.805
32591W        W97851  41.499  31.614  14.839
32592W        W97852  14.717  30.844   9.982
32593W        W97853   5.403  42.812  11.533
32594W        W97854  17.767  38.533  10.974
32595W        W97855  40.868  19.827  11.554
32596W        W97856   8.913  17.683  14.374
32597W        W97857  15.925  44.991  13.447
32598W        W97858  34.975  16.970   2.765
32599W        W97859   7.686  15.045   4.227
32600W        W97860   6.671  20.229   0.362
32601W        W97861  39.320  18.558   3.796
32602W        W97862   8.198   2.817  13.431
32603W        W97863  11.134  19.648   3.659
32604W        W97864   3.366  44.060   0.241
32605W        W97865  44.286  13.773   9.882
32606W        W97866   5.962  20.308   4.232
32607W        W97867  28.055  21.629  12.374
32608W        W97868   7.168  16.105  11.145
32609W        W97869   0.842  44.192   1.832
32610W        W97870  33.995  34.091  11.868
32611W        W97871   2.529   7.006  11.065
32612W        W97872  42.886  37.814  11.727
32613W        W97873  28.617  29.653  12.150
32614W        W97874   8.078  15.296  12.380
32615W        W97875  42.516  33.160  12.166
32616W        W97876  22.666  14.273   1.656
32617W        W97877  14.538  11.985  13.563
32618W        W97878  17.162  10.586   0.876
32619W        W97879  20.258  29.194   3.196
32620W        W97880  10.882  28.050  12.881
32621W        W97881  29.050  27.476   3.093
32622W        W97882  11.142  29.865   5.039
32623W        W97883   3.969  22.682  14.887
32624W        W97884  33.349   6.686  12.536
32625W        W97885  21.764  39.500   1.518
32626W        W97886   3.054   1.812   2.838
32627W        W97887  22.477  42.371   0.508
32628W        W97888  27.656  28.043   4.946
32629W        W97889  24.779  32.541   3.884
32630W        W97890  18.793  33.512   2.388
32631W        W97891  13.799   8.178   3.659
32632W        W97892  28.565   2.014  12.197
32633W        W97893  41.349  41.839   3.090
32634W        W97894  21.084  19.170   9.782
32635W        W97895  20.652  21.256   4.007
32636W        W97896  38.897   1.039  14.902
32637W        W97897  20.726  26.630  13.465
32638W        W97898  34.017  40.234   2.291
32639W        W97899   8.933  16.327  11.371
32640W        W97900   0.671  26.458  12.368
32641W        W97901  14.585  13.351   2.307
32642W        W97902  13.786  22.577   0.322
32643W        W97903   4.748  11.830   0.859
32644W        W97904   2.760   8.091   1.647
32645W        W97905  16.434   9.250  12.014
32646W        W97906  10.071   9.636  11.626
32647W        W97907   8.829   0.906   0.190
32648W        W97908   4.918  24.171   3.065
32649W        W97909   3.441   1.051  12.029
32650W        W97910   4.911  37.954  12.209
32651W        W97911  24.633   4.729   2.690
32652W        W97912   2.315  20.948   4.671
32653W        W97913  13.627  23.542   4.336
32654W        W97914   0.270   5.672   2.362
32655W        W97915  37.903  22.631   4.533
32656W        W97916  28.274   0.807   2.929
32657W        W97917  27.090   0.474   1.793
32658W        W97918  19.478   4.664  14.381
32659W        W97919  36.404  35.119  10.605
32660W        W97920  35.994  30.966  12.141
32661W        W97921  24.233  38.967  12.219
32662W        W97922   1.331  22.009  12.309
32663W        W97923   7.692   0.926  12.781
32664W        W97924  28.040  13.375   3.508
32665W        W97925  40.047  24.663   3.257
32666W        W97926  39.957   2.266   2.149
32667W        W97927  14.843   0.980   4.751
32668W        W97928   7.249  20.423  13.453
32669W        W97929  17.380  35.579  11.362
32670W        W97930  23.286  18.834   1.362
32671W        W97931  44.521  37.409   1.277
32672W        W97932  42.104   3.295   1.298
32673W        W97933  34.852  41.338   4.422
32674W        W97934   1.930  27.079   5.076
32675W        W97935  37.500  29.264  13.798
32676W        W97936  35.669  10.244   4.849
32677W        W97937  42.019  44.533  11.243
32678W        W97938  40.444  39.765   1.666
32679W        W97939   9.307   3.417  11.962
32680W        W97940  37.553  33.087  13.600
32681W        W97941  35.811  15.693   0.948
32682W        W97942  40.354   9.432   0.720
32683W        W97943   9.168   5.720  13.499
32684W        W97944  31.911  22.196  12.930
32685W        W97945  22.476  25.120  11.921
32686W        W97946  25.001  17.592  12.425
32687W        W97947   1.082  11.963  14.258
32688W        W97948  13.572   6.303   4.183
32689W        W97949  12.592   4.251   0.956
32690W        W97950  39.192   1.284   1.690
32691W        W97951   7.828  29.164   0.397
32692W        W97952  21.343  22.359   3.638
32693W        W97953  37.482  17.341   2.845
32694W        W97954   3.393   9.323   3.675
32695W        W97955  21.202   3.274   3.805
32696W        W97956  26.689  29.537   3.141
32697W        W97957  44.746  36.777  11.249
32698W        W97958   1.173   2.815  13.920
32699W        W97959  22.668   9.077   2.289
32700W        W97960  35.526  32.162  10.296
32701W        W97961   7.172   3.913  11.296
32702W        W97962  28.979  18.673   4.809
32703W        W97963   4.757  43.827   0.211
32704W        W97964  12.201   8.233  12.279
32705W        W97965  28.501  31.163  12.429
32706W        W97966  36.097   5.225  12.506
32707W        W97967  41.735  27.953   2.910
32708W        W97968  35.504  15.083   0.397
32709W        W97969  13.744  14.206   4.689
32710W        W97970  39.426  23.833   1.355
32711W        W97971  10.801  22.224  12.760
32712W        W97972  37.171  25.566   3.804
32713W        W97973  43.996  43.971   0.207
32714W        W97974  24.234  15.110  11.007
32715W        W97975  31.889  26.761   0.666
32716W        W97976  17.738  20.343   3.675
32717W        W97977  37.574  23.134   3.405
32718W        W97978  38.355  37.141   0.469
32719W        W97979  43.032  25.793  11.198
32720W        W97980   3.788   3.429  11.366
32721W        W97981   2.471  43.410  14.675
32722W        W97982  24.049  43.557   4.630
32723W        W97983   3.583  34.612   3.703
32724W        W97984  34.376   7.452   2.691
32725W        W97985  22.803  20.933  12.936
32726W        W97986  14.674  39.870  11.289
32727W        W97987  14.563  31.198   1.433
32728W        W97988  37.394   4.850   4.625
32729W        W97989  19.352  35.946  10.698
32730W        W97990  19.629  30.724  12.588
32731W        W97991  12.275  37.344  12.018
32732W        W97992   8.157  43.755  13.895
32733W        W97993  11.844  19.417  11.562
32734W        W97994   4.939  38.170  10.720
32735W        W97995  20.241  18.902   0.251
32736W        W97996   2.289  21.963  12.656
32737W        W97997   5.974  39.135  13.355
32738W        W97998  26.384   2.903   0.905
32739W        W97999  11.664  37.364   3.906
32740W        W98000  14.290  26.009   3.218
32741W        W98001  42.797   6.373   3.831
32742W        W98002  32.984  31.667  14.999
32743W        W98003  38.630   8.649   1.461
32744W        W98004  25.063  43.818  13.502
32745W        W98005  22.731   8.234  12.417
32746W        W98006  18.437  42.862  12.974
32747W        W98007  36.089   6.122   4.677
32748W        W98008  17.237   2.245   2.806
32749W        W98009  37.975  38.043  14.356
32750W        W98010  27.137  33.256   2.775
32751W        W98011  42.833  34.111   4.887
32752W        W98012   7.344  10.624  13.309
32753W        W98013   5.494  11.729   3.131
32754W        W98014  42.557  34.844   1.663
32755W        W98015  44.477  44.130   2.561
32756W        W98016   6.744   5.192  10.660
32757W        W98017  28.394   2.355  10.390
32758W        W98018  12.923  29.359  14.112
32759W        W98019  27.290  36.333   4.388
32760W        W98020   6.835  18.425  13.309
32761W        W98021  39.553  29.562   0.893
32762W        W98022   3.681  31.622  12.419
32763W        W98023   3.889  44.872  10.436
32764W        W98024  27.753  17.846   5.505
32765W        W98025  21.744   0.220  13.943
32766W        W98026  22.198  33.541   2.045
32767W        W98027  11.076  22.968   0.352
32768W        W98028   5.980   9.732   2.254
32769W        W98029   9.925  40.336   3.113
32770W        W98030  18.574   8.083  13.850
32771W        W98031  33.394  25.126   1.419
32772W        W98032  29.752  25.177   0.311
32773W        W98033  34.610  18.261  14.071
32774W        W98034   5.268   2.495  12.536
32775W        W98035   7.283  13.370   2.358
32776W        W98036  42.460  42.264   0.314
32777W        W98037   0.731  20.667  14.378
32778W        W98038  36.503  42.726   2.706
32779W        W98039  33.390   0.463   3.330
32780W        W98040  27.075  41.872   3.222
32781W        W98041  31.475  26.207   1.342
32782W        W98042  37.026  21.674  13.487
32783W        W98043  24.488  13.588  13.232
32784W        W98044  31.581   0.428   4.919
32785W        W98045  30.647  21.529   2.271
32786W        W98046  25.554  22.666   4.602
32787W        W98047  19.789  32.790  12.475
32788W        W98048  23.659   3.089   1.196
32789W        W98049   2.510  42.714  12.940
32790W        W98050  14.049  12.762   0.905
32791W        W98051   1.145   4.249   1.777
32792W        W98052  36.426  10.943   2.147
32793W        W98053  25.027   5.863   1.964
32794W        W98054  23.661  13.432  11.313
32795W        W98055  43.976   8.856  11.579
32796W        W98056  40.820  18.257   4.581
32797W        W98057  36.061   2.438   0.770
32798W        W98058  32.592  39.512   0.212
32799W        W98059  10.818  22.229   1.683
32800W        W98060  18.678   0.891   3.166
32801W        W98061  23.579  34.078   2.266
32802W        W98062   7.750   2.912   4.285
32803W        W98063  28.135   1.984  14.304
32804W        W98064  32.437  42.459   3.417
32805W        W98065  26.264  16.777  14.320
32806W        W98066   9.866  25.546   3.102
32807W        W98067  26.476  43.552  12.317
32808W        W98068  32.160  14.518   3.459
32809W        W98069  36.947  12.321   0.874
32810W        W98070  17.476   3.071  13.663
32811W        W98071   5.289   7.401   4.432
32812W        W98072   0.768  38.641  12.044
32813W        W98073  20.180  10.083   4.827
32814W        W98074  28.413  36.944   3.557
32815W        W98075  23.233  19.349   1.258
32816W        W98076  44.755  18.588  14.047
32817W        W98077  20.498  42.040  12.263
32818W        W98078   6.922  22.488  14.244
32819W        W98079  35.168  24.028   2.913
32820W        W98080  18.769  38.903  11.182
32821W        W98081   1.821  39.899  13.347
32822W        W98082  40.326  24.438   2.323
32823W        W98083  13.312  21.575  11.428
32824W        W98084  23.678  21.181  12.990
32825W        W98085   7.366  40.627  12.074
32826W        W98086  28.861  26.445  10.786
32827W        W98087  13.197  42.803   2.440
32828W        W98088  36.408  31.392   3.680
32829W        W98089  13.646  24.754  14.356
32830W        W98090  34.343   5.381   0.873
32831W        W98091  20.680  34.503   1.809
32832W        W98092  37.366   2.477   0.301
32833W        W98093  37.896  14.677   2.344
32834W        W98094  32.858   0.233  14.318
32835W        W98095  23.631   8.161  13.570
32836W        W98096  41.516   7.795  11.577
32837W        W98097  36.047   9.989  12.293
32838W        W98098  29.040  21.281   1.929
32839W        W98099  28.190  41.387  11.522
32840W        W98100  35.590  30.544  14.272
32841W        W98101  32.314  15.901   2.706
32842W        W98102   9.880  30.090   2.313
32843W        W98103  41.787   6.937   0.902
32844W        W98104  27.120  34.285  11.159
32845W        W98105  42.224   2.543  11.073
32846W        W98106   4.560  25.715  10.548
32847W        W98107  23.311   1.586   3.254
32848W        W98108  12.148  42.498  10.730
32849W        W98109  27.616  32.418   1.721
32850W        W98110  18.458  29.678  13.874
32851W        W98111   4.455  36.024   4.666
32852W        W98112  22.536  25.517   1.982
32853W        W98113  24.067  31.596   1.477
32854W        W98114  25.636   8.137   1.355
32855W        W98115   8.399  24.941  12.040
32856W        W98116   9.928  14.846   3.717
32857W        W98117  22.666   9.429  10.342
32858W        W98118  41.719  15.496   2.798
32859W        W98119   2.027  19.691   3.644
32860W        W98120  18.094  30.386  13.393
32861W        W98121   4.785  36.015   3.628
32862W        W98122   7.956  18.059  10.174
32863W        W98123   8.799  33.152  14.759
32864W        W98124  36.444  33.300  10.555
32865W        W98125  44.865  40.870   3.517
32866W        W98126  13.828  17.274   4.455
32867W        W98127   9.626  30.991   2.859
32868W        W98128   7.184  33.064  13.340
32869W        W98129  34.908  12.776  11.969
32870W        W98130   6.439  41.877   4.833
32871W        W98131  19.515  16.626  13.307
32872W        W98132  27.653  44.992   4.628
32873W        W98133  37.085  37.941  11.369
32874W        W98134  35.426  20.152  13.388
32875W        W98135  24.019   8.898  14.707
32876W        W98136  44.752  22.744   0.339
32877W        W98137  28.081   4.818  12.564
32878W        W98138  33.045  28.941  11.063
32879W        W98139  24.523  40.540  10.990
32880W        W98140   3.288  16.117   1.788
32881W        W98141  20.511  25.053   3.138
32882W        W98142  35.730  34.385  13.438
32883W        W98143  21.024   5.687   4.609
32884W        W98144   4.627  10.378  11.669
32885W        W98145  33.072  10.301   2.697
32886W        W98146  10.076  43.339   0.748
32887W        W98147  28.352  19.642   2.912
32888W        W98148  36.368  15.815   3.685
32889W        W98149   1.761   4.416   3.752
32890W        W98150  20.082  38.376  12.975
32891W        W98151   6.730  25.897   1.362
32892W        W98152   6.590   9.602  14.601
32893W        W98153  39.837  31.832   2.255
32894W        W98154  22.472  29.454   1.659
32895W        W98155  11.439  35.658   0.345
32896W        W98156   9.910   6.778   0.905
32897W        W98157  28.872  11.244   4.136
32898W        W98158   8.736  37.783  14.525
32899W        W98159  23.860   2.737   3.832
32900W        W98160   4.809  26.300   4.123
32901W        W98161  39.297  22.997   4.285
32902W        W98162  28.547  12.799  10.703
32903W        W98163   8.382   4.929   4.227
32904W        W98164   6.361  17.633   2.075
32905W        W98165   3.333  16.871   4.346
32906W        W98166  24.600   1.915  11.582
32907W        W98167  14.624  17.145  12.062
32908W        W98168  35.150   2.951   3.676
32909W        W98169  44.485  18.281   3.656
32910W        W98170  23.568   0.108   4.159
32911W        W98171   0.407   6.490   1.196
32912W        W98172  14.237  35.869   2.841
32913W        W98173  30.520  42.999   3.714
32914W        W98174   4.855  29.337  10.748
32915W        W98175   3.642  38.343   1.304
32916W        W98176   8.422  41.597   0.371
32917W        W98177   7.508  42.072  13.731
32918W        W98178  29.441   3.961  12.399
32919W        W98179  37.015  13.151  11.245
32920W        W98180   8.213  35.607  14.385
32921W        W98181  24.915  21.995   2.398
32922W        W98182  28.015  26.708  11.581
32923W        W98183   9.602   2.264   2.762
32924W        W98184  18.748  32.593   4.713
32925W        W98185  37.538  38.558  11.466
32926W        W98186   2.225  25.472   3.292
32927W        W98187  27.815  43.514  11.292
32928W        W98188  28.920  33.056  11.065
32929W        W98189  11.578   7.769  12.776
32930W        W98190  29.484   3.938  14.022
32931W        W98191  33.347  29.612   4.216
32932W        W98192  17.308  16.340   4.039
32933W        W98193  20.765  28.031  10.643
32934W        W98194  37.371   1.062  12.909
32935W        W98195  22.177  44.887   0.308
32936W        W98196  30.870  41.356   0.128
32937W        W98197  43.199  23.830   0.666
32938W        W98198  42.792   8.671   4.142
32939W        W98199  29.003  10.758  14.596
32940W        W98200  44.650  17.265  13.584
32941W        W98201  41.322  35.366  10.386
32942W        W98202  19.790  25.603   0.716
32943W        W98203  16.455   0.314   4.162
32944W        W98204  38.957  11.548   9.798
32945W        W98205  11.803  32.552   2.709
32946W        W98206  28.505  26.766   0.375
32947W        W98207  42.264  36.654   2.322
32948W        W98208  12.436   7.942   2.270
32949W        W98209  36.419  40.520   0.314
32950W        W98210   0.494  14.576   2.390
32951W        W98211  33.094   5.911  12.908
32952W        W98212  16.579  33.345  13.937
32953W        W98213  20.324  18.724   2.295
32954W        W98214  23.952  17.537   0.445
32955W        W98215  41.413  27.612  12.653
32956W        W98216   2.703  20.686   0.662
32957W        W98217  23.483  22.050  13.001
32958W        W98218  31.626   4.867  11.503
32959W        W98219  36.539  16.923   0.398
32960W        W98220  44.932  32.798   3.827
32961W        W98221   4.185  20.166   1.152
32962W        W98222  41.335   4.296   4.467
32963W        W98223  28.485  19.678  11.475
32964W        W98224  41.506  34.004  10.452
32965W        W98225  11.329  20.657  11.204
32966W        W98226  31.049  31.090  11.086
32967W        W98227  35.578  27.178  11.135
32968W        W98228  22.031  39.634  10.778
32969W        W98229  34.879  30.359   3.724
32970W        W98230  40.218   5.506   2.167
32971W        W98231  17.714  36.931  14.547
32972W        W98232  16.327  34.666   2.238
32973W        W98233  44.973   5.325  13.905
32974W        W98234  41.855  18.416   4.877
32975W        W98235  37.041  23.795   1.315
32976W        W98236  33.416  34.893   3.609
32977W        W98237   3.224   4.383   1.291
32978W        W98238  28.726   6.412   4.096
32979W        W98239  37.088   1.974   1.831
32980W        W98240   7.806  37.375  12.412
32981W        W98241   3.024   1.738   0.798
32982W        W98242  17.022  10.325   5.102
32983W        W98243  31.235   2.671   3.621
32984W        W98244   2.845   5.499  14.554
32985W        W98245  40.456  41.926   4.713
32986W        W98246  31.786  22.199  11.167
32987W        W98247  32.335   3.294   2.758
32988W        W98248  22.196  21.058   4.086
32989W        W98249  26.087   7.339  11.169
32990W        W98250  20.207  34.923   1.329
32991W        W98251  30.647  23.108  12.853
32992W        W98252  41.238  21.692   3.037
32993W        W98253  37.843  26.477   2.275
32994W        W98254   2.043  20.269  12.102
32995W        W98255  13.826  34.981  13.298
32996W        W98256   7.124  29.688  14.338
32997W        W98257   0.458  38.925  10.658
32998W        W98258   5.347   4.108   1.274
32999W        W98259   1.390   9.161   4.089
33000W        W98260  44.801  28.323   3.540
33001W        W98261   7.185  21.781   0.953
33002W        W98262  32.568  17.288   3.557
33003W        W98263  33.152  13.783  12.598
33004W        W98264   9.688  43.324  14.821
33005W        W98265  29.691  31.999  12.360
33006W        W98266  38.382  25.726   2.238
33007W        W98267  18.959  22.900  13.891
33008W        W98268   0.532  20.998   4.046
33009W        W98269  19.758  20.169   0.383
33010W        W98270   6.617  35.035  12.614
33011W        W98271  26.233  23.371   2.772
33012W        W98272  29.264  40.827  13.992
33013W        W98273  12.208   9.196   0.108
33014W        W98274   9.238  32.182  11.578
33015W        W98275   3.220   4.355  11.126
33016W        W98276  41.813  30.781  10.439
33017W        W98277  42.459   2.037   1.071
33018W        W98278  26.603  35.349   0.354
33019W        W98279  42.467  42.571  13.849
33020W        W98280  11.351   7.833  13.234
33021W        W98281  25.922  17.726  14.389
33022W        W98282  22.425   5.006  13.368
33023W        W98283  43.876   7.540   0.093
33024W        W98284  42.317  25.147   1.394
33025W        W98285  26.521  44.732   1.624
33026W        W98286   2.696  34.478  11.925
33027W        W98287  16.801  27.486   3.322
33028W        W98288  20.709  14.322   0.697
33029W        W98289  10.530  10.814   3.314
33030W        W98290  22.264  23.456   4.400
33031W        W98291  16.884  12.533   3.064
33032W        W98292  25.421  40.172   3.142
33033W        W98293  36.964  32.569   2.454
33034W        W98294  28.246  42.435  11.469
33035W        W98295  30.961  21.796   3.849
33036W        W98296  26.332  32.238  11.337
33037W        W98297  19.441  44.983  14.720
33038W        W98298   9.804   5.291   1.805
33039W        W98299  11.718   5.228  10.945
33040W        W98300   6.501  21.459  13.482
33041W        W98301  23.547  12.836  14.322
33042W        W98302  32.667  20.027   3.705
33043W        W98303   1.509  33.469  12.886
33044W        W98304   5.302  22.178  10.673
33045W        W98305  18.291  27.540   0.758
33046W        W98306  32.018  14.860  13.518
33047W        W98307   0.249   3.474   3.707
33048W        W98308  18.335  20.895  12.141
33049W        W98309  35.411  34.614  14.564
33050W        W98310   7.383  17.513  14.010
33051W        W98311  31.001  44.220   3.140
33052W        W98312  31.369  26.888   2.711
33053W        W98313  32.833  16.148  10.336
33054W        W98314   5.855  27.195   1.728
33055W        W98315  23.132  37.157   5.429
33056W        W98316  34.355  19.307   2.398
33057W        W98317  11.424  20.115   2.277
33058W        W98318  12.425  14.695   2.444
33059W        W98319  41.927  15.674  13.895
33060W        W98320   2.408   2.508  11.497
33061W        W98321  11.560  35.966  13.844
33062W        W98322  27.190  41.363   3.111
33063W        W98323  24.506  29.667  13.517
33064W        W98324  17.194  10.843   0.416
33065W        W98325   3.734  42.774  10.327
33066W        W98326  30.082   9.936   1.298
33067W        W98327  22.984  36.790   2.666
33068W        W98328  33.394  44.428  13.779
33069W        W98329  29.646  14.779  14.470
33070W        W98330  15.878   4.130   4.531
33071W        W98331  35.098  25.497   1.740
33072W        W98332  39.094   6.851   0.101
33073W        W98333   4.290  24.307  12.405
33074W        W98334  44.888   6.638  14.023
33075W        W98335  24.585  24.559   3.604
33076W        W98336  13.743  40.345   4.609
33077W        W98337  18.179  25.679  11.022
33078W        W98338  29.426   7.955  13.768
33079W        W98339  32.163   6.943  10.509
33080W        W98340  44.924  25.112   3.126
33081W        W98341  11.569  10.187   0.838
33082W        W98342  41.987  40.379  14.333
33083W        W98343  14.715   9.799   2.290
33084W        W98344  33.023   0.467  12.065
33085W        W98345  25.464  15.204   2.206
33086W        W98346  18.610  44.231   4.503
33087W        W98347   0.336   4.980   3.481
33088W        W98348  32.059  23.487  10.730
33089W        W98349  42.343  17.581   2.224
33090W        W98350  23.611  42.462   1.061
33091W        W98351  23.199  33.337   3.329
33092W        W98352  19.461  38.691  12.382
33093W        W98353  35.875   2.551   5.023
33094W        W98354  19.429  40.963   4.571
33095W        W98355  34.921   0.191   0.350
33096W        W98356  27.236  34.517   1.319
33097W        W98357  27.344  15.649   4.036
33098W        W98358  40.350  10.732  12.883
33099W        W98359  23.520   3.801   0.909
33100W        W98360  38.597  35.860  13.016
33101W        W98361  35.623   7.869  11.933
33102W        W98362   3.647  44.362  14.407
33103W        W98363  42.982  16.619   0.911
33104W        W98364  28.662  20.365  10.275
33105W        W98365  42.908  17.701  11.585
33106W        W98366   9.184  43.977   0.046
33107W        W98367   3.028  10.762  13.353
33108W        W98368  35.358  25.700  11.567
33109W        W98369  33.512  21.790  14.780
33110W        W98370  29.403  36.928   0.051
33111W        W98371  14.152  39.016  13.348
33112W        W98372   7.195  15.841  11.570
33113W        W98373  15.872   3.329  12.015
33114W        W98374  11.515  23.702   3.230
33115W        W98375  10.754   9.736  11.124
33116W        W98376  20.688  20.294  10.670
33117W        W98377  36.005  15.692  10.350
33118W        W98378  35.963  32.459   4.429
33119W        W98379  29.520  38.001  12.365
33120W        W98380  21.803  33.625  13.314
33121W        W98381  17.527  32.416  14.977
33122W        W98382  41.980  21.143   1.932
33123W        W98383  19.088  44.542   2.636
33124W        W98384  31.008  20.818  12.833
33125W        W98385   2.668  22.111  10.695
33126W        W98386   1.066   6.204   0.280
33127W        W98387  22.513  20.633  12.378
33128W        W98388  13.950  40.887   4.550
33129W        W98389  22.261  31.604  12.550
33130W        W98390  38.797  40.984  13.374
33131W        W98391  29.153  10.465   2.493
33132W        W98392   6.148  24.556  13.469
33133W        W98393  39.987  25.764  13.970
33134W        W98394  30.217  42.222  12.543
33135W        W98395  13.915  14.106  12.086
33136W        W98396  44.432  15.404  11.167
33137W        W98397  10.426  20.455  12.591
33138W        W98398  29.549  29.356   5.031
33139W        W98399   5.228   5.366  13.142
33140W        W98400  38.387  38.730  14.542
33141W        W98401  39.583  34.578   2.495
33142W        W98402  44.098  13.385   4.310
33143W        W98403  27.970   9.265  12.989
33144W        W98404   8.114  12.746   3.916
33145W        W98405   3.858  19.257   1.812
33146W        W98406   8.116  39.988   3.600
33147W        W98407  35.169  34.935   3.888
33148W        W98408   7.195  34.582   2.093
33149W        W98409  38.406  17.524  12.635
33150W        W98410  30.856  19.700  10.714
33151W        W98411  33.887  20.572  11.896
33152W        W98412  20.294  42.545   4.544
33153W        W98413  16.877  16.722  11.641
33154W        W98414  28.118  29.591   1.634
33155W        W98415  29.867  27.036   1.665
33156W        W98416  38.471  31.906   1.216
33157W        W98417  35.410  30.676   1.982
33158W        W98418  21.109  43.624   4.623
33159W        W98419  31.882  38.851  13.481
33160W        W98420  31.993  29.857   3.423
33161W        W98421  36.996  29.463  13.738
33162W        W98422  16.629  31.602  12.004
33163W        W98423   4.254   3.562   0.072
33164W        W98424  18.128  35.663   4.178
33165W        W98425  27.166  34.468   3.812
33166W        W98426   6.882   5.723  12.031
33167W        W98427  18.224  14.569   0.036
33168W        W98428  28.978  16.241  12.404
33169W        W98429  21.195  34.573   1.876
33170W        W98430  10.826  36.660  12.833
33171W        W98431  41.649  40.404  13.319
33172W        W98432  21.868   8.296  13.435
33173W        W98433   5.523  27.781  11.140
33174W        W98434  32.538  29.957   1.689
33175W        W98435   6.922  21.307   1.073
33176W        W98436   3.856  33.008   4.405
33177W        W98437  16.882   3.865   3.828
33178W        W98438  28.089  39.337   0.024
33179W        W98439   4.205  34.979  14.024
33180W        W98440  41.328   1.264   0.255
33181W        W98441  17.783   1.210   4.154
33182W        W98442  39.596  23.135   3.446
33183W        W98443  43.950   8.189  10.552
33184W        W98444  37.397   8.801   0.830
33185W        W98445   3.398  31.074   4.301
33186W        W98446  35.640  29.140   1.117
33187W        W98447  37.454  35.564  11.054
33188W        W98448  32.561  12.672  12.502
33189W        W98449  36.001  25.010   4.145
33190W        W98450   8.922   4.770   4.622
33191W        W98451  23.152  24.740   1.296
33192W        W98452  29.992  19.489   3.090
33193W        W98453   8.278  38.937   1.303
33194W        W98454   1.573   7.196   3.757
33195W        W98455  38.598  12.189  12.999
33196W        W98456  40.473  31.531   1.939
33197W        W98457  17.252  27.535  14.812
33198W        W98458  41.431   6.905   3.723
33199W        W98459   6.736  31.750  13.526
33200W        W98460   6.457  12.335  13.049
33201W        W98461  28.049  10.513  13.603
33202W        W98462  41.239  35.946  12.594
33203W        W98463  27.090  17.658  13.030
33204W        W98464  39.364  44.939  11.350
33205W        W98465  44.300  31.040  12.804
33206W        W98466   4.293  10.115   1.740
33207W        W98467  30.000  20.767  14.589
33208W        W98468  39.419  25.209  13.510
33209W        W98469  22.020  20.059   2.365
33210W        W98470  10.370   8.166  13.886
33211W        W98471  19.199  38.569  11.907
33212W        W98472   7.165  35.518   0.231
33213W        W98473   8.292  38.104   2.226
33214W        W98474  30.563  36.395   2.984
33215W        W98475  40.114  24.191  11.605
33216W        W98476  33.846  18.662   2.544
33217W        W98477  21.799  28.971  14.932
33218W        W98478  28.207  44.089  12.411
33219W        W98479   1.328  33.382   1.476
33220W        W98480  14.117   6.846   0.414
33221W        W98481  36.063  37.185  12.114
33222W        W98482  36.400  31.977  12.549
33223W        W98483  12.721  15.104   4.709
33224W        W98484  35.998  29.450  14.433
33225W        W98485  44.836  12.776  12.217
33226W        W98486  33.380  10.237  14.513
33227W        W98487  16.089  38.184   3.442
33228W        W98488  25.450  25.966  14.620
33229W        W98489   8.499  27.565   0.466
33230W        W98490   2.378  28.626  10.737
33231W        W98491  43.497  41.988   1.157
33232W        W98492  25.036  38.971   1.592
33233W        W98493   5.737  27.528  11.554
33234W        W98494  14.380  11.630  11.095
33235W        W98495  16.640   4.423  11.095
33236W        W98496   1.250   1.334   3.836
33237W        W98497   8.312  30.124   2.256
33238W        W98498  25.787  34.747   2.430
33239W        W98499  21.036  27.598   2.002
33240W        W98500  23.044  44.243   0.421
33241W        W98501  24.216  11.729  11.176
33242W        W98502   7.856   1.722  13.010
33243W        W98503   1.734   5.693   2.837
33244W        W98504  20.583  22.241  10.462
33245W        W98505  35.126   8.252   3.715
33246W        W98506   6.751  17.754   4.729
33247W        W98507  24.804  20.060   2.638
33248W        W98508   2.338   1.672   1.879
33249W        W98509  19.149   9.745   2.642
33250W        W98510  41.475   4.694   4.783
33251W        W98511  27.124  36.480  14.406
33252W        W98512   1.543  34.004   2.255
33253W        W98513  40.526   1.996   2.403
33254W        W98514   5.777  23.125  13.096
33255W        W98515  34.337   8.353   0.925
33256W        W98516  39.771  15.848  12.059
33257W        W98517   7.618  38.821  13.840
33258W        W98518   3.598  14.215  11.939
33259W        W98519   6.931   3.714  12.531
33260W        W98520  27.699   1.305   0.830
33261W        W98521  28.406  35.326  12.994
33262W        W98522  10.388  39.701  10.332
33263W        W98523  13.806  14.125  10.637
33264W        W98524  12.251  26.978   3.145
33265W        W98525  14.388  38.284   3.545
33266W        W98526  11.645  23.006   4.942
33267W        W98527  10.865  36.587  13.340
33268W        W98528   0.390  34.904  13.706
33269W        W98529  39.055  19.760   1.639
33270W        W98530  15.143  28.661   4.341
33271W        W98531   7.920   1.397  12.076
33272W        W98532  44.406   6.799   3.388
33273W        W98533  43.286  42.216   1.812
33274W        W98534  18.462  10.720   2.201
33275W        W98535  22.823  30.546  10.652
33276W        W98536   7.840  43.803   0.716
33277W        W98537  11.698   2.286   3.444
33278W        W98538   3.455   4.664   0.795
33279W        W98539  29.358  16.970   2.864
33280W        W98540   4.696   7.914   3.692
33281W        W98541  11.416  22.003   4.197
33282W        W98542  14.803  29.139  12.894
33283W        W98543  27.177  29.410   1.986
33284W        W98544  44.431  20.129   4.348
33285W        W98545  10.122  38.425   1.251
33286W        W98546  20.140  14.592   4.180
33287W        W98547  19.879   1.133   9.913
33288W        W98548  17.326  18.930  11.129
33289W        W98549  10.763   6.003  10.295
33290W        W98550  30.601   4.154   0.466
33291W        W98551  32.022  42.766   3.623
33292W        W98552  25.084  19.242  11.693
33293W        W98553  13.218   0.710  13.334
33294W        W98554  37.964  19.828   3.619
33295W        W98555  35.398  15.895  11.028
33296W        W98556  33.201  25.557   1.165
33297W        W98557   0.830  41.333   3.715
33298W        W98558  44.048  10.667   3.005
33299W        W98559   4.380  40.919   1.829
33300W        W98560  44.886  17.641   1.865
33301W        W98561  43.183  22.055   0.783
33302W        W98562   8.931   1.724   3.791
33303W        W98563  38.963  17.176  14.901
33304W        W98564  31.179  11.122   1.738
33305W        W98565  43.770  22.964   1.921
33306W        W98566  36.308  25.909  14.360
33307W        W98567  28.451  11.872   1.717
33308W        W98568   6.235  31.842  11.570
33309W        W98569  35.821  24.183  10.662
33310W        W98570  42.116  22.047   1.604
33311W        W98571  25.591  30.949   3.384
33312W        W98572  30.528  35.944  12.135
33313W        W98573  26.220  41.280   3.281
33314W        W98574   2.932  39.030  10.363
33315W        W98575  28.610  42.964   0.282
33316W        W98576  43.487   8.679   2.328
33317W        W98577  21.398  33.130   3.445
33318W        W98578   2.392  42.064  10.603
33319W        W98579   2.562  37.941  11.009
33320W        W98580  42.561  20.073  14.394
33321W        W98581   2.817  26.919   2.600
33322W        W98582  23.462   2.550  10.298
33323W        W98583  17.334  15.109  13.527
33324W        W98584  34.112  15.799  14.417
33325W        W98585  22.845  42.524   1.835
33326W        W98586  13.272   2.792   3.741
33327W        W98587  13.166  23.677  13.414
33328W        W98588  44.339  20.514   4.706
33329W        W98589  24.755  21.963   4.522
33330W        W98590  19.671  25.285  13.012
33331W        W98591  26.388  11.103  14.435
33332W        W98592  11.280   6.172  10.201
33333W        W98593  12.280  39.968  13.108
33334W        W98594  17.247   4.955  11.507
33335W        W98595  20.614  29.957   0.196
33336W        W98596  35.515  33.354  11.435
33337W        W98597  32.502  26.040  12.094
33338W        W98598  11.371  15.757   2.349
33339W        W98599  15.984  31.207  13.539
33340W        W98600  13.203  26.430   0.967
33341W        W98601  15.286  18.531  13.996
33342W        W98602  33.585  29.501  11.358
33343W        W98603  11.671   1.024  12.898
33344W        W98604  14.352  23.824  11.738
33345W        W98605  38.020  12.885  14.217
33346W        W98606  44.402  27.877   1.582
33347W        W98607  12.312  41.033   2.217
33348W        W98608  29.886  44.459   4.567
33349W        W98609  24.657  43.471   1.361
33350W        W98610  15.059   6.935  12.872
33351W        W98611  13.386  14.386  10.807
33352W        W98612  28.132  22.219  13.757
33353W        W98613  23.806  28.115   3.140
33354W        W98614   1.435   9.928   0.290
33355W        W98615  23.535  17.968   1.029
33356W        W98616  41.814   7.824   2.951
33357W        W98617  43.814  38.960  13.279
33358W        W98618  27.022  38.135  12.333
33359W        W98619   7.141  39.019   4.575
33360W        W98620  13.206   0.969  12.029
33361W        W98621  21.024  19.566  12.519
33362W        W98622  23.971  30.601  10.945
33363W        W98623  26.593  41.419  14.245
33364W        W98624  30.140  18.745  14.521
33365W        W98625  18.290  40.064   1.860
33366W        W98626  26.761  22.393   3.280
33367W        W98627  20.705   3.396  11.410
33368W        W98628   6.033  28.146   0.900
33369W        W98629  38.000   3.782   5.171
33370W        W98630  13.412   1.682  14.744
33371W        W98631  15.599   1.385   0.422
33372W        W98632   7.793  33.208   1.883
33373W        W98633  18.146  19.936  12.852
33374W        W98634  19.753  44.991  13.369
33375W        W98635   8.173  34.582  12.987
33376W        W98636  36.867  13.143   0.295
33377W        W98637  27.659  23.530   4.321
33378W        W98638  19.549  23.107   0.845
33379W        W98639  20.501  30.641   1.795
33380W        W98640  12.409  23.720  11.028
33381W        W98641  23.951  16.797   2.978
33382W        W98642  14.312   9.746  12.749
33383W        W98643  32.335  30.905  10.649
33384W        W98644  12.474  40.873  12.197
33385W        W98645   7.650  41.686   1.728
33386W        W98646   3.681  23.141  12.543
33387W        W98647  37.414  34.316   2.704
33388W        W98648  42.225  16.660   4.620
33389W        W98649  18.279   6.686   0.287
33390W        W98650  34.281  19.982   2.777
33391W        W98651  31.122  26.583  10.291
33392W        W98652  35.511  10.689   3.071
33393W        W98653  20.530  37.909   1.138
33394W        W98654   0.799   4.878  12.035
33395W        W98655  29.790  23.462   0.884
33396W        W98656  17.709  39.336  10.617
33397W        W98657  36.373  41.184  10.153
33398W        W98658   8.207  35.092  12.845
33399W        W98659  31.524  42.960   3.790
33400W        W98660  22.743  29.590  10.809
33401W        W98661   0.210  33.579  10.643
33402W        W98662   6.299   4.910   1.155
33403W        W98663  37.969  41.942  13.907
33404W        W98664   3.947  29.140  11.619
33405W        W98665  11.145  40.323   1.384
33406W        W98666  38.972   3.715  12.588
33407W        W98667   7.353  39.570  11.993
33408W        W98668  34.859  37.468   2.658
33409W        W98669   3.212   0.506   2.838
33410W        W98670   2.313  31.404  13.070
33411W        W98671  32.401  28.921   3.654
33412W        W98672  12.074  32.188  12.506
33413W        W98673  27.037  16.266  13.801
33414W        W98674  19.548   9.396   4.618
33415W        W98675   2.456  36.881   3.705
33416W        W98676  28.600   5.417   2.270
33417W        W98677  26.838   7.475   0.482
33418W        W98678   8.900  11.787   2.838
33419W        W98679   1.522  21.380  13.433
33420W        W98680  32.308  39.306   4.160
33421W        W98681   6.377  16.773   2.636
33422W        W98682  15.544  21.088  11.703
33423W        W98683  22.050  22.914  11.667
33424W        W98684  12.261  12.102  13.586
33425W        W98685  18.962  10.002   0.844
33426W        W98686   3.889  42.578  12.928
33427W        W98687  34.828  16.681  11.139
33428W        W98688  40.575   5.640   2.912
33429W        W98689  38.720  30.812  12.506
33430W        W98690  23.193  27.997   2.161
33431W        W98691   0.192   7.271  13.380
33432W        W98692   4.878  30.620  11.875
33433W        W98693   4.759  20.784  14.699
33434W        W98694  27.206  20.065  14.920
33435W        W98695  35.151  32.681  13.217
33436W        W98696  20.043  41.511   2.265
33437W        W98697  22.959  15.983  11.323
33438W        W98698  10.319  13.226   4.813
33439W        W98699  36.409  19.253   4.127
33440W        W98700  32.270   5.205  11.140
33441W        W98701  27.164  25.638   0.404
33442W        W98702   7.929  43.848   0.174
33443W        W98703  38.725  40.138   2.923
33444W        W98704  27.060  32.634   1.039
33445W        W98705   6.928  44.290   0.135
33446W        W98706  11.080  31.635  10.625
33447W        W98707   5.281   5.204  12.647
33448W        W98708  26.211  27.130  12.943
33449W        W98709  39.363   5.932   1.026
33450W        W98710  12.116   2.224   2.736
33451W        W98711  37.023  35.010  11.853
33452W        W98712  18.840  33.005   1.177
33453W        W98713  34.322  21.551  13.682
33454W        W98714  40.939   4.759   1.327
33455W        W98715  37.974  39.853  14.931
33456W        W98716  36.116  38.788  11.225
33457W        W98717  37.839  28.117  14.318
33458W        W98718   1.435  21.609   0.201
33459W        W98719  18.968   4.203  11.809
33460W        W98720  27.274  13.186  11.101
33461W        W98721  16.679   3.711  11.528
33462W        W98722  25.984  34.677  14.196
33463W        W98723  36.812   3.784   3.673
33464W        W98724   1.280  35.494  14.271
33465W        W98725  28.599   4.084  13.506
33466W        W98726  33.114   7.576   2.406
33467W        W98727  19.876  35.001   4.597
33468W        W98728  21.514   7.925  13.588
33469W        W98729  35.323  14.058  11.078
33470W        W98730  28.501  32.594   2.787
33471W        W98731  35.628  39.859   4.396
33472W        W98732  33.573  17.881   2.813
33473W        W98733   8.699  29.580   3.533
33474W        W98734   5.960   5.722  10.686
33475W        W98735  21.565  11.299  13.545
33476W        W98736   1.455  44.348   4.245
33477W        W98737   2.169  43.533   4.209
33478W        W98738  27.483  43.884   1.805
33479W        W98739   3.399  13.348   4.371
33480W        W98740  36.901  28.212  14.490
33481W        W98741  33.086  22.875   2.866
33482W        W98742  39.142  13.072   3.210
33483W        W98743  10.370   9.898   3.114
33484W        W98744  38.529  18.531   0.400
33485W        W98745   4.572   4.231   4.268
33486W        W98746   3.623  14.559  13.064
33487W        W98747  18.146   7.428  12.360
33488W        W98748  34.864   4.259   0.927
33489W        W98749  38.796  32.882   0.381
33490W        W98750  39.581  18.305   2.055
33491W        W98751  40.581  22.455  11.708
33492W        W98752  29.803   4.200  10.783
33493W        W98753  11.481  32.051  14.445
33494W        W98754  26.272  21.177   1.794
33495W        W98755  39.345   2.366   4.451
33496W        W98756   7.331  13.450   0.927
33497W        W98757  23.741  31.794  14.825
33498W        W98758  25.720  42.906  10.334
33499W        W98759  39.556  32.677  10.415
33500W        W98760  17.060  40.304  12.041
33501W        W98761   5.229  23.928   3.717
33502W        W98762  25.541  26.667   2.656
33503W        W98763  43.698  12.230   2.311
33504W        W98764  11.423  25.351   0.563
33505W        W98765   1.885  11.471   3.370
33506W        W98766  44.282   4.903  14.797
33507W        W98767  12.841  26.047  13.947
33508W        W98768  12.162  27.461   3.301
33509W        W98769   5.881  43.182  13.315
33510W        W98770  27.734  13.060  11.222
33511W        W98771  16.671  12.107  11.153
33512W        W98772  29.338  23.235   1.716
33513W        W98773   5.735  21.288  14.731
33514W        W98774   8.274  39.856   4.064
33515W        W98775  36.338  42.043  11.100
33516W        W98776  10.588  26.532  13.631
33517W        W98777  20.486  29.005  13.563
33518W        W98778  35.800  13.026  11.735
33519W        W98779  41.776  31.615   4.636
33520W        W98780  30.684  40.864   0.829
33521W        W98781  21.868  21.759   5.412
33522W        W98782   0.717  33.575  10.695
33523W        W98783  13.172  15.225  11.606
33524W        W98784  10.781  17.590  12.036
33525W        W98785  39.360  31.650  11.598
33526W        W98786  39.043   8.384   1.764
33527W        W98787  15.091   8.860   0.224
33528W        W98788  26.629  15.822  11.747
33529W        W98789  35.483  39.531  10.771
33530W        W98790  13.168   9.152   1.265
33531W        W98791  17.703  13.839  12.049
33532W        W98792  40.379  22.315   2.168
33533W        W98793  33.275  33.408   1.149
33534W        W98794  18.803  28.779  10.949
33535W        W98795   9.042  15.366   2.278
33536W        W98796   8.265   6.337   2.332
33537W        W98797   0.263  22.242   3.729
33538W        W98798   9.899  39.014  11.600
33539W        W98799  38.018  40.747   1.242
33540W        W98800  26.535  13.204   4.348
33541W        W98801  21.109  40.399  13.372
33542W        W98802  37.980  32.362  13.100
33543W        W98803   9.897  44.968  11.536
33544W        W98804  10.391  42.738  12.964
33545W        W98805  20.340  34.313  11.709
33546W        W98806  18.348  11.019  14.030
33547W        W98807   2.859   5.390  13.554
33548W        W98808   0.767  32.849   3.711
33549W        W98809  20.150  22.599   1.207
33550W        W98810  11.577  32.100  12.457
33551W        W98811   3.191   7.664   2.314
33552W        W98812  13.401  43.002  11.209
33553W        W98813  34.949  13.270   2.098
33554W        W98814  26.754  10.417   1.468
33555W        W98815  13.054  11.730   1.871
33556W        W98816  15.270   8.296  14.397
33557W        W98817  16.326  44.033   3.648
33558W        W98818  18.399  37.516   2.471
33559W        W98819  17.296  22.324   0.418
33560W        W98820  25.587   1.239  10.384
33561W        W98821  12.390  26.740   3.791
33562W        W98822  24.957  38.565  12.878
33563W        W98823  24.233  14.436   0.918
33564W        W98824  25.281   6.385   3.342
33565W        W98825  35.479  31.653  11.157
33566W        W98826  14.324   1.984  12.176
33567W        W98827   8.937  20.069   2.233
33568W        W98828  23.475  14.926   3.828
33569W        W98829  35.880   9.240  11.991
33570W        W98830  12.161  19.057   0.714
33571W        W98831  42.012   7.770  14.333
33572W        W98832  17.524  36.415  11.026
33573W        W98833  39.539   2.366  13.834
33574W        W98834  18.585  18.784   1.891
33575W        W98835   2.688  27.511   0.817
33576W        W98836  33.270  33.336   5.209
33577W        W98837   2.955  32.862  11.249
33578W        W98838  39.078  10.710  14.942
33579W        W98839  38.359  34.845   0.449
33580W        W98840  42.490  23.078   3.222
33581W        W98841  17.192  39.082  11.462
33582W        W98842  14.536   1.253   1.201
33583W        W98843  40.455  39.068  11.216
33584W        W98844   2.280  11.412   9.758
33585W        W98845  24.958   0.842   4.806
33586W        W98846  10.808  13.599  12.571
33587W        W98847  21.075  28.161  11.561
33588W        W98848   2.323  36.964  12.450
33589W        W98849  22.765  19.575   1.172
33590W        W98850  38.303  33.789  13.933
33591W        W98851  35.868  21.472   2.550
33592W        W98852  35.829   4.311  13.513
33593W        W98853  41.012   0.319  10.852
33594W        W98854  19.633  11.673   3.364
33595W        W98855  14.813  10.683   2.705
33596W        W98856  32.404  11.851  11.485
33597W        W98857   4.013  20.826  13.333
33598W        W98858  16.993   7.322   2.315
33599W        W98859  42.550   2.355  10.706
33600W        W98860  40.724  20.111   4.683
33601W        W98861   1.739  18.247  14.349
33602W        W98862   6.870  29.790  14.783
33603W        W98863   3.892  25.683  12.027
33604W        W98864  15.327  16.222  12.402
33605W        W98865  31.420  14.561   1.998
33606W        W98866  17.549  10.251   0.935
33607W        W98867   8.026   0.123   1.779
33608W        W98868   3.317  32.338  14.787
33609W        W98869  36.817   0.910   1.127
33610W        W98870  42.552  36.871  11.050
33611W        W98871  32.690  20.046   2.322
33612W        W98872  23.015  35.085   0.671
33613W        W98873  19.155  44.304   1.709
33614W        W98874  27.539  41.844   3.725
33615W        W98875   1.873  36.656   4.946
33616W        W98876  39.207  34.308  11.658
33617W        W98877  14.273  11.494   0.267
33618W        W98878  29.750  15.332  13.286
33619W        W98879  24.006  28.738  11.311
33620W        W98880   4.849  32.147  10.932
33621W        W98881  35.933   4.312   4.128
33622W        W98882  15.798  30.165   2.666
33623W        W98883  32.893   6.489   2.469
33624W        W98884   6.785  34.878  13.957
33625W        W98885  11.321  18.772   1.602
33626W        W98886  16.637  31.434   3.357
33627W        W98887  14.825  40.188  14.943
33628W        W98888  28.057   9.507   1.736
33629W        W98889  13.317   0.852   1.094
33630W        W98890  21.518  21.140   1.394
33631W        W98891  15.826   4.674  11.000
33632W        W98892  38.459  19.115   2.110
33633W        W98893   1.500  39.038  10.728
33634W        W98894  43.894   3.018   1.913
33635W        W98895  27.466  44.938  14.410
33636W        W98896  15.723  39.337  12.495
33637W        W98897   3.956  24.128   4.638
33638W        W98898   1.693  36.708  11.633
33639W        W98899  10.923  34.393   3.203
33640W        W98900  26.222  22.268  12.362
33641W        W98901  14.399  34.112  14.718
33642W        W98902   5.910  36.239  11.262
33643W        W98903  22.026  44.868  10.690
33644W        W98904   7.249  23.155   0.872
33645W        W98905  39.767  16.714   4.114
33646W        W98906  20.629  21.557  14.781
33647W        W98907  12.128  23.702   2.295
33648W        W98908  43.515   8.992  10.667
33649W        W98909   8.418  14.792  10.491
33650W        W98910  14.279  43.033  11.607
33651W        W98911  35.391  24.491   2.880
33652W        W98912   7.289  39.400   2.723
33653W        W98913  15.119   7.446  14.008
33654W        W98914   2.525   7.351   3.520
33655W        W98915  34.176  17.025  13.913
33656W        W98916  23.787  16.153   4.036
33657W        W98917  26.932  36.908  13.241
33658W        W98918   3.382  33.354   1.682
33659W        W98919  44.093  12.091  10.999
33660W        W98920  27.857  41.537  11.132
33661W        W98921   4.950  12.200   3.788
33662W        W98922  15.814  16.848   4.603
33663W        W98923  31.229  16.439  14.332
33664W        W98924  27.712  14.524  13.551
33665W        W98925  40.074   8.973   4.728
33666W        W98926   3.865  13.719  12.947
33667W        W98927  44.037   0.549   0.336
33668W        W98928   0.578  30.260  11.142
33669W        W98929  12.095  37.169  14.184
33670W        W98930  27.957  11.649  14.452
33671W        W98931  10.915  32.363   3.268
33672W        W98932  15.194  24.484   3.162
33673W        W98933   9.947  26.196   0.496
33674W        W98934  41.019  13.926   4.728
33675W        W98935   0.884  31.014   3.545
33676W        W98936  23.048  37.630   3.080
33677W        W98937  20.002  34.047   2.984
33678W        W98938  24.251  29.436  14.880
33679W        W98939  18.410  30.350   5.020
33680W        W98940  14.709  42.526   4.571
33681W        W98941  25.655  44.615   2.641
33682W        W98942   5.746   9.102   0.062
33683W        W98943  15.016   8.363  10.668
33684W        W98944   4.474  28.356  10.278
33685W        W98945  39.927  31.230  14.778
33686W        W98946  15.319   5.269  12.737
33687W        W98947  34.448  35.927  11.647
33688W        W98948  39.582  42.431   4.264
33689W        W98949  42.504  12.947  10.208
33690W        W98950  15.615  41.269  12.804
33691W        W98951  31.861  16.160  14.886
33692W        W98952  11.414  26.593   3.644
33693W        W98953   2.019  43.921  14.086
33694W        W98954  28.622  12.658   0.463
33695W        W98955  22.456   0.508  13.290
33696W        W98956  26.039  44.769  14.084
33697W        W98957  28.171  37.813  13.842
33698W        W98958  28.518  44.775  14.540
33699W        W98959  34.909  18.602   4.248
33700W        W98960  11.643  25.294  13.068
33701W        W98961  25.147  30.626   0.247
33702W        W98962  15.772  39.862  10.213
33703W        W98963  35.618   2.375   0.476
33704W        W98964  41.257  15.226  12.610
33705W        W98965  43.779  17.193   3.267
33706W        W98966  43.994  16.258   3.655
33707W        W98967  40.605  12.255   1.911
33708W        W98968   6.150   7.219  14.908
33709W        W98969  32.038  20.317  12.427
33710W        W98970  28.759  17.838   4.022
33711W        W98971  32.540  15.837  10.701
33712W        W98972  24.553   3.753  10.778
33713W        W98973   8.645  22.101  13.049
33714W        W98974  33.209  35.398   3.625
33715W        W98975  25.721  13.231   4.625
33716W        W98976  26.676  25.162  11.548
33717W        W98977   4.449  14.266  10.698
33718W        W98978  33.127  35.729   2.264
33719W        W98979   9.423  24.327  14.187
33720W        W98980  23.629  41.961  11.327
33721W        W98981  22.532   2.467   2.567
33722W        W98982  16.539  35.002   0.516
33723W        W98983  31.627  22.939  11.062
33724W        W98984  29.541   8.075   1.370
33725W        W98985  24.582   8.614  13.919
33726W        W98986  40.843  34.316  14.509
33727W        W98987  35.716  44.486  14.085
33728W        W98988  37.271  32.412  12.910
33729W        W98989   6.019  25.757   4.551
33730W        W98990  13.616  31.493   3.362
33731W        W98991  33.328  35.188  11.212
33732W        W98992  43.911  35.818  13.901
33733W        W98993  35.036  21.232  11.989
33734W        W98994   3.903  28.139   0.804
33735W        W98995  21.215  38.390  12.600
33736W        W98996  40.783  11.156   1.301
33737W        W98997  25.266  20.922  13.598
33738W        W98998  27.585  38.168   2.944
33739W        W98999  36.592   8.396   3.851
33740W        W99000   5.514  22.713  11.489
33741W        W99001  18.422   5.130   1.254
33742W        W99002  24.066  16.320   2.162
33743W        W99003   7.881  36.365   4.684
33744W        W99004  33.430  40.540   2.944
33745W        W99005  44.787  43.445   3.233
33746W        W99006  21.244  35.910   1.805
33747W        W99007  16.858  17.149   2.394
33748W        W99008   2.755  39.602  14.369
33749W        W99009  44.404  29.407   4.909
33750W        W99010  15.066  39.382  12.085
33751W        W99011  31.676   4.931   0.445
33752W        W99012  15.510  44.883   4.522
33753W        W99013  21.711  25.726   0.916
33754W        W99014  38.427  39.038  11.623
33755W        W99015  19.449  41.483   1.254
33756W        W99016  22.461   7.806  14.548
33757W        W99017  32.758  33.777  12.815
33758W        W99018   2.668  14.506  13.674
33759W        W99019  31.022   3.771  11.517
33760W        W99020  21.077  35.901  13.113
33761W        W99021  44.349  38.414   2.059
33762W        W99022  33.962   6.745  13.452
33763W        W99023  33.337   9.725   1.919
33764W        W99024  44.027  29.933  14.831
33765W        W99025  19.678  31.292   1.939
33766W        W99026  25.182   3.481   3.616
33767W        W99027  28.074  14.231   5.150
33768W        W99028  10.212  15.800   1.780
33769W        W99029   1.788  26.971   2.244
33770W        W99030  24.034  23.270   1.264
33771W        W99031   3.784  21.769  10.757
33772W        W99032  37.172  28.960  11.961
33773W        W99033  18.053  31.943  13.508
33774W        W99034  19.767  29.646  12.232
33775W        W99035   3.983  23.199  13.686
33776W        W99036  22.622  17.149   0.163
33777W        W99037   1.894   7.211   0.477
33778W        W99038  42.583  35.020  14.019
33779W        W99039  42.939  35.920  12.344
33780W        W99040  17.207  32.160   3.110
33781W        W99041  20.144  12.857  12.416
33782W        W99042   9.479  30.006  13.995
33783W        W99043  18.150  37.271  12.875
33784W        W99044  21.866  21.010  14.942
33785W        W99045   6.931  20.102  12.435
33786W        W99046   6.890  30.205  13.003
33787W        W99047  37.495  14.641  11.807
33788W        W99048  31.625  44.909  12.482
33789W        W99049  19.723  35.680  11.206
33790W        W99050  34.126  10.670  12.460
33791W        W99051  19.333  33.055  12.438
33792W        W99052  25.424  44.504  12.512
33793W        W99053  44.862   0.305  11.577
33794W        W99054  23.527  15.119   1.241
33795W        W99055  36.509  18.588  10.527
33796W        W99056  28.997  35.707   2.831
33797W        W99057  34.939   7.241  12.594
33798W        W99058  34.682  37.046  11.967
33799W        W99059  25.931  26.418   2.903
33800W        W99060  16.209  34.941   3.668
33801W        W99061  37.037  27.887   1.971
33802W        W99062   7.814   3.035   0.357
33803W        W99063  18.769  33.694  11.058
33804W        W99064  12.690   3.403  11.618
33805W        W99065  16.068   5.067  12.381
33806W        W99066  12.338  32.628   4.101
33807W        W99067  12.097  26.446  12.485
33808W        W99068   9.716  10.233   1.207
33809W        W99069  25.552   8.169  12.923
33810W        W99070  37.395  28.941   0.169
33811W        W99071  27.721  33.609  11.057
33812W        W99072  20.351  29.509   2.785
33813W        W99073  27.572  28.855   1.738
33814W        W99074  22.764   4.690   2.688
33815W        W99075  14.321  25.395  10.561
33816W        W99076  20.648  23.227   0.560
33817W        W99077  21.076  17.892   2.632
33818W        W99078  12.609   8.893   5.120
33819W        W99079   7.727  36.663  12.973
33820W        W99080  12.101  15.140  13.351
33821W        W99081  14.661  37.953   3.236
33822W        W99082   0.730  41.055  14.511
33823W        W99083  38.743  35.052   3.778
33824W        W99084   3.364  11.409   3.776
33825W        W99085   6.705  41.443  11.148
33826W        W99086  12.182   0.502   1.583
33827W        W99087  21.162  10.414  13.968
33828W        W99088  44.441  26.255   4.214
33829W        W99089  35.648   0.076   4.559
33830W        W99090  41.234  44.904  13.943
33831W        W99091  36.617  16.050   4.073
33832W        W99092  19.074   2.718  11.141
33833W        W99093  43.319  21.582   4.168
33834W        W99094  10.211   1.159   2.353
33835W        W99095  40.547  22.714   0.584
33836W        W99096   0.534  42.512  10.757
33837W        W99097  10.177  44.601   1.953
33838W        W99098  42.910  16.619   4.003
33839W        W99099   1.004  23.504  10.305
33840W        W99100   3.271  23.049  11.060
33841W        W99101  24.245  37.380   1.392
33842W        W99102  37.219  12.029   5.187
33843W        W99103  25.001  44.688  11.619
33844W        W99104   6.369  24.998   0.488
33845W        W99105  26.739  34.533   4.205
33846W        W99106  29.635  23.755   3.590
33847W        W99107   9.590  39.811  13.292
33848W        W99108  26.096   8.453   4.158
33849W        W99109   2.977  34.548  12.342
33850W        W99110  41.438  11.238  11.272
33851W        W99111  17.129  25.419  13.472
33852W        W99112  27.404  38.162  11.975
33853W        W99113  33.266   7.932   3.405
33854W        W99114  10.102  32.947  10.888
33855W        W99115   1.529  14.136  11.052
33856W        W99116  32.217  42.505   1.327
33857W        W99117  36.537   7.728   1.330
33858W        W99118  35.503   6.446   0.080
33859W        W99119   9.368  21.690  11.009
33860W        W99120  34.875  11.704   0.326
33861W        W99121  39.807  26.717  14.008
33862W        W99122   4.631  15.127  12.442
33863W        W99123  31.968  15.802   3.883
33864W        W99124   9.785  27.552   2.290
33865W        W99125  39.135   8.603  14.988
33866W        W99126  15.231  21.055   2.172
33867W        W99127  15.581  44.918   3.994
33868W        W99128  36.687  33.714  13.042
33869W        W99129  27.985  30.101   2.702
33870W        W99130  42.791  36.463  13.576
33871W        W99131   8.096  20.384   2.665
33872W        W99132   3.733  28.073   2.254
33873W        W99133   4.794  18.240  14.495
33874W        W99134   6.065  28.469  10.597
33875W        W99135  33.479  42.088   1.929
33876W        W99136  26.997  15.540  14.400
33877W        W99137   1.021  28.503  10.470
33878W        W99138   7.756  42.281   3.551
33879W        W99139   7.634  43.452  11.108
33880W        W99140   9.706  34.375   5.073
33881W        W99141  15.235  18.674   2.360
33882W        W99142  36.652  18.308   0.102
33883W        W99143   5.676  38.410   3.943
33884W        W99144  19.063  16.177  10.631
33885W        W99145  33.014  16.811   0.904
33886W        W99146  41.004   5.519  14.085
33887W        W99147  32.483  40.438   1.352
33888W        W99148  33.928  10.072  12.576
33889W        W99149  26.370  18.630   0.836
33890W        W99150  33.543  19.556  13.574
33891W        W99151   4.856   9.129  14.863
33892W        W99152  19.757  20.125  13.409
33893W        W99153  29.218  14.780   4.724
33894W        W99154   1.449  22.077  11.086
33895W        W99155  39.065   2.119   2.228
33896W        W99156  11.745  32.310   0.334
33897W        W99157   3.759  13.644  13.912
33898W        W99158  19.314   8.700   1.359
33899W        W99159  37.808  13.058   2.864
33900W        W99160  13.554  33.567   3.045
33901W        W99161  15.579  26.881   1.734
33902W        W99162  41.420  18.494   0.394
33903W        W99163  11.258  43.928  10.710
33904W        W99164   7.529  37.536  14.813
33905W        W99165  31.087  23.193   3.622
33906W        W99166  32.665  13.282   4.591
33907W        W99167   2.296   2.755  13.231
33908W        W99168  12.426  23.049  13.423
33909W        W99169   6.373  40.629  10.358
33910W        W99170  30.982  18.660  14.892
33911W        W99171  29.379   9.411   1.837
33912W        W99172  32.262  16.551   1.078
33913W        W99173   0.247  25.677   0.477
33914W        W99174  38.751  37.561   2.864
33915W        W99175   2.195  31.031  12.069
33916W        W99176  24.024  30.140  11.605
33917W        W99177  44.981   6.450  13.206
33918W        W99178  44.874  32.651   3.346
33919W        W99179  39.917  38.321   2.452
33920W        W99180   0.871  28.135   0.871
33921W        W99181  44.240  20.156  10.977
33922W        W99182  35.007   4.025  12.784
33923W        W99183  26.510   1.473   3.257
33924W        W99184  44.551  21.856  13.038
33925W        W99185  43.268  27.452   0.706
33926W        W99186  13.713  11.257  10.657
33927W        W99187  13.308  37.273  12.180
33928W        W99188  37.730   0.804   2.503
33929W        W99189  21.021  26.654   1.335
33930W        W99190  23.954  39.425   4.457
33931W        W99191  14.447   6.838   1.910
33932W        W99192  34.944  17.365   9.878
33933W        W99193  28.673  27.783   1.810
33934W        W99194   6.968   9.182   1.220
33935W        W99195  25.941  38.426   4.568
33936W        W99196  40.448   7.145  13.366
33937W        W99197   3.033  37.584   1.922
33938W        W99198  42.644  44.019  12.537
33939W        W99199   5.641  43.375  10.595
33940W        W99200  32.474  34.307  14.385
33941W        W99201   9.615  42.346   4.854
33942W        W99202  41.907  27.426  11.676
33943W        W99203  36.756  18.214   0.643
33944W        W99204  30.594   7.015  11.229
33945W        W99205  32.477  29.422  13.507
33946W        W99206  28.603  11.696   3.569
33947W        W99207  29.686  32.569  14.860
33948W        W99208   5.633  43.025   3.807
33949W        W99209  29.492   7.124  10.377
33950W        W99210  11.706  24.290  12.962
33951W        W99211  32.681   4.275   0.537
33952W        W99212  30.915  37.076  14.364
33953W        W99213  20.614  15.277  10.539
33954W        W99214   4.412  30.982  11.274
33955W        W99215  28.904  29.122  14.472
33956W        W99216  36.008  17.479   0.814
33957W        W99217  24.049  44.431  11.895
33958W        W99218  37.367  41.258   0.400
33959W        W99219  42.418  38.088  12.290
33960W        W99220   8.324  20.166  11.618
33961W        W99221  31.901   6.946  12.562
33962W        W99222  43.468  21.658  10.609
33963W        W99223  11.778  31.089   1.822
33964W        W99224   5.457  12.700  11.477
33965W        W99225  10.784  40.055  10.323
33966W        W99226  35.640  24.089   3.199
33967W        W99227   8.266  13.172   4.594
33968W        W99228  39.028  42.427  14.743
33969W        W99229   3.880   3.754   4.922
33970W        W99230  19.975   0.845   0.949
33971W        W99231  14.684  15.418   4.259
33972W        W99232  18.055  29.668  11.555
33973W        W99233  22.812  23.033   0.241
33974W        W99234  24.029  10.619  12.917
33975W        W99235  44.879   8.748   3.697
33976W        W99236  43.335  18.095   4.401
33977W        W99237  24.183  43.770   0.681
33978W        W99238  17.316  26.360   2.962
33979W        W99239   5.505  29.053   2.836
33980W        W99240   8.211  36.905   4.344
33981W        W99241  10.415  17.119  14.616
33982W        W99242  21.163  20.077  10.760
33983W        W99243  25.538  26.725   4.656
33984W        W99244   1.907  29.549  10.539
33985W        W99245  18.347  40.362   2.821
33986W        W99246  12.983  23.722  11.609
33987W        W99247  41.135   7.336   1.321
33988W        W99248  14.109  29.977   1.335
33989W        W99249  42.279   6.252   1.155
33990W        W99250  39.346  11.227   0.413
33991W        W99251  22.287  18.990   1.285
33992W        W99252   4.729  29.714  12.989
33993W        W99253   7.282  20.484  11.139
33994W        W99254   3.252   6.098  13.868
33995W        W99255  28.010  26.774  12.459
33996W        W99256  38.505   3.652   1.186
33997W        W99257  44.793  11.613   0.389
33998W        W99258  20.517   9.864   4.130
33999W        W99259  36.604  29.077  14.363
34000W        W99260  39.013  13.470  12.563
34001W        W99261  30.399   6.141  11.485
34002W        W99262  27.833  26.975   2.815
34003W        W99263  15.157  43.089  11.934
34004W        W99264  38.926  30.893  11.128
34005W        W99265  30.071  10.169   4.740
34006W        W99266   2.269  43.537  11.969
34007W        W99267  34.964   9.424  13.782
34008W        W99268   1.781  20.346   0.721
34009W        W99269   1.397  42.797   0.775
34010W        W99270  16.712   1.311   3.215
34011W        W99271  26.667  33.013   3.646
34012W        W99272  24.116  38.243   2.744
34013W        W99273  25.641  17.370   1.498
34014W        W99274  24.200  29.439   3.261
34015W        W99275  18.550  42.694  14.661
34016W        W99276   6.242  31.598   4.317
34017W        W99277  40.201  10.069   0.426
34018W        W99278  43.609  17.720   0.321
34019W        W99279  24.524  25.614   0.839
34020W        W99280  41.571  43.838   3.786
34021W        W99281   0.356  41.403  12.573
34022W        W99282  30.512  29.423   2.824
34023W        W99283  30.735  36.082   1.851
34024W        W99284   7.432  34.433   1.111
34025W        W99285   3.404   9.324  14.371
34026W        W99286  14.447  14.703  11.660
34027W        W99287  25.471  36.432   5.188
34028W        W99288  29.575  19.559  13.917
34029W        W99289  14.643  19.228  12.039
34030W        W99290  11.879   5.360  14.564
34031W        W99291  17.658  12.037  12.340
34032W        W99292  10.814  25.015   4.096
34033W        W99293  10.997  29.528   2.021
34034W        W99294   5.434  26.613  10.646
34035W        W99295  29.589  13.421   2.919
34036W        W99296  40.856  24.100  12.409
34037W        W99297  24.406   4.682  12.467
34038W        W99298  31.349  39.279  14.069
34039W        W99299  31.583   7.660   1.902
34040W        W99300  36.814  21.772  11.983
34041W        W99301   1.961  12.633   5.078
34042W        W99302  17.786  43.965   2.777
34043W        W99303  13.899  42.935   3.155
34044W        W99304   1.245  19.549   4.988
34045W        W99305  16.033  25.894  13.513
34046W        W99306  41.003  37.902  14.525
34047W        W99307  15.245  32.057   1.371
34048W        W99308  18.926  16.533  11.093
34049W        W99309  36.823  40.680  12.884
34050W        W99310  16.616  33.890   1.396
34051W        W99311   9.572  12.917   0.863
34052W        W99312  25.087   9.607   4.556
34053W        W99313  43.083  16.080   0.803
34054W        W99314  42.370  40.008   3.314
34055W        W99315   2.072  21.697  12.150
34056W        W99316  31.932  19.547   3.236
34057W        W99317   5.305   4.387   2.113
34058W        W99318   2.925  16.415   0.397
34059W        W99319  30.508  29.478   0.723
34060W        W99320  28.199  37.270  12.913
34061W        W99321   0.492  40.402  13.888
34062W        W99322   9.642  31.082   4.697
34063W        W99323  31.894  26.176   1.970
34064W        W99324  19.041  31.131  14.592
34065W        W99325  33.517   2.785   1.977
34066W        W99326   5.215   8.193  12.497
34067W        W99327  42.448  37.050  10.551
34068W        W99328  26.652  12.835   2.438
34069W        W99329  40.817  39.659   2.884
34070W        W99330  24.078  24.236  13.873
34071W        W99331  44.999  39.408   0.793
34072W        W99332  40.443  41.664  12.015
34073W        W99333  12.819  22.202  14.244
34074W        W99334   2.710   2.836  14.736
34075W        W99335   4.705  27.707  11.606
34076W        W99336  38.927  41.413   4.415
34077W        W99337  15.579  13.840  13.851
34078W        W99338  44.331  19.025  13.515
34079W        W99339  25.166  23.084   1.525
34080W        W99340  11.496   8.657   2.778
34081W        W99341  22.092   6.001   3.196
34082W        W99342  41.115  13.633   2.791
34083W        W99343  16.820  38.698   2.305
34084W        W99344  31.923  29.564   0.665
34085W        W99345  12.293  32.495   1.443
34086W        W99346  40.787  37.098   3.354
34087W        W99347  31.859   1.630   1.876
34088W        W99348   9.082  19.281   3.191
34089W        W99349  43.932  23.055   4.162
34090W        W99350   8.032  31.157  13.190
34091W        W99351   4.448  42.762  11.049
34092W        W99352  12.120  34.845  12.028
34093W        W99353   7.181  13.558  13.959
34094W        W99354  36.140   4.978  11.671
34095W        W99355   8.056  29.691   2.316
34096W        W99356   6.894   7.178  12.925
34097W        W99357  13.574   1.519  12.421
34098W        W99358   0.078  39.919   0.784
34099W        W99359  41.884   6.981  12.470
34100W        W99360  39.252  17.531  12.544
34101W        W99361  39.194   4.366  13.612
34102W        W99362  23.420  34.575   2.295
34103W        W99363   5.278   5.064  11.568
34104W        W99364  40.823  37.316  10.103
34105W        W99365  42.717  44.527  12.449
34106W        W99366  16.257  13.873   2.652
34107W        W99367  33.328  19.590  11.017
34108W        W99368  11.901  29.535   2.351
34109W        W99369   2.836  37.434  11.372
34110W        W99370  30.908  10.275  13.342
34111W        W99371  21.663   4.669   3.556
34112W        W99372  18.093  20.691   3.510
34113W        W99373  39.549  19.255   4.539
34114W        W99374  20.764  42.955  11.343
34115W        W99375  37.067  39.788  11.808
34116W        W99376  22.636  43.366   0.854
34117W        W99377  24.498  22.362   3.662
34118W        W99378   9.859  40.809   0.228
34119W        W99379  18.602  26.416  11.909
34120W        W99380  25.953  31.075  13.887
34121W        W99381  18.210   9.191   4.426
34122W        W99382  11.127   1.554  12.457
34123W        W99383  31.829  41.815   0.835
34124W        W99384  40.639  36.351  14.514
34125W        W99385   9.012  27.207   2.521
34126W        W99386  13.236  13.490   2.403
34127W        W99387  27.466  37.342  12.592
34128W        W99388  23.443  17.676   4.083
34129W        W99389  19.733  44.004  13.984
34130W        W99390  23.207  15.654   3.324
34131W        W99391  27.630  29.338  10.990
34132W        W99392  22.016   7.149  12.981
34133W        W99393   5.364  41.731   1.437
34134W        W99394  43.447  26.978  11.660
34135W        W99395  44.245  33.404  14.505
34136W        W99396  40.276  32.067  14.329
34137W        W99397   5.218  19.762   2.702
34138W        W99398   1.292   1.755   1.786
34139W        W99399  31.951  43.426  11.999
34140W        W99400  25.230  42.401  10.770
34141W        W99401  42.580  12.367  13.814
34142W        W99402  15.035  29.840   2.921
34143W        W99403  36.561   2.207   0.930
34144W        W99404  12.780  35.408   3.219
34145W        W99405  32.915  38.902   0.177
34146W        W99406  18.775  31.500  12.871
34147W        W99407   5.339  12.390   5.041
34148W        W99408  19.187  12.718  11.569
34149W        W99409  23.227  20.646  13.032
34150W        W99410  21.714   8.689  13.961
34151W        W99411  11.743  14.099   0.720
34152W        W99412  29.371   7.823  11.023
34153W        W99413  44.712   6.413  11.817
34154W        W99414  28.685   7.693   2.000
34155W        W99415  25.625  31.027  12.386
34156W        W99416  20.296  12.677  11.497
34157W        W99417  29.462  44.951  12.442
34158W        W99418  22.069   0.814   1.587
34159W        W99419  22.702  24.161   0.026
34160W        W99420   6.735  21.980   1.383
34161W        W99421  32.891  34.092   3.999
34162W        W99422  30.191  14.018   0.995
34163W        W99423  34.946  27.383  13.370
34164W        W99424  22.052  17.291  11.910
34165W        W99425  33.339  22.572   1.630
34166W        W99426  32.356   4.219   1.827
34167W        W99427  23.254   6.801  14.383
34168W        W99428   5.557  37.054  10.826
34169W        W99429  30.111   8.209   4.046
34170W        W99430  34.192  32.306  13.796
34171W        W99431  40.576  21.037  13.090
34172W        W99432   9.845  25.694   5.107
34173W        W99433  28.705   9.872  11.286
34174W        W99434   4.277   9.865   3.065
34175W        W99435  21.102  33.345  11.034
34176W        W99436   1.355  32.182   2.810
34177W        W99437   3.803  26.732   5.119
34178W        W99438   0.260  33.823  14.366
34179W        W99439  28.677  21.384  14.008
34180W        W99440  18.012  33.607   1.716
34181W        W99441  23.735  38.620  14.470
34182W        W99442  22.528  11.133   1.882
34183W        W99443  32.959  23.643  10.580
34184W        W99444   7.996  27.721  10.331
34185W        W99445  13.521   5.972   2.746
34186W        W99446  14.264  17.146   3.182
34187W        W99447  13.538  36.442  10.700
34188W        W99448  26.492  13.175  11.508
34189W        W99449  34.631  27.119   1.257
34190W        W99450   7.457  44.899  11.196
34191W        W99451  33.528  11.372  12.647
34192W        W99452  22.549  20.026   1.335
34193W        W99453  44.033   9.601  12.608
34194W        W99454  26.050  34.846   4.663
34195W        W99455  17.229   2.974   2.865
34196W        W99456   2.802  32.075   1.933
34197W        W99457  18.845  11.128  13.911
34198W        W99458  41.466  36.451   4.549
34199W        W99459  40.209  19.533   1.410
34200W        W99460  42.664  36.420   2.689
34201W        W99461  40.845  41.229   2.026
34202W        W99462   8.808  37.639   0.894
34203W        W99463  10.216  29.897   4.890
34204W        W99464  41.927   6.232   0.197
34205W        W99465   2.950  38.420  13.889
34206W        W99466   6.729  41.878  13.329
34207W        W99467   5.251  18.418  14.668
34208W        W99468  12.492  18.510   4.604
34209W        W99469  24.808   0.049   1.310
34210W        W99470  35.337  21.816  14.900
34211W        W99471  15.282   7.179   1.862
34212W        W99472  42.542  36.403  14.825
34213W        W99473  36.389   7.851  14.006
34214W        W99474  42.773   2.534  11.143
34215W        W99475   2.728  32.101  14.811
34216W        W99476   5.896  15.635   3.827
34217W        W99477  25.169  35.521   3.073
34218W        W99478  37.801  29.928   3.694
34219W        W99479  36.510  19.296  12.781
34220W        W99480   5.747  41.087  11.333
34221W        W99481  35.436   0.348   0.888
34222W        W99482   8.889  44.722   0.690
34223W        W99483  21.714   8.103   2.599
34224W        W99484  31.972  19.022   3.142
34225W        W99485  30.912  17.151  11.605
34226W        W99486   3.769  33.995   0.097
34227W        W99487  10.201  14.285  10.560
34228W        W99488  30.862  39.758  13.955
34229W        W99489  43.749  35.847   3.274
34230W        W99490  27.046  26.407   1.747
34231W        W99491  16.282  20.076   2.178
34232W        W99492  31.050  23.396  12.647
34233W        W99493   1.779  35.166   1.350
34234W        W99494  12.294   4.699   4.083
34235W        W99495  41.943  32.839  13.984
34236W        W99496  13.101  18.091  13.790
34237W        W99497  15.262  44.003  12.146
34238W        W99498  37.640   0.388  12.518
34239W        W99499  29.007  38.132   4.305
34240W        W99500  26.356  39.143   0.730
34241W        W99501   9.773   1.658   0.461
34242W        W99502  14.858  28.304  12.222
34243W        W99503  27.058  38.953  10.196
34244W        W99504  21.607   8.713   0.897
34245W        W99505  25.452   3.931   4.987
34246W        W99506  18.243  10.255  11.835
34247W        W99507  35.323  15.113  12.960
34248W        W99508  39.800  32.827  13.123
34249W        W99509  43.014  27.115  12.928
34250W        W99510   4.955   7.729   2.852
34251W        W99511   2.419   4.371   4.882
34252W        W99512  19.358  39.567  12.777
34253W        W99513  36.406  36.036   3.680
34254W        W99514  12.778   3.690  14.041
34255W        W99515  22.473  11.800   1.292
34256W        W99516  15.142  11.606  12.191
34257W        W99517   2.090  14.838  11.526
34258W        W99518  33.294  42.301  14.881
34259W        W99519  44.329   5.604  11.140
34260W        W99520  20.415   5.755  14.946
34261W        W99521   8.445  21.218   1.819
34262W        W99522  17.234  41.537   2.250
34263W        W99523  26.693  33.652   4.398
34264W        W99524  38.486  16.459  11.875
34265W        W99525  43.136   8.885   1.412
34266W        W99526  43.018  15.816   0.349
34267W        W99527  34.461  34.773  11.536
34268W        W99528  42.985  14.213  13.422
34269W        W99529  41.957  35.917  10.380
34270W        W99530  40.948   2.560   4.098
34271W        W99531  31.477  21.713   1.351
34272W        W99532   3.760   0.830  13.835
34273W        W99533  36.164   2.502   4.578
34274W        W99534  23.658  40.918  11.487
34275W        W99535  10.429  34.354  12.507
34276W        W99536  20.206   8.145  11.969
34277W        W99537   9.201   7.217   9.862
34278W        W99538  22.227   2.812  10.477
34279W        W99539   0.201  28.137  12.448
34280W        W99540  10.579   0.887  14.919
34281W        W99541   7.449   5.783   4.691
34282W        W99542  37.127  21.189  13.303
34283W        W99543   6.388  34.061  12.697
34284W        W99544  27.783  15.493  13.374
34285W        W99545  22.058  23.912   4.745
34286W        W99546   7.505   0.418  13.381
34287W        W99547  28.917   8.406  12.964
34288W        W99548  22.696   2.847  10.252
34289W        W99549  19.548  18.776   3.649
34290W        W99550  31.435  18.103  13.495
34291W        W99551  42.651  14.907  14.668
34292W        W99552  17.033  43.042  11.225
34293W        W99553  44.969  44.967  12.399
34294W        W99554  31.855  15.326  11.174
34295W        W99555   5.096  22.630   1.660
34296W        W99556   5.777  35.160  10.601
34297W        W99557   1.856   7.814  13.033
34298W        W99558  21.511  30.200   3.265
34299W        W99559  11.864  26.002  10.175
34300W        W99560   3.703   7.120  14.795
34301W        W99561  16.629  37.858   1.946
34302W        W99562  23.512   5.446  14.411
34303W        W99563  26.959  22.978  13.763
34304W        W99564  38.815   5.822  12.929
34305W        W99565  20.532  32.166  10.490
34306W        W99566  14.262  27.539  11.101
34307W        W99567  43.852  16.289   1.779
34308W        W99568   6.891  28.186   3.180
34309W        W99569  34.341  38.246   0.583
34310W        W99570  29.086  42.709  13.028
34311W        W99571  28.103  21.781   0.693
34312W        W99572   3.438  12.176   2.774
34313W        W99573  35.421   8.648   1.355
34314W        W99574  32.614  16.063   3.113
34315W        W99575  28.466  11.399   0.155
34316W        W99576  15.045  30.843  13.370
34317W        W99577  19.324  17.973   1.896
34318W        W99578   3.158  30.572  14.060
34319W        W99579  20.684  30.485  14.756
34320W        W99580  39.233  25.157   2.431
34321W        W99581  19.154   7.432   0.838
34322W        W99582   9.345  42.435  13.939
34323W        W99583  26.968  41.886  12.599
34324W        W99584  32.656  22.179  14.761
34325W        W99585  33.050   2.517   4.320
34326W        W99586  43.670  25.136  14.761
34327W        W99587  36.166  28.453  10.647
34328W        W99588  44.287   8.890  12.450
34329W        W99589  27.149  39.409  13.007
34330W        W99590  17.486   2.385   1.280
34331W        W99591  13.611  18.691  14.957
34332W        W99592  11.554  14.323   1.904
34333W        W99593  44.035   5.791  14.766
34334W        W99594   3.955  17.986   4.667
34335W        W99595   6.016  35.337  13.405
34336W        W99596  19.073  32.448   2.410
34337W        W99597  32.884  34.167   1.939
34338W        W99598  39.830  21.735  10.753
34339W        W99599   0.539  13.606   4.753
34340W        W99600  35.846   0.299   3.664
34341W        W99601  16.551  40.192  11.965
34342W        W99602  12.815  44.401   3.207
34343W        W99603  36.317  12.714  14.875
34344W        W99604  28.050  26.506   1.851
34345W        W99605  32.567  10.761   4.694
34346W        W99606  25.233  10.117  10.500
34347W        W99607  11.620  43.750  11.780
34348W        W99608  31.310  15.762  11.863
34349W        W99609   0.542  35.610  11.145
34350W        W99610  42.186  38.541   4.556
34351W        W99611  36.112  42.915   1.805
34352W        W99612   4.614   0.459  10.653
34353W        W99613  19.729  14.561   0.931
34354W        W99614   7.391  33.018   2.666
34355W        W99615  37.085  38.882   1.655
34356W        W99616  16.270   2.787   0.620
34357W        W99617  24.941   8.808   5.048
34358W        W99618  33.809  44.749  11.561
34359W        W99619  29.200  31.925  10.881
34360W        W99620  15.851  28.742   3.715
34361W        W99621  37.587  40.829   3.431
34362W        W99622  44.528  36.512   1.201
34363W        W99623  29.629  28.761  11.742
34364W        W99624   6.212  37.628   2.798
34365W        W99625  17.506  29.119   1.245
34366W        W99626  41.361  33.724  12.296
34367W        W99627  34.664  39.028  14.090
34368W        W99628   0.693  26.198   0.759
34369W        W99629  39.583   1.739   2.640
34370W        W99630   1.844  12.155  13.797
34371W        W99631  22.036  30.344  11.194
34372W        W99632  12.610  14.240   1.477
34373W        W99633  12.673  18.221  12.854
34374W        W99634   2.161  24.145   2.730
34375W        W99635  36.446   8.922  13.033
34376W        W99636  27.158  11.392   0.901
34377W        W99637   6.148   3.549  11.129
34378W        W99638  18.202  40.816   3.080
34379W        W99639  34.151  30.744   0.378
34380W        W99640  20.789   3.934  13.513
34381W        W99641  19.534  21.675   0.431
34382W        W99642   9.282  39.365  14.037
34383W        W99643   4.356  17.053   3.110
34384W        W99644  35.043  44.695   3.945
34385W        W99645  18.279  33.529  12.888
34386W        W99646  41.514  41.774   1.547
34387W        W99647  38.570  30.210  14.783
34388W        W99648  44.477  42.272  12.018
34389W        W99649  21.997  19.680  14.802
34390W        W99650  37.916  13.858   3.258
34391W        W99651  10.197  20.643   2.143
34392W        W99652  17.148  10.316   1.328
34393W        W99653  28.149  36.094   1.824
34394W        W99654   6.250  21.460  14.834
34395W        W99655  29.466  13.795   4.913
34396W        W99656  34.974  14.104  11.488
34397W        W99657  34.236  21.351   3.244
34398W        W99658  20.744  28.481   0.335
34399W        W99659  10.391  38.902   5.227
34400W        W99660   2.213  23.314   1.697
34401W        W99661  33.922  12.446  13.073
34402W        W99662   3.229   2.172  12.411
34403W        W99663  33.029   7.705  13.387
34404W        W99664  38.824  13.932  12.408
34405W        W99665  44.525  22.308  10.989
34406W        W99666   5.282  11.677   3.623
34407W        W99667  35.593  14.550   0.255
34408W        W99668  16.427  44.256  14.316
34409W        W99669  21.571   2.225   0.941
34410W        W99670  24.061  34.582   4.329
34411W        W99671  18.640  43.194   4.583
34412W        W99672  25.199  32.608   4.250
34413W        W99673  22.242   8.427   3.374
34414W        W99674   9.789  30.313   4.197
34415W        W99675  16.566  24.106   3.185
34416W        W99676  30.186   5.158   0.277
34417W        W99677  32.119   8.885  11.080
34418W        W99678  15.236   1.524   4.103
34419W        W99679   0.666  29.240   3.787
34420W        W99680  14.870  34.364   0.927
34421W        W99681  40.676  39.445   1.327
34422W        W99682  17.297  18.069  12.142
34423W        W99683  16.348   0.389   1.737
34424W        W99684  37.415   9.778   2.319
34425W        W99685  17.775   8.904   2.333
34426W        W99686  37.462  19.874  11.042
34427W        W99687  35.666  15.557  12.787
34428W        W99688  44.355  18.811   2.824
34429W        W99689  16.255  36.389  11.947
34430W        W99690  43.771  38.681  12.639
34431W        W99691  29.212  27.078   0.018
34432W        W99692  38.091  36.379   4.525
34433W        W99693   0.867  15.223  12.093
34434W        W99694   6.369   3.477   4.531
34435W        W99695  39.029  44.544  11.158
34436W        W99696  36.407  21.300  10.897
34437W        W99697  39.842  26.539  10.750
34438W        W99698  39.425   4.148   4.012
34439W        W99699   0.360  44.782  12.111
34440W        W99700  15.398  19.279  11.406
34441W        W99701  36.604  39.854  13.559
34442W        W99702  44.485   0.332   1.458
34443W        W99703  33.636  44.616  11.072
34444W        W99704  17.234  41.968  11.757
34445W        W99705   2.652  21.657   3.410
34446W        W99706   1.751   1.382   3.809
34447W        W99707  25.592  34.374  14.023
34448W        W99708  40.927  32.861   1.420
34449W        W99709  19.576  26.542  10.924
34450W        W99710   7.198  21.005   5.082
34451W        W99711   5.758  12.637  13.939
34452W        W99712  25.281  17.268   2.261
34453W        W99713  36.078  31.152  13.535
34454W        W99714  23.790  15.630   4.049
34455W        W99715  33.973  17.602   0.087
34456W        W99716  23.990   2.256  11.072
34457W        W99717   2.888  16.015  14.369
34458W        W99718   2.813  35.061   4.485
34459W        W99719   1.395  14.321  11.954
34460W        W99720  14.650  15.132   0.681
34461W        W99721  14.227  33.097  12.921
34462W        W99722   8.731  25.454   4.092
34463W        W99723   0.096  13.672  14.847
34464W        W99724  11.053  24.478  14.015
34465W        W99725  17.599   8.329  14.575
34466W        W99726  39.331  14.764   4.126
34467W        W99727  28.939  25.153  12.176
34468W        W99728   4.710   3.208   4.264
34469W        W99729  28.114   6.434   0.400
34470W        W99730  32.130  41.395   0.949
34471W        W99731  23.215  21.959   2.611
34472W        W99732  31.126   0.668  13.817
34473W        W99733  12.540  43.558  11.031
34474W        W99734   1.214  41.372  12.416
34475W        W99735  28.515  19.080   3.700
34476W        W99736   6.248  20.735   2.590
34477W        W99737  40.338   0.778  14.873
34478W        W99738  28.189  20.508  13.056
34479W        W99739  17.740  44.706  11.923
34480W        W99740   4.160  32.388  14.706
34481W        W99741   2.838  38.022  12.976
34482W        W99742   7.197   5.663  14.437
34483W        W99743   5.245   8.751  13.900
34484W        W99744  10.301   5.893   0.010
34485W        W99745  35.391  32.879  12.809
34486W        W99746   7.610  25.340  13.391
34487W        W99747  23.700   6.981  12.152
34488W        W99748  24.191  12.908   1.883
34489W        W99749  12.551  15.755   1.828
34490W        W99750   4.028  34.922   4.547
34491W        W99751  27.785   2.840   2.757
34492W        W99752  35.877  24.485   0.382
34493W        W99753  13.893   6.973  14.456
34494W        W99754   7.121  28.107   3.695
34495W        W99755   2.713   9.950   9.877
34496W        W99756   6.476   9.603  14.093
34497W        W99757  43.686   3.787   3.668
34498W        W99758  11.690  14.105  12.309
34499W        W99759  25.638  12.759   3.809
34500W        W99760  22.771  14.109   0.724
34501W        W99761  41.307  30.488   3.586
34502W        W99762   3.484   9.844  11.523
34503W        W99763  10.943   1.195   3.086
34504W        W99764  22.670  25.948   2.255
34505W        W99765  30.258  33.609  11.955
34506W        W99766  19.128  21.479  13.800
34507W        W99767  37.902   6.823  10.900
34508W        W99768  28.547  32.078   2.692
34509W        W99769  22.569  25.054   9.989
34510W        W99770  13.049  10.625  14.465
34511W        W99771  23.721  44.810   4.560
34512W        W99772  30.084  11.200   2.910
34513W        W99773  25.063  28.208   1.934
34514W        W99774   8.419  11.340   0.766
34515W        W99775  23.246  44.008   0.963
34516W        W99776   9.361  22.550  11.658
34517W        W99777  25.991  39.507  11.918
34518W        W99778  22.726  34.574   4.984
34519W        W99779  33.620  16.099   1.976
34520W        W99780  28.753  26.985  11.455
34521W        W99781  18.542  17.724  14.020
34522W        W99782  39.823  33.415   3.446
34523W        W99783  39.624  10.546   2.537
34524W        W99784  26.684  34.649   3.651
34525W        W99785  10.605  12.758   1.175
34526W        W99786  16.038   6.262  11.929
34527W        W99787  37.161  39.797   1.273
34528W        W99788  27.398  29.582  14.493
34529W        W99789   1.219  34.625  11.216
34530W        W99790  18.534  11.118   1.361
34531W        W99791   1.554  44.401   2.325
34532W        W99792  26.474  44.560  12.435
34533W        W99793  29.430  19.214  11.905
34534W        W99794  26.600   5.712  12.980
34535W        W99795  41.853   1.397   3.424
34536W        W99796  12.430  26.706  12.190
34537W        W99797   0.463  16.652   2.769
34538W        W99798   1.737  22.037  11.516
34539W        W99799  27.106  30.110   0.742
34540W        W99800   5.675   6.282  10.699
34541W        W99801  14.682  17.672  11.932
34542W        W99802   7.087   2.678   4.765
34543W        W99803  14.666  31.486  11.678
34544W        W99804  42.042  23.662  11.733
34545W        W99805  37.406  24.355   2.604
34546W        W99806  10.138  18.196  11.067
34547W        W99807   4.355  42.797   1.030
34548W        W99808  13.192  14.497   0.394
34549W        W99809  12.597  32.641  13.962
34550W        W99810  21.021  23.477   4.116
34551W        W99811  43.010  13.832  11.234
34552W        W99812  31.128   0.678   4.825
34553W        W99813  16.662  35.623  14.390
34554W        W99814  35.049  42.308  12.077
34555W        W99815  40.332  11.540   9.839
34556W        W99816  17.748  42.911  13.546
34557W        W99817   3.160   9.618  14.000
34558W        W99818  38.975  13.284  10.287
34559W        W99819  41.324   9.763  10.291
34560W        W99820  22.834   8.259   1.288
34561W        W99821  26.212  24.649  11.238
34562W        W99822  42.281  33.299   3.363
34563W        W99823   5.737   0.187  13.856
34564W        W99824  30.295   8.728  11.049
34565W        W99825  32.154   2.018   4.093
34566W        W99826  11.267   9.301  13.586
34567W        W99827  21.699  18.030   2.140
34568W        W99828  28.368  24.038  14.993
34569W        W99829   1.510  15.612  13.905
34570W        W99830  22.208  29.031  11.423
34571W        W99831  40.530  10.595  13.335
34572W        W99832  29.596  26.568   1.698
34573W        W99833  32.959  41.014   0.936
34574W        W99834  19.676  12.573  14.651
34575W        W99835  40.387  42.035   2.265
34576W        W99836  31.769  19.624  13.063
34577W        W99837  43.110  44.804   4.679
34578W        W99838  10.889  19.976   3.316
34579W        W99839  44.475  36.690  11.961
34580W        W99840  44.259  42.542   2.542
34581W        W99841   8.949  33.430   0.397
34582W        W99842   8.852  39.134   0.764
34583W        W99843   6.379  36.539   2.275
34584W        W99844  19.244   8.779   2.677
34585W        W99845  27.459  13.287   4.221
34586W        W99846   7.192   4.650  13.518
34587W        W99847  22.582   6.474  12.564
34588W        W99848  10.820   4.860   2.024
34589W        W99849  34.779  22.789  11.144
34590W        W99850  16.186  18.908  12.002
34591W        W99851  37.035   8.214   3.071
34592W        W99852   0.337  19.454  12.677
34593W        W99853  30.595  19.282   4.044
34594W        W99854  28.134  17.117  11.833
34595W        W99855  13.599  19.621  13.922
34596W        W99856   3.500  12.157  14.033
34597W        W99857  25.956   7.979   3.233
34598W        W99858   2.062   4.833  12.513
34599W        W99859  44.624  40.139   4.529
34600W        W99860  30.825  30.673  12.231
34601W        W99861  32.498   0.992   4.790
34602W        W99862  19.370  39.449  13.715
34603W        W99863   2.478  20.405  11.085
34604W        W99864  10.669  42.614   5.005
34605W        W99865  31.108  41.690  11.031
34606W        W99866   4.340  31.582  14.901
34607W        W99867  40.174  17.526  14.567
34608W        W99868   6.965  42.440   2.400
34609W        W99869  25.492  27.039  14.339
34610W        W99870  36.464  27.146   4.665
34611W        W99871   6.330  32.958   2.650
34612W        W99872  12.144  14.831   4.093
34613W        W99873   3.476  11.652   0.171
34614W        W99874  44.955  10.143  13.522
34615W        W99875  40.273  40.206  13.068
34616W        W99876  43.499  10.337  14.834
34617W        W99877  27.998  15.344  10.886
34618W        W99878  23.992  15.230   4.934
34619W        W99879  10.591   8.165   2.206
34620W        W99880  43.694   7.076  14.915
34621W        W99881   6.409  13.284   1.897
34622W        W99882   3.017   5.340   0.419
34623W        W99883  23.413  27.861   0.027
34624W        W99884   1.864  24.999   1.754
34625W        W99885  26.428  42.881  13.885
34626W        W99886  27.420   9.156   2.289
34627W        W99887  31.682  27.821   4.272
34628W        W99888   0.277  30.608  14.430
34629W        W99889  44.825  24.146  14.777
34630W        W99890  11.188  24.490   0.411
34631W        W99891  12.249  16.707   4.175
34632W        W99892  35.401  12.734   1.856
34633W        W99893  23.728  42.045   2.229
34634W        W99894  39.831   4.352   0.274
34635W        W99895  36.037  15.981  12.030
34636W        W99896  24.373  39.807  14.472
34637W        W99897  30.526   4.665  11.211
34638W        W99898  14.790  41.736   1.475
34639W        W99899   4.250   5.906  13.909
34640W        W99900   8.009  36.886   0.362
34641W        W99901  31.636   2.710   2.696
34642W        W99902   4.409  32.962  13.897
34643W        W99903  40.943  12.212   0.241
34644W        W99904  17.713   7.646   3.258
34645W        W99905  19.171   9.315  10.355
34646W        W99906  43.011  19.268   2.166
34647W        W99907  17.629  11.334  12.911
34648W        W99908  14.288   7.677   0.842
34649W        W99909  21.729  22.747  12.960
34650W        W99910  38.525  21.547  11.552
34651W        W99911  13.386  40.805  13.048
34652W        W99912  13.443  11.261  11.101
34653W        W99913  35.373  21.894   1.250
34654W        W99914   2.793  39.969  10.432
34655W        W99915  42.368   1.666  11.368
34656W        W99916  30.607  16.222   0.569
34657W        W99917   0.542  34.059  13.980
34658W        W99918   2.304  26.309  12.070
34659W        W99919   3.140  32.495   1.292
34660W        W99920  17.356  37.782  11.994
34661W        W99921   4.461  28.972   4.008
34662W        W99922  21.221   4.736  12.855
34663W        W99923  44.666  10.138  11.562
34664W        W99924  10.218  42.230  12.965
34665W        W99925   7.284  16.728  13.564
34666W        W99926  17.762  41.846   3.402
34667W        W99927  33.627  41.728   3.141
34668W        W99928  18.335  24.712   2.121
34669W        W99929  29.467  10.907   3.097
34670W        W99930   4.325  40.219   0.491
34671W        W99931  40.576  36.582  14.952
34672W        W99932  34.344  19.222   3.890
34673W        W99933  25.724  34.258  14.967
34674W        W99934   9.446  21.597   2.657
34675W        W99935   3.220  17.520   3.631
34676W        W99936  31.879   5.132  14.999
34677W        W99937   8.859  36.170   3.704
34678W        W99938  42.963  43.272  13.941
34679W        W99939  19.126  35.119   0.840
34680W        W99940  27.952   4.233   2.055
34681W        W99941  32.166   0.106   1.818
34682W        W99942   1.790   0.152  14.808
34683W        W99943  38.720  38.972   2.147
34684W        W99944  35.067   3.500  13.491
34685W        W99945  20.975   8.433   2.930
34686W        W99946  29.052  34.051   4.673
34687W        W99947  23.833  19.919  10.506
34688W        W99948  36.082  24.144  12.032
34689W        W99949  35.045  41.395   3.865
34690W        W99950   2.504  41.792  11.540
34691W        W99951  43.825  38.484   0.739
34692W        W99952  33.233  20.595   3.179
34693W        W99953  39.517  29.043  12.335
34694W        W99954  36.773   1.928   2.649
34695W        W99955  29.135  24.149   1.242
34696W        W99956  30.365   9.024  10.633
34697W        W99957  18.671  34.417   0.796
34698W        W99958  11.746   2.994   4.545
34699W        W99959  42.485   2.985   0.793
34700W        W99960  18.507   9.776   0.820
34701W        W99961   6.357   4.403  14.461
34702W        W99962  11.141  20.095  11.856
34703W        W99963  33.704  15.688  13.382
34704W        W99964  22.251  27.659  13.097
34705W        W99965  33.908  41.095  11.061
34706W        W99966  29.408  39.425   3.843
34707W        W99967  35.158  44.348   4.308
34708W        W99968  35.661  28.496  10.719
34709W        W99969  26.434  17.350   5.519
34710W        W99970  42.375  24.193   4.435
34711W        W99971   0.238  34.876   3.062
34712W        W99972   2.009  27.990  13.500
34713W        W99973   8.620  14.193   2.730
34714W        W99974  23.493  10.152  14.957
34715W        W99975  39.963  43.259  12.485
34716W        W99976  21.020  37.513  12.551
34717W        W99977  39.766  20.534  12.013
34718W        W99978   8.910  38.466  10.840
34719W        W99979  21.815   1.931  14.485
34720W        W99980   6.622   1.248  12.933
34721W        W99981  23.246  34.995  13.916
34722W        W99982   7.326   7.893   0.424
34723W        W99983  24.690  19.156   3.285
34724W        W99984  24.775  37.137   3.491
34725W        W99985  26.140  41.580   0.477
34726W        W99986  32.074   2.980   3.801
34727W        W99987  17.196   7.970   3.262
34728W        W99988  41.514  16.560   1.872
34729W        W99989   6.825  15.131  12.923
34730W        W99990  27.453  12.657   4.893
34731W        W99991   6.282  11.999  12.052
34732W        W99992  42.864  25.118   2.459
34733W        W99993  34.960   5.351   0.014
34734W        W99994   5.753  43.424   4.824
34735W        W99995   0.352   2.935   3.660
34736W        W99996  13.791  12.150  12.970
34737W        W99997  22.775  26.776  10.333
34738W        W99998  16.099  38.525  11.997
34739W        W99999  23.226  22.735  12.018
34740W        W    0   3.918  31.082  14.009
34741W        W    1  22.008  37.303  13.405
34742W        W    2   5.527   3.375  12.995
34743W        W    3  26.109  31.181   3.050
34744W        W    4  31.069  13.933   1.403
34745W        W    5  39.756  16.744   3.154
34746W        W    6  28.093  20.054  10.427
34747W        W    7  35.522  22.383  12.153
34748W        W    8  23.457  21.967   2.161
34749W        W    9   4.479   9.784   2.573
34750W        W   10  44.915  34.297  11.116
34751W        W   11  20.977   4.629  12.381
34752W        W   12   4.833  24.641   0.854
34753W        W   13  42.731  18.130   3.177
34754W        W   14   5.099  33.608  12.088
34755W        W   15  27.498  29.096  13.409
34756W        W   16   3.739  16.565   4.550
34757W        W   17  39.822   9.666  14.791
34758W        W   18   3.891  34.568  12.353
34759W        W   19  31.124  35.000   1.631
34760W        W   20  35.635  12.142  13.406
34761W        W   21  22.414   4.711   1.911
34762W        W   22  41.271  40.089   4.561
34763W        W   23  37.574  29.468   4.676
34764W        W   24  34.584  26.163  14.797
34765W        W   25  26.646  11.132  10.664
34766W        W   26  44.812  19.052  14.284
34767W        W   27   7.239   3.057   3.728
34768W        W   28  31.372  11.850  12.981
34769W        W   29  30.008  17.198  13.319
34770W        W   30  24.615  30.316   4.644
34771W        W   31  32.189  25.455  11.659
34772W        W   32   1.959  17.534   4.217
34773W        W   33  37.979  23.148  11.117
34774W        W   34  12.826  23.977   4.277
34775W        W   35  16.684  28.023  10.389
34776W        W   36  42.803   7.914  13.045
34777W        W   37  30.022  23.424  12.582
34778W        W   38   2.359  25.251  14.260
34779W        W   39  38.795   9.670  11.130
34780W        W   40  40.966   2.027  13.971
34781W        W   41  41.833   3.671  12.637
34782W        W   42   5.599  33.003   2.268
34783W        W   43  27.542  33.001  11.979
34784W        W   44  35.416  17.600  14.955
34785W        W   45  35.481  33.815  11.217
34786W        W   46  39.325  21.841   0.963
34787W        W   47  10.877  13.263  11.965
34788W        W   48  24.310  17.029  13.250
34789W        W   49   1.933  24.500   0.266
34790W        W   50  38.913  44.184   3.269
34791W        W   51  19.573   9.894  13.306
34792W        W   52   7.177  18.995   4.517
34793W        W   53  34.343  11.738  10.945
34794W        W   54  31.818  32.545  14.376
34795W        W   55  44.869  16.563   9.802
34796W        W   56   5.689  30.980  14.478
34797W        W   57  26.676  28.450  14.292
34798W        W   58  22.570  23.042   4.591
34799W        W   59  19.112  27.577   1.447
34800W        W   60  30.144  20.850  10.823
34801W        W   61  40.594  13.599   2.686
34802W        W   62   7.385  11.715   0.051
34803W        W   63   8.831  41.920   4.316
34804W        W   64  24.922  36.197   0.928
34805W        W   65  38.882   9.954   2.579
34806W        W   66  38.015   8.425   2.412
34807W        W   67  13.068  44.191  14.404
34808W        W   68  12.265  37.554  14.475
34809W        W   69  40.004   3.651   2.210
34810W        W   70  13.898   6.953  10.100
34811W        W   71  31.674  16.216  11.058
34812W        W   72   7.671  22.501   1.233
34813W        W   73   2.238   9.416   1.737
34814W        W   74  43.837  33.975  13.273
34815W        W   75  31.156  33.195  11.084
34816W        W   76  28.270  34.720   1.389
34817W        W   77   0.400  41.742   2.770
34818W        W   78  16.813  34.869   2.249
34819W        W   79   0.433  29.029  10.628
34820W        W   80  20.987  24.497   0.005
34821W        W   81  19.647  40.316   3.414
34822W        W   82  17.637  37.287   2.622
34823W        W   83  20.551  17.507  14.317
34824W        W   84  20.509   4.031   4.852
34825W        W   85  37.358   7.848  11.537
34826W        W   86  42.007  11.527   3.731
34827W        W   87   0.763  34.371   2.311
34828W        W   88  32.470  14.394  12.106
34829W        W   89  28.713  13.277  14.884
34830W        W   90  39.023   7.751  13.605
34831W        W   91  26.814  20.082   3.624
34832W        W   92  23.735  30.046   3.990
34833W        W   93   6.333  31.107   2.127
34834W        W   94   6.683   9.713   4.809
34835W        W   95  20.043   6.266  12.095
34836W        W   96   3.778  31.571  13.847
34837W        W   97  30.789  33.463  11.937
34838W        W   98  15.128   2.292  13.847
34839W        W   99   6.222  40.064   4.639
34840W        W  100   5.245  27.643  12.922
34841W        W  101  40.457  32.060   4.067
34842W        W  102  40.751   3.236  14.901
34843W        W  103  34.576  20.736   3.347
34844W        W  104  36.154  43.393  10.171
34845W        W  105  41.431  11.147   3.254
34846W        W  106  16.990  13.724   2.995
34847W        W  107   9.206   0.980   4.533
34848W        W  108  26.077  37.267  11.624
34849W        W  109  12.687   3.045   4.554
34850W        W  110  17.074  17.230   0.941
34851W        W  111  37.324  18.680  11.989
34852W        W  112  25.302  28.507  12.489
34853W        W  113  31.007  44.324   4.604
34854W        W  114   6.651   9.535  11.947
34855W        W  115  13.149  26.099  10.926
34856W        W  116  41.968  35.846  14.400
34857W        W  117  41.545  12.890  12.122
34858W        W  118   9.203  16.255  12.360
34859W        W  119  16.588   7.306   2.671
34860W        W  120   9.330  14.533  14.959
34861W        W  121  34.492   9.037  11.951
34862W        W  122  41.592  29.829  11.860
34863W        W  123  43.418   1.727  10.619
34864W        W  124  32.512   4.439  10.628
34865W        W  125  33.370  42.806  14.497
34866W        W  126  34.570  25.545   2.394
34867W        W  127  31.220  14.056  11.609
34868W        W  128  10.162  11.060  11.927
34869W        W  129  16.249  22.444   1.239
34870W        W  130  41.776  24.580  11.142
34871W        W  131  33.100  38.773   0.645
34872W        W  132  17.529  14.108  11.606
34873W        W  133  24.573  31.978   5.108
34874W        W  134  33.289  34.546   1.894
34875W        W  135  14.415  37.425   0.831
34876W        W  136  44.512  11.596  14.927
34877W        W  137   9.873  33.438  13.956
34878W        W  138   4.651  23.734   3.149
34879W        W  139  38.830   2.392  12.535
34880W        W  140  44.013  32.872   1.626
34881W        W  141   3.959  10.442   0.505
34882W        W  142  31.597  13.209  14.052
34883W        W  143  44.382  19.057  12.567
34884W        W  144  26.960  42.419  12.829
34885W        W  145  13.647  25.153  11.594
34886W        W  146   4.387  38.704  14.116
34887W        W  147  21.251  44.420   2.142
34888W        W  148  25.326  10.925  13.957
34889W        W  149  19.673   6.431  11.180
34890W        W  150  43.790  36.088  14.438
34891W        W  151  31.342  15.602  11.088
34892W        W  152  24.694  17.195   9.820
34893W        W  153   8.269  11.178  14.433
34894W        W  154  21.412  39.613   4.593
34895W        W  155  40.546  26.095   3.720
34896W        W  156  43.996  12.713  13.498
34897W        W  157  12.451  39.092  14.881
34898W        W  158   6.871  27.063   3.086
34899W        W  159  43.593  40.286   4.165
34900W        W  160  12.740   9.065  13.145
34901W        W  161  12.393   7.243  13.149
34902W        W  162  19.774   3.392  11.077
34903W        W  163  41.494   9.670   0.282
34904W        W  164  15.776  44.092  13.439
34905W        W  165  13.317  23.788  12.913
34906W        W  166  39.755   8.712   5.065
34907W        W  167   9.325  14.647  10.752
34908W        W  168  36.084  27.654   1.800
34909W        W  169   7.704  44.744   1.657
34910W        W  170   2.931  34.919   2.534
34911W        W  171   5.240  34.060   3.174
34912W        W  172  34.391  40.812  11.371
34913W        W  173   4.350   5.883   1.591
34914W        W  174  35.535  18.004   4.701
34915W        W  175   7.232  18.686  10.699
34916W        W  176  39.208  17.151  12.888
34917W        W  177  21.858  42.703   3.862
34918W        W  178  40.741   5.364   1.431
34919W        W  179  30.457  22.666  11.230
34920W        W  180  24.195  16.565   5.405
34921W        W  181  14.385   9.704  11.100
34922W        W  182  23.102  44.507  12.174
34923W        W  183  22.218  35.169   1.206
34924W        W  184  32.090   8.797  11.581
34925W        W  185   5.943  39.605   1.784
34926W        W  186  23.019  17.473   0.387
34927W        W  187   6.758   5.379   0.212
34928W        W  188  15.241  15.432  13.509
34929W        W  189   5.175  32.956   0.433
34930W        W  190  26.699   5.293  11.427
34931W        W  191   1.384  25.216  13.802
34932W        W  192  18.705   3.816   2.406
34933W        W  193   9.272   9.196  13.780
34934W        W  194  23.205   0.362  12.925
34935W        W  195   4.295  35.887  14.152
34936W        W  196  28.611  29.081  11.452
34937W        W  197  43.682   0.324   1.696
34938W        W  198  10.931  44.409  13.920
34939W        W  199  25.638   4.638  13.480
34940W        W  200   6.957  19.645   2.444
34941W        W  201  43.268  20.575  12.479
34942W        W  202  17.681   4.453   4.173
34943W        W  203  32.307  13.112   0.323
34944W        W  204  16.777  33.035  12.543
34945W        W  205   6.140  36.716  13.121
34946W        W  206  32.898  33.900   3.151
34947W        W  207  24.965   8.836   3.311
34948W        W  208  15.607  20.709  14.982
34949W        W  209  40.783   1.871  14.906
34950W        W  210  13.357  13.025  11.896
34951W        W  211  24.603   7.284   4.129
34952W        W  212  23.249  37.866   4.012
34953W        W  213  35.292  31.550  13.092
34954W        W  214  33.452  43.173   3.198
34955W        W  215  34.908  43.745  10.879
34956W        W  216  32.908   8.137   1.473
34957W        W  217   3.133  34.084  14.453
34958W        W  218   8.997   8.723   1.684
34959W        W  219  31.910   1.316  13.040
34960W        W  220  13.602  26.977  10.805
34961W        W  221  37.544   5.995  14.556
34962W        W  222  31.757  34.548   0.800
34963W        W  223  40.392  18.037  10.646
34964W        W  224  42.236  16.997  13.792
34965W        W  225   7.754  18.809   3.143
34966W        W  226  30.886  44.732  10.276
34967W        W  227  25.024  43.380   0.876
34968W        W  228  28.308  10.071  13.442
34969W        W  229   3.921   5.874   4.653
34970W        W  230  43.822   2.926  14.480
34971W        W  231  27.091  29.776  13.239
34972W        W  232   4.651  21.142  10.212
34973W        W  233  35.841  43.287   5.104
34974W        W  234  27.516  27.102  11.653
34975W        W  235   5.291   7.876   4.240
34976W        W  236  19.784   3.760   1.454
34977W        W  237   1.187  36.758  10.511
34978W        W  238   2.587  40.274   0.323
34979W        W  239  39.734   4.162  13.908
34980W        W  240  37.492  22.638   1.105
34981W        W  241  38.550  23.579  10.706
34982W        W  242  17.534  31.277  14.794
34983W        W  243   6.881  38.908  14.863
34984W        W  244  24.488  41.539   3.623
34985W        W  245  24.261   4.931  14.378
34986W        W  246  18.082  25.148  14.304
34987W        W  247   5.527  10.355  13.303
34988W        W  248  37.408   6.318   1.763
34989W        W  249  30.615  38.431  12.464
34990W        W  250   5.714  43.204   1.267
34991W        W  251  39.069  18.259   3.406
34992W        W  252  39.925  39.910   4.624
34993W        W  253  35.577  13.551   2.675
34994W        W  254  33.073  26.505   3.178
34995W        W  255  29.022  30.662   2.128
34996W        W  256  37.984   5.814   2.689
34997W        W  257  17.833   7.950  10.978
34998W        W  258  16.952  18.038   4.593
34999W        W  259   8.252  22.155  13.686
35000W        W  260   7.939   5.795   4.856
35001W        W  261  12.594  37.938  12.598
35002W        W  262  25.589  11.632   2.837
35003W        W  263  13.992  32.996  12.482
35004W        W  264  11.139  29.473  13.427
35005W        W  265  33.124  14.774   4.714
35006W        W  266  32.086  17.691  10.656
35007W        W  267  44.056  15.754  11.157
35008W        W  268  22.105   6.723  11.856
35009W        W  269  43.207   3.401   4.565
35010W        W  270  31.595  41.850  13.926
35011W        W  271  40.058  21.982   3.820
35012W        W  272  18.161  13.358   1.202
35013W        W  273  44.446  35.764   0.836
35014W        W  274  43.239  28.689  13.148
35015W        W  275  36.671  41.108  11.999
35016W        W  276   5.082   4.182  11.562
35017W        W  277  44.864  24.848   0.966
35018W        W  278  18.794   1.522  10.444
35019W        W  279  29.406  18.263  12.911
35020W        W  280  18.747  12.406  12.879
35021W        W  281  24.950  34.094   0.313
35022W        W  282   2.439  36.549   1.457
35023W        W  283  26.735  43.362   1.774
35024W        W  284   4.158  14.705  13.017
35025W        W  285   9.168   9.138  11.384
35026W        W  286  27.637  23.984  12.538
35027W        W  287   9.436   0.510   4.695
35028W        W  288  39.075  12.309   4.577
35029W        W  289  36.001  26.112   0.743
35030W        W  290  38.765  43.917   1.196
35031W        W  291   2.406  21.015  10.277
35032W        W  292  40.371  10.278  11.750
35033W        W  293   0.916   0.010   0.004
35034W        W  294  10.271  12.666   2.495
35035W        W  295  12.087  23.065   4.664
35036W        W  296  28.570  43.406   0.038
35037W        W  297   6.014   6.680  10.747
35038W        W  298  30.120   4.029  11.182
35039W        W  299   7.599  34.221  10.545
35040W        W  300  21.810  14.660  13.931
35041W        W  301  41.618  23.067  12.593
35042W        W  302   6.697   2.260  14.327
35043W        W  303   8.889   5.955   2.602
35044W        W  304  38.584  35.058  14.526
35045W        W  305  20.034   9.129  12.108
35046W        W  306   4.959  40.415   0.637
35047W        W  307   9.606  39.038   3.311
35048W        W  308  35.679  10.296  12.095
35049W        W  309  22.245  21.969  10.505
35050W        W  310  12.059   7.961   9.780
35051W        W  311  31.639  44.978   0.699
35052W        W  312  21.635   1.427  14.213
35053W        W  313  25.462  38.245   1.594
35054W        W  314   9.247  16.035   0.252
35055W        W  315  30.058   4.825  10.761
35056W        W  316  16.086  42.409  12.574
35057W        W  317  15.076  32.629  13.964
35058W        W  318  14.893  16.778   1.264
35059W        W  319  41.965  21.736   4.801
35060W        W  320  39.497  38.557   2.199
35061W        W  321   0.997   8.868  11.479
35062W        W  322  41.582  14.777  14.713
35063W        W  323   1.820  26.887  14.876
35064W        W  324  13.279  22.585   9.768
35065W        W  325  32.980  31.494  10.354
35066W        W  326  37.431   9.572   2.821
35067W        W  327  44.509   0.311   0.413
35068W        W  328  12.083  21.352  12.284
35069W        W  329  19.739  23.802  14.845
35070W        W  330  21.709  10.353   2.616
35071W        W  331  34.315  23.674   4.578
35072W        W  332  39.908  15.351   2.010
35073W        W  333   7.906  40.780  14.923
35074W        W  334  27.630  24.620   1.785
35075W        W  335  40.931   3.721  14.926
35076W        W  336  39.208  30.922  12.581
35077W        W  337   1.767  43.519  13.122
35078W        W  338  37.463  21.299   2.781
35079W        W  339  18.636  42.336   4.449
35080W        W  340  38.238   4.428  10.536
35081W        W  341  37.868  24.454  14.915
35082W        W  342  30.143   1.756  14.220
35083W        W  343   1.763   0.186   0.840
35084W        W  344  38.055  13.539   0.335
35085W        W  345  17.125  12.528  10.315
35086W        W  346  10.387   8.395   1.388
35087W        W  347  33.556   1.171  14.477
35088W        W  348   1.351   6.894  13.085
35089W        W  349  34.216  12.772  14.387
35090W        W  350  41.825  33.895  14.911
35091W        W  351  25.916  26.718  12.913
35092W        W  352  30.837  43.665  13.634
35093W        W  353  37.564  41.609  14.144
35094W        W  354  12.358   1.202   2.361
35095W        W  355  17.508  10.275   4.908
35096W        W  356  37.926  23.113  13.979
35097W        W  357  18.550  15.134  13.798
35098W        W  358  41.986  33.618  12.913
35099W        W  359  18.091  22.617  12.162
35100W        W  360   3.857  19.197  12.117
35101W        W  361  43.910   1.305   4.186
35102W        W  362   5.404  26.046   0.938
35103W        W  363  22.304   3.156  14.810
35104W        W  364  43.174  41.366   3.978
35105W        W  365  24.679  11.422   2.480
35106W        W  366  35.871  43.674  14.845
35107W        W  367   9.832  12.651  10.518
35108W        W  368  23.854  15.625  12.519
35109W        W  369  26.972  32.613  14.985
35110W        W  370  21.368  24.178  12.820
35111W        W  371  21.615   1.380   3.822
35112W        W  372  44.311  31.871   3.197
35113W        W  373  27.881  34.362  12.571
35114W        W  374  38.625  34.823  13.218
35115W        W  375  16.255  23.649  12.565
35116W        W  376  19.317  16.796  12.866
35117W        W  377  26.608  29.611   4.090
35118W        W  378   8.905  43.917   2.322
35119W        W  379   9.645  27.159   3.125
35120W        W  380  17.934   1.366  12.199
35121W        W  381  14.973  31.432   1.658
35122W        W  382  26.045  33.514   1.770
35123W        W  383  18.329   0.058   1.765
35124W        W  384  42.091   0.527   3.840
35125W        W  385  43.324  36.768  11.085
35126W        W  386  42.094  18.539  14.242
35127W        W  387  19.603   4.423   1.209
35128W        W  388  18.751  14.771   2.287
35129W        W  389  26.803  12.843   1.192
35130W        W  390   3.447   9.711   1.364
35131W        W  391  20.320   3.733  13.284
35132W        W  392   2.792  24.724  12.149
35133W        W  393  25.131  27.175   1.820
35134W        W  394  37.779  23.559   3.621
35135W        W  395  25.501  30.121   3.811
35136W        W  396  31.955  11.136  13.135
35137W        W  397  35.897  40.734  10.956
35138W        W  398   0.554   5.361   4.748
35139W        W  399   4.337  38.326   0.442
35140W        W  400   0.673   3.736  13.442
35141W        W  401  42.882   1.956   2.711
35142W        W  402   1.942  13.064  11.931
35143W        W  403  27.927  11.286  11.128
35144W        W  404   3.743  32.941  13.087
35145W        W  405  22.810  17.999  13.373
35146W        W  406  41.032  21.460   1.244
35147W        W  407   1.336  22.385  11.471
35148W        W  408  32.051  44.757   2.196
35149W        W  409  28.175  39.013   2.678
35150W        W  410  43.273  22.534   4.547
35151W        W  411   7.100  30.934   3.241
35152W        W  412   9.423  14.901   3.626
35153W        W  413   6.714  19.202   1.327
35154W        W  414  20.228  30.013   2.783
35155W        W  415   1.772  33.430   2.611
35156W        W  416  38.064  27.398  13.016
35157W        W  417  23.490   7.009   0.264
35158W        W  418  34.440  29.608  12.456
35159W        W  419  26.423  37.959  14.460
35160W        W  420  19.578  11.373   4.449
35161W        W  421   1.974  30.047   1.736
35162W        W  422  37.384   3.527  14.528
35163W        W  423   5.286  25.575   4.098
35164W        W  424  28.592  15.512   4.126
35165W        W  425   4.265  40.492  13.804
35166W        W  426  28.577  37.579  13.142
35167W        W  427   8.468   9.315   0.877
35168W        W  428  21.403  42.774   3.160
35169W        W  429  17.115  43.961  11.281
35170W        W  430  25.211  36.884   1.694
35171W        W  431   1.239  30.730  13.031
35172W        W  432  43.791  17.129  11.513
35173W        W  433  28.322  31.504   4.242
35174W        W  434  15.534  16.151  14.733
35175W        W  435  23.983   0.149   3.792
35176W        W  436  22.797  32.952   2.046
35177W        W  437  42.846  22.221  10.802
35178W        W  438  31.429  43.516  11.899
35179W        W  439  23.731   4.219  14.041
35180W        W  440  16.172  34.924  13.339
35181W        W  441  29.632   7.818  12.900
35182W        W  442   7.887   0.760  10.397
35183W        W  443  41.248  39.413   1.309
35184W        W  444  14.604   7.632   0.390
35185W        W  445  29.221   5.290  13.501
35186W        W  446  20.119  35.270  10.687
35187W        W  447  33.568   1.760  13.184
35188W        W  448   6.144  17.197   2.840
35189W        W  449   2.701  38.497  13.007
35190W        W  450  18.683  17.599  14.498
35191W        W  451  38.016  32.183   1.276
35192W        W  452  33.243   9.753  14.414
35193W        W  453  14.995  22.358  14.411
35194W        W  454   0.779  39.001   5.239
35195W        W  455  31.619  32.351  12.410
35196W        W  456  42.683  21.787  11.039
35197W        W  457  10.740  11.645  13.735
35198W        W  458  29.917   8.816   2.442
35199W        W  459  29.938   8.796  10.403
35200W        W  460  23.571  38.082   2.811
35201W        W  461  23.707  41.314  11.838
35202W        W  462  39.793   5.506   1.790
35203W        W  463  12.196  43.459  11.460
35204W        W  464   6.150   3.679  13.861
35205W        W  465  14.171  19.056   2.283
35206W        W  466  23.444  27.151   0.797
35207W        W  467  17.075  18.824  10.686
35208W        W  468  13.078   5.722   2.674
35209W        W  469  37.989  38.266  11.540
35210W        W  470  17.210  17.615  10.199
35211W        W  471  18.778  42.775  13.407
35212W        W  472  28.406  39.537   3.652
35213W        W  473  39.462   8.532   1.446
35214W        W  474   8.631   5.237  14.393
35215W        W  475  34.093  14.203   0.340
35216W        W  476  40.814  20.061   2.353
35217W        W  477  28.197  25.056  10.234
35218W        W  478  15.823  27.963   1.050
35219W        W  479  22.492  39.416   1.017
35220W        W  480  41.749  22.313   4.761
35221W        W  481  11.368  30.445   3.140
35222W        W  482   3.856  16.824   3.177
35223W        W  483   6.267  39.223  11.134
35224W        W  484  11.483   7.294  13.052
35225W        W  485  16.676   1.863  11.031
35226W        W  486  31.584  12.748  11.148
35227W        W  487  10.649  19.714  13.064
35228W        W  488   0.888  14.975  10.681
35229W        W  489  43.724  21.610  14.289
35230W        W  490  40.661   6.619  11.295
35231W        W  491  32.046  14.084   3.791
35232W        W  492  26.564  12.738   4.907
35233W        W  493  15.892  43.820  14.955
35234W        W  494  13.212  35.467  14.868
35235W        W  495  16.678  27.430   1.205
35236W        W  496  42.040  38.374  11.402
35237W        W  497  28.128  29.640   1.119
35238W        W  498  38.653  14.255   9.905
35239W        W  499  35.814  42.502   1.807
35240W        W  500  37.755  32.481  14.932
35241W        W  501  33.105  11.546  14.357
35242W        W  502  11.655   3.010  11.515
35243W        W  503  44.867   6.877  11.993
35244W        W  504   7.172  24.464  12.905
35245W        W  505  12.733  40.830  10.406
35246W        W  506  29.704  30.856  11.066
35247W        W  507  41.969  37.810  12.150
35248W        W  508  33.529   2.731  13.511
35249W        W  509  37.972  16.734  10.720
35250W        W  510  15.340  20.848   0.413
35251W        W  511  20.660  40.582  11.599
35252W        W  512  26.945  31.188  11.069
35253W        W  513  16.077   8.630  11.524
35254W        W  514  39.353  42.433   2.925
35255W        W  515  36.252  33.211   1.865
35256W        W  516  20.378  39.496   4.671
35257W        W  517   3.374  28.932   3.258
35258W        W  518  27.117  21.662   1.886
35259W        W  519  33.084  12.817   1.433
35260W        W  520  24.317  14.057   4.580
35261W        W  521  17.821  21.593  13.423
35262W        W  522  20.616  34.200   0.528
35263W        W  523  38.793  26.974  12.478
35264W        W  524  32.096  20.955   4.544
35265W        W  525   3.923  12.358  14.192
35266W        W  526   6.112  36.464   1.815
35267W        W  527  16.137  19.073   2.404
35268W        W  528  19.540  16.995   4.569
35269W        W  529  16.753   6.905  13.998
35270W        W  530   3.212  18.774  13.431
35271W        W  531  31.178  30.154   1.844
35272W        W  532  34.108  26.553   3.994
35273W        W  533   4.001   5.979   2.874
35274W        W  534  37.380  24.579   3.066
35275W        W  535  31.198  22.698   4.914
35276W        W  536   4.401  20.531  13.479
35277W        W  537  10.326   0.047  14.515
35278W        W  538   0.477  23.114  11.584
35279W        W  539  44.573   4.856   2.386
35280W        W  540  12.543  33.219  11.418
35281W        W  541  44.025  13.225   0.316
35282W        W  542  17.581  14.604  11.412
35283W        W  543  11.477   2.312   2.354
35284W        W  544  42.424  19.352  11.484
35285W        W  545  32.963  38.126  13.252
35286W        W  546  31.769  39.113   3.638
35287W        W  547   7.656  13.332  13.871
35288W        W  548  43.485  21.154  14.461
35289W        W  549   1.173  19.106   1.815
35290W        W  550   9.254  23.803  11.827
35291W        W  551  30.394  41.522   4.068
35292W        W  552  38.787  25.861   1.941
35293W        W  553  18.989   3.287  11.576
35294W        W  554  31.198  18.757  13.854
35295W        W  555  33.523  42.007  11.025
35296W        W  556   0.935  29.931  10.978
35297W        W  557  38.948  15.947   3.768
35298W        W  558  12.563  25.079   3.313
35299W        W  559  35.066  16.589   2.450
35300W        W  560  44.785  20.251   1.247
35301W        W  561  29.732  12.862   5.024
35302W        W  562  19.224  34.772  10.638
35303W        W  563  16.596  42.882  13.050
35304W        W  564  27.680  42.575   0.716
35305W        W  565   6.295  13.803  13.013
35306W        W  566   9.907  38.668   0.043
35307W        W  567  20.647   8.060  13.981
35308W        W  568   3.227  20.798   4.069
35309W        W  569  26.283  23.130   4.925
35310W        W  570  28.490   8.963  14.390
35311W        W  571  39.963  22.471   2.451
35312W        W  572  43.961  23.202   0.927
35313W        W  573  26.415  29.623   4.576
35314W        W  574  20.945  20.668  13.960
35315W        W  575  41.749  37.572   3.026
35316W        W  576   8.403  13.541   3.652
35317W        W  577  24.944   4.078   2.257
35318W        W  578  30.389  42.355  13.569
35319W        W  579   4.525   8.089   4.575
35320W        W  580  19.571  42.029   4.192
35321W        W  581   2.893  38.136  12.081
35322W        W  582  37.041  33.092  13.822
35323W        W  583  36.376  11.712   0.388
35324W        W  584  41.296  14.683  14.244
35325W        W  585  23.973   2.084  10.255
35326W        W  586  37.468  24.081   3.040
35327W        W  587  15.613  44.175   2.272
35328W        W  588  39.115  21.937   1.424
35329W        W  589  37.507  38.534   1.913
35330W        W  590  14.191  26.394  14.870
35331W        W  591  43.577  14.620  11.586
35332W        W  592  23.223  25.677   0.368
35333W        W  593   8.795   9.733   2.246
35334W        W  594  32.794  16.325  14.632
35335W        W  595  37.435  25.532  10.515
35336W        W  596  33.949  29.820  12.329
35337W        W  597  22.170   9.858  10.935
35338W        W  598  32.483  15.858  13.019
35339W        W  599  17.199  44.586  12.487
35340W        W  600   8.136  23.992   4.670
35341W        W  601  16.960  44.883   2.325
35342W        W  602  11.506  39.944  13.052
35343W        W  603  37.551  29.246  14.315
35344W        W  604  23.633  18.318  13.888
35345W        W  605  32.507  42.984  13.894
35346W        W  606  12.164   9.788  11.689
35347W        W  607  43.602   5.441  11.262
35348W        W  608  34.261  34.316  11.389
35349W        W  609  26.834   6.256  12.069
35350W        W  610  30.082   7.889   0.319
35351W        W  611  37.209  17.326  13.563
35352W        W  612  23.094  19.568   4.175
35353W        W  613  17.604  30.564   2.873
35354W        W  614  37.757   7.294  10.750
35355W        W  615  34.916  40.831  12.415
35356W        W  616  24.021  32.276  12.515
35357W        W  617  10.198   4.880  14.235
35358W        W  618  16.590  23.313   3.136
35359W        W  619  41.988  10.436  13.024
35360W        W  620  43.920  39.738   2.229
35361W        W  621  14.217  25.704   3.996
35362W        W  622  18.843   2.448   2.156
35363W        W  623   2.698  10.913   3.324
35364W        W  624  13.298  39.761  11.131
35365W        W  625  11.373  35.852   2.228
35366W        W  626  24.700  16.708  10.112
35367W        W  627   5.908  22.280  12.486
35368W        W  628  43.391  43.315   2.339
35369W        W  629  32.447   4.269  13.679
35370W        W  630  30.463  24.536  11.660
35371W        W  631  37.462   0.060   0.288
35372W        W  632   6.828  12.100  12.051
35373W        W  633  19.504  18.517  11.167
35374W        W  634   6.625  32.711  12.416
35375W        W  635  42.479   8.035   1.585
35376W        W  636   8.713  11.337  12.938
35377W        W  637  21.451  33.644   0.355
35378W        W  638   4.988   0.445  14.779
35379W        W  639   4.107  21.800  12.478
35380W        W  640  11.818  39.558  12.850
35381W        W  641  11.811   0.259   0.831
35382W        W  642  11.351  35.157   0.268
35383W        W  643   4.912   6.425  11.148
35384W        W  644  32.568   0.469   0.963
35385W        W  645  25.741  15.809  14.028
35386W        W  646  13.251  11.137  12.606
35387W        W  647  25.762  12.310  14.882
35388W        W  648   7.119  21.668   1.451
35389W        W  649  42.848   8.376   2.790
35390W        W  650  35.546  11.717  11.118
35391W        W  651  37.806  15.607   2.595
35392W        W  652  26.044   4.774  10.579
35393W        W  653  34.637  22.210   0.209
35394W        W  654  39.414   8.403  14.478
35395W        W  655  29.336   9.930   1.829
35396W        W  656  28.740   4.457   1.419
35397W        W  657  39.304  35.598   4.160
35398W        W  658  16.785   2.498   2.835
35399W        W  659  11.651  40.404   3.658
35400W        W  660  33.980  39.501   0.241
35401W        W  661  39.432  33.977   1.852
35402W        W  662  39.570  22.626  14.339
35403W        W  663  11.136  11.653  13.421
35404W        W  664  10.873   4.734   1.017
35405W        W  665  23.378  29.083   1.795
35406W        W  666  27.607   7.548  13.263
35407W        W  667  40.602   4.776   3.825
35408W        W  668  20.597  43.281   1.719
35409W        W  669   0.577  21.050  10.725
35410W        W  670  26.704  37.345   1.789
35411W        W  671  25.792  23.125  12.620
35412W        W  672   0.214   1.497   2.903
35413W        W  673   8.428  12.095  11.894
35414W        W  674  40.292  31.091   0.708
35415W        W  675  13.861  15.734  14.381
35416W        W  676  42.879   4.278  12.133
35417W        W  677  15.348  23.293  12.922
35418W        W  678  22.307  28.204   1.460
35419W        W  679  36.143  31.659   2.363
35420W        W  680  21.311  27.531  14.034
35421W        W  681  11.754  33.611   0.857
35422W        W  682   4.171  42.349   1.200
35423W        W  683  30.501   3.829   3.397
35424W        W  684   5.389  44.776   0.928
35425W        W  685   6.854  15.148  11.431
35426W        W  686  21.184   5.972  14.406
35427W        W  687  13.272  41.346  13.513
35428W        W  688  29.923   0.514   3.226
35429W        W  689   5.975   8.905  10.762
35430W        W  690  13.583  42.001   4.245
35431W        W  691  20.475   9.852   0.324
35432W        W  692  33.153  38.446   0.242
35433W        W  693   6.003  29.576   2.717
35434W        W  694  10.004   1.356  13.908
35435W        W  695   9.106   4.718   2.806
35436W        W  696  17.697  19.520  13.096
35437W        W  697  32.466  35.057   3.394
35438W        W  698  25.730  33.458   3.305
35439W        W  699   8.747  10.320   4.803
35440W        W  700   6.218  24.568  10.671
35441W        W  701  39.950  35.602  14.294
35442W        W  702  41.579   2.160  12.171
35443W        W  703  17.137  33.963   4.560
35444W        W  704   5.247  26.221   2.376
35445W        W  705   7.838  18.621  13.434
35446W        W  706  37.556  21.684   4.300
35447W        W  707   7.486  20.540   1.278
35448W        W  708  41.420  17.836   3.623
35449W        W  709  29.200  30.954  11.086
35450W        W  710  24.503   2.270  11.184
35451W        W  711  39.458   1.187  11.577
35452W        W  712  12.411  36.558   0.878
35453W        W  713  35.209  40.348  11.105
35454W        W  714  32.390  36.895  11.568
35455W        W  715  22.836  14.891   3.163
35456W        W  716  25.658  24.163   3.797
35457W        W  717  43.994   3.139   1.408
35458W        W  718  13.609  29.458  11.147
35459W        W  719  13.253   7.642  12.105
35460W        W  720  43.063   5.709  13.866
35461W        W  721   2.892   1.449   2.038
35462W        W  722   8.793  25.598  14.991
35463W        W  723  41.796  23.085  13.079
35464W        W  724   4.689  26.916   1.839
35465W        W  725  26.765  27.621  10.658
35466W        W  726  13.738  15.006   4.062
35467W        W  727  18.990  25.511  10.434
35468W        W  728  13.616   6.931  12.529
35469W        W  729  18.179  27.508   2.868
35470W        W  730  17.389   5.270  13.537
35471W        W  731  36.000   2.579  13.961
35472W        W  732  20.623  38.767   2.286
35473W        W  733   7.123   7.386  11.755
35474W        W  734  25.119   3.245  12.894
35475W        W  735  22.280  18.520  14.935
35476W        W  736  41.021  10.280   0.814
35477W        W  737  44.549  24.123  14.327
35478W        W  738   2.355   3.348  12.804
35479W        W  739  27.600  22.820  11.915
35480W        W  740   6.440  44.879   3.244
35481W        W  741  24.117  39.068   2.361
35482W        W  742  42.431  42.596  12.383
35483W        W  743   0.311   1.163   0.790
35484W        W  744  26.105  44.983   0.970
35485W        W  745   9.236  34.033   0.056
35486W        W  746   2.956   4.506   0.684
35487W        W  747  20.838  10.794  12.555
35488W        W  748  30.195   8.901  12.149
35489W        W  749  32.829   3.359   2.377
35490W        W  750  22.048   8.642   4.910
35491W        W  751  17.158  35.522  13.202
35492W        W  752  21.008  23.518   0.298
35493W        W  753  23.470  37.984  13.996
35494W        W  754  12.167   4.443   3.121
35495W        W  755   7.603   3.611  10.347
35496W        W  756   5.919   3.729   4.422
35497W        W  757  41.324  39.036   1.701
35498W        W  758  17.594  17.154   3.830
35499W        W  759  13.226  42.305   3.715
35500W        W  760  29.422  11.356   4.373
35501W        W  761  25.521  22.470   1.437
35502W        W  762  10.817  23.669  12.675
35503W        W  763   8.848  38.932   3.685
35504W        W  764  38.030  25.919  12.975
35505W        W  765  20.910  25.751  11.908
35506W        W  766  19.194  23.202   1.759
35507W        W  767  12.193  26.529   5.519
35508W        W  768  16.283  35.913  12.967
35509W        W  769  17.283   0.791  13.073
35510W        W  770  28.654   1.401   0.803
35511W        W  771  30.635  22.642  13.551
35512W        W  772  20.964  38.610  12.211
35513W        W  773  13.692  33.176   3.389
35514W        W  774  32.049  44.727  14.924
35515W        W  775  16.187  10.106   4.083
35516W        W  776  16.367  38.630   4.033
35517W        W  777   8.015  39.115   2.263
35518W        W  778  10.020  42.343   2.741
35519W        W  779  40.488   4.475  10.084
35520W        W  780  21.480   8.702   4.183
35521W        W  781  18.254  23.761   2.905
35522W        W  782  25.042  12.549  10.701
35523W        W  783   0.521  15.093   2.383
35524W        W  784  12.146  16.717   1.788
35525W        W  785   7.287   2.848   1.026
35526W        W  786  35.214  40.948   3.617
35527W        W  787   7.678  16.512   2.862
35528W        W  788  30.079  17.347   2.420
35529W        W  789  43.462  32.307  14.545
35530W        W  790   8.620   5.385  14.875
35531W        W  791  30.115  40.592  11.023
35532W        W  792  33.514  11.384  13.530
35533W        W  793  34.542  38.446   4.039
35534W        W  794  12.215  38.864   1.743
35535W        W  795  10.588  14.526   2.801
35536W        W  796  22.002  28.110   0.265
35537W        W  797  17.476  33.657  12.456
35538W        W  798  31.007  30.417   4.869
35539W        W  799  40.329   8.102  14.435
35540W        W  800  30.451  12.759  13.295
35541W        W  801  25.591  42.915   2.130
35542W        W  802  22.389  24.050  14.108
35543W        W  803   3.032  43.894  11.556
35544W        W  804  31.615  20.095  10.678
35545W        W  805   9.882  24.160   4.493
35546W        W  806  40.025  17.710  14.106
35547W        W  807  39.386   5.632  14.679
35548W        W  808  14.583  42.764  12.483
35549W        W  809   7.119  39.889   2.615
35550W        W  810  33.109  22.046  10.718
35551W        W  811  32.527  16.376   2.705
35552W        W  812  41.348  36.852  11.983
35553W        W  813  23.144  17.706  12.604
35554W        W  814  41.836   0.844  12.635
35555W        W  815  27.899  39.525   3.656
35556W        W  816   5.327  43.959  13.029
35557W        W  817   6.014  10.518   1.908
35558W        W  818  39.227  15.300  10.406
35559W        W  819  19.797  14.248   3.549
35560W        W  820  19.680  30.873   2.253
35561W        W  821  35.677  44.490  11.036
35562W        W  822  26.238  35.507  10.711
35563W        W  823   8.897  26.003  12.035
35564W        W  824  25.284  38.587   3.182
35565W        W  825   9.941  27.751   4.554
35566W        W  826  41.857  29.862  11.437
35567W        W  827  38.879  27.387   4.694
35568W        W  828  36.321  18.302   0.929
35569W        W  829  38.640   0.135   4.207
35570W        W  830  40.976   1.920  12.335
35571W        W  831  24.607  12.191   1.784
35572W        W  832   1.468  29.705  11.679
35573W        W  833  11.632  29.407   1.102
35574W        W  834  39.448  34.577  13.115
35575W        W  835   5.850  16.019   0.734
35576W        W  836  15.087   2.508   4.026
35577W        W  837  13.005  34.900   2.855
35578W        W  838  28.126  41.612   1.278
35579W        W  839  40.722  23.678   3.370
35580W        W  840  35.053   5.693  14.033
35581W        W  841  22.825  12.079   5.025
35582W        W  842  34.322  29.772  11.642
35583W        W  843   8.439   3.867   1.650
35584W        W  844  29.606   0.404  10.212
35585W        W  845  29.607   5.987   0.781
35586W        W  846  20.551  40.355  13.318
35587W        W  847   6.211  34.333   0.260
35588W        W  848  44.378  28.370   1.746
35589W        W  849  42.883   0.923   4.917
35590W        W  850  38.874   7.651  14.570
35591W        W  851  37.361  39.547   2.006
35592W        W  852  30.877  10.142  11.068
35593W        W  853  38.369   1.155  13.918
35594W        W  854  12.383  19.811   3.394
35595W        W  855  30.038  42.835   3.834
35596W        W  856  19.812  28.096   2.687
35597W        W  857  10.318   9.673   2.615
35598W        W  858  32.626  25.988  14.414
35599W        W  859   6.802  31.970  14.352
35600W        W  860  13.222  34.004  11.830
35601W        W  861  44.269  19.831   0.489
35602W        W  862  28.671   9.832   4.193
35603W        W  863  35.452  42.025   4.387
35604W        W  864  31.854  40.853   2.747
35605W        W  865  19.969   6.384   0.347
35606W        W  866  18.273   4.005   4.860
35607W        W  867  16.496  25.071   3.231
35608W        W  868  16.332   0.872   1.431
35609W        W  869   7.868  30.714   4.995
35610W        W  870   9.895  32.917   4.872
35611W        W  871  13.227  24.658   3.695
35612W        W  872  37.275  15.410   0.696
35613W        W  873  42.349  24.176   0.002
35614W        W  874  44.939  32.458   0.650
35615W        W  875   0.952  18.152  12.541
35616W        W  876   2.668  40.995  10.669
35617W        W  877   9.874  29.452  12.030
35618W        W  878   9.572   9.413  11.547
35619W        W  879   7.822  34.401   1.498
35620W        W  880  33.486  16.300  13.915
35621W        W  881  33.663  12.430  13.533
35622W        W  882  17.325  38.139   0.711
35623W        W  883  16.319   9.283   2.972
35624W        W  884  39.729  29.889   3.566
35625W        W  885   7.007  44.482  13.429
35626W        W  886  41.414  10.775   4.551
35627W        W  887  20.811  15.181  13.351
35628W        W  888  13.760   2.152   2.468
35629W        W  889  43.449  25.139  10.516
35630W        W  890   8.724  22.212   3.633
35631W        W  891  16.584  35.917  13.911
35632W        W  892   9.977  10.053   2.704
35633W        W  893   3.194  27.916  11.561
35634W        W  894  18.946  32.890   3.119
35635W        W  895   8.612   5.364   3.249
35636W        W  896  27.383  40.452  11.559
35637W        W  897  27.660  30.070   4.461
35638W        W  898  43.708  12.485  13.047
35639W        W  899  15.108  26.734   0.989
35640W        W  900  16.377  44.012   1.423
35641W        W  901  37.498  34.562   3.176
35642W        W  902  15.603  27.900   1.515
35643W        W  903  44.924  25.980   0.199
35644W        W  904  21.084  32.760  11.025
35645W        W  905  39.779  13.618   0.802
35646W        W  906   6.256   6.881   0.400
35647W        W  907  21.002  16.139   0.413
35648W        W  908   9.730  17.283   2.642
35649W        W  909  16.301   2.243   2.912
35650W        W  910  16.055  28.455  11.840
35651W        W  911  39.088  20.648   2.910
35652W        W  912  10.809  10.930  14.930
35653W        W  913  40.956  39.837  11.129
35654W        W  914  44.554  40.815  14.895
35655W        W  915   1.964   4.694   4.188
35656W        W  916  23.782  41.272   3.296
35657W        W  917  21.754  13.429   4.641
35658W        W  918  40.908  13.559   5.141
35659W        W  919  23.999  36.874  11.820
35660W        W  920  16.232  28.963   0.141
35661W        W  921   4.769   5.399   4.850
35662W        W  922  14.739  36.705  11.385
35663W        W  923  19.784  11.884   1.913
35664W        W  924  37.478   0.574  13.819
35665W        W  925   4.451  14.254   0.137
35666W        W  926  39.476  31.128  13.511
35667W        W  927   3.462  19.581  11.706
35668W        W  928  40.773   4.293   4.544
35669W        W  929  28.879  36.917   0.101
35670W        W  930   2.476  44.790  14.396
35671W        W  931   1.942  19.484   2.694
35672W        W  932  39.533  34.155  12.344
35673W        W  933  15.397  20.746  14.103
35674W        W  934  33.063  44.709  14.513
35675W        W  935   1.195   3.403   2.832
35676W        W  936  36.022  22.379  10.681
35677W        W  937   0.524  27.165  13.588
35678W        W  938  32.499  16.587  14.233
35679W        W  939  40.844  19.558   2.229
35680W        W  940  44.271  31.193   2.772
35681W        W  941  12.199   9.780   2.917
35682W        W  942  41.003  27.276  12.846
35683W        W  943  26.203   9.290   3.723
35684W        W  944  41.330   9.219  13.185
35685W        W  945  19.244  22.270  12.462
35686W        W  946   8.259  37.637  14.334
35687W        W  947  33.115  28.188   1.506
35688W        W  948  38.773  44.355  14.444
35689W        W  949  12.899  43.541   3.840
35690W        W  950   7.779  21.959  14.504
35691W        W  951  37.409  15.651  12.046
35692W        W  952  19.750   7.671  10.708
35693W        W  953  27.506  12.545   2.835
35694W        W  954  23.225  40.041   1.807
35695W        W  955   9.252  32.654   0.359
35696W        W  956  39.825  20.209   4.585
35697W        W  957   4.927  40.082   0.003
35698W        W  958  18.773  41.111  12.845
35699W        W  959   7.161  15.360  14.603
35700W        W  960   8.900  18.164   0.683
35701W        W  961  24.540  21.201  13.415
35702W        W  962  37.079  32.149   2.195
35703W        W  963  23.388  34.723   4.988
35704W        W  964  20.958  14.900  14.526
35705W        W  965  35.855  11.069  11.065
35706W        W  966  27.437  14.800   4.161
35707W        W  967  44.314  29.880   2.794
35708W        W  968  44.839   7.854   4.504
35709W        W  969   9.739  37.957   2.462
35710W        W  970  29.107   8.368   2.307
35711W        W  971  31.870   6.667   3.302
35712W        W  972  44.065  22.141  12.606
35713W        W  973   2.769  44.884  12.321
35714W        W  974  27.098  27.403  12.934
35715W        W  975  23.818  22.746   4.308
35716W        W  976  27.277  23.967   0.712
35717W        W  977   4.238   0.735   3.258
35718W        W  978   0.922  31.455   3.799
35719W        W  979  41.449  28.011  11.996
35720W        W  980  27.693  17.823  12.088
35721W        W  981  29.640  37.718  11.106
35722W        W  982  14.797  22.650   2.189
35723W        W  983  11.414   2.777   2.705
35724W        W  984  10.858  23.935   2.603
35725W        W  985  37.122  11.875  11.144
35726W        W  986  39.288  20.823  14.452
35727W        W  987  27.164  33.543   0.335
35728W        W  988  26.064  38.241  13.410
35729W        W  989  17.288  11.160  12.114
35730W        W  990  13.228  11.242   1.288
35731W        W  991   7.180   1.310   4.682
35732W        W  992  14.101  20.726   4.129
35733W        W  993  15.046   0.410  11.489
35734W        W  994   5.836  18.597  13.772
35735W        W  995   1.786  16.806   2.120
35736W        W  996   9.654  41.366  13.819
35737W        W  997  24.199  26.507   3.943
35738W        W  998  33.123   7.653  10.693
35739W        W  999  14.437  15.368   3.271
35740W        W 1000  36.455  38.614   0.442
35741W        W 1001   6.223  44.859   2.756
35742W        W 1002  42.568  27.670  13.965
35743W        W 1003  26.811   9.793  14.305
35744W        W 1004  35.080  18.116  14.243
35745W        W 1005  12.786  23.103  14.420
35746W        W 1006  16.413  21.529   1.765
35747W        W 1007  16.106  39.251  14.787
35748W        W 1008  41.955  23.481  13.987
35749W        W 1009  33.093  25.532   0.223
35750W        W 1010  29.875  21.742  10.724
35751W        W 1011  21.512  25.613  14.014
35752W        W 1012  27.620  30.653   2.288
35753W        W 1013  15.056  34.807  12.519
35754W        W 1014  39.528   8.728   0.338
35755W        W 1015  36.598  24.583  14.743
35756W        W 1016  35.852  36.328  13.841
35757W        W 1017  44.507  16.710   0.090
35758W        W 1018  41.529  23.649   4.748
35759W        W 1019  33.632  40.482  13.981
35760W        W 1020  32.422  40.097  10.798
35761W        W 1021  35.635  23.525  13.928
35762W        W 1022  43.428   1.636  14.767
35763W        W 1023  12.509  32.384   0.949
35764W        W 1024  14.552   8.468   3.075
35765W        W 1025   9.561  28.383   1.860
35766W        W 1026  29.213   3.366   0.749
35767W        W 1027   0.018  42.045  12.975
35768W        W 1028   3.347  31.154  13.261
35769W        W 1029  38.428  19.694   3.801
35770W        W 1030  29.979   9.665   4.838
35771W        W 1031  26.435   5.391   4.623
35772W        W 1032  40.029  33.648   4.301
35773W        W 1033  35.355  31.368   0.455
35774W        W 1034  41.312  34.861   4.726
35775W        W 1035  39.021  12.114   1.037
35776W        W 1036  16.725  38.158   4.072
35777W        W 1037   9.968   8.141  11.315
35778W        W 1038   3.154  40.752  11.479
35779W        W 1039  39.584  26.802   3.087
35780W        W 1040   3.633  18.186   3.384
35781W        W 1041  13.277  17.112   0.384
35782W        W 1042  27.446   2.991  14.732
35783W        W 1043  44.431   4.879  12.589
35784W        W 1044  13.058   4.210   2.754
35785W        W 1045  18.862   4.669   1.162
35786W        W 1046  16.330  28.062  11.626
35787W        W 1047  34.362   4.918   2.294
35788W        W 1048  28.446  20.666   0.439
35789W        W 1049  29.998  41.820   1.824
35790W        W 1050  27.938  20.233   4.516
35791W        W 1051  27.633  42.850  11.899
35792W        W 1052  11.782  17.479   2.380
35793W        W 1053  31.015  24.619  13.428
35794W        W 1054  19.816  31.489   3.324
35795W        W 1055  22.641  38.095   2.247
35796W        W 1056  39.235  18.078  12.522
35797W        W 1057  17.356  27.964   1.886
35798W        W 1058  17.900   7.358   2.167
35799W        W 1059  13.721  38.264  13.385
35800W        W 1060  38.944   2.650   2.425
35801W        W 1061  21.179  25.553   0.408
35802W        W 1062  14.755  28.634   3.525
35803W        W 1063  15.635  41.017   0.855
35804W        W 1064  34.108  22.176   0.232
35805W        W 1065   4.233   5.831   0.350
35806W        W 1066   3.257  38.642   1.495
35807W        W 1067  26.391  30.492   4.218
35808W        W 1068   5.772   3.812  10.936
35809W        W 1069  22.295   9.508  14.376
35810W        W 1070  17.760  36.873   3.559
35811W        W 1071   9.293   2.100  10.250
35812W        W 1072  28.823   2.514   2.379
35813W        W 1073  29.266  25.126   2.425
35814W        W 1074  12.265  28.460  13.373
35815W        W 1075  21.789  35.350   0.958
35816W        W 1076  33.384  44.472  12.394
35817W        W 1077  20.818  22.104   1.518
35818W        W 1078  37.772   6.291   4.046
35819W        W 1079  21.570  15.650  12.475
35820W        W 1080   2.653  43.539  11.036
35821W        W 1081  19.239   1.390  11.266
35822W        W 1082  34.940  17.875   1.687
35823W        W 1083  22.282  32.932  14.866
35824W        W 1084  12.599  19.549   2.809
35825W        W 1085  19.959  36.721   4.300
35826W        W 1086  38.003   4.236   1.371
35827W        W 1087  21.245   0.003  13.236
35828W        W 1088  29.578  41.566   0.930
35829W        W 1089   9.846  25.727   2.606
35830W        W 1090  15.528  34.963   2.682
35831W        W 1091  34.515  39.391  14.489
35832W        W 1092  16.561  10.339  12.599
35833W        W 1093  31.507  15.403  12.949
35834W        W 1094  18.879  43.224   4.124
35835W        W 1095  44.017  18.183  10.493
35836W        W 1096  44.187   0.290   1.902
35837W        W 1097  14.828  14.692   0.881
35838W        W 1098  15.017  44.849   4.674
35839W        W 1099  31.929  27.511   3.088
35840W        W 1100  43.853  33.092  10.516
35841W        W 1101  15.108   8.367   0.362
35842W        W 1102   5.184   1.048  14.100
35843W        W 1103  18.643   5.809  12.178
35844W        W 1104   7.317  36.023   0.306
35845W        W 1105  15.573   1.519   3.324
35846W        W 1106  43.484   1.991  12.498
35847W        W 1107   8.256  13.627  13.953
35848W        W 1108   7.993  37.829  13.497
35849W        W 1109  33.402  43.350   0.724
35850W        W 1110  25.584   3.873  12.534
35851W        W 1111  22.488  39.371  11.890
35852W        W 1112   9.299   4.243   2.137
35853W        W 1113   7.844  10.581   1.289
35854W        W 1114   3.994   4.447   0.225
35855W        W 1115  21.548   2.394  14.462
35856W        W 1116  18.208   8.806  12.207
35857W        W 1117  29.095  42.675  13.943
35858W        W 1118   7.743  22.212  11.092
35859W        W 1119  27.634   0.444   1.867
35860W        W 1120  34.450  18.134   2.898
35861W        W 1121  32.228  15.990  11.826
35862W        W 1122  33.875  15.758  14.867
35863W        W 1123  33.971  12.874   0.328
35864W        W 1124  31.002  36.660   3.125
35865W        W 1125  24.561   1.783  10.526
35866W        W 1126  44.414  33.567  11.564
35867W        W 1127  26.665  17.656  14.337
35868W        W 1128   6.103  29.017  13.731
35869W        W 1129  19.256   3.849   1.530
35870W        W 1130  38.957  22.940   1.205
35871W        W 1131  38.583  32.027  14.732
35872W        W 1132  37.329  13.751   3.171
35873W        W 1133  20.644  26.544  12.493
35874W        W 1134  29.004  25.463  11.661
35875W        W 1135  28.524  29.013   3.718
35876W        W 1136   7.296  27.279  13.897
35877W        W 1137   6.907  11.771   3.329
35878W        W 1138  35.429  42.060  12.400
35879W        W 1139   9.138  21.749   4.072
35880W        W 1140  24.729  15.206  11.087
35881W        W 1141  20.176  20.971  11.501
35882W        W 1142  37.113  17.258   0.671
35883W        W 1143  18.072  10.687  14.971
35884W        W 1144  12.235  33.855   1.786
35885W        W 1145   6.612  39.817  10.489
35886W        W 1146  22.925  15.708   0.930
35887W        W 1147  34.510   4.915  14.702
35888W        W 1148  31.510   5.828   2.890
35889W        W 1149  16.037  16.559   4.238
35890W        W 1150  15.202  32.147  14.440
35891W        W 1151  19.691  40.348  11.238
35892W        W 1152  30.244  33.039   4.039
35893W        W 1153   0.381  40.272  14.892
35894W        W 1154   8.058  28.889   1.259
35895W        W 1155  27.674  18.164   3.812
35896W        W 1156  38.634  22.565   0.294
35897W        W 1157   1.449  23.602  10.578
35898W        W 1158  28.628   2.902   3.069
35899W        W 1159  37.103  12.093  13.318
35900W        W 1160  10.189   6.286  14.073
35901W        W 1161   2.029  33.034  14.394
35902W        W 1162  12.167  34.190  13.065
35903W        W 1163  14.848  30.975  14.815
35904W        W 1164  19.744  16.616   0.281
35905W        W 1165  40.925  14.866  10.806
35906W        W 1166  40.901  36.434   0.348
35907W        W 1167   2.458  31.655   5.096
35908W        W 1168  20.997  10.812   0.694
35909W        W 1169  38.202  33.407   4.126
35910W        W 1170  28.117  20.882   0.772
35911W        W 1171   7.299  29.902   0.311
35912W        W 1172   2.955   2.252   0.920
35913W        W 1173  42.469  19.030   1.931
35914W        W 1174  10.581   7.733  14.075
35915W        W 1175   6.136  43.383   1.015
35916W        W 1176   8.733   8.002  10.414
35917W        W 1177   4.216  28.948  12.010
35918W        W 1178  30.960   6.646   1.918
35919W        W 1179  36.835   8.697   4.935
35920W        W 1180  30.671  42.267   3.241
35921W        W 1181  18.369   3.163   4.148
35922W        W 1182  42.817  21.555  14.272
35923W        W 1183  28.465   3.899  11.065
35924W        W 1184   7.714  26.366  13.077
35925W        W 1185  43.805  32.480  11.159
35926W        W 1186  15.654  36.045  13.710
35927W        W 1187  33.089  23.255   3.806
35928W        W 1188  10.354  12.310   0.326
35929W        W 1189  12.781  37.099   4.715
35930W        W 1190  31.529  40.317  13.995
35931W        W 1191  41.825  37.544   0.214
35932W        W 1192   2.437  41.538   2.205
35933W        W 1193  14.171  15.398   2.792
35934W        W 1194  37.792  27.030   0.392
35935W        W 1195  11.108   6.817  11.663
35936W        W 1196  14.641  10.688  11.041
35937W        W 1197  28.526   4.257  13.003
35938W        W 1198  27.743  10.339  14.905
35939W        W 1199  20.560  34.532  10.950
35940W        W 1200  26.699  17.621  12.052
35941W        W 1201  40.507  31.050  13.929
35942W        W 1202  29.189  38.035  14.185
35943W        W 1203  10.776  11.628   1.859
35944W        W 1204  17.671  13.192   4.527
35945W        W 1205  14.289  21.586  14.721
35946W        W 1206  25.568  35.280  10.209
35947W        W 1207  43.407   3.133   2.716
35948W        W 1208  38.925  43.264   1.288
35949W        W 1209  42.958  30.872  13.578
35950W        W 1210  44.370  33.163  10.592
35951W        W 1211  34.683  14.777   3.586
35952W        W 1212  12.827  19.476  13.240
35953W        W 1213  12.800  25.982  14.868
35954W        W 1214  33.900   6.645   4.285
35955W        W 1215  23.283  42.286   2.026
35956W        W 1216  16.193   1.815  10.874
35957W        W 1217  12.551  28.700   3.207
35958W        W 1218  20.529  27.601  10.392
35959W        W 1219   4.643   0.456   1.148
35960W        W 1220  43.581  39.375   0.759
35961W        W 1221  25.039  38.015   1.386
35962W        W 1222   9.133   8.071  11.090
35963W        W 1223  37.823  36.916   0.714
35964W        W 1224  26.622   2.646  11.761
35965W        W 1225  31.219  22.748   0.460
35966W        W 1226  22.980  35.551   0.880
35967W        W 1227  18.028  34.494   2.617
35968W        W 1228  42.906  10.535   2.266
35969W        W 1229  24.137  30.165   2.179
35970W        W 1230  24.100  30.728   0.807
35971W        W 1231  43.041  16.694   1.884
35972W        W 1232  28.686  33.406  14.407
35973W        W 1233  42.313   9.346  12.489
35974W        W 1234  29.072  11.418   2.349
35975W        W 1235  12.944  11.404  13.302
35976W        W 1236  19.534   2.935  11.032
35977W        W 1237  40.955  43.267   2.469
35978W        W 1238  34.124   6.411   2.923
35979W        W 1239   2.150  16.354   9.989
35980W        W 1240  10.107  23.575   2.651
35981W        W 1241  28.690  38.028  13.906
35982W        W 1242  11.594  22.065   0.417
35983W        W 1243  41.500   1.316   4.295
35984W        W 1244  14.022  34.841   2.817
35985W        W 1245  40.002  18.780  13.384
35986W        W 1246  27.789   1.823  13.369
35987W        W 1247  26.167  43.350  13.646
35988W        W 1248  35.671  12.335   0.296
35989W        W 1249   3.119   8.875   1.830
35990W        W 1250  42.679   7.841   3.672
35991W        W 1251  15.622  32.157   4.003
35992W        W 1252   9.202  26.230  13.992
35993W        W 1253  21.008  16.013  14.858
35994W        W 1254  31.852  35.526   3.497
35995W        W 1255   5.178   6.247  12.953
35996W        W 1256   1.349  37.606   0.447
35997W        W 1257  42.508  16.208   0.793
35998W        W 1258  21.233  17.253  12.927
35999W        W 1259   4.504  19.028   3.611
36000W        W 1260  16.051  12.907   2.803
36001W        W 1261  35.175  41.821  12.025
36002W        W 1262  27.678  33.342   4.957
36003W        W 1263   2.812  35.922   4.414
36004W        W 1264  10.396   3.137  13.842
36005W        W 1265  12.175  16.132  12.147
36006W        W 1266  12.239  12.701   4.897
36007W        W 1267  36.837  11.874  12.905
36008W        W 1268  32.477  26.146  13.478
36009W        W 1269  37.922  36.626  11.899
36010W        W 1270  37.311  31.047  10.353
36011W        W 1271  21.200  11.805  10.716
36012W        W 1272  32.459  11.225   4.936
36013W        W 1273  35.623  30.436   3.174
36014W        W 1274  37.960  12.760  11.260
36015W        W 1275  39.208  26.246  14.513
36016W        W 1276  14.680  10.696   2.193
36017W        W 1277  14.199   2.214   0.836
36018W        W 1278  40.034  34.434   4.523
36019W        W 1279   4.948   6.202   2.688
36020W        W 1280  44.551  44.467   0.843
36021W        W 1281   4.117  14.589  11.578
36022W        W 1282  37.129  43.695   3.226
36023W        W 1283  43.871  18.768  11.917
36024W        W 1284  20.669  14.691  12.582
36025W        W 1285  17.902  39.120  11.998
36026W        W 1286  10.774  22.570   3.677
36027W        W 1287  14.786  44.477  10.619
36028W        W 1288  29.526  39.328   0.588
36029W        W 1289   1.452  15.139   1.410
36030W        W 1290   6.992  14.933  14.827
36031W        W 1291  25.729   6.019   3.169
36032W        W 1292  40.492  41.889  14.021
36033W        W 1293  23.811  37.492   0.243
36034W        W 1294  31.575   8.970   4.402
36035W        W 1295  19.972  28.980  11.615
36036W        W 1296  38.049  18.796  10.763
36037W        W 1297  35.146  26.159  11.656
36038W        W 1298  13.662  17.720  13.396
36039W        W 1299  41.435  26.263   1.899
36040W        W 1300  33.125  36.000  13.341
36041W        W 1301  30.217  13.744   3.307
36042W        W 1302  11.794  21.774   3.884
36043W        W 1303  43.364  29.444   4.184
36044W        W 1304  12.565  26.075   2.265
36045W        W 1305  20.160  26.113  14.336
36046W        W 1306  33.549  38.549   3.675
36047W        W 1307  19.671  12.678  12.621
36048W        W 1308   8.703  44.944  10.404
36049W        W 1309  32.864   5.320   0.879
36050W        W 1310  21.533  10.922  11.716
36051W        W 1311   0.666  43.184   3.082
36052W        W 1312   3.314  11.186   0.355
36053W        W 1313  16.243  40.323   0.842
36054W        W 1314  21.731  42.590  14.171
36055W        W 1315  23.976  44.458   2.227
36056W        W 1316   9.115   4.644  10.685
36057W        W 1317   1.505  24.769  14.053
36058W        W 1318  35.790   1.280  11.766
36059W        W 1319  31.078  22.187   4.834
36060W        W 1320  22.241   1.583  11.253
36061W        W 1321   7.626   7.441   4.608
36062W        W 1322  17.525  30.676   4.604
36063W        W 1323  35.358  36.534  12.882
36064W        W 1324  16.720   8.083   4.873
36065W        W 1325  28.684  27.107   1.339
36066W        W 1326  20.192  36.296   3.170
36067W        W 1327  14.245  36.497   1.234
36068W        W 1328   8.413  38.870   4.063
36069W        W 1329   0.583  24.962   2.219
36070W        W 1330  33.630  25.038   0.965
36071W        W 1331   5.266  20.272   2.919
36072W        W 1332   7.020   2.822  12.584
36073W        W 1333  43.313  23.139  11.449
36074W        W 1334   8.474  12.186  14.465
36075W        W 1335  18.829  12.628   2.337
36076W        W 1336  44.986  11.579   0.928
36077W        W 1337  18.133   0.667   4.111
36078W        W 1338  31.050  28.729  14.862
36079W        W 1339  32.392  41.236  13.350
36080W        W 1340  36.365  25.179   4.725
36081W        W 1341  30.606   2.482   0.698
36082W        W 1342  43.502  30.473   0.721
36083W        W 1343  40.606   9.179   0.301
36084W        W 1344  29.530  13.031   1.828
36085W        W 1345  28.098  29.081   2.413
36086W        W 1346  21.918  44.274  13.812
36087W        W 1347  35.516  30.452   1.019
36088W        W 1348  20.039   0.838   2.189
36089W        W 1349  34.169  15.168  11.078
36090W        W 1350   5.122  28.994   1.770
36091W        W 1351  24.426  44.864   4.102
36092W        W 1352   6.688  13.830  10.794
36093W        W 1353  10.672   0.960  10.705
36094W        W 1354  37.710   2.277  13.363
36095W        W 1355  22.841  14.390   3.219
36096W        W 1356  24.945  43.890   2.653
36097W        W 1357  14.367  34.620  12.848
36098W        W 1358   1.243  10.462  14.393
36099W        W 1359  35.121  27.582  14.692
36100W        W 1360   3.953  27.753   3.738
36101W        W 1361  34.394  23.171   1.313
36102W        W 1362   9.383  36.363  12.392
36103W        W 1363  28.106  38.565   2.966
36104W        W 1364   9.678   5.403  12.903
36105W        W 1365   5.195  41.898  10.551
36106W        W 1366  16.829  44.829  12.929
36107W        W 1367  32.076  11.375   1.689
36108W        W 1368  19.099  44.354   0.149
36109W        W 1369  32.371  15.845   3.543
36110W        W 1370  16.947  23.630  12.013
36111W        W 1371  41.840  35.162   0.416
36112W        W 1372   7.993   3.647  14.481
36113W        W 1373  18.935  39.285   3.289
36114W        W 1374  14.722  39.009  11.997
36115W        W 1375  17.953  24.153  14.496
36116W        W 1376  24.569   3.936   3.156
36117W        W 1377  18.176  44.958  12.030
36118W        W 1378   3.778  18.719  13.436
36119W        W 1379   5.096   4.203  12.088
36120W        W 1380  29.133  30.219   4.726
36121W        W 1381  38.212  21.808  14.935
36122W        W 1382   4.810   6.724  14.918
36123W        W 1383   6.193   0.557  14.567
36124W        W 1384  36.837  37.632  14.833
36125W        W 1385  43.567  14.631  12.502
36126W        W 1386   5.818   9.576  14.876
36127W        W 1387   4.479  44.221   0.993
36128W        W 1388  22.781  40.338  13.292
36129W        W 1389  27.722  37.503  13.005
36130W        W 1390  14.304  21.803   0.193
36131W        W 1391  28.242  33.598   0.406
36132W        W 1392   4.850   8.205  13.829
36133W        W 1393  40.764  25.657   3.580
36134W        W 1394  29.872  34.436   2.807
36135W        W 1395  33.073   0.770  12.489
36136W        W 1396   3.709  10.819   1.150
36137W        W 1397  39.638   1.447  11.984
36138W        W 1398  24.600  24.255   4.008
36139W        W 1399  25.676  34.200   1.936
36140W        W 1400  28.423   6.873   4.233
36141W        W 1401  13.789  14.568   3.756
36142W        W 1402   2.994  29.153  12.634
36143W        W 1403   1.726  12.123  10.131
36144W        W 1404  36.008  41.480   2.166
36145W        W 1405  22.969   3.435   2.136
36146W        W 1406  17.740  43.568   1.449
36147W        W 1407  18.229  35.080   0.983
36148W        W 1408  42.577  40.632   1.831
36149W        W 1409  44.318  33.864  14.233
36150W        W 1410  36.943  44.852   9.680
36151W        W 1411  13.370  27.034  13.620
36152W        W 1412  43.397  37.537   4.858
36153W        W 1413   1.838   7.873   3.360
36154W        W 1414  14.618  30.103   3.128
36155W        W 1415  17.758  10.494  14.469
36156W        W 1416  44.450  36.421  12.565
36157W        W 1417   8.875  25.166   9.801
36158W        W 1418   1.445  25.106  11.902
36159W        W 1419  42.528  39.086  11.510
36160W        W 1420  28.182  35.898   2.770
36161W        W 1421   6.328   3.739  14.799
36162W        W 1422  18.557   7.918  14.830
36163W        W 1423   8.405  25.750   1.870
36164W        W 1424  27.420   2.414   2.663
36165W        W 1425   3.677  15.136  14.966
36166W        W 1426  35.850  16.589   0.928
36167W        W 1427  26.921   5.852  12.565
36168W        W 1428   3.916  44.593   3.404
36169W        W 1429  16.646  32.855   2.169
36170W        W 1430   4.180  17.447  13.887
36171W        W 1431  28.535  43.833  14.753
36172W        W 1432  35.377  33.947  12.205
36173W        W 1433  16.017  36.786   1.195
36174W        W 1434  37.501  29.519   3.818
36175W        W 1435   3.499   1.790   2.572
36176W        W 1436   4.697  35.587   1.356
36177W        W 1437  12.608   2.993   0.278
36178W        W 1438  39.004  30.470   4.931
36179W        W 1439  33.578  12.670   0.585
36180W        W 1440  16.473  21.616   1.136
36181W        W 1441   4.025  38.973   1.889
36182W        W 1442  10.952   2.855  12.408
36183W        W 1443  10.675   3.292  14.767
36184W        W 1444  14.556   3.473   5.062
36185W        W 1445   2.232  24.502  11.547
36186W        W 1446  24.552  30.520   0.997
36187W        W 1447  20.624   6.630   3.814
36188W        W 1448  39.886  33.885  12.627
36189W        W 1449  39.971  41.112  13.960
36190W        W 1450  37.150  20.595  14.801
36191W        W 1451  11.931   6.395  12.429
36192W        W 1452  40.557  14.138   4.004
36193W        W 1453  26.163  34.835  11.418
36194W        W 1454  15.021  38.378  14.046
36195W        W 1455  31.977  13.191   4.149
36196W        W 1456   8.198   6.727  13.548
36197W        W 1457   6.473  20.048   4.161
36198W        W 1458  15.107   0.606  10.317
36199W        W 1459  12.879   1.890   3.764
36200W        W 1460  29.615   1.355  12.330
36201W        W 1461  33.671  22.676  12.967
36202W        W 1462   5.186   3.366   2.375
36203W        W 1463  29.709  12.076  12.508
36204W        W 1464   6.746  10.850   2.838
36205W        W 1465  28.879  22.073   2.323
36206W        W 1466  19.142   6.855  12.862
36207W        W 1467  20.255  30.595  12.994
36208W        W 1468  36.934   4.041   0.754
36209W        W 1469  19.877  29.864   1.493
36210W        W 1470   2.369   8.623   2.108
36211W        W 1471  34.654  23.528  14.770
36212W        W 1472  10.486   4.372   2.293
36213W        W 1473  23.658  32.304  14.867
36214W        W 1474  38.416  29.143  13.754
36215W        W 1475   9.572  20.947   4.352
36216W        W 1476  14.443  19.611   5.065
36217W        W 1477  13.649   8.634   1.655
36218W        W 1478  44.352  34.846   0.974
36219W        W 1479  21.959   7.987  12.152
36220W        W 1480  44.380   2.839  12.868
36221W        W 1481  32.172  23.764   3.682
36222W        W 1482  34.253  36.005   0.976
36223W        W 1483   4.352   6.929   5.075
36224W        W 1484  16.058  26.545   3.784
36225W        W 1485   9.119  25.160  14.890
36226W        W 1486  35.430   6.730   3.154
36227W        W 1487  44.765   0.722  13.084
36228W        W 1488  32.122  11.442  13.526
36229W        W 1489  30.392   8.645   4.098
36230W        W 1490  41.526   8.584   4.621
36231W        W 1491  39.300  18.844   0.821
36232W        W 1492   4.862  13.116   2.819
36233W        W 1493   6.454  13.318   1.385
36234W        W 1494  12.743  43.871   1.917
36235W        W 1495  19.549  23.614   0.639
36236W        W 1496  22.766  44.506  13.492
36237W        W 1497  16.343  35.926   2.893
36238W        W 1498   8.110  42.830  12.176
36239W        W 1499  39.215  34.655   0.049
36240W        W 1500  39.244   9.164   2.701
36241W        W 1501  11.659  43.614   1.371
36242W        W 1502   8.462  17.165   2.767
36243W        W 1503  13.571  39.326  14.670
36244W        W 1504  12.840  20.791  14.667
36245W        W 1505  13.850  18.526   0.699
36246W        W 1506  27.589   9.839  14.895
36247W        W 1507  19.397   1.835   1.860
36248W        W 1508   2.055  31.964  11.212
36249W        W 1509   7.330  13.951   1.042
36250W        W 1510  24.536  30.381  12.159
36251W        W 1511  44.422  40.242  11.512
36252W        W 1512  41.917  17.002   2.714
36253W        W 1513   0.867  29.476   3.359
36254W        W 1514   0.799  30.212   2.518
36255W        W 1515  29.313  14.285  11.233
36256W        W 1516  34.657  34.523   0.954
36257W        W 1517  31.818  17.226   1.457
36258W        W 1518  24.535  30.180   2.755
36259W        W 1519  20.318  35.254   2.816
36260W        W 1520  17.340   6.955  12.554
36261W        W 1521   4.497  41.994   1.434
36262W        W 1522  33.425  15.270  12.509
36263W        W 1523   4.351   5.100   4.981
36264W        W 1524  19.553  12.190   4.193
36265W        W 1525  34.927   0.759  12.017
36266W        W 1526  25.971  10.324   1.732
36267W        W 1527  41.510  39.379   0.871
36268W        W 1528   3.542  11.199   4.829
36269W        W 1529  25.245  12.665   2.279
36270W        W 1530  35.887  26.248  10.444
36271W        W 1531  11.085  22.534  11.129
36272W        W 1532  17.138  40.327  11.118
36273W        W 1533  15.564   5.741   1.797
36274W        W 1534  42.261  13.291  14.742
36275W        W 1535   7.374   3.816   0.834
36276W        W 1536  23.789   5.290  13.490
36277W        W 1537  25.895  10.243  12.961
36278W        W 1538  29.343  23.536  14.438
36279W        W 1539   1.439  38.396   4.074
36280W        W 1540  28.368  31.152   1.804
36281W        W 1541   2.160   4.919  13.460
36282W        W 1542  20.686  21.767   2.368
36283W        W 1543  38.079  13.535   3.637
36284W        W 1544   4.160  23.800  11.655
36285W        W 1545  36.744   5.414   4.242
36286W        W 1546  33.508   9.784  13.391
36287W        W 1547  31.545  35.572  12.035
36288W        W 1548  38.246  15.267  11.015
36289W        W 1549   6.714  26.120   4.528
36290W        W 1550  25.698  31.415  10.703
36291W        W 1551  30.632  31.544  12.179
36292W        W 1552  38.752  40.429   0.711
36293W        W 1553   7.930  21.278   0.977
36294W        W 1554  35.392  11.122   2.241
36295W        W 1555  36.955   8.810  13.037
36296W        W 1556  10.663  37.842  12.801
36297W        W 1557  39.423   3.473  12.661
36298W        W 1558  13.133  19.654  11.012
36299W        W 1559   4.991  31.952  14.627
36300W        W 1560  21.137  16.482   0.018
36301W        W 1561   0.964  34.409  11.620
36302W        W 1562  10.375  41.829   5.267
36303W        W 1563  15.734  31.671  14.880
36304W        W 1564  39.917  37.090  11.463
36305W        W 1565  23.455  16.045   0.040
36306W        W 1566  28.985   4.644   0.967
36307W        W 1567  28.690  19.966   3.179
36308W        W 1568  36.220  40.559  11.316
36309W        W 1569  29.134  40.887  14.855
36310W        W 1570  43.775  20.656   0.233
36311W        W 1571   0.991  14.865   0.449
36312W        W 1572  29.667  32.358   1.847
36313W        W 1573  43.411  18.773   0.539
36314W        W 1574   3.754  38.385   0.448
36315W        W 1575   2.131  11.472  14.945
36316W        W 1576   1.226  24.548   3.275
36317W        W 1577  31.613  11.537   1.869
36318W        W 1578   9.825  22.964   9.647
36319W        W 1579   4.623   1.438   1.455
36320W        W 1580  24.975   7.724   4.110
36321W        W 1581  41.908   4.462   1.795
36322W        W 1582  20.599  25.182   1.729
36323W        W 1583  17.258  20.715   1.753
36324W        W 1584  10.766  18.596  13.063
36325W        W 1585  28.016   7.050   3.621
36326W        W 1586   2.179  13.868  11.690
36327W        W 1587   2.045   5.690   3.262
36328W        W 1588   0.346  44.444  13.858
36329W        W 1589  32.909  29.695  13.363
36330W        W 1590  36.888   6.682   2.555
36331W        W 1591  24.275  37.747   1.755
36332W        W 1592   9.101  33.140  13.736
36333W        W 1593   8.866  42.531  12.147
36334W        W 1594  21.067   8.373  11.801
36335W        W 1595  39.361  43.124   4.942
36336W        W 1596  28.369  19.359  12.085
36337W        W 1597  35.595   8.787  12.058
36338W        W 1598  11.927  26.271   9.742
36339W        W 1599  21.560  41.063   1.914
36340W        W 1600  13.298  19.052  12.279
36341W        W 1601   8.290   8.164  10.966
36342W        W 1602  37.305  24.002   0.915
36343W        W 1603  38.403   6.792  14.736
36344W        W 1604  14.743  39.469   2.202
36345W        W 1605  19.675   4.857  13.383
36346W        W 1606  16.290  37.458  12.513
36347W        W 1607   7.998   2.951   1.792
36348W        W 1608   7.252  22.188   1.331
36349W        W 1609  19.821  23.743  11.539
36350W        W 1610  27.244  19.650  10.491
36351W        W 1611  29.565  27.037   0.800
36352W        W 1612  39.085  14.429  14.557
36353W        W 1613  16.394  21.637   3.185
36354W        W 1614   2.447  11.347  12.428
36355W        W 1615   7.221   5.229   0.419
36356W        W 1616  44.475  30.598  13.034
36357W        W 1617   1.494  37.948   1.268
36358W        W 1618  17.762   5.327  12.967
36359W        W 1619  40.493  31.462   0.422
36360W        W 1620   5.508  23.232  11.541
36361W        W 1621   8.159   0.720  12.949
36362W        W 1622  27.458   5.308   0.540
36363W        W 1623  26.927  37.288  11.971
36364W        W 1624   9.927  10.116   4.189
36365W        W 1625  18.211  12.863  12.504
36366W        W 1626  10.214   3.536   1.860
36367W        W 1627  18.725  34.889  10.610
36368W        W 1628   6.827  28.354   4.499
36369W        W 1629  29.471  15.032   1.388
36370W        W 1630  24.797  11.339  13.418
36371W        W 1631  18.309   0.779  11.442
36372W        W 1632  12.585  37.065  14.277
36373W        W 1633  23.999  33.535   4.164
36374W        W 1634  42.276  42.890   4.696
36375W        W 1635  38.093  28.021   0.738
36376W        W 1636   2.630   8.327  14.735
36377W        W 1637  37.420   2.632   5.331
36378W        W 1638  21.448  14.751  11.222
36379W        W 1639  27.364   4.332  11.473
36380W        W 1640  14.313  30.119   4.448
36381W        W 1641  15.187  28.207  14.244
36382W        W 1642   5.226  14.805   0.602
36383W        W 1643  26.443  22.329   3.751
36384W        W 1644  44.980   4.905   1.927
36385W        W 1645  43.034   1.033   0.241
36386W        W 1646  43.230  18.457   1.425
36387W        W 1647  21.111  29.631  14.870
36388W        W 1648  18.069  34.828  14.837
36389W        W 1649  36.625   8.690  12.101
36390W        W 1650  36.200  22.357  12.111
36391W        W 1651  33.282  35.299  11.979
36392W        W 1652  37.115  31.471   4.297
36393W        W 1653  38.846  42.347  12.441
36394W        W 1654  10.875   9.642  13.698
36395W        W 1655  23.685  38.369  11.590
36396W        W 1656  25.585  40.843  14.377
36397W        W 1657  10.191  14.662  13.068
36398W        W 1658  43.340  16.998   0.745
36399W        W 1659  12.357  18.162  11.039
36400W        W 1660  37.570  44.559   3.018
36401W        W 1661  23.044  15.653   3.827
36402W        W 1662   7.739  29.059  12.079
36403W        W 1663  34.491   8.284  13.879
36404W        W 1664  30.151  29.757   2.738
36405W        W 1665  23.703  29.938   0.463
36406W        W 1666  14.279   7.184  11.341
36407W        W 1667  28.012  23.840  12.848
36408W        W 1668  39.337  12.500  11.712
36409W        W 1669  28.718  34.010  13.419
36410W        W 1670   7.484   1.329  13.974
36411W        W 1671   4.776  33.867   4.149
36412W        W 1672   2.181   5.794  11.605
36413W        W 1673  21.980  20.787  11.025
36414W        W 1674  34.382  34.058  10.690
36415W        W 1675  10.759   1.635   0.492
36416W        W 1676  15.330   9.681  10.731
36417W        W 1677   5.487  41.057  13.984
36418W        W 1678  19.072   1.761   1.431
36419W        W 1679  19.252   3.210  12.516
36420W        W 1680  31.983   8.312   4.678
36421W        W 1681  10.349  19.629  13.506
36422W        W 1682   2.069  25.738  13.634
36423W        W 1683   6.211  34.588   3.311
36424W        W 1684  24.754  44.066   4.316
36425W        W 1685  28.155  21.947   3.794
36426W        W 1686  37.498  33.369   3.576
36427W        W 1687  17.649  38.005  11.005
36428W        W 1688  31.804  21.854  13.966
36429W        W 1689  24.457   4.876  11.964
36430W        W 1690   1.308  31.160  13.297
36431W        W 1691  35.688  16.013  11.474
36432W        W 1692  21.208  14.792  12.519
36433W        W 1693  44.168   6.418   3.653
36434W        W 1694  29.041  39.271  12.706
36435W        W 1695  30.617  39.339  12.624
36436W        W 1696   3.212   9.822   1.838
36437W        W 1697   8.771  20.983   3.277
36438W        W 1698   9.043  29.553  13.695
36439W        W 1699  12.312  29.824   3.827
36440W        W 1700   1.754  34.344   3.570
36441W        W 1701  35.975  42.030  10.717
36442W        W 1702  42.442   3.701   3.137
36443W        W 1703  29.571  44.406   2.472
36444W        W 1704  40.383  16.002  11.478
36445W        W 1705  19.577  29.549   3.291
36446W        W 1706  36.658  13.311   1.695
36447W        W 1707   3.182  22.256  14.075
36448W        W 1708  26.261  33.904  11.675
36449W        W 1709  28.580  39.999  13.035
36450W        W 1710   7.773  33.926   4.659
36451W        W 1711   0.525   4.804  12.731
36452W        W 1712  26.386  19.064  12.115
36453W        W 1713  28.069  21.548  10.444
36454W        W 1714  15.316  36.401  10.754
36455W        W 1715  15.776  23.269   0.734
36456W        W 1716  44.425  44.843   1.186
36457W        W 1717  34.034  19.764  13.543
36458W        W 1718  11.368   9.368  11.552
36459W        W 1719  38.404  18.016   3.975
36460W        W 1720   6.206  36.701   2.733
36461W        W 1721   0.812   0.279   4.302
36462W        W 1722  31.714   4.825   1.412
36463W        W 1723  19.289   0.848   2.692
36464W        W 1724  23.603  10.229   4.651
36465W        W 1725   7.862  23.542  12.982
36466W        W 1726  29.751  16.144   1.249
36467W        W 1727   8.947  37.473  13.820
36468W        W 1728  30.671  43.240   0.430
36469W        W 1729   2.891   0.980   2.259
36470W        W 1730  10.579  31.912  12.330
36471W        W 1731   2.481  17.866   1.785
36472W        W 1732   2.375  32.880  12.960
36473W        W 1733  27.883   7.764   0.172
36474W        W 1734   5.352  36.559   4.496
36475W        W 1735  18.475  35.090  11.013
36476W        W 1736  41.351   8.866  11.136
36477W        W 1737  34.959  43.507  13.671
36478W        W 1738  27.422  44.938   2.615
36479W        W 1739  39.278   4.782  10.067
36480W        W 1740  19.281  22.829  12.440
36481W        W 1741  20.243  29.487  13.468
36482W        W 1742  30.997  28.895   2.326
36483W        W 1743  23.462  16.863   3.651
36484W        W 1744  37.445  30.566  13.745
36485W        W 1745  39.101  41.459  12.466
36486W        W 1746   2.438  27.492   3.730
36487W        W 1747  23.027  26.250  12.442
36488W        W 1748  15.758  18.628   0.264
36489W        W 1749   7.355   5.801  13.824
36490W        W 1750  41.568  10.577   1.291
36491W        W 1751  40.236   6.549   1.713
36492W        W 1752   0.281  43.757   4.845
36493W        W 1753  28.293   2.646   2.723
36494W        W 1754  41.787  39.588   3.858
36495W        W 1755  21.979  43.943  10.612
36496W        W 1756  30.237  32.969   0.884
36497W        W 1757  12.858  31.676  13.893
36498W        W 1758  36.122   6.921  12.988
36499W        W 1759  11.262  36.968   0.248
36500W        W 1760  13.089  24.953  14.650
36501W        W 1761  19.145  20.210   0.922
36502W        W 1762  30.161  18.245   1.521
36503W        W 1763  39.533  34.508   1.065
36504W        W 1764  18.199   3.961  12.368
36505W        W 1765  14.096  44.419   3.715
36506W        W 1766   6.398   1.436   0.281
36507W        W 1767  38.535  25.075   3.241
36508W        W 1768  18.219  26.606   2.636
36509W        W 1769  40.744  13.456   9.728
36510W        W 1770  18.375   6.226  12.876
36511W        W 1771  16.696  40.078  11.040
36512W        W 1772   8.285   7.000  13.108
36513W        W 1773  34.687   8.846   3.322
36514W        W 1774  23.165  28.593  10.907
36515W        W 1775   3.895  24.396   3.829
36516W        W 1776  21.140  14.599  14.894
36517W        W 1777  29.193  32.808   0.969
36518W        W 1778  22.058   9.928   1.300
36519W        W 1779   6.718  14.817   1.410
36520W        W 1780  32.578  37.402  12.287
36521W        W 1781  37.886  40.893  11.984
36522W        W 1782  21.604  31.426   1.775
36523W        W 1783  28.986   6.213  13.242
36524W        W 1784   6.326  28.587  11.390
36525W        W 1785  23.953   9.357   2.153
36526W        W 1786   9.709  39.547   4.022
36527W        W 1787  32.920  19.849   2.768
36528W        W 1788  37.889  41.080  13.534
36529W        W 1789   9.913  14.693   1.857
36530W        W 1790   9.937  24.822   2.344
36531W        W 1791  39.402   9.382   3.156
36532W        W 1792  23.982  16.724  11.184
36533W        W 1793   2.379   5.834   0.247
36534W        W 1794  29.924  36.840   0.927
36535W        W 1795   5.337  40.334  12.876
36536W        W 1796  26.645  12.112  14.360
36537W        W 1797  44.020  36.308   3.266
36538W        W 1798  13.105   5.261  11.899
36539W        W 1799  12.724   8.698  13.967
36540W        W 1800  36.730  21.212  13.635
36541W        W 1801  29.200  42.519   3.247
36542W        W 1802   5.176   3.169   1.112
36543W        W 1803   1.603  38.935   1.187
36544W        W 1804  11.465   0.527   4.712
36545W        W 1805   0.292  12.811   2.914
36546W        W 1806  11.086  44.906   4.424
36547W        W 1807   5.263   6.987   2.225
36548W        W 1808   9.276   9.415  14.252
36549W        W 1809   9.843  32.115   4.565
36550W        W 1810  34.379  25.112   9.862
36551W        W 1811  42.259   3.941  10.769
36552W        W 1812  33.818  42.730  12.229
36553W        W 1813   4.512   6.840   1.330
36554W        W 1814   4.342  15.701  14.773
36555W        W 1815  43.992  19.572   3.876
36556W        W 1816  28.494  27.040   4.507
36557W        W 1817   8.347  31.308  10.990
36558W        W 1818  30.537   8.914   3.207
36559W        W 1819   2.348  22.541  12.846
36560W        W 1820   0.163   2.293  13.320
36561W        W 1821  22.292   7.781   3.334
36562W        W 1822  23.145   2.248  14.365
36563W        W 1823  29.923  32.409  11.133
36564W        W 1824  22.734  34.476  11.542
36565W        W 1825  33.722  35.950   0.977
36566W        W 1826  31.996  42.787   0.222
36567W        W 1827  41.160   5.182  14.460
36568W        W 1828  21.004  24.917   3.198
36569W        W 1829  19.813   9.221   0.471
36570W        W 1830  39.382  26.190  11.567
36571W        W 1831  27.149  14.292  13.292
36572W        W 1832  26.043  44.359   1.881
36573W        W 1833   8.206  29.606   1.775
36574W        W 1834  18.353  18.762   4.213
36575W        W 1835  39.471  17.825  11.209
36576W        W 1836  36.591  42.498   2.235
36577W        W 1837  20.631   4.482  14.922
36578W        W 1838   4.299  24.736   3.191
36579W        W 1839  14.796  10.378   1.788
36580W        W 1840  18.151  13.297   4.337
36581W        W 1841  36.870  40.677  11.011
36582W        W 1842   8.737   9.314  13.561
36583W        W 1843  35.577  14.816  10.590
36584W        W 1844  13.001  11.221   0.229
36585W        W 1845  10.706   5.297   5.434
36586W        W 1846  29.247  36.050   1.776
36587W        W 1847   4.037  37.530  13.362
36588W        W 1848   6.024  12.859   0.203
36589W        W 1849  21.827  21.285   5.159
36590W        W 1850  27.745  21.059  13.452
36591W        W 1851   1.023  22.465   4.152
36592W        W 1852  23.876  37.157   0.667
36593W        W 1853   6.735  32.573  10.720
36594W        W 1854  29.037  38.648   4.195
36595W        W 1855  39.938   4.005   4.139
36596W        W 1856  33.553  10.154   3.636
36597W        W 1857  29.345  41.166   1.231
36598W        W 1858  10.816  24.432   2.394
36599W        W 1859  40.287   1.251   2.353
36600W        W 1860  44.221  21.964  14.888
36601W        W 1861   2.395  16.159  14.447
36602W        W 1862  24.821   8.326   4.932
36603W        W 1863  44.825   1.503   0.142
36604W        W 1864  35.702  12.327  14.420
36605W        W 1865  31.462  27.038  13.127
36606W        W 1866   8.256  44.363  10.385
36607W        W 1867  26.989  15.200  13.469
36608W        W 1868  19.622   9.155   5.066
36609W        W 1869  17.435   2.593  13.960
36610W        W 1870   5.345   8.655  11.300
36611W        W 1871   8.757  11.261   3.742
36612W        W 1872  36.075  21.896  10.842
36613W        W 1873  37.776  29.597   0.287
36614W        W 1874   3.163  35.378  13.377
36615W        W 1875   5.052  39.285  13.050
36616W        W 1876  33.067  40.346   4.111
36617W        W 1877  20.809  10.255  11.368
36618W        W 1878  25.039   3.305  11.428
36619W        W 1879   1.243   4.888  14.251
36620W        W 1880  20.030   9.088  13.789
36621W        W 1881  27.638  26.545  11.897
36622W        W 1882  18.281  15.820  14.297
36623W        W 1883  14.142  20.531   4.951
36624W        W 1884   9.438  32.336  14.782
36625W        W 1885  17.141  44.796  14.203
36626W        W 1886  24.696  19.995   1.202
36627W        W 1887  23.161  33.805   3.043
36628W        W 1888   3.867   3.894   3.887
36629W        W 1889  11.133  40.549  14.796
36630W        W 1890  24.079   2.913  13.977
36631W        W 1891  29.614  16.132   2.622
36632W        W 1892  42.933  42.794  14.994
36633W        W 1893  38.434  13.239  13.067
36634W        W 1894  14.191  42.963   2.233
36635W        W 1895  21.937  42.069  14.260
36636W        W 1896  18.920  40.902   4.499
36637W        W 1897  23.003  44.403   4.227
36638W        W 1898  26.001  30.919   4.715
36639W        W 1899  22.706   3.173  10.654
36640W        W 1900  31.182  25.688   0.300
36641W        W 1901  20.908  44.244  13.815
36642W        W 1902  22.973  25.573  13.573
36643W        W 1903   8.405  13.151  10.667
36644W        W 1904  24.045  27.062   1.657
36645W        W 1905  36.534   3.439  12.629
36646W        W 1906  15.808  26.660   2.160
36647W        W 1907  26.581  10.200  14.100
36648W        W 1908   7.799  24.495   1.793
36649W        W 1909  21.477  24.508   4.144
36650W        W 1910  42.794   5.403   0.321
36651W        W 1911  33.835  33.048  11.531
36652W        W 1912  39.544  24.168  13.039
36653W        W 1913  15.064   4.083   0.386
36654W        W 1914  27.758  36.456   2.536
36655W        W 1915  44.933   2.709  12.594
36656W        W 1916   4.337  12.146  12.511
36657W        W 1917  19.628  28.200  12.407
36658W        W 1918  27.526   0.991   2.057
36659W        W 1919  16.301  36.794   2.836
36660W        W 1920  27.180   7.857  13.302
36661W        W 1921  25.296  34.318   5.028
36662W        W 1922  12.853  19.119   0.043
36663W        W 1923   8.759  15.706   0.367
36664W        W 1924   6.458  11.118   3.920
36665W        W 1925  24.408   9.764  10.559
36666W        W 1926  24.516  23.860   4.907
36667W        W 1927  10.827  31.533  11.056
36668W        W 1928   7.174  39.079   0.292
36669W        W 1929  34.722  37.616  12.718
36670W        W 1930  23.819   6.019   0.489
36671W        W 1931  10.189  28.422  14.452
36672W        W 1932  12.303  27.207   4.701
36673W        W 1933  33.895  39.040  13.499
36674W        W 1934   3.994  22.723   0.725
36675W        W 1935  16.185  27.116   3.704
36676W        W 1936   9.092   4.677   3.756
36677W        W 1937  30.639  31.935   4.770
36678W        W 1938   6.986  41.666  10.763
36679W        W 1939  22.298  29.337  13.958
36680W        W 1940   4.680  38.347   2.216
36681W        W 1941  13.142  20.169   3.278
36682W        W 1942  30.604  26.670   3.301
36683W        W 1943  29.600  28.238   1.823
36684W        W 1944   3.467   4.388   0.334
36685W        W 1945  22.198  14.049  11.046
36686W        W 1946   2.327  44.885   3.150
36687W        W 1947   4.010   2.449  10.855
36688W        W 1948   3.184  21.700   0.001
36689W        W 1949  20.576  16.129   3.595
36690W        W 1950  34.049   6.165   3.368
36691W        W 1951  30.943  15.185   3.283
36692W        W 1952  40.979  13.793  13.471
36693W        W 1953  33.381  36.264  14.768
36694W        W 1954  14.592  12.602   1.772
36695W        W 1955  24.445  33.634   2.606
36696W        W 1956   6.138  38.541  14.771
36697W        W 1957  38.169  42.510   0.797
36698W        W 1958  31.051  40.885   1.906
36699W        W 1959  11.202   9.601  14.894
36700W        W 1960  16.562   1.451  13.828
36701W        W 1961  13.634  23.540   1.782
36702W        W 1962   6.826  26.696   0.931
36703W        W 1963  28.581  41.881   3.776
36704W        W 1964  33.051  41.046  13.252
36705W        W 1965  30.917   1.670  13.969
36706W        W 1966  23.296  23.946   3.721
36707W        W 1967  34.730  34.103  10.288
36708W        W 1968  44.665  35.607  10.816
36709W        W 1969   8.568   8.238  12.393
36710W        W 1970   9.484  27.134   2.217
36711W        W 1971  20.845  19.250   2.837
36712W        W 1972   0.149  17.093  13.288
36713W        W 1973  25.283  35.995  14.468
36714W        W 1974  19.920  38.479  10.192
36715W        W 1975  33.420  11.179  14.010
36716W        W 1976  25.710  37.421   0.513
36717W        W 1977  28.964  20.614  10.913
36718W        W 1978  44.527   5.621  12.146
36719W        W 1979  26.591  41.984   4.127
36720W        W 1980   9.428  34.511  13.731
36721W        W 1981  13.400  40.767  11.346
36722W        W 1982  25.949  19.689  12.902
36723W        W 1983  18.588  40.255  11.063
36724W        W 1984  38.586  21.126   3.688
36725W        W 1985  20.555  12.741  12.050
36726W        W 1986   5.916  11.123   4.582
36727W        W 1987  28.982  19.682  14.580
36728W        W 1988  39.468  16.230   1.060
36729W        W 1989  30.288   5.478   0.667
36730W        W 1990  34.483  43.808  14.277
36731W        W 1991  20.073  11.343   1.384
36732W        W 1992  37.096  11.741   0.251
36733W        W 1993  36.589  43.348  12.513
36734W        W 1994   8.805  22.724  14.227
36735W        W 1995  17.744  25.594   3.452
36736W        W 1996  39.939  29.416  10.725
36737W        W 1997  19.058  18.714  14.952
36738W        W 1998  13.681  10.151  14.430
36739W        W 1999   7.896  36.373  12.544
36740W        W 2000  36.798  34.456  11.133
36741W        W 2001  13.167  32.845  10.664
36742W        W 2002  30.689  19.134  11.249
36743W        W 2003  43.485  12.657   0.827
36744W        W 2004  35.934  44.925   0.274
36745W        W 2005  21.015  40.139  11.918
36746W        W 2006   9.257  32.948  10.396
36747W        W 2007   3.961  12.155   2.829
36748W        W 2008   5.265  43.750   0.707
36749W        W 2009  21.225   8.850   1.783
36750W        W 2010  23.744  25.427  14.017
36751W        W 2011   2.375  35.616  13.815
36752W        W 2012  27.311   8.248  12.516
36753W        W 2013  22.070   5.489   3.272
36754W        W 2014  25.497  18.073  13.503
36755W        W 2015  28.212  39.888  13.738
36756W        W 2016  16.730   8.200   3.114
36757W        W 2017  12.623  38.549   1.771
36758W        W 2018   1.482  36.067  12.022
36759W        W 2019   7.426  20.102  12.583
36760W        W 2020   7.883  23.483   2.026
36761W        W 2021  42.224  44.329  12.521
36762W        W 2022   8.060   1.226  13.083
36763W        W 2023  33.496  36.121   4.265
36764W        W 2024  15.838  42.960   4.585
36765W        W 2025  23.693  23.070  11.546
36766W        W 2026  39.787  11.863  11.470
36767W        W 2027  10.910   9.099   4.067
36768W        W 2028  41.839  25.077  10.311
36769W        W 2029   8.139   4.265   1.834
36770W        W 2030  27.949  23.117  13.533
36771W        W 2031  10.301  27.562   2.275
36772W        W 2032   1.511  42.603  10.644
36773W        W 2033  10.117  32.448   1.151
36774W        W 2034  15.767  15.190   1.751
36775W        W 2035   4.810  14.169  10.325
36776W        W 2036   7.269  29.368  10.684
36777W        W 2037  17.427   7.511   2.038
36778W        W 2038  32.359  34.431  14.894
36779W        W 2039  17.223   7.891   4.809
36780W        W 2040   1.827  36.869   2.059
36781W        W 2041  33.905  22.691   2.329
36782W        W 2042  34.988  25.903  13.677
36783W        W 2043   4.198  16.076  12.486
36784W        W 2044  41.145  23.905  11.583
36785W        W 2045  39.811  41.999  11.532
36786W        W 2046  39.072   9.924   2.092
36787W        W 2047  43.716  26.040  14.609
36788W        W 2048  27.649  23.637  13.152
36789W        W 2049  17.114  28.512  12.869
36790W        W 2050  10.337  26.253   2.293
36791W        W 2051  32.599   5.793  14.730
36792W        W 2052  25.677   1.957  11.534
36793W        W 2053  28.068  42.686   4.118
36794W        W 2054  17.684  44.752  14.335
36795W        W 2055  10.302  17.011  11.114
36796W        W 2056  32.392  36.258  10.951
36797W        W 2057  41.992  36.608   1.378
36798W        W 2058  30.275  37.769   3.794
36799W        W 2059  12.075  33.048  11.191
36800W        W 2060  37.535  31.235  11.171
36801W        W 2061  34.514   7.473   4.369
36802W        W 2062  37.447  40.293  13.499
36803W        W 2063  44.324  41.431   1.254
36804W        W 2064  33.977  44.898   3.151
36805W        W 2065   9.808  42.408   1.694
36806W        W 2066  16.398  10.895   3.423
36807W        W 2067  20.495  16.219   2.217
36808W        W 2068  31.706  30.234   5.554
36809W        W 2069  12.669  16.070  10.556
36810W        W 2070  27.407  17.220  13.773
36811W        W 2071  24.566  23.446   4.570
36812W        W 2072  30.484  39.435   0.741
36813W        W 2073  12.618  44.682   4.813
36814W        W 2074  44.197  11.022   4.194
36815W        W 2075  40.336  20.183   0.332
36816W        W 2076  22.687  30.805   4.429
36817W        W 2077   9.672  25.070   4.490
36818W        W 2078  24.688   6.913  14.832
36819W        W 2079  26.519   1.465  13.116
36820W        W 2080  32.971  43.916  12.110
36821W        W 2081  14.625  21.678   0.990
36822W        W 2082   4.219  15.214   2.040
36823W        W 2083  23.995  38.740  10.264
36824W        W 2084   3.790  10.875  12.906
36825W        W 2085   4.914  18.837   4.066
36826W        W 2086  41.920  37.140   1.637
36827W        W 2087  12.415  24.153   3.315
36828W        W 2088  42.330  37.992  13.708
36829W        W 2089  23.965  12.236   2.352
36830W        W 2090  37.311  39.318  13.238
36831W        W 2091  13.849  30.004   3.149
36832W        W 2092  13.838  17.270   1.363
36833W        W 2093  15.779  38.833   1.989
36834W        W 2094  27.607  27.214   3.245
36835W        W 2095  20.871  25.634  12.429
36836W        W 2096  18.760  30.455   1.377
36837W        W 2097  41.653  39.108   2.538
36838W        W 2098  19.009   4.448   0.312
36839W        W 2099   7.257  18.067   3.994
36840W        W 2100   3.206  24.430   4.105
36841W        W 2101   5.912  28.703  11.106
36842W        W 2102  21.725  25.312  14.371
36843W        W 2103  24.572   1.784  11.042
36844W        W 2104  12.679  32.156   0.518
36845W        W 2105  16.237   4.958   1.807
36846W        W 2106   6.406   3.156   3.608
36847W        W 2107  43.975  38.327   4.300
36848W        W 2108  35.629  24.645  14.939
36849W        W 2109  13.435  14.014   3.249
36850W        W 2110  42.244  35.400  11.252
36851W        W 2111  44.769  15.411   4.603
36852W        W 2112  38.346  36.076  13.438
36853W        W 2113  40.137   9.969   0.926
36854W        W 2114  11.729  18.296  14.964
36855W        W 2115  20.176  33.564  13.581
36856W        W 2116  18.206  19.636  12.404
36857W        W 2117  42.212  26.678   0.442
36858W        W 2118  42.304  16.137   2.444
36859W        W 2119   5.161  24.671   3.109
36860W        W 2120   8.145  21.517   3.173
36861W        W 2121  21.973  29.735  13.455
36862W        W 2122  36.978  43.827  10.949
36863W        W 2123   8.937  17.290   0.429
36864W        W 2124  12.839  34.585  10.510
36865W        W 2125  44.504  25.664   2.582
36866W        W 2126  28.967  23.541  13.383
36867W        W 2127   7.013  28.275   1.041
36868W        W 2128  10.271  38.565  12.210
36869W        W 2129  27.691  18.703   1.235
36870W        W 2130   9.823  12.804  14.859
36871W        W 2131   4.156  40.593   4.176
36872W        W 2132  12.215  23.140  13.901
36873W        W 2133   0.452  15.542  12.115
36874W        W 2134   2.325  40.628  10.834
36875W        W 2135  12.577  35.888   3.137
36876W        W 2136  34.722   5.705   3.276
36877W        W 2137  25.238  35.420   4.580
36878W        W 2138  28.643  22.200   1.695
36879W        W 2139  22.989  43.581   2.753
36880W        W 2140   1.961  44.757  14.382
36881W        W 2141  31.454  27.914   1.889
36882W        W 2142  27.937  14.998  13.509
36883W        W 2143  29.880  12.861  11.540
36884W        W 2144  37.312  32.880   3.572
36885W        W 2145  23.474  27.780  12.365
36886W        W 2146   4.935  12.186   4.824
36887W        W 2147  21.850  33.561  12.472
36888W        W 2148   6.186  13.829   0.774
36889W        W 2149  42.750   3.887  14.291
36890W        W 2150   9.934  32.209  10.171
36891W        W 2151  11.351   3.706  12.627
36892W        W 2152  40.547  32.350   0.874
36893W        W 2153  24.939   2.193  12.624
36894W        W 2154   8.386  32.054   2.830
36895W        W 2155  15.737   6.349  12.607
36896W        W 2156   7.926  15.603  10.945
36897W        W 2157   5.996  28.656   3.650
36898W        W 2158  15.304  25.036  13.508
36899W        W 2159  26.383   8.142  13.343
36900W        W 2160   0.433  21.088  14.306
36901W        W 2161  16.665  34.452  12.090
36902W        W 2162  38.230   3.600   0.319
36903W        W 2163  42.030  10.821   0.655
36904W        W 2164   1.448  16.010  10.655
36905W        W 2165  43.338  26.426   2.320
36906W        W 2166  40.348  40.973  13.431
36907W        W 2167  12.797  19.717   2.290
36908W        W 2168  16.313  42.896   4.392
36909W        W 2169  29.415  28.961  12.167
36910W        W 2170  19.023  13.259   2.149
36911W        W 2171   0.277  14.758   4.101
36912W        W 2172   1.432  14.686  12.352
36913W        W 2173  25.543  16.487   3.799
36914W        W 2174  11.117  35.082  13.857
36915W        W 2175  26.108  10.882   4.453
36916W        W 2176  23.535  25.242  14.459
36917W        W 2177   5.962   0.941   0.899
36918W        W 2178  30.948  36.023   1.399
36919W        W 2179  23.718   8.411   0.450
36920W        W 2180  26.841  38.023  11.155
36921W        W 2181  42.892   0.262  14.022
36922W        W 2182  28.492  42.490  14.552
36923W        W 2183  27.462  41.262  14.242
36924W        W 2184  26.146  25.662  12.118
36925W        W 2185  44.259  44.517  13.497
36926W        W 2186  17.711  24.736  12.102
36927W        W 2187  19.769  21.135  14.331
36928W        W 2188   0.999   2.828  12.540
36929W        W 2189   3.352  39.227  10.603
36930W        W 2190  12.275  15.032   3.208
36931W        W 2191  16.426  13.302  14.826
36932W        W 2192   0.318  17.204  10.958
36933W        W 2193  36.153  19.694   4.368
36934W        W 2194  35.375  24.549  14.508
36935W        W 2195  42.337  31.502   4.674
36936W        W 2196  38.261  26.946  13.333
36937W        W 2197  17.094   5.541   1.807
36938W        W 2198   9.303  30.350   4.033
36939W        W 2199   6.772  10.160   0.292
36940W        W 2200  30.674   5.303   1.465
36941W        W 2201   8.373  40.813  12.218
36942W        W 2202  12.346   0.209  14.919
36943W        W 2203  21.464  14.752   5.044
36944W        W 2204  37.309  31.114   1.817
36945W        W 2205  26.034  31.707   1.166
36946W        W 2206  12.356   3.029  10.756
36947W        W 2207  33.357  21.551   3.065
36948W        W 2208   1.701   2.109  12.533
36949W        W 2209  18.573   2.850   1.944
36950W        W 2210   9.994  32.564  11.853
36951W        W 2211  14.702  26.606   2.690
36952W        W 2212  19.742  32.980   4.352
36953W        W 2213  29.072  34.060   0.333
36954W        W 2214  16.558  25.016  12.969
36955W        W 2215  20.015  13.139  11.478
36956W        W 2216  17.687  36.361   2.388
36957W        W 2217   0.088  15.580   2.767
36958W        W 2218  12.772  20.762  13.691
36959W        W 2219  31.154  11.508   2.141
36960W        W 2220   0.509  17.153   2.899
36961W        W 2221   0.358  40.298  12.411
36962W        W 2222   0.072  10.076   2.403
36963W        W 2223  24.214  41.946  12.620
36964W        W 2224   5.252  21.152  13.428
36965W        W 2225  39.284  24.813  12.564
36966W        W 2226  43.779  23.976  13.964
36967W        W 2227  31.935  12.854   3.146
36968W        W 2228   3.328  10.523   5.059
36969W        W 2229  17.041  40.875   1.850
36970W        W 2230  32.806   6.405  11.043
36971W        W 2231  34.779  44.959  11.706
36972W        W 2232   0.154  37.495   3.120
36973W        W 2233  17.605  10.854   3.728
36974W        W 2234   7.847  38.176  13.109
36975W        W 2235  38.358   7.478   0.285
36976W        W 2236   3.678   8.244  10.538
36977W        W 2237  29.408   8.695  13.296
36978W        W 2238   3.038  16.263   2.865
36979W        W 2239  38.107  44.228  12.132
36980W        W 2240  16.873  17.798  10.598
36981W        W 2241  31.613  41.522   1.694
36982W        W 2242  34.440  26.206  12.895
36983W        W 2243  39.547  26.154   3.717
36984W        W 2244  34.339  24.203  14.855
36985W        W 2245  40.277  25.154   1.329
36986W        W 2246  23.500  36.104   0.850
36987W        W 2247  38.407  34.846  13.746
36988W        W 2248  31.612  44.572  14.242
36989W        W 2249  35.968  44.995  14.748
36990W        W 2250  21.421   6.146   1.776
36991W        W 2251   6.597  40.719   1.955
36992W        W 2252  17.156   8.703  14.418
36993W        W 2253  17.252   5.434  13.046
36994W        W 2254  41.863  39.018  11.057
36995W        W 2255   3.519  35.516  12.535
36996W        W 2256   3.529  34.817   4.477
36997W        W 2257  11.930  15.674   4.835
36998W        W 2258  34.892  19.666   3.121
36999W        W 2259  17.397  21.461  11.674
37000W        W 2260  18.008  31.776  10.247
37001W        W 2261  40.764  17.775  12.563
37002W        W 2262   8.715  42.407   2.104
37003W        W 2263  24.939  30.579  11.386
37004W        W 2264  41.332  10.767  10.968
37005W        W 2265  22.177  39.461   3.195
37006W        W 2266  33.517  43.967   4.536
37007W        W 2267   7.417  30.972   0.319
37008W        W 2268  11.234  28.660   3.216
37009W        W 2269  24.472  32.302  11.451
37010W        W 2270   0.089  37.960   1.784
37011W        W 2271  28.680  20.718   3.634
37012W        W 2272  22.440  35.056  10.928
37013W        W 2273  30.369  33.600   2.824
37014W        W 2274  34.598  29.099  12.899
37015W        W 2275  30.932  19.765  14.855
37016W        W 2276  43.044   4.653   1.336
37017W        W 2277  43.746   8.629  13.499
37018W        W 2278  33.774  34.842  10.394
37019W        W 2279  33.000   1.860  14.997
37020W        W 2280  21.336  32.374   0.322
37021W        W 2281  14.588  32.354  11.134
37022W        W 2282  20.275  38.695   0.739
37023W        W 2283  17.186  40.530  14.036
37024W        W 2284   7.261  22.284  11.584
37025W        W 2285  41.475   7.348   3.471
37026W        W 2286  12.460   9.397  11.474
37027W        W 2287  35.986  38.416   1.213
37028W        W 2288   4.774  33.848   3.325
37029W        W 2289  42.730  22.169  12.226
37030W        W 2290   3.703  29.243   0.531
37031W        W 2291  28.513  33.433  11.717
37032W        W 2292  42.022  15.431  13.018
37033W        W 2293  30.479  36.918  12.439
37034W        W 2294  28.517   4.497   2.747
37035W        W 2295  37.299  28.317   3.290
37036W        W 2296   9.714  40.469  14.038
37037W        W 2297  22.802  22.332  13.342
37038W        W 2298   3.662  28.168   1.287
37039W        W 2299   9.698  10.769   1.994
37040W        W 2300  11.837  26.122  10.685
37041W        W 2301   4.150   0.633  10.549
37042W        W 2302  21.542  12.710   4.558
37043W        W 2303   9.744   2.307   3.630
37044W        W 2304  17.067  34.137   0.351
37045W        W 2305  29.996   6.773   2.907
37046W        W 2306  14.194  39.839  11.113
37047W        W 2307  28.878  26.065  14.416
37048W        W 2308  20.770  19.128  13.281
37049W        W 2309  13.080  36.001  10.634
37050W        W 2310  30.134  36.107  13.350
37051W        W 2311  36.608   6.304   4.636
37052W        W 2312  41.004  28.968   1.424
37053W        W 2313  26.544  27.661  14.782
37054W        W 2314  16.086  25.406   0.255
37055W        W 2315  39.250  37.900  11.385
37056W        W 2316  21.947   7.827  14.467
37057W        W 2317  38.921  36.883  14.301
37058W        W 2318  29.575   9.700   2.223
37059W        W 2319  42.349  33.095  14.637
37060W        W 2320  30.537   6.431   2.204
37061W        W 2321   2.032   8.258  11.964
37062W        W 2322  31.788  15.329  12.499
37063W        W 2323   9.632  35.551   2.141
37064W        W 2324  20.679  37.055   1.521
37065W        W 2325  40.066   6.825  13.176
37066W        W 2326  36.397   6.484  14.043
37067W        W 2327  16.792   2.804  14.785
37068W        W 2328  35.591   3.056   2.684
37069W        W 2329   7.893   7.621   1.019
37070W        W 2330  29.297  17.868   1.419
37071W        W 2331   8.476  36.506   0.008
37072W        W 2332   1.326  44.809  12.043
37073W        W 2333  15.060  17.797   2.369
37074W        W 2334  12.068  32.466   4.532
37075W        W 2335  16.490  12.077   0.334
37076W        W 2336  12.240  27.667   0.290
37077W        W 2337  16.965  41.122   3.676
37078W        W 2338  14.062  40.421   1.463
37079W        W 2339  26.221  30.040   2.899
37080W        W 2340  37.734  28.473   1.731
37081W        W 2341  27.631  27.393   1.996
37082W        W 2342  36.209  41.160   5.037
37083W        W 2343  12.140  40.863  14.471
37084W        W 2344  37.518  12.150   1.447
37085W        W 2345  24.131  35.916   1.288
37086W        W 2346  36.679   2.036  13.478
37087W        W 2347  26.692  17.687   5.197
37088W        W 2348   8.537   7.276   4.945
37089W        W 2349   6.598   7.613   1.730
37090W        W 2350  25.115  18.094   3.303
37091W        W 2351  21.136  12.041  14.856
37092W        W 2352  11.683  29.686  11.488
37093W        W 2353  39.057  34.310   0.415
37094W        W 2354   5.182  27.002  12.411
37095W        W 2355   7.953   7.157   0.067
37096W        W 2356  43.020  34.940  11.867
37097W        W 2357  42.892  20.532  12.134
37098W        W 2358  27.450  12.112  12.915
37099W        W 2359  28.489   1.823   4.250
37100W        W 2360  22.700  15.838  13.443
37101W        W 2361  27.738  20.142   4.060
37102W        W 2362  39.918  22.264  13.302
37103W        W 2363   0.796  42.958   5.351
37104W        W 2364  29.517  18.040   0.930
37105W        W 2365  11.687  38.480  10.942
37106W        W 2366  44.532  18.746   5.137
37107W        W 2367   5.245  17.116   3.360
37108W        W 2368  14.767  31.859   2.910
37109W        W 2369  15.816  27.107   1.302
37110W        W 2370  29.625  14.363  12.846
37111W        W 2371  26.003  36.120   4.140
37112W        W 2372  28.776   0.687   2.834
37113W        W 2373  43.923  44.956  11.413
37114W        W 2374  28.769   0.812   1.472
37115W        W 2375   0.679  24.741  13.896
37116W        W 2376  20.688  26.704   0.813
37117W        W 2377  34.630  32.886  12.929
37118W        W 2378  11.301   2.706   3.657
37119W        W 2379  43.816  42.780  13.868
37120W        W 2380  35.014  33.651  10.285
37121W        W 2381  40.842   2.898   5.523
37122W        W 2382  31.428  30.199   4.610
37123W        W 2383  24.044  44.933  13.494
37124W        W 2384  28.204   6.945  11.388
37125W        W 2385  43.837  32.725   4.572
37126W        W 2386  27.999   5.471   3.874
37127W        W 2387  44.856   7.805   0.199
37128W        W 2388  25.590  39.370  11.582
37129W        W 2389  30.499  32.614   4.238
37130W        W 2390   0.776   1.389   0.698
37131W        W 2391  22.676   7.382  14.360
37132W        W 2392  30.209  12.287   0.362
37133W        W 2393  16.256  18.162  11.514
37134W        W 2394  24.549   7.317  11.117
37135W        W 2395   1.380  43.608   1.327
37136W        W 2396  28.650   1.190   2.781
37137W        W 2397  41.460  38.105  14.719
37138W        W 2398  17.620  17.075  12.543
37139W        W 2399  17.844  44.945   1.444
37140W        W 2400  13.171   4.896   1.353
37141W        W 2401  23.991  26.063   3.805
37142W        W 2402   9.119  29.408   4.346
37143W        W 2403  29.857   8.602  11.245
37144W        W 2404  22.630  17.985   9.762
37145W        W 2405  27.899  12.929   3.698
37146W        W 2406  19.054  32.186   4.806
37147W        W 2407  18.267  44.773  14.467
37148W        W 2408  20.531  40.882  13.292
37149W        W 2409  41.645  39.084  12.936
37150W        W 2410   2.432  11.316   5.515
37151W        W 2411  33.159  30.900   3.557
37152W        W 2412  26.089  29.815   0.420
37153W        W 2413  27.160  18.712  12.907
37154W        W 2414  18.519  30.591  11.088
37155W        W 2415   7.784   9.162  11.636
37156W        W 2416  20.970  30.109   4.259
37157W        W 2417  27.461  37.582  13.454
37158W        W 2418   2.798  11.342   2.589
37159W        W 2419  23.698   6.798   4.127
37160W        W 2420  14.879  28.378   0.900
37161W        W 2421   3.032  35.049   0.996
37162W        W 2422  25.421  13.798  13.437
37163W        W 2423  31.816  15.138   2.637
37164W        W 2424  34.998  40.604  13.086
37165W        W 2425  31.774  28.494  10.615
37166W        W 2426  42.505  18.860  13.549
37167W        W 2427   9.157   7.413   2.296
37168W        W 2428  21.099  10.662   2.732
37169W        W 2429  32.986  38.024  11.870
37170W        W 2430  24.235   3.416   0.324
37171W        W 2431  42.526  30.528  12.889
37172W        W 2432  31.366  41.033   2.743
37173W        W 2433   0.958  25.166  12.118
37174W        W 2434  19.064  29.984  11.505
37175W        W 2435  13.152  26.704  11.514
37176W        W 2436  36.616   8.887  14.474
37177W        W 2437  38.949  16.072   0.939
37178W        W 2438  28.644  38.669  11.928
37179W        W 2439  31.646  16.824  10.800
37180W        W 2440  32.605  36.605   2.613
37181W        W 2441  35.526  36.062  13.074
37182W        W 2442  20.663  22.134  14.627
37183W        W 2443  37.903  21.777   3.308
37184W        W 2444  40.345  31.972   2.624
37185W        W 2445   6.719  26.391  11.101
37186W        W 2446   9.503  11.354   3.490
37187W        W 2447  25.066  25.661   2.793
37188W        W 2448  19.138  17.018   0.441
37189W        W 2449  11.983  31.102  11.098
37190W        W 2450  32.033  40.440  13.878
37191W        W 2451  10.149  33.101  13.023
37192W        W 2452  26.734  44.422   3.555
37193W        W 2453  15.063  29.112  11.863
37194W        W 2454  30.042  14.067   3.678
37195W        W 2455  26.631   8.384   4.801
37196W        W 2456  29.151   3.738  12.774
37197W        W 2457  44.590  33.026  11.024
37198W        W 2458   3.708  10.233  13.491
37199W        W 2459   8.283  21.545   0.336
37200W        W 2460  30.223   1.345  10.971
37201W        W 2461  25.098   0.354  12.136
37202W        W 2462   4.336  15.265   4.068
37203W        W 2463  20.703   5.634  13.460
37204W        W 2464  21.681   6.359   4.463
37205W        W 2465   5.269  25.154   1.294
37206W        W 2466  36.891  26.708  12.938
37207W        W 2467  20.802   7.207  10.860
37208W        W 2468   2.925  15.059   0.333
37209W        W 2469  22.752  34.100   3.174
37210W        W 2470  33.360  41.430  13.105
37211W        W 2471  15.357  33.344  12.490
37212W        W 2472  27.641  41.107   3.207
37213W        W 2473  22.088  15.220   3.690
37214W        W 2474  40.202  35.829   0.282
37215W        W 2475  38.872   9.464   2.866
37216W        W 2476  34.950  40.433   2.860
37217W        W 2477  30.522  12.707   1.634
37218W        W 2478  30.495  22.467   0.863
37219W        W 2479  27.170  43.016   1.427
37220W        W 2480  22.517  42.938   1.123
37221W        W 2481  25.628   1.352  11.963
37222W        W 2482   4.915  20.104  10.271
37223W        W 2483  44.402  24.969   2.248
37224W        W 2484   4.181   2.964  10.936
37225W        W 2485  26.927  29.263   0.204
37226W        W 2486   0.489  37.407  12.449
37227W        W 2487  42.840  26.667   0.767
37228W        W 2488  42.696  36.503  13.066
37229W        W 2489  32.660  11.717  12.521
37230W        W 2490  12.442  39.822   1.313
37231W        W 2491  25.537  10.386   4.093
37232W        W 2492   0.679  38.012   0.794
37233W        W 2493  33.336  32.859  14.409
37234W        W 2494  20.801  41.816   4.930
37235W        W 2495  36.551   1.182  14.937
37236W        W 2496   7.123  11.665  11.856
37237W        W 2497  35.543  18.633  13.447
37238W        W 2498  19.027  27.323   3.154
37239W        W 2499  35.474  43.345  14.889
37240W        W 2500   3.971   5.597   1.325
37241W        W 2501  35.181  30.109   1.340
37242W        W 2502  19.807   6.992  10.271
37243W        W 2503   9.622   9.839   1.522
37244W        W 2504  30.123  15.340  11.946
37245W        W 2505  43.326   6.278  14.952
37246W        W 2506  44.504  44.275   9.979
37247W        W 2507  36.037  37.063   4.637
37248W        W 2508   4.374   7.243   4.650
37249W        W 2509  33.510  19.528  12.377
37250W        W 2510  34.078  33.027  12.001
37251W        W 2511  38.826  37.038   0.721
37252W        W 2512  40.367  22.068   0.775
37253W        W 2513  32.951   6.627  14.420
37254W        W 2514   1.720  14.571  11.236
37255W        W 2515  41.877  38.754   2.882
37256W        W 2516   9.283  41.643  13.559
37257W        W 2517  19.673  44.921  13.886
37258W        W 2518  44.416  12.819   0.914
37259W        W 2519  39.594   9.250   0.403
37260W        W 2520   1.063  28.578  10.985
37261W        W 2521  38.794  34.827  10.646
37262W        W 2522  44.403  32.694   3.575
37263W        W 2523  27.981  18.942   1.588
37264W        W 2524  42.790  19.401   1.696
37265W        W 2525  28.469  24.641  10.443
37266W        W 2526  34.572  42.092   3.215
37267W        W 2527  32.899  11.238  13.954
37268W        W 2528  18.989  41.880   2.398
37269W        W 2529  41.636  23.650  12.405
37270W        W 2530  34.267  42.826  12.026
37271W        W 2531  44.480  29.981   4.853
37272W        W 2532   0.909  31.784  14.895
37273W        W 2533  33.323  43.866   4.075
37274W        W 2534   5.063  26.150  12.451
37275W        W 2535  23.981  36.349   2.701
37276W        W 2536   5.561  15.776  14.296
37277W        W 2537  30.463  28.722   3.350
37278W        W 2538  19.179  34.881   3.876
37279W        W 2539  19.766  18.684   0.455
37280W        W 2540   3.571   6.842   4.684
37281W        W 2541  43.276  44.777  12.553
37282W        W 2542  40.917  20.628   4.569
37283W        W 2543  30.003  37.418  14.362
37284W        W 2544  31.862   9.119  12.942
37285W        W 2545  26.940  17.200   2.815
37286W        W 2546   0.983  31.797  12.602
37287W        W 2547  43.247  18.753   3.826
37288W        W 2548  22.968  39.434   3.648
37289W        W 2549  14.856  44.326  13.174
37290W        W 2550  13.268  32.924   3.671
37291W        W 2551  35.557  35.168  10.532
37292W        W 2552  21.223  21.951   4.424
37293W        W 2553  36.719  11.957   3.599
37294W        W 2554   3.361  20.556   2.087
37295W        W 2555  11.117   2.330  13.179
37296W        W 2556  13.021  42.432  13.052
37297W        W 2557  10.250  19.983  13.936
37298W        W 2558  24.494  28.848  11.452
37299W        W 2559  13.894  44.026  14.638
37300W        W 2560  22.616   0.987   2.828
37301W        W 2561  15.357  22.823  10.764
37302W        W 2562  30.034  42.570   0.272
37303W        W 2563   3.436  16.589   0.835
37304W        W 2564  42.470  40.136   0.295
37305W        W 2565   0.912  32.821   4.726
37306W        W 2566   6.001  36.475  12.673
37307W        W 2567   9.924   9.905  12.549
37308W        W 2568   5.312  27.272  11.994
37309W        W 2569  13.381  28.996   0.821
37310W        W 2570  17.069  22.295   0.915
37311W        W 2571  24.119  42.936   3.403
37312W        W 2572  40.730  19.446   1.445
37313W        W 2573  10.972  14.862   2.815
37314W        W 2574  42.428  17.781  13.938
37315W        W 2575  30.340  17.222  11.032
37316W        W 2576  19.033  34.989  13.553
37317W        W 2577  10.393  19.500   4.074
37318W        W 2578  32.079  25.187   1.834
37319W        W 2579   8.596  34.303  12.914
37320W        W 2580  17.065  16.328  14.034
37321W        W 2581  43.744  35.548   3.708
37322W        W 2582  32.535  13.617   3.205
37323W        W 2583  12.865  42.883  12.870
37324W        W 2584  15.795   9.932  10.719
37325W        W 2585  24.660  39.000   3.722
37326W        W 2586  27.895  31.986   1.614
37327W        W 2587  18.951  38.008  13.543
37328W        W 2588   9.381   7.325   3.758
37329W        W 2589  10.851  24.890  11.948
37330W        W 2590  11.858  26.510  10.312
37331W        W 2591  33.401  36.999   4.231
37332W        W 2592   8.151   6.153   3.374
37333W        W 2593  36.315  35.386   3.004
37334W        W 2594  15.718  11.130   2.912
37335W        W 2595   0.919  43.836   1.431
37336W        W 2596  37.730  38.018   2.105
37337W        W 2597  26.088  18.465   2.666
37338W        W 2598   3.008  10.380  10.073
37339W        W 2599  10.667  35.026   0.480
37340W        W 2600  15.554  41.980   1.881
37341W        W 2601  37.319  18.383   4.834
37342W        W 2602   0.980   7.709  13.430
37343W        W 2603  23.659  41.494  12.314
37344W        W 2604  43.378  14.160   1.515
37345W        W 2605  14.337   5.819   1.067
37346W        W 2606  39.338  16.710   4.443
37347W        W 2607  24.418  36.890   2.631
37348W        W 2608   4.183  24.580  11.980
37349W        W 2609  16.604  28.919   1.417
37350W        W 2610   0.773  32.581  12.994
37351W        W 2611   5.246  35.089  12.981
37352W        W 2612  33.107  43.978   3.604
37353W        W 2613  38.420  11.763  13.976
37354W        W 2614  30.893  17.173   4.018
37355W        W 2615  13.653   1.713  12.899
37356W        W 2616   8.754  18.786   2.702
37357W        W 2617  12.795  35.869  13.398
37358W        W 2618  18.005   3.136  11.361
37359W        W 2619  24.353   6.029   3.103
37360W        W 2620  17.724   9.991  14.296
37361W        W 2621   4.447   4.175  13.554
37362W        W 2622   2.411  10.793  11.598
37363W        W 2623  40.309  14.865  14.077
37364W        W 2624   9.083  24.525   5.423
37365W        W 2625  29.859  27.926  13.950
37366W        W 2626  18.109  23.945   4.227
37367W        W 2627  25.009  37.339  11.962
37368W        W 2628  40.591   7.540   1.803
37369W        W 2629  31.012  28.566   0.960
37370W        W 2630  29.672  37.969   1.240
37371W        W 2631  41.420  32.587  13.390
37372W        W 2632  10.672  44.561  14.765
37373W        W 2633   4.967  27.912   1.637
37374W        W 2634  35.636   2.946   1.594
37375W        W 2635  20.546  16.137  10.744
37376W        W 2636  28.178  13.563  14.952
37377W        W 2637  12.693  20.459  12.833
37378W        W 2638  13.622  16.383  13.801
37379W        W 2639   3.796   0.995   2.323
37380W        W 2640  34.703  22.709   4.168
37381W        W 2641  22.524   1.301   4.962
37382W        W 2642   6.528  35.419  11.406
37383W        W 2643   7.347  39.031  12.917
37384W        W 2644  44.204  21.216  10.324
37385W        W 2645  28.541  19.514   3.382
37386W        W 2646  41.858  11.593  12.291
37387W        W 2647  25.718   1.191   0.748
37388W        W 2648  44.320  16.049   4.242
37389W        W 2649  35.209   3.879   0.854
37390W        W 2650  36.240  22.297  11.160
37391W        W 2651   1.175  30.903  14.951
37392W        W 2652  23.527  38.492  10.242
37393W        W 2653  22.246   1.068   4.128
37394W        W 2654  27.730   2.853   3.625
37395W        W 2655  23.748  30.378  14.786
37396W        W 2656  13.860  34.780   3.804
37397W        W 2657  18.124  36.693  14.946
37398W        W 2658  33.597  15.502  10.000
37399W        W 2659  18.178  24.398  14.883
37400W        W 2660  32.163  19.070   0.793
37401W        W 2661  19.350   1.817   4.612
37402W        W 2662  30.745  39.460  10.772
37403W        W 2663  38.165   0.248   1.870
37404W        W 2664  42.516  16.090  12.588
37405W        W 2665  10.048   5.981   1.678
37406W        W 2666  25.812  16.681  11.093
37407W        W 2667  23.979  24.440  11.362
37408W        W 2668  35.665   3.231   0.534
37409W        W 2669  22.783  28.124   4.659
37410W        W 2670   8.345   6.907  11.745
37411W        W 2671  31.521  34.024   4.632
37412W        W 2672  37.437  17.529   0.202
37413W        W 2673  44.529  20.036   4.851
37414W        W 2674  44.842  35.380  12.963
37415W        W 2675  39.612  44.665  13.066
37416W        W 2676   9.384  35.262   1.798
37417W        W 2677  25.631  34.445  12.051
37418W        W 2678  18.083  27.679   3.873
37419W        W 2679  33.429   1.239   0.770
37420W        W 2680  28.127  27.154  13.857
37421W        W 2681  19.163   9.948  14.555
37422W        W 2682  33.476  30.614  11.936
37423W        W 2683  35.220  35.998  11.064
37424W        W 2684   5.367  25.350  10.714
37425W        W 2685  23.117  18.002  13.932
37426W        W 2686  37.309  18.793  13.359
37427W        W 2687  11.214  37.483   3.661
37428W        W 2688  19.798  42.507  13.356
37429W        W 2689   2.447   5.667  10.462
37430W        W 2690   7.467  33.985   2.786
37431W        W 2691   6.417  36.156  11.248
37432W        W 2692  41.208  29.773   2.804
37433W        W 2693  19.532  27.980   0.326
37434W        W 2694  29.284  28.117  12.930
37435W        W 2695  10.117  19.811   2.194
37436W        W 2696  14.624  14.422   4.218
37437W        W 2697  10.329  36.659  11.480
37438W        W 2698  31.161  36.314  14.246
37439W        W 2699  22.179   8.121  14.850
37440W        W 2700  26.015  22.095  11.581
37441W        W 2701  35.537   9.712  14.424
37442W        W 2702  34.985  30.089  11.682
37443W        W 2703  29.552  37.035  14.250
37444W        W 2704   9.248   7.647   0.383
37445W        W 2705   4.017  10.212  10.624
37446W        W 2706  41.769   7.457   0.714
37447W        W 2707  26.720  43.120  10.765
37448W        W 2708  44.704  35.615  14.358
37449W        W 2709  36.909   9.731   4.594
37450W        W 2710  21.758  37.715   3.351
37451W        W 2711  40.077  18.287   2.220
37452W        W 2712  11.170  31.630   1.403
37453W        W 2713  40.772  26.099  13.344
37454W        W 2714  24.109   8.119   0.237
37455W        W 2715  43.529   0.851  11.738
37456W        W 2716  29.163  24.394   2.252
37457W        W 2717  11.352  14.677   4.056
37458W        W 2718  18.995  10.247   4.033
37459W        W 2719  10.411  18.258  10.618
37460W        W 2720  20.580  24.166  14.932
37461W        W 2721  11.177   3.329   2.837
37462W        W 2722  12.322  27.557   4.319
37463W        W 2723  19.645   9.448  11.998
37464W        W 2724  25.994  14.640  11.550
37465W        W 2725   3.629  19.678   4.294
37466W        W 2726  24.637   2.245   0.781
37467W        W 2727  12.130  13.799  13.571
37468W        W 2728  17.493  41.035  13.007
37469W        W 2729  42.922  38.039  13.138
37470W        W 2730  22.469  31.243  11.292
37471W        W 2731  34.438  43.100  14.745
37472W        W 2732  39.418   4.195  14.979
37473W        W 2733  13.939  37.186  12.616
37474W        W 2734   5.824  17.317   4.541
37475W        W 2735  40.422  31.615   4.326
37476W        W 2736  25.621  10.902   2.269
37477W        W 2737   9.842  27.663  11.927
37478W        W 2738  29.916  42.360  14.812
37479W        W 2739  13.196   4.323  12.450
37480W        W 2740  40.383  25.860  12.052
37481W        W 2741  39.093   1.263   0.825
37482W        W 2742   0.973   7.277  14.061
37483W        W 2743   4.167  25.789  11.559
37484W        W 2744  17.622   2.867   0.485
37485W        W 2745   9.863   0.779   1.701
37486W        W 2746  17.331   5.883  14.857
37487W        W 2747   8.095  15.620  12.769
37488W        W 2748  34.644  28.175   0.412
37489W        W 2749  38.271   8.399  12.529
37490W        W 2750   1.901  21.315   1.852
37491W        W 2751  14.503  25.335   1.703
37492W        W 2752   0.971   1.335   1.161
37493W        W 2753  28.797   5.417   0.742
37494W        W 2754  23.544   6.474  11.371
37495W        W 2755  37.584   8.089  11.150
37496W        W 2756   3.245  41.386   1.244
37497W        W 2757  15.128   7.974  13.148
37498W        W 2758  19.069   5.341   0.584
37499W        W 2759  44.143  23.270   1.757
37500W        W 2760   9.403   7.094  12.521
37501W        W 2761  14.917   1.266  10.607
37502W        W 2762  28.681   8.651  14.856
37503W        W 2763  34.044  16.823  12.529
37504W        W 2764  17.857  22.429   3.156
37505W        W 2765  12.120  27.028   9.786
37506W        W 2766   4.915  12.583   2.865
37507W        W 2767  28.888   5.846  12.912
37508W        W 2768  23.766   7.283  12.570
37509W        W 2769  24.160   8.576   9.703
37510W        W 2770   6.952  27.845   4.546
37511W        W 2771  17.811  17.882   4.207
37512W        W 2772  16.801   8.649   3.321
37513W        W 2773  14.709  12.219   2.672
37514W        W 2774  17.979  41.017   4.074
37515W        W 2775  19.797   7.347   3.684
37516W        W 2776  26.522  42.034   1.835
37517W        W 2777  12.995  31.050   4.269
37518W        W 2778  37.651   8.842   0.179
37519W        W 2779  26.173  24.988  10.521
37520W        W 2780   8.844  14.616  13.378
37521W        W 2781  42.865  24.516   1.273
37522W        W 2782  33.401   6.204   5.054
37523W        W 2783  18.949  31.920  10.660
37524W        W 2784   7.995   6.012  11.524
37525W        W 2785  42.970  44.951  13.588
37526W        W 2786  12.715  34.806  12.873
37527W        W 2787  40.215  14.301  11.941
37528W        W 2788   2.724  14.753  14.894
37529W        W 2789   2.306  43.419   0.169
37530W        W 2790   4.732   5.285   1.125
37531W        W 2791  22.992   6.580   3.960
37532W        W 2792  17.239  28.511  13.407
37533W        W 2793  36.615  31.960  12.044
37534W        W 2794   6.534  30.503   4.328
37535W        W 2795   8.341  15.363   4.123
37536W        W 2796   1.925  11.609  14.038
37537W        W 2797  10.275  35.494   3.635
37538W        W 2798  33.642  19.329   2.514
37539W        W 2799   1.179   2.378  10.654
37540W        W 2800   4.479   0.314   0.139
37541W        W 2801  23.486  43.826   3.743
37542W        W 2802  41.395   4.675  14.825
37543W        W 2803  26.213  20.366   0.709
37544W        W 2804   6.231  22.174   3.895
37545W        W 2805  32.588   1.772   4.118
37546W        W 2806  18.506   3.112   0.325
37547W        W 2807  31.543  26.482   0.928
37548W        W 2808  37.364   8.774  12.560
37549W        W 2809   9.161  26.202   1.072
37550W        W 2810  34.000   8.735  14.341
37551W        W 2811  16.753  30.844  12.851
37552W        W 2812  12.274  20.657  13.910
37553W        W 2813  16.073   9.170   2.510
37554W        W 2814   7.336  42.931   0.736
37555W        W 2815  32.248  14.283  14.344
37556W        W 2816  11.945  17.830   3.674
37557W        W 2817  43.338  32.493   2.121
37558W        W 2818  39.446  37.044  10.737
37559W        W 2819  13.085   6.937   2.872
37560W        W 2820  20.073  11.107   3.682
37561W        W 2821  44.804  19.745   0.362
37562W        W 2822  38.994   5.149  11.830
37563W        W 2823  22.579  18.557   1.325
37564W        W 2824  19.571  13.844   1.412
37565W        W 2825  43.743  27.368   5.506
37566W        W 2826  14.872  11.690  13.164
37567W        W 2827  31.044  35.798  12.034
37568W        W 2828  31.270   4.567   1.364
37569W        W 2829  15.282   3.705   0.127
37570W        W 2830  22.203  15.110  13.348
37571W        W 2831  14.083  29.994  11.602
37572W        W 2832  30.809   2.823   4.265
37573W        W 2833  39.085   4.423   2.900
37574W        W 2834  44.591  23.538  12.771
37575W        W 2835  37.128  22.920   2.242
37576W        W 2836  11.691  14.130  12.826
37577W        W 2837  37.452  27.999   1.675
37578W        W 2838   6.495   9.661   2.310
37579W        W 2839  26.058  14.521   2.772
37580W        W 2840  36.662  39.954  12.668
37581W        W 2841  14.835  43.492   1.711
37582W        W 2842  19.216  27.449   3.624
37583W        W 2843  25.983  36.024  12.820
37584W        W 2844  10.137  40.312   0.003
37585W        W 2845  22.582  14.050   0.256
37586W        W 2846  33.561  17.066   3.138
37587W        W 2847  44.112  14.074   0.521
37588W        W 2848   4.468   9.372   1.274
37589W        W 2849   7.777   7.944  14.553
37590W        W 2850   0.452  15.124  12.447
37591W        W 2851  37.112  37.895   1.244
37592W        W 2852  22.726   2.019   3.704
37593W        W 2853  24.472  33.587   2.066
37594W        W 2854  33.441  13.215  13.096
37595W        W 2855  21.453  12.904  13.887
37596W        W 2856   5.354   2.217  14.249
37597W        W 2857  15.770  40.920  12.458
37598W        W 2858  33.084  14.046   0.433
37599W        W 2859  22.488  29.973  12.959
37600W        W 2860  16.105  30.595   1.914
37601W        W 2861  44.901   2.775  12.050
37602W        W 2862  42.591   0.877  11.177
37603W        W 2863  42.839  37.431   1.012
37604W        W 2864  44.891   8.663  10.599
37605W        W 2865  25.575  33.150   2.385
37606W        W 2866  44.293   6.632  12.020
37607W        W 2867  11.662  13.655   0.406
37608W        W 2868  33.607  17.298  11.860
37609W        W 2869  42.252  39.345  11.162
37610W        W 2870  11.629  25.648   2.627
37611W        W 2871   6.988   6.964  14.663
37612W        W 2872  11.086  26.987  12.127
37613W        W 2873  16.247  20.841   1.728
37614W        W 2874  21.980  21.186   3.612
37615W        W 2875  23.993   2.667   4.315
37616W        W 2876  10.448  24.078  13.440
37617W        W 2877  41.907  21.249  11.432
37618W        W 2878  42.964   3.911   3.982
37619W        W 2879  40.752  31.465  13.716
37620W        W 2880  37.775  29.665  13.633
37621W        W 2881  23.755  42.235   2.926
37622W        W 2882  28.536  36.567   0.269
37623W        W 2883   1.659  16.206   0.012
37624W        W 2884  25.100  44.336  13.501
37625W        W 2885  25.253  30.152   3.374
37626W        W 2886  22.318  22.180  13.458
37627W        W 2887  36.599   7.672   0.410
37628W        W 2888  12.404  21.937   1.445
37629W        W 2889  34.960  14.852  13.313
37630W        W 2890  10.186   5.008  12.960
37631W        W 2891   4.848  35.104   3.937
37632W        W 2892   4.962   9.904   3.816
37633W        W 2893  23.502  21.400  12.059
37634W        W 2894  29.030  44.964  10.601
37635W        W 2895   0.435  10.221   0.324
37636W        W 2896   9.337  33.986  11.058
37637W        W 2897  31.188  16.687   1.849
37638W        W 2898   4.139  44.397   4.034
37639W        W 2899  29.533  16.601   1.385
37640W        W 2900  37.118  43.282  14.315
37641W        W 2901   5.369  40.944  14.972
37642W        W 2902  20.728  25.031   4.499
37643W        W 2903   3.824  14.363   2.185
37644W        W 2904   5.672  40.421   2.732
37645W        W 2905  25.336  36.485  11.772
37646W        W 2906  43.558  39.401   4.801
37647W        W 2907  30.325  36.455  11.174
37648W        W 2908  30.602  14.149  14.856
37649W        W 2909  40.462  32.933  10.471
37650W        W 2910  18.627   5.661  10.166
37651W        W 2911   3.436  39.334  11.985
37652W        W 2912  43.233  41.104  11.830
37653W        W 2913   3.132  42.949   3.831
37654W        W 2914  17.487   1.386   2.775
37655W        W 2915  16.832  21.539   0.764
37656W        W 2916  44.727  19.982  11.062
37657W        W 2917  31.428  37.208  14.339
37658W        W 2918   1.925  15.647   3.258
37659W        W 2919  11.066  28.501   2.748
37660W        W 2920  15.106   3.732   2.748
37661W        W 2921  10.754   2.235   3.146
37662W        W 2922  12.386  30.955  13.057
37663W        W 2923   8.401  11.671   1.190
37664W        W 2924  37.062  23.382  14.870
37665W        W 2925  17.108  35.919  11.653
37666W        W 2926  28.943  18.484  13.011
37667W        W 2927   3.323   5.808   2.255
37668W        W 2928  31.365  38.110  13.507
37669W        W 2929   5.807  29.951   2.403
37670W        W 2930   4.366   6.894   4.244
37671W        W 2931   1.406  25.714   2.246
37672W        W 2932  34.135  29.381   0.319
37673W        W 2933  26.939   2.368  12.651
37674W        W 2934  29.898  41.113   1.214
37675W        W 2935  24.694   3.649  13.569
37676W        W 2936   0.842  18.696  14.760
37677W        W 2937   7.253  38.750   0.761
37678W        W 2938  33.238  34.774  11.843
37679W        W 2939  42.075  30.532   3.005
37680W        W 2940  41.758  28.366   2.380
37681W        W 2941  38.579  27.965  10.652
37682W        W 2942  24.732  27.473  10.391
37683W        W 2943  16.195  10.017   3.581
37684W        W 2944  36.312  31.491  11.739
37685W        W 2945  10.427  32.544  14.765
37686W        W 2946  37.276  32.390   3.361
37687W        W 2947  26.963  16.394  11.439
37688W        W 2948  27.416   0.082  11.633
37689W        W 2949  35.211   2.939  11.455
37690W        W 2950  17.180  23.240   0.502
37691W        W 2951  27.983  42.407  11.941
37692W        W 2952  38.374  40.800  12.163
37693W        W 2953   0.759  31.430   4.281
37694W        W 2954   2.517   7.456   4.030
37695W        W 2955  33.627   7.820  12.524
37696W        W 2956  22.643  20.781   4.109
37697W        W 2957  29.987  27.301   0.683
37698W        W 2958  43.302   9.851   2.562
37699W        W 2959  31.429   5.083  14.729
37700W        W 2960   4.709   0.017   1.912
37701W        W 2961  12.338  25.145   2.874
37702W        W 2962   8.763  32.416  11.591
37703W        W 2963   1.780  20.022  11.698
37704W        W 2964  26.978   0.428   0.922
37705W        W 2965  40.303  12.818   9.787
37706W        W 2966  37.608  36.268   1.241
37707W        W 2967  23.983   3.438  12.531
37708W        W 2968   5.048  35.788  11.629
37709W        W 2969   2.414  39.576   1.507
37710W        W 2970  34.103  14.838  13.197
37711W        W 2971  17.794  39.609   4.231
37712W        W 2972  14.196  11.707   3.267
37713W        W 2973  23.270   4.998   2.565
37714W        W 2974  20.650  18.896   4.109
37715W        W 2975  17.977   2.611   0.083
37716W        W 2976  32.842  25.636   3.375
37717W        W 2977  12.809   9.715  10.289
37718W        W 2978  41.790  30.060   1.670
37719W        W 2979  41.413   5.205  14.930
37720W        W 2980  20.111  31.469   4.059
37721W        W 2981  42.708  43.803   1.423
37722W        W 2982   1.017  11.238   1.545
37723W        W 2983  19.352  41.273  14.951
37724W        W 2984   6.482  10.159   5.148
37725W        W 2985  40.678  37.469  11.578
37726W        W 2986  11.308  34.531   0.933
37727W        W 2987  18.073  21.941  12.167
37728W        W 2988   3.703  33.229  11.920
37729W        W 2989  16.163  17.676  12.122
37730W        W 2990  33.406  42.298  13.038
37731W        W 2991  26.264  10.312  13.724
37732W        W 2992  38.090  16.141  13.095
37733W        W 2993  43.285  14.233  11.398
37734W        W 2994  26.620   3.865  13.043
37735W        W 2995  20.608  29.439  14.455
37736W        W 2996  40.522  10.255  12.676
37737W        W 2997  44.273  36.891   3.137
37738W        W 2998  11.658  19.226   9.821
37739W        W 2999  28.592  40.368   0.409
37740W        W 3000  44.152  21.199   1.933
37741W        W 3001  28.997   9.299  13.853
37742W        W 3002  29.892  40.922  10.660
37743W        W 3003   7.763  31.075  14.373
37744W        W 3004  30.233  12.253   1.708
37745W        W 3005  42.761  29.132   3.693
37746W        W 3006   3.590  28.340   0.418
37747W        W 3007  11.597  19.238  12.973
37748W        W 3008  19.146  18.511  10.574
37749W        W 3009  13.824   0.882   3.972
37750W        W 3010  41.400  14.207   4.336
37751W        W 3011  31.770  21.128  12.356
37752W        W 3012  36.991   9.401   0.703
37753W        W 3013  37.402  40.818   4.383
37754W        W 3014  31.508  38.859  11.039
37755W        W 3015  42.209  34.505   0.012
37756W        W 3016   2.779  34.958  10.628
37757W        W 3017  35.621  44.510   4.521
37758W        W 3018   9.651  31.830   4.166
37759W        W 3019  36.081  36.974  14.358
37760W        W 3020  33.541   6.204  12.391
37761W        W 3021   1.740  40.347   3.981
37762W        W 3022  35.310  20.513  11.561
37763W        W 3023   4.824  11.109  11.165
37764W        W 3024  29.571   4.301   0.842
37765W        W 3025  30.732  36.611  14.285
37766W        W 3026  22.815  37.271  14.145
37767W        W 3027  37.807  24.937  14.728
37768W        W 3028  20.573   5.272   2.353
37769W        W 3029  37.885  32.146   5.119
37770W        W 3030   9.596   0.431  12.619
37771W        W 3031  11.445   5.536  13.303
37772W        W 3032  18.330  39.925  12.483
37773W        W 3033  40.905  23.020   4.526
37774W        W 3034  15.273  38.873   4.678
37775W        W 3035  30.489  23.727   3.137
37776W        W 3036   6.675  17.653  11.018
37777W        W 3037   5.862  11.765   2.374
37778W        W 3038   5.256  26.897  13.334
37779W        W 3039  23.684  43.556  10.704
37780W        W 3040  30.336  36.911   1.843
37781W        W 3041  19.041  31.093   3.090
37782W        W 3042  10.755  24.022   1.615
37783W        W 3043  27.300  39.555  12.536
37784W        W 3044  38.179   5.424  11.556
37785W        W 3045  24.509   7.228  13.600
37786W        W 3046  34.705  40.504   0.856
37787W        W 3047  22.215  27.482   2.745
37788W        W 3048  34.162  16.366   3.193
37789W        W 3049  35.422   8.426  13.626
37790W        W 3050  44.522  40.379  11.036
37791W        W 3051  38.270   9.567   0.544
37792W        W 3052  15.225   8.231   2.722
37793W        W 3053   2.504  12.097  14.536
37794W        W 3054  24.676   1.341   2.182
37795W        W 3055  29.412  17.550   1.025
37796W        W 3056  37.828  41.966  13.385
37797W        W 3057   8.788   6.893   9.727
37798W        W 3058   8.292  28.903   0.311
37799W        W 3059  33.983  41.357   4.348
37800W        W 3060  30.718   6.917  14.751
37801W        W 3061   3.371  39.986  13.521
37802W        W 3062  16.758  18.791   2.224
37803W        W 3063  34.507  22.215  11.493
37804W        W 3064  11.767  34.837   0.307
37805W        W 3065  44.605  41.103  14.116
37806W        W 3066   7.797   9.462   3.642
37807W        W 3067  11.279  34.948  12.611
37808W        W 3068  37.470   8.108  13.050
37809W        W 3069  42.728  40.598  13.912
37810W        W 3070  44.920   4.726   1.442
37811W        W 3071  44.919  15.842   4.843
37812W        W 3072  29.246   3.231   3.632
37813W        W 3073   0.043   5.821   1.823
37814W        W 3074  33.093  35.059   1.803
37815W        W 3075   8.449  24.310   0.437
37816W        W 3076  29.124  18.765  13.427
37817W        W 3077   7.127  32.020  11.577
37818W        W 3078  10.378  33.403  10.768
37819W        W 3079  32.036   4.529  11.503
37820W        W 3080  20.041   3.984  11.907
37821W        W 3081  18.663  36.363  13.140
37822W        W 3082  28.016  34.878  12.461
37823W        W 3083  33.530  13.342  13.583
37824W        W 3084  28.498  10.695  11.529
37825W        W 3085  42.038  10.746   1.168
37826W        W 3086  33.847  18.386  12.843
37827W        W 3087  10.681  35.897  10.732
37828W        W 3088  12.832  12.450   4.204
37829W        W 3089  24.515   7.633   3.361
37830W        W 3090   5.223  26.272  14.896
37831W        W 3091  29.685  29.075  14.897
37832W        W 3092  40.101  21.129   3.625
37833W        W 3093  17.679  28.030  14.815
37834W        W 3094   5.354  36.096   0.207
37835W        W 3095  40.029  36.785  14.044
37836W        W 3096  31.455  43.282  14.992
37837W        W 3097  21.139   8.489   0.801
37838W        W 3098  40.811   4.826   4.301
37839W        W 3099  43.923   9.219  13.958
37840W        W 3100   5.913  24.716  11.076
37841W        W 3101   2.356  43.320   3.785
37842W        W 3102  20.734  15.286   2.175
37843W        W 3103  23.544   2.932   4.225
37844W        W 3104  19.144   8.955   0.935
37845W        W 3105  27.361   5.409   4.592
37846W        W 3106  31.040  39.425   1.272
37847W        W 3107   3.474  16.473   3.052
37848W        W 3108  13.196  21.827   1.303
37849W        W 3109  31.997  43.797   0.717
37850W        W 3110  16.064  30.383   4.343
37851W        W 3111  21.364  16.738  11.959
37852W        W 3112  36.262  24.063  13.552
37853W        W 3113  44.514  39.970   4.005
37854W        W 3114  39.027  34.934   0.462
37855W        W 3115  31.181  22.004  13.350
37856W        W 3116  18.019   8.339   4.591
37857W        W 3117   2.368  13.415  11.866
37858W        W 3118  33.392  34.157   3.218
37859W        W 3119   9.670  23.252   1.756
37860W        W 3120  18.298  17.297  14.218
37861W        W 3121  15.302  27.095   1.349
37862W        W 3122  22.026  16.336   0.480
37863W        W 3123  10.315   6.257  11.114
37864W        W 3124  11.004  25.890  10.054
37865W        W 3125  38.272  39.008  12.112
37866W        W 3126   0.967  43.824  11.611
37867W        W 3127   3.210  17.474  12.010
37868W        W 3128  16.401  21.189   3.450
37869W        W 3129   2.431   9.387   2.684
37870W        W 3130  35.055  26.865  13.397
37871W        W 3131  31.954  30.784   1.924
37872W        W 3132  18.075  10.267  13.345
37873W        W 3133  23.495  34.913   2.680
37874W        W 3134   0.389  14.831  10.589
37875W        W 3135  15.468  34.401  14.830
37876W        W 3136  19.621  21.071  12.889
37877W        W 3137  32.442  29.685   3.145
37878W        W 3138   8.854  15.283   4.093
37879W        W 3139  21.694  40.611  12.420
37880W        W 3140   8.627   8.954   2.649
37881W        W 3141  11.599  42.323   1.815
37882W        W 3142  25.574  20.510  10.765
37883W        W 3143   4.549  25.013  11.079
37884W        W 3144  31.262  26.178   0.438
37885W        W 3145  44.735  36.040   3.310
37886W        W 3146  18.709  31.073   2.149
37887W        W 3147  40.040  32.100   1.654
37888W        W 3148  34.338  28.539   9.817
37889W        W 3149  10.787   4.166  12.776
37890W        W 3150  27.790   1.077  11.562
37891W        W 3151  40.665  35.024   4.209
37892W        W 3152  26.476  22.714   0.961
37893W        W 3153  34.790   7.957  10.935
37894W        W 3154  12.922  18.550  14.457
37895W        W 3155   6.477  22.093   2.724
37896W        W 3156  34.425   3.777   4.141
37897W        W 3157  22.047   8.764   3.009
37898W        W 3158   6.404  19.988   3.232
37899W        W 3159  33.819  23.609  14.528
37900W        W 3160  35.245  20.567  13.675
37901W        W 3161  23.572  33.510   5.149
37902W        W 3162  13.669  14.354  12.481
37903W        W 3163  22.727  25.191  13.071
37904W        W 3164  37.587  11.074   2.812
37905W        W 3165  33.051  31.418   2.303
37906W        W 3166  29.536  34.790  13.047
37907W        W 3167  21.922  39.605   2.760
37908W        W 3168  21.622  27.967   3.140
37909W        W 3169  36.381   5.310  11.023
37910W        W 3170   7.602  21.652  11.989
37911W        W 3171  19.702  22.739  14.057
37912W        W 3172   2.863   0.345  10.583
37913W        W 3173  17.974  19.627  10.718
37914W        W 3174  38.044  12.857  14.755
37915W        W 3175   1.687   7.885   0.884
37916W        W 3176  29.640  23.769  14.836
37917W        W 3177  23.464  12.966  11.163
37918W        W 3178  43.055  16.052  12.630
37919W        W 3179  25.174  16.031   0.986
37920W        W 3180  22.048  27.735   1.874
37921W        W 3181   1.769  43.524  13.843
37922W        W 3182  42.983  32.300  14.760
37923W        W 3183  26.695  18.733  14.841
37924W        W 3184  33.694  35.417  12.904
37925W        W 3185  26.528  34.123   2.261
37926W        W 3186   5.311   0.554   4.260
37927W        W 3187   3.320   0.481  11.384
37928W        W 3188   0.814  15.908   5.252
37929W        W 3189  26.334   3.827   0.276
37930W        W 3190  32.492  36.145  13.999
37931W        W 3191  39.777   3.213  12.919
37932W        W 3192  42.379  37.839  10.883
37933W        W 3193  43.249  29.572   2.260
37934W        W 3194  18.629  38.554  12.942
37935W        W 3195  32.621  41.359   1.447
37936W        W 3196  24.080  27.145   3.130
37937W        W 3197  31.855  29.390  13.304
37938W        W 3198  28.628  25.134   2.288
37939W        W 3199  10.097  27.192  13.980
37940W        W 3200  38.027  11.959  14.263
37941W        W 3201  37.021  14.064  10.796
37942W        W 3202  34.820  28.643  13.873
37943W        W 3203  14.587   7.815   3.697
37944W        W 3204  17.147  25.828   0.717
37945W        W 3205   1.340   3.912  10.646
37946W        W 3206  36.648  27.772   0.535
37947W        W 3207  21.357  26.092  10.919
37948W        W 3208  36.371   2.378   5.050
37949W        W 3209  44.050   3.405   0.282
37950W        W 3210   2.920  13.910  12.991
37951W        W 3211  35.589  21.538   0.299
37952W        W 3212  12.358   0.347   2.047
37953W        W 3213  26.314  11.643  14.366
37954W        W 3214  43.522  26.512  11.404
37955W        W 3215  19.052  23.263  14.898
37956W        W 3216  14.262  24.900  12.419
37957W        W 3217  28.088  30.546  10.675
37958W        W 3218  29.492  36.443   4.950
37959W        W 3219  35.950  10.648   1.461
37960W        W 3220  12.740   7.972   3.439
37961W        W 3221  30.420   4.048   0.964
37962W        W 3222  29.444  27.562  13.559
37963W        W 3223  29.875  38.484   2.093
37964W        W 3224   7.278  19.626   0.203
37965W        W 3225  26.239  33.215   0.982
37966W        W 3226  29.389  34.816  12.455
37967W        W 3227  13.869   6.730  14.943
37968W        W 3228  13.325  18.156   1.769
37969W        W 3229  39.094  32.121  10.636
37970W        W 3230  23.433  19.812  10.873
37971W        W 3231   8.652   4.387  11.556
37972W        W 3232   5.001  31.907   3.639
37973W        W 3233  20.479  26.715  10.579
37974W        W 3234   8.005   8.405   4.529
37975W        W 3235  27.649  21.960   3.235
37976W        W 3236  44.530   1.030   2.306
37977W        W 3237  27.884  20.020   0.547
37978W        W 3238  29.106  30.402  12.395
37979W        W 3239  35.298  41.553   4.275
37980W        W 3240  11.761  25.228  11.082
37981W        W 3241   8.754  34.142  13.726
37982W        W 3242  32.100   6.919   0.681
37983W        W 3243  22.383  38.685   3.681
37984W        W 3244  22.628  41.509  14.500
37985W        W 3245  22.161   3.235   2.723
37986W        W 3246   8.808  13.571  11.186
37987W        W 3247  18.796  35.440  10.727
37988W        W 3248   3.844  25.529  13.759
37989W        W 3249  30.524  12.995   2.874
37990W        W 3250  11.782  44.455   3.187
37991W        W 3251  25.980  21.503   2.782
37992W        W 3252   7.387  11.409  11.035
37993W        W 3253  33.202  28.569   3.137
37994W        W 3254  21.240  32.029   0.891
37995W        W 3255  31.390  12.937   1.257
37996W        W 3256  41.028  22.845   0.437
37997W        W 3257  13.917   8.353  14.783
37998W        W 3258   8.256  42.504  14.826
37999W        W 3259  38.633  42.658   0.501
38000W        W 3260   3.022  24.203   3.141
38001W        W 3261  34.126  39.002  14.002
38002W        W 3262  43.853  43.907  10.520
38003W        W 3263  18.696  14.368  13.140
38004W        W 3264  18.200  17.795  14.431
38005W        W 3265   1.118  29.777  13.130
38006W        W 3266  34.341  11.766   1.777
38007W        W 3267   8.677  35.925  11.469
38008W        W 3268   5.001  10.231   1.343
38009W        W 3269  37.921  10.546   0.393
38010W        W 3270  33.465   1.813   1.631
38011W        W 3271  27.014  16.886   2.204
38012W        W 3272   9.681  18.985  14.741
38013W        W 3273  10.541  31.403  13.650
38014W        W 3274  31.687  25.185   3.472
38015W        W 3275   6.845  40.369   4.168
38016W        W 3276  25.792  36.561   2.780
38017W        W 3277  14.174   9.842   1.444
38018W        W 3278   5.785   8.426   1.924
38019W        W 3279  40.282  11.114   1.371
38020W        W 3280  24.367  43.503  14.373
38021W        W 3281   1.980  44.392   4.312
38022W        W 3282  36.400  20.500  13.452
38023W        W 3283  39.098  40.834  11.442
38024W        W 3284  42.258   8.785  14.562
38025W        W 3285  41.920  21.089  12.460
38026W        W 3286  18.812  32.387  11.508
38027W        W 3287  19.963  24.551  11.606
38028W        W 3288  37.084  30.162  13.982
38029W        W 3289  40.920  35.575  10.613
38030W        W 3290   8.173  13.316   0.919
38031W        W 3291   2.352   3.189  12.304
38032W        W 3292  23.217  42.405  10.643
38033W        W 3293  12.257   0.483  14.004
38034W        W 3294   0.723   5.583  11.007
38035W        W 3295  29.201  10.402  10.542
38036W        W 3296  15.312  20.103   2.353
38037W        W 3297   5.215  20.036   3.797
38038W        W 3298  20.174  13.153  10.617
38039W        W 3299  43.270  32.396   0.459
38040W        W 3300  17.386  37.447   1.990
38041W        W 3301  14.679  36.396   3.521
38042W        W 3302  39.844  40.840   3.650
38043W        W 3303   4.259  33.993  10.449
38044W        W 3304  41.283  24.673   2.596
38045W        W 3305  26.816  14.737   1.465
38046W        W 3306  23.281  27.619  14.576
38047W        W 3307  17.304  26.433  10.213
38048W        W 3308  26.007  14.376  12.928
38049W        W 3309  40.974  14.851  13.322
38050W        W 3310  17.773  35.983  14.402
38051W        W 3311  42.202  23.627   4.127
38052W        W 3312  22.161  19.690  12.869
38053W        W 3313   0.541  30.508   1.892
38054W        W 3314  14.587  18.620   4.459
38055W        W 3315  40.850  31.945   1.126
38056W        W 3316  34.698  14.113   1.084
38057W        W 3317  39.012  27.262  14.995
38058W        W 3318  32.988   8.728  10.419
38059W        W 3319  18.166   2.218   0.440
38060W        W 3320   6.658  16.049  11.216
38061W        W 3321   8.952   4.843   1.763
38062W        W 3322  34.501   8.306   2.260
38063W        W 3323   7.272   6.902  11.884
38064W        W 3324  22.541  24.012   4.537
38065W        W 3325  25.179  43.917   0.795
38066W        W 3326  33.077  39.420   4.665
38067W        W 3327   4.172  18.031  10.452
38068W        W 3328  26.683  13.707   4.547
38069W        W 3329   0.858  23.198   5.412
38070W        W 3330  16.674  32.334   1.226
38071W        W 3331   8.036  17.115   4.504
38072W        W 3332  21.170   8.546   5.098
38073W        W 3333   2.928  38.494   3.314
38074W        W 3334  14.715  20.512  12.845
38075W        W 3335  38.790  43.089  10.823
38076W        W 3336  43.945  34.907   1.908
38077W        W 3337   3.739  41.301   0.115
38078W        W 3338  27.179  43.240  11.919
38079W        W 3339  36.577  38.539   2.685
38080W        W 3340  29.024  43.288   0.278
38081W        W 3341  34.521   8.394  11.815
38082W        W 3342  34.009  35.387   4.562
38083W        W 3343  41.955  37.395   0.692
38084W        W 3344  14.575  21.615   1.504
38085W        W 3345  30.118  28.150  13.275
38086W        W 3346  24.100   2.849  11.441
38087W        W 3347  27.004  44.353  10.705
38088W        W 3348  15.046   0.502  13.602
38089W        W 3349  26.641  34.874  14.791
38090W        W 3350   1.683  22.463   2.131
38091W        W 3351  28.644  44.793   0.066
38092W        W 3352  22.811  13.619  12.174
38093W        W 3353  28.576  12.621   1.090
38094W        W 3354  42.341  14.051   0.259
38095W        W 3355  19.315  15.702  10.628
38096W        W 3356  32.671   7.832  10.533
38097W        W 3357  40.786   4.958  11.662
38098W        W 3358  32.616  28.247  13.985
38099W        W 3359   6.652  19.397  12.245
38100W        W 3360   9.635  19.748   2.321
38101W        W 3361  41.678  11.625   3.316
38102W        W 3362  41.706   6.664  13.396
38103W        W 3363   3.177  38.905  13.812
38104W        W 3364  28.430  43.957   4.639
38105W        W 3365  24.928  29.866   2.684
38106W        W 3366  40.467  12.879  14.264
38107W        W 3367  42.424  38.321  11.021
38108W        W 3368  11.419  24.525   0.899
38109W        W 3369   4.778  17.605   3.722
38110W        W 3370  27.631  26.363   4.240
38111W        W 3371  41.397  30.316   5.078
38112W        W 3372  30.217  15.733   4.545
38113W        W 3373  34.913   0.621  10.154
38114W        W 3374  39.801  25.186   3.798
38115W        W 3375   1.339  12.569   1.409
38116W        W 3376  24.643   4.178   2.684
38117W        W 3377  16.328  31.095  13.004
38118W        W 3378  12.284  25.220   1.902
38119W        W 3379  23.087  21.516  12.433
38120W        W 3380   1.163  17.142   0.387
38121W        W 3381  25.546  39.254  12.124
38122W        W 3382   2.828  23.399   2.707
38123W        W 3383  44.451  10.892   3.228
38124W        W 3384  40.419  20.816   2.763
38125W        W 3385   3.145  42.193  12.791
38126W        W 3386   5.266  40.135   2.326
38127W        W 3387   9.359  15.125  13.740
38128W        W 3388  39.611  25.923  11.065
38129W        W 3389   5.210  30.617  10.551
38130W        W 3390  31.183  13.828   0.390
38131W        W 3391   8.160  28.653  14.517
38132W        W 3392   1.101  24.898   1.412
38133W        W 3393  25.256  25.951  11.071
38134W        W 3394  10.170  34.070  14.500
38135W        W 3395  39.140  28.533   0.145
38136W        W 3396  31.108  33.381   2.420
38137W        W 3397   1.773   8.469  14.937
38138W        W 3398  41.294   7.212  13.487
38139W        W 3399   9.324  26.149  12.517
38140W        W 3400  22.739   1.966  11.586
38141W        W 3401  13.188  35.267   4.867
38142W        W 3402  10.353  34.161   3.363
38143W        W 3403  32.866  22.476  13.131
38144W        W 3404  31.088  27.940   0.929
38145W        W 3405  42.422   9.685  11.546
38146W        W 3406  25.388  39.162  14.906
38147W        W 3407  25.722   8.251   4.952
38148W        W 3408  23.865   6.334  14.122
38149W        W 3409   1.514   7.276  14.004
38150W        W 3410  13.384  10.078   9.586
38151W        W 3411  38.347  38.338  14.237
38152W        W 3412   2.754  44.924  10.977
38153W        W 3413  22.591  41.266  13.063
38154W        W 3414   4.931  14.707   2.213
38155W        W 3415  32.362   5.432  14.438
38156W        W 3416  20.093  16.177  11.495
38157W        W 3417  30.851  13.117   0.388
38158W        W 3418  35.037  21.429   4.986
38159W        W 3419   7.385  30.367  10.677
38160W        W 3420  18.649  21.920  13.921
38161W        W 3421  14.433  40.735  11.162
38162W        W 3422  32.963  16.855   4.665
38163W        W 3423   5.615  16.550   4.122
38164W        W 3424  25.496  15.624   0.952
38165W        W 3425   0.111   0.924   1.198
38166W        W 3426  17.029   4.286  12.033
38167W        W 3427   8.771  26.088   2.762
38168W        W 3428  36.505   4.049   1.435
38169W        W 3429   3.949   9.587  11.429
38170W        W 3430   0.236  13.332   5.084
38171W        W 3431  27.484  31.023   3.567
38172W        W 3432  13.774  33.480   1.656
38173W        W 3433  17.337  24.663  10.601
38174W        W 3434  11.201  38.594  10.990
38175W        W 3435  41.638  31.835  13.979
38176W        W 3436  22.056  15.156   4.665
38177W        W 3437  19.625  12.751   1.481
38178W        W 3438  34.840  22.877  10.308
38179W        W 3439  32.930  32.073  13.626
38180W        W 3440   1.865   4.199  11.168
38181W        W 3441  14.967  15.251   3.866
38182W        W 3442  20.016  15.786  13.419
38183W        W 3443  39.986  24.671  11.423
38184W        W 3444  36.333  18.041  12.908
38185W        W 3445  13.291  28.212   4.768
38186W        W 3446  22.717  34.063   4.973
38187W        W 3447  10.839   8.889   2.678
38188W        W 3448  43.538  19.405  13.002
38189W        W 3449   0.764   6.869   3.155
38190W        W 3450   8.109  26.495   2.359
38191W        W 3451  41.985  33.638   0.324
38192W        W 3452  42.968  29.979  11.455
38193W        W 3453  12.433  27.139   0.365
38194W        W 3454  22.832  26.732  12.432
38195W        W 3455  38.008  19.724   4.120
38196W        W 3456  38.634  41.278   2.124
38197W        W 3457  30.682   7.711  13.057
38198W        W 3458   6.439  42.334  13.336
38199W        W 3459  30.433  33.380  11.071
38200W        W 3460   5.186  18.770   0.049
38201W        W 3461  16.344  34.844   1.424
38202W        W 3462  34.645   3.010   1.901
38203W        W 3463   1.537   5.601  13.499
38204W        W 3464   9.152  18.194  12.176
38205W        W 3465  24.987   0.730  11.360
38206W        W 3466  12.287  14.520   3.244
38207W        W 3467  12.578  11.774  13.855
38208W        W 3468  28.681  35.656   4.146
38209W        W 3469  35.111  23.226  14.362
38210W        W 3470   2.991  21.634   0.476
38211W        W 3471  29.581  30.066   2.776
38212W        W 3472  10.089  21.515  10.547
38213W        W 3473  21.714  32.187   2.154
38214W        W 3474  41.824  10.698  14.782
38215W        W 3475  39.312  41.503   1.552
38216W        W 3476  12.881  10.222   1.225
38217W        W 3477  19.122   9.262   1.363
38218W        W 3478  18.202  18.283  14.733
38219W        W 3479  11.154  35.587  13.940
38220W        W 3480  39.640  21.682   0.566
38221W        W 3481  39.993  19.372   2.867
38222W        W 3482  44.857  29.532  10.963
38223W        W 3483  28.938  41.014  11.700
38224W        W 3484  32.641  23.640  12.796
38225W        W 3485  12.710  42.522   0.538
38226W        W 3486  39.091   1.494  13.262
38227W        W 3487  31.115  24.056  12.120
38228W        W 3488  20.564  39.576   1.758
38229W        W 3489  17.364  15.501   0.231
38230W        W 3490  28.447  11.928  11.615
38231W        W 3491  29.731  15.624  12.525
38232W        W 3492  35.976  14.090  12.540
38233W        W 3493   7.740  13.702   1.666
38234W        W 3494   8.771  38.722  11.978
38235W        W 3495  40.021   2.368   3.634
38236W        W 3496  25.106   2.545   2.496
38237W        W 3497   1.092  12.215   2.784
38238W        W 3498  31.542  22.247  11.649
38239W        W 3499  28.725   2.563   3.892
38240W        W 3500  31.888   9.979  13.481
38241W        W 3501   0.934  33.296   4.523
38242W        W 3502  41.587   5.169  10.717
38243W        W 3503  15.887  31.935   4.416
38244W        W 3504  19.357  18.157  13.913
38245W        W 3505  24.325   7.252   0.350
38246W        W 3506  42.214  12.357  12.508
38247W        W 3507  20.077  41.971  12.565
38248W        W 3508  10.208  18.469  12.917
38249W        W 3509  14.842  28.694  14.903
38250W        W 3510  35.299  21.044  11.561
38251W        W 3511   0.826   1.370  10.714
38252W        W 3512  30.862  30.202  11.535
38253W        W 3513  17.792  19.599   4.106
38254W        W 3514  17.116  23.991   4.026
38255W        W 3515  34.361  34.720   3.923
38256W        W 3516  39.281  17.473  14.284
38257W        W 3517  28.441  31.605   0.982
38258W        W 3518  31.629   5.465  11.899
38259W        W 3519  30.145  21.974  13.385
38260W        W 3520  13.051   1.954  11.089
38261W        W 3521   5.020   4.309   3.470
38262W        W 3522  13.840  23.481   2.585
38263W        W 3523  19.099  39.802   4.344
38264W        W 3524   3.381  39.527   1.301
38265W        W 3525  15.260   9.813  13.220
38266W        W 3526  33.550  40.573  12.558
38267W        W 3527  25.872  11.792  14.132
38268W        W 3528  14.157  22.752   1.829
38269W        W 3529   7.355  23.554  11.224
38270W        W 3530  44.667  36.066  11.108
38271W        W 3531  13.733  33.990   1.744
38272W        W 3532  26.499  35.007   1.181
38273W        W 3533   7.336   1.213   3.741
38274W        W 3534   1.413  34.471   0.855
38275W        W 3535  33.005  17.862   3.199
38276W        W 3536  28.715   4.814   3.683
38277W        W 3537  14.406  10.068  12.320
38278W        W 3538  44.277  16.117   5.062
38279W        W 3539   5.855  35.439  14.318
38280W        W 3540  34.661  20.239   2.479
38281W        W 3541  16.705  25.608  12.005
38282W        W 3542   4.160  10.583  12.408
38283W        W 3543  15.974  30.082  14.950
38284W        W 3544   3.071  14.086   5.158
38285W        W 3545  10.566  31.514  10.619
38286W        W 3546  29.155   7.585   1.851
38287W        W 3547  15.322  15.215   4.244
38288W        W 3548   6.403  24.670   2.728
38289W        W 3549   1.016  33.913   2.220
38290W        W 3550  29.612  41.403  10.503
38291W        W 3551  16.184  18.725  12.880
38292W        W 3552   9.724  39.887   3.255
38293W        W 3553  21.488   0.333  12.848
38294W        W 3554  20.438   0.453  11.189
38295W        W 3555  41.886   0.295  13.933
38296W        W 3556  28.514   5.985  12.572
38297W        W 3557  31.523  16.573  14.813
38298W        W 3558  14.660   2.740   4.249
38299W        W 3559  28.168   2.202  13.483
38300W        W 3560  39.771  37.871   0.726
38301W        W 3561  26.068   7.829  12.353
38302W        W 3562  25.218  22.121  14.451
38303W        W 3563  11.874  26.605   3.927
38304W        W 3564  30.043  21.014  11.332
38305W        W 3565   2.185  36.610  11.611
38306W        W 3566  32.372  38.923  12.397
38307W        W 3567   5.924  23.149  12.172
38308W        W 3568  31.460  11.090  14.917
38309W        W 3569  13.240   9.165  13.493
38310W        W 3570  31.232  39.973   0.698
38311W        W 3571  44.827  15.791   3.215
38312W        W 3572  25.447  29.495  13.415
38313W        W 3573  26.102   7.837   1.724
38314W        W 3574  10.397  23.210   9.718
38315W        W 3575  43.393  20.339   3.259
38316W        W 3576   8.928  41.297  13.415
38317W        W 3577  18.282  18.773   3.221
38318W        W 3578  25.792  18.875  10.246
38319W        W 3579  31.877  29.941  12.425
38320W        W 3580  37.833   5.005   2.909
38321W        W 3581  18.666  30.957  14.283
38322W        W 3582   2.719  14.302   2.401
38323W        W 3583  32.898  15.261  13.603
38324W        W 3584  11.746  39.318  10.094
38325W        W 3585  35.114  30.649  10.937
38326W        W 3586  18.585  32.996  10.666
38327W        W 3587  30.382  11.246   0.913
38328W        W 3588  24.062  12.859  14.452
38329W        W 3589  25.477  24.910   1.348
38330W        W 3590  12.501  39.877   0.426
38331W        W 3591   8.833   5.400  11.585
38332W        W 3592  26.013  24.524  10.772
38333W        W 3593   8.105  31.145  14.761
38334W        W 3594  35.647   8.004   2.870
38335W        W 3595  32.079  35.907   2.336
38336W        W 3596  11.320  30.556   2.179
38337W        W 3597   7.140  18.170   3.487
38338W        W 3598  13.329  22.817   1.140
38339W        W 3599   8.787  11.858   5.003
38340W        W 3600  21.186  21.786   1.255
38341W        W 3601  15.592  42.803  11.888
38342W        W 3602  36.484  36.280   4.564
38343W        W 3603   6.787  38.136  11.202
38344W        W 3604  10.686  27.529  13.535
38345W        W 3605  28.530  37.866  10.516
38346W        W 3606  42.483   2.306  12.843
38347W        W 3607  14.469  35.166   1.744
38348W        W 3608   3.716   1.259   0.341
38349W        W 3609  15.273  29.623   3.324
38350W        W 3610  28.349  31.892   2.256
38351W        W 3611   2.923  20.437  11.568
38352W        W 3612   9.412  10.519  14.847
38353W        W 3613  37.107  44.751  10.554
38354W        W 3614  26.654  26.669  12.549
38355W        W 3615  35.088   8.394  11.154
38356W        W 3616  10.229  19.550   1.774
38357W        W 3617  13.703  14.896   3.326
38358W        W 3618  38.432  35.905  12.495
38359W        W 3619  20.160  19.367   0.454
38360W        W 3620   4.941  23.484  10.686
38361W        W 3621   3.340   9.000   4.521
38362W        W 3622  44.385  39.536  10.827
38363W        W 3623  34.608  38.097  12.562
38364W        W 3624   6.766  12.620  11.180
38365W        W 3625  39.810  20.262   0.332
38366W        W 3626  31.964   5.152  14.057
38367W        W 3627  12.568  37.531   3.765
38368W        W 3628  30.528  13.487  14.825
38369W        W 3629  25.598   3.929  14.012
38370W        W 3630  34.801  39.259  12.005
38371W        W 3631  21.699  44.238  10.247
38372W        W 3632  25.914  43.983  12.068
38373W        W 3633  13.614  13.368   0.166
38374W        W 3634  27.486  38.506   4.577
38375W        W 3635  25.214   6.345  11.521
38376W        W 3636  29.007  37.840   3.533
38377W        W 3637  14.651  14.156   2.699
38378W        W 3638  33.466  13.068   0.084
38379W        W 3639  28.378  15.241   2.674
38380W        W 3640  27.115  12.424  11.609
38381W        W 3641  32.129   4.352   0.520
38382W        W 3642  21.893   3.397  12.614
38383W        W 3643  40.334  24.606  13.967
38384W        W 3644  10.202  44.613  13.133
38385W        W 3645  42.024  29.888  13.014
38386W        W 3646   8.758  14.298  13.821
38387W        W 3647  14.097   3.778   4.934
38388W        W 3648  24.756  29.304   1.249
38389W        W 3649  35.457  17.551   2.452
38390W        W 3650  32.423  20.330   3.263
38391W        W 3651  42.332  44.917  10.552
38392W        W 3652  20.028  19.263  13.915
38393W        W 3653  40.319  12.625   2.766
38394W        W 3654  30.926  17.612   2.363
38395W        W 3655   9.112   3.937   4.906
38396W        W 3656  26.301  20.676  14.531
38397W        W 3657  22.857  42.379   3.173
38398W        W 3658  22.834   3.400   1.419
38399W        W 3659  25.579  17.621   1.943
38400W        W 3660  29.952  34.405   4.099
38401W        W 3661  22.010  40.879   3.511
38402W        W 3662  19.543  28.365  11.009
38403W        W 3663  39.295  11.720   2.713
38404W        W 3664  33.114  15.684   0.341
38405W        W 3665   5.010  13.872  12.110
38406W        W 3666  10.648  13.468   2.146
38407W        W 3667   0.489  44.802  12.624
38408W        W 3668   6.794  37.340   3.153
38409W        W 3669  34.751  25.553   9.876
38410W        W 3670  25.542  41.858   1.058
38411W        W 3671  19.197  31.207  13.553
38412W        W 3672  38.099  22.628   0.315
38413W        W 3673  25.185  27.455   1.369
38414W        W 3674   2.810  22.005  14.825
38415W        W 3675  12.813  39.896   2.886
38416W        W 3676  21.007  17.495  11.118
38417W        W 3677  31.735   5.968  13.848
38418W        W 3678  33.179   6.977  12.070
38419W        W 3679  43.061  20.158   1.042
38420W        W 3680  20.356  20.988   0.420
38421W        W 3681  15.173   0.948   2.192
38422W        W 3682  15.255  29.242   0.880
38423W        W 3683  36.747  23.573   3.703
38424W        W 3684  39.915  32.884  11.057
38425W        W 3685  30.967  32.348  13.567
38426W        W 3686  33.370  21.406   1.283
38427W        W 3687   7.220   4.385   3.976
38428W        W 3688  12.149  12.767  12.879
38429W        W 3689  12.731  27.223  11.072
38430W        W 3690  42.880  42.730  11.459
38431W        W 3691   8.101  23.941  12.067
38432W        W 3692   1.050  20.205   1.788
38433W        W 3693  12.064  39.094  11.989
38434W        W 3694  37.631  43.298  13.423
38435W        W 3695  39.020  44.002  12.801
38436W        W 3696  18.025   9.347   2.416
38437W        W 3697  13.070  39.221  14.876
38438W        W 3698  11.143  23.138   3.637
38439W        W 3699  13.118  28.967   1.266
38440W        W 3700   6.401  20.805   3.743
38441W        W 3701  11.386  41.965   0.464
38442W        W 3702  17.550  43.770   4.157
38443W        W 3703  18.798  13.300   3.767
38444W        W 3704  26.756  13.764   2.785
38445W        W 3705  37.372   1.673  12.108
38446W        W 3706   8.605   7.322   4.448
38447W        W 3707  33.883  42.553   2.808
38448W        W 3708  35.471   1.507  12.654
38449W        W 3709  41.427   4.842   4.290
38450W        W 3710  37.912  12.223   3.934
38451W        W 3711  28.647  37.671  11.913
38452W        W 3712   1.747  42.702  12.485
38453W        W 3713  13.087  37.987  10.725
38454W        W 3714  31.656  41.420   1.157
38455W        W 3715  11.047   6.322  11.487
38456W        W 3716  21.655  26.569  11.188
38457W        W 3717  41.691  40.766  14.489
38458W        W 3718   7.418  22.202  10.701
38459W        W 3719  26.565   7.804  12.484
38460W        W 3720  10.846   3.000   0.722
38461W        W 3721   2.654  35.057   3.435
38462W        W 3722  37.686  22.166   3.741
38463W        W 3723  18.358  37.554  12.459
38464W        W 3724   6.386  32.991   4.666
38465W        W 3725  37.983  13.298  13.864
38466W        W 3726  36.957   6.940  10.894
38467W        W 3727   2.311  17.485  11.186
38468W        W 3728  19.847  41.526  12.509
38469W        W 3729  18.673  44.199  12.045
38470W        W 3730  40.107  13.840   4.862
38471W        W 3731   3.919   8.269  13.941
38472W        W 3732  38.661  16.269  14.816
38473W        W 3733  25.937  15.755  10.865
38474W        W 3734  29.459   0.883   3.690
38475W        W 3735  37.399   9.592   3.670
38476W        W 3736  40.055  38.963   0.019
38477W        W 3737   3.619  29.037  11.222
38478W        W 3738  31.917  26.534  12.421
38479W        W 3739  43.338  33.877  10.451
38480W        W 3740   5.228  41.293  13.119
38481W        W 3741  10.183   5.502  12.887
38482W        W 3742  37.137  13.265   0.735
38483W        W 3743  21.268   0.763   0.910
38484W        W 3744   1.914  37.698  11.659
38485W        W 3745  40.698  16.965  11.898
38486W        W 3746  37.839  34.590  14.797
38487W        W 3747  23.309   7.640   3.213
38488W        W 3748  41.521  39.955   4.123
38489W        W 3749  21.717  30.741  11.513
38490W        W 3750   7.752  22.008   0.433
38491W        W 3751   0.358  24.053   2.347
38492W        W 3752  39.539  23.454   2.267
38493W        W 3753  30.114  24.700  14.701
38494W        W 3754  14.186  21.754   4.135
38495W        W 3755  43.140  33.036  11.221
38496W        W 3756  13.816  32.977   1.404
38497W        W 3757  19.274  42.059   3.289
38498W        W 3758   9.277  25.415   4.573
38499W        W 3759  18.184   5.251  10.634
38500W        W 3760  22.697  37.374   3.422
38501W        W 3761  25.743   0.981  11.608
38502W        W 3762  24.428  18.621  12.755
38503W        W 3763  17.325  21.401  13.283
38504W        W 3764   3.791   1.892   1.891
38505W        W 3765  26.483  18.608   0.301
38506W        W 3766  11.119  22.611  14.582
38507W        W 3767  16.189   9.624  14.266
38508W        W 3768  21.982  19.346  13.912
38509W        W 3769   0.261  43.722  14.121
38510W        W 3770  21.585  38.129  10.827
38511W        W 3771   7.322  44.633  11.641
38512W        W 3772  12.699  19.546  14.789
38513W        W 3773  44.819  14.814   0.487
38514W        W 3774  24.944   8.100   0.205
38515W        W 3775  21.977  29.676  12.495
38516W        W 3776  31.741  22.509  10.177
38517W        W 3777   6.317  26.687   1.228
38518W        W 3778  36.352  20.292  14.460
38519W        W 3779  27.164  35.276   2.436
38520W        W 3780  31.124   0.756   3.792
38521W        W 3781  39.464   7.847  13.370
38522W        W 3782  20.183  18.555   1.386
38523W        W 3783  12.651  33.421   2.602
38524W        W 3784  39.474  29.677  10.747
38525W        W 3785  39.582  20.500  12.758
38526W        W 3786  24.507   0.771  14.995
38527W        W 3787   4.218  11.263  14.933
38528W        W 3788  15.249  21.990   0.733
38529W        W 3789  25.562  23.148   4.873
38530W        W 3790   0.133   3.517  12.832
38531W        W 3791  16.347  20.938   0.850
38532W        W 3792  22.994  21.778   1.358
38533W        W 3793  17.922  43.512  11.190
38534W        W 3794  38.855  30.588   1.317
38535W        W 3795  22.502  43.782   2.700
38536W        W 3796   7.014  18.337  12.834
38537W        W 3797  19.234  29.480   3.655
38538W        W 3798  12.844   9.424   1.640
38539W        W 3799  18.035  11.728   3.092
38540W        W 3800  25.854  18.618   0.872
38541W        W 3801  27.534   9.673  10.698
38542W        W 3802  24.132  16.678  14.106
38543W        W 3803  24.618  14.566   3.285
38544W        W 3804  30.331   7.738  13.471
38545W        W 3805   1.718  12.167   1.228
38546W        W 3806   3.912  28.921  14.568
38547W        W 3807   6.536  37.352   1.191
38548W        W 3808   8.215  10.567   0.228
38549W        W 3809  22.644  15.898   4.528
38550W        W 3810  20.342  17.269   4.493
38551W        W 3811  22.081  19.101   4.025
38552W        W 3812  36.994  10.901   2.855
38553W        W 3813  40.524   1.632  12.425
38554W        W 3814  27.942  32.000   2.635
38555W        W 3815  13.853  44.048  11.981
38556W        W 3816  31.610  20.550  11.545
38557W        W 3817   0.761  14.149   2.709
38558W        W 3818  12.374  14.193   2.291
38559W        W 3819   9.293  23.027   3.567
38560W        W 3820  27.132  23.904  14.868
38561W        W 3821  36.002   8.989  10.313
38562W        W 3822  27.730  24.652   2.292
38563W        W 3823  39.273  18.114   4.381
38564W        W 3824  38.543  38.152  13.456
38565W        W 3825  31.166  14.317  14.796
38566W        W 3826   1.786  27.045  10.806
38567W        W 3827  17.607  27.774  13.038
38568W        W 3828   0.522   4.423  12.037
38569W        W 3829   7.950  17.619   0.575
38570W        W 3830  15.240  41.592   3.603
38571W        W 3831   5.413  29.014   4.857
38572W        W 3832  29.689  41.844   2.450
38573W        W 3833  36.492  44.728   4.072
38574W        W 3834  14.567  21.743   2.452
38575W        W 3835   5.309  18.928  14.534
38576W        W 3836  40.352  34.863   3.840
38577W        W 3837   8.868   9.798  13.421
38578W        W 3838  36.971  26.563  12.428
38579W        W 3839  29.437  33.386  13.698
38580W        W 3840  43.016   0.387  12.383
38581W        W 3841  25.620  32.848   2.822
38582W        W 3842   2.163  14.332  11.421
38583W        W 3843  30.797   9.607   1.761
38584W        W 3844  20.628  40.390  13.829
38585W        W 3845   7.918  41.300  12.334
38586W        W 3846  40.749   9.625  11.090
38587W        W 3847  44.005  11.956  11.490
38588W        W 3848  14.764  32.483   2.156
38589W        W 3849   8.254  41.832  10.553
38590W        W 3850  18.239  23.216   0.421
38591W        W 3851  23.514  41.387   3.722
38592W        W 3852  41.019  23.468   1.649
38593W        W 3853  22.702   7.171   2.697
38594W        W 3854  25.935  33.104  13.005
38595W        W 3855  14.873  15.767  11.669
38596W        W 3856  24.258   2.765   2.050
38597W        W 3857   0.889  10.645   4.411
38598W        W 3858  20.858  26.088  10.796
38599W        W 3859  10.692  12.584  11.499
38600W        W 3860   2.805  25.061   1.444
38601W        W 3861  17.036  14.432  14.342
38602W        W 3862  22.022  17.172  13.307
38603W        W 3863  32.047  24.751   1.276
38604W        W 3864  44.540  20.963  14.781
38605W        W 3865  38.728  43.781  11.766
38606W        W 3866  30.892   8.324  10.607
38607W        W 3867  12.037  20.310  11.550
38608W        W 3868  43.786   9.053  14.811
38609W        W 3869  22.189  42.872  11.245
38610W        W 3870  39.585   2.583  14.336
38611W        W 3871  32.018  31.462   0.174
38612W        W 3872   6.698  35.891  13.052
38613W        W 3873  26.120  33.573  12.847
38614W        W 3874   0.684  40.102  11.949
38615W        W 3875  26.272  13.563   2.766
38616W        W 3876  13.100  12.250  14.082
38617W        W 3877  11.163  10.570  13.373
38618W        W 3878  11.589  26.401  12.589
38619W        W 3879  17.625   1.258  11.149
38620W        W 3880  21.708  25.309   2.702
38621W        W 3881   2.142   0.244  13.957
38622W        W 3882  22.064  39.383  12.208
38623W        W 3883  44.486  20.125   0.130
38624W        W 3884  37.932   1.463  13.922
38625W        W 3885   0.784   1.412   2.889
38626W        W 3886  23.593  44.337  11.668
38627W        W 3887  43.323   4.680   2.650
38628W        W 3888  38.249  31.028   1.738
38629W        W 3889  14.247  37.312  11.793
38630W        W 3890   2.825   7.044  10.646
38631W        W 3891  23.954  31.557   4.672
38632W        W 3892  43.366  23.753  11.502
38633W        W 3893  43.970  30.154  13.350
38634W        W 3894  10.099  33.324   0.621
38635W        W 3895  38.259   5.702   4.288
38636W        W 3896   5.660   6.872   3.820
38637W        W 3897  28.914  23.385  12.852
38638W        W 3898  38.591   7.913  11.872
38639W        W 3899  43.441  27.941   2.477
38640W        W 3900  17.444   9.121   0.247
38641W        W 3901   3.626  39.843   0.773
38642W        W 3902   7.207  18.488   4.813
38643W        W 3903  12.095  27.121   3.676
38644W        W 3904   2.002  36.819   1.575
38645W        W 3905  13.365  27.946   2.912
38646W        W 3906  41.450  15.897   2.429
38647W        W 3907   8.820  10.656   1.856
38648W        W 3908   7.175   9.436   0.784
38649W        W 3909   8.914  24.125  13.147
38650W        W 3910  10.820   8.725  13.683
38651W        W 3911  38.723  23.521   0.203
38652W        W 3912  17.634  18.521  11.119
38653W        W 3913  22.230  29.466  14.853
38654W        W 3914  16.694  10.068   3.321
38655W        W 3915  35.614  37.332   0.323
38656W        W 3916  35.427   9.381  14.843
38657W        W 3917  17.448   6.977   4.552
38658W        W 3918   8.347  10.940   3.810
38659W        W 3919  29.449  32.828   4.125
38660W        W 3920  20.486   0.175  12.931
38661W        W 3921  18.912  11.294  11.160
38662W        W 3922  37.008  34.935   0.531
38663W        W 3923  30.468  11.389   1.931
38664W        W 3924  27.630  42.906   0.023
38665W        W 3925   5.645  29.172  12.956
38666W        W 3926  20.220   4.668  10.598
38667W        W 3927  21.242  27.920  12.561
38668W        W 3928  43.591   7.615  13.698
38669W        W 3929  20.145  19.520  14.970
38670W        W 3930  21.184  10.207  12.101
38671W        W 3931  27.294  17.436   4.101
38672W        W 3932  12.057  10.511  14.578
38673W        W 3933  30.843   6.163  13.562
38674W        W 3934  11.479  30.160  11.608
38675W        W 3935   3.937  17.854   0.015
38676W        W 3936   9.925  18.211   4.400
38677W        W 3937  17.784   6.726  12.627
38678W        W 3938  27.716  12.087   2.663
38679W        W 3939  17.063  31.581  11.100
38680W        W 3940  22.234  20.809   1.211
38681W        W 3941   2.029  12.161  12.846
38682W        W 3942   6.035   5.751   1.771
38683W        W 3943   0.543  26.398  14.808
38684W        W 3944  30.561   5.299  10.632
38685W        W 3945  35.400   9.228   2.198
38686W        W 3946  11.267  43.959  12.188
38687W        W 3947  37.441   8.064   2.720
38688W        W 3948  25.840  36.588  10.180
38689W        W 3949  39.391  27.027   1.750
38690W        W 3950  18.574  42.381  12.525
38691W        W 3951  43.438  28.652  14.484
38692W        W 3952  15.584   0.688   1.456
38693W        W 3953   9.004  39.363  12.496
38694W        W 3954  29.760  22.619  14.488
38695W        W 3955  36.390  10.405  11.545
38696W        W 3956  18.376  15.298  14.264
38697W        W 3957  33.234  13.109   2.724
38698W        W 3958  15.871  16.112   1.766
38699W        W 3959  27.657  19.895  13.097
38700W        W 3960  39.642  39.374   0.769
38701W        W 3961   8.736  11.857  14.821
38702W        W 3962  12.602  18.702   0.846
38703W        W 3963  21.871  25.197   3.714
38704W        W 3964   7.709  23.850  12.428
38705W        W 3965   9.683  16.771  14.288
38706W        W 3966   7.746  42.230   4.247
38707W        W 3967  31.709  41.310   4.294
38708W        W 3968  26.871  29.015  14.452
38709W        W 3969  23.631  41.791  12.759
38710W        W 3970  11.172  32.481  13.864
38711W        W 3971  40.768   8.239   1.205
38712W        W 3972  36.369  34.308   0.503
38713W        W 3973  14.305  39.878  13.393
38714W        W 3974   3.267  27.710   3.135
38715W        W 3975  36.828  25.415   4.611
38716W        W 3976   0.839  27.379   2.187
38717W        W 3977  32.386  39.996   2.716
38718W        W 3978   3.337  36.430  13.020
38719W        W 3979   3.711  19.619   1.452
38720W        W 3980   2.880   3.359  12.914
38721W        W 3981  31.555  32.653   3.293
38722W        W 3982  40.431  26.863   1.721
38723W        W 3983  34.610   3.895   2.200
38724W        W 3984  20.306  23.093  14.580
38725W        W 3985  24.743   7.674   0.446
38726W        W 3986  22.711  21.904  11.219
38727W        W 3987   4.385  33.994  13.849
38728W        W 3988  16.326  38.512  10.336
38729W        W 3989  17.470  14.650   2.839
38730W        W 3990  38.980  26.498   9.758
38731W        W 3991  27.976  40.257  10.715
38732W        W 3992  40.989  41.482  11.157
38733W        W 3993  32.386  21.310  13.519
38734W        W 3994  25.893  35.863   0.856
38735W        W 3995  36.424   1.431  14.526
38736W        W 3996  20.183  28.152   3.325
38737W        W 3997  14.237  42.603  13.993
38738W        W 3998  44.829  15.990   5.546
38739W        W 3999  39.652  28.529   0.303
38740W        W 4000   7.294  26.119  13.305
38741W        W 4001   3.004  35.664  11.087
38742W        W 4002  13.601   5.715  12.637
38743W        W 4003   3.963  39.129  12.796
38744W        W 4004  13.075  16.895   0.836
38745W        W 4005  24.992  34.509  11.906
38746W        W 4006  27.621  36.305   3.543
38747W        W 4007  19.658   1.780   3.346
38748W        W 4008  38.797  34.288   2.927
38749W        W 4009  41.299   4.691  14.297
38750W        W 4010   0.369  37.123   0.401
38751W        W 4011  12.881  18.643  13.071
38752W        W 4012  10.655   2.064  11.490
38753W        W 4013  28.623  33.545   4.158
38754W        W 4014  31.587  30.889   3.707
38755W        W 4015  40.752   0.383   1.188
38756W        W 4016  37.627  34.916  13.065
38757W        W 4017   5.717  44.889   2.812
38758W        W 4018  29.566  38.943   3.917
38759W        W 4019  17.117   3.928  10.697
38760W        W 4020  40.337  23.320  13.977
38761W        W 4021  13.566   1.659  11.637
38762W        W 4022  24.696  23.293   1.813
38763W        W 4023  33.381  30.449   1.749
38764W        W 4024  35.718   2.723   1.114
38765W        W 4025   8.440  16.467  11.205
38766W        W 4026  27.997  41.854  11.548
38767W        W 4027   7.901  22.155  13.305
38768W        W 4028  32.482   7.339  10.533
38769W        W 4029   6.160   4.912   5.255
38770W        W 4030   4.773  31.181   0.698
38771W        W 4031  34.003   8.197  14.100
38772W        W 4032  34.563  41.582   3.248
38773W        W 4033   9.340  13.314  14.360
38774W        W 4034   2.970  13.196  14.813
38775W        W 4035   7.677  21.728  14.958
38776W        W 4036  38.589  21.117  12.770
38777W        W 4037   6.281  14.602  14.551
38778W        W 4038   3.498  31.629  13.405
38779W        W 4039  40.837  30.227   1.799
38780W        W 4040  36.853  28.053   3.287
38781W        W 4041  36.161  34.125   2.748
38782W        W 4042  44.495   3.361  11.149
38783W        W 4043  24.736  24.083  11.321
38784W        W 4044  36.875  30.124  12.473
38785W        W 4045  23.598  29.130  10.642
38786W        W 4046  43.637   2.996  11.077
38787W        W 4047  30.674  17.228   3.206
38788W        W 4048  22.942  35.990   3.218
38789W        W 4049  42.764  36.801   2.313
38790W        W 4050  19.258   4.687   4.653
38791W        W 4051  26.544  35.174   2.127
38792W        W 4052  21.763  11.769  14.423
38793W        W 4053  24.369  37.029   0.694
38794W        W 4054  36.853  38.574   4.897
38795W        W 4055   8.706  12.037   3.269
38796W        W 4056  15.737  40.320   4.143
38797W        W 4057  11.768  35.005  14.289
38798W        W 4058   9.855  12.739  11.850
38799W        W 4059   3.958  39.121  12.067
38800W        W 4060  40.493  11.596   1.436
38801W        W 4061  21.468  26.240   2.803
38802W        W 4062  30.734   5.793  13.956
38803W        W 4063   2.158  39.371   1.897
38804W        W 4064   7.255  22.126   0.272
38805W        W 4065   0.055  34.361   4.152
38806W        W 4066  17.595  34.000  10.554
38807W        W 4067  10.743  14.895  11.419
38808W        W 4068  14.194  31.614  10.941
38809W        W 4069  28.275  10.810  12.916
38810W        W 4070  42.228  21.505  12.568
38811W        W 4071   9.098  31.970  12.491
38812W        W 4072  10.611  10.089  12.423
38813W        W 4073  41.323  40.044  14.685
38814W        W 4074  12.122  24.013   0.396
38815W        W 4075   8.825  34.881  10.616
38816W        W 4076  37.495  23.979   3.531
38817W        W 4077  36.618  25.067  11.638
38818W        W 4078   7.430   7.505   0.799
38819W        W 4079  16.302   9.685   2.635
38820W        W 4080  31.597  33.222   0.877
38821W        W 4081  38.048  34.435   4.933
38822W        W 4082  40.659  44.814  14.270
38823W        W 4083   9.849  22.670   0.383
38824W        W 4084  23.922  25.463  12.832
38825W        W 4085  31.853  15.312   4.057
38826W        W 4086  36.916  32.649  14.978
38827W        W 4087  38.649  21.132  14.269
38828W        W 4088  38.800  34.799   2.957
38829W        W 4089  21.086  25.725   3.652
38830W        W 4090  26.499  29.168   4.316
38831W        W 4091  21.684  32.087  14.969
38832W        W 4092  37.613  23.758  13.886
38833W        W 4093  40.375   1.951  12.036
38834W        W 4094  18.697  16.198  13.504
38835W        W 4095  17.863  36.534  13.543
38836W        W 4096  33.901  32.113  14.806
38837W        W 4097   1.643   4.906  11.569
38838W        W 4098  33.592  24.926  11.596
38839W        W 4099  25.094  14.788   3.128
38840W        W 4100  27.951  11.848   3.447
38841W        W 4101  26.243  43.383  14.697
38842W        W 4102  24.957  33.900  13.600
38843W        W 4103   6.891   8.632  10.316
38844W        W 4104  14.228  21.302  11.251
38845W        W 4105   3.169  34.563   2.842
38846W        W 4106  44.215  21.709  10.727
38847W        W 4107  11.548  17.604   4.898
38848W        W 4108   1.912  18.634  12.954
38849W        W 4109  12.511  35.333  13.401
38850W        W 4110  22.955  18.068   1.752
38851W        W 4111  17.483  36.001   3.676
38852W        W 4112  38.972  26.685  14.795
38853W        W 4113  43.341   6.177  13.969
38854W        W 4114  38.794  26.051  13.474
38855W        W 4115  39.776  21.196   4.897
38856W        W 4116  32.429  10.432  11.990
38857W        W 4117  19.322   6.195   3.108
38858W        W 4118  17.775   4.919   1.843
38859W        W 4119  19.714  28.011   4.087
38860W        W 4120  34.950  44.473   0.843
38861W        W 4121  41.567  14.743   3.370
38862W        W 4122  12.913  28.007  14.189
38863W        W 4123  44.824   9.143  11.459
38864W        W 4124  10.700   3.289  13.051
38865W        W 4125   4.416  33.669  13.427
38866W        W 4126  35.316  36.442  11.384
38867W        W 4127  35.627  27.347   1.822
38868W        W 4128  26.633  13.341   3.296
38869W        W 4129  41.258  33.268   1.507
38870W        W 4130  21.246  36.377  12.898
38871W        W 4131  20.121  11.855  10.766
38872W        W 4132   2.893  18.085   4.748
38873W        W 4133  29.440  19.193   4.781
38874W        W 4134  10.077   5.372   3.149
38875W        W 4135  42.302  44.710  13.103
38876W        W 4136  37.835  26.065  12.531
38877W        W 4137  28.461  41.646  14.202
38878W        W 4138  38.385  11.139   0.196
38879W        W 4139   4.891  18.579   2.286
38880W        W 4140  42.699  34.316  14.976
38881W        W 4141  34.384  17.348   3.804
38882W        W 4142  35.912  15.575  12.333
38883W        W 4143   3.196  14.972  14.906
38884W        W 4144  13.122  34.105   1.275
38885W        W 4145  39.115   2.869   4.357
38886W        W 4146  44.937  39.017   3.296
38887W        W 4147  12.367  16.814   2.277
38888W        W 4148  38.830   6.360  13.363
38889W        W 4149  23.576  25.732  13.073
38890W        W 4150  27.631  14.178  12.900
38891W        W 4151  31.779  34.679  11.539
38892W        W 4152  26.495  28.081  12.607
38893W        W 4153  39.712   9.871  13.931
38894W        W 4154  44.002  21.585   0.746
38895W        W 4155  11.418  13.816  14.927
38896W        W 4156   9.218  16.316  12.881
38897W        W 4157  20.605  11.762  11.837
38898W        W 4158  37.325   0.822  13.370
38899W        W 4159   8.154   9.286   0.458
38900W        W 4160   3.147  20.279   4.169
38901W        W 4161  25.953  37.484  12.118
38902W        W 4162  15.698   5.855   5.096
38903W        W 4163  40.024   2.998   4.182
38904W        W 4164  36.580   6.783   3.753
38905W        W 4165  18.536  39.755   1.472
38906W        W 4166  28.876  21.713  11.465
38907W        W 4167  39.037  23.569  13.529
38908W        W 4168   5.753  21.725   3.933
38909W        W 4169   5.942  17.212  11.820
38910W        W 4170  23.034  25.502   0.811
38911W        W 4171  43.253  15.783  13.702
38912W        W 4172  15.037  39.522   3.738
38913W        W 4173  20.785  12.585  11.605
38914W        W 4174   7.772  30.782   3.699
38915W        W 4175  29.127  16.651   1.694
38916W        W 4176  43.902  12.106   2.840
38917W        W 4177  30.900  26.935   0.872
38918W        W 4178  21.797  26.353  14.483
38919W        W 4179  23.198  37.915  10.752
38920W        W 4180  28.331  38.032  14.268
38921W        W 4181  10.133   3.017  14.552
38922W        W 4182  37.795  19.573  13.438
38923W        W 4183  21.797  14.202  12.858
38924W        W 4184  20.312  44.005  12.906
38925W        W 4185  21.233   5.898  12.344
38926W        W 4186  22.059  36.795   2.691
38927W        W 4187  33.533  12.775   2.943
38928W        W 4188   3.725   0.959   4.562
38929W        W 4189  22.274  26.701   3.305
38930W        W 4190   7.036  29.621  11.862
38931W        W 4191  15.318  10.254   4.547
38932W        W 4192  39.933  10.367   1.771
38933W        W 4193   6.470  10.534   2.553
38934W        W 4194  37.673  28.486  12.737
38935W        W 4195  24.389  23.357   3.700
38936W        W 4196   9.753  18.665   0.713
38937W        W 4197  42.753  32.133   0.384
38938W        W 4198  34.370  21.069   1.440
38939W        W 4199   6.872  19.550   0.529
38940W        W 4200  20.744  37.505   0.326
38941W        W 4201  38.397  16.822  11.508
38942W        W 4202  29.371  33.104   0.575
38943W        W 4203  27.606  29.660   3.293
38944W        W 4204   0.883   0.759  12.855
38945W        W 4205  30.367  18.970  14.105
38946W        W 4206  19.239  13.382  14.687
38947W        W 4207  28.518  38.309   2.745
38948W        W 4208  40.621  40.087  13.455
38949W        W 4209  41.521  28.446   2.824
38950W        W 4210   0.705  29.047  14.587
38951W        W 4211   1.291  40.377   4.776
38952W        W 4212   7.459  19.431   4.614
38953W        W 4213  39.910   4.811  14.863
38954W        W 4214   1.821  15.598   1.783
38955W        W 4215  18.828  24.233   4.032
38956W        W 4216   0.738  17.191  11.552
38957W        W 4217  32.644  12.029   4.940
38958W        W 4218   6.331  32.631  10.196
38959W        W 4219  40.308  34.816   2.383
38960W        W 4220  40.498  34.080  12.485
38961W        W 4221   7.855  43.938  10.903
38962W        W 4222  40.564  12.299   4.717
38963W        W 4223  41.670  32.331  14.390
38964W        W 4224  36.434  32.723  11.807
38965W        W 4225  17.283  38.566  11.538
38966W        W 4226  19.974  12.281  11.458
38967W        W 4227  28.612  37.114  10.966
38968W        W 4228   5.839   4.251  14.561
38969W        W 4229   5.939  29.011  14.236
38970W        W 4230   6.175  36.067   2.143
38971W        W 4231  34.074   2.523   5.019
38972W        W 4232   5.512  15.927  12.026
38973W        W 4233  10.363  29.014   0.926
38974W        W 4234   5.701  32.040  10.460
38975W        W 4235  12.618  36.439  13.750
38976W        W 4236  20.283   4.749  12.860
38977W        W 4237  12.263  12.198  13.075
38978W        W 4238  14.859  20.302   1.807
38979W        W 4239  36.819  40.447   2.902
38980W        W 4240   1.992  23.208   4.624
38981W        W 4241  28.076  44.822   4.309
38982W        W 4242   4.746  17.081  11.062
38983W        W 4243  14.145  41.609  13.930
38984W        W 4244  35.960  30.347   1.823
38985W        W 4245  37.094  16.658   3.593
38986W        W 4246  16.404  16.272  13.189
38987W        W 4247  22.918   0.989  14.044
38988W        W 4248   8.603   4.494   2.759
38989W        W 4249  21.572   7.122  14.831
38990W        W 4250  43.544  27.270  12.645
38991W        W 4251  35.820  18.707   4.544
38992W        W 4252  20.254  39.550  13.734
38993W        W 4253  23.183  23.251   1.199
38994W        W 4254  23.048  31.117   3.988
38995W        W 4255  15.108   2.437  14.876
38996W        W 4256   1.050  21.229   3.180
38997W        W 4257  37.047  12.585  12.440
38998W        W 4258   4.940  21.357  12.491
38999W        W 4259  35.878  11.831  12.817
39000W        W 4260   9.830  25.547  12.821
39001W        W 4261   2.467  24.392   2.347
39002W        W 4262  42.026  32.900  14.968
39003W        W 4263  21.919  40.208  11.889
39004W        W 4264  26.006   9.913  14.765
39005W        W 4265  24.612  42.415   4.948
39006W        W 4266   7.829   6.784  14.724
39007W        W 4267  36.539   5.510  12.477
39008W        W 4268   7.873  18.525  11.273
39009W        W 4269  15.892  22.548   3.150
39010W        W 4270   8.832  38.408  13.522
39011W        W 4271   9.190  32.935  10.932
39012W        W 4272  21.533  18.366  10.229
39013W        W 4273   8.764  25.535   5.001
39014W        W 4274  39.113   5.940  14.325
39015W        W 4275  38.440  11.320   2.719
39016W        W 4276  41.075  16.771  11.598
39017W        W 4277  43.360  32.218  10.132
39018W        W 4278  34.039   2.962   1.821
39019W        W 4279   8.923  14.611  11.189
39020W        W 4280  32.906  36.952  12.446
39021W        W 4281  32.809  33.622   1.011
39022W        W 4282  44.826  30.919   4.133
39023W        W 4283   2.682  15.598  12.660
39024W        W 4284   3.932   9.404   4.922
39025W        W 4285  40.455  35.500  14.336
39026W        W 4286  32.130  16.328   1.804
39027W        W 4287  30.451  39.730  11.162
39028W        W 4288  29.536  41.407   0.399
39029W        W 4289  36.568  29.348   5.288
39030W        W 4290  44.775   9.367  10.156
39031W        W 4291  19.404  36.708  13.380
39032W        W 4292  44.700   0.003  13.873
39033W        W 4293   3.947  24.611  14.971
39034W        W 4294  28.612  38.780   2.466
39035W        W 4295  38.789  26.466   3.095
39036W        W 4296  44.528  38.728   3.836
39037W        W 4297  11.988  30.486   4.146
39038W        W 4298  22.533   1.785  13.883
39039W        W 4299  24.740   3.274  14.966
39040W        W 4300  11.763   4.699  10.885
39041W        W 4301  13.232  32.646   2.782
39042W        W 4302  31.473  41.556   3.885
39043W        W 4303  23.635  13.569   4.299
39044W        W 4304  11.867  32.911  14.372
39045W        W 4305   4.141  44.765   4.767
39046W        W 4306  17.674   3.960  13.060
39047W        W 4307  24.882  36.841  11.994
39048W        W 4308  32.989   4.773  11.185
39049W        W 4309  16.234   1.451   2.278
39050W        W 4310  13.341   0.694   4.614
39051W        W 4311  40.987  24.973  14.930
39052W        W 4312  36.491  26.132   1.420
39053W        W 4313  31.040  32.935   4.130
39054W        W 4314   0.414  26.576  12.966
39055W        W 4315  33.882  37.802   4.579
39056W        W 4316  15.091  11.187  14.384
39057W        W 4317   6.383  39.382   2.135
39058W        W 4318   9.646  44.238   2.639
39059W        W 4319  36.025  24.141  13.086
39060W        W 4320  28.483  43.502   2.363
39061W        W 4321  14.662  26.658  13.485
39062W        W 4322  11.259  40.944  12.579
39063W        W 4323   2.017  35.873  12.035
39064W        W 4324  42.945  13.093   2.890
39065W        W 4325  40.323  24.953   3.647
39066W        W 4326   1.294  17.692  14.802
39067W        W 4327  15.652   4.389   4.939
39068W        W 4328  15.148  43.072  13.283
39069W        W 4329  43.998  38.508  13.062
39070W        W 4330  29.026  28.539   4.639
39071W        W 4331  41.258   0.305  12.114
39072W        W 4332  22.728  20.184   2.673
39073W        W 4333  30.551  26.051   1.834
39074W        W 4334  43.847   3.876  13.507
39075W        W 4335  31.376  44.056  12.046
39076W        W 4336  36.548  17.805  10.942
39077W        W 4337  17.764  27.958  12.050
39078W        W 4338  10.312  17.780   2.208
39079W        W 4339  35.827  15.113  13.166
39080W        W 4340  30.200  31.601   3.044
39081W        W 4341  30.947  23.692   3.367
39082W        W 4342   1.879  28.494  10.564
39083W        W 4343   7.944  33.504  13.303
39084W        W 4344  40.887  39.307   3.852
39085W        W 4345  28.971  30.338   1.172
39086W        W 4346  10.353  21.649   4.503
39087W        W 4347   0.287  25.941  14.760
39088W        W 4348   3.905  40.856  13.587
39089W        W 4349  22.514  32.812  11.825
39090W        W 4350   4.133   9.040  10.635
39091W        W 4351  15.249  30.545   1.230
39092W        W 4352   5.247  41.234   1.400
39093W        W 4353   3.180  12.270   0.040
39094W        W 4354  33.518  19.968  12.613
39095W        W 4355   1.238  21.170   0.789
39096W        W 4356  31.302   4.135   3.340
39097W        W 4357  44.619  35.343  11.598
39098W        W 4358  11.833   7.258   4.510
39099W        W 4359  41.712  17.593  11.135
39100W        W 4360  14.259  16.101   4.935
39101W        W 4361  11.976  41.141  11.511
39102W        W 4362  32.187  29.494  12.490
39103W        W 4363  39.544  10.082  10.857
39104W        W 4364  21.112  38.822  12.902
39105W        W 4365  28.883  18.131   1.614
39106W        W 4366  44.226  25.203   2.694
39107W        W 4367   0.853   0.373  14.169
39108W        W 4368  42.901  32.654   4.637
39109W        W 4369   1.967  37.031   3.765
39110W        W 4370   4.140  17.348  10.256
39111W        W 4371  44.707  19.537   0.838
39112W        W 4372  12.341  31.698   0.479
39113W        W 4373  25.282  35.900   5.325
39114W        W 4374  19.701   2.463  12.632
39115W        W 4375  16.717  29.889  11.880
39116W        W 4376  25.078  34.572   0.422
39117W        W 4377  15.794  18.093   0.316
39118W        W 4378   5.351  29.250   0.311
39119W        W 4379  10.680  21.464  13.480
39120W        W 4380   0.272  27.370  14.891
39121W        W 4381  21.045  29.121  13.889
39122W        W 4382   6.214  17.306   0.951
39123W        W 4383  20.728  34.526  11.449
39124W        W 4384   1.381  20.015  10.587
39125W        W 4385  11.335  31.061  11.976
39126W        W 4386  24.574  30.930   3.334
39127W        W 4387  24.072  18.810   1.388
39128W        W 4388   1.766  24.292  11.684
39129W        W 4389  15.856  32.619  12.429
39130W        W 4390  38.100   9.845   1.878
39131W        W 4391  15.844  37.013   2.707
39132W        W 4392  11.630  15.893  14.256
39133W        W 4393   8.846  36.381   5.159
39134W        W 4394   9.794  43.290   3.002
39135W        W 4395  24.661  28.058  13.910
39136W        W 4396  20.038  27.096  13.017
39137W        W 4397   7.687   4.729   1.182
39138W        W 4398  11.080  20.547  12.996
39139W        W 4399  21.316  26.007   2.330
39140W        W 4400  32.738  10.410   2.312
39141W        W 4401  44.254  29.322  14.192
39142W        W 4402  15.056  30.634   4.334
39143W        W 4403  42.537  37.541  11.419
39144W        W 4404  35.856   7.806   1.850
39145W        W 4405  27.138  34.340   2.818
39146W        W 4406  17.288  37.657  14.010
39147W        W 4407  42.020  34.279  12.309
39148W        W 4408  27.485  16.495  13.594
39149W        W 4409   2.840  28.363  12.791
39150W        W 4410  29.588   8.704  11.654
39151W        W 4411   4.217   5.740   2.301
39152W        W 4412  33.186  15.062   4.271
39153W        W 4413  19.185  11.627   4.781
39154W        W 4414  15.079  17.838   4.005
39155W        W 4415  33.451  44.287  14.779
39156W        W 4416  38.654   6.765   1.430
39157W        W 4417  39.487  31.078   0.834
39158W        W 4418  25.943   7.930   4.186
39159W        W 4419   5.742  15.810  11.584
39160W        W 4420  17.783  12.355  14.255
39161W        W 4421  13.903  12.717   4.164
39162W        W 4422  15.325  44.444  10.584
39163W        W 4423  19.594  23.962   1.945
39164W        W 4424  32.040  15.694   4.385
39165W        W 4425  14.669   7.797   1.959
39166W        W 4426  21.630  26.419  13.780
39167W        W 4427  12.725  40.910   4.348
39168W        W 4428   8.856  17.372  13.933
39169W        W 4429  20.472  21.513  12.398
39170W        W 4430  10.287  29.259   2.171
39171W        W 4431  30.680  23.589  13.061
39172W        W 4432  37.971  16.267  11.586
39173W        W 4433  23.694  22.954   0.014
39174W        W 4434  37.598  20.603   4.464
39175W        W 4435  15.838   0.383   1.765
39176W        W 4436  31.969   4.551  13.391
39177W        W 4437  42.135  36.833   2.807
39178W        W 4438  44.781  11.311  12.098
39179W        W 4439  32.087  27.091   4.276
39180W        W 4440  18.902  22.575   4.344
39181W        W 4441  23.189  15.633  11.637
39182W        W 4442  38.427  13.589   0.931
39183W        W 4443  44.384  25.372   4.001
39184W        W 4444  10.163  32.900  11.409
39185W        W 4445  14.161   8.226  10.350
39186W        W 4446  24.737  35.427   2.801
39187W        W 4447   8.470  30.960  11.940
39188W        W 4448  15.049  19.184   3.791
39189W        W 4449  12.840  10.344   3.262
39190W        W 4450  32.518  40.784  11.586
39191W        W 4451  41.500  36.964   1.908
39192W        W 4452   8.119   9.814   9.938
39193W        W 4453  20.960   2.300  12.365
39194W        W 4454  29.203  40.842  12.116
39195W        W 4455  27.515  20.982   4.105
39196W        W 4456  35.518  31.687   2.804
39197W        W 4457  37.170   6.832   1.734
39198W        W 4458  43.187  34.972   2.718
39199W        W 4459  25.028  34.531   4.639
39200W        W 4460   5.441   5.469   2.708
39201W        W 4461  44.452  39.378  11.569
39202W        W 4462  15.919  30.041  14.001
39203W        W 4463  39.391  42.911  11.640
39204W        W 4464   1.708  33.573  11.070
39205W        W 4465  33.453  29.045   1.399
39206W        W 4466   9.674  24.722  11.878
39207W        W 4467  12.192  39.403   1.014
39208W        W 4468   8.379  40.507  13.152
39209W        W 4469  37.586  35.818  11.563
39210W        W 4470  34.071  27.005  12.474
39211W        W 4471  42.450   6.615  12.982
39212W        W 4472   1.990   3.750  12.935
39213W        W 4473  12.798  19.513  10.627
39214W        W 4474  17.180   5.785  13.435
39215W        W 4475   5.528  19.230   3.743
39216W        W 4476  44.359  36.073  13.903
39217W        W 4477  38.195  37.793  14.808
39218W        W 4478  12.998  33.484  11.133
39219W        W 4479  31.065  25.623  13.787
39220W        W 4480  31.041  18.150  14.794
39221W        W 4481  19.106   0.028   4.664
39222W        W 4482  12.044  19.653   1.757
39223W        W 4483  38.787   6.534  12.495
39224W        W 4484  24.229  41.954  14.969
39225W        W 4485   3.169  37.249   4.659
39226W        W 4486  40.532  18.657  13.358
39227W        W 4487   8.521  37.334  14.701
39228W        W 4488   2.180  14.791   3.658
39229W        W 4489   6.448  15.793  10.289
39230W        W 4490  32.633  12.253  10.708
39231W        W 4491  44.015  15.062  11.636
39232W        W 4492  32.064   3.156   1.893
39233W        W 4493   9.540  20.551   1.710
39234W        W 4494  15.253  41.505   1.848
39235W        W 4495  13.056  31.886   2.284
39236W        W 4496  14.391   6.045  14.712
39237W        W 4497   5.775  10.230   2.254
39238W        W 4498  21.962  28.093   3.656
39239W        W 4499  36.931  15.117   3.734
39240W        W 4500   3.722  40.827   4.563
39241W        W 4501  13.309  20.080   2.784
39242W        W 4502  27.473  35.867  14.740
39243W        W 4503  43.536   9.717   4.658
39244W        W 4504   4.717  41.318  13.075
39245W        W 4505  23.460  17.103  13.521
39246W        W 4506  24.039  34.977  14.093
39247W        W 4507  20.831  34.870   3.852
39248W        W 4508  32.505   8.378   4.601
39249W        W 4509  39.959  11.796  13.391
39250W        W 4510  35.258  44.845  11.548
39251W        W 4511  39.520  20.964  12.994
39252W        W 4512  33.352  27.021  13.572
39253W        W 4513  37.634   7.776   2.260
39254W        W 4514  21.708  26.665   0.357
39255W        W 4515  31.669  29.444   2.080
39256W        W 4516  28.942  42.937   4.311
39257W        W 4517  20.304   4.221   0.984
39258W        W 4518  43.885  11.271  14.252
39259W        W 4519  25.237  32.520  14.268
39260W        W 4520  37.626  15.085   2.944
39261W        W 4521  20.710  26.707   1.769
39262W        W 4522   2.298  23.498  12.560
39263W        W 4523  38.028  23.360   3.205
39264W        W 4524  28.227  39.062  11.081
39265W        W 4525  18.661  29.647   2.398
39266W        W 4526  25.727  31.576  11.571
39267W        W 4527  43.902  10.572   5.474
39268W        W 4528  37.865  26.198   0.105
39269W        W 4529  25.644  23.087  10.743
39270W        W 4530   9.796  31.620   4.688
39271W        W 4531  13.232  22.095  11.311
39272W        W 4532  10.460  34.785   2.330
39273W        W 4533  39.591  26.012   1.978
39274W        W 4534  43.344  16.648  12.257
39275W        W 4535  38.979  43.022  14.355
39276W        W 4536  21.275  15.703   0.465
39277W        W 4537  33.546   3.216   3.607
39278W        W 4538  27.889  42.348   3.777
39279W        W 4539   8.118   4.927   0.808
39280W        W 4540  30.635  27.231  14.474
39281W        W 4541   8.132   5.859   2.002
39282W        W 4542   4.004  29.429  12.060
39283W        W 4543  26.602   6.707  14.327
39284W        W 4544  35.082  40.888   0.922
39285W        W 4545  12.112  39.871  11.444
39286W        W 4546  22.704  26.555   3.548
39287W        W 4547   6.271  22.044   0.692
39288W        W 4548   1.958  16.865   3.538
39289W        W 4549  11.120  27.616   2.628
39290W        W 4550   6.813  16.581   0.341
39291W        W 4551   4.909   7.322  12.500
39292W        W 4552   3.133   0.287  12.394
39293W        W 4553  21.230  32.317  12.944
39294W        W 4554  14.610  24.607  13.866
39295W        W 4555  36.046  44.333  11.645
39296W        W 4556  19.310  17.346   4.261
39297W        W 4557  13.283  28.205   3.368
39298W        W 4558  12.340  31.904   3.580
39299W        W 4559  22.338  19.824  14.386
39300W        W 4560  27.938  20.453   1.907
39301W        W 4561  12.618  11.248  12.924
39302W        W 4562  29.443   4.258  14.783
39303W        W 4563  33.162  31.858   3.319
39304W        W 4564   3.331   4.990   3.535
39305W        W 4565  38.053   8.076   1.997
39306W        W 4566  33.458  13.677   1.886
39307W        W 4567  12.162  33.939  12.610
39308W        W 4568  26.456  39.084   3.716
39309W        W 4569  11.171  25.137  13.797
39310W        W 4570   0.286  31.615   4.139
39311W        W 4571   4.507  24.755  14.078
39312W        W 4572  31.105  24.087   4.585
39313W        W 4573  30.373   4.725   4.996
39314W        W 4574  30.028   7.812   4.367
39315W        W 4575  24.973   6.261  10.782
39316W        W 4576  31.544  21.406  13.998
39317W        W 4577   6.419  26.110  14.756
39318W        W 4578   4.635  16.859   1.605
39319W        W 4579  10.422   2.788   3.753
39320W        W 4580  21.763  38.609   2.896
39321W        W 4581  14.726   9.213  11.054
39322W        W 4582  34.825   1.687  11.580
39323W        W 4583  37.123  39.079  11.160
39324W        W 4584  37.580  12.079  13.577
39325W        W 4585  24.593  32.877   1.253
39326W        W 4586  33.262  12.877  13.432
39327W        W 4587  23.630  11.223  10.721
39328W        W 4588   3.684  22.320  11.489
39329W        W 4589  33.417  37.379  13.940
39330W        W 4590   1.525  20.973   4.129
39331W        W 4591   6.142  35.106   3.337
39332W        W 4592  30.180  15.053  11.533
39333W        W 4593   4.167  41.842  11.419
39334W        W 4594   5.909  23.983   2.444
39335W        W 4595  17.022  24.608  11.826
39336W        W 4596   7.427  42.544   2.636
39337W        W 4597  18.310  41.268  12.392
39338W        W 4598  34.896  19.785  10.180
39339W        W 4599   8.840  11.396   1.099
39340W        W 4600  39.479  24.735   1.242
39341W        W 4601  19.985  15.206  14.349
39342W        W 4602  10.729   3.925  13.901
39343W        W 4603  20.546  17.777  12.373
39344W        W 4604  13.060  18.627  12.133
39345W        W 4605  28.852  27.935   2.296
39346W        W 4606  30.828  25.254   1.448
39347W        W 4607  15.378  39.221  11.618
39348W        W 4608   7.544  15.555   4.194
39349W        W 4609  15.067  10.898  13.949
39350W        W 4610  44.364  11.048   2.190
39351W        W 4611   7.699   8.154  11.531
39352W        W 4612  38.626  24.277  13.828
39353W        W 4613  23.278  11.654   0.387
39354W        W 4614  14.699  42.755  11.010
39355W        W 4615  29.202   8.843  14.007
39356W        W 4616  32.108   3.887   3.479
39357W        W 4617  18.842  25.163   2.846
39358W        W 4618  17.878  23.076  12.437
39359W        W 4619  34.066   5.243  10.362
39360W        W 4620  17.528  20.043   4.042
39361W        W 4621   9.542   8.987   4.276
39362W        W 4622  16.466  11.810   4.573
39363W        W 4623  22.774  11.790   0.354
39364W        W 4624  22.742  33.669  14.542
39365W        W 4625  21.074   0.346  14.620
39366W        W 4626  38.824  13.758  12.960
39367W        W 4627  21.004   2.448   3.187
39368W        W 4628   8.894   1.377   4.723
39369W        W 4629  29.970  16.895  12.817
39370W        W 4630  32.470  22.202  12.913
39371W        W 4631  39.324  35.588   2.555
39372W        W 4632  31.684  21.374  11.895
39373W        W 4633  19.852  38.265   2.255
39374W        W 4634  43.334  18.675   1.876
39375W        W 4635   9.654  36.990  10.497
39376W        W 4636  19.111  24.643   3.826
39377W        W 4637  11.248  19.214   3.417
39378W        W 4638  27.399  35.394  14.979
39379W        W 4639  43.558  29.404   0.917
39380W        W 4640   6.139  28.674   1.012
39381W        W 4641  13.793  16.658  11.625
39382W        W 4642  14.348  26.569   2.324
39383W        W 4643  12.225  26.245   3.778
39384W        W 4644  32.085  38.437  10.428
39385W        W 4645   8.511   1.717   4.571
39386W        W 4646  10.419  37.817   3.412
39387W        W 4647  42.349  35.897  11.223
39388W        W 4648  28.956  33.415   2.821
39389W        W 4649  19.109  41.457   0.382
39390W        W 4650   4.644  14.315  12.065
39391W        W 4651  41.410   6.463   1.323
39392W        W 4652  37.011  32.511  10.638
39393W        W 4653  13.017  12.558   2.786
39394W        W 4654  10.537   5.603   3.165
39395W        W 4655  18.174  18.860  13.325
39396W        W 4656  26.031  25.494   1.922
39397W        W 4657  28.690  28.627   0.389
39398W        W 4658  32.433  40.845  12.615
39399W        W 4659  27.727  32.140   1.130
39400W        W 4660   9.880   4.322  13.457
39401W        W 4661  22.139   0.368  10.698
39402W        W 4662  43.413  36.856   0.706
39403W        W 4663   1.379  16.231  12.400
39404W        W 4664  40.554  16.238  14.503
39405W        W 4665  29.131  32.036  12.354
39406W        W 4666  21.968  16.391  11.010
39407W        W 4667  12.766  33.855   3.185
39408W        W 4668  42.762  40.380  12.146
39409W        W 4669  32.703  21.945   4.971
39410W        W 4670   9.836  39.939  12.468
39411W        W 4671   0.563  31.279   2.863
39412W        W 4672  36.337  13.113  12.708
39413W        W 4673  44.413  19.665   2.345
39414W        W 4674  39.868  23.763  13.037
39415W        W 4675   2.270   4.243  11.996
39416W        W 4676  17.143   0.495  12.158
39417W        W 4677  26.038   5.976   4.122
39418W        W 4678   5.510  44.424   2.870
39419W        W 4679  10.977  38.466   0.757
39420W        W 4680  17.260  35.453   4.271
39421W        W 4681  44.933  10.627  13.700
39422W        W 4682  19.199  38.988  14.856
39423W        W 4683  32.508  19.321  13.017
39424W        W 4684  21.425  40.089   3.838
39425W        W 4685  38.500   8.887  14.697
39426W        W 4686  25.754  36.452  14.037
39427W        W 4687  25.091  17.689   4.483
39428W        W 4688   9.678  26.017  11.563
39429W        W 4689  41.606   3.233  11.112
39430W        W 4690  17.810  29.641   2.676
39431W        W 4691   6.928  30.098   1.289
39432W        W 4692  14.492   4.148   3.720
39433W        W 4693  41.531  44.940  11.864
39434W        W 4694  11.866  38.782  13.829
39435W        W 4695  39.284   5.627   4.445
39436W        W 4696  38.906  28.878   4.814
39437W        W 4697  36.091  39.846   4.653
39438W        W 4698  42.549   5.811   1.344
39439W        W 4699  21.520  43.797  11.478
39440W        W 4700  18.608  25.178   4.155
39441W        W 4701   2.882  41.568   0.043
39442W        W 4702  16.277   4.211  12.561
39443W        W 4703  29.613   8.195  13.348
39444W        W 4704  11.112  25.647  10.502
39445W        W 4705  11.122  29.651  10.814
39446W        W 4706  30.006   7.922  10.671
39447W        W 4707  40.971  43.232   3.308
39448W        W 4708   3.756  37.867  12.172
39449W        W 4709  38.026   6.394  11.156
39450W        W 4710  12.696  36.365   1.279
39451W        W 4711  26.254   7.577   1.267
39452W        W 4712  21.316  44.468  11.706
39453W        W 4713   3.439  42.184  14.941
39454W        W 4714  35.625  36.843  11.192
39455W        W 4715  28.898  29.562  11.420
39456W        W 4716  17.092  16.805   4.170
39457W        W 4717  41.258  23.024  14.820
39458W        W 4718  27.611  24.896  11.632
39459W        W 4719   4.274  38.255   4.619
39460W        W 4720  23.936   1.425  13.435
39461W        W 4721  12.178  12.278   4.600
39462W        W 4722   5.566  39.891   4.120
39463W        W 4723  12.216   8.216  12.870
39464W        W 4724   9.327  16.127   2.903
39465W        W 4725  17.075  17.600  12.085
39466W        W 4726  35.203   5.831   3.110
39467W        W 4727  15.264  18.992  10.983
39468W        W 4728  36.377  28.006  13.792
39469W        W 4729  19.731  17.552  13.143
39470W        W 4730   6.208  44.891   0.283
39471W        W 4731  33.394  31.555  14.197
39472W        W 4732  17.026  17.175   1.915
39473W        W 4733   6.336  16.077   0.458
39474W        W 4734  34.077  31.962  10.615
39475W        W 4735  21.622  35.970   2.662
39476W        W 4736  13.156  29.227  11.039
39477W        W 4737  40.385   1.801  12.893
39478W        W 4738  38.073  39.485  12.016
39479W        W 4739  26.036  33.695  12.344
39480W        W 4740  29.022  38.295   3.797
39481W        W 4741  16.428  12.218   1.684
39482W        W 4742  39.612  35.884   2.242
39483W        W 4743   1.094  13.533   1.898
39484W        W 4744  12.301  13.104   1.637
39485W        W 4745  39.076  20.532  14.809
39486W        W 4746  12.375  30.958   1.927
39487W        W 4747  15.549  37.392  14.733
39488W        W 4748  13.303   1.066   0.627
39489W        W 4749  25.513  16.717  14.585
39490W        W 4750  29.283  35.621  11.205
39491W        W 4751  15.816   1.774   2.935
39492W        W 4752  14.818   3.913  14.322
39493W        W 4753   2.475  40.893   0.981
39494W        W 4754  14.716  40.659  13.597
39495W        W 4755  27.572  35.338   1.891
39496W        W 4756  19.641  38.755   2.237
39497W        W 4757  22.992  41.307   3.651
39498W        W 4758  10.691  10.238  14.462
39499W        W 4759   9.324   7.928  14.440
39500W        W 4760  27.892  38.936  13.362
39501W        W 4761  13.260  30.675   3.058
39502W        W 4762   8.443  19.154   4.250
39503W        W 4763  31.911  32.128  11.149
39504W        W 4764  34.844   4.342   1.466
39505W        W 4765  27.228  25.672  13.857
39506W        W 4766  29.139   3.633  14.229
39507W        W 4767  31.989   5.708   4.265
39508W        W 4768  44.958  31.875   2.758
39509W        W 4769   2.286   5.963   1.439
39510W        W 4770  31.566  17.510   0.181
39511W        W 4771  34.799   8.799  14.999
39512W        W 4772   2.740  19.804   0.302
39513W        W 4773  39.929  40.362   0.207
39514W        W 4774  44.769  29.925   0.481
39515W        W 4775  29.555  33.940   4.773
39516W        W 4776  31.966  19.285  12.501
39517W        W 4777  43.292  33.353   2.389
39518W        W 4778  44.216  44.074  13.255
39519W        W 4779   7.902  17.856  14.280
39520W        W 4780  27.746  36.949   2.400
39521W        W 4781   7.977  23.952   5.171
39522W        W 4782   7.396  42.790   5.028
39523W        W 4783  23.666  40.867   3.019
39524W        W 4784  22.258   2.309  12.160
39525W        W 4785  31.114  14.754   1.282
39526W        W 4786  19.543  22.455   2.556
39527W        W 4787  16.024  40.585  14.525
39528W        W 4788   5.688  14.565  12.035
39529W        W 4789  18.618  11.832   4.975
39530W        W 4790  23.327   6.520   4.896
39531W        W 4791  42.881   7.114   3.307
39532W        W 4792  20.598  14.794   2.116
39533W        W 4793  37.799  30.688   2.660
39534W        W 4794  26.731  16.113  11.024
39535W        W 4795   2.801  10.909   2.312
39536W        W 4796  17.558  35.930  11.949
39537W        W 4797  23.717   1.137   4.116
39538W        W 4798  10.844  44.730  13.312
39539W        W 4799  30.439  28.205   3.232
39540W        W 4800  22.268  40.323  14.092
39541W        W 4801  29.102   5.174  12.455
39542W        W 4802  10.542  10.215  11.186
39543W        W 4803  40.289   6.222   1.305
39544W        W 4804  17.439  31.218  13.485
39545W        W 4805  42.709  31.766  13.913
39546W        W 4806  29.406  25.938   4.575
39547W        W 4807  10.374  38.650   0.285
39548W        W 4808   4.662  27.155  11.577
39549W        W 4809  11.361  35.873   3.930
39550W        W 4810   2.822   8.586  12.482
39551W        W 4811  38.490  14.803  14.067
39552W        W 4812  43.500  26.377  10.538
39553W        W 4813  30.979  37.606  10.596
39554W        W 4814  43.376   8.417   3.763
39555W        W 4815  23.992  16.248   5.037
39556W        W 4816   0.319  28.870   4.663
39557W        W 4817  17.375  34.871   1.279
39558W        W 4818  22.254  20.583  11.877
39559W        W 4819  21.757  10.048  13.224
39560W        W 4820   5.382  43.275  13.438
39561W        W 4821  25.398  35.510   1.658
39562W        W 4822   6.435  13.126  14.369
39563W        W 4823   1.828  27.657  10.034
39564W        W 4824  24.562  31.152   3.808
39565W        W 4825  21.125  29.488   4.149
39566W        W 4826  27.029  28.976  12.060
39567W        W 4827  28.533   1.673  14.446
39568W        W 4828  13.569  10.720  11.868
39569W        W 4829   8.315  38.826  12.879
39570W        W 4830  13.988  41.971  14.307
39571W        W 4831  12.393   1.719  13.498
39572W        W 4832  18.533  42.538   0.205
39573W        W 4833  23.655  38.207   5.051
39574W        W 4834   7.593  26.899   9.900
39575W        W 4835  41.718  20.627  12.665
39576W        W 4836  32.541   4.425   1.062
39577W        W 4837  37.876   4.719   1.475
39578W        W 4838  28.238  33.637  14.498
39579W        W 4839   6.498  36.221   3.996
39580W        W 4840   1.736  34.496   2.105
39581W        W 4841  30.746   3.778   4.141
39582W        W 4842  21.727  30.401   2.789
39583W        W 4843  18.139  20.762   0.814
39584W        W 4844  38.440  27.986  12.487
39585W        W 4845  24.117  30.180  13.955
39586W        W 4846  35.446  10.751  11.229
39587W        W 4847  28.332  33.560  12.158
39588W        W 4848  41.837  35.253  10.996
39589W        W 4849   5.341  12.883   2.828
39590W        W 4850  20.198  16.363   2.869
39591W        W 4851  41.960   2.454   1.879
39592W        W 4852  25.637   8.920  10.892
39593W        W 4853   1.829   2.667  11.200
39594W        W 4854  28.549  10.692  14.834
39595W        W 4855  13.330  15.165   1.652
39596W        W 4856  40.995  39.470   1.763
39597W        W 4857  35.350  12.459  14.856
39598W        W 4858   0.252  34.185   2.814
39599W        W 4859  30.504  42.540   2.799
39600W        W 4860  24.191  34.730   1.815
39601W        W 4861  21.756  36.385  12.967
39602W        W 4862  40.290  26.004  13.533
39603W        W 4863  37.055   7.650   1.316
39604W        W 4864  41.621  15.563   3.854
39605W        W 4865  28.945   9.269   3.065
39606W        W 4866  37.250  20.028  12.960
39607W        W 4867  35.996  43.523  10.649
39608W        W 4868  39.504  29.401   0.091
39609W        W 4869  29.044  28.857  11.166
39610W        W 4870  34.383   8.833   3.746
39611W        W 4871  23.857  39.607  11.115
39612W        W 4872  37.848  43.331  11.516
39613W        W 4873   8.271  21.065  14.499
39614W        W 4874  27.710  38.590   1.353
39615W        W 4875   7.481  39.773  14.856
39616W        W 4876   6.382  43.554   4.179
39617W        W 4877  30.957  35.327   2.460
39618W        W 4878   0.248   3.720  10.513
39619W        W 4879  22.808  39.407   4.542
39620W        W 4880  20.453   5.352   4.660
39621W        W 4881  35.884   2.206   2.875
39622W        W 4882   8.456  39.201   0.443
39623W        W 4883  40.036  16.660   1.810
39624W        W 4884  40.942  12.552   2.263
39625W        W 4885  32.180  17.572   1.362
39626W        W 4886  10.852  38.363  11.970
39627W        W 4887  30.417  42.858  11.106
39628W        W 4888   4.586   1.848  12.502
39629W        W 4889  21.034   3.245  12.729
39630W        W 4890  27.016  42.079  14.757
39631W        W 4891  24.546  13.243  14.949
39632W        W 4892  27.676  44.944  13.858
39633W        W 4893  44.379  41.819  10.467
39634W        W 4894  23.274   9.773   2.722
39635W        W 4895  31.996  38.352  14.860
39636W        W 4896   0.343  42.783  14.105
39637W        W 4897   2.050  21.467  12.608
39638W        W 4898  22.567  28.871  12.170
39639W        W 4899   1.700  28.234  12.122
39640W        W 4900  22.843  43.835   0.709
39641W        W 4901  11.292  31.752  14.836
39642W        W 4902  10.847   5.704  13.032
39643W        W 4903  15.029   7.694   4.165
39644W        W 4904  11.194  30.957  13.906
39645W        W 4905   1.788  23.705   5.385
39646W        W 4906  12.744  34.177  11.728
39647W        W 4907   5.076  23.187  13.359
39648W        W 4908  29.046   6.192   1.884
39649W        W 4909  30.157   9.283   4.307
39650W        W 4910  35.804  42.819   4.194
39651W        W 4911  44.521  37.360   3.839
39652W        W 4912   3.472  41.497  10.714
39653W        W 4913  34.114   3.832  10.237
39654W        W 4914  15.792  41.706  11.050
39655W        W 4915  29.967   1.315   2.331
39656W        W 4916  33.643  34.500  13.966
39657W        W 4917  29.986  23.154   3.579
39658W        W 4918  31.665  43.593  14.343
39659W        W 4919  15.121  41.579  14.828
39660W        W 4920   6.703  40.106   1.958
39661W        W 4921  30.968  22.750   0.942
39662W        W 4922   8.304  22.019  14.550
39663W        W 4923   2.785  11.596   9.927
39664W        W 4924  31.698  12.775   4.049
39665W        W 4925   1.390  26.977   2.800
39666W        W 4926  14.119   4.052   4.086
39667W        W 4927  42.766  32.234   3.772
39668W        W 4928  14.824  44.885  11.407
39669W        W 4929  31.578  40.901   2.278
39670W        W 4930  39.442  18.648  10.764
39671W        W 4931  14.712  14.062  12.550
39672W        W 4932  19.982  15.028   0.974
39673W        W 4933  42.060  19.740  13.836
39674W        W 4934  23.353  35.445   3.839
39675W        W 4935   6.792  42.109   1.202
39676W        W 4936  39.876  19.846  14.469
39677W        W 4937  16.642  17.679   0.786
39678W        W 4938   8.264  25.989  14.998
39679W        W 4939  44.869   9.687  10.611
39680W        W 4940   7.617  38.350   3.768
39681W        W 4941  41.188  37.954  11.152
39682W        W 4942  30.602  19.734  12.023
39683W        W 4943  20.938  11.674   1.164
39684W        W 4944  11.881  31.953   4.528
39685W        W 4945  31.966   6.720  12.088
39686W        W 4946  30.518  40.557  12.645
39687W        W 4947  24.687   6.793   4.265
39688W        W 4948  10.228  17.817   4.635
39689W        W 4949   2.141  37.797  10.776
39690W        W 4950  36.359  22.174   4.521
39691W        W 4951  28.284   5.491   2.779
39692W        W 4952  42.599   4.185  11.700
39693W        W 4953  38.747  38.551   3.367
39694W        W 4954  23.423  10.744  10.633
39695W        W 4955  42.346   8.333   3.548
39696W        W 4956  16.532   5.682   4.494
39697W        W 4957  12.352  18.294  11.572
39698W        W 4958  38.649   6.778  12.037
39699W        W 4959  32.742  12.985   2.855
39700W        W 4960   4.902   2.793  10.600
39701W        W 4961  19.139  44.522  11.820
39702W        W 4962  15.539  23.048  12.461
39703W        W 4963  41.387  40.212   2.269
39704W        W 4964   3.474  44.338   2.118
39705W        W 4965  23.459  23.586  14.309
39706W        W 4966  14.774   0.229   1.404
39707W        W 4967  30.152  22.438   1.283
39708W        W 4968  10.962  21.209  13.840
39709W        W 4969   6.169  30.409  11.539
39710W        W 4970  17.535  27.089  14.279
39711W        W 4971   0.842  26.313   9.913
39712W        W 4972   2.554  43.344  13.349
39713W        W 4973   1.811  42.328   2.488
39714W        W 4974   6.192  27.960  10.537
39715W        W 4975  21.776  24.982  11.156
39716W        W 4976   2.392   4.445   4.354
39717W        W 4977  26.210  16.655   0.831
39718W        W 4978  16.168  42.360  13.596
39719W        W 4979   9.462  15.992   1.680
39720W        W 4980  12.802  35.542  12.982
39721W        W 4981  28.548   1.952  11.608
39722W        W 4982   2.765  28.218  11.642
39723W        W 4983   2.968  20.126   4.644
39724W        W 4984  39.280  18.596  13.151
39725W        W 4985   1.792   6.632   1.317
39726W        W 4986  16.062  33.558  12.602
39727W        W 4987  34.665  28.002   2.478
39728W        W 4988  27.651  27.959   0.921
39729W        W 4989  40.811  29.371   0.508
39730W        W 4990  40.530  32.621  11.729
39731W        W 4991  17.554  32.480  12.516
39732W        W 4992  28.466  23.525   3.208
39733W        W 4993  14.027  36.108  13.982
39734W        W 4994  39.919  41.355   1.564
39735W        W 4995  40.415  39.044  14.368
39736W        W 4996  15.300  16.155  13.884
39737W        W 4997  20.234   0.425   4.001
39738W        W 4998  29.906  31.466  14.583
39739W        W 4999   3.784   9.738   0.953
39740W        W 5000  10.908  32.800  14.715
39741W        W 5001  31.437   1.562   4.715
39742W        W 5002  20.557  39.067   3.969
39743W        W 5003  26.192  29.816   2.424
39744W        W 5004  11.018  39.276  11.971
39745W        W 5005  22.964  25.193   4.011
39746W        W 5006  34.357  27.093  13.861
39747W        W 5007  19.953  14.880   3.767
39748W        W 5008  13.320  23.516  10.900
39749W        W 5009  18.564  42.925   3.298
39750W        W 5010  22.476  35.356   3.504
39751W        W 5011  21.114   2.980  12.015
39752W        W 5012   7.886  17.890   1.622
39753W        W 5013  15.382  15.738  14.425
39754W        W 5014   5.814  16.249   4.508
39755W        W 5015   5.374  44.239   0.831
39756W        W 5016  25.908  25.222   1.487
39757W        W 5017  37.199   6.377  14.466
39758W        W 5018  32.504  19.658  10.757
39759W        W 5019  35.038  22.501  12.023
39760W        W 5020  10.474  15.321  14.867
39761W        W 5021   1.868  23.712   1.605
39762W        W 5022  28.382  37.443   3.786
39763W        W 5023  29.546  14.308  12.341
39764W        W 5024  34.524  18.829  13.414
39765W        W 5025  37.490  10.091   3.650
39766W        W 5026  35.122   4.890   2.945
39767W        W 5027  36.818  24.272   0.857
39768W        W 5028   2.285   5.223   3.453
39769W        W 5029   9.779  19.904   3.256
39770W        W 5030  29.685  25.722  13.374
39771W        W 5031  17.756   8.298  13.563
39772W        W 5032   7.524  13.735   0.151
39773W        W 5033  43.032  11.906   1.663
39774W        W 5034  42.614   3.022  11.043
39775W        W 5035   7.434  33.874  12.078
39776W        W 5036  22.454  41.967  14.278
39777W        W 5037  41.896  13.063  11.415
39778W        W 5038  37.196  22.422   0.685
39779W        W 5039   1.195   3.711   2.116
39780W        W 5040  11.908   1.429  10.686
39781W        W 5041  26.894  15.582   3.160
39782W        W 5042  23.961  44.725   0.429
39783W        W 5043  15.125  41.560   1.026
39784W        W 5044   9.254  29.977  12.442
39785W        W 5045  31.092  18.496  14.395
39786W        W 5046  32.460  39.566  13.868
39787W        W 5047  44.290  24.962   3.691
39788W        W 5048  22.680  44.717   3.196
39789W        W 5049  10.431  25.502   3.722
39790W        W 5050  41.621  21.501  14.306
39791W        W 5051  16.161   1.990  11.777
39792W        W 5052  24.538  38.414   2.995
39793W        W 5053  17.160   0.733   1.379
39794W        W 5054  39.389  15.686   3.028
39795W        W 5055  11.911   0.942  11.369
39796W        W 5056  27.234   2.256  11.180
39797W        W 5057   6.328  18.442  13.939
39798W        W 5058   6.879   6.379   2.968
39799W        W 5059  42.040  36.504  14.798
39800W        W 5060  39.589  31.477  12.072
39801W        W 5061  12.182   5.410   1.295
39802W        W 5062  10.719  17.505  14.765
39803W        W 5063  18.882  35.878   9.952
39804W        W 5064  18.569  15.608   2.844
39805W        W 5065  20.797   8.402   2.268
39806W        W 5066  32.735  24.802  12.017
39807W        W 5067  23.191  15.076  14.974
39808W        W 5068   6.732  27.719   1.837
39809W        W 5069  39.311   2.198   1.742
39810W        W 5070  37.487   4.696  13.949
39811W        W 5071  11.144  25.694   0.295
39812W        W 5072   7.587  35.159   4.131
39813W        W 5073  15.267   4.842   3.210
39814W        W 5074  19.651   1.206   1.120
39815W        W 5075  23.476   4.774   0.897
39816W        W 5076   2.854   1.355  14.547
39817W        W 5077   0.780  14.240  12.937
39818W        W 5078   2.822   8.383  10.616
39819W        W 5079   3.866  37.482   4.785
39820W        W 5080   8.664  15.771   4.112
39821W        W 5081  15.193  12.185  12.624
39822W        W 5082   3.467  23.978  12.104
39823W        W 5083   8.644  37.793   0.412
39824W        W 5084  29.023  41.900   1.885
39825W        W 5085  24.378  35.708  14.441
39826W        W 5086   9.948  31.421  14.809
39827W        W 5087  23.366  44.040   4.208
39828W        W 5088  22.996  41.244   1.218
39829W        W 5089  17.603  27.442   3.934
39830W        W 5090  27.107  40.365   2.822
39831W        W 5091  15.141   2.967  12.917
39832W        W 5092  30.511  39.337  13.489
39833W        W 5093   1.780   7.731   3.852
39834W        W 5094   5.944  27.992  12.359
39835W        W 5095  29.892  44.815  12.697
39836W        W 5096   6.275  14.619  13.675
39837W        W 5097  28.066  12.116  14.689
39838W        W 5098  17.182  17.276   2.797
39839W        W 5099   1.673  30.670   0.164
39840W        W 5100  18.102  30.287  14.315
39841W        W 5101  11.607  21.390  12.618
39842W        W 5102  35.860  40.980   1.369
39843W        W 5103  14.682  33.972   1.224
39844W        W 5104  33.491  32.951   0.986
39845W        W 5105  23.227  36.902   1.266
39846W        W 5106  26.436  26.969  13.408
39847W        W 5107  30.132  19.138   2.333
39848W        W 5108   8.925  16.484  14.713
39849W        W 5109  33.421  36.916   1.453
39850W        W 5110  11.853  21.973  14.383
39851W        W 5111  42.843  38.968   1.322
39852W        W 5112  30.584  30.361   0.816
39853W        W 5113   2.331  10.374   2.701
39854W        W 5114  41.049  44.776  13.323
39855W        W 5115   5.753  37.040   0.381
39856W        W 5116  31.597   4.400   0.447
39857W        W 5117   4.243   0.688   2.325
39858W        W 5118   2.478  30.351  10.940
39859W        W 5119  22.107  30.454   1.334
39860W        W 5120  10.882   5.767   1.489
39861W        W 5121  35.996  21.814   3.424
39862W        W 5122  31.521  27.503  12.369
39863W        W 5123  29.415   0.686   3.216
39864W        W 5124  44.165  28.861  11.620
39865W        W 5125  35.971  37.200   1.791
39866W        W 5126  15.559  31.053   0.423
39867W        W 5127   2.736   0.152   0.709
39868W        W 5128  12.621  37.071  12.842
39869W        W 5129  39.384   3.520  13.178
39870W        W 5130  43.430   8.837  13.885
39871W        W 5131   4.164  12.765  11.040
39872W        W 5132   5.256  19.078   0.490
39873W        W 5133  16.325   6.420   2.825
39874W        W 5134  27.522  24.700  13.001
39875W        W 5135   2.846  34.473  13.841
39876W        W 5136  33.977  29.633   1.794
39877W        W 5137  21.254  31.663  11.476
39878W        W 5138  14.200  15.376  13.497
39879W        W 5139   9.072  28.541   0.735
39880W        W 5140  11.654   6.709   0.073
39881W        W 5141  44.866  28.596  14.344
39882W        W 5142  12.666  28.133  13.390
39883W        W 5143  30.362  32.828   1.380
39884W        W 5144  44.053  26.200   2.248
39885W        W 5145   0.789   6.533  12.512
39886W        W 5146  27.941  31.022   3.196
39887W        W 5147  44.692   9.232  13.188
39888W        W 5148   2.305  35.496  10.720
39889W        W 5149  32.667  17.311  13.794
39890W        W 5150   8.176  32.132  13.553
39891W        W 5151  13.004  33.341   3.884
39892W        W 5152  13.603   6.265  13.865
39893W        W 5153  10.081  17.781   1.755
39894W        W 5154  30.867  21.045   1.841
39895W        W 5155  12.662  16.365  13.229
39896W        W 5156  30.366  25.372   1.232
39897W        W 5157   0.320   6.629   2.884
39898W        W 5158  28.685  41.351  11.402
39899W        W 5159  34.985  37.841  14.438
39900W        W 5160  25.033  34.890  13.348
39901W        W 5161  37.113  27.638  12.870
39902W        W 5162  13.680   5.947  12.179
39903W        W 5163  31.330  17.801   1.196
39904W        W 5164   6.850  40.745  11.574
39905W        W 5165  15.477  23.539   3.165
39906W        W 5166  33.845  40.322  10.657
39907W        W 5167  10.992   4.857  11.989
39908W        W 5168  27.248  10.269   1.442
39909W        W 5169  13.687  34.812  11.133
39910W        W 5170  44.753  42.378   0.799
39911W        W 5171  27.745  11.744  11.969
39912W        W 5172  29.191   9.734  11.080
39913W        W 5173  38.024   3.540  13.514
39914W        W 5174   6.707  22.601   2.400
39915W        W 5175  19.903   2.124  11.107
39916W        W 5176  27.931  43.863  13.933
39917W        W 5177  30.915  32.404   2.096
39918W        W 5178  22.451  29.483  13.428
39919W        W 5179  25.515   5.043   3.812
39920W        W 5180  43.361  37.102  10.691
39921W        W 5181  41.398  29.364  11.808
39922W        W 5182  33.898  33.911  10.607
39923W        W 5183  23.949  43.971  14.813
39924W        W 5184  35.933  26.252   4.501
39925W        W 5185   3.285   9.921   4.076
39926W        W 5186  16.122  37.216  14.050
39927W        W 5187  33.307   3.544   0.427
39928W        W 5188  15.787   2.498  12.400
39929W        W 5189  24.258  15.741   0.459
39930W        W 5190  34.822  25.936   0.361
39931W        W 5191  11.913  26.959   5.459
39932W        W 5192   9.811  22.653  13.993
39933W        W 5193  23.197   1.776  13.018
39934W        W 5194   7.920  12.025   4.274
39935W        W 5195  32.705  29.750  11.151
39936W        W 5196  12.745  10.799   3.566
39937W        W 5197  11.295  27.242   2.301
39938W        W 5198  44.952  14.923   3.728
39939W        W 5199  44.264  15.173  12.865
39940W        W 5200   3.597  37.384   3.625
39941W        W 5201  10.352   1.530  12.077
39942W        W 5202  42.982  33.742  10.997
39943W        W 5203  21.563  12.758   1.753
39944W        W 5204  23.696  29.038  14.194
39945W        W 5205  37.274  13.525   2.252
39946W        W 5206  23.477  34.338  12.019
39947W        W 5207  42.924   6.007   4.191
39948W        W 5208  10.076  34.616  13.011
39949W        W 5209   3.926  26.534  10.572
39950W        W 5210  19.580  37.437   1.869
39951W        W 5211  13.802  28.994   4.531
39952W        W 5212  25.197  31.091   3.063
39953W        W 5213  25.660  18.106   1.768
39954W        W 5214  14.870  44.752   3.395
39955W        W 5215  29.235  21.628   3.625
39956W        W 5216  26.582  10.195   3.266
39957W        W 5217  42.297  17.221   0.333
39958W        W 5218  35.095  35.118   0.424
39959W        W 5219  18.637  20.232  11.142
39960W        W 5220  44.439  37.807   4.083
39961W        W 5221  35.924  32.899  10.700
39962W        W 5222  25.461  28.716   3.153
39963W        W 5223   2.850  34.936  11.520
39964W        W 5224  44.272  33.493   3.253
39965W        W 5225  12.096   8.331   4.339
39966W        W 5226  20.756   5.892   0.330
39967W        W 5227   4.202  27.380  12.913
39968W        W 5228  44.975  29.172   1.790
39969W        W 5229  17.504  33.524   1.816
39970W        W 5230  43.322  16.271  13.943
39971W        W 5231  20.310   8.242   3.737
39972W        W 5232   2.473   3.055  11.394
39973W        W 5233   2.374  42.272  11.398
39974W        W 5234  13.919  41.479  10.773
39975W        W 5235   3.668  22.135  14.221
39976W        W 5236  14.885   5.013   0.235
39977W        W 5237  11.673  16.747  14.262
39978W        W 5238  25.399  11.749  12.492
39979W        W 5239  30.884   0.500   1.334
39980W        W 5240  20.734  42.613  14.462
39981W        W 5241   7.054  12.393  13.519
39982W        W 5242  10.437   0.440  12.829
39983W        W 5243  22.791  39.411   1.450
39984W        W 5244  25.150  44.063   0.274
39985W        W 5245  12.340  29.664   0.368
39986W        W 5246  18.834  41.009   0.386
39987W        W 5247   7.262  42.959   2.905
39988W        W 5248  13.591  33.435   4.664
39989W        W 5249  32.346   2.915  11.553
39990W        W 5250  32.459  26.028   1.216
39991W        W 5251   1.852  13.664   2.665
39992W        W 5252  37.108  42.425   2.256
39993W        W 5253  19.767  15.221   2.189
39994W        W 5254   0.686  15.177  12.940
39995W        W 5255  29.896  41.411   4.333
39996W        W 5256  36.969  27.605   0.163
39997W        W 5257  11.608   1.828  10.811
39998W        W 5258   9.200   6.693   0.269
39999W        W 5259  20.972  11.820   3.788
40000W        W 5260   4.324  37.636   2.926
40001W        W 5261  11.787  18.808   1.366
40002W        W 5262  39.905  20.242  12.437
40003W        W 5263  36.368  37.561  13.098
40004W        W 5264  18.873  29.677   5.322
40005W        W 5265  29.780  30.046   1.833
40006W        W 5266  33.029  25.276  11.998
40007W        W 5267  20.206  18.196  10.717
40008W        W 5268  18.512  24.078  10.821
40009W        W 5269  33.873  12.544   5.284
40010W        W 5270  35.939  40.440   3.803
40011W        W 5271  34.502  26.341   5.379
40012W        W 5272   2.796  27.920  13.044
40013W        W 5273  44.631  12.924   4.289
40014W        W 5274  11.593   7.905   1.203
40015W        W 5275  29.551  38.567  13.092
40016W        W 5276   3.419  12.090   0.472
40017W        W 5277  16.274  39.621   2.428
40018W        W 5278  12.783  37.045  11.546
40019W        W 5279  24.053  44.459  12.408
40020W        W 5280  10.381  30.246   2.181
40021W        W 5281  25.747  38.303   3.133
40022W        W 5282  26.480  31.751  13.096
40023W        W 5283  14.109   6.300   1.172
40024W        W 5284  32.599  41.426  14.251
40025W        W 5285  29.726  22.010  12.046
40026W        W 5286   1.822  39.788  12.846
40027W        W 5287  23.067   3.681   3.922
40028W        W 5288  17.522  16.327  13.781
40029W        W 5289  21.242  35.014   2.125
40030W        W 5290  32.315  32.532   0.297
40031W        W 5291   9.572  11.190  12.763
40032W        W 5292  35.893  16.447  13.539
40033W        W 5293   5.385  13.243  10.768
40034W        W 5294  19.259   3.484   0.794
40035W        W 5295  36.578  12.442   3.433
40036W        W 5296  28.025   2.659   0.961
40037W        W 5297  41.718  44.857  13.758
40038W        W 5298  43.862  19.956   3.089
40039W        W 5299  20.339  18.602  11.438
40040W        W 5300   5.221  35.357   3.253
40041W        W 5301  26.167  10.190  10.493
40042W        W 5302  11.135  15.062   3.271
40043W        W 5303  31.633  11.192  13.548
40044W        W 5304  34.600   4.913   5.140
40045W        W 5305  11.166  33.682   1.211
40046W        W 5306   7.649   9.612   2.905
40047W        W 5307  41.808  10.647   2.804
40048W        W 5308  22.967   8.778  13.333
40049W        W 5309  14.798  18.620   2.630
40050W        W 5310  12.748  34.283  14.685
40051W        W 5311  30.351  13.251   0.367
40052W        W 5312  27.641  16.776   1.463
40053W        W 5313  36.607   4.263   4.539
40054W        W 5314   3.295  37.156   3.260
40055W        W 5315  43.569   2.151   4.364
40056W        W 5316  28.973   9.745   1.473
40057W        W 5317  21.033  36.807  13.093
40058W        W 5318  38.110  43.726   3.200
40059W        W 5319  12.662   4.266  12.586
40060W        W 5320  31.214  43.452  14.563
40061W        W 5321   9.816  39.454   3.529
40062W        W 5322  19.480  16.162   2.382
40063W        W 5323   3.183  32.454   4.660
40064W        W 5324   2.500   9.133  14.859
40065W        W 5325  35.965   7.139   4.769
40066W        W 5326  10.900  31.088  12.935
40067W        W 5327  21.464   9.629  13.975
40068W        W 5328  38.399  34.472   1.696
40069W        W 5329   1.209  12.806   1.893
40070W        W 5330   0.694  36.318  12.880
40071W        W 5331  12.147  20.533  12.876
40072W        W 5332  38.760   1.563  12.444
40073W        W 5333  20.583  41.258   3.099
40074W        W 5334  13.742   3.773   3.189
40075W        W 5335  18.995  31.710   0.933
40076W        W 5336  26.998  16.564   1.147
40077W        W 5337  25.108  19.793   1.506
40078W        W 5338  35.557  15.809   3.317
40079W        W 5339  42.450  33.610  14.457
40080W        W 5340   3.496   9.536  14.818
40081W        W 5341  13.586  12.278  13.904
40082W        W 5342  31.362  44.542   0.830
40083W        W 5343  33.127  22.034   0.534
40084W        W 5344  37.271  10.294   0.843
40085W        W 5345  41.073  11.309  12.517
40086W        W 5346   9.019  15.911   3.687
40087W        W 5347  38.883  36.454  12.245
40088W        W 5348  14.634  14.841   3.823
40089W        W 5349  44.071  11.684   3.291
40090W        W 5350   0.892  15.655   0.809
40091W        W 5351  22.918  20.769  13.434
40092W        W 5352  20.718  24.881   1.341
40093W        W 5353   1.683  25.157  11.401
40094W        W 5354  15.615  10.256   1.293
40095W        W 5355   8.288  40.048   0.422
40096W        W 5356  29.008  39.927   1.232
40097W        W 5357   9.626   0.926  12.884
40098W        W 5358  33.322  40.834   1.345
40099W        W 5359  33.068  28.292  10.543
40100W        W 5360  37.113   9.748  13.400
40101W        W 5361  16.685  31.977   4.533
40102W        W 5362   7.817  10.171   0.043
40103W        W 5363  17.594  22.813  12.124
40104W        W 5364  38.143  37.346   1.647
40105W        W 5365  17.587  44.000   1.177
40106W        W 5366  40.447   7.747   3.139
40107W        W 5367  15.096  27.435   0.240
40108W        W 5368  37.318   5.685  13.763
40109W        W 5369  15.208  39.131   4.203
40110W        W 5370   4.978  28.496  13.732
40111W        W 5371  13.619  40.706   1.359
40112W        W 5372  12.046  27.051  10.648
40113W        W 5373  26.494  36.037   3.993
40114W        W 5374  26.249  21.297   0.905
40115W        W 5375  21.631  19.739  13.816
40116W        W 5376   4.281   4.525   4.589
40117W        W 5377   6.236   2.339  12.482
40118W        W 5378   0.634  13.773   1.869
40119W        W 5379  33.121   1.767   2.829
40120W        W 5380  37.419  36.145   1.710
40121W        W 5381  17.649  17.637   0.719
40122W        W 5382   1.744  42.852  11.021
40123W        W 5383  42.999   5.567   1.418
40124W        W 5384   1.474   2.889   4.554
40125W        W 5385  37.483   9.360  10.585
40126W        W 5386  27.275   4.156   0.327
40127W        W 5387  13.888  43.751   1.376
40128W        W 5388  42.465   7.589   1.861
40129W        W 5389  12.282  36.707  12.965
40130W        W 5390  16.933  25.415   3.986
40131W        W 5391   5.307  23.727   4.194
40132W        W 5392  24.473  23.708  14.502
40133W        W 5393  26.221  38.144   0.333
40134W        W 5394  42.347  40.562   4.118
40135W        W 5395  42.156   7.226  13.943
40136W        W 5396  38.372   6.856  11.095
40137W        W 5397  13.835  36.996   1.595
40138W        W 5398  33.615  31.009  13.485
40139W        W 5399  11.443  17.508   3.240
40140W        W 5400  31.260   2.941  13.362
40141W        W 5401   3.411  33.568   3.799
40142W        W 5402  12.643  26.465   2.663
40143W        W 5403   2.948   3.983   2.742
40144W        W 5404  28.407  16.679   3.558
40145W        W 5405  15.022  27.460  11.594
40146W        W 5406  21.613  27.936   4.037
40147W        W 5407  20.611  37.496   1.777
40148W        W 5408  19.960   2.874   4.683
40149W        W 5409  18.213  38.831  14.509
40150W        W 5410   0.843  32.752  13.956
40151W        W 5411  22.304   3.210  13.943
40152W        W 5412  12.287  15.304   1.777
40153W        W 5413  13.602  29.099   1.278
40154W        W 5414  27.043  12.576   4.140
40155W        W 5415  44.739  15.584  11.527
40156W        W 5416   5.487  19.168   2.780
40157W        W 5417  28.519  13.320  10.716
40158W        W 5418  22.902   0.981  11.747
40159W        W 5419   9.770   8.218  11.790
40160W        W 5420  14.354  19.720   1.648
40161W        W 5421  17.753  41.374   2.027
40162W        W 5422  41.733  13.762   3.969
40163W        W 5423  42.019  37.374   3.703
40164W        W 5424  31.483  32.314  10.912
40165W        W 5425  38.843  38.707   4.566
40166W        W 5426  31.153  24.237  11.149
40167W        W 5427   1.743  21.728  14.790
40168W        W 5428  36.490   6.514  12.379
40169W        W 5429  43.391   0.450   4.208
40170W        W 5430   1.178  36.992  12.305
40171W        W 5431  20.114  30.149   2.296
40172W        W 5432  11.413  16.094   0.425
40173W        W 5433  26.211  14.807   0.133
40174W        W 5434  37.769   3.703  13.057
40175W        W 5435  34.428   1.419  10.241
40176W        W 5436   8.770   1.509   1.733
40177W        W 5437  15.316  20.815   3.209
40178W        W 5438  23.044  25.582   2.836
40179W        W 5439  38.217  17.544  13.513
40180W        W 5440  24.461  36.952   3.131
40181W        W 5441  29.822  24.634  13.845
40182W        W 5442   7.798   6.157   1.667
40183W        W 5443  18.159   7.189   0.284
40184W        W 5444  42.700  29.110  12.067
40185W        W 5445  23.264   1.936  13.972
40186W        W 5446   5.418  40.270  11.424
40187W        W 5447  42.630  17.038   3.851
40188W        W 5448  14.007  42.480  14.419
40189W        W 5449  12.732  34.640   2.466
40190W        W 5450   8.721  18.890  13.859
40191W        W 5451  19.030  15.126  11.555
40192W        W 5452  44.645  24.772  14.027
40193W        W 5453   8.116  37.082   5.112
40194W        W 5454   4.885  35.927   1.698
40195W        W 5455  16.222   5.464   3.270
40196W        W 5456  30.238  31.004   3.289
40197W        W 5457   0.853  23.940  13.336
40198W        W 5458   8.331  31.126  11.464
40199W        W 5459  35.451   0.270  13.549
40200W        W 5460  25.234  27.581   3.312
40201W        W 5461  29.338  14.125  10.720
40202W        W 5462  19.212  29.459  13.592
40203W        W 5463  42.973  26.019   2.335
40204W        W 5464  28.466  29.488  10.616
40205W        W 5465   9.390  16.520  11.536
40206W        W 5466  43.516   8.240   0.482
40207W        W 5467  18.407  22.533   4.204
40208W        W 5468   5.511  28.805   3.585
40209W        W 5469  13.867   2.222  12.072
40210W        W 5470  36.131   4.728  13.417
40211W        W 5471  17.304  42.244  14.788
40212W        W 5472  29.193  44.329  13.330
40213W        W 5473  32.158  34.507   4.252
40214W        W 5474  23.136  24.005   0.716
40215W        W 5475  24.702  44.378   2.701
40216W        W 5476  30.960  21.738   1.267
40217W        W 5477  39.093  42.798  12.522
40218W        W 5478  34.478   9.696   1.353
40219W        W 5479  18.131  10.756  13.066
40220W        W 5480  15.558  35.083  11.904
40221W        W 5481  14.860  36.334   0.167
40222W        W 5482  17.134  19.699   2.094
40223W        W 5483  26.966   9.541  11.563
40224W        W 5484   0.521   0.836   0.389
40225W        W 5485  29.706  39.179  10.868
40226W        W 5486  42.528  36.667   3.115
40227W        W 5487  33.674   9.236  11.218
40228W        W 5488   9.390  29.421  12.786
40229W        W 5489  40.567  18.813   1.368
40230W        W 5490  16.241  28.478  12.441
40231W        W 5491  36.004  35.493   4.915
40232W        W 5492  32.999  10.089   0.815
40233W        W 5493  37.785   1.145   0.266
40234W        W 5494  11.651  42.340  13.452
40235W        W 5495  25.263  21.029   0.321
40236W        W 5496  38.273  21.674   1.072
40237W        W 5497  13.689  30.480  12.757
40238W        W 5498  21.238  30.121   2.838
40239W        W 5499  18.123   6.326  14.745
40240W        W 5500   0.682  18.639   2.220
40241W        W 5501  33.515  41.465  12.617
40242W        W 5502  18.343  31.841  14.416
40243W        W 5503  27.307  28.939  10.982
40244W        W 5504  22.694  12.802   2.113
40245W        W 5505  28.067  16.858   3.941
40246W        W 5506  34.653  42.044   2.332
40247W        W 5507   6.646   5.294   3.871
40248W        W 5508   3.748   6.448   1.112
40249W        W 5509  30.145  12.588  14.935
40250W        W 5510  27.514   6.722  14.579
40251W        W 5511   3.225  31.033   0.838
40252W        W 5512  24.458  22.710  12.460
40253W        W 5513  34.467  40.323   2.691
40254W        W 5514  39.261   6.868   4.493
40255W        W 5515  20.980  37.593  12.004
40256W        W 5516  13.163  41.252  11.460
40257W        W 5517  33.979   2.054   4.839
40258W        W 5518  31.448  20.290  11.120
40259W        W 5519   2.374  38.413   1.979
40260W        W 5520  20.715  29.504   1.041
40261W        W 5521  25.656  22.141  12.321
40262W        W 5522  18.788  12.690   4.123
40263W        W 5523  24.498  29.877  14.868
40264W        W 5524  29.037  22.832   1.765
40265W        W 5525  40.479  11.514  14.908
40266W        W 5526  26.887  38.558   2.298
40267W        W 5527   1.205  12.723   2.954
40268W        W 5528  26.233  35.936   1.787
40269W        W 5529  14.600   7.148  13.173
40270W        W 5530  25.140  25.453   3.674
40271W        W 5531  25.260  11.669  11.158
40272W        W 5532   1.518  41.905  13.900
40273W        W 5533  24.205  22.427  10.073
40274W        W 5534   7.627   2.789   2.842
40275W        W 5535  30.969  43.536  14.104
40276W        W 5536  18.291  27.158  12.371
40277W        W 5537   8.899  25.118  10.678
40278W        W 5538  38.578   5.387  13.088
40279W        W 5539  13.970  33.465   2.716
40280W        W 5540  15.324   9.351   1.530
40281W        W 5541  44.112  11.301   0.788
40282W        W 5542  14.329  31.579   2.879
40283W        W 5543  34.458  28.009  11.014
40284W        W 5544  44.528  13.836   0.706
40285W        W 5545  25.003   9.195   0.630
40286W        W 5546   0.505   0.207  13.431
40287W        W 5547  42.056  24.251  13.707
40288W        W 5548  16.273  34.617   4.890
40289W        W 5549  28.683  42.773  12.718
40290W        W 5550  32.375  17.072  14.363
40291W        W 5551  41.706   0.916   0.091
40292W        W 5552  12.637   3.861   1.822
40293W        W 5553  10.642   2.363  12.937
40294W        W 5554  36.909  40.408   0.183
40295W        W 5555  34.666  19.614   4.703
40296W        W 5556  21.007  22.117  12.224
40297W        W 5557   8.878  15.222   0.552
40298W        W 5558  19.207   6.700   3.129
40299W        W 5559   2.896  15.794  14.833
40300W        W 5560  29.716  18.808   2.299
40301W        W 5561  34.416  40.660   4.019
40302W        W 5562   3.952  20.114  14.811
40303W        W 5563  26.966  10.638   4.265
40304W        W 5564  34.393   4.860   3.672
40305W        W 5565  28.894   3.204  14.379
40306W        W 5566   5.937  21.590   2.117
40307W        W 5567  26.170   2.154   4.391
40308W        W 5568  21.684  28.482   2.200
40309W        W 5569  11.589  44.988   1.214
40310W        W 5570  17.942  25.230  11.157
40311W        W 5571   2.308  42.937  10.802
40312W        W 5572  31.106  15.039  10.686
40313W        W 5573  34.703  27.179   3.814
40314W        W 5574   4.617  16.256  12.748
40315W        W 5575   1.263  30.277  10.398
40316W        W 5576  37.518  16.616  10.190
40317W        W 5577   5.838   8.613   0.267
40318W        W 5578  11.221  11.115   0.798
40319W        W 5579  42.432   6.724   1.369
40320W        W 5580   9.843  39.709   1.910
40321W        W 5581  14.009  44.892   3.171
40322W        W 5582  30.148   2.396  10.612
40323W        W 5583  34.763   9.929   1.731
40324W        W 5584  33.446  14.356   4.748
40325W        W 5585   5.848  32.673  12.815
40326W        W 5586  36.756   7.267  10.555
40327W        W 5587   7.902  25.936  11.654
40328W        W 5588   1.443  28.622  12.924
40329W        W 5589   9.254   8.932   3.831
40330W        W 5590   7.445  17.101   1.441
40331W        W 5591  29.606  17.180  12.351
40332W        W 5592   3.954  35.138   2.786
40333W        W 5593  34.853  41.382   1.172
40334W        W 5594  17.710  15.295   2.074
40335W        W 5595  14.595  30.072   1.206
40336W        W 5596   9.369  12.101   3.671
40337W        W 5597   9.339  41.536  11.841
40338W        W 5598  25.171  31.660   1.476
40339W        W 5599  21.481  38.985   3.074
40340W        W 5600   2.757   7.704  13.820
40341W        W 5601  18.515  43.974   3.134
40342W        W 5602  22.004  10.491  13.518
40343W        W 5603  40.103   0.277   4.318
40344W        W 5604  42.805   4.313  11.236
40345W        W 5605  28.683  11.778   0.858
40346W        W 5606  15.580   4.470   2.311
40347W        W 5607   0.952   3.300  13.533
40348W        W 5608  37.834  41.337   2.897
40349W        W 5609   5.748  14.864  12.475
40350W        W 5610  18.432  38.952  10.211
40351W        W 5611   7.825  40.486   3.315
40352W        W 5612  38.365  30.364   1.194
40353W        W 5613  35.188   5.350  11.558
40354W        W 5614  27.907  42.829  11.475
40355W        W 5615  23.055   9.683  12.962
40356W        W 5616  19.997  28.038   0.843
40357W        W 5617  32.121  41.813   0.265
40358W        W 5618   2.257   4.670   2.206
40359W        W 5619   2.590  26.616   2.219
40360W        W 5620  24.709  15.075  14.305
40361W        W 5621  34.599  15.663   3.868
40362W        W 5622   7.311  10.261   3.457
40363W        W 5623  31.027  22.738   4.146
40364W        W 5624   4.714  17.635  12.289
40365W        W 5625  21.563  17.757   5.010
40366W        W 5626  40.330   6.989   0.932
40367W        W 5627  20.490  26.634  14.364
40368W        W 5628  12.201  24.929  14.451
40369W        W 5629   7.842  42.397   2.280
40370W        W 5630   4.419  32.680  11.617
40371W        W 5631  32.859  20.319  14.600
40372W        W 5632  29.701  42.901   1.321
40373W        W 5633  39.311  29.827   3.877
40374W        W 5634   3.807  24.584   2.323
40375W        W 5635  24.189  38.793  12.687
40376W        W 5636  44.375  20.511  10.598
40377W        W 5637  36.316   7.189  13.555
40378W        W 5638  15.334  35.600   0.341
40379W        W 5639  14.115   9.428  13.427
40380W        W 5640   8.400  31.855   0.859
40381W        W 5641  15.337  38.600  14.428
40382W        W 5642  25.401  29.435   4.046
40383W        W 5643  33.187  26.014   1.439
40384W        W 5644   7.185  16.167  11.995
40385W        W 5645  27.448   1.766   1.428
40386W        W 5646  10.213  41.848   4.185
40387W        W 5647   0.989  32.434   1.770
40388W        W 5648  11.298  20.693  14.384
40389W        W 5649   2.521  36.427   2.411
40390W        W 5650   3.781  18.769  14.927
40391W        W 5651  41.904  33.390  14.851
40392W        W 5652  36.457  24.945  12.923
40393W        W 5653   6.631   8.636   3.336
40394W        W 5654  38.136   9.598   3.224
40395W        W 5655  42.744   7.032   2.534
40396W        W 5656  32.583  26.251   9.796
40397W        W 5657   3.273  20.525  11.935
40398W        W 5658   8.604  33.430   1.856
40399W        W 5659  28.221   7.311   4.031
40400W        W 5660  39.546  43.678   3.528
40401W        W 5661  10.377  29.502   0.677
40402W        W 5662   9.425   6.191  12.681
40403W        W 5663   7.963   5.217  11.175
40404W        W 5664  31.011  33.695   3.701
40405W        W 5665  36.887  34.608   1.348
40406W        W 5666  31.112  24.757  14.353
40407W        W 5667  16.662  15.361   0.762
40408W        W 5668  14.895  17.073  12.480
40409W        W 5669  42.708  11.634  14.265
40410W        W 5670  32.681  22.993   3.598
40411W        W 5671  42.938  34.531  14.279
40412W        W 5672   9.446  33.141   3.104
40413W        W 5673   7.771  12.578  11.195
40414W        W 5674  32.472   9.381   3.986
40415W        W 5675  20.569  40.359  12.067
40416W        W 5676   4.381  17.073   2.575
40417W        W 5677  16.123  31.184   4.782
40418W        W 5678  38.725   0.813   2.668
40419W        W 5679  38.899  40.349   1.739
40420W        W 5680   9.225  31.026  13.902
40421W        W 5681   4.796  32.119   0.632
40422W        W 5682  31.111  27.098  10.200
40423W        W 5683  23.635  37.913  14.472
40424W        W 5684  19.154  25.581  14.243
40425W        W 5685  28.839  20.119  14.853
40426W        W 5686  41.351  22.844  11.654
40427W        W 5687   9.357  37.840   1.313
40428W        W 5688  33.623  39.480   3.805
40429W        W 5689  31.366   5.466   0.998
40430W        W 5690  27.200  22.181   3.073
40431W        W 5691   0.366  42.813  11.149
40432W        W 5692  36.437  26.503  10.687
40433W        W 5693  19.728   1.320  10.409
40434W        W 5694  18.763  10.084  13.050
40435W        W 5695  41.027  12.797   4.356
40436W        W 5696  11.106   7.343  12.149
40437W        W 5697  30.098   4.377  12.940
40438W        W 5698   0.161   5.291  13.418
40439W        W 5699  17.128  35.438   2.906
40440W        W 5700  43.563  24.209  12.125
40441W        W 5701  14.907  32.340   0.769
40442W        W 5702   5.846  19.130  12.890
40443W        W 5703  26.590  10.648  14.784
40444W        W 5704  43.010  39.327  11.526
40445W        W 5705  40.382  29.430   0.850
40446W        W 5706   2.362  36.107  13.984
40447W        W 5707  37.802   0.691  14.412
40448W        W 5708  15.834  22.197  11.201
40449W        W 5709  41.124  25.239   2.828
40450W        W 5710  26.865  23.957  11.329
40451W        W 5711  32.602   1.065  11.562
40452W        W 5712  39.926  32.939  13.944
40453W        W 5713   3.768  13.724  11.906
40454W        W 5714   0.912  20.938  14.914
40455W        W 5715  25.589  26.264   3.245
40456W        W 5716  14.836  25.538   0.300
40457W        W 5717  32.578  43.287  12.985
40458W        W 5718   1.349  19.126   0.853
40459W        W 5719  24.133  20.131  12.048
40460W        W 5720  35.472  30.650   4.521
40461W        W 5721  29.685  16.746  14.557
40462W        W 5722  19.299  30.699  14.902
40463W        W 5723   2.916  19.559  12.968
40464W        W 5724   5.296  31.588  13.314
40465W        W 5725  20.293  22.084   2.246
40466W        W 5726  26.994  15.873   3.739
40467W        W 5727  36.886   5.389  11.110
40468W        W 5728   3.936  21.268  10.763
40469W        W 5729  17.505  21.036  13.605
40470W        W 5730   5.671  12.241   1.383
40471W        W 5731  32.443  25.133  14.144
40472W        W 5732  21.173  27.189   0.052
40473W        W 5733  41.488   4.169  10.449
40474W        W 5734  44.261  21.199   2.837
40475W        W 5735   9.432  34.829  12.459
40476W        W 5736  14.942  31.464   4.245
40477W        W 5737   3.898   7.125   4.203
40478W        W 5738  34.236  42.634  14.786
40479W        W 5739  37.457  11.285   3.715
40480W        W 5740  36.241  27.387  11.991
40481W        W 5741  24.040   2.511  12.427
40482W        W 5742  36.563  39.100  13.872
40483W        W 5743   9.616  19.079  11.056
40484W        W 5744  23.139   8.121  12.783
40485W        W 5745  31.550   1.847  12.063
40486W        W 5746   9.354  14.458   2.276
40487W        W 5747  14.949  38.431   0.855
40488W        W 5748  39.727  41.508   3.236
40489W        W 5749  30.149  26.987  12.767
40490W        W 5750  20.577  40.338   0.447
40491W        W 5751  41.007  12.166   3.665
40492W        W 5752  13.017  18.368   0.710
40493W        W 5753  20.582  16.149   3.105
40494W        W 5754   1.532   0.914  11.404
40495W        W 5755  10.070  41.373  12.381
40496W        W 5756  43.650  40.895   1.029
40497W        W 5757  31.445  29.023   4.519
40498W        W 5758  33.525   7.952  10.823
40499W        W 5759  10.648  16.120   1.328
40500W        W 5760  42.982  35.365   2.439
40501W        W 5761  30.022  36.310   1.368
40502W        W 5762   1.320  38.759  12.654
40503W        W 5763   3.738  14.780   4.163
40504W        W 5764  41.595  25.898  11.988
40505W        W 5765   5.231  23.777  11.591
40506W        W 5766  20.283  21.147  13.556
40507W        W 5767  14.561  26.513   4.110
40508W        W 5768   0.001   3.675   1.245
40509W        W 5769  39.283  39.066  12.470
40510W        W 5770   9.544  30.185   2.698
40511W        W 5771  39.790  13.612  13.559
40512W        W 5772  37.494  34.361   3.648
40513W        W 5773   9.848  43.787  11.862
40514W        W 5774   8.895   5.193   3.673
40515W        W 5775  17.259  43.524  10.329
40516W        W 5776   3.215   6.824  12.566
40517W        W 5777   1.008  34.148   3.162
40518W        W 5778  16.631  19.540   2.928
40519W        W 5779  22.604   5.912   2.269
40520W        W 5780   8.547  28.239   3.620
40521W        W 5781  21.199   3.730   1.741
40522W        W 5782  35.553  26.584   1.394
40523W        W 5783   3.910   1.424  13.920
40524W        W 5784   1.164   2.805  14.831
40525W        W 5785  20.215  15.322   3.064
40526W        W 5786  22.149   8.959   1.567
40527W        W 5787  14.141  42.060   2.707
40528W        W 5788  30.646  14.564   2.946
40529W        W 5789  44.457  34.865  12.385
40530W        W 5790   2.733  23.455   1.684
40531W        W 5791  30.206  31.973   2.201
40532W        W 5792   7.698  19.253   4.186
40533W        W 5793   3.169  33.667   2.919
40534W        W 5794   4.385   2.243   2.379
40535W        W 5795  40.118  22.526   0.791
40536W        W 5796  43.568   4.875   0.355
40537W        W 5797   0.319  35.887  12.321
40538W        W 5798   0.649  33.016   1.224
40539W        W 5799  22.450  35.935  13.089
40540W        W 5800  44.451  44.948   4.605
40541W        W 5801  20.182  20.529  10.474
40542W        W 5802  29.694  33.231  13.219
40543W        W 5803  37.594  34.048   3.224
40544W        W 5804  15.163   0.706   3.605
40545W        W 5805   4.173   4.625  13.510
40546W        W 5806  37.929  23.882   3.213
40547W        W 5807  41.852  34.705   3.201
40548W        W 5808  12.203  36.389   1.874
40549W        W 5809  34.644  34.253   1.420
40550W        W 5810  23.512  41.847   2.670
40551W        W 5811  36.458  10.691   1.665
40552W        W 5812  39.431   5.776   3.892
40553W        W 5813   6.530  13.645   0.406
40554W        W 5814   2.697  22.998   3.728
40555W        W 5815  14.276  23.022   2.871
40556W        W 5816  44.328  26.902  14.819
40557W        W 5817  44.282  21.956  13.939
40558W        W 5818  40.659   3.268  11.122
40559W        W 5819  39.200  24.298   1.390
40560W        W 5820  20.064  18.998   3.630
40561W        W 5821   3.372  42.417  14.459
40562W        W 5822  17.797  21.034  14.481
40563W        W 5823  14.129  42.121   0.657
40564W        W 5824  16.654  44.285  12.035
40565W        W 5825   0.349  39.371   4.002
40566W        W 5826  21.686  15.575   2.451
40567W        W 5827   6.136  38.157   3.635
40568W        W 5828  39.074  41.929  12.668
40569W        W 5829   3.733  33.003   0.922
40570W        W 5830  27.447  24.189   0.264
40571W        W 5831  38.963  19.826  13.976
40572W        W 5832  14.257  24.566   3.264
40573W        W 5833  12.807  28.532   2.774
40574W        W 5834  30.501  41.338   0.920
40575W        W 5835  26.421  14.538  14.507
40576W        W 5836  33.006   1.526   4.222
40577W        W 5837  36.504  30.431  10.515
40578W        W 5838  41.819  44.357  10.265
40579W        W 5839   6.868  22.646   4.357
40580W        W 5840  11.300  39.456   0.772
40581W        W 5841  37.296  21.489   4.791
40582W        W 5842  13.085  11.627  11.985
40583W        W 5843  31.072  17.149  14.843
40584W        W 5844  39.985  32.112   4.811
40585W        W 5845  29.197  18.092  12.470
40586W        W 5846  12.827  41.402   1.412
40587W        W 5847   3.783  34.491  13.401
40588W        W 5848  43.731  44.437  13.462
40589W        W 5849  15.706  11.341   4.384
40590W        W 5850  16.770  22.943  14.762
40591W        W 5851  30.420  20.721   0.312
40592W        W 5852  20.277  25.023  14.703
40593W        W 5853  44.668  44.499   4.480
40594W        W 5854   6.914  41.758   4.179
40595W        W 5855  28.050   4.330   4.022
40596W        W 5856  43.961  28.926  12.843
40597W        W 5857   5.071  42.856   5.176
40598W        W 5858   5.868   4.333   3.305
40599W        W 5859  41.927  14.799   4.169
40600W        W 5860  34.435  32.030   3.625
40601W        W 5861  16.056  11.678   1.341
40602W        W 5862  16.565   8.794  14.063
40603W        W 5863  39.498  14.814  13.416
40604W        W 5864  37.741  33.557   2.254
40605W        W 5865  29.737  33.905  12.060
40606W        W 5866  39.762  24.117  12.577
40607W        W 5867  19.268  39.354   1.241
40608W        W 5868  19.567  37.539  11.553
40609W        W 5869  37.933   2.762  14.513
40610W        W 5870  10.636  10.211  13.536
40611W        W 5871   3.433  14.536  13.868
40612W        W 5872  17.532   6.741  13.548
40613W        W 5873   7.305   5.498  13.371
40614W        W 5874  36.261  19.278  14.420
40615W        W 5875  20.607   9.736  13.136
40616W        W 5876  37.869   1.013   1.230
40617W        W 5877  26.555  30.462  13.319
40618W        W 5878   2.259  43.792   0.935
40619W        W 5879  34.758   3.965   5.024
40620W        W 5880  42.592  17.293  14.691
40621W        W 5881  18.944  28.996  13.584
40622W        W 5882  10.252  41.856  13.812
40623W        W 5883  41.617  35.482   2.225
40624W        W 5884  21.478   9.315  14.810
40625W        W 5885  10.401  22.125  11.556
40626W        W 5886  13.386  27.803  10.183
40627W        W 5887  40.300  35.982  14.403
40628W        W 5888  26.115  12.798  13.972
40629W        W 5889  36.065  24.945  13.809
40630W        W 5890  28.423  14.336   0.050
40631W        W 5891   7.502   3.683   3.204
40632W        W 5892  22.065   0.694  14.891
40633W        W 5893  32.008  27.696  13.565
40634W        W 5894  27.598  23.230   1.773
40635W        W 5895  25.130  34.682  11.448
40636W        W 5896   8.274  18.688   4.410
40637W        W 5897  33.001   7.449  13.876
40638W        W 5898  21.581   7.617  11.050
40639W        W 5899  29.239  12.281  12.531
40640W        W 5900  43.493  20.558  11.574
40641W        W 5901  20.565  15.667  14.725
40642W        W 5902  26.752  27.370  13.364
40643W        W 5903  24.535  11.439   4.789
40644W        W 5904  39.597  12.318   4.548
40645W        W 5905  18.297  31.085   3.852
40646W        W 5906  10.166  29.325   3.723
40647W        W 5907  13.858  25.661   2.656
40648W        W 5908   0.560  10.994  12.283
40649W        W 5909  23.264  17.628   4.626
40650W        W 5910   7.877  44.242  14.721
40651W        W 5911  42.717  37.018  12.958
40652W        W 5912   0.211  13.273   1.342
40653W        W 5913   8.465  19.646  14.478
40654W        W 5914   9.835  40.608  11.088
40655W        W 5915  14.286  44.439   1.690
40656W        W 5916  36.966  32.027   3.613
40657W        W 5917  16.591  36.318  11.055
40658W        W 5918   2.388  43.357   1.872
40659W        W 5919  10.637  43.840   0.300
40660W        W 5920  34.915  10.137   2.427
40661W        W 5921  32.092  43.458  13.082
40662W        W 5922  30.629   3.895  11.819
40663W        W 5923  14.905  34.414  10.630
40664W        W 5924  34.266  35.930  10.676
40665W        W 5925  11.221  32.580   2.371
40666W        W 5926  27.053  29.713  11.546
40667W        W 5927   0.463  41.686   3.777
40668W        W 5928   6.223  40.059  10.730
40669W        W 5929  31.452  43.843  14.814
40670W        W 5930  37.738   5.761   4.256
40671W        W 5931  24.558  28.361   0.852
40672W        W 5932  13.704  13.591   3.327
40673W        W 5933  36.007  32.913   4.803
40674W        W 5934  34.735  16.844   3.238
40675W        W 5935  35.009  44.875  12.661
40676W        W 5936  30.459  15.312   3.215
40677W        W 5937  25.726  13.822  10.667
40678W        W 5938   9.253  39.495   0.889
40679W        W 5939  23.758  26.273   1.489
40680W        W 5940  10.617  43.485  13.815
40681W        W 5941  37.670   6.754   1.701
40682W        W 5942  24.502  41.522  14.909
40683W        W 5943   8.488  22.688   3.621
40684W        W 5944  12.607  11.804   0.836
40685W        W 5945   2.441   2.380  14.721
40686W        W 5946  24.226  44.269   4.121
40687W        W 5947  21.441  31.072  13.374
40688W        W 5948  15.146   4.647  13.640
40689W        W 5949  37.730   4.287  11.964
40690W        W 5950   7.461  35.804   0.752
40691W        W 5951  14.215  13.058  14.032
40692W        W 5952  40.822  25.492   1.694
40693W        W 5953  19.687  35.547  10.710
40694W        W 5954  33.421  42.541  10.913
40695W        W 5955  30.526  42.743   1.809
40696W        W 5956  33.813   2.190  12.974
40697W        W 5957  37.662  19.023   3.728
40698W        W 5958  18.501  39.531   3.149
40699W        W 5959  12.620   4.945  12.922
40700W        W 5960  24.557  28.539   3.149
40701W        W 5961  32.994   3.900   0.988
40702W        W 5962   4.807   4.301   0.960
40703W        W 5963  22.577  13.396  10.976
40704W        W 5964   2.167   6.354   3.689
40705W        W 5965  11.719  30.046  13.882
40706W        W 5966   6.010  16.242  13.502
40707W        W 5967  35.511  22.316  14.848
40708W        W 5968  42.791  41.858   0.981
40709W        W 5969  18.158   7.751  14.547
40710W        W 5970  39.712  17.778  12.556
40711W        W 5971  11.745  25.127  14.635
40712W        W 5972   4.965   5.025  11.068
40713W        W 5973  14.339  17.576   3.405
40714W        W 5974   3.475   6.786  11.940
40715W        W 5975   7.562  17.726  12.475
40716W        W 5976  40.272  21.084   5.082
40717W        W 5977  13.345  34.642   3.192
40718W        W 5978   5.633  20.156  13.087
40719W        W 5979  33.900  22.436   3.207
40720W        W 5980   4.970  38.446  12.031
40721W        W 5981   5.197   3.274  11.588
40722W        W 5982  23.962  16.631   0.443
40723W        W 5983   8.679  32.578   2.679
40724W        W 5984  23.006  21.638   0.806
40725W        W 5985  30.943  18.188  13.333
40726W        W 5986  14.714  39.362   4.135
40727W        W 5987  37.664  11.479   1.736
40728W        W 5988  24.467   6.370   2.287
40729W        W 5989  30.619  10.566  10.665
40730W        W 5990  41.929  13.735   0.365
40731W        W 5991   0.476  11.518   2.187
40732W        W 5992  12.665   0.998   4.736
40733W        W 5993  16.981  15.844  13.814
40734W        W 5994   8.876  13.089  14.252
40735W        W 5995   1.681  23.281   5.056
40736W        W 5996  35.616   2.834  14.972
40737W        W 5997  24.483  42.587   0.906
40738W        W 5998  44.087  16.807  11.142
40739W        W 5999  16.735  32.589   0.290
40740W        W 6000  34.010  14.868  14.541
40741W        W 6001  33.039  36.121   0.322
40742W        W 6002  41.400  29.457  13.321
40743W        W 6003  35.019  27.411  12.481
40744W        W 6004  16.255  30.592  12.902
40745W        W 6005  32.721  25.599   2.886
40746W        W 6006  19.559  10.878   1.924
40747W        W 6007  41.885  41.206  14.721
40748W        W 6008   3.559  43.773  10.861
40749W        W 6009  10.219  13.809  11.981
40750W        W 6010  41.900  14.610   1.886
40751W        W 6011  28.084  16.512   3.052
40752W        W 6012  20.847   2.933  11.552
40753W        W 6013  15.295   8.856  13.382
40754W        W 6014  25.345  31.625   0.839
40755W        W 6015   0.296  15.307   3.737
40756W        W 6016  23.514   7.250   0.888
40757W        W 6017  22.450  10.886   1.161
40758W        W 6018  35.963  25.438  14.544
40759W        W 6019  23.741  10.601  12.231
40760W        W 6020  34.899  44.920  14.924
40761W        W 6021  21.063   6.799  13.811
40762W        W 6022  36.601  37.907  14.399
40763W        W 6023  17.037  12.647   4.384
40764W        W 6024   1.274   8.382   1.721
40765W        W 6025  31.059  38.408  14.988
40766W        W 6026  28.100  14.342  14.299
40767W        W 6027  24.051   5.251   3.187
40768W        W 6028  11.598  31.986  11.264
40769W        W 6029   9.393  40.833   4.557
40770W        W 6030  44.446  40.973  13.624
40771W        W 6031  39.671   8.613  11.795
40772W        W 6032  21.984   2.027  11.112
40773W        W 6033  25.080  17.983   4.928
40774W        W 6034  34.227  20.322   3.186
40775W        W 6035  43.983  28.984  12.078
40776W        W 6036  16.804  41.039   0.411
40777W        W 6037  26.160  11.835  13.319
40778W        W 6038  20.072   2.315  11.594
40779W        W 6039  20.788  29.092   4.125
40780W        W 6040   3.251   7.175   0.142
40781W        W 6041  32.512  35.167   4.244
40782W        W 6042  22.131  44.551  11.985
40783W        W 6043  21.134  23.207   3.603
40784W        W 6044  37.988  19.507  12.931
40785W        W 6045  30.884  16.689   2.288
40786W        W 6046   3.938  43.939  13.955
40787W        W 6047  30.962  30.916  14.053
40788W        W 6048  43.844  31.931  12.892
40789W        W 6049  39.323  13.692   1.016
40790W        W 6050  40.795  32.617   2.233
40791W        W 6051   6.785   2.549   1.756
40792W        W 6052   8.396   7.445  11.682
40793W        W 6053  43.475  33.323   0.922
40794W        W 6054  32.735  26.648   5.862
40795W        W 6055  39.591  28.354  10.680
40796W        W 6056   3.463  12.828  14.327
40797W        W 6057  44.897  29.828   3.627
40798W        W 6058  28.501  18.159  13.034
40799W        W 6059  16.155  35.084  11.169
40800W        W 6060   6.387  29.095   1.383
40801W        W 6061  12.716  40.049   1.991
40802W        W 6062  16.424  12.383   3.201
40803W        W 6063  27.406   3.464  12.998
40804W        W 6064   3.808  41.830   4.579
40805W        W 6065  36.782  38.326  11.159
40806W        W 6066   5.029  39.128   4.997
40807W        W 6067  32.602   2.759  13.524
40808W        W 6068   4.445  10.173  12.940
40809W        W 6069  22.633  18.503  12.582
40810W        W 6070  24.742  40.973  11.114
40811W        W 6071   0.394   6.798  13.321
40812W        W 6072   8.664  24.926  11.137
40813W        W 6073  27.792  17.321  12.492
40814W        W 6074  18.693  15.788   3.738
40815W        W 6075  13.762  39.375   0.142
40816W        W 6076  30.043  35.581   3.909
40817W        W 6077   8.666  32.661   0.644
40818W        W 6078   8.251  32.511   1.901
40819W        W 6079  23.039  22.975   0.738
40820W        W 6080  39.860   3.229   2.538
40821W        W 6081  25.405   6.889   4.149
40822W        W 6082  30.203  26.640   4.568
40823W        W 6083  21.681  37.604   1.626
40824W        W 6084  22.545  40.235  10.124
40825W        W 6085  33.454  42.793  11.426
40826W        W 6086   5.717  37.409  14.544
40827W        W 6087  28.455  40.776   2.888
40828W        W 6088  25.202  39.097  10.264
40829W        W 6089   5.883  36.505  14.709
40830W        W 6090   5.269  14.117   3.577
40831W        W 6091  31.422  13.176  12.417
40832W        W 6092  16.813  34.652  13.577
40833W        W 6093  18.170  32.002   3.661
40834W        W 6094  26.441   4.918  14.773
40835W        W 6095  14.164  23.041  10.192
40836W        W 6096   3.450   9.473   4.698
40837W        W 6097  35.676  24.718   0.852
40838W        W 6098  17.792  14.620  13.282
40839W        W 6099  43.864  44.793  10.391
40840W        W 6100   3.273   6.255  10.595
40841W        W 6101  29.584   2.853   2.959
40842W        W 6102  26.673  43.866  12.661
40843W        W 6103  18.319  24.321   3.908
40844W        W 6104   3.458   2.484  11.515
40845W        W 6105  33.393  43.960  12.451
40846W        W 6106  21.187  41.943  13.481
40847W        W 6107  32.778  26.435   3.600
40848W        W 6108   2.211   3.389   3.587
40849W        W 6109  38.107  12.840  13.210
40850W        W 6110  36.670   6.229  10.632
40851W        W 6111   8.680   4.194  12.053
40852W        W 6112   3.439  24.587   5.119
40853W        W 6113  32.436  39.044   4.619
40854W        W 6114  18.841  39.228   4.668
40855W        W 6115   0.843  29.462  10.569
40856W        W 6116  36.133  34.400   2.312
40857W        W 6117  30.345  10.860   0.366
40858W        W 6118   7.545  23.612  14.058
40859W        W 6119   6.209  17.064  13.762
40860W        W 6120  31.026  32.078   3.704
40861W        W 6121  26.635   4.874   5.029
40862W        W 6122  35.030   2.370   0.457
40863W        W 6123   6.063  15.929  14.322
40864W        W 6124   8.884  10.509  14.769
40865W        W 6125  43.408  19.789   4.539
40866W        W 6126  35.488  27.626  12.423
40867W        W 6127  35.780  27.645  12.862
40868W        W 6128  42.866  26.221  11.607
40869W        W 6129  10.859  35.039   2.571
40870W        W 6130   2.690  44.309   0.469
40871W        W 6131  13.007  10.080  13.506
40872W        W 6132  30.906  26.945  11.945
40873W        W 6133  37.421  16.030  13.322
40874W        W 6134  18.287  21.814  13.316
40875W        W 6135  38.523  44.243   2.786
40876W        W 6136  33.940  17.846   4.430
40877W        W 6137   5.628  36.544   3.322
40878W        W 6138  30.570  22.934  14.499
40879W        W 6139   1.046   9.184   4.487
40880W        W 6140   2.344  44.391  14.788
40881W        W 6141  20.439   8.322   1.899
40882W        W 6142  20.813  41.074  11.604
40883W        W 6143  12.899  26.372  13.033
40884W        W 6144  17.666   4.463  12.880
40885W        W 6145  17.572  22.583  13.699
40886W        W 6146  27.899  23.763   2.340
40887W        W 6147   1.472  41.927   3.882
40888W        W 6148  38.936  44.715  10.684
40889W        W 6149  25.982  44.339  11.363
40890W        W 6150  39.561  41.769  12.430
40891W        W 6151  36.064  43.371  13.512
40892W        W 6152  34.207  20.606   1.263
40893W        W 6153  40.428   8.341  12.010
40894W        W 6154  38.034  41.974   3.727
40895W        W 6155  14.505  29.500   3.822
40896W        W 6156   8.828  13.185  11.512
40897W        W 6157  31.306  35.504  14.747
40898W        W 6158  31.429   4.219  14.145
40899W        W 6159   6.172  22.245  13.048
40900W        W 6160   6.494  39.598  13.856
40901W        W 6161  43.564  11.343  13.787
40902W        W 6162   0.397  27.672   1.225
40903W        W 6163  35.844  17.130  14.490
40904W        W 6164   3.683  40.419  12.551
40905W        W 6165  19.265  18.641   4.658
40906W        W 6166  39.407  34.453   1.584
40907W        W 6167  32.364  23.220  14.841
40908W        W 6168  31.516  16.864  14.373
40909W        W 6169  42.116  29.644  14.850
40910W        W 6170  32.603  12.306   0.860
40911W        W 6171  43.742  35.553   1.408
40912W        W 6172  37.422   9.295  13.446
40913W        W 6173   0.754  32.702   0.807
40914W        W 6174  36.466  22.904  10.125
40915W        W 6175  19.028  43.832   3.132
40916W        W 6176  38.286  13.737  13.107
40917W        W 6177   8.251  41.116  14.644
40918W        W 6178  22.784  11.319  11.864
40919W        W 6179  17.753   5.412  12.029
40920W        W 6180  26.251  20.848   4.459
40921W        W 6181   0.292  20.622  10.748
40922W        W 6182   1.974  14.269   4.093
40923W        W 6183  39.830  18.590  14.859
40924W        W 6184  22.170  18.222   2.262
40925W        W 6185  44.935   8.209   1.401
40926W        W 6186  15.433   5.950  14.869
40927W        W 6187   5.262  10.788   1.891
40928W        W 6188  26.223  39.413  10.446
40929W        W 6189  21.155  26.944  11.196
40930W        W 6190  37.380   9.325  14.390
40931W        W 6191  31.485  36.301  13.542
40932W        W 6192  18.758  43.625  12.964
40933W        W 6193  28.003  20.007  14.876
40934W        W 6194   6.992  41.697  12.902
40935W        W 6195   0.940  26.712  14.897
40936W        W 6196  34.226   6.656  14.811
40937W        W 6197  29.044  23.219   3.177
40938W        W 6198  17.432  44.740  13.338
40939W        W 6199  42.842  25.387   3.774
40940W        W 6200   9.852  36.450  12.165
40941W        W 6201   6.017  13.642   0.305
40942W        W 6202   4.748   8.919   1.258
40943W        W 6203  14.738  25.146  14.509
40944W        W 6204   3.788  33.948   4.324
40945W        W 6205  28.756  13.514   3.123
40946W        W 6206  23.250  36.156  12.112
40947W        W 6207  20.342  22.929   3.134
40948W        W 6208  15.598   1.250   4.367
40949W        W 6209  37.273  40.820   3.873
40950W        W 6210  12.179  20.063  11.995
40951W        W 6211  35.997   7.891   4.293
40952W        W 6212   1.275  19.212   3.769
40953W        W 6213   6.116   7.449   2.558
40954W        W 6214  23.291  24.052  11.827
40955W        W 6215   0.947   8.001  11.215
40956W        W 6216   1.101  27.577  14.844
40957W        W 6217  26.915  29.527   4.511
40958W        W 6218  17.634  13.857  14.464
40959W        W 6219  40.237  41.798  14.876
40960W        W 6220   2.931  42.710   4.247
40961W        W 6221  34.406  28.624   0.555
40962W        W 6222  26.516  34.161  10.592
40963W        W 6223  37.604  21.072  11.668
40964W        W 6224  25.575  15.114  14.406
40965W        W 6225  19.635  32.183   2.681
40966W        W 6226  30.163  17.315  10.573
40967W        W 6227  16.781  32.972  13.582
40968W        W 6228  36.389  30.931  10.584
40969W        W 6229  15.197  17.960   3.079
40970W        W 6230   1.727  13.640  11.632
40971W        W 6231  28.566  16.312  10.401
40972W        W 6232  30.404  40.404   0.857
40973W        W 6233  35.394  29.575   1.185
40974W        W 6234  38.085  40.419  11.954
40975W        W 6235  33.511  21.478  13.862
40976W        W 6236  10.354  16.300   1.747
40977W        W 6237  27.545  31.104   1.379
40978W        W 6238  11.358   6.440   2.492
40979W        W 6239  18.724  40.874  12.392
40980W        W 6240  23.564   4.726   3.641
40981W        W 6241  13.080  25.639   3.693
40982W        W 6242  25.350  25.452   1.305
40983W        W 6243  24.452  26.932  14.301
40984W        W 6244  23.795  38.055  14.966
40985W        W 6245  15.940  25.915   2.582
40986W        W 6246  37.176   1.926   4.604
40987W        W 6247  29.218  12.598   1.815
40988W        W 6248  26.909  22.649  11.556
40989W        W 6249  23.797  40.360  10.716
40990W        W 6250  39.810  17.207  11.650
40991W        W 6251  20.300  27.805  11.968
40992W        W 6252  26.294  25.825   0.232
40993W        W 6253  29.470  11.443   3.215
40994W        W 6254  10.193   9.832  11.142
40995W        W 6255  29.690  18.058  13.378
40996W        W 6256  18.856  36.058  14.841
40997W        W 6257  18.222  32.448  10.979
40998W        W 6258   9.986  19.775  11.317
40999W        W 6259  34.575  20.624   0.881
41000W        W 6260  17.997  33.965   4.471
41001W        W 6261  23.533  39.976  12.101
41002W        W 6262  11.518  38.387   9.606
41003W        W 6263   1.464  33.957  13.080
41004W        W 6264   6.292  20.455   0.633
41005W        W 6265  10.895  34.313   0.723
41006W        W 6266  17.497  22.139  10.593
41007W        W 6267  42.880  42.724   0.533
41008W        W 6268  23.601  24.804   3.322
41009W        W 6269  12.644  44.983  11.074
41010W        W 6270  14.248  35.092   3.865
41011W        W 6271   3.770   5.988   2.389
41012W        W 6272   2.464   1.670   4.928
41013W        W 6273  21.217  28.597   1.912
41014W        W 6274  41.974  40.015  13.947
41015W        W 6275   9.946  39.387   2.497
41016W        W 6276  32.484  19.508  11.661
41017W        W 6277  16.041  22.501  12.955
41018W        W 6278  12.182  23.428  12.072
41019W        W 6279  32.984  35.783   0.721
41020W        W 6280  40.172  27.404  11.475
41021W        W 6281  12.840   5.898   0.903
41022W        W 6282  14.813   1.821  11.435
41023W        W 6283  43.043  21.875   0.298
41024W        W 6284   6.389   3.665   3.629
41025W        W 6285  44.038  15.201   4.152
41026W        W 6286   7.191   2.013   1.178
41027W        W 6287  11.616  17.246  14.058
41028W        W 6288  20.088  36.424   4.698
41029W        W 6289  21.453   6.949   3.662
41030W        W 6290  43.520  20.831  12.892
41031W        W 6291  25.583   6.882   2.679
41032W        W 6292   3.300  32.720  12.549
41033W        W 6293  39.908   8.461   3.184
41034W        W 6294  12.433  32.780   3.299
41035W        W 6295   0.972  21.387  10.778
41036W        W 6296   3.449  11.213  12.645
41037W        W 6297   2.136  23.463  11.597
41038W        W 6298  22.583  31.656   0.889
41039W        W 6299  30.007  15.564   2.477
41040W        W 6300  26.944   9.330  12.979
41041W        W 6301   7.200   0.235   2.705
41042W        W 6302  21.423  21.497   5.414
41043W        W 6303  22.054  31.065  10.722
41044W        W 6304  37.468  36.472  10.715
41045W        W 6305  20.994  18.493  10.044
41046W        W 6306  40.478  19.133  10.782
41047W        W 6307  20.420  26.070   0.296
41048W        W 6308  24.323  16.228  14.722
41049W        W 6309   1.836  37.524   3.698
41050W        W 6310  18.844  14.178  11.481
41051W        W 6311  27.040  43.653   4.693
41052W        W 6312  41.118  27.914  12.380
41053W        W 6313   5.292  20.045   4.625
41054W        W 6314  39.828   4.612  11.675
41055W        W 6315  20.842  44.137   2.359
41056W        W 6316  17.851  43.291  12.025
41057W        W 6317  27.526  25.273  14.040
41058W        W 6318  37.200  43.703   1.916
41059W        W 6319  42.963  38.806  11.525
41060W        W 6320  25.767  37.448   4.262
41061W        W 6321   0.578  30.050  13.294
41062W        W 6322  13.091  29.426  14.593
41063W        W 6323   3.331  44.784   1.890
41064W        W 6324  29.588   6.068  11.518
41065W        W 6325  17.315  19.220   1.231
41066W        W 6326  22.323  10.957  12.395
41067W        W 6327  15.838  25.643  13.009
41068W        W 6328  35.861  13.642   2.192
41069W        W 6329  22.627  31.077   2.332
41070W        W 6330  14.256  22.762  13.579
41071W        W 6331  38.325  24.773  14.867
41072W        W 6332  11.269  37.353  11.240
41073W        W 6333   5.207  40.440  11.853
41074W        W 6334  24.534  15.818  10.611
41075W        W 6335   7.163  26.012   2.212
41076W        W 6336  31.419  34.945  13.086
41077W        W 6337  42.562  30.489  10.645
41078W        W 6338  34.925  26.382  13.498
41079W        W 6339  34.244  27.747   3.317
41080W        W 6340  44.008  38.955   1.671
41081W        W 6341  21.793  14.357   4.656
41082W        W 6342  11.384   6.525  11.980
41083W        W 6343  28.325  26.182  11.457
41084W        W 6344  26.602  33.823  13.497
41085W        W 6345  29.253  22.685  14.523
41086W        W 6346  35.568  21.318   9.917
41087W        W 6347   3.484  35.603   2.786
41088W        W 6348  36.824  21.029  14.961
41089W        W 6349  12.081   7.861  14.974
41090W        W 6350  34.665  39.834   2.307
41091W        W 6351  23.982  42.310  11.095
41092W        W 6352  31.590  38.085  13.058
41093W        W 6353  28.815  33.450   1.309
41094W        W 6354  16.555   2.993  12.386
41095W        W 6355  40.393  36.380   3.723
41096W        W 6356  10.968  31.337  14.858
41097W        W 6357   2.010   8.249   0.357
41098W        W 6358  29.556  25.778  10.106
41099W        W 6359   5.163  29.684   9.892
41100W        W 6360  21.144   0.787   0.097
41101W        W 6361  28.940  30.406  14.903
41102W        W 6362  33.047  15.544  14.007
41103W        W 6363  40.082  34.532  11.978
41104W        W 6364  21.518  15.610   0.925
41105W        W 6365   9.424  32.081  13.124
41106W        W 6366   9.588  12.783  13.348
41107W        W 6367  44.948  10.196   3.855
41108W        W 6368  32.935  33.940   0.571
41109W        W 6369  17.799  27.474  10.754
41110W        W 6370   7.669  17.208  12.375
41111W        W 6371  23.003  28.417  14.628
41112W        W 6372  39.818  25.009  12.558
41113W        W 6373   2.693  35.493   3.137
41114W        W 6374   5.170  13.230   4.557
41115W        W 6375  30.558  27.718   0.960
41116W        W 6376  34.376  15.548   1.819
41117W        W 6377  31.984  11.207  14.893
41118W        W 6378  10.539  22.677   1.687
41119W        W 6379  38.924   0.614  10.672
41120W        W 6380  30.705   6.904  10.729
41121W        W 6381  41.847  14.971  12.036
41122W        W 6382  27.185  35.467  12.807
41123W        W 6383  29.606   3.895   4.217
41124W        W 6384  10.629  20.201   4.678
41125W        W 6385   4.242  19.695   1.409
41126W        W 6386  30.595  37.354  11.433
41127W        W 6387  15.768  30.006  13.516
41128W        W 6388   0.817  15.850   9.985
41129W        W 6389  11.561  38.542  14.593
41130W        W 6390  12.872  23.205  11.603
41131W        W 6391  18.700  33.832   1.828
41132W        W 6392   7.839   0.786  10.917
41133W        W 6393  30.679  44.550  10.741
41134W        W 6394  16.744  39.221  11.891
41135W        W 6395   3.311  30.970  13.747
41136W        W 6396   9.912  28.120   4.182
41137W        W 6397  23.073  42.537  14.828
41138W        W 6398  24.716   1.685   2.613
41139W        W 6399  16.403  39.496   4.115
41140W        W 6400  17.886  23.826   2.280
41141W        W 6401  25.720  23.596  11.888
41142W        W 6402   2.971  34.112   3.062
41143W        W 6403   3.786  25.040  14.270
41144W        W 6404   2.783   2.428   4.397
41145W        W 6405  12.649   8.355   2.647
41146W        W 6406   2.785  44.049  11.105
41147W        W 6407   6.796  38.523  13.383
41148W        W 6408  29.455   7.502  14.015
41149W        W 6409   7.257  39.309   1.735
41150W        W 6410   3.958  11.610   1.931
41151W        W 6411  16.546  32.480  13.572
41152W        W 6412  26.438  12.720  12.585
41153W        W 6413  14.430  38.932   1.442
41154W        W 6414   5.148  23.953   1.754
41155W        W 6415   4.263  34.633   0.743
41156W        W 6416  27.456  38.110  13.345
41157W        W 6417   2.345  44.040   4.248
41158W        W 6418  32.662  16.626   3.149
41159W        W 6419   1.491  33.546  13.391
41160W        W 6420  27.152  13.894  14.749
41161W        W 6421  37.505  10.339  12.616
41162W        W 6422  41.634  21.809  13.524
41163W        W 6423  11.208  10.568  14.904
41164W        W 6424  41.114  38.577  13.435
41165W        W 6425   0.757  16.024   4.676
41166W        W 6426  36.315  21.996   2.649
41167W        W 6427   1.892   5.663   0.423
41168W        W 6428  44.834  27.110   4.021
41169W        W 6429  42.490  28.664   1.437
41170W        W 6430  31.999   9.920  10.710
41171W        W 6431  33.827  21.709   1.491
41172W        W 6432  33.819  28.070   2.883
41173W        W 6433  24.065  41.968   4.392
41174W        W 6434  12.553  40.442  11.123
41175W        W 6435   2.215  22.798   2.724
41176W        W 6436  37.191  38.170   0.683
41177W        W 6437  21.250  12.248  12.009
41178W        W 6438  10.207  18.822   2.623
41179W        W 6439   7.184  29.443   3.583
41180W        W 6440  43.295   4.511  11.191
41181W        W 6441  26.961  35.062  11.522
41182W        W 6442  36.538   6.271   3.724
41183W        W 6443  14.309  15.854   0.377
41184W        W 6444  28.763  38.448   0.534
41185W        W 6445  40.292   4.484   4.148
41186W        W 6446  43.306  25.512   1.280
41187W        W 6447  39.506   6.709  11.778
41188W        W 6448  17.362   0.143  14.498
41189W        W 6449  30.591  37.789  11.148
41190W        W 6450  17.147  18.739  13.789
41191W        W 6451   1.418  36.048   1.670
41192W        W 6452  12.248   5.988   2.209
41193W        W 6453  44.479  35.370  12.565
41194W        W 6454  25.539  19.283  11.991
41195W        W 6455  29.398   7.415   0.568
41196W        W 6456  23.468  31.804  11.938
41197W        W 6457  11.454  44.384  10.554
41198W        W 6458  34.330  26.588  11.632
41199W        W 6459  29.451   6.633  14.430
41200W        W 6460  21.408   1.352  12.957
41201W        W 6461  31.769  43.727   1.212
41202W        W 6462  34.264  37.991   2.258
41203W        W 6463  11.414  27.087   0.332
41204W        W 6464  23.038  29.656   0.247
41205W        W 6465  28.501  11.207   4.484
41206W        W 6466   4.770  41.262   1.831
41207W        W 6467  12.136  20.577  12.007
41208W        W 6468  38.589  29.859   3.260
41209W        W 6469  40.862  18.033  11.182
41210W        W 6470  28.704  28.288   1.898
41211W        W 6471  18.650  44.081   0.007
41212W        W 6472   6.957   9.386   2.756
41213W        W 6473  18.051   2.305  10.659
41214W        W 6474  13.776   6.741   3.655
41215W        W 6475  25.066  38.824  11.117
41216W        W 6476  39.480  30.425   4.556
41217W        W 6477  42.796  37.875  14.076
41218W        W 6478  24.281  24.026  11.561
41219W        W 6479  18.260   3.455  11.912
41220W        W 6480   0.488   0.235  11.171
41221W        W 6481  26.726  33.331   4.791
41222W        W 6482  43.850  14.831   1.722
41223W        W 6483  25.605  38.418  11.095
41224W        W 6484  26.726  25.746  10.671
41225W        W 6485  37.319  44.179   3.273
41226W        W 6486  20.555  13.911   4.602
41227W        W 6487  27.058  37.058  12.403
41228W        W 6488  15.068   5.681  12.018
41229W        W 6489   1.647  29.490  14.539
41230W        W 6490  15.274  28.842   0.401
41231W        W 6491  35.896  36.242   0.792
41232W        W 6492  35.347  28.847   1.874
41233W        W 6493  18.170  34.855   3.736
41234W        W 6494  14.274  11.267   1.685
41235W        W 6495  19.571  16.791  13.795
41236W        W 6496  18.725  19.570  14.412
41237W        W 6497  33.669  33.542  11.209
41238W        W 6498   0.303  41.609   4.287
41239W        W 6499   3.848  14.675  12.124
41240W        W 6500  13.011  42.907   1.658
41241W        W 6501  11.393  42.497   3.244
41242W        W 6502  29.611  14.142   2.279
41243W        W 6503  26.639   1.732  11.507
41244W        W 6504   9.260  43.703   0.476
41245W        W 6505  39.989  36.993   4.625
41246W        W 6506  39.267   1.990  13.512
41247W        W 6507  16.157  25.303  14.731
41248W        W 6508  38.026   2.817   2.287
41249W        W 6509  24.529   0.715   2.903
41250W        W 6510   9.983   4.547  12.991
41251W        W 6511  22.024  27.192  13.272
41252W        W 6512  35.517  21.090  13.614
41253W        W 6513  19.113  17.824   4.361
41254W        W 6514  16.649  36.059   0.456
41255W        W 6515  44.553  32.630  12.252
41256W        W 6516  29.724  44.382  12.924
41257W        W 6517   0.917  27.456   1.284
41258W        W 6518  37.090  40.214  10.953
41259W        W 6519  24.422  30.553   2.381
41260W        W 6520  21.583  21.639   0.459
41261W        W 6521  26.018  44.981  11.630
41262W        W 6522  33.781  13.092   1.360
41263W        W 6523  37.606   8.844  10.604
41264W        W 6524  22.729  11.530   3.211
41265W        W 6525   5.935  16.566   1.720
41266W        W 6526  29.957  36.179  12.390
41267W        W 6527   2.359  26.928   4.809
41268W        W 6528  33.299  24.494  14.364
41269W        W 6529  32.333  26.790  12.255
41270W        W 6530  35.062  19.939   2.274
41271W        W 6531  17.073  26.240   1.015
41272W        W 6532   0.871  19.009   0.190
41273W        W 6533  32.807  15.001  13.178
41274W        W 6534  33.900  17.144   0.736
41275W        W 6535  41.221  28.485  13.350
41276W        W 6536  34.912  12.194   0.000
41277W        W 6537  17.262  39.795   1.735
41278W        W 6538   0.995  38.384  11.185
41279W        W 6539  29.491  34.482   2.442
41280W        W 6540  31.219  35.949   2.644
41281W        W 6541   1.357  31.994  12.312
41282W        W 6542  37.110  22.658  12.046
41283W        W 6543  17.711  26.982   4.142
41284W        W 6544   9.461  17.956   4.484
41285W        W 6545  24.578  30.975  14.019
41286W        W 6546  38.524  14.189   3.242
41287W        W 6547   7.685  44.282   4.629
41288W        W 6548   9.648  23.593   1.379
41289W        W 6549  12.790  17.659   1.012
41290W        W 6550  43.522  16.739   2.616
41291W        W 6551  36.898   3.730  14.429
41292W        W 6552  10.973  37.503   2.811
41293W        W 6553   4.609   2.725   4.027
41294W        W 6554  29.476  32.614  10.730
41295W        W 6555   1.013  44.575   2.813
41296W        W 6556  10.751  20.176  13.991
41297W        W 6557  35.034  29.615   0.187
41298W        W 6558   5.449  35.008   4.728
41299W        W 6559  29.574  10.315  10.097
41300W        W 6560  22.659  35.105  13.105
41301W        W 6561  37.543  15.660   4.507
41302W        W 6562  25.947   0.936   2.796
41303W        W 6563  20.537  36.975  11.462
41304W        W 6564  14.635  29.635   0.267
41305W        W 6565  11.862  14.732  11.509
41306W        W 6566  42.840   3.376   0.835
41307W        W 6567  26.620  34.395   0.467
41308W        W 6568  25.242  34.917   4.336
41309W        W 6569  34.823   0.735   0.295
41310W        W 6570  15.402  10.153   3.104
41311W        W 6571  21.607   0.908   1.810
41312W        W 6572  15.612  32.636   2.774
41313W        W 6573  12.073  31.331  10.655
41314W        W 6574  40.411  20.570   4.731
41315W        W 6575  41.938  24.066   4.171
41316W        W 6576  38.126  19.044  12.776
41317W        W 6577  41.314  29.958  14.940
41318W        W 6578  18.865  39.568   2.191
41319W        W 6579  30.861  40.414   2.089
41320W        W 6580   9.888  35.528  12.119
41321W        W 6581  23.921  16.294  14.393
41322W        W 6582  42.911  16.190  13.611
41323W        W 6583   7.902  44.146   2.172
41324W        W 6584  35.560  35.257   4.773
41325W        W 6585   9.911  31.400  12.424
41326W        W 6586  43.736  28.476   4.115
41327W        W 6587  17.159  41.877  10.794
41328W        W 6588  14.274  17.150   1.060
41329W        W 6589  19.167  32.196   0.928
41330W        W 6590  24.570  32.909   3.169
41331W        W 6591  38.996  13.366   2.810
41332W        W 6592  35.364   8.502   0.857
41333W        W 6593  19.655   7.923   4.883
41334W        W 6594  24.504  13.408  10.599
41335W        W 6595   0.891  17.744   4.184
41336W        W 6596  42.229  30.415   4.877
41337W        W 6597  20.620  40.881  14.769
41338W        W 6598  18.694  41.397   4.302
41339W        W 6599  38.917  40.717   1.353
41340W        W 6600  26.434   6.197  14.355
41341W        W 6601   6.557  14.266   0.773
41342W        W 6602  17.705   5.663   1.221
41343W        W 6603  40.885  16.163  11.493
41344W        W 6604  24.025  24.701   2.159
41345W        W 6605  10.862   1.520  12.028
41346W        W 6606  22.021  12.209  13.506
41347W        W 6607   1.427  11.617   5.470
41348W        W 6608  42.061  14.159   1.198
41349W        W 6609  30.675  20.983   0.689
41350W        W 6610  30.539  35.305   0.785
41351W        W 6611  16.835   2.724   4.447
41352W        W 6612  44.970  34.639  13.459
41353W        W 6613  33.626  28.034   2.377
41354W        W 6614  11.335  41.450  10.478
41355W        W 6615  37.821  41.719  14.928
41356W        W 6616  11.196  14.781  13.929
41357W        W 6617  21.961  26.613  14.901
41358W        W 6618   6.265  10.452  12.859
41359W        W 6619   7.653  24.563   0.370
41360W        W 6620  42.092  33.317  12.497
41361W        W 6621  22.199  37.468   1.703
41362W        W 6622  22.009   2.125   4.994
41363W        W 6623   1.235  18.395   3.742
41364W        W 6624  22.140  10.729  14.890
41365W        W 6625  33.529   4.749   3.307
41366W        W 6626  13.550   0.500   4.176
41367W        W 6627  28.467  24.635   4.176
41368W        W 6628   7.857  10.831   2.169
41369W        W 6629  26.864  12.061  10.860
41370W        W 6630  32.519  44.745  11.917
41371W        W 6631  36.007   5.596   3.778
41372W        W 6632  12.769  36.376   3.147
41373W        W 6633   0.482  17.921   2.684
41374W        W 6634  13.691  17.566  14.316
41375W        W 6635  38.072  22.547   3.711
41376W        W 6636   4.211  21.738  11.533
41377W        W 6637   9.770   2.023   3.198
41378W        W 6638  14.306  12.886  14.531
41379W        W 6639   1.236  12.274   3.273
41380W        W 6640  15.195  29.997   4.695
41381W        W 6641   6.260  17.603   4.622
41382W        W 6642  35.348   1.500   3.092
41383W        W 6643  19.707   4.357   2.804
41384W        W 6644  34.085  35.835   2.751
41385W        W 6645  31.115  14.670  12.014
41386W        W 6646   4.127  23.332  10.710
41387W        W 6647   4.095  18.964  10.793
41388W        W 6648  23.685  22.644   3.315
41389W        W 6649  40.384  24.911   4.566
41390W        W 6650   4.940  23.542   3.552
41391W        W 6651  13.358  44.494  13.562
41392W        W 6652  15.164   2.674   1.759
41393W        W 6653  42.237  19.009  11.157
41394W        W 6654  25.688  16.194   1.764
41395W        W 6655  42.607  38.749   0.480
41396W        W 6656  34.329  23.016  11.074
41397W        W 6657  16.545  20.240  12.208
41398W        W 6658  18.072  40.321   0.344
41399W        W 6659  41.874  20.677   1.662
41400W        W 6660   0.206  20.970   2.772
41401W        W 6661  36.404  30.626   0.797
41402W        W 6662   0.480  33.043   4.523
41403W        W 6663  12.128  39.316   3.843
41404W        W 6664   8.433  21.937  11.026
41405W        W 6665  40.478  12.145  13.826
41406W        W 6666   0.305  11.432  12.169
41407W        W 6667  24.503   6.693   3.786
41408W        W 6668  32.230  19.196  14.061
41409W        W 6669  35.034  20.561   3.652
41410W        W 6670  23.022   3.960   2.267
41411W        W 6671  14.356   6.986   4.080
41412W        W 6672  15.674  38.015   3.710
41413W        W 6673  21.566  24.184  10.264
41414W        W 6674   8.066  32.068  14.063
41415W        W 6675  40.256   8.068  12.392
41416W        W 6676  33.132   4.717  11.669
41417W        W 6677  43.359  32.032  14.129
41418W        W 6678  38.299  35.604   4.132
41419W        W 6679  44.931  34.247  12.071
41420W        W 6680  11.114  41.411   4.590
41421W        W 6681  39.032  14.127   5.057
41422W        W 6682   7.836  42.449  11.987
41423W        W 6683  44.473  17.126  14.788
41424W        W 6684  29.127  33.853  11.506
41425W        W 6685   6.493  37.962   2.485
41426W        W 6686  38.149   1.201   0.611
41427W        W 6687  10.850  41.389  11.708
41428W        W 6688  40.471   0.901  12.957
41429W        W 6689  43.082   2.441  14.542
41430W        W 6690   1.373  29.908  13.928
41431W        W 6691  13.493  21.101   4.675
41432W        W 6692  31.442  18.812  10.598
41433W        W 6693  42.795  24.171   0.325
41434W        W 6694  25.667   2.255   1.845
41435W        W 6695  33.572  11.410  11.154
41436W        W 6696  11.684   5.431  13.782
41437W        W 6697   0.695   0.980   3.669
41438W        W 6698  36.460  27.266  12.487
41439W        W 6699  32.155  19.344   2.776
41440W        W 6700   6.317  11.629  12.630
41441W        W 6701  40.272  32.117   3.120
41442W        W 6702   2.607  43.295  12.856
41443W        W 6703  20.486  35.527  11.572
41444W        W 6704  18.066  41.695  13.703
41445W        W 6705  16.829  26.577  11.495
41446W        W 6706  42.501   9.920  11.103
41447W        W 6707  23.547  27.193  10.698
41448W        W 6708  39.918  34.342  11.058
41449W        W 6709  28.730  43.665   1.546
41450W        W 6710  21.928  32.674   4.071
41451W        W 6711   6.400  43.298  12.617
41452W        W 6712  29.397  37.483   3.606
41453W        W 6713  35.359  17.303   2.896
41454W        W 6714  28.052  13.598  12.115
41455W        W 6715   0.372  29.611   3.602
41456W        W 6716  32.114  30.453  11.607
41457W        W 6717  18.823  10.282   2.796
41458W        W 6718  32.070   8.217   0.432
41459W        W 6719  14.139  10.344  14.337
41460W        W 6720  10.822  38.514   4.618
41461W        W 6721  29.891  15.584   0.456
41462W        W 6722  36.763   7.206   1.310
41463W        W 6723  33.178  28.369   0.961
41464W        W 6724  35.721  22.852   3.997
41465W        W 6725  36.859   9.126   2.328
41466W        W 6726  15.153  13.444   3.462
41467W        W 6727  28.247  28.548   2.105
41468W        W 6728  37.178  23.071  13.504
41469W        W 6729   2.801   8.585  11.657
41470W        W 6730  37.663   3.374   2.814
41471W        W 6731  27.373  20.208   2.799
41472W        W 6732   2.703  32.237  11.742
41473W        W 6733   9.153  11.154   4.406
41474W        W 6734  40.421  26.566   3.927
41475W        W 6735  44.495   6.198   4.683
41476W        W 6736  44.452  27.030   2.154
41477W        W 6737   6.262  10.778  10.512
41478W        W 6738  32.733  19.118   2.032
41479W        W 6739  13.412  36.325   3.855
41480W        W 6740  24.803  14.138   4.742
41481W        W 6741  42.071   8.309  14.304
41482W        W 6742  12.145  32.734   0.990
41483W        W 6743  21.700  12.190  11.775
41484W        W 6744   7.166  12.909   2.665
41485W        W 6745  26.149  19.648   3.115
41486W        W 6746   6.463  11.260   2.704
41487W        W 6747  33.040  27.652  13.306
41488W        W 6748  40.926  34.324   4.403
41489W        W 6749  44.948   9.758   4.112
41490W        W 6750  16.801  18.730  14.184
41491W        W 6751  32.818  35.302   2.209
41492W        W 6752  11.010  41.431  12.728
41493W        W 6753  35.785  18.560  12.956
41494W        W 6754  16.392  42.574  14.045
41495W        W 6755  31.842  41.264  12.634
41496W        W 6756  32.720  41.685   4.018
41497W        W 6757  12.753  25.473  12.798
41498W        W 6758  10.528  34.892   1.358
41499W        W 6759  20.776  31.461  12.850
41500W        W 6760  10.979  19.475  14.291
41501W        W 6761  39.762  30.913   1.906
41502W        W 6762   7.364  21.501  11.116
41503W        W 6763  28.581  16.063   4.171
41504W        W 6764   0.382  33.560  11.688
41505W        W 6765  32.407  42.429   3.920
41506W        W 6766   9.200   8.292   1.915
41507W        W 6767   0.704  15.944  12.407
41508W        W 6768  36.795  21.666   4.044
41509W        W 6769  26.430  38.006   1.321
41510W        W 6770   0.943  13.273   4.037
41511W        W 6771   6.655   5.768  12.515
41512W        W 6772  27.321  26.013  14.465
41513W        W 6773  21.043  14.657   3.231
41514W        W 6774  20.688  30.205  13.758
41515W        W 6775  12.309  34.862  11.120
41516W        W 6776   2.089  38.381   3.644
41517W        W 6777   4.277  27.594   4.814
41518W        W 6778  44.246  24.810  12.971
41519W        W 6779  17.982  17.018  11.065
41520W        W 6780   6.905  33.477  14.531
41521W        W 6781   1.702  41.833  13.391
41522W        W 6782  44.903  44.448   4.012
41523W        W 6783  15.134  24.632  14.739
41524W        W 6784  40.791  25.578  13.414
41525W        W 6785  17.166  26.044  14.371
41526W        W 6786  32.194  39.646  14.449
41527W        W 6787   4.639  22.162   0.988
41528W        W 6788  41.862   4.384   3.709
41529W        W 6789  18.333  38.355   1.450
41530W        W 6790  32.080  28.557   2.206
41531W        W 6791  36.074  43.026   2.667
41532W        W 6792  17.590  14.539   0.200
41533W        W 6793   3.383  37.483  13.426
41534W        W 6794  30.135  24.140   1.361
41535W        W 6795   0.170  15.391  13.844
41536W        W 6796  27.352   8.638   5.288
41537W        W 6797  10.423   4.299   4.857
41538W        W 6798  40.057  24.267  12.957
41539W        W 6799  40.173  25.255  12.879
41540W        W 6800  28.051  24.218   4.611
41541W        W 6801   0.525   1.590  12.359
41542W        W 6802  29.182  44.482  10.680
41543W        W 6803  35.483  18.275   2.650
41544W        W 6804  24.956   4.441   1.546
41545W        W 6805  28.812   9.442   0.214
41546W        W 6806   9.577  25.621   4.231
41547W        W 6807  32.572  15.302  14.053
41548W        W 6808  14.183  37.167  11.306
41549W        W 6809  27.144   1.858  11.528
41550W        W 6810  32.822   3.730   0.534
41551W        W 6811  12.227  12.081   3.227
41552W        W 6812   9.319   2.893  12.309
41553W        W 6813   0.997   9.399   2.331
41554W        W 6814   6.374   0.879   3.225
41555W        W 6815  42.794  24.125   4.712
41556W        W 6816  42.635  25.109  14.592
41557W        W 6817   7.842  14.802   0.852
41558W        W 6818  17.318   8.475   3.488
41559W        W 6819  24.198  23.138  10.548
41560W        W 6820  32.649   9.374   1.912
41561W        W 6821  20.577   0.069   0.145
41562W        W 6822  40.562   5.895   0.347
41563W        W 6823  38.151  22.231  10.562
41564W        W 6824   5.211  14.126  12.538
41565W        W 6825  21.517  25.237  10.802
41566W        W 6826  34.054  40.783  12.612
41567W        W 6827  42.987  21.211   0.004
41568W        W 6828  31.830  15.957   1.997
41569W        W 6829  18.292   3.429   3.675
41570W        W 6830   4.908   3.711  11.507
41571W        W 6831  40.276   0.558   5.216
41572W        W 6832  15.632  17.706   3.237
41573W        W 6833  14.727  14.107  10.531
41574W        W 6834  35.403  18.451   0.092
41575W        W 6835  16.220  28.552   2.362
41576W        W 6836  24.128  32.479  14.904
41577W        W 6837  35.521  27.120   1.333
41578W        W 6838   4.838   4.213   1.982
41579W        W 6839  35.614  37.660   4.024
41580W        W 6840  33.516   5.907  14.895
41581W        W 6841  25.597  26.128   1.397
41582W        W 6842  22.000  41.378   3.374
41583W        W 6843  14.761  13.296  11.683
41584W        W 6844  30.053  29.958  12.631
41585W        W 6845  27.236  37.213  10.128
41586W        W 6846  19.198  42.918  12.208
41587W        W 6847  43.779  21.725   4.842
41588W        W 6848  30.993  16.968  14.337
41589W        W 6849  41.377  17.277   4.815
41590W        W 6850  35.230  12.537  14.320
41591W        W 6851  24.782   9.897  12.543
41592W        W 6852   1.766  36.946  14.855
41593W        W 6853  39.224  29.768   1.364
41594W        W 6854  16.605  41.492   0.168
41595W        W 6855  15.773  29.081   4.118
41596W        W 6856  33.444  15.158   4.861
41597W        W 6857  26.530  35.575  10.267
41598W        W 6858  36.448  11.236  10.459
41599W        W 6859  40.422  30.603   1.245
41600W        W 6860  15.615  14.760   4.947
41601W        W 6861   9.769  42.370   3.575
41602W        W 6862  33.918  13.511   4.482
41603W        W 6863   7.877  17.820   3.871
41604W        W 6864  35.905  39.574  14.931
41605W        W 6865  28.565   6.237   0.205
41606W        W 6866  42.567   1.242  10.588
41607W        W 6867  44.572   3.815   3.170
41608W        W 6868   3.925  15.554  12.148
41609W        W 6869  30.058  42.430  11.652
41610W        W 6870  13.254  14.260   0.854
41611W        W 6871  36.755  19.655  13.646
41612W        W 6872  19.271  10.139   1.722
41613W        W 6873   3.829  12.238  13.201
41614W        W 6874  18.015  12.536   0.374
41615W        W 6875  19.643  14.415   2.714
41616W        W 6876  15.597   4.479  13.824
41617W        W 6877  44.515  31.718   3.674
41618W        W 6878  13.727   3.269  11.581
41619W        W 6879  22.181  34.943   3.252
41620W        W 6880   4.503  37.008   4.600
41621W        W 6881  31.317  29.032  10.899
41622W        W 6882  33.541   2.964  12.992
41623W        W 6883   7.925  15.230   2.841
41624W        W 6884   3.859  31.286   3.489
41625W        W 6885   5.180  12.870  13.117
41626W        W 6886  42.250  10.757  11.368
41627W        W 6887  35.943  38.321  12.930
41628W        W 6888  39.798  19.306  14.426
41629W        W 6889   0.218  29.153  14.413
41630W        W 6890  36.056  30.971   3.246
41631W        W 6891  36.983  29.997   1.863
41632W        W 6892  14.055   0.478  13.902
41633W        W 6893  19.698  18.887   4.518
41634W        W 6894  34.163  15.715   1.355
41635W        W 6895  29.905   4.195  12.498
41636W        W 6896  36.540  39.738   1.870
41637W        W 6897  43.503  26.865  12.980
41638W        W 6898  39.921  12.073   0.890
41639W        W 6899  14.806  44.422   1.786
41640W        W 6900  22.231  26.460  11.144
41641W        W 6901  36.001  15.940  13.534
41642W        W 6902  27.762   8.665   0.193
41643W        W 6903  41.812  10.546   3.675
41644W        W 6904  40.266  21.096   0.966
41645W        W 6905   7.215  30.785  13.507
41646W        W 6906  35.154  37.139   4.520
41647W        W 6907  43.331  14.175  12.412
41648W        W 6908   2.272   8.446  13.508
41649W        W 6909  37.078  12.759  14.358
41650W        W 6910  35.911   1.722  12.000
41651W        W 6911  31.174  29.044   4.079
41652W        W 6912   8.208  10.906   1.769
41653W        W 6913  22.647   2.315   4.093
41654W        W 6914  31.224   1.901   2.188
41655W        W 6915  33.384   8.186   1.189
41656W        W 6916  34.399  24.509   2.951
41657W        W 6917  13.385  10.823   0.915
41658W        W 6918  28.623   7.373  14.507
41659W        W 6919  27.165   1.364   0.907
41660W        W 6920  21.384  19.036  10.647
41661W        W 6921  44.082  24.312   0.251
41662W        W 6922  16.849  15.364  13.521
41663W        W 6923   0.463  37.916   3.052
41664W        W 6924   4.782  39.274   1.328
41665W        W 6925  10.537   0.557   1.234
41666W        W 6926  12.502  36.549  10.739
41667W        W 6927   9.646  18.611  12.816
41668W        W 6928  13.134  36.116   0.415
41669W        W 6929  23.238  14.664   3.442
41670W        W 6930  13.128  11.089   4.276
41671W        W 6931  38.785  22.689  13.614
41672W        W 6932  25.175  27.695   4.635
41673W        W 6933   7.779  24.016  13.833
41674W        W 6934   6.880  30.078   4.334
41675W        W 6935  34.833  19.216  14.499
41676W        W 6936  18.392  15.268   1.314
41677W        W 6937  42.783  16.807  10.652
41678W        W 6938   7.039  14.178   4.591
41679W        W 6939  19.587  13.587  11.644
41680W        W 6940  22.524  43.887   1.656
41681W        W 6941  36.417  44.969   9.829
41682W        W 6942   8.618  24.669   3.652
41683W        W 6943  12.861   2.474  11.911
41684W        W 6944  23.446  33.975   0.347
41685W        W 6945  18.620   5.356   0.835
41686W        W 6946  39.538  25.387  11.063
41687W        W 6947  25.618   2.796   1.889
41688W        W 6948   4.333  40.380  11.956
41689W        W 6949  27.480   5.883   3.177
41690W        W 6950  11.750   8.431   3.159
41691W        W 6951   4.233  38.001  13.507
41692W        W 6952  21.741   7.506   1.727
41693W        W 6953   1.955  11.575  11.483
41694W        W 6954  15.190  17.609   3.513
41695W        W 6955  22.124   5.913  13.796
41696W        W 6956  38.966  39.548  12.423
41697W        W 6957  38.097   1.277  13.441
41698W        W 6958   1.267  17.346   4.818
41699W        W 6959   4.342   3.856  10.727
41700W        W 6960  37.460   2.995  14.471
41701W        W 6961  28.548  42.355  13.011
41702W        W 6962  22.026   1.727  14.914
41703W        W 6963  25.491  42.161  13.410
41704W        W 6964  29.521  38.835   4.875
41705W        W 6965  34.542  43.828   2.871
41706W        W 6966   8.152  18.017   4.992
41707W        W 6967  17.368  18.048   3.191
41708W        W 6968   5.579  40.873   4.780
41709W        W 6969   3.264  26.416   0.764
41710W        W 6970  27.758  38.512  13.069
41711W        W 6971  27.604  33.674   3.270
41712W        W 6972  30.117  32.669  13.932
41713W        W 6973  26.456  34.546   4.688
41714W        W 6974  16.422  14.377  14.975
41715W        W 6975  29.548  26.991  10.930
41716W        W 6976  33.875  23.754  10.933
41717W        W 6977  26.106  31.175  12.194
41718W        W 6978  34.357   1.738   1.546
41719W        W 6979  32.942  15.255   4.781
41720W        W 6980   6.713  35.567  12.446
41721W        W 6981  20.449   5.672   4.004
41722W        W 6982  34.466   7.793  12.190
41723W        W 6983  33.558  39.029   0.806
41724W        W 6984  44.455  10.338   0.675
41725W        W 6985   6.361  10.396  14.789
41726W        W 6986  12.064  38.792   3.729
41727W        W 6987  17.703  26.591   2.728
41728W        W 6988   4.346  34.563   3.341
41729W        W 6989  43.874  28.033   2.721
41730W        W 6990  26.527  29.225   1.621
41731W        W 6991  44.418  15.594  13.112
41732W        W 6992  34.366  16.674  12.130
41733W        W 6993   8.902  29.486  11.516
41734W        W 6994  20.128  19.035   5.420
41735W        W 6995  12.302  39.652   4.669
41736W        W 6996  43.993   8.402   0.365
41737W        W 6997  32.883  38.228   4.753
41738W        W 6998  17.236  41.758   2.734
41739W        W 6999  32.325   8.865   2.678
41740W        W 7000   1.169  41.963  14.874
41741W        W 7001  19.078  19.490   0.427
41742W        W 7002  32.174  26.010   0.316
41743W        W 7003  18.990   2.729   3.609
41744W        W 7004  33.835  43.583   0.418
41745W        W 7005  26.876  40.534  12.455
41746W        W 7006  19.667  34.498  10.701
41747W        W 7007  19.725  23.463  13.463
41748W        W 7008  16.563  44.020   0.455
41749W        W 7009  40.257  23.986   2.090
41750W        W 7010  17.666  21.646  10.796
41751W        W 7011  35.275   4.351  12.386
41752W        W 7012  27.374  16.281  12.656
41753W        W 7013  22.248  14.336  11.898
41754W        W 7014  15.629  11.701  11.938
41755W        W 7015   0.175  18.230  12.011
41756W        W 7016  26.273  43.437  11.507
41757W        W 7017  39.224   6.210   3.729
41758W        W 7018  22.175  42.493  11.613
41759W        W 7019  37.753  31.039  13.012
41760W        W 7020  17.674  40.515   3.573
41761W        W 7021   1.592  24.306  14.803
41762W        W 7022  28.140  12.868   1.331
41763W        W 7023  21.922   1.774   1.634
41764W        W 7024  30.242  22.932   2.616
41765W        W 7025  20.036  27.216   3.292
41766W        W 7026  40.101  19.802  12.624
41767W        W 7027  34.708   2.677   1.490
41768W        W 7028   3.862  11.245  11.967
41769W        W 7029  41.794  42.368  12.000
41770W        W 7030  24.030  19.632  12.075
41771W        W 7031  35.689  40.374  11.317
41772W        W 7032   1.340  43.396   4.604
41773W        W 7033  23.626  29.512   4.815
41774W        W 7034   6.343   3.855   0.786
41775W        W 7035  18.638  42.029  12.981
41776W        W 7036  33.612  18.581   3.322
41777W        W 7037  40.532  19.818  14.891
41778W        W 7038  40.511   8.258  11.235
41779W        W 7039  33.210   3.895  12.934
41780W        W 7040  31.860  19.228  13.687
41781W        W 7041   6.383  39.505  11.920
41782W        W 7042  44.926  10.342   1.833
41783W        W 7043  35.689   8.433   2.595
41784W        W 7044  19.195  27.842   1.013
41785W        W 7045  27.826  24.210   1.544
41786W        W 7046  35.439   5.093  12.867
41787W        W 7047  22.557  11.324  14.531
41788W        W 7048  10.503  12.232   4.700
41789W        W 7049  33.942  17.262   4.453
41790W        W 7050  21.459  37.628  10.872
41791W        W 7051   2.403  42.564  12.146
41792W        W 7052  11.375   0.746   0.359
41793W        W 7053  27.497  41.407   2.174
41794W        W 7054   0.334  33.823  13.500
41795W        W 7055   7.399  32.023   1.206
41796W        W 7056  35.351  36.366   3.682
41797W        W 7057  10.792  32.173  13.214
41798W        W 7058  21.310  19.290  11.947
41799W        W 7059  21.290  34.210  11.478
41800W        W 7060  24.011  19.000  13.456
41801W        W 7061  40.418  22.777   2.396
41802W        W 7062   5.376  44.249   4.592
41803W        W 7063  14.402  39.376   4.574
41804W        W 7064   9.735  27.513  13.248
41805W        W 7065  37.630  44.416   4.558
41806W        W 7066   3.805  10.712  11.999
41807W        W 7067  38.285  24.118  11.597
41808W        W 7068  20.517  17.098  10.986
41809W        W 7069  42.168  33.315   5.056
41810W        W 7070   5.345   3.388  14.390
41811W        W 7071  41.050   7.319   4.267
41812W        W 7072   8.373  25.965  13.622
41813W        W 7073  40.509  15.319  11.242
41814W        W 7074   3.462   7.748  14.276
41815W        W 7075  26.385  40.055   4.078
41816W        W 7076  17.564  15.785   2.064
41817W        W 7077  28.574  11.263   2.211
41818W        W 7078  40.177  22.338   1.687
41819W        W 7079  35.954  35.668  11.147
41820W        W 7080  30.688  19.742   4.275
41821W        W 7081   7.539   8.352  14.775
41822W        W 7082   4.117  30.427  12.921
41823W        W 7083  10.224   6.264   2.091
41824W        W 7084  22.786   6.610  14.850
41825W        W 7085  24.351  41.129   4.862
41826W        W 7086  13.121  25.626  11.171
41827W        W 7087  13.617  27.014   1.984
41828W        W 7088   3.875  34.929   0.530
41829W        W 7089  14.129  36.994   1.134
41830W        W 7090  22.139   4.809  12.956
41831W        W 7091  27.469  15.440  12.030
41832W        W 7092  24.179  43.493  13.878
41833W        W 7093  13.864  23.231  12.903
41834W        W 7094  42.615  18.185   4.229
41835W        W 7095  25.556   1.755  14.332
41836W        W 7096   0.480  16.362  10.827
41837W        W 7097   1.419  40.549   3.174
41838W        W 7098  31.123  39.822  14.835
41839W        W 7099   2.738  12.903   9.966
41840W        W 7100  19.393   9.477  12.488
41841W        W 7101  22.465  27.985   3.738
41842W        W 7102   2.101  13.318   9.645
41843W        W 7103  40.305   9.875  14.834
41844W        W 7104  30.625   9.814  14.861
41845W        W 7105  29.238  34.028  13.462
41846W        W 7106  12.837  28.060   4.582
41847W        W 7107  31.080  35.234  14.381
41848W        W 7108  34.461  18.854   3.573
41849W        W 7109  31.287  24.741  13.846
41850W        W 7110   2.369  27.793   5.052
41851W        W 7111  29.180  14.442   2.304
41852W        W 7112  14.112  27.029   2.227
41853W        W 7113   5.721  38.400  10.702
41854W        W 7114  20.580  39.274  11.133
41855W        W 7115  16.780  38.382  14.541
41856W        W 7116  35.089  11.708   4.172
41857W        W 7117  27.700  35.023  13.414
41858W        W 7118   8.693  29.983  14.403
41859W        W 7119   7.376  30.014  12.958
41860W        W 7120   1.856  28.237   2.562
41861W        W 7121  11.692   0.994   3.656
41862W        W 7122  35.907   3.498   2.150
41863W        W 7123   7.975   6.894  11.088
41864W        W 7124  32.652  10.705  12.414
41865W        W 7125  30.437  27.691   3.198
41866W        W 7126  33.486   8.310   4.775
41867W        W 7127  22.347  28.187  13.027
41868W        W 7128  44.866  16.772  12.909
41869W        W 7129  36.363  24.075  10.637
41870W        W 7130   2.284   3.664   1.818
41871W        W 7131   7.333  14.626  10.975
41872W        W 7132  40.860  25.674  12.079
41873W        W 7133  18.801  12.812  14.491
41874W        W 7134   5.688  44.554   2.008
41875W        W 7135  19.549   2.849  12.296
41876W        W 7136   7.377  34.522  12.540
41877W        W 7137   6.161  16.382   3.308
41878W        W 7138  20.634   7.313  12.336
41879W        W 7139   6.352  18.524   4.115
41880W        W 7140   0.959   6.197   2.739
41881W        W 7141  14.918  24.561   1.814
41882W        W 7142  32.910  40.978  14.561
41883W        W 7143  35.571  33.927  13.262
41884W        W 7144  32.521  21.666   1.054
41885W        W 7145  15.678  38.025   1.676
41886W        W 7146  37.526  27.727  14.005
41887W        W 7147  17.512  18.571   2.802
41888W        W 7148  20.015  44.987   3.807
41889W        W 7149  30.773   5.034  10.242
41890W        W 7150  43.852  35.073   4.643
41891W        W 7151  25.282  24.057   1.525
41892W        W 7152  10.121  26.180  12.981
41893W        W 7153  33.541  18.697  10.537
41894W        W 7154  31.588  13.340  13.123
41895W        W 7155  42.175   4.450  11.517
41896W        W 7156  27.640  16.613   0.489
41897W        W 7157  13.837  21.568   0.303
41898W        W 7158  23.396  42.953  12.400
41899W        W 7159  13.711  11.340  12.511
41900W        W 7160   7.284   6.086   3.738
41901W        W 7161   2.484   2.187  10.620
41902W        W 7162  41.916  13.694   4.497
41903W        W 7163  29.725  29.543  11.114
41904W        W 7164   0.329   4.883  12.273
41905W        W 7165   7.188  24.477   2.028
41906W        W 7166  27.072  17.559   9.767
41907W        W 7167  19.990  11.419  11.539
41908W        W 7168  35.293  36.489   3.192
41909W        W 7169  35.766  39.020   4.117
41910W        W 7170  42.012  23.891  10.704
41911W        W 7171  28.480  22.574  11.202
41912W        W 7172  39.294  19.939   0.316
41913W        W 7173   0.743   7.285  10.724
41914W        W 7174  20.295  31.755   3.085
41915W        W 7175  26.094  34.023  11.197
41916W        W 7176  19.376  15.125  13.308
41917W        W 7177  19.186  35.994   0.386
41918W        W 7178  17.056   8.446   0.787
41919W        W 7179   9.932  20.590  12.422
41920W        W 7180  24.852  39.211  13.439
41921W        W 7181  19.676  15.300   0.167
41922W        W 7182  11.196  25.237   3.269
41923W        W 7183  34.861  13.130  13.990
41924W        W 7184  31.883  34.648  14.893
41925W        W 7185  17.216   8.697   1.242
41926W        W 7186  11.742  15.409  11.921
41927W        W 7187  39.681  39.252  12.899
41928W        W 7188  25.748  34.951   0.550
41929W        W 7189  17.885  41.290  12.764
41930W        W 7190   2.152  12.821  13.235
41931W        W 7191  17.591  12.048   4.363
41932W        W 7192  30.542  27.707  12.543
41933W        W 7193  28.097  13.740   4.407
41934W        W 7194  30.122  30.362  13.922
41935W        W 7195  26.983  27.118  12.498
41936W        W 7196   4.159  15.807  10.800
41937W        W 7197  19.846  23.662  10.689
41938W        W 7198  27.604   7.211  10.527
41939W        W 7199  43.331  32.974   4.439
41940W        W 7200  23.170  25.667   2.301
41941W        W 7201  22.564  22.568   3.316
41942W        W 7202  16.996   4.958  12.325
41943W        W 7203  11.406  32.390  10.998
41944W        W 7204   0.387  12.166  14.877
41945W        W 7205  42.274  30.180  14.477
41946W        W 7206  22.051  24.918  11.637
41947W        W 7207  18.704  40.322   3.639
41948W        W 7208  26.419  39.037  13.618
41949W        W 7209  11.217  21.216  14.332
41950W        W 7210  14.555  12.255  13.986
41951W        W 7211  42.382  26.435   0.897
41952W        W 7212  29.557  14.819   1.862
41953W        W 7213   3.827  18.300   0.291
41954W        W 7214  35.353  26.150   2.153
41955W        W 7215   7.389   1.427   2.310
41956W        W 7216  41.407  15.723  10.316
41957W        W 7217  34.123  34.475   3.094
41958W        W 7218  13.989  38.654   2.834
41959W        W 7219   1.237   3.481  12.540
41960W        W 7220  34.864  16.306   0.721
41961W        W 7221  15.238  34.871  13.389
41962W        W 7222  11.684  25.721   0.332
41963W        W 7223  42.966  43.791  13.861
41964W        W 7224   7.127   7.736  13.952
41965W        W 7225  32.606  34.034  12.017
41966W        W 7226  34.924  43.965   4.000
41967W        W 7227  37.299  34.019   4.589
41968W        W 7228  13.173   0.418  13.759
41969W        W 7229  29.463  34.484   4.676
41970W        W 7230  29.910  11.557   3.633
41971W        W 7231  31.065  16.422   0.462
41972W        W 7232  18.252  39.063  10.687
41973W        W 7233  23.001  37.381  14.928
41974W        W 7234  36.310  34.474  14.980
41975W        W 7235  20.893  20.285  14.296
41976W        W 7236  20.656  19.123   2.376
41977W        W 7237  32.094   3.168  13.916
41978W        W 7238   1.429  12.381  14.380
41979W        W 7239  32.708   9.310   0.242
41980W        W 7240  38.443  31.396   1.384
41981W        W 7241   8.903  11.647  11.516
41982W        W 7242  39.486  36.280   3.291
41983W        W 7243   1.811   9.723   1.860
41984W        W 7244  22.985  37.766   0.510
41985W        W 7245   7.145   1.861  11.701
41986W        W 7246  39.453  30.264   2.793
41987W        W 7247  24.903  36.689  11.492
41988W        W 7248   9.449   1.396  12.016
41989W        W 7249  40.084  35.037   3.157
41990W        W 7250   2.534  21.613  11.897
41991W        W 7251  17.507  35.617   1.962
41992W        W 7252   1.256  14.331   2.824
41993W        W 7253  20.473  13.134   1.373
41994W        W 7254  31.065  35.020   0.422
41995W        W 7255  26.103   8.793  10.650
41996W        W 7256  42.541  38.451   1.851
41997W        W 7257  24.463  36.557  13.551
41998W        W 7258  24.831   3.101   3.632
41999W        W 7259   0.845  19.729   1.869
42000W        W 7260  39.216  19.633  10.995
42001W        W 7261  10.267  12.567  13.044
42002W        W 7262  32.699  33.477  11.679
42003W        W 7263  35.922  40.592   1.882
42004W        W 7264  38.274  12.716   4.517
42005W        W 7265  38.972  23.221   1.849
42006W        W 7266  42.104   7.016   4.489
42007W        W 7267  24.148  15.393  11.889
42008W        W 7268  17.567   7.874  10.544
42009W        W 7269  23.655  14.787  12.471
42010W        W 7270  39.934   2.827   0.258
42011W        W 7271  23.072  27.265  11.629
42012W        W 7272  23.033  22.075  10.509
42013W        W 7273  16.253  20.625  14.233
42014W        W 7274   3.372   3.249  13.568
42015W        W 7275   1.911  42.328  12.137
42016W        W 7276   4.194  19.342   3.313
42017W        W 7277  29.582  44.448  12.426
42018W        W 7278  30.007   3.193   0.413
42019W        W 7279  14.828  30.129   2.302
42020W        W 7280  37.222  12.843  10.464
42021W        W 7281   1.009  43.843   0.256
42022W        W 7282  13.166  28.416  13.370
42023W        W 7283  41.018  21.103  11.032
42024W        W 7284   5.387  15.279   1.585
42025W        W 7285  21.102  16.378  14.512
42026W        W 7286  12.060  23.239  12.536
42027W        W 7287  44.670  18.636   3.203
42028W        W 7288  31.230  28.579  12.965
42029W        W 7289   8.191  25.299   1.726
42030W        W 7290   3.743  19.741  13.391
42031W        W 7291  35.392  27.102   4.288
42032W        W 7292  35.989  18.463   5.045
42033W        W 7293   2.482   8.834  10.571
42034W        W 7294  24.977  32.559   1.320
42035W        W 7295  36.952  33.652  12.614
42036W        W 7296  34.064   7.205  13.032
42037W        W 7297  21.549   8.703  13.328
42038W        W 7298  13.022   7.150  14.295
42039W        W 7299  44.292  17.731   2.721
42040W        W 7300  34.657   2.914   3.682
42041W        W 7301  38.268  25.050  11.375
42042W        W 7302  40.719  42.942  10.400
42043W        W 7303  27.068  12.343   1.880
42044W        W 7304  11.258  10.675   2.802
42045W        W 7305  28.397  20.192   0.186
42046W        W 7306  42.870  43.975   2.682
42047W        W 7307   1.079  11.777   0.198
42048W        W 7308  43.356  34.820  14.356
42049W        W 7309  22.940  36.000  12.959
42050W        W 7310  28.583   4.831  11.512
42051W        W 7311  24.941  35.542   3.554
42052W        W 7312  34.893   1.520   4.776
42053W        W 7313   8.755  19.201  14.293
42054W        W 7314  36.883  43.792  13.497
42055W        W 7315  14.869   9.465   1.709
42056W        W 7316  12.673  31.612  12.987
42057W        W 7317   8.612  14.018   4.420
42058W        W 7318  35.767  34.092   3.614
42059W        W 7319  23.089  22.317   4.073
42060W        W 7320  39.240  19.593   1.179
42061W        W 7321  32.723  24.083   3.999
42062W        W 7322  25.636  17.211  11.656
42063W        W 7323  18.843  13.827  12.923
42064W        W 7324  36.346  10.776  11.152
42065W        W 7325  37.915   2.938   2.968
42066W        W 7326   1.740   7.748  12.138
42067W        W 7327  21.034  41.061   3.246
42068W        W 7328  40.941  29.577  14.107
42069W        W 7329  38.451  39.914  14.112
42070W        W 7330   3.339  16.836  14.508
42071W        W 7331  35.961  41.629  14.777
42072W        W 7332   0.980  23.931   9.982
42073W        W 7333  40.655  37.536   4.930
42074W        W 7334   4.300  24.699  10.721
42075W        W 7335  31.522  43.903   3.440
42076W        W 7336  35.276   7.233   0.438
42077W        W 7337  27.630  31.013  12.776
42078W        W 7338   6.772   6.760   1.102
42079W        W 7339  18.518  26.408   3.175
42080W        W 7340  17.816  29.363   2.189
42081W        W 7341  14.569  19.741  14.822
42082W        W 7342  37.951  31.950  11.185
42083W        W 7343   0.558  30.546  12.436
42084W        W 7344  40.880  21.892  14.370
42085W        W 7345  16.564   7.788  14.457
42086W        W 7346   0.746  41.720  11.085
42087W        W 7347  34.965   0.518   0.744
42088W        W 7348   2.237  21.786   3.760
42089W        W 7349  24.110  36.735  12.821
42090W        W 7350  21.874  35.097   0.261
42091W        W 7351  40.692   0.275   5.080
42092W        W 7352   6.085  35.990  12.775
42093W        W 7353  27.591   6.669  11.993
42094W        W 7354  18.724  38.813   1.722
42095W        W 7355   3.824   1.486  10.734
42096W        W 7356  33.832  22.806  14.046
42097W        W 7357  18.848   8.902  10.234
42098W        W 7358  15.324   9.767  14.750
42099W        W 7359  15.172  10.766   0.085
42100W        W 7360  10.612  16.703   1.985
42101W        W 7361  39.498   7.594  12.917
42102W        W 7362  40.026   9.418  14.394
42103W        W 7363  28.959  22.584  14.942
42104W        W 7364  11.225  32.481   1.007
42105W        W 7365  43.242  34.582  12.957
42106W        W 7366   1.373   0.935  12.960
42107W        W 7367  10.276   9.982  12.031
42108W        W 7368  40.341  26.690   0.186
42109W        W 7369   6.743  16.673  14.509
42110W        W 7370   8.436   8.019   1.233
42111W        W 7371  23.716  34.897   4.584
42112W        W 7372  44.323  13.791   2.615
42113W        W 7373  16.081  12.509  11.529
42114W        W 7374   0.298  33.564   3.417
42115W        W 7375  20.567  12.903   3.648
42116W        W 7376  20.195  39.758   3.937
42117W        W 7377  21.508  40.709  14.256
42118W        W 7378  16.232  39.214  12.069
42119W        W 7379  14.816  40.271   0.790
42120W        W 7380   2.313  31.146   2.718
42121W        W 7381  14.852  20.075   3.800
42122W        W 7382  14.744   1.542  11.005
42123W        W 7383  32.093  22.981  10.758
42124W        W 7384   0.577   2.740   3.234
42125W        W 7385  10.183  22.977   3.155
42126W        W 7386  33.874  40.837  14.412
42127W        W 7387   2.191   2.938  14.193
42128W        W 7388   5.002   3.810  12.432
42129W        W 7389  43.818  23.703  11.220
42130W        W 7390  43.185   0.364  13.363
42131W        W 7391  16.583  29.456  11.554
42132W        W 7392  28.620  30.030  14.071
42133W        W 7393   3.186   4.866  11.474
42134W        W 7394  14.874   6.919  10.178
42135W        W 7395  40.405  14.091   2.707
42136W        W 7396  17.026  36.966  11.439
42137W        W 7397  17.921  11.744   0.892
42138W        W 7398  31.137  41.756   0.341
42139W        W 7399   8.232   9.281  12.406
42140W        W 7400  18.987  32.351  13.200
42141W        W 7401  32.340   2.414   2.281
42142W        W 7402  20.990  12.014   3.290
42143W        W 7403   6.399   4.001  12.070
42144W        W 7404  11.825   8.383   0.016
42145W        W 7405  12.021  36.413   3.901
42146W        W 7406  38.874  27.707   0.708
42147W        W 7407  15.725   5.710  13.815
42148W        W 7408  19.317  26.657  12.651
42149W        W 7409   1.625  36.969   2.536
42150W        W 7410   3.397  20.605  11.000
42151W        W 7411  41.543  40.322   3.751
42152W        W 7412   0.946  42.714   2.300
42153W        W 7413   1.902   1.455   4.674
42154W        W 7414   6.690  24.719   4.638
42155W        W 7415  41.066   3.793   0.947
42156W        W 7416   2.430  23.054   1.295
42157W        W 7417  33.995  15.666  12.836
42158W        W 7418  32.039  31.015   4.508
42159W        W 7419  16.563   6.820   2.506
42160W        W 7420   1.339   8.104   2.159
42161W        W 7421  10.233  31.919  14.841
42162W        W 7422  16.713  18.075   1.983
42163W        W 7423  39.401   4.966   2.127
42164W        W 7424  32.450  22.974  11.159
42165W        W 7425  35.537   3.838  13.254
42166W        W 7426  33.367  15.998   3.649
42167W        W 7427  27.639  39.555  14.882
42168W        W 7428  18.814  18.684  14.496
42169W        W 7429   4.146  23.651   3.231
42170W        W 7430  31.856  28.185  13.799
42171W        W 7431  32.472  22.713   4.322
42172W        W 7432  16.912  22.336   3.175
42173W        W 7433  44.045  14.656   2.731
42174W        W 7434   9.255  27.985   0.983
42175W        W 7435  44.545  26.128  12.913
42176W        W 7436  33.427  27.265   4.670
42177W        W 7437  34.861  19.631  10.724
42178W        W 7438  31.416  16.072   1.194
42179W        W 7439   9.167  24.506   2.711
42180W        W 7440  37.467  16.221   4.589
42181W        W 7441  20.789   3.191  14.901
42182W        W 7442  43.786  17.822   0.921
42183W        W 7443   2.943  27.214   3.020
42184W        W 7444   1.300   7.861   4.050
42185W        W 7445  13.280  13.585  13.156
42186W        W 7446  19.339  22.606  13.716
42187W        W 7447  16.595  37.785   1.430
42188W        W 7448   2.767  22.234  14.371
42189W        W 7449  19.360   8.615   2.184
42190W        W 7450  30.482  25.771  14.312
42191W        W 7451   1.819   9.728  10.355
42192W        W 7452   2.310   5.138  14.897
42193W        W 7453  37.239  10.819   3.736
42194W        W 7454  29.513   3.372   0.314
42195W        W 7455  31.887  41.839  11.555
42196W        W 7456  37.365  22.149   4.157
42197W        W 7457  26.562   6.578   3.737
42198W        W 7458  37.909  26.607   3.165
42199W        W 7459  32.587  11.423  11.005
42200W        W 7460  36.608  30.521  12.629
42201W        W 7461  30.059  12.028   1.256
42202W        W 7462  23.704  38.567   0.031
42203W        W 7463  20.591  36.525   0.742
42204W        W 7464   6.968  25.193  11.617
42205W        W 7465   7.302  33.360   0.354
42206W        W 7466   3.843  22.149  11.964
42207W        W 7467   7.456  40.863   1.756
42208W        W 7468  10.639  40.177   1.289
42209W        W 7469  26.561  31.641   3.191
42210W        W 7470  21.963  21.502  12.260
42211W        W 7471  38.492  25.473   1.778
42212W        W 7472  41.451  41.960  14.774
42213W        W 7473  15.603  16.272   4.653
42214W        W 7474  11.395  35.935  14.872
42215W        W 7475  37.477  17.258  10.975
42216W        W 7476  13.322   8.197   0.842
42217W        W 7477  22.969   3.257   0.499
42218W        W 7478  26.651  18.197   1.594
42219W        W 7479  27.286  16.046   3.348
42220W        W 7480  32.399   9.480   3.490
42221W        W 7481  26.966  37.976  11.669
42222W        W 7482  39.998   5.172  12.916
42223W        W 7483  19.991  34.647  13.481
42224W        W 7484   9.493  33.087   1.088
42225W        W 7485  39.999  44.795   4.489
42226W        W 7486   8.577  41.899   1.407
42227W        W 7487  44.946  43.846  12.894
42228W        W 7488  34.856  36.231  11.521
42229W        W 7489  36.360  36.040  10.258
42230W        W 7490   4.898  26.291  13.923
42231W        W 7491  32.702  18.545  11.657
42232W        W 7492  37.926  36.599  14.417
42233W        W 7493   6.355  34.562  12.947
42234W        W 7494  22.556  12.758  10.241
42235W        W 7495  12.944  25.478  14.934
42236W        W 7496  30.989  22.078  14.687
42237W        W 7497  22.034  19.243   3.506
42238W        W 7498  44.717  12.277  12.057
42239W        W 7499  23.541   1.439   4.509
42240W        W 7500  29.080   3.406   1.299
42241W        W 7501   5.717  24.460  10.655
42242W        W 7502  26.637  12.656  11.563
42243W        W 7503  23.747  14.227   0.940
42244W        W 7504  26.342  35.316  14.829
42245W        W 7505  41.642  36.716   2.909
42246W        W 7506  29.009  16.556  10.553
42247W        W 7507   4.728  25.830  13.850
42248W        W 7508  26.720   6.864  11.374
42249W        W 7509  21.526   2.508  12.970
42250W        W 7510  27.390  42.432  13.106
42251W        W 7511   4.473  21.214   4.459
42252W        W 7512  12.308  32.026  12.071
42253W        W 7513   5.777  15.124   3.097
42254W        W 7514  30.448   9.657  13.013
42255W        W 7515  16.705  23.365  14.434
42256W        W 7516   5.647  15.191   4.055
42257W        W 7517  42.375  30.883  12.096
42258W        W 7518  32.617  24.773  13.758
42259W        W 7519  15.825  38.417   2.337
42260W        W 7520   6.403  30.601   3.431
42261W        W 7521  34.884  26.404  12.505
42262W        W 7522  39.762  13.147  13.812
42263W        W 7523  30.827  41.545  12.552
42264W        W 7524  26.725  43.280  14.852
42265W        W 7525  11.147  30.449  10.033
42266W        W 7526  17.348   1.723  12.552
42267W        W 7527  16.545  16.255  14.757
42268W        W 7528  39.780   5.734   4.645
42269W        W 7529  24.644   5.423  10.709
42270W        W 7530  37.673  19.111  13.090
42271W        W 7531  22.668  33.358  14.068
42272W        W 7532   6.451  10.786  12.384
42273W        W 7533  10.434  31.103  10.952
42274W        W 7534  20.871  38.017  12.522
42275W        W 7535  18.625  14.673   1.751
42276W        W 7536  11.938  28.502  14.233
42277W        W 7537  44.894  29.052  10.695
42278W        W 7538  43.344  25.547   3.221
42279W        W 7539  38.080  39.523  11.004
42280W        W 7540  39.898   0.653   4.615
42281W        W 7541  24.192   0.977  10.407
42282W        W 7542  24.497  18.226   0.814
42283W        W 7543   5.267  14.854   4.307
42284W        W 7544  20.766   8.655  12.538
42285W        W 7545  17.596  20.709   0.344
42286W        W 7546  14.105  36.699  12.581
42287W        W 7547   1.848  19.197   3.569
42288W        W 7548   5.440  42.770   4.211
42289W        W 7549  21.600  29.550  13.124
42290W        W 7550  18.459  33.751  13.327
42291W        W 7551  37.375   3.002   0.431
42292W        W 7552  23.202  34.799  14.826
42293W        W 7553  40.969  24.971   3.290
42294W        W 7554  16.098  32.577  11.130
42295W        W 7555  35.152  20.516   0.975
42296W        W 7556   8.822  24.418  12.683
42297W        W 7557  24.084  16.226   2.709
42298W        W 7558   0.126  42.664  11.576
42299W        W 7559  38.352  36.525   4.104
42300W        W 7560   2.053  34.647  13.005
42301W        W 7561  42.594  34.432   0.955
42302W        W 7562  12.820  22.463   4.682
42303W        W 7563  15.477   9.105  12.977
42304W        W 7564   5.094  20.256   5.044
42305W        W 7565  31.970  11.210   4.628
42306W        W 7566   9.888  19.567  12.349
42307W        W 7567   9.206   2.817   0.261
42308W        W 7568  29.867  18.905   0.490
42309W        W 7569   6.201  31.179  14.380
42310W        W 7570  16.509  39.639  12.124
42311W        W 7571   4.495  26.398  12.877
42312W        W 7572   3.966  18.549  12.981
42313W        W 7573   8.732  10.968  12.584
42314W        W 7574  36.457  19.001   3.080
42315W        W 7575  33.063  15.031  14.048
42316W        W 7576   9.353  23.453  10.909
42317W        W 7577  22.362  42.311  12.058
42318W        W 7578  40.418   5.966   2.216
42319W        W 7579  42.504  23.681  12.486
42320W        W 7580  38.935  23.527  11.056
42321W        W 7581  23.617  27.000   0.315
42322W        W 7582  25.488   5.032   3.279
42323W        W 7583  30.083   3.426  12.978
42324W        W 7584  30.687  17.578   2.831
42325W        W 7585  22.502  15.401   4.633
42326W        W 7586  13.672  23.615  14.755
42327W        W 7587  32.600   2.532   0.731
42328W        W 7588  44.274  26.925   5.127
42329W        W 7589  20.090  37.489  14.445
42330W        W 7590  23.098   3.489  10.690
42331W        W 7591  14.187  19.758   0.225
42332W        W 7592  30.722   3.388   3.572
42333W        W 7593  28.608  18.114  10.570
42334W        W 7594  31.514  23.767   1.296
42335W        W 7595  13.724  23.965   4.661
42336W        W 7596  23.193   7.120  12.896
42337W        W 7597   9.596  18.293  13.998
42338W        W 7598  43.952   8.690   2.594
42339W        W 7599  26.517   9.343  11.200
42340W        W 7600  34.997  26.488   1.758
42341W        W 7601  34.542  21.166  13.947
42342W        W 7602  18.514  34.052  12.894
42343W        W 7603  20.560   5.827  13.961
42344W        W 7604  38.149  33.138  14.464
42345W        W 7605  12.204   8.759  13.611
42346W        W 7606  19.236  36.713   2.650
42347W        W 7607  35.516  34.578   1.276
42348W        W 7608  44.050  36.891   2.677
42349W        W 7609  38.344  13.105   3.568
42350W        W 7610   9.861   2.789  12.520
42351W        W 7611  17.294  35.523   0.527
42352W        W 7612  31.047  44.201  10.600
42353W        W 7613   6.119  18.738   0.780
42354W        W 7614   3.258   7.589  13.801
42355W        W 7615  12.559   2.677   2.165
42356W        W 7616  15.118   2.825  11.912
42357W        W 7617  22.457  27.673  12.379
42358W        W 7618  18.085   3.768   3.366
42359W        W 7619  23.479  18.853  13.022
42360W        W 7620  40.261  28.615  13.652
42361W        W 7621  15.699  26.326   0.276
42362W        W 7622  35.095  10.772  13.587
42363W        W 7623  30.048  18.080   3.575
42364W        W 7624  31.526  27.432   1.719
42365W        W 7625   0.388  22.655  14.452
42366W        W 7626  25.714  10.123  10.194
42367W        W 7627  18.362  10.450   2.655
42368W        W 7628  16.427   4.027   0.732
42369W        W 7629  26.899  24.590   0.502
42370W        W 7630  35.135  35.502   4.641
42371W        W 7631   2.067  11.094  14.093
42372W        W 7632   2.758  17.236  11.133
42373W        W 7633   2.898  37.769   0.320
42374W        W 7634  37.883   7.630   1.774
42375W        W 7635  13.363   9.331  11.656
42376W        W 7636  22.012  35.544   2.022
42377W        W 7637   6.203  13.103  11.181
42378W        W 7638  12.730  12.603   1.484
42379W        W 7639  35.591  24.913   0.374
42380W        W 7640  21.485  12.204  12.716
42381W        W 7641  18.625  17.870   3.168
42382W        W 7642  30.171  42.125  14.035
42383W        W 7643  32.170  28.566   1.257
42384W        W 7644  18.648   7.167  12.179
42385W        W 7645  12.299   2.773  14.908
42386W        W 7646   6.484  36.580  12.573
42387W        W 7647  30.135   3.752  11.724
42388W        W 7648  12.216  20.843  10.600
42389W        W 7649   8.955  39.907  14.985
42390W        W 7650  24.593   9.226  14.524
42391W        W 7651   5.435   6.414  11.153
42392W        W 7652  38.546  16.683   1.726
42393W        W 7653   2.430  15.089  13.386
42394W        W 7654  34.496  39.688   1.832
42395W        W 7655  33.844   8.652  10.773
42396W        W 7656  26.231   5.716  14.369
42397W        W 7657  30.974  10.614  11.956
42398W        W 7658   1.698  17.339  14.696
42399W        W 7659  42.669  34.086  14.397
42400W        W 7660  17.236   6.468  11.649
42401W        W 7661  40.019  36.193  12.995
42402W        W 7662  41.783  23.124   2.249
42403W        W 7663   4.399   9.805  11.285
42404W        W 7664  39.540   4.528  14.612
42405W        W 7665  10.812  38.319  12.846
42406W        W 7666  13.408  38.833  14.788
42407W        W 7667  20.694   6.824   0.739
42408W        W 7668  12.594  12.754  12.595
42409W        W 7669   5.470   2.418   2.215
42410W        W 7670  16.292  29.913  13.579
42411W        W 7671  21.810  13.061   3.716
42412W        W 7672  33.894  39.317   2.425
42413W        W 7673   0.506  18.325   1.829
42414W        W 7674  36.548  20.845  11.131
42415W        W 7675  18.854   1.897  11.448
42416W        W 7676  36.957   3.897   5.313
42417W        W 7677  30.732  39.471   3.136
42418W        W 7678  38.677  13.777   2.924
42419W        W 7679  16.247  43.284   4.739
42420W        W 7680  22.866  32.015   1.857
42421W        W 7681  16.133   0.429   2.206
42422W        W 7682   4.752   3.774   0.190
42423W        W 7683  40.818  11.681  14.541
42424W        W 7684  17.793  10.666   4.164
42425W        W 7685  35.388  42.733  10.416
42426W        W 7686  10.655  20.248  13.028
42427W        W 7687   0.297   6.879   4.582
42428W        W 7688   0.209  16.678   3.688
42429W        W 7689  23.175   1.228  14.433
42430W        W 7690  26.943  18.824  14.382
42431W        W 7691  15.389  13.154   0.965
42432W        W 7692  17.899  44.361  14.596
42433W        W 7693   3.843  39.485   0.462
42434W        W 7694  27.222  33.205  13.317
42435W        W 7695  13.928  40.947   2.261
42436W        W 7696  12.183  32.174  13.398
42437W        W 7697   8.911  19.107   4.024
42438W        W 7698   5.313  11.823  11.301
42439W        W 7699  27.534  43.446   4.621
42440W        W 7700  44.439  32.122  12.548
42441W        W 7701  42.146  19.738  11.644
42442W        W 7702  14.596   0.245   3.391
42443W        W 7703   3.292  12.873  11.774
42444W        W 7704  12.588   7.938   0.066
42445W        W 7705  35.615  35.170   0.420
42446W        W 7706  38.101  14.694  11.150
42447W        W 7707  30.888   1.911  11.564
42448W        W 7708  44.235  21.103   0.889
42449W        W 7709  38.817  36.006   0.821
42450W        W 7710   6.226   8.158   1.932
42451W        W 7711  11.909  35.794   2.326
42452W        W 7712   8.943  31.477   2.903
42453W        W 7713  26.931   5.312  10.639
42454W        W 7714  41.885   1.767  11.994
42455W        W 7715  28.022  11.082   4.250
42456W        W 7716  10.944  43.999   2.370
42457W        W 7717  16.222  35.841   0.272
42458W        W 7718  30.558  15.201  10.726
42459W        W 7719   5.037  42.734   0.590
42460W        W 7720   1.264  38.356  11.667
42461W        W 7721  17.235  12.127   1.013
42462W        W 7722  11.304  20.616  13.459
42463W        W 7723  41.053  15.771   1.730
42464W        W 7724   0.933  41.085   2.731
42465W        W 7725   4.456  12.376   1.916
42466W        W 7726  18.596  12.308   3.787
42467W        W 7727   0.236  20.555   1.953
42468W        W 7728  20.005  11.605   3.727
42469W        W 7729  34.128  33.816   2.538
42470W        W 7730   3.318   7.999  14.722
42471W        W 7731   2.033  40.747  13.143
42472W        W 7732   7.386  42.442  13.281
42473W        W 7733  20.569  32.989   1.767
42474W        W 7734  19.541  15.466  12.907
42475W        W 7735  40.958  10.084   3.775
42476W        W 7736  36.416   0.969  13.366
42477W        W 7737   7.190  19.962   2.759
42478W        W 7738   3.939   0.133   3.519
42479W        W 7739  44.021  26.401   3.067
42480W        W 7740   8.059  16.642   4.173
42481W        W 7741  21.195  15.537   1.351
42482W        W 7742  31.670  31.657   3.340
42483W        W 7743  29.504  30.801   2.259
42484W        W 7744  10.258  44.135  12.019
42485W        W 7745  12.035  30.371  10.551
42486W        W 7746  11.766  41.011   1.427
42487W        W 7747  27.448   4.804   2.698
42488W        W 7748  18.993   6.495   4.060
42489W        W 7749  36.425  44.443   3.073
42490W        W 7750  21.681  19.322   5.167
42491W        W 7751   5.480  18.168   4.224
42492W        W 7752  42.450  43.747   3.629
42493W        W 7753  32.464  27.719  11.126
42494W        W 7754  32.014  24.045   0.357
42495W        W 7755  36.051  19.470  14.877
42496W        W 7756  26.576  40.501   2.364
42497W        W 7757  42.478  11.014  12.195
42498W        W 7758  38.527  20.771   1.952
42499W        W 7759  22.110  33.127   5.475
42500W        W 7760  21.674  21.222  11.251
42501W        W 7761  20.082  42.112  14.905
42502W        W 7762  17.118  16.567  12.077
42503W        W 7763  13.349  11.392   4.620
42504W        W 7764   2.461  19.138  11.612
42505W        W 7765  37.653  39.880   1.182
42506W        W 7766  21.891   7.005   1.820
42507W        W 7767  14.855  18.635  11.037
42508W        W 7768   4.920  42.518  10.712
42509W        W 7769   9.629  39.040   0.505
42510W        W 7770  37.334  42.183   0.248
42511W        W 7771  43.297   8.179  11.147
42512W        W 7772  30.929  28.884   4.516
42513W        W 7773  43.434   5.494   3.165
42514W        W 7774   6.149  16.112   2.869
42515W        W 7775  41.212  33.629  10.687
42516W        W 7776  37.604  43.048   1.458
42517W        W 7777   9.608  17.310   1.770
42518W        W 7778  35.593  34.263  12.590
42519W        W 7779  33.835  11.138   2.753
42520W        W 7780   7.362  32.027   2.314
42521W        W 7781  24.186  31.787   3.395
42522W        W 7782  15.779   1.231  14.375
42523W        W 7783  17.104   7.422  10.651
42524W        W 7784  14.627  29.496  14.252
42525W        W 7785  24.687  18.648  11.836
42526W        W 7786   4.703   3.434   3.060
42527W        W 7787  37.697   5.295  11.638
42528W        W 7788  44.473  43.842   1.698
42529W        W 7789  27.570  41.971  12.913
42530W        W 7790  17.866  26.822   1.345
42531W        W 7791  10.808  42.767   3.672
42532W        W 7792  12.853  16.798  13.929
42533W        W 7793  24.205  17.094   5.201
42534W        W 7794  40.570  40.397   3.095
42535W        W 7795  15.746  32.154  10.271
42536W        W 7796  17.841  42.545   1.245
42537W        W 7797  24.480   2.918   3.227
42538W        W 7798  17.432  25.077  11.154
42539W        W 7799  29.930  14.363  13.784
42540W        W 7800  31.510  18.817  13.047
42541W        W 7801   1.692  39.730  11.002
42542W        W 7802  20.982  27.270  13.108
42543W        W 7803   9.348  10.249   3.307
42544W        W 7804   7.309  23.297  11.653
42545W        W 7805  27.564   4.480  14.947
42546W        W 7806  13.275  19.103  13.247
42547W        W 7807  43.575  20.893   2.287
42548W        W 7808  16.622   4.879   4.305
42549W        W 7809  11.852   8.226  10.192
42550W        W 7810  10.228  21.053  10.424
42551W        W 7811   7.925  29.253  12.909
42552W        W 7812  25.247   9.191  12.602
42553W        W 7813  30.125   9.136   0.020
42554W        W 7814  38.935  30.612  10.687
42555W        W 7815  41.531  34.975  10.669
42556W        W 7816  26.375  14.100  12.660
42557W        W 7817  15.331  37.453  10.725
42558W        W 7818  43.319  43.186   3.773
42559W        W 7819  34.661  40.249   4.206
42560W        W 7820  40.372   5.736  10.972
42561W        W 7821  27.090  43.717  13.568
42562W        W 7822  25.090  19.901   5.222
42563W        W 7823  39.964   8.447  14.217
42564W        W 7824  23.230  38.393  13.800
42565W        W 7825  21.208  18.425  11.398
42566W        W 7826   4.463  27.812  10.322
42567W        W 7827  44.679  39.307   0.349
42568W        W 7828  10.230  30.887  12.369
42569W        W 7829  19.239  26.063   2.301
42570W        W 7830  21.708  13.591   0.128
42571W        W 7831  12.070  28.985   4.701
42572W        W 7832  11.623  11.141  12.967
42573W        W 7833  31.108   7.702  11.619
42574W        W 7834  13.624  24.228  12.844
42575W        W 7835   5.102  31.413   3.765
42576W        W 7836  32.297  16.056   2.217
42577W        W 7837  34.134  44.386   0.419
42578W        W 7838   5.851  19.794   1.465
42579W        W 7839  43.094  19.753  11.635
42580W        W 7840  12.212  34.375  11.859
42581W        W 7841  10.375   7.019   0.858
42582W        W 7842  18.301  28.455   4.958
42583W        W 7843  12.726  10.751   5.084
42584W        W 7844  43.205  38.726  11.982
42585W        W 7845  10.660  29.009   1.360
42586W        W 7846  29.799  28.204   1.324
42587W        W 7847   2.003  33.990  11.074
42588W        W 7848  26.701  41.491   3.206
42589W        W 7849  33.626   5.513   1.474
42590W        W 7850  11.080  15.306  11.511
42591W        W 7851   0.457   1.283  13.979
42592W        W 7852  20.437  29.246   1.767
42593W        W 7853  35.475   8.914   3.692
42594W        W 7854  36.966   7.018   3.509
42595W        W 7855  31.064   5.328  13.941
42596W        W 7856  38.826  25.094   4.639
42597W        W 7857  18.445  14.635  13.922
42598W        W 7858   4.343  27.543   3.264
42599W        W 7859   6.249  26.354   5.415
42600W        W 7860  43.751  29.654   4.479
42601W        W 7861   4.165   6.916  12.686
42602W        W 7862  35.604  38.882  11.249
42603W        W 7863  28.763  16.234   0.961
42604W        W 7864  15.842  12.815  13.858
42605W        W 7865  30.585  26.521   1.599
42606W        W 7866  13.590  29.919   1.422
42607W        W 7867  22.152  14.123   1.731
42608W        W 7868  20.059  36.342  11.721
42609W        W 7869  32.159  32.404   3.316
42610W        W 7870  30.089  38.553   1.226
42611W        W 7871  24.931  18.668   3.803
42612W        W 7872  29.504   3.161   1.144
42613W        W 7873  25.051  22.473  11.576
42614W        W 7874   5.799  43.757   2.373
42615W        W 7875  19.629  32.499  10.740
42616W        W 7876   9.283  10.422   2.018
42617W        W 7877  30.351   7.728  11.018
42618W        W 7878  16.936   1.703   0.185
42619W        W 7879  41.527   1.246   2.698
42620W        W 7880  34.666   9.814  14.979
42621W        W 7881   0.467  44.368  11.113
42622W        W 7882   2.388  37.535  11.585
42623W        W 7883  29.422  11.953   0.253
42624W        W 7884  31.833  11.728   4.581
42625W        W 7885  30.571  19.076  12.654
42626W        W 7886   7.166  37.770  11.914
42627W        W 7887  32.511   5.310  11.887
42628W        W 7888  20.681  33.096  12.145
42629W        W 7889  32.382  21.995   2.281
42630W        W 7890  22.591  31.987   2.985
42631W        W 7891  17.795  31.809  11.323
42632W        W 7892  21.014  44.871   3.839
42633W        W 7893  30.161  18.761   0.902
42634W        W 7894  40.959  10.218   1.855
42635W        W 7895   5.764  21.171   0.712
42636W        W 7896  10.233  29.966  13.484
42637W        W 7897  17.944  40.918   2.251
42638W        W 7898  15.165   0.959   3.150
42639W        W 7899  35.375  40.209   3.101
42640W        W 7900   7.873   3.529   2.876
42641W        W 7901  29.971  11.777  13.553
42642W        W 7902  39.109  38.848   5.049
42643W        W 7903   7.124  34.809   3.188
42644W        W 7904   3.911  26.586  10.052
42645W        W 7905  38.124   5.471  13.327
42646W        W 7906  27.663  41.237  13.433
42647W        W 7907  44.293  23.822   0.313
42648W        W 7908  25.478  19.571   5.126
42649W        W 7909  38.312  28.342   0.384
42650W        W 7910   8.792  27.506  12.889
42651W        W 7911  23.452  13.889  12.608
42652W        W 7912  32.511  24.605   4.103
42653W        W 7913  40.237  26.422   0.777
42654W        W 7914  21.721  42.578   1.886
42655W        W 7915  38.165   9.808  12.501
42656W        W 7916   1.027  14.678  14.579
42657W        W 7917  21.839  15.431  13.602
42658W        W 7918   9.971   2.819  10.972
42659W        W 7919  13.025   8.278  12.001
42660W        W 7920  31.401  42.566  11.884
42661W        W 7921   7.338  20.980   4.458
42662W        W 7922   0.577  25.045   1.326
42663W        W 7923  37.728   4.695   3.314
42664W        W 7924  37.953  17.046  11.139
42665W        W 7925  39.525   5.816  13.348
42666W        W 7926   2.435  25.041   3.067
42667W        W 7927   9.099  40.979  11.134
42668W        W 7928  39.865   9.180  14.948
42669W        W 7929  12.185   9.098   4.628
42670W        W 7930   0.528   4.388  10.989
42671W        W 7931  39.321  26.786  12.064
42672W        W 7932  25.492  23.134   4.350
42673W        W 7933  33.767  18.764   4.202
42674W        W 7934  18.085  21.486  11.294
42675W        W 7935   7.090  17.881  12.580
42676W        W 7936   3.742  11.290  14.434
42677W        W 7937  31.529  12.047   1.948
42678W        W 7938  17.713   9.023   1.157
42679W        W 7939  20.354  20.784   5.074
42680W        W 7940  43.360  25.117   2.655
42681W        W 7941  24.991  16.119   5.219
42682W        W 7942  43.439  10.827   0.329
42683W        W 7943  28.805  11.281   0.545
42684W        W 7944  10.551  39.676   1.330
42685W        W 7945  18.202   5.765  10.510
42686W        W 7946  25.193  10.459  11.462
42687W        W 7947  26.175  44.679  10.617
42688W        W 7948   7.257  30.107  11.093
42689W        W 7949   4.977  22.560   0.879
42690W        W 7950  17.862  14.663   4.642
42691W        W 7951  12.667  15.576   3.193
42692W        W 7952  36.072  19.044  11.178
42693W        W 7953  23.236  38.523   2.829
42694W        W 7954  21.523  37.126  12.556
42695W        W 7955  37.310  27.052   1.767
42696W        W 7956  17.514  36.465  10.265
42697W        W 7957  22.148   7.862   2.342
42698W        W 7958  18.818  28.070   2.916
42699W        W 7959  13.762  30.189   1.027
42700W        W 7960  11.709   7.715  12.270
42701W        W 7961   5.622  30.034  11.112
42702W        W 7962  34.844  14.439  10.256
42703W        W 7963   9.185  22.064   4.673
42704W        W 7964  27.551  21.132  14.367
42705W        W 7965   7.233  41.439   5.003
42706W        W 7966  13.807  23.033   2.155
42707W        W 7967  15.556  39.031   5.090
42708W        W 7968   1.495  15.192   3.997
42709W        W 7969  43.591  10.429   9.861
42710W        W 7970  40.534  42.569   3.484
42711W        W 7971  44.384  35.560  13.899
42712W        W 7972  19.341  41.864   4.639
42713W        W 7973   3.677  16.047  14.730
42714W        W 7974   7.394   7.476   1.776
42715W        W 7975  36.707  20.646  10.691
42716W        W 7976  35.152  14.444  14.959
42717W        W 7977  42.566  18.594  14.536
42718W        W 7978   0.839  15.515   4.878
42719W        W 7979  41.785   4.720  14.473
42720W        W 7980  25.716  34.968  11.194
42721W        W 7981   2.306  14.305  14.713
42722W        W 7982  34.580  14.421  10.705
42723W        W 7983  29.956   3.649   1.781
42724W        W 7984  36.843  27.009  10.675
42725W        W 7985   3.173  31.522   2.350
42726W        W 7986  42.994  30.387  13.391
42727W        W 7987   8.520  19.288  12.415
42728W        W 7988  13.084  18.562  13.542
42729W        W 7989  37.473   7.057  11.150
42730W        W 7990  42.350  18.618   4.309
42731W        W 7991  35.512  14.651  13.135
42732W        W 7992  44.304  33.432   2.375
42733W        W 7993   1.541  32.487  12.564
42734W        W 7994   3.841  39.055   2.761
42735W        W 7995   4.858  11.333   0.712
42736W        W 7996  36.512  16.833   2.253
42737W        W 7997  19.696   8.716   0.383
42738W        W 7998   0.930  20.656   2.595
42739W        W 7999  27.185  25.664   3.672
42740W        W 8000   1.753  29.517   3.907
42741W        W 8001  12.547  25.017  10.969
42742W        W 8002  44.246  35.528   2.759
42743W        W 8003  27.051  28.902  10.540
42744W        W 8004  25.540   4.375  10.254
42745W        W 8005  15.391  17.425   3.966
42746W        W 8006   6.845  22.719  14.702
42747W        W 8007  10.386  37.675  13.223
42748W        W 8008  20.529  14.892   1.248
42749W        W 8009   8.731   3.219   2.263
42750W        W 8010  41.834  42.322   2.020
42751W        W 8011  22.204  30.930  13.022
42752W        W 8012  28.669  43.999   2.484
42753W        W 8013  32.109  40.266  12.468
42754W        W 8014   4.358  26.771   0.393
42755W        W 8015  44.280  10.335  12.936
42756W        W 8016  23.794   5.499   9.835
42757W        W 8017   7.958  14.665  10.706
42758W        W 8018  26.480  13.183   0.977
42759W        W 8019  19.125  38.170  12.859
42760W        W 8020  20.302  18.109   1.157
42761W        W 8021  20.490  13.137   4.150
42762W        W 8022  44.977  19.217   2.421
42763W        W 8023  28.852  21.694   3.299
42764W        W 8024  40.127  43.396  14.968
42765W        W 8025  42.072  24.605   0.219
42766W        W 8026  26.061  42.290  12.577
42767W        W 8027  36.541  42.330  12.332
42768W        W 8028  10.898  11.435   3.697
42769W        W 8029  33.347  29.564   1.165
42770W        W 8030  23.732   9.428  14.032
42771W        W 8031  44.250   0.794   0.768
42772W        W 8032  15.248  17.793  13.463
42773W        W 8033   7.639  15.539  12.421
42774W        W 8034  22.095   3.326   5.041
42775W        W 8035  27.466  43.075   3.211
42776W        W 8036   9.144   1.298  13.397
42777W        W 8037  10.831  29.697   4.664
42778W        W 8038  20.747  11.706   0.670
42779W        W 8039  23.718  38.063   4.150
42780W        W 8040  11.270  12.628   2.810
42781W        W 8041  26.067  41.096   1.765
42782W        W 8042  44.567  10.428  12.492
42783W        W 8043  14.590  13.906   4.203
42784W        W 8044   5.194  35.227   4.317
42785W        W 8045  40.478   2.469   4.631
42786W        W 8046  18.271  36.423  13.944
42787W        W 8047  42.517  10.816   2.420
42788W        W 8048  35.396  35.378   1.878
42789W        W 8049  36.637  15.535   1.266
42790W        W 8050  29.765  39.387  14.286
42791W        W 8051  34.550  12.697  12.337
42792W        W 8052   8.439  14.158   2.230
42793W        W 8053  13.553  16.184  11.682
42794W        W 8054  38.308  44.065  11.651
42795W        W 8055  16.516  40.985   2.687
42796W        W 8056  26.113  34.057   2.855
42797W        W 8057  39.104   2.510  14.104
42798W        W 8058  15.388  30.078   1.041
42799W        W 8059  30.130  17.606   3.733
42800W        W 8060  13.401   5.260  12.856
42801W        W 8061   1.310  10.847   2.676
42802W        W 8062  15.673  30.560  12.807
42803W        W 8063  27.118  32.270  13.483
42804W        W 8064  10.191  23.064   0.309
42805W        W 8065  13.664   2.816   1.305
42806W        W 8066  33.809  31.638  12.836
42807W        W 8067  35.410   5.422  13.251
42808W        W 8068  35.369   1.449   2.564
42809W        W 8069  14.743  34.446  14.514
42810W        W 8070  34.110  26.704  14.159
42811W        W 8071  44.307  20.730   3.651
42812W        W 8072  11.194  11.109  11.024
42813W        W 8073  38.869  36.385   4.057
42814W        W 8074  35.989  25.518   4.634
42815W        W 8075  26.889  16.407  12.849
42816W        W 8076   7.609   6.852  11.486
42817W        W 8077  21.676  28.214   2.662
42818W        W 8078   6.657  38.055   3.682
42819W        W 8079   4.235  34.517   2.815
42820W        W 8080  29.466  41.310  13.973
42821W        W 8081   3.318  10.912  14.563
42822W        W 8082  36.526  21.073   0.882
42823W        W 8083  27.706  10.662   3.716
42824W        W 8084   9.831  16.321   4.051
42825W        W 8085  27.546  19.185  12.646
42826W        W 8086  42.069  14.207  10.767
42827W        W 8087  44.755  39.374   2.712
42828W        W 8088  40.794  32.079  14.367
42829W        W 8089   6.866  43.471  12.437
42830W        W 8090   1.987   5.728  10.686
42831W        W 8091  26.143  18.228   1.624
42832W        W 8092  35.127  11.793   1.323
42833W        W 8093  10.630  11.774   1.392
42834W        W 8094  40.034   6.048   1.886
42835W        W 8095  15.802  18.514  14.287
42836W        W 8096  41.618  20.675   2.193
42837W        W 8097  43.541  29.632  11.706
42838W        W 8098  21.905   8.861   4.472
42839W        W 8099  19.881  38.594   4.595
42840W        W 8100  19.329   5.241   1.699
42841W        W 8101  10.648  34.896   4.222
42842W        W 8102  11.211  28.559  14.939
42843W        W 8103  42.887  18.284   4.645
42844W        W 8104  34.852   3.417   1.609
42845W        W 8105  17.913  39.531  12.801
42846W        W 8106  34.114  20.115   1.133
42847W        W 8107  37.432  10.737  13.820
42848W        W 8108  24.458  10.363   1.697
42849W        W 8109  26.504  26.609  10.498
42850W        W 8110  34.502   5.397   3.638
42851W        W 8111  44.217  32.508   2.375
42852W        W 8112   0.969  38.848  13.078
42853W        W 8113  30.488  37.986  13.859
42854W        W 8114  40.820   7.212  12.530
42855W        W 8115  21.280  17.507  13.968
42856W        W 8116  13.511  39.740   4.109
42857W        W 8117  14.625  17.517   0.971
42858W        W 8118  43.892   4.379   4.916
42859W        W 8119  36.919   5.937   3.313
42860W        W 8120  21.707  24.587  13.795
42861W        W 8121  23.489  39.615  12.494
42862W        W 8122   4.376  41.816  14.881
42863W        W 8123   2.323  21.622   1.633
42864W        W 8124   8.662  11.340   2.792
42865W        W 8125  20.288   7.119  11.988
42866W        W 8126  16.569  42.448  12.763
42867W        W 8127  32.855  35.099  14.196
42868W        W 8128  30.027  22.237   4.605
42869W        W 8129  26.630  23.540  13.069
42870W        W 8130  38.235  39.408  14.855
42871W        W 8131  33.738  20.503   3.218
42872W        W 8132   7.713  16.224   4.224
42873W        W 8133   0.988   5.348   0.458
42874W        W 8134  18.293  18.794   2.392
42875W        W 8135  23.380  32.488  14.472
42876W        W 8136  21.753  35.521  12.673
42877W        W 8137   2.050  44.450  11.989
42878W        W 8138  11.221  34.135   4.043
42879W        W 8139   1.165  25.685  13.918
42880W        W 8140  27.445  35.672  14.179
42881W        W 8141  43.760  29.994   1.605
42882W        W 8142  37.095  30.231  11.996
42883W        W 8143  10.248  41.782   1.698
42884W        W 8144  35.875  30.614   3.592
42885W        W 8145  34.626   6.653  12.146
42886W        W 8146  33.177  32.609  13.871
42887W        W 8147  15.537  19.788  11.433
42888W        W 8148  10.032   2.200  13.821
42889W        W 8149   6.899  23.619  12.997
42890W        W 8150  31.320   8.283  12.676
42891W        W 8151  28.707  41.449  10.908
42892W        W 8152  13.623  30.925  14.402
42893W        W 8153  31.497   2.991   0.747
42894W        W 8154  40.485  32.781   0.627
42895W        W 8155  35.962  36.393  10.998
42896W        W 8156   6.170  12.100  10.967
42897W        W 8157  34.395  34.146   2.821
42898W        W 8158  38.998  18.284   0.341
42899W        W 8159  43.508  35.072   0.700
42900W        W 8160  13.875  27.937   4.196
42901W        W 8161   7.133  21.754  10.719
42902W        W 8162  15.221   5.566   4.265
42903W        W 8163  24.247  30.936   0.291
42904W        W 8164  39.046  37.941  14.293
42905W        W 8165  27.790  35.584   5.317
42906W        W 8166   4.394  34.306  12.390
42907W        W 8167  13.239  11.106  14.574
42908W        W 8168  20.277  14.113   1.555
42909W        W 8169  20.518  33.698   0.368
42910W        W 8170  19.756   9.639   3.636
42911W        W 8171  24.971  18.105   2.433
42912W        W 8172  14.240  39.203  14.499
42913W        W 8173  40.564   1.703   4.179
42914W        W 8174  43.693  32.050   0.484
42915W        W 8175  19.595   8.807  14.881
42916W        W 8176   5.756  42.013   3.691
42917W        W 8177  16.559  15.566   1.749
42918W        W 8178  13.375  43.418  14.888
42919W        W 8179  31.648   0.474   4.378
42920W        W 8180   3.748  15.694   3.067
42921W        W 8181  29.699  24.076  10.837
42922W        W 8182   1.866  10.773  10.289
42923W        W 8183   3.865  15.824  14.228
42924W        W 8184  36.889   0.981   1.634
42925W        W 8185  32.978  40.779   2.679
42926W        W 8186  16.207  34.788  10.731
42927W        W 8187   6.191  15.443   2.407
42928W        W 8188  25.745  37.001  13.258
42929W        W 8189  37.643  10.751   0.783
42930W        W 8190  20.001  21.823   3.717
42931W        W 8191   6.546  28.955   2.714
42932W        W 8192   5.393  23.794   9.715
42933W        W 8193  39.420  39.893  10.936
42934W        W 8194  30.245  17.353  12.849
42935W        W 8195   6.918  44.718   4.107
42936W        W 8196  25.559  24.138   0.296
42937W        W 8197  20.719  28.893  10.920
42938W        W 8198  18.727  10.153  12.047
42939W        W 8199  33.845  26.706   9.892
42940W        W 8200  14.308  28.951  13.091
42941W        W 8201  25.923   6.045   2.685
42942W        W 8202  21.211   0.299   1.173
42943W        W 8203  28.547  31.015  13.851
42944W        W 8204  20.708  41.811  13.717
42945W        W 8205  11.100  11.799   1.180
42946W        W 8206  18.658  21.749   3.760
42947W        W 8207  11.118  42.373  14.867
42948W        W 8208  24.143  19.814   1.670
42949W        W 8209   8.119   1.083   2.927
42950W        W 8210  11.970  36.305  14.015
42951W        W 8211  33.977  16.057  13.868
42952W        W 8212  20.598  21.213  11.985
42953W        W 8213  28.543  17.468  11.117
42954W        W 8214  13.131  10.719   5.796
42955W        W 8215  41.240  23.525  11.222
42956W        W 8216  24.342  27.453  14.394
42957W        W 8217  35.949   4.908   0.726
42958W        W 8218  13.557  35.072  12.881
42959W        W 8219   5.197  37.565  11.096
42960W        W 8220  18.633  35.399   4.534
42961W        W 8221   3.938   9.763  13.555
42962W        W 8222  44.880  21.513  14.180
42963W        W 8223   9.651  26.401   3.379
42964W        W 8224  42.792  17.311   0.162
42965W        W 8225  33.511  17.569   3.231
42966W        W 8226  43.912   4.244   0.499
42967W        W 8227   7.212   5.833   4.225
42968W        W 8228  27.472  41.045  14.952
42969W        W 8229  37.835   0.235  13.652
42970W        W 8230  38.961  13.735  11.545
42971W        W 8231  18.930  41.769   1.780
42972W        W 8232  22.480  24.532  13.406
42973W        W 8233  38.566  40.801  14.028
42974W        W 8234   5.080  15.671  10.436
42975W        W 8235  12.162  14.189   1.808
42976W        W 8236  18.671   4.386  14.896
42977W        W 8237   0.231  14.383  13.816
42978W        W 8238  40.829   7.521  13.933
42979W        W 8239  21.348  23.923   3.210
42980W        W 8240  24.606  32.426   4.884
42981W        W 8241  15.209   4.913   1.435
42982W        W 8242  11.795  43.844   1.842
42983W        W 8243  12.350  28.722  14.471
42984W        W 8244  19.733  39.757  14.491
42985W        W 8245   5.751  40.994  11.822
42986W        W 8246  25.471  36.568   9.825
42987W        W 8247  21.696  19.876  12.979
42988W        W 8248  25.762  43.851   4.153
42989W        W 8249  12.077  15.667  13.364
42990W        W 8250  21.066  29.109   0.918
42991W        W 8251   6.128  11.924  13.004
42992W        W 8252  11.801  12.836  13.516
42993W        W 8253  36.881  27.923  10.638
42994W        W 8254  21.709  23.220   0.625
42995W        W 8255  21.288  18.669   9.649
42996W        W 8256  29.187  21.714   1.008
42997W        W 8257  22.106   1.462   2.188
42998W        W 8258  24.279  18.668   0.259
42999W        W 8259  41.025   5.618   1.032
43000W        W 8260  36.861   2.845   3.669
43001W        W 8261  10.793  21.928   0.022
43002W        W 8262  22.008  33.339  11.165
43003W        W 8263  23.275  44.360   2.675
43004W        W 8264  39.032  40.853   0.858
43005W        W 8265   8.446  13.195   1.848
43006W        W 8266  23.401  25.953   1.914
43007W        W 8267  15.418   0.288   2.803
43008W        W 8268   2.284  29.992  13.692
43009W        W 8269  28.265   9.583  13.792
43010W        W 8270   0.292  44.995  11.595
43011W        W 8271  28.568  23.490   0.247
43012W        W 8272  22.672   8.907  11.543
43013W        W 8273  26.941  25.132  11.110
43014W        W 8274  36.958  23.783   4.664
43015W        W 8275  23.730   5.241  14.871
43016W        W 8276  22.301   8.145   1.293
43017W        W 8277  20.692  13.783   3.273
43018W        W 8278  10.843  33.803   0.792
43019W        W 8279   8.002  43.771  11.923
43020W        W 8280  26.337  10.378   2.842
43021W        W 8281   9.889  29.429   4.727
43022W        W 8282  32.645   1.440   1.290
43023W        W 8283  25.697   7.263  13.410
43024W        W 8284  38.219   4.467  11.069
43025W        W 8285  37.692  42.615  14.379
43026W        W 8286  38.624  10.213  12.951
43027W        W 8287  36.811  26.705   0.430
43028W        W 8288  29.642  35.442   1.468
43029W        W 8289   8.187  18.266   1.386
43030W        W 8290   6.205  31.058  11.114
43031W        W 8291  31.438  15.365  11.546
43032W        W 8292   1.216  36.203   3.341
43033W        W 8293   1.239  15.752   4.640
43034W        W 8294  12.501   4.665  11.316
43035W        W 8295  14.119  30.599   4.538
43036W        W 8296   7.366  22.339   2.606
43037W        W 8297   6.840  24.631  13.280
43038W        W 8298  10.201  38.886  10.763
43039W        W 8299  25.123  34.447   3.174
43040W        W 8300  31.160  20.837   3.387
43041W        W 8301  21.988  21.518   0.753
43042W        W 8302   5.985   5.020  13.965
43043W        W 8303   7.029  41.967   3.169
43044W        W 8304  20.910  31.717  12.313
43045W        W 8305  12.854   4.141   1.411
43046W        W 8306  39.787   1.182   4.573
43047W        W 8307   4.653  22.765   5.035
43048W        W 8308  27.042  35.003  10.705
43049W        W 8309  30.949   4.893   1.156
43050W        W 8310  28.211  22.537  14.253
43051W        W 8311  12.272  15.219   0.652
43052W        W 8312  42.091  40.571  10.675
43053W        W 8313   6.102   3.006  11.093
43054W        W 8314  17.995  40.892  13.104
43055W        W 8315  36.162  34.622  14.340
43056W        W 8316  23.140   5.251  12.936
43057W        W 8317  37.373  36.105  12.512
43058W        W 8318  30.674  12.653   0.883
43059W        W 8319   9.217  22.776  12.983
43060W        W 8320  14.313   6.035   3.763
43061W        W 8321  25.003  36.112   2.215
43062W        W 8322  28.506  40.088  14.978
43063W        W 8323   2.323   4.913   3.886
43064W        W 8324  35.261  19.600  14.420
43065W        W 8325  26.950  28.391   3.310
43066W        W 8326  28.426   4.690   4.081
43067W        W 8327  21.957  29.897  14.760
43068W        W 8328  42.303  34.409  13.550
43069W        W 8329  18.232  22.079   4.024
43070W        W 8330  39.987   2.142  13.950
43071W        W 8331  37.384   3.940  12.735
43072W        W 8332   7.773  20.634   4.363
43073W        W 8333  41.726   9.748   1.929
43074W        W 8334  21.752  39.784   3.205
43075W        W 8335  44.556   1.917  11.610
43076W        W 8336  26.220  19.627  14.118
43077W        W 8337   4.450  37.958  11.470
43078W        W 8338  32.938   0.388   1.309
43079W        W 8339   3.336  14.663  11.144
43080W        W 8340  37.310  40.891   1.885
43081W        W 8341   8.034  19.497  12.344
43082W        W 8342  23.268  30.421  12.841
43083W        W 8343  36.579  21.134  11.551
43084W        W 8344  20.111  20.640  12.439
43085W        W 8345  20.173  43.246   3.762
43086W        W 8346  42.954   2.410  13.081
43087W        W 8347  22.473  33.423   0.009
43088W        W 8348  14.273   0.931   1.644
43089W        W 8349   5.211   1.464   3.207
43090W        W 8350  41.440   6.462   0.451
43091W        W 8351  41.887  13.534  11.905
43092W        W 8352   7.825  17.926  12.072
43093W        W 8353  44.416  17.559  11.966
43094W        W 8354  34.366  43.075  13.349
43095W        W 8355  12.388  38.367   3.789
43096W        W 8356  31.340   3.684   0.314
43097W        W 8357  21.740  17.374  12.913
43098W        W 8358  41.297  11.708  13.970
43099W        W 8359  24.538   8.143   0.537
43100W        W 8360   3.787  35.145   4.126
43101W        W 8361  28.520  14.215   1.038
43102W        W 8362  43.279  30.914  13.975
43103W        W 8363  44.340  17.574  14.610
43104W        W 8364  35.982  39.061  13.428
43105W        W 8365  10.066  30.367  12.348
43106W        W 8366  24.177   1.774  12.523
43107W        W 8367  21.123   7.983  11.483
43108W        W 8368  18.787  26.289  13.797
43109W        W 8369  19.635  17.636   2.301
43110W        W 8370  22.983  20.696   1.804
43111W        W 8371   2.829   0.733  12.108
43112W        W 8372   2.436  11.629   4.552
43113W        W 8373  11.919   3.199  12.499
43114W        W 8374  22.137  44.365   0.212
43115W        W 8375  24.630  43.934  14.477
43116W        W 8376   0.839  22.386  14.519
43117W        W 8377  37.626  30.434  11.973
43118W        W 8378  12.113  10.606   0.353
43119W        W 8379  34.655  44.487   2.157
43120W        W 8380  24.409  33.227  12.340
43121W        W 8381  19.058  38.016   4.704
43122W        W 8382  12.885  12.261   3.327
43123W        W 8383  19.560   7.790   3.545
43124W        W 8384   6.412  21.781  11.266
43125W        W 8385  14.881  41.173   1.265
43126W        W 8386  41.798   2.171   4.419
43127W        W 8387   3.242  21.321  11.752
43128W        W 8388  25.944   3.189   1.004
43129W        W 8389   4.314  11.336   0.476
43130W        W 8390  16.506  15.384  14.968
43131W        W 8391  34.817  33.022   2.774
43132W        W 8392  23.938  10.663  10.612
43133W        W 8393  21.877  42.252  12.955
43134W        W 8394  28.009   9.655  13.337
43135W        W 8395  37.017  14.063  11.311
43136W        W 8396  41.051  19.077  12.953
43137W        W 8397  28.308  37.015   4.075
43138W        W 8398  42.849   1.344   4.612
43139W        W 8399  34.858  33.432  13.758
43140W        W 8400  13.292  20.051   4.168
43141W        W 8401  31.318  43.985   3.888
43142W        W 8402  34.436  29.474  11.187
43143W        W 8403  18.795  19.941   0.659
43144W        W 8404   5.490  22.136  13.513
43145W        W 8405  40.312  19.283  12.047
43146W        W 8406  30.922  36.454   4.521
43147W        W 8407   7.028  23.989  14.989
43148W        W 8408  25.662  36.953   0.278
43149W        W 8409  17.543  37.077   0.616
43150W        W 8410   8.702  10.024  13.888
43151W        W 8411  29.203  37.272   4.795
43152W        W 8412  17.523  12.611  11.724
43153W        W 8413   7.335   9.377  12.405
43154W        W 8414   2.240   3.171  10.528
43155W        W 8415  20.806  22.163   2.035
43156W        W 8416  18.223  36.431   2.640
43157W        W 8417  24.302   3.327  13.730
43158W        W 8418  17.511   0.360   1.254
43159W        W 8419  44.024  34.081   1.312
43160W        W 8420  38.543  36.039   4.247
43161W        W 8421  19.549  29.097   1.675
43162W        W 8422  29.047  25.256  10.320
43163W        W 8423  35.057   3.627  14.860
43164W        W 8424  36.338  18.757   4.457
43165W        W 8425  15.592  12.770  13.426
43166W        W 8426  18.496  13.796   2.648
43167W        W 8427  10.554  27.225  14.851
43168W        W 8428  34.776  19.273   1.435
43169W        W 8429  34.554  35.040  10.586
43170W        W 8430  37.350  35.370  14.795
43171W        W 8431  27.684   2.412   4.358
43172W        W 8432   9.293   6.223   2.781
43173W        W 8433  19.227  16.068   3.683
43174W        W 8434   9.158  29.491   3.341
43175W        W 8435  25.080   0.986   0.191
43176W        W 8436  22.768   8.754  12.438
43177W        W 8437   8.227  27.131  14.243
43178W        W 8438   8.305   0.957  11.152
43179W        W 8439  34.080  21.647   2.397
43180W        W 8440  30.477  14.770   2.321
43181W        W 8441  12.167  18.380   0.228
43182W        W 8442  39.206  20.534  13.113
43183W        W 8443  25.231  44.524  13.993
43184W        W 8444  39.381   2.138  14.403
43185W        W 8445   7.207  14.796   0.272
43186W        W 8446  40.073   9.855  11.634
43187W        W 8447   9.439  37.364   4.539
43188W        W 8448   6.968   2.344   4.162
43189W        W 8449  38.474  30.036   1.721
43190W        W 8450  19.607  15.100  14.698
43191W        W 8451  12.780  34.952   0.351
43192W        W 8452  38.277  32.161  14.328
43193W        W 8453  21.191   2.997   2.168
43194W        W 8454  19.185  32.286   2.938
43195W        W 8455   7.398  19.072  13.501
43196W        W 8456   1.496  20.791  11.538
43197W        W 8457  28.734   0.323  13.273
43198W        W 8458   6.852   3.766   0.833
43199W        W 8459  29.447  44.579   4.177
43200W        W 8460  36.605   7.003  10.096
43201W        W 8461   7.762   6.625   4.107
43202W        W 8462   7.703  41.326  11.164
43203W        W 8463   0.977  16.068  14.442
43204W        W 8464  28.600  41.721   0.761
43205W        W 8465   1.506   3.389   2.391
43206W        W 8466  28.786  14.533   5.252
43207W        W 8467  15.665  23.034   4.071
43208W        W 8468  12.135  28.968   2.619
43209W        W 8469  11.898   7.608   3.544
43210W        W 8470  16.828  44.818   3.705
43211W        W 8471  25.488  41.865   4.139
43212W        W 8472  12.836  31.364   1.810
43213W        W 8473  44.888  27.988   2.420
43214W        W 8474  39.600  14.379  13.691
43215W        W 8475  44.745  24.585   2.320
43216W        W 8476  13.532  34.099   0.896
43217W        W 8477  14.494  32.411  13.051
43218W        W 8478  36.088   4.356   2.370
43219W        W 8479   8.793  41.380  12.906
43220W        W 8480  38.280  18.858  14.503
43221W        W 8481   8.700   6.618   1.390
43222W        W 8482   3.383  13.249  12.607
43223W        W 8483  16.239  35.844  10.710
43224W        W 8484  38.354  15.983  10.487
43225W        W 8485  38.804  36.533  14.808
43226W        W 8486  33.752  43.302  10.107
43227W        W 8487  42.929  22.976  12.849
43228W        W 8488  16.616   7.386   4.279
43229W        W 8489   6.939  34.617   0.256
43230W        W 8490  35.176  15.974   0.479
43231W        W 8491   5.826   4.431   2.416
43232W        W 8492  23.921  21.291  14.263
43233W        W 8493   4.384   5.922  14.875
43234W        W 8494  24.518  11.955  10.808
43235W        W 8495  40.881  18.923   3.957
43236W        W 8496   8.608   5.770   1.739
43237W        W 8497  44.742  35.002   2.970
43238W        W 8498  42.775  40.883   0.513
43239W        W 8499   3.399   3.713   4.014
43240W        W 8500  35.538   9.719   2.175
43241W        W 8501  18.356  13.996  12.988
43242W        W 8502   2.952  43.796  14.244
43243W        W 8503  43.789  10.809   1.556
43244W        W 8504   2.257  21.052   3.744
43245W        W 8505  24.134   6.377   5.368
43246W        W 8506  32.007  18.887   4.091
43247W        W 8507  19.569  17.142  13.403
43248W        W 8508   9.908  19.112   1.890
43249W        W 8509  22.318  21.776   9.633
43250W        W 8510  40.696  34.052   0.535
43251W        W 8511  27.124  31.498   0.455
43252W        W 8512  14.466  10.232   2.166
43253W        W 8513  41.682  17.379  12.062
43254W        W 8514  20.313  10.102  12.949
43255W        W 8515  15.199   9.343  14.484
43256W        W 8516  28.459  26.795  10.718
43257W        W 8517  28.982  11.223  14.349
43258W        W 8518  21.529   6.598   4.024
43259W        W 8519   8.206   8.231  13.402
43260W        W 8520  30.013  27.979   2.330
43261W        W 8521  26.850  17.682  14.943
43262W        W 8522  14.353  23.249  13.469
43263W        W 8523   1.771  25.156   2.784
43264W        W 8524  39.891   6.956  11.122
43265W        W 8525   4.676  40.110  13.822
43266W        W 8526  29.367  41.441  13.466
43267W        W 8527   6.486  29.071  10.503
43268W        W 8528  36.255  42.899  11.680
43269W        W 8529  23.565  21.844  13.906
43270W        W 8530   8.188  14.535   2.701
43271W        W 8531  34.913  36.150   2.318
43272W        W 8532  15.600  18.519  11.590
43273W        W 8533  36.625   3.787   9.991
43274W        W 8534  21.223   2.235   2.742
43275W        W 8535   5.013  44.869  11.204
43276W        W 8536   2.418  17.906   4.856
43277W        W 8537  31.640   8.646  11.078
43278W        W 8538   9.077  11.285  13.382
43279W        W 8539   2.437  33.479  10.570
43280W        W 8540  39.846  29.871  14.472
43281W        W 8541  29.378   7.727   3.722
43282W        W 8542  38.100  30.681   2.227
43283W        W 8543  32.636  31.815  11.444
43284W        W 8544  13.251   7.382   3.539
43285W        W 8545  29.099   3.851  14.702
43286W        W 8546  29.626  42.915  11.623
43287W        W 8547   5.275  42.921  14.714
43288W        W 8548  11.669  14.058   1.247
43289W        W 8549  35.351   6.211  11.997
43290W        W 8550  25.531  24.201  11.410
43291W        W 8551  31.595   2.925  14.859
43292W        W 8552  41.911  38.802  12.473
43293W        W 8553  12.672  14.025   0.899
43294W        W 8554  35.603   2.420  12.214
43295W        W 8555  42.444  26.078   4.367
43296W        W 8556  33.288  21.328   5.138
43297W        W 8557  26.341  18.022   2.536
43298W        W 8558  16.668   0.945  12.466
43299W        W 8559  15.355  14.318  13.829
43300W        W 8560  33.843   1.042  11.131
43301W        W 8561  44.173  18.002  12.068
43302W        W 8562  10.160  24.632  11.978
43303W        W 8563  41.123  38.937   2.415
43304W        W 8564  31.521   9.724   2.256
43305W        W 8565  14.321   0.444   1.883
43306W        W 8566  12.642  27.989   2.104
43307W        W 8567   9.775  37.627   0.935
43308W        W 8568  15.084  26.290  13.580
43309W        W 8569   7.698  33.453  14.996
43310W        W 8570  42.628  43.503  12.641
43311W        W 8571  31.949  25.032   0.521
43312W        W 8572  15.775  39.016  11.966
43313W        W 8573  37.075   3.320   3.689
43314W        W 8574   6.242  44.820   1.270
43315W        W 8575  36.120  30.727  14.403
43316W        W 8576  17.021  34.677  14.054
43317W        W 8577  10.247  35.842  11.079
43318W        W 8578  33.134   1.997   3.292
43319W        W 8579  43.525  18.096  14.922
43320W        W 8580  30.249   9.747  11.988
43321W        W 8581  24.137  34.894   1.335
43322W        W 8582   3.389  17.339  12.474
43323W        W 8583  11.452  29.317  13.823
43324W        W 8584  31.141  19.632  13.356
43325W        W 8585   5.169  36.416   3.597
43326W        W 8586   1.997  24.103   3.216
43327W        W 8587  11.294  31.971   0.454
43328W        W 8588  33.554   2.284   0.766
43329W        W 8589   6.409  29.057   3.680
43330W        W 8590  27.552   8.723   2.051
43331W        W 8591  35.682  14.256   0.814
43332W        W 8592  26.599  31.556   4.795
43333W        W 8593  18.623  35.027  11.578
43334W        W 8594  43.911  36.052   1.554
43335W        W 8595   2.891  40.877  14.009
43336W        W 8596  42.256  30.501  14.893
43337W        W 8597   3.722   4.904  11.564
43338W        W 8598  39.271  40.132   2.868
43339W        W 8599   0.594   4.229  13.338
43340W        W 8600  29.130   3.772   4.545
43341W        W 8601  30.563  20.533   1.850
43342W        W 8602  17.751  34.135   1.743
43343W        W 8603  43.827  30.024   3.631
43344W        W 8604  39.900  38.482  13.561
43345W        W 8605  28.108   1.519  14.903
43346W        W 8606  37.853  33.129  12.631
43347W        W 8607  40.378  10.164  13.602
43348W        W 8608  20.271  23.151  12.697
43349W        W 8609  30.142  30.605   0.874
43350W        W 8610  30.193  39.064   1.329
43351W        W 8611  31.014  40.288   4.666
43352W        W 8612  14.616   5.391   1.953
43353W        W 8613  34.963  18.614   0.819
43354W        W 8614  36.799  13.637  13.030
43355W        W 8615  14.860  38.310  10.743
43356W        W 8616   9.702   3.281  11.141
43357W        W 8617  25.145  22.083   2.862
43358W        W 8618  13.860  24.520  12.391
43359W        W 8619  14.052  34.989   4.357
43360W        W 8620  26.714  27.606  12.431
43361W        W 8621  24.854  24.543   3.183
43362W        W 8622  34.066  17.070  11.989
43363W        W 8623  27.142  26.106   4.146
43364W        W 8624  39.529  24.852   4.158
43365W        W 8625  13.173  36.555   1.344
43366W        W 8626  18.482  23.594  12.040
43367W        W 8627  15.368  43.826  14.933
43368W        W 8628   2.952   1.485   4.908
43369W        W 8629  40.995   8.763   0.334
43370W        W 8630  44.054  38.500   3.838
43371W        W 8631  41.045  40.543   1.799
43372W        W 8632  22.236  33.465   5.101
43373W        W 8633  38.886  42.281   3.830
43374W        W 8634   2.465  21.039   2.814
43375W        W 8635  26.730  20.207  14.778
43376W        W 8636  18.684   3.129   3.700
43377W        W 8637  35.766  33.599  13.618
43378W        W 8638  26.354  15.743  11.306
43379W        W 8639  33.007  26.261  13.890
43380W        W 8640   6.706   6.774  11.267
43381W        W 8641  43.738  26.475  14.337
43382W        W 8642  10.885  27.033   0.411
43383W        W 8643  42.787  39.573  11.942
43384W        W 8644  42.062  31.951  12.442
43385W        W 8645  33.284  21.254  12.376
43386W        W 8646  17.632  43.875  12.534
43387W        W 8647  39.971  24.005  12.123
43388W        W 8648  18.853  33.311  14.199
43389W        W 8649  42.505  16.739   0.721
43390W        W 8650  39.978  37.506   0.400
43391W        W 8651  10.046  40.132  11.130
43392W        W 8652  26.319  39.352  12.565
43393W        W 8653  35.494  12.812   0.249
43394W        W 8654  42.967   5.800  10.238
43395W        W 8655  25.967  34.609  12.392
43396W        W 8656  42.096  18.653   1.717
43397W        W 8657  34.160   2.908   4.679
43398W        W 8658  17.510  12.380  10.993
43399W        W 8659  41.583   1.519  11.474
43400W        W 8660   8.516  23.857  11.164
43401W        W 8661  36.113  41.366  13.707
43402W        W 8662   2.659   8.415   2.488
43403W        W 8663   3.209  33.399   4.260
43404W        W 8664  13.743  12.226   4.226
43405W        W 8665   3.977  31.332   1.998
43406W        W 8666  20.199  26.531  13.238
43407W        W 8667  23.982  17.746   2.823
43408W        W 8668   3.284  12.347   4.505
43409W        W 8669   8.858   7.652  14.434
43410W        W 8670   4.369  26.573  13.420
43411W        W 8671  11.550  44.214  11.549
43412W        W 8672  13.405  41.018   2.208
43413W        W 8673  29.605  33.907   1.691
43414W        W 8674  30.036  19.765  14.746
43415W        W 8675  20.575  40.290   3.250
43416W        W 8676  24.915   7.808  11.886
43417W        W 8677  20.458  34.008   3.275
43418W        W 8678  29.799  44.035   4.885
43419W        W 8679   7.649  42.195  14.438
43420W        W 8680   3.197  18.132  13.043
43421W        W 8681  43.936   8.909   0.277
43422W        W 8682  23.128  28.646   1.943
43423W        W 8683  40.897   3.047   5.026
43424W        W 8684  20.843  20.273   4.691
43425W        W 8685  14.667  24.660   2.268
43426W        W 8686  11.092  39.821   2.257
43427W        W 8687   6.288  22.180   4.408
43428W        W 8688  33.751  29.611  11.875
43429W        W 8689  17.113  13.946  14.542
43430W        W 8690  36.863   2.436   1.812
43431W        W 8691  30.636  44.934  11.456
43432W        W 8692  14.329  23.628  13.828
43433W        W 8693  10.803  20.655   4.850
43434W        W 8694  33.838  15.207  11.510
43435W        W 8695  43.816  16.627  14.538
43436W        W 8696  39.413   6.792   2.740
43437W        W 8697   2.439  18.515  11.183
43438W        W 8698  23.743  15.323   0.815
43439W        W 8699  20.978  42.756  14.007
43440W        W 8700   4.347   1.725   2.242
43441W        W 8701  23.028   9.754   0.664
43442W        W 8702  25.010  44.291  14.439
43443W        W 8703  19.626  28.868   4.296
43444W        W 8704   9.784  34.319   0.880
43445W        W 8705  27.196  16.344   3.768
43446W        W 8706  30.961  39.184  10.384
43447W        W 8707  18.005  32.630  11.876
43448W        W 8708  24.441  28.896   4.069
43449W        W 8709  31.507  23.954  13.771
43450W        W 8710  35.195  31.142  11.135
43451W        W 8711  31.334  24.648   3.340
43452W        W 8712  22.418  15.091   5.063
43453W        W 8713   4.407  35.394   3.861
43454W        W 8714  36.712  17.302   3.135
43455W        W 8715  16.114   2.659  11.089
43456W        W 8716  39.689  39.851  14.942
43457W        W 8717  22.150  44.431   2.083
43458W        W 8718  17.962   6.327   1.248
43459W        W 8719  44.873  19.678  11.487
43460W        W 8720  35.766  44.751  11.483
43461W        W 8721  38.943  44.283  12.386
43462W        W 8722  30.371  39.228   1.778
43463W        W 8723  17.547  36.542   1.429
43464W        W 8724   6.636  16.629   1.203
43465W        W 8725  23.006  32.914  10.541
43466W        W 8726  30.580  11.849  12.095
43467W        W 8727  20.236  31.698  14.855
43468W        W 8728   2.791  16.518  14.493
43469W        W 8729  29.696  21.557   0.929
43470W        W 8730  28.535  25.482   4.555
43471W        W 8731  14.178  14.911  11.244
43472W        W 8732  12.917   3.812  14.525
43473W        W 8733  40.878  43.760  13.509
43474W        W 8734   6.118  32.546   4.489
43475W        W 8735  32.508  26.524   0.988
43476W        W 8736  41.901   0.806   1.468
43477W        W 8737  37.730  41.933   4.131
43478W        W 8738  24.391  14.490  13.785
43479W        W 8739  26.711  39.562   2.848
43480W        W 8740  30.349  34.892  13.951
43481W        W 8741  34.469  11.737  11.481
43482W        W 8742   1.755  44.888   2.259
43483W        W 8743  40.274  19.218  13.398
43484W        W 8744  37.520  34.847   2.757
43485W        W 8745   0.492  26.185  14.333
43486W        W 8746  22.755   8.749  11.051
43487W        W 8747   7.754  34.425  13.339
43488W        W 8748  27.723  22.270   1.840
43489W        W 8749  40.106  34.554   2.888
43490W        W 8750  16.507  17.891  13.888
43491W        W 8751  20.079  18.613  14.810
43492W        W 8752  43.973  32.005   0.918
43493W        W 8753  32.658  24.447   3.608
43494W        W 8754  34.551  29.677   4.270
43495W        W 8755  37.383   1.956   0.343
43496W        W 8756  19.585  37.358  12.028
43497W        W 8757   7.564  17.285   4.558
43498W        W 8758  26.938  20.231   4.092
43499W        W 8759  29.693  43.593  14.456
43500W        W 8760  20.026  30.409  13.456
43501W        W 8761  43.595  26.471   3.342
43502W        W 8762   5.818  23.100   4.654
43503W        W 8763  40.513  17.179  10.766
43504W        W 8764  10.210  21.279   0.902
43505W        W 8765   2.032   0.912  11.685
43506W        W 8766  43.065  16.056  11.258
43507W        W 8767  16.741  20.575   1.776
43508W        W 8768   0.616   0.431   0.066
43509W        W 8769  25.704  21.452  12.413
43510W        W 8770  43.311  27.004   4.186
43511W        W 8771  28.165  44.791   2.296
43512W        W 8772  24.507  38.002  11.681
43513W        W 8773  37.878  11.610   3.337
43514W        W 8774  41.119  25.493  13.048
43515W        W 8775  42.501  14.588  12.483
43516W        W 8776  21.404  11.864  11.563
43517W        W 8777  41.469   4.275  14.012
43518W        W 8778  41.645   2.253  14.283
43519W        W 8779   3.899   1.997   1.398
43520W        W 8780   7.952  33.618   4.102
43521W        W 8781  20.192  37.065  11.075
43522W        W 8782  36.992  20.401  13.876
43523W        W 8783  44.122  41.953  11.592
43524W        W 8784  30.515   1.993   0.830
43525W        W 8785  36.601  16.765  13.202
43526W        W 8786  31.947   9.447   3.770
43527W        W 8787  34.583   8.173  12.559
43528W        W 8788  21.441  26.648  10.742
43529W        W 8789   6.321  36.914   1.393
43530W        W 8790  33.355  20.761  14.893
43531W        W 8791  31.622  29.260   1.111
43532W        W 8792   3.836  20.970  11.181
43533W        W 8793  37.243  17.798   3.662
43534W        W 8794  13.625  24.241   0.937
43535W        W 8795  29.415   4.320  11.712
43536W        W 8796  39.224   2.678  13.561
43537W        W 8797  44.888  37.953   4.261
43538W        W 8798  34.111  18.340  13.879
43539W        W 8799  34.575   9.713  11.049
43540W        W 8800  27.275  35.923  11.467
43541W        W 8801  41.493  13.188   4.614
43542W        W 8802   3.973  43.488   0.700
43543W        W 8803   6.278  23.606  10.210
43544W        W 8804  23.748  18.210   3.084
43545W        W 8805  21.064  30.569   3.063
43546W        W 8806   8.682  41.140   4.828
43547W        W 8807  13.555  38.909   2.608
43548W        W 8808  27.203  25.718   2.683
43549W        W 8809   1.941  32.341  11.542
43550W        W 8810  17.212  21.973  10.985
43551W        W 8811  42.909   7.406  14.416
43552W        W 8812  29.584  33.577   0.724
43553W        W 8813  19.043   4.672   5.133
43554W        W 8814  24.060  36.269  12.580
43555W        W 8815  35.363  13.112   1.172
43556W        W 8816  23.287   6.187   3.568
43557W        W 8817  33.008   5.092   0.392
43558W        W 8818   2.807  42.257  12.062
43559W        W 8819  43.527  37.974  14.874
43560W        W 8820   6.204  12.910   3.283
43561W        W 8821  44.358  21.202   1.396
43562W        W 8822   0.578  41.824  13.814
43563W        W 8823  21.951  22.641  14.350
43564W        W 8824   7.811  10.483  11.231
43565W        W 8825  40.449  42.860   0.550
43566W        W 8826  38.499   3.361  13.764
43567W        W 8827  23.294  20.125  12.410
43568W        W 8828  26.730  37.941  14.888
43569W        W 8829  41.995   2.869   0.971
43570W        W 8830  10.302  19.858   2.664
43571W        W 8831  42.398   8.028   1.067
43572W        W 8832  30.863   9.085   0.516
43573W        W 8833  30.568  40.805   2.253
43574W        W 8834  12.712  32.684  12.141
43575W        W 8835  43.157   7.891  13.469
43576W        W 8836   9.147  38.765   3.309
43577W        W 8837  33.016  28.987  12.404
43578W        W 8838   8.431  43.378  14.306
43579W        W 8839  22.013  13.264  13.865
43580W        W 8840  10.206   7.191   0.395
43581W        W 8841   3.655  24.148  13.887
43582W        W 8842   7.627  27.455  12.093
43583W        W 8843  25.200  37.825  13.586
43584W        W 8844   9.151  41.290  13.917
43585W        W 8845  34.033  36.192  11.531
43586W        W 8846  15.874   4.255  13.453
43587W        W 8847  27.507   7.021  13.306
43588W        W 8848  32.665  27.104   2.610
43589W        W 8849  27.742  19.683  12.638
43590W        W 8850  23.957  34.313  11.093
43591W        W 8851  32.014  37.328   2.136
43592W        W 8852  43.424  35.057  14.816
43593W        W 8853  43.228  34.011   2.939
43594W        W 8854  23.078  24.515   0.795
43595W        W 8855  25.099  40.208  12.622
43596W        W 8856   4.274  28.506   4.196
43597W        W 8857  31.023  28.664  13.434
43598W        W 8858   9.348  42.869   2.850
43599W        W 8859  43.117  22.233   1.626
43600W        W 8860  11.813  31.967   2.687
43601W        W 8861   5.615  42.228  13.030
43602W        W 8862  37.208  17.032   0.167
43603W        W 8863   8.660  22.114   4.603
43604W        W 8864  26.041  32.337   2.378
43605W        W 8865  26.767  12.125  11.378
43606W        W 8866   4.005  13.101  14.922
43607W        W 8867  42.835  24.451   4.307
43608W        W 8868  17.727  12.619   1.320
43609W        W 8869   3.123  31.975   1.137
43610W        W 8870  29.053  33.714   2.373
43611W        W 8871  11.414  35.846   4.939
43612W        W 8872  35.462   7.922  13.568
43613W        W 8873  40.775  39.464   3.372
43614W        W 8874  36.943  31.335   0.459
43615W        W 8875  28.855   4.973   1.368
43616W        W 8876  20.536  13.639  11.970
43617W        W 8877  43.985  21.273  13.525
43618W        W 8878  13.870   7.526   5.279
43619W        W 8879   8.759   1.709  13.557
43620W        W 8880  43.238  26.052  14.438
43621W        W 8881  24.696  13.142  13.416
43622W        W 8882  37.797   6.495   3.126
43623W        W 8883  13.100   3.695   2.753
43624W        W 8884   4.450  18.117   0.925
43625W        W 8885   5.516  36.541   0.472
43626W        W 8886   2.677  13.182  11.516
43627W        W 8887   1.269   6.860   4.297
43628W        W 8888  13.795  22.677  11.868
43629W        W 8889   2.186  38.406  13.030
43630W        W 8890   8.248  42.458  13.824
43631W        W 8891  14.090  26.304  11.481
43632W        W 8892  26.545  24.278  13.849
43633W        W 8893  12.181  43.905  10.930
43634W        W 8894  23.672  30.866   3.354
43635W        W 8895  20.052   5.163   2.371
43636W        W 8896  26.216  35.492   1.297
43637W        W 8897  36.296  10.932  11.647
43638W        W 8898  21.225   0.350   2.223
43639W        W 8899  37.408  28.444   4.412
43640W        W 8900  31.205  38.861   1.361
43641W        W 8901  21.151  32.627   3.287
43642W        W 8902  36.565  17.302  11.000
43643W        W 8903  29.931  39.872  13.028
43644W        W 8904  29.200  43.442   1.615
43645W        W 8905  17.228  26.156   4.738
43646W        W 8906  30.060  38.397  11.806
43647W        W 8907  40.346  10.780  14.328
43648W        W 8908  28.408  18.740  13.314
43649W        W 8909  27.641  27.030  14.978
43650W        W 8910  24.619   4.226  12.311
43651W        W 8911  25.709  31.123  14.398
43652W        W 8912   4.906  35.311   4.836
43653W        W 8913  23.552  20.428   2.198
43654W        W 8914  32.879   9.665  12.534
43655W        W 8915  39.931  20.654   2.748
43656W        W 8916  12.352  26.039   9.941
43657W        W 8917   3.891  31.885  11.147
43658W        W 8918   7.247   8.906   2.126
43659W        W 8919  28.164  27.749   2.635
43660W        W 8920  19.576  10.579   0.247
43661W        W 8921  28.486  16.792  10.572
43662W        W 8922  10.675  29.697  13.431
43663W        W 8923   6.202  38.569   5.106
43664W        W 8924  24.624  35.799   2.406
43665W        W 8925  34.443  36.155  11.192
43666W        W 8926  16.801  21.228   1.319
43667W        W 8927  42.625  29.217   2.819
43668W        W 8928  40.968   6.864   2.269
43669W        W 8929  15.350  33.051  12.055
43670W        W 8930  43.250  21.497  12.470
43671W        W 8931  25.686  31.615   3.509
43672W        W 8932  30.586  13.169   4.567
43673W        W 8933  40.437  18.505  11.574
43674W        W 8934  38.112  32.417  11.377
43675W        W 8935   4.665  21.845  10.678
43676W        W 8936  10.930  42.953  11.524
43677W        W 8937  24.012  33.426   1.891
43678W        W 8938  32.528  42.145   0.348
43679W        W 8939  40.012  14.904   2.889
43680W        W 8940   0.588  32.004   1.789
43681W        W 8941   7.520  16.528   3.850
43682W        W 8942  34.165  31.340  14.300
43683W        W 8943  44.375  43.908  13.717
43684W        W 8944  43.917  10.545  11.248
43685W        W 8945  17.081  29.692   4.998
43686W        W 8946  10.177  21.670   0.496
43687W        W 8947   8.505   6.786   0.914
43688W        W 8948  10.260  42.819   0.013
43689W        W 8949  16.195  17.816  11.130
43690W        W 8950   4.150  34.742  11.480
43691W        W 8951  37.805  29.062   2.373
43692W        W 8952  28.904  33.932   2.832
43693W        W 8953  35.352  18.456   4.512
43694W        W 8954  20.028  43.887  14.405
43695W        W 8955   4.376  34.522  14.698
43696W        W 8956   8.825  21.058   2.349
43697W        W 8957  32.978  34.012   0.041
43698W        W 8958  15.653  29.482   5.183
43699W        W 8959  14.736  40.725   4.396
43700W        W 8960  20.674  26.357  13.950
43701W        W 8961  39.505   1.157  14.492
43702W        W 8962   5.784  14.083  10.633
43703W        W 8963  43.377   6.264   1.250
43704W        W 8964  35.323  32.679   3.776
43705W        W 8965  12.546  13.175  12.863
43706W        W 8966  30.865  14.311   3.335
43707W        W 8967  36.347   4.791   2.282
43708W        W 8968  30.798   3.262   4.544
43709W        W 8969  26.094  21.673   3.266
43710W        W 8970   7.338  18.032  11.144
43711W        W 8971   5.410  21.031  11.579
43712W        W 8972  32.112  32.330  12.145
43713W        W 8973  35.782  16.264  14.709
43714W        W 8974  32.538   2.033   3.682
43715W        W 8975  35.159   5.444   3.417
43716W        W 8976  35.525   8.669   0.378
43717W        W 8977  36.310  38.591  13.156
43718W        W 8978  21.124  23.958   2.725
43719W        W 8979  35.861  44.025  14.437
43720W        W 8980  36.822   8.768   4.402
43721W        W 8981  42.204  10.209   4.321
43722W        W 8982  26.045  38.202  11.237
43723W        W 8983  12.626  33.047   4.675
43724W        W 8984  28.413  25.629  13.364
43725W        W 8985  32.900  34.037  14.509
43726W        W 8986  27.170  38.055  10.713
43727W        W 8987   0.784  38.660  13.588
43728W        W 8988  44.086  25.622  13.430
43729W        W 8989  40.799  18.538  14.756
43730W        W 8990  40.665  31.971  10.703
43731W        W 8991   1.506  35.482  14.750
43732W        W 8992  15.500  19.696  10.475
43733W        W 8993  20.133  15.213   0.445
43734W        W 8994  25.052  25.590  12.396
43735W        W 8995  35.408  24.988   2.677
43736W        W 8996  34.134  36.070   3.216
43737W        W 8997  24.594   0.377  12.884
43738W        W 8998  12.668  15.528   0.845
43739W        W 8999  21.102  13.054  12.888
43740W        W 9000  37.005  19.891   4.349
43741W        W 9001  12.158  39.770   2.752
43742W        W 9002  17.724  43.393  14.335
43743W        W 9003  41.960  22.101  14.486
43744W        W 9004  39.347  23.286   1.348
43745W        W 9005  39.797   4.452   1.696
43746W        W 9006  24.691  42.129   0.179
43747W        W 9007   9.649  13.725  12.859
43748W        W 9008  11.719  44.714  14.768
43749W        W 9009  22.210   8.618  14.763
43750W        W 9010  21.500  19.095   3.589
43751W        W 9011  24.281  20.549  13.193
43752W        W 9012  29.427   1.378   1.294
43753W        W 9013   0.065   0.934  14.045
43754W        W 9014   2.028   0.684   1.708
43755W        W 9015   4.859  11.618  11.224
43756W        W 9016   4.062   0.696  14.250
43757W        W 9017  35.011  34.368  10.692
43758W        W 9018   7.987  26.650  14.325
43759W        W 9019   8.391  25.028  14.329
43760W        W 9020  20.592  16.654  11.295
43761W        W 9021  13.871  21.601   4.523
43762W        W 9022  31.463  17.171   0.551
43763W        W 9023  12.449   2.502   0.341
43764W        W 9024   8.300  35.385   2.028
43765W        W 9025  12.563   2.275  14.054
43766W        W 9026   3.058  31.039   2.190
43767W        W 9027  40.504  42.010  10.788
43768W        W 9028  32.001  36.940  11.210
43769W        W 9029  11.904  41.761  11.886
43770W        W 9030   4.978  15.174  10.135
43771W        W 9031  18.690  34.612   4.936
43772W        W 9032  16.487  13.494   2.972
43773W        W 9033   3.077  12.572   0.479
43774W        W 9034  15.632  12.762  12.231
43775W        W 9035  20.248  28.205   4.814
43776W        W 9036  42.738  35.868  10.394
43777W        W 9037  41.093  28.488  10.689
43778W        W 9038  11.288  26.621  11.658
43779W        W 9039  44.069  28.188   0.741
43780W        W 9040  38.760  42.366   4.682
43781W        W 9041   3.218  20.019  14.057
43782W        W 9042   4.371   7.252   3.117
43783W        W 9043  27.121   1.733   4.545
43784W        W 9044  37.355  43.001  14.721
43785W        W 9045  11.330  38.092  14.950
43786W        W 9046  22.608  34.628  14.894
43787W        W 9047  28.596  34.839  12.094
43788W        W 9048  31.882  35.931  12.522
43789W        W 9049  37.836  11.745  12.891
43790W        W 9050  23.839  13.663  12.344
43791W        W 9051  10.452  37.864  11.056
43792W        W 9052  14.923  41.090  13.792
43793W        W 9053  37.871  43.804  10.993
43794W        W 9054  44.637   6.455   3.863
43795W        W 9055  40.953   2.651  11.600
43796W        W 9056  33.507  22.266   0.807
43797W        W 9057  43.086  11.452   1.918
43798W        W 9058   7.943   4.690  11.121
43799W        W 9059  17.262  39.369  13.443
43800W        W 9060   5.823  16.805   4.509
43801W        W 9061  16.822  12.619  11.180
43802W        W 9062  11.659   6.187   4.755
43803W        W 9063  44.686  14.197  11.711
43804W        W 9064  31.729  31.498   1.949
43805W        W 9065  36.322  42.425   1.775
43806W        W 9066  42.756  31.590   0.399
43807W        W 9067  15.736  24.586   3.064
43808W        W 9068  25.187  13.578  12.235
43809W        W 9069  44.594  27.970  14.569
43810W        W 9070  15.731  35.552   1.595
43811W        W 9071  41.921  29.479   3.923
43812W        W 9072  39.909   3.954   3.106
43813W        W 9073  40.570  34.055  11.643
43814W        W 9074   7.173  41.907  12.426
43815W        W 9075  28.111  39.427   4.632
43816W        W 9076   1.831   6.409   4.731
43817W        W 9077  21.272   4.009   1.311
43818W        W 9078  34.447  32.566   0.895
43819W        W 9079  39.629  27.966  14.026
43820W        W 9080  41.972  31.444  14.745
43821W        W 9081  15.619  17.843   1.081
43822W        W 9082  11.244  33.896   3.578
43823W        W 9083   5.071  12.680   4.660
43824W        W 9084  27.708   7.554  11.908
43825W        W 9085  16.234   4.878  14.023
43826W        W 9086  31.004  35.171   4.017
43827W        W 9087  35.981  44.518  14.546
43828W        W 9088  44.896  38.097  12.029
43829W        W 9089  17.436  33.229   0.483
43830W        W 9090  37.443  29.143  12.953
43831W        W 9091   3.457  13.280  11.493
43832W        W 9092   3.535  28.784   2.758
43833W        W 9093  40.517   0.360   0.716
43834W        W 9094  25.779   5.741  10.606
43835W        W 9095  30.502  35.397  13.984
43836W        W 9096  43.815  42.558  13.406
43837W        W 9097   5.386  34.675  14.490
43838W        W 9098  41.419   7.484  14.868
43839W        W 9099  28.858   5.310  10.977
43840W        W 9100  25.630  16.337  11.858
43841W        W 9101  19.742  12.392   1.881
43842W        W 9102  41.941   0.045   2.367
43843W        W 9103  28.378  22.743  12.070
43844W        W 9104  24.101  34.584   4.836
43845W        W 9105  33.416  41.063   0.275
43846W        W 9106  25.487   8.668  12.652
43847W        W 9107  40.474  18.274   5.001
43848W        W 9108  34.909  32.080   2.720
43849W        W 9109  24.297   4.326   0.789
43850W        W 9110   0.580   9.859  14.135
43851W        W 9111  30.861  35.139   3.527
43852W        W 9112  35.226  38.755  10.324
43853W        W 9113  15.737  29.494   2.404
43854W        W 9114  30.930  35.192  14.922
43855W        W 9115  11.461  15.769  12.700
43856W        W 9116  27.012  11.834  12.992
43857W        W 9117  22.191  14.619   2.732
43858W        W 9118  42.832  36.141   4.507
43859W        W 9119  40.972   6.677   3.817
43860W        W 9120  39.691  33.341   4.024
43861W        W 9121   8.122  14.780   0.402
43862W        W 9122  31.871  17.106  13.546
43863W        W 9123  25.485  29.564   0.930
43864W        W 9124  10.511   1.350  14.069
43865W        W 9125  14.749  23.588   3.766
43866W        W 9126  15.421  27.202  10.821
43867W        W 9127   1.668   2.549   1.916
43868W        W 9128   3.811   7.174  11.953
43869W        W 9129  20.608  33.474   4.139
43870W        W 9130   1.885  36.342  13.828
43871W        W 9131  44.926  27.853   0.551
43872W        W 9132  21.322  32.303  11.037
43873W        W 9133  36.980  38.341  12.491
43874W        W 9134  26.590  36.296  11.818
43875W        W 9135   4.696   6.874  10.977
43876W        W 9136   5.754   6.140   4.954
43877W        W 9137  20.719  13.178  13.232
43878W        W 9138  44.337  14.353   5.328
43879W        W 9139  17.222  38.548   3.761
43880W        W 9140  29.119   5.721   3.766
43881W        W 9141  30.756   5.763  12.738
43882W        W 9142  38.555  22.772  10.918
43883W        W 9143  22.094  19.138   1.771
43884W        W 9144  17.232   3.411  10.753
43885W        W 9145   1.978  43.231  13.484
43886W        W 9146  41.953  36.437   4.792
43887W        W 9147  12.396  17.057  12.436
43888W        W 9148  11.270  36.341  12.589
43889W        W 9149  11.692   8.114  11.920
43890W        W 9150  40.035  44.324   0.710
43891W        W 9151   4.148  24.043   1.878
43892W        W 9152  29.586  35.452   1.998
43893W        W 9153  41.806  18.856   2.088
43894W        W 9154  42.687  35.203   0.373
43895W        W 9155  30.935  31.450  12.803
43896W        W 9156  44.025   8.282   3.462
43897W        W 9157   1.775  19.324  11.235
43898W        W 9158  17.238  22.429  13.350
43899W        W 9159   8.651  16.838  10.404
43900W        W 9160   7.508  31.739   0.779
43901W        W 9161  33.477  38.462   2.642
43902W        W 9162  30.543  36.933  14.725
43903W        W 9163  43.505  12.824   2.425
43904W        W 9164  40.549  26.433  13.719
43905W        W 9165  13.309  30.962  10.689
43906W        W 9166  26.155  21.408  12.168
43907W        W 9167  37.872   7.089  13.001
43908W        W 9168  13.166  39.664   3.218
43909W        W 9169  15.114  42.440   0.766
43910W        W 9170  25.460  12.307   3.631
43911W        W 9171  31.721  16.081  11.900
43912W        W 9172  44.033  31.542  11.585
43913W        W 9173  41.904  43.623   2.631
43914W        W 9174  29.155  38.915  14.008
43915W        W 9175  34.871  24.073  10.891
43916W        W 9176  44.914  30.634  12.762
43917W        W 9177   7.320  27.911  13.005
43918W        W 9178   6.703   4.454   3.766
43919W        W 9179   2.471  10.196  12.871
43920W        W 9180  14.729  23.342   1.321
43921W        W 9181  30.578   4.028  14.133
43922W        W 9182  33.894   5.481   2.661
43923W        W 9183  16.884  33.997  14.874
43924W        W 9184  25.941   8.521  14.252
43925W        W 9185  19.254  27.932   4.322
43926W        W 9186  29.388   5.762   2.180
43927W        W 9187   5.866  33.034   4.582
43928W        W 9188  25.429  11.864   3.878
43929W        W 9189  40.884  27.509   5.031
43930W        W 9190  28.414  25.104  12.110
43931W        W 9191  28.125  11.171   2.454
43932W        W 9192  38.647   1.272  13.476
43933W        W 9193  38.147  35.880   3.251
43934W        W 9194  20.795  26.635  11.554
43935W        W 9195  36.895   6.387   4.130
43936W        W 9196  30.109  13.765  12.952
43937W        W 9197  37.364  34.952   4.679
43938W        W 9198  24.131   8.519  10.567
43939W        W 9199  16.244  24.717   2.925
43940W        W 9200   7.008  37.396  14.805
43941W        W 9201  44.291   3.047  10.302
43942W        W 9202  25.521   7.187  11.864
43943W        W 9203   6.151  24.434  14.421
43944W        W 9204  13.679  31.976  13.859
43945W        W 9205  37.891  17.770  10.797
43946W        W 9206   3.264   2.256   2.643
43947W        W 9207  29.142  31.932  11.398
43948W        W 9208  33.855   9.586   0.006
43949W        W 9209  31.025  20.992   2.862
43950W        W 9210  42.855  32.605   0.158
43951W        W 9211  16.759  16.738  14.780
43952W        W 9212   6.989   6.398  11.021
43953W        W 9213  35.103  29.480  12.475
43954W        W 9214   4.947  43.307  11.957
43955W        W 9215  12.770  16.159  14.248
43956W        W 9216  32.090  35.910   0.861
43957W        W 9217  40.508   2.144  12.519
43958W        W 9218  39.037  18.023  11.074
43959W        W 9219  39.366  42.976  14.013
43960W        W 9220  43.153  14.646   2.197
43961W        W 9221   8.094  38.626  12.414
43962W        W 9222  42.056  13.257   1.846
43963W        W 9223  29.567  39.243   4.352
43964W        W 9224  40.971   2.371  14.895
43965W        W 9225  16.195  29.134   1.108
43966W        W 9226  16.909  20.253   3.230
43967W        W 9227  42.845   2.810  10.641
43968W        W 9228  40.905  24.966  11.119
43969W        W 9229  17.274   1.269   4.091
43970W        W 9230  28.098   2.341   1.387
43971W        W 9231  37.873   8.349  14.346
43972W        W 9232  10.544  27.707  12.615
43973W        W 9233  31.501  31.007  11.349
43974W        W 9234  19.186  20.480  13.013
43975W        W 9235   7.596  35.296   2.419
43976W        W 9236  29.889   1.349  14.412
43977W        W 9237  34.026  41.345  12.601
43978W        W 9238  36.373   9.462   4.832
43979W        W 9239  10.844  29.482  12.969
43980W        W 9240  16.671  11.367  10.644
43981W        W 9241  18.603   7.659  12.323
43982W        W 9242  27.205  17.875   2.203
43983W        W 9243  11.425   3.849   3.535
43984W        W 9244  33.512  36.764  14.886
43985W        W 9245  29.348  31.308   0.855
43986W        W 9246  23.820  29.010  12.954
43987W        W 9247  31.812  43.460  13.517
43988W        W 9248   4.367  14.589  13.897
43989W        W 9249  31.117  42.982  10.643
43990W        W 9250  35.030  22.259   1.382
43991W        W 9251  26.338   5.738   1.412
43992W        W 9252  18.683  34.647   3.856
43993W        W 9253  43.673  11.805  14.366
43994W        W 9254  26.730  24.581  13.364
43995W        W 9255   9.483  13.952   2.370
43996W        W 9256  41.702  34.831  11.674
43997W        W 9257   1.370  39.671  11.552
43998W        W 9258  14.146  21.699   1.172
43999W        W 9259  15.523  17.042   3.623
44000W        W 9260  41.616  13.796  13.573
44001W        W 9261  17.492  22.166   3.805
44002W        W 9262  23.637  13.542   0.037
44003W        W 9263   7.309  37.583   1.468
44004W        W 9264  30.983  36.100  10.711
44005W        W 9265  20.465  22.228   2.742
44006W        W 9266  27.150   4.213   2.485
44007W        W 9267  14.703  32.229  14.511
44008W        W 9268   1.668  43.812   0.914
44009W        W 9269  13.849  23.746  12.941
44010W        W 9270  24.019   8.587  14.275
44011W        W 9271   5.907  24.284   3.294
44012W        W 9272  30.055   0.244   3.787
44013W        W 9273  17.726  11.539   4.404
44014W        W 9274   0.122  32.023  11.181
44015W        W 9275  11.280  40.816   1.221
44016W        W 9276  35.379  11.339   3.952
44017W        W 9277  25.698  42.964   0.271
44018W        W 9278  29.947  31.892   1.761
44019W        W 9279   0.944  17.867  12.115
44020W        W 9280   1.442  33.144  10.906
44021W        W 9281  20.525  32.685   0.288
44022W        W 9282  16.676  40.036   0.834
44023W        W 9283  41.995  43.073   0.339
44024W        W 9284   8.877  43.626  10.716
44025W        W 9285  20.611  33.583  10.417
44026W        W 9286  16.600  16.200   2.719
44027W        W 9287  22.552  15.367  12.478
44028W        W 9288  26.785   3.625  11.874
44029W        W 9289   6.540  20.721   4.744
44030W        W 9290  17.767  44.301   2.095
44031W        W 9291  34.085  27.531  12.547
44032W        W 9292  43.497  22.075  14.414
44033W        W 9293  31.635  36.118   1.004
44034W        W 9294  20.340  40.049  12.937
44035W        W 9295  13.363  30.707  11.579
44036W        W 9296  42.520  30.623  13.418
44037W        W 9297  18.109  21.464  12.960
44038W        W 9298  14.660  20.966  13.724
44039W        W 9299   5.875  22.136   4.722
44040W        W 9300   5.574   9.676   3.171
44041W        W 9301  25.485   9.255   4.327
44042W        W 9302  30.144  43.768   1.325
44043W        W 9303  38.507  11.311   3.755
44044W        W 9304  34.112  20.455   0.734
44045W        W 9305  17.310   8.878   2.683
44046W        W 9306   5.375  11.277  10.214
44047W        W 9307   3.873  15.773   1.233
44048W        W 9308  18.363  29.405  14.687
44049W        W 9309   4.610   7.137  12.892
44050W        W 9310  20.758  43.759  11.157
44051W        W 9311  25.912  23.552  10.715
44052W        W 9312  32.557  40.079   0.025
44053W        W 9313   2.876  18.579   2.707
44054W        W 9314  20.725  41.031   2.650
44055W        W 9315  27.472  34.363   2.147
44056W        W 9316  27.639   1.400  12.607
44057W        W 9317   4.967  10.168  14.976
44058W        W 9318   2.028  28.286  11.005
44059W        W 9319  14.871  15.091  11.934
44060W        W 9320  28.667  40.444   3.236
44061W        W 9321  24.555   2.298  13.514
44062W        W 9322  13.109  31.696   4.799
44063W        W 9323  43.481  30.016  12.077
44064W        W 9324  38.729  31.960  14.213
44065W        W 9325  21.624  44.323   3.691
44066W        W 9326  26.179  27.849   0.787
44067W        W 9327  15.554   0.391  11.505
44068W        W 9328  17.823  18.662  10.255
44069W        W 9329  18.293  17.908   2.757
44070W        W 9330  18.631   7.897   2.289
44071W        W 9331  12.214  27.735   4.799
44072W        W 9332  18.748  37.792  13.954
44073W        W 9333  25.952  28.374   2.215
44074W        W 9334   6.950  14.101  12.518
44075W        W 9335  37.511  34.545  14.335
44076W        W 9336   9.902  42.629   1.224
44077W        W 9337  17.113  25.956   2.434
44078W        W 9338  30.169   9.487   2.706
44079W        W 9339  28.406  27.132  14.546
44080W        W 9340   1.845  23.944  10.497
44081W        W 9341  44.371   3.965  14.579
44082W        W 9342  19.309  19.305   1.866
44083W        W 9343  10.281   3.265  13.363
44084W        W 9344   1.233   2.413   4.752
44085W        W 9345   0.491   8.582  11.475
44086W        W 9346   1.960   2.181   0.320
44087W        W 9347  28.893  14.272  10.939
44088W        W 9348  29.674  17.645   0.587
44089W        W 9349   1.251  40.302  14.335
44090W        W 9350  42.023  25.502   1.685
44091W        W 9351  20.429  37.391   2.257
44092W        W 9352  35.385  10.134   3.084
44093W        W 9353  19.802  18.657   2.335
44094W        W 9354  26.468   8.429   3.804
44095W        W 9355  18.137  17.100  12.553
44096W        W 9356  16.102  43.632  11.508
44097W        W 9357  21.144  27.049  14.094
44098W        W 9358   0.815  15.876   0.341
44099W        W 9359   4.971  37.297   3.246
44100W        W 9360  24.499   2.803   4.199
44101W        W 9361  42.314   9.348   1.675
44102W        W 9362  18.704  36.981  11.569
44103W        W 9363  37.675  14.342   0.301
44104W        W 9364  38.481   5.926   0.967
44105W        W 9365  15.657  17.904  14.028
44106W        W 9366  14.600   6.701   1.296
44107W        W 9367   4.233   6.299   4.585
44108W        W 9368   0.462   8.864   4.938
44109W        W 9369  17.603  29.620   3.666
44110W        W 9370  38.064  37.614   1.190
44111W        W 9371  13.323  20.730  14.486
44112W        W 9372  28.745  22.586   2.765
44113W        W 9373  22.012   6.472  10.551
44114W        W 9374  10.198  37.071  14.935
44115W        W 9375  20.527   2.568  12.419
44116W        W 9376   3.863  20.316  11.898
44117W        W 9377  41.890  11.857  12.731
44118W        W 9378   8.827  12.157   1.351
44119W        W 9379  10.885  33.490   0.402
44120W        W 9380  44.836   8.241  10.853
44121W        W 9381  24.987  29.357   2.731
44122W        W 9382  15.807  30.089   4.012
44123W        W 9383  36.984  24.973  12.977
44124W        W 9384   9.122   4.804  13.283
44125W        W 9385   7.595  29.094  12.560
44126W        W 9386  14.912  29.619   2.446
44127W        W 9387  31.369   2.322  13.053
44128W        W 9388  29.478  27.294   1.416
44129W        W 9389  29.959  10.323  12.613
44130W        W 9390  22.129  43.341  12.554
44131W        W 9391   4.220  22.239   0.714
44132W        W 9392  25.527  37.410  13.494
44133W        W 9393  44.531  33.975   3.251
44134W        W 9394   8.072  42.402  12.459
44135W        W 9395  33.999   2.755  12.087
44136W        W 9396   9.484   4.828   1.739
44137W        W 9397  43.604  27.932  11.254
44138W        W 9398  40.706  28.590  13.397
44139W        W 9399  18.629   6.258  12.411
44140W        W 9400   3.231  30.129   0.823
44141W        W 9401  10.623  13.369   0.853
44142W        W 9402   5.989  17.535   0.231
44143W        W 9403  42.992  42.808  10.441
44144W        W 9404  19.769  26.473   0.266
44145W        W 9405   0.965  29.490  13.952
44146W        W 9406  14.838  23.707  11.068
44147W        W 9407  15.656  37.234   4.216
44148W        W 9408  35.468   8.916   2.705
44149W        W 9409  41.950  36.675   1.898
44150W        W 9410  34.040  23.091  14.514
44151W        W 9411  41.833   2.993  10.703
44152W        W 9412   5.113   3.731  12.986
44153W        W 9413  12.249  34.975   4.679
44154W        W 9414  43.313  22.594  10.159
44155W        W 9415  24.477   8.251   4.540
44156W        W 9416  13.414  29.477  12.469
44157W        W 9417   8.283  16.874   3.339
44158W        W 9418  37.530  44.968  11.268
44159W        W 9419   5.311  25.736   0.511
44160W        W 9420  19.293  14.686   2.412
44161W        W 9421  36.372   8.794  14.942
44162W        W 9422   4.472   9.723  12.662
44163W        W 9423  29.751  23.258   1.418
44164W        W 9424  41.543  32.332  12.938
44165W        W 9425  33.569   8.825   0.598
44166W        W 9426  37.788   5.132  12.491
44167W        W 9427  10.187   9.110   5.448
44168W        W 9428  25.115   2.777   2.036
44169W        W 9429   5.876  17.423  13.508
44170W        W 9430  21.777  21.159   0.420
44171W        W 9431  39.317  31.692  10.838
44172W        W 9432  36.971  43.195   0.310
44173W        W 9433  34.317  13.995   2.969
44174W        W 9434   6.920  44.462   3.657
44175W        W 9435  28.713  38.603   4.785
44176W        W 9436   9.419  41.422   0.724
44177W        W 9437  23.060   0.386   1.282
44178W        W 9438  33.776  21.597   3.352
44179W        W 9439  32.214  41.578  13.916
44180W        W 9440  11.539  17.751   2.792
44181W        W 9441  25.760  14.910  13.480
44182W        W 9442   7.605  16.190   4.768
44183W        W 9443  40.979   8.758   2.800
44184W        W 9444  10.737   4.330  14.238
44185W        W 9445   1.301  43.107   1.385
44186W        W 9446  16.096  21.228   4.242
44187W        W 9447   5.869  21.456  12.877
44188W        W 9448  20.530   7.885  14.745
44189W        W 9449  30.740  23.631  10.705
44190W        W 9450  37.248  17.048  12.011
44191W        W 9451  31.097   2.389  11.479
44192W        W 9452  40.229  40.924   1.486
44193W        W 9453  19.726   4.330  14.048
44194W        W 9454  21.090  37.059   1.218
44195W        W 9455  32.594   3.171  14.440
44196W        W 9456   0.410  28.514   2.949
44197W        W 9457  12.589  10.830  13.936
44198W        W 9458  23.519  17.199   0.403
44199W        W 9459  25.721   8.134  13.950
44200W        W 9460  40.958   9.680   4.152
44201W        W 9461  13.550  10.748  14.345
44202W        W 9462   1.611  28.675  13.394
44203W        W 9463  10.530  20.408  11.166
44204W        W 9464   2.795  25.422   2.436
44205W        W 9465  26.038   6.421  11.723
44206W        W 9466  20.271  38.772  11.469
44207W        W 9467  18.045  34.433   3.120
44208W        W 9468  28.559  41.555  11.859
44209W        W 9469  44.493  21.119  13.515
44210W        W 9470  44.270  11.384   1.259
44211W        W 9471  43.039  17.992   1.734
44212W        W 9472  12.642  12.225  10.399
44213W        W 9473  33.795  43.404  12.623
44214W        W 9474   9.211  37.288  11.123
44215W        W 9475   4.965   9.933   2.370
44216W        W 9476  20.122   2.240  12.441
44217W        W 9477  12.937  21.078   2.638
44218W        W 9478  14.457  24.831   1.822
44219W        W 9479  15.113  14.917  13.442
44220W        W 9480  13.191  21.639   4.006
44221W        W 9481   5.930   7.262   2.103
44222W        W 9482  34.448  26.096  13.906
44223W        W 9483  29.566  24.806  13.379
44224W        W 9484  18.077  25.238   3.287
44225W        W 9485   4.185  30.551   1.719
44226W        W 9486  26.037  16.312  13.359
44227W        W 9487  40.341  14.350  11.027
44228W        W 9488  28.236  24.269   3.227
44229W        W 9489  37.061  18.225  12.050
44230W        W 9490   6.621  43.237  12.030
44231W        W 9491   3.725  13.326  14.559
44232W        W 9492  30.608  33.826  14.243
44233W        W 9493  15.812  33.596   3.698
44234W        W 9494  13.164  22.644   3.168
44235W        W 9495  44.786  28.980   2.678
44236W        W 9496  26.683   9.702   3.235
44237W        W 9497  41.765  14.257   2.241
44238W        W 9498   6.192  38.445   4.069
44239W        W 9499  44.482  18.142  13.891
44240W        W 9500  11.343  14.361  13.118
44241W        W 9501  30.287   8.648   9.850
44242W        W 9502  28.492  32.986  11.975
44243W        W 9503  33.044  10.842  12.706
44244W        W 9504  14.530  22.156   3.953
44245W        W 9505   8.826  28.732  13.987
44246W        W 9506  40.537   2.666   5.110
44247W        W 9507   9.330  11.167  12.223
44248W        W 9508   3.180  34.353   0.763
44249W        W 9509   1.333  38.357   2.239
44250W        W 9510  29.567  38.197  13.506
44251W        W 9511  16.790  27.026   3.061
44252W        W 9512  42.149  29.842  13.532
44253W        W 9513  41.788  19.760   2.149
44254W        W 9514  17.636  24.881   4.154
44255W        W 9515   7.198  28.840   3.140
44256W        W 9516  21.208  34.435   2.363
44257W        W 9517   5.395  16.731  13.888
44258W        W 9518   6.193   5.902   3.201
44259W        W 9519  44.886  19.350  11.924
44260W        W 9520  35.422  43.832  14.641
44261W        W 9521  15.723  23.495  14.774
44262W        W 9522  29.675   0.291  14.831
44263W        W 9523  10.261   1.857  14.767
44264W        W 9524   4.061  11.105   1.829
44265W        W 9525  25.750  37.294   2.038
44266W        W 9526  22.197  12.059   2.294
44267W        W 9527  19.062   3.965  10.941
44268W        W 9528   5.186   7.263   3.964
44269W        W 9529  44.260  34.366  14.029
44270W        W 9530   0.197  40.955   4.846
44271W        W 9531   4.199  20.419  13.948
44272W        W 9532  41.262  34.945   1.379
44273W        W 9533   1.478  41.457   1.974
44274W        W 9534   3.488   8.068  13.774
44275W        W 9535  40.169  37.068   0.685
44276W        W 9536  33.992   2.741  10.620
44277W        W 9537  38.198  41.301   2.423
44278W        W 9538  19.836  36.387   3.939
44279W        W 9539  37.321  42.510  13.920
44280W        W 9540   9.559  15.366   2.362
44281W        W 9541  30.956   9.256  11.851
44282W        W 9542   3.651  14.360   4.526
44283W        W 9543  20.362  16.114  12.399
44284W        W 9544  20.998   6.831  11.279
44285W        W 9545  38.793  34.043  13.943
44286W        W 9546  31.121   4.835  10.605
44287W        W 9547  35.082  28.397   2.649
44288W        W 9548  22.075   3.021   2.266
44289W        W 9549  34.491  15.024   0.233
44290W        W 9550  21.948  15.490   0.667
44291W        W 9551  32.614  24.278  12.069
44292W        W 9552  23.629  32.521   2.444
44293W        W 9553   5.938  26.506  13.491
44294W        W 9554   9.376   4.245  12.583
44295W        W 9555  44.505   7.328  14.010
44296W        W 9556  21.252   9.735  11.899
44297W        W 9557  39.142  44.927  12.879
44298W        W 9558  36.358  33.599  14.379
44299W        W 9559  28.509  39.400  10.463
44300W        W 9560  32.086  33.915  10.530
44301W        W 9561   7.265   8.398   0.713
44302W        W 9562  31.626  11.771   4.124
44303W        W 9563  14.296   6.905  11.784
44304W        W 9564  28.541  23.708   1.880
44305W        W 9565  20.279  27.976   2.854
44306W        W 9566  20.358   7.404  11.558
44307W        W 9567  25.215  37.030  11.147
44308W        W 9568  11.334  34.009   0.832
44309W        W 9569  42.941  37.666  11.114
44310W        W 9570  27.169   6.552  11.136
44311W        W 9571  10.155  41.642  11.129
44312W        W 9572   9.417  17.212  11.124
44313W        W 9573   9.134  15.726   3.200
44314W        W 9574  24.792  31.608   4.262
44315W        W 9575  17.940  19.634   3.204
44316W        W 9576  17.734  41.021   1.317
44317W        W 9577  20.336   6.955  13.347
44318W        W 9578  14.668  28.752  14.052
44319W        W 9579  40.924  32.722   0.393
44320W        W 9580  14.753  31.024   4.476
44321W        W 9581   4.221  22.456  11.057
44322W        W 9582  35.869  30.890   1.893
44323W        W 9583  18.056   5.165   2.254
44324W        W 9584  35.070   8.859  12.935
44325W        W 9585  30.577  13.180  11.632
44326W        W 9586   5.695  28.039  13.516
44327W        W 9587  35.075   8.624   4.535
44328W        W 9588  40.303  19.466  12.940
44329W        W 9589  36.894  39.619   2.232
44330W        W 9590  30.543   1.467   0.768
44331W        W 9591  38.824  34.865   4.603
44332W        W 9592  27.917  25.037   2.616
44333W        W 9593   9.812  11.608  11.986
44334W        W 9594  29.655  15.577  14.953
44335W        W 9595   3.547  21.305   2.794
44336W        W 9596  40.065  23.574  14.858
44337W        W 9597  34.499  11.322   0.411
44338W        W 9598  19.194   8.999  12.609
44339W        W 9599  22.231  34.886  10.209
44340W        W 9600  44.741  41.841  12.564
44341W        W 9601  38.195  31.566   4.162
44342W        W 9602   1.667  16.139   4.656
44343W        W 9603   5.209   7.450   0.886
44344W        W 9604  39.528  29.561   4.845
44345W        W 9605   3.348  25.644  13.010
44346W        W 9606  22.511  35.396   2.132
44347W        W 9607  33.705   6.747  13.002
44348W        W 9608  30.495   8.163  12.192
44349W        W 9609  34.064  37.880  14.429
44350W        W 9610  25.901  38.323   0.793
44351W        W 9611  25.448  41.033  12.463
44352W        W 9612  36.660   5.875   0.242
44353W        W 9613  13.843  44.407  12.449
44354W        W 9614   0.263  21.470   4.033
44355W        W 9615  44.379  39.935  12.339
44356W        W 9616  44.866   5.706  14.447
44357W        W 9617  19.058  33.441  14.661
44358W        W 9618  42.942   2.824   1.530
44359W        W 9619   0.444  33.590   0.976
44360W        W 9620   7.074  18.531   3.879
44361W        W 9621  40.005  38.543  11.550
44362W        W 9622   6.893  25.094   3.215
44363W        W 9623   9.836   1.834   3.835
44364W        W 9624  35.426   3.427   2.374
44365W        W 9625  19.214  42.015  10.671
44366W        W 9626   7.811  13.860  14.718
44367W        W 9627   9.876  12.727  13.819
44368W        W 9628   7.823   0.212  13.841
44369W        W 9629  21.949  17.781   0.424
44370W        W 9630  42.325  23.004   4.532
44371W        W 9631  10.351  20.502  13.877
44372W        W 9632  12.263  41.943   0.982
44373W        W 9633   3.974  28.619   2.938
44374W        W 9634  22.344  20.098  14.902
44375W        W 9635  11.877  44.535  11.278
44376W        W 9636  16.316  24.144   1.028
44377W        W 9637  17.145  43.283   4.699
44378W        W 9638  27.887   6.463   2.813
44379W        W 9639  27.666  17.979  11.027
44380W        W 9640   9.720  21.883   3.919
44381W        W 9641   4.652  24.129   0.734
44382W        W 9642  43.726  30.456  12.215
44383W        W 9643  22.753  16.955   2.184
44384W        W 9644  15.546  36.651   3.457
44385W        W 9645  25.724  27.788   3.457
44386W        W 9646   2.889  38.320   1.265
44387W        W 9647   8.154  24.458   1.304
44388W        W 9648  38.514  30.334  10.561
44389W        W 9649   4.338  43.616  12.243
44390W        W 9650  26.567  21.373  11.357
44391W        W 9651  21.567  42.913   1.519
44392W        W 9652  29.138   6.075   1.354
44393W        W 9653  21.475  21.025  10.391
44394W        W 9654  28.686   2.209  13.538
44395W        W 9655  41.530  37.596  11.003
44396W        W 9656  39.931  24.470   2.680
44397W        W 9657  28.428  38.825  11.480
44398W        W 9658  14.047  25.023   1.556
44399W        W 9659  13.226   4.449   2.330
44400W        W 9660  30.671  36.793  11.973
44401W        W 9661   9.647  22.841  10.804
44402W        W 9662   8.799   6.763  14.947
44403W        W 9663   1.373  28.929   4.597
44404W        W 9664   4.549  23.169  11.486
44405W        W 9665   9.632  13.608  11.478
44406W        W 9666  17.537  33.872   4.249
44407W        W 9667  20.940  18.314   5.391
44408W        W 9668  29.951   5.258  14.447
44409W        W 9669  19.505  37.449  14.332
44410W        W 9670  20.221  14.876   3.320
44411W        W 9671  22.892   7.647  10.657
44412W        W 9672  29.281  16.987  12.773
44413W        W 9673   8.633  23.511  12.608
44414W        W 9674  36.641   5.379   3.269
44415W        W 9675  14.665  42.276   1.360
44416W        W 9676  14.672   0.990   2.903
44417W        W 9677  11.204  23.294   3.154
44418W        W 9678  22.098  18.480   1.093
44419W        W 9679   0.483  24.973  14.325
44420W        W 9680  13.159  12.413   4.612
44421W        W 9681   9.130  39.599  13.384
44422W        W 9682  34.650   4.309   3.653
44423W        W 9683  37.581  20.075  11.500
44424W        W 9684  26.110  21.396  14.029
44425W        W 9685   5.840  27.490  14.727
44426W        W 9686  30.444  38.880  14.363
44427W        W 9687   2.436   0.927  14.477
44428W        W 9688  32.403  37.869   0.414
44429W        W 9689   6.316  10.172   3.563
44430W        W 9690   5.453  41.189  14.501
44431W        W 9691  16.805  14.983   2.220
44432W        W 9692  28.578   3.232   4.977
44433W        W 9693  20.437   4.882  13.984
44434W        W 9694   2.974  32.902   3.380
44435W        W 9695  35.638  34.767   3.950
44436W        W 9696  26.408  12.627  13.561
44437W        W 9697  44.696  19.167  14.765
44438W        W 9698   4.654   5.649   3.563
44439W        W 9699   0.388  10.864  13.494
44440W        W 9700  29.231  39.919   2.622
44441W        W 9701  16.210  40.656  13.707
44442W        W 9702   8.778  37.774  12.097
44443W        W 9703  18.702  39.896  13.411
44444W        W 9704  40.425   2.994   0.255
44445W        W 9705  32.879  30.520  13.093
44446W        W 9706   2.562  14.638  11.566
44447W        W 9707  36.215  12.147  13.516
44448W        W 9708  27.095   1.243   2.280
44449W        W 9709  41.468   0.517   1.175
44450W        W 9710  37.879   9.468  14.547
44451W        W 9711  19.671  34.887   4.127
44452W        W 9712   5.184   2.569   3.656
44453W        W 9713  31.479  43.989   2.943
44454W        W 9714  14.290   7.598   2.250
44455W        W 9715  22.014   5.601   0.121
44456W        W 9716  36.395  35.849   2.332
44457W        W 9717  11.123  32.659   4.618
44458W        W 9718   9.594  14.109  12.510
44459W        W 9719  10.125  39.215   1.900
44460W        W 9720  40.138  28.651   0.507
44461W        W 9721  29.133   7.850   0.222
44462W        W 9722  30.795  44.303   0.318
44463W        W 9723   9.074   1.234   3.722
44464W        W 9724  44.975  23.213   0.302
44465W        W 9725  30.539  25.499  13.854
44466W        W 9726   4.547  18.509   4.221
44467W        W 9727  38.377   8.610  11.220
44468W        W 9728   5.943   0.812  13.908
44469W        W 9729  38.021  24.595  12.268
44470W        W 9730  22.761  36.483  12.962
44471W        W 9731  31.070  16.918   0.327
44472W        W 9732   2.280  36.121  11.391
44473W        W 9733  31.152  22.601  12.434
44474W        W 9734  20.862  13.103   5.156
44475W        W 9735  10.399   4.482   0.974
44476W        W 9736  11.707  33.831  11.375
44477W        W 9737  19.975  33.806   4.005
44478W        W 9738  33.955   6.152   4.383
44479W        W 9739  30.706  43.335  14.512
44480W        W 9740  43.624   6.072  10.129
44481W        W 9741  22.562  43.998  12.565
44482W        W 9742  43.980  12.770   3.596
44483W        W 9743  39.628  12.564   4.088
44484W        W 9744  32.154  39.569  11.411
44485W        W 9745   7.696   5.145   1.504
44486W        W 9746  43.083  44.441   2.743
44487W        W 9747  10.684  16.834  14.276
44488W        W 9748   2.463  20.679  11.498
44489W        W 9749  30.563  14.860  13.562
44490W        W 9750  15.838  24.972  12.451
44491W        W 9751  26.612  36.562   0.947
44492W        W 9752  14.130  34.291  11.127
44493W        W 9753  28.018  24.539   2.751
44494W        W 9754  40.462   3.469  12.401
44495W        W 9755   3.849  13.069  12.477
44496W        W 9756  25.247  42.932   1.044
44497W        W 9757  43.826  16.316  14.079
44498W        W 9758  36.152  24.986  14.317
44499W        W 9759  28.496  19.296   0.033
44500W        W 9760  39.501  19.833   0.783
44501W        W 9761  29.232  39.060   0.286
44502W        W 9762  37.755  10.774  12.441
44503W        W 9763  28.861  30.200   1.886
44504W        W 9764   6.408  30.086   3.572
44505W        W 9765  20.009  43.783   0.421
44506W        W 9766  37.230   1.992  10.635
44507W        W 9767  18.282  39.860  11.133
44508W        W 9768  24.928   1.437   0.447
44509W        W 9769   4.686   3.258  11.464
44510W        W 9770   8.354  37.929  12.440
44511W        W 9771   9.625   4.000   4.746
44512W        W 9772  31.125   0.175  13.092
44513W        W 9773  26.527  16.659   0.428
44514W        W 9774   7.161   5.730  12.508
44515W        W 9775  27.643  22.601  11.078
44516W        W 9776   9.613  24.203   0.988
44517W        W 9777  18.521   1.496  13.588
44518W        W 9778   9.564  41.238  10.569
44519W        W 9779  13.509  10.267  13.553
44520W        W 9780  32.649   8.429  11.187
44521W        W 9781   4.682  30.563  14.028
44522W        W 9782  33.135  37.299   1.215
44523W        W 9783  39.323   0.978  10.650
44524W        W 9784  19.697   5.832  14.411
44525W        W 9785   2.898   6.758  12.992
44526W        W 9786  41.508  17.298   2.891
44527W        W 9787  16.364  39.126   3.738
44528W        W 9788  35.927   6.637  11.726
44529W        W 9789  31.786  28.274   1.437
44530W        W 9790  44.870  12.587   0.729
44531W        W 9791   2.275   6.408   5.008
44532W        W 9792  11.354  38.257  13.583
44533W        W 9793  44.401  39.849   0.010
44534W        W 9794  39.651  10.031   0.708
44535W        W 9795  18.656  16.589  14.271
44536W        W 9796   6.202  19.170  11.093
44537W        W 9797  30.576  41.079   1.799
44538W        W 9798  11.233   4.342   0.921
44539W        W 9799  13.511  44.101  10.592
44540W        W 9800  28.238  19.632   2.034
44541W        W 9801  21.684  41.231  11.621
44542W        W 9802  40.507  18.098  12.933
44543W        W 9803  27.225  28.642  13.375
44544W        W 9804  39.325  26.637  13.835
44545W        W 9805   0.381  14.783  11.464
44546W        W 9806  28.228   1.844  12.553
44547W        W 9807  44.994   5.829   0.769
44548W        W 9808  31.089  19.430   4.110
44549W        W 9809  27.957   8.854  12.624
44550W        W 9810   1.470   1.826  13.353
44551W        W 9811  37.567  36.999  11.317
44552W        W 9812  21.576  31.917   2.664
44553W        W 9813  39.064  34.607   3.756
44554W        W 9814  16.005  15.583   4.388
44555W        W 9815  24.132  13.776   3.250
44556W        W 9816  40.767   9.627  14.772
44557W        W 9817  29.937  28.369  12.501
44558W        W 9818   7.255  11.139  10.618
44559W        W 9819  14.642  25.622   4.297
44560W        W 9820  29.179   5.140   0.986
44561W        W 9821  38.981  43.678   4.111
44562W        W 9822  42.530  34.451   2.692
44563W        W 9823  33.660  44.459   0.227
44564W        W 9824  14.295  29.395  10.594
44565W        W 9825  18.217  28.938   4.203
44566W        W 9826  21.492   8.866  14.424
44567W        W 9827  19.191  13.903  13.424
44568W        W 9828   8.176  18.299  12.101
44569W        W 9829  21.676  21.783   1.999
44570W        W 9830  30.714   1.947   2.648
44571W        W 9831   8.360  42.334  10.654
44572W        W 9832  32.641   9.806  12.984
44573W        W 9833   3.629  23.667   3.281
44574W        W 9834  43.816  39.948  11.603
44575W        W 9835   9.205   1.450   1.218
44576W        W 9836  25.273  14.673   2.290
44577W        W 9837  18.329  16.543  11.798
44578W        W 9838  22.731  22.644  12.960
44579W        W 9839  40.909  16.859  10.502
44580W        W 9840   8.234   3.482   3.667
44581W        W 9841  28.613  28.537  13.007
44582W        W 9842  21.212  37.261  12.949
44583W        W 9843  23.863   5.326   3.665
44584W        W 9844  44.545  23.255  14.388
44585W        W 9845  43.901  10.474  10.334
44586W        W 9846  29.869  26.058  11.974
44587W        W 9847   0.186  31.684   2.336
44588W        W 9848  42.511  20.683  13.943
44589W        W 9849   0.516   4.567   0.862
44590W        W 9850  27.954  17.251  14.056
44591W        W 9851  22.746   8.585   3.405
44592W        W 9852  31.285  43.870  13.853
44593W        W 9853  19.281  40.390   2.625
44594W        W 9854   4.353  26.666   2.647
44595W        W 9855  25.982   1.277   3.762
44596W        W 9856  18.495   3.657   4.104
44597W        W 9857   3.323   6.578  13.967
44598W        W 9858  25.761   9.873   3.410
44599W        W 9859   4.575  33.584   2.914
44600W        W 9860  12.814  17.395   0.466
44601W        W 9861  32.479  35.001   1.465
44602W        W 9862   1.550  36.104   3.703
44603W        W 9863  26.981  44.809   3.845
44604W        W 9864  13.671   2.412  13.415
44605W        W 9865   0.701  11.632   1.736
44606W        W 9866  13.677  16.305   0.436
44607W        W 9867  35.272  38.349  11.915
44608W        W 9868  20.992   0.563   4.604
44609W        W 9869  29.096   2.788   3.307
44610W        W 9870  30.936  34.326  12.036
44611W        W 9871   6.704   8.344   4.350
44612W        W 9872  27.893  29.039   0.363
44613W        W 9873   2.238  23.047   5.103
44614W        W 9874  38.942  30.081   4.142
44615W        W 9875  27.108  40.931  12.171
44616W        W 9876  36.907  23.108  11.130
44617W        W 9877  33.963  35.945   4.079
44618W        W 9878  19.288  12.401  14.947
44619W        W 9879  43.280  25.021  10.990
44620W        W 9880  27.022   0.998   1.821
44621W        W 9881  19.158   9.194   3.379
44622W        W 9882  28.645   7.079  11.628
44623W        W 9883   7.929  37.375   2.658
44624W        W 9884  11.536  27.099  13.888
44625W        W 9885  21.226   7.489   2.655
44626W        W 9886   1.401  21.525   2.910
44627W        W 9887  32.434  40.432  11.203
44628W        W 9888  12.913  14.063   0.425
44629W        W 9889  35.996  16.180   0.190
44630W        W 9890  13.370  20.619   2.866
44631W        W 9891  11.052  36.653   1.051
44632W        W 9892  33.045  35.473  13.789
44633W        W 9893  33.680  39.947  13.008
44634W        W 9894  37.559  32.426   2.371
44635W        W 9895  16.651  28.424  14.364
44636W        W 9896  28.591  41.607   2.449
44637W        W 9897   7.456  31.859   3.263
44638W        W 9898  40.700   2.347  12.099
44639W        W 9899  44.580  16.973   1.849
44640W        W 9900  16.581  16.724   9.923
44641W        W 9901  25.612  18.309  12.265
44642W        W 9902  14.653  22.760  11.922
44643W        W 9903  43.389  28.168  13.174
44644W        W 9904  19.502  38.077   5.037
44645W        W 9905  34.701  40.423  14.453
44646W        W 9906  36.996  36.341  10.522
44647W        W 9907  23.943  25.916   4.317
44648W        W 9908  30.046  27.026   2.154
44649W        W 9909  18.715  33.537   4.760
44650W        W 9910  28.770  40.785  13.846
44651W        W 9911   7.912  13.001  12.472
44652W        W 9912  37.259  28.781   3.012
44653W        W 9913  22.667  21.085   1.135
44654W        W 9914  10.461  26.364  14.314
44655W        W 9915  34.883  34.706  14.768
44656W        W 9916  28.692  30.963  12.867
44657W        W 9917  43.498  41.529  11.673
44658W        W 9918   7.188  34.536   2.601
44659W        W 9919  20.314   6.660  14.372
44660W        W 9920  40.548  18.549   4.164
44661W        W 9921  19.310   6.917  14.659
44662W        W 9922   2.608  22.539   2.474
44663W        W 9923  33.984  14.912   4.136
44664W        W 9924  23.547  29.075   3.621
44665W        W 9925  22.744  11.904   4.056
44666W        W 9926  32.658   2.665  14.411
44667W        W 9927  19.777  38.794  12.793
44668W        W 9928   2.947   9.836  11.108
44669W        W 9929  24.622  27.243   2.868
44670W        W 9930   4.945  36.433  14.734
44671W        W 9931  38.503  23.385  12.807
44672W        W 9932  37.060   0.026  12.953
44673W        W 9933  44.443   5.802   3.848
44674W        W 9934  15.085  17.983   4.764
44675W        W 9935  14.885  11.801  10.813
44676W        W 9936  31.221  23.320  11.282
44677W        W 9937  38.449  39.418  12.378
44678W        W 9938  42.466  25.746  12.908
44679W        W 9939   8.314  32.381   0.902
44680W        W 9940  30.056  39.725  10.533
44681W        W 9941  36.105  35.360   1.322
44682W        W 9942  14.379  10.633  14.686
44683W        W 9943  36.011   4.004   0.175
44684W        W 9944  39.781  28.660  13.461
44685W        W 9945   1.478  14.337   1.811
44686W        W 9946  14.550  43.841   3.076
44687W        W 9947  32.103  13.564   3.796
44688W        W 9948  43.853  23.777  11.977
44689W        W 9949  42.815  39.399  12.907
44690W        W 9950  32.520  28.208   2.623
44691W        W 9951  42.811  25.789   3.291
44692W        W 9952  44.169   6.777  10.136
44693W        W 9953  34.686  44.309  13.817
44694W        W 9954  11.763   5.717   1.446
44695W        W 9955  16.183  41.590   4.160
44696W        W 9956  15.855  28.010   3.395
44697W        W 9957   8.122  40.697   2.605
44698W        W 9958  38.500  27.514   2.943
44699W        W 9959  37.851  21.209  12.391
44700W        W 9960   9.655  24.715   2.754
44701W        W 9961  32.221  23.557   1.922
44702W        W 9962  37.927  23.621  12.282
44703W        W 9963  10.333  14.534  14.530
44704W        W 9964  38.247  17.419   1.462
44705W        W 9965  27.555  43.500  13.723
44706W        W 9966   2.827   8.169  11.102
44707W        W 9967   0.894  14.455   3.709
44708W        W 9968  18.157  38.444   4.415
44709W        W 9969  30.937  22.458  10.742
44710W        W 9970  39.753  39.453  14.356
44711W        W 9971  31.862   9.931  12.559
44712W        W 9972  26.133   9.788  12.869
44713W        W 9973  20.518  35.875  12.511
44714W        W 9974  35.295  30.685  11.407
44715W        W 9975  22.531  42.859  11.631
44716W        W 9976  30.516  37.391   1.959
44717W        W 9977  31.711  44.416  11.329
44718W        W 9978  28.180  43.026   4.855
44719W        W 9979   0.969  18.181  11.648
44720W        W 9980  22.038  32.916  12.063
44721W        W 9981  28.166  20.655   3.697
44722W        W 9982  18.680  11.734  10.660
44723W        W 9983  15.802  39.824  13.854
44724W        W 9984  42.288  39.049   1.311
44725W        W 9985  14.445  37.060  12.604
44726W        W 9986  10.999   5.203  14.341
44727W        W 9987  30.577  35.079  14.374
44728W        W 9988  38.101   8.633   4.578
44729W        W 9989  36.777   2.461   3.287
44730W        W 9990  41.716   2.338   1.378
44731W        W 9991  11.794  34.593   0.782
44732W        W 9992   3.785  16.336  14.303
44733W        W 9993   7.049  24.201  13.496
44734W        W 9994  38.029  44.390   2.812
44735W        W 9995  33.879   7.281   2.690
44736W        W 9996   6.854  44.857  12.872
44737W        W 9997  35.140  41.882   1.440
44738W        W 9998  14.743  21.690   0.484
44739W        W 9999  31.980  14.188   1.638
44740W        W10000   7.117  39.867  14.501
44741W        W10001  38.489  28.942   3.177
44742W        W10002   9.707  36.910  11.891
44743W        W10003   6.608  34.297  14.887
44744W        W10004  29.343  17.267  11.885
44745W        W10005  16.570  43.308   0.218
44746W        W10006  43.342  23.999  14.291
44747W        W10007  41.687  19.543  12.834
44748W        W10008  21.095  16.955  14.833
44749W        W10009  42.872  36.838  14.951
44750W        W10010   0.269  13.762   1.482
44751W        W10011   2.410   3.423   4.036
44752W        W10012  22.606  26.022   9.890
44753W        W10013  40.978  12.732   0.436
44754W        W10014  41.498   2.020   2.228
44755W        W10015  41.333  13.904   3.397
44756W        W10016  37.809   1.236  14.419
44757W        W10017  18.856   4.339   2.368
44758W        W10018  30.987  28.673   0.457
44759W        W10019   6.235  43.463   2.354
44760W        W10020  19.726  44.483   0.870
44761W        W10021  10.149  38.972  13.660
44762W        W10022   2.149   0.577   2.748
44763W        W10023  33.955  34.092  14.635
44764W        W10024  26.705   3.314   2.295
44765W        W10025  41.296  41.926   3.714
44766W        W10026  19.618  22.955  11.987
44767W        W10027  27.422  32.006  12.933
44768W        W10028  21.022  29.552  10.964
44769W        W10029   5.373  40.322   4.671
44770W        W10030  30.492  24.992   1.734
44771W        W10031   2.898  37.681  13.420
44772W        W10032  43.446   8.729   0.245
44773W        W10033  20.081   2.988  11.051
44774W        W10034  27.298  19.205   4.286
44775W        W10035   5.444  22.920   1.938
44776W        W10036  37.315  41.401   2.765
44777W        W10037  26.905  44.945   0.706
44778W        W10038  38.283   9.698  10.431
44779W        W10039  34.803  36.995  12.476
44780W        W10040  12.206  35.300  14.019
44781W        W10041  25.462  18.096  11.815
44782W        W10042   8.850   2.121  13.258
44783W        W10043  29.418  31.706   2.205
44784W        W10044   4.323  32.649  14.280
44785W        W10045  22.203  42.961   2.994
44786W        W10046   4.375   4.371  12.525
44787W        W10047  42.243  39.938  14.431
44788W        W10048   5.708  29.189  11.061
44789W        W10049   3.284  21.995   0.923
44790W        W10050   7.871  34.758  12.554
44791W        W10051   3.166  41.975   2.722
44792W        W10052  28.050  40.778   3.201
44793W        W10053  17.632  27.055   2.255
44794W        W10054  29.365  38.882   1.828
44795W        W10055  16.019  16.308  11.894
44796W        W10056  33.937  17.418  13.450
44797W        W10057  38.642   8.188  11.157
44798W        W10058  22.240  12.574   2.293
44799W        W10059  25.956  12.159  10.777
44800W        W10060  12.777  30.368  14.302
44801W        W10061  28.427  41.359   3.736
44802W        W10062  29.050   7.808   1.377
44803W        W10063   9.560   7.706  14.021
44804W        W10064  36.515  38.533   1.359
44805W        W10065   9.869  36.012  11.433
44806W        W10066  18.829   7.671  10.653
44807W        W10067  30.515  16.157   2.776
44808W        W10068   2.585  43.768   3.268
44809W        W10069  12.617  30.109  11.983
44810W        W10070   8.887   0.914   0.707
44811W        W10071  38.850  38.062   0.705
44812W        W10072  22.081   2.406  14.412
44813W        W10073   4.278  44.831   0.302
44814W        W10074  35.805   3.689   3.485
44815W        W10075  15.698  21.248   4.602
44816W        W10076  33.344  38.941   2.768
44817W        W10077  23.582  43.190  14.620
44818W        W10078   9.342  42.553   3.857
44819W        W10079  19.490   3.850   2.887
44820W        W10080  33.696  32.448  13.788
44821W        W10081   5.480  31.136   0.463
44822W        W10082  23.659  19.826   3.967
44823W        W10083   4.499  25.148  13.420
44824W        W10084  42.431   2.157  13.866
44825W        W10085   1.111  40.506   0.266
44826W        W10086   5.932   6.626  13.574
44827W        W10087  14.166   3.943  14.858
44828W        W10088  18.247  39.892   4.163
44829W        W10089  39.328   5.220   1.669
44830W        W10090  16.707   8.404  11.956
44831W        W10091  36.378   8.687  11.642
44832W        W10092   2.150  15.675  10.692
44833W        W10093  38.420  10.251  11.635
44834W        W10094  40.523  32.013  14.821
44835W        W10095   2.929   1.514   3.916
44836W        W10096  28.636  17.866  12.022
44837W        W10097   8.810   0.971  10.486
44838W        W10098  34.709   3.406   0.247
44839W        W10099  22.555   7.127   3.632
44840W        W10100   3.223  13.645  13.942
44841W        W10101  40.518  25.535  12.490
44842W        W10102   2.694  31.854   1.469
44843W        W10103   5.499  29.648  13.498
44844W        W10104  15.496   2.465   2.295
44845W        W10105  22.183  32.647  13.336
44846W        W10106  34.334  25.513  13.524
44847W        W10107  34.379  40.611   1.275
44848W        W10108  23.627   7.503  12.110
44849W        W10109  44.793  36.074   0.534
44850W        W10110  39.518   0.315   0.229
44851W        W10111  24.198  25.092   0.839
44852W        W10112  11.661  40.930   2.892
44853W        W10113  27.855  14.633   1.533
44854W        W10114   8.642  22.033   4.106
44855W        W10115  12.885  26.729  11.952
44856W        W10116   2.876  12.773   4.307
44857W        W10117  31.011  28.027   0.370
44858W        W10118   0.905  41.011   0.979
44859W        W10119  27.016   9.267   2.587
44860W        W10120   2.738  19.661   2.091
44861W        W10121  38.815   0.251  14.433
44862W        W10122  30.129  36.416   1.963
44863W        W10123  29.980  32.588   4.102
44864W        W10124   3.718   6.877  12.390
44865W        W10125  21.528  31.817   4.154
44866W        W10126   0.567  43.533  14.973
44867W        W10127  24.032   8.418  12.345
44868W        W10128  16.169  23.934   3.794
44869W        W10129   4.843   5.262   1.649
44870W        W10130  41.544  26.578   3.174
44871W        W10131  41.494   2.404  11.489
44872W        W10132  37.817  35.109  14.891
44873W        W10133  43.082  16.836  11.065
44874W        W10134  29.248  16.284  13.939
44875W        W10135  12.519  22.744  11.658
44876W        W10136   2.233  11.839  13.181
44877W        W10137   7.626  34.515   2.850
44878W        W10138  22.202  41.226   1.206
44879W        W10139  19.716   8.271   2.355
44880W        W10140  40.457  33.721   0.902
44881W        W10141  12.912   1.172  14.906
44882W        W10142  22.791  34.440   0.927
44883W        W10143  20.345  15.367  12.006
44884W        W10144  10.137   4.901  11.643
44885W        W10145  26.960  35.730   5.771
44886W        W10146  39.895  14.737  12.015
44887W        W10147  43.478  32.147  10.650
44888W        W10148  37.288   7.210  13.626
44889W        W10149  14.100  15.365  11.423
44890W        W10150  14.941  29.886   0.846
44891W        W10151  22.133  31.394   3.400
44892W        W10152  38.353  26.965  11.633
44893W        W10153  33.588  20.963  12.044
44894W        W10154  15.573   9.350  13.426
44895W        W10155  19.305  29.415  12.137
44896W        W10156  11.308  22.280   3.343
44897W        W10157  20.524  13.693   1.823
44898W        W10158  20.112  17.481   0.731
44899W        W10159  14.640  12.757  13.956
44900W        W10160  17.254  35.940  14.408
44901W        W10161  28.606  22.495   2.173
44902W        W10162  19.144  32.027  11.598
44903W        W10163  36.963  41.352  12.378
44904W        W10164   7.362  18.565  11.195
44905W        W10165   0.846  43.558   1.871
44906W        W10166   1.915   8.783   4.657
44907W        W10167  20.289  10.610  13.035
44908W        W10168   7.307   2.958  11.563
44909W        W10169  36.548  30.307  14.055
44910W        W10170  28.163  43.239   0.351
44911W        W10171   8.178  15.615   1.055
44912W        W10172  41.938  20.456  13.114
44913W        W10173  25.494  28.196   3.679
44914W        W10174  43.372   9.454   4.179
44915W        W10175   9.608  41.479   3.064
44916W        W10176   2.269  31.697  12.634
44917W        W10177   6.949  40.938   1.575
44918W        W10178  19.270   2.492  12.020
44919W        W10179  16.696  20.275  13.533
44920W        W10180  19.636   5.745  12.948
44921W        W10181  30.990  25.671  14.288
44922W        W10182   5.030  16.339   0.179
44923W        W10183  24.006   1.951   1.884
44924W        W10184  10.151  26.664   2.643
44925W        W10185   5.279   3.064   1.634
44926W        W10186  21.781  17.800  11.081
44927W        W10187  37.334  26.156  14.960
44928W        W10188  44.345  41.770  12.023
44929W        W10189  21.568  42.130  12.567
44930W        W10190  30.648  16.699   3.248
44931W        W10191   7.214  32.602   1.856
44932W        W10192  39.312  36.472  14.943
44933W        W10193  41.751  31.003   0.863
44934W        W10194   7.791  42.140  11.252
44935W        W10195  22.589  14.376  12.679
44936W        W10196  40.307  24.163  10.578
44937W        W10197  18.259  26.226   1.450
44938W        W10198  24.782  31.260  14.456
44939W        W10199   8.714  30.169  10.776
44940W        W10200   5.326  39.873   3.657
44941W        W10201  44.338   3.696  11.896
44942W        W10202   1.007   4.790  12.508
44943W        W10203  17.899  31.697  12.986
44944W        W10204   5.490  10.806  14.460
44945W        W10205   7.141  32.562   4.568
44946W        W10206  44.205   0.727   4.124
44947W        W10207  43.065  13.742  13.893
44948W        W10208   7.591  24.775   3.760
44949W        W10209   7.364  28.862  10.895
44950W        W10210  17.867  16.199  12.887
44951W        W10211  31.650   0.718   2.648
44952W        W10212   4.384  13.898  12.974
44953W        W10213  34.882  39.338   2.283
44954W        W10214  34.459  37.142   2.697
44955W        W10215   7.817   6.354  13.472
44956W        W10216  17.290  41.340   1.774
44957W        W10217  21.467   3.628   4.558
44958W        W10218  26.027  36.594  14.481
44959W        W10219  16.580  23.698   0.943
44960W        W10220   0.897  29.036   3.011
44961W        W10221  12.624  34.658  11.892
44962W        W10222  24.212   6.059   2.599
44963W        W10223  33.535  19.466   4.682
44964W        W10224  17.785   5.739  11.623
44965W        W10225   0.623  11.113   1.253
44966W        W10226  43.657  14.888   5.093
44967W        W10227  33.100  34.905   4.325
44968W        W10228  28.457  26.556   2.182
44969W        W10229   6.479  43.720   3.297
44970W        W10230  15.673  23.791  13.050
44971W        W10231  10.723  37.944   2.680
44972W        W10232  30.722  33.312  14.250
44973W        W10233  28.305   0.987   1.710
44974W        W10234  24.424  39.413  13.652
44975W        W10235  43.386  10.847  13.566
44976W        W10236  40.773  19.120  13.427
44977W        W10237  39.601  24.188  14.416
44978W        W10238  21.989   8.856   3.512
44979W        W10239  26.646  29.813  11.176
44980W        W10240  28.601  32.168  14.839
44981W        W10241   9.443  44.243  10.462
44982W        W10242  24.136  11.131   4.708
44983W        W10243  30.143  14.941   1.236
44984W        W10244  25.272  34.156  14.398
44985W        W10245  25.794   4.352   0.785
44986W        W10246  31.660   1.425   3.776
44987W        W10247   9.675  24.330  12.407
44988W        W10248  19.542  24.797   0.187
44989W        W10249  42.577  26.601   4.571
44990W        W10250  22.825  24.169  11.173
44991W        W10251   7.899  22.638  13.560
44992W        W10252  37.402  34.418  12.526
44993W        W10253  26.700  13.906   3.652
44994W        W10254  27.122  27.251  10.690
44995W        W10255  30.478  20.449  13.845
44996W        W10256  15.133  14.285   4.495
44997W        W10257  27.148   0.768  14.222
44998W        W10258  36.349   8.125   0.338
44999W        W10259  28.246  33.948   0.000
45000W        W10260  20.829  20.182   9.741
45001W        W10261  24.360  28.320  13.270
45002W        W10262  24.521  41.512  12.492
45003W        W10263   2.011   1.165   4.235
45004W        W10264   1.665  27.453  10.480
45005W        W10265   0.241  22.782  12.913
45006W        W10266  27.632  44.742   1.231
45007W        W10267  36.445  14.649  13.879
45008W        W10268  19.549  34.100  12.005
45009W        W10269  29.943  16.302  14.727
45010W        W10270  17.236  11.269   2.347
45011W        W10271  27.168  11.867  13.929
45012W        W10272  42.923  40.097  11.351
45013W        W10273  21.122  27.138  12.236
45014W        W10274  17.837  33.199  11.162
45015W        W10275  19.511  12.430   4.945
45016W        W10276  36.574   1.064  13.874
45017W        W10277  41.570  23.598  10.830
45018W        W10278   3.009   7.162   4.148
45019W        W10279  19.692   4.805  12.392
45020W        W10280  35.068  24.673   0.806
45021W        W10281  19.115  10.362  14.223
45022W        W10282   3.648   8.336   2.828
45023W        W10283  38.467  40.026   3.360
45024W        W10284  13.660  37.965  14.740
45025W        W10285  24.150  21.176   2.003
45026W        W10286  16.200  15.350   1.411
45027W        W10287  10.072  21.358   1.400
45028W        W10288  29.816  27.874  12.858
45029W        W10289  20.232   3.730  12.755
45030W        W10290   8.359  21.118  10.617
45031W        W10291   1.330   6.753   3.808
45032W        W10292  32.471  23.801  10.658
45033W        W10293  42.851  14.580   0.828
45034W        W10294  10.136  28.070  12.418
45035W        W10295  16.988  18.562   3.720
45036W        W10296   7.324  16.493  14.023
45037W        W10297  38.245  35.397   0.125
45038W        W10298  22.592  33.379  11.480
45039W        W10299   8.933  40.410  12.730
45040W        W10300  33.869   4.265   4.063
45041W        W10301   6.275  27.741  12.060
45042W        W10302  20.389  35.050   0.131
45043W        W10303  23.718   5.279  10.734
45044W        W10304  38.865  26.626  11.087
45045W        W10305  44.366  42.571   3.827
45046W        W10306  41.652  17.642   4.559
45047W        W10307  32.857  26.902   0.937
45048W        W10308  10.093   8.945  11.040
45049W        W10309  30.923  15.077   2.271
45050W        W10310  29.050  24.193   0.725
45051W        W10311  28.516  29.693   3.203
45052W        W10312  23.974  22.116   1.468
45053W        W10313   2.553  20.289  12.351
45054W        W10314  10.309  44.731  11.265
45055W        W10315  34.872  20.085   4.799
45056W        W10316  44.508  31.405  14.882
45057W        W10317  18.149  33.043  11.638
45058W        W10318   8.186  12.647  12.707
45059W        W10319  16.320  16.628   2.891
45060W        W10320  40.455  30.956   3.272
45061W        W10321  32.033  20.815  10.526
45062W        W10322  28.201  14.119  12.912
45063W        W10323   5.281  33.148   1.306
45064W        W10324  36.478  11.445  14.239
45065W        W10325   4.641   6.839  13.497
45066W        W10326  23.301  33.536  13.521
45067W        W10327  43.499   3.279  10.089
45068W        W10328   1.644   4.414   2.067
45069W        W10329   9.700  19.835  10.762
45070W        W10330  14.801  44.240   1.155
45071W        W10331  37.962  33.180   1.299
45072W        W10332  44.860  20.890   4.527
45073W        W10333  19.657   8.688   4.154
45074W        W10334  23.912   7.277  14.524
45075W        W10335  13.501  10.420   2.335
45076W        W10336  14.494   5.032  13.914
45077W        W10337  40.603  36.588   4.151
45078W        W10338   6.821  29.140   3.354
45079W        W10339   1.100   1.349  14.504
45080W        W10340   3.499   8.360   4.163
45081W        W10341   8.824  32.716  14.003
45082W        W10342  39.001  30.562   4.411
45083W        W10343   6.162  14.159   3.602
45084W        W10344  42.514  28.671   0.038
45085W        W10345  36.631  32.915  14.630
45086W        W10346  37.413  30.473   0.693
45087W        W10347  23.103   2.230   4.272
45088W        W10348   9.967  34.359  10.281
45089W        W10349  13.217  42.737   4.318
45090W        W10350  18.190   5.969  13.295
45091W        W10351  34.049  38.558  13.704
45092W        W10352   6.763  43.295  10.732
45093W        W10353   7.405  35.031  12.372
45094W        W10354  27.737  36.637   1.267
45095W        W10355  44.362  25.243  13.211
45096W        W10356  20.973  32.394  11.898
45097W        W10357  26.185  28.950   3.505
45098W        W10358  31.225  31.462   2.065
45099W        W10359   0.433  24.990   3.153
45100W        W10360   9.673  15.834   0.491
45101W        W10361  13.590  10.911   1.388
45102W        W10362  36.006  14.029  14.833
45103W        W10363  42.266   3.958  12.553
45104W        W10364  34.329  31.615   3.899
45105W        W10365  21.343  13.547  11.596
45106W        W10366  23.697  35.202  13.814
45107W        W10367  37.093  30.878   4.868
45108W        W10368  11.764  28.026   1.437
45109W        W10369  14.456  34.040   4.572
45110W        W10370  10.631  14.312  10.847
45111W        W10371  16.447   0.010   2.354
45112W        W10372  31.968  24.505   4.158
45113W        W10373  20.152  40.975   3.137
45114W        W10374  28.058  16.518  12.568
45115W        W10375   3.997   5.193  12.464
45116W        W10376  13.093  10.706   1.350
45117W        W10377  22.967  31.558  13.848
45118W        W10378   1.496  28.948   3.701
45119W        W10379  15.410  42.354  14.030
45120W        W10380   6.747  42.466  11.111
45121W        W10381  40.018   1.006  11.163
45122W        W10382  29.035   0.361  11.538
45123W        W10383   8.425  25.704   0.416
45124W        W10384  28.205  30.334   3.745
45125W        W10385  28.166   6.248   5.002
45126W        W10386  24.744  41.913  12.257
45127W        W10387  33.164  29.444  12.544
45128W        W10388  31.110  33.837  12.076
45129W        W10389  29.787  42.796   4.605
45130W        W10390  44.073   0.791  14.276
45131W        W10391  41.237  18.243  12.360
45132W        W10392  11.130  34.572   2.741
45133W        W10393  10.938  42.454   2.336
45134W        W10394  21.032  40.285   1.357
45135W        W10395  42.441  15.104   1.676
45136W        W10396  36.842  23.704   1.791
45137W        W10397  16.599  35.625   1.731
45138W        W10398  42.343  35.377  14.923
45139W        W10399  13.055  23.190  12.343
45140W        W10400  23.213  41.890  11.832
45141W        W10401   4.852  36.012  10.366
45142W        W10402  44.137  20.752  10.096
45143W        W10403  15.334   3.188  14.233
45144W        W10404  16.516   6.967   3.447
45145W        W10405   8.899  37.853   3.296
45146W        W10406   1.312   6.693   2.015
45147W        W10407   8.213  34.091  11.576
45148W        W10408  24.001   1.381   3.731
45149W        W10409  27.910  26.630   5.019
45150W        W10410  15.222   1.468   2.275
45151W        W10411   0.945   7.575   1.775
45152W        W10412  17.729  25.523  10.799
45153W        W10413  42.827  40.070  10.851
45154W        W10414   3.420  15.184   3.607
45155W        W10415   8.285  43.339   4.318
45156W        W10416  39.980  41.361   3.664
45157W        W10417  36.301  33.879   4.503
45158W        W10418  11.825  20.881  10.951
45159W        W10419   4.990  41.107  13.896
45160W        W10420  42.493  36.629  12.608
45161W        W10421  43.246   1.789  14.255
45162W        W10422  31.717  17.298  13.070
45163W        W10423  43.982   6.908   2.654
45164W        W10424  10.341  25.545  14.875
45165W        W10425  24.167  25.629  14.340
45166W        W10426  43.472  26.690   5.086
45167W        W10427  24.312  21.686  10.780
45168W        W10428  30.178  35.778  13.762
45169W        W10429   9.889  33.003   2.896
45170W        W10430  42.954  42.134   3.726
45171W        W10431  23.719  16.301  11.080
45172W        W10432   0.224  37.440  10.144
45173W        W10433   8.367   8.218   3.050
45174W        W10434   6.340  17.123  10.555
45175W        W10435  11.350  43.722   3.503
45176W        W10436  23.148  24.917  11.674
45177W        W10437  20.226  16.704   0.517
45178W        W10438   7.743  23.307  12.488
45179W        W10439  40.122  28.867  12.533
45180W        W10440  20.967  28.581   4.162
45181W        W10441  44.714  38.738   1.366
45182W        W10442  14.735   0.436   4.760
45183W        W10443  37.733  44.403  14.277
45184W        W10444  14.631  35.593   2.032
45185W        W10445  14.200  31.935   0.107
45186W        W10446  23.183  10.854  14.899
45187W        W10447   9.143  32.634   0.881
45188W        W10448  43.061  13.910  10.735
45189W        W10449   2.025  36.833  13.612
45190W        W10450  38.469  16.544   3.323
45191W        W10451  44.207   4.734   4.634
45192W        W10452  20.756  15.804  11.572
45193W        W10453  39.542  23.175   1.838
45194W        W10454  36.492  15.757  11.013
45195W        W10455  35.352   3.761   1.446
45196W        W10456  18.590  35.866  13.874
45197W        W10457  11.389  11.193  13.442
45198W        W10458  11.290  11.362   3.208
45199W        W10459  44.990  31.187   0.411
45200W        W10460  36.024  35.969  14.394
45201W        W10461   0.013  22.032   3.296
45202W        W10462  39.281  21.785   2.905
45203W        W10463  29.331   2.600   0.440
45204W        W10464  19.720   4.133   2.275
45205W        W10465  25.710  36.815   1.871
45206W        W10466  14.085   3.887   2.812
45207W        W10467  40.508  29.980   3.267
45208W        W10468  27.964  35.468  13.275
45209W        W10469  41.912  30.430   0.278
45210W        W10470  18.273  19.808   4.038
45211W        W10471  14.540  31.111   0.239
45212W        W10472  44.984   5.793  13.430
45213W        W10473  37.373  10.102  14.043
45214W        W10474  12.318  41.479  10.651
45215W        W10475  31.621   7.176  14.482
45216W        W10476  30.440  34.447  14.901
45217W        W10477  26.689  12.136  13.833
45218W        W10478  31.459   8.258   4.655
45219W        W10479  43.463   4.995   3.056
45220W        W10480  26.025   7.348   0.879
45221W        W10481  22.647  18.565   3.707
45222W        W10482  16.556  19.264   2.175
45223W        W10483  25.968  38.360  12.529
45224W        W10484  12.295  29.942  10.724
45225W        W10485  43.787   9.400  14.432
45226W        W10486   0.923  12.377  12.507
45227W        W10487  17.163  11.645  13.799
45228W        W10488  39.654  27.177  12.218
45229W        W10489   8.626  25.166  10.247
45230W        W10490  44.243  19.611   9.987
45231W        W10491  23.326  33.505   0.899
45232W        W10492  36.732  15.251   2.030
45233W        W10493  11.539  13.234   0.884
45234W        W10494  26.669   7.234  13.860
45235W        W10495  41.355  23.234  13.912
45236W        W10496   3.261  36.540   0.324
45237W        W10497  11.754   2.317  10.934
45238W        W10498  40.439   4.690   4.633
45239W        W10499  30.985  26.907   2.336
45240W        W10500   8.750   5.934   0.760
45241W        W10501  38.434  41.333  10.487
45242W        W10502  20.712  22.665  13.000
45243W        W10503   7.109  28.111  13.512
45244W        W10504  23.041  13.618  11.158
45245W        W10505  39.799  11.190   4.225
45246W        W10506  15.647  40.232   0.356
45247W        W10507  24.993   8.723   2.439
45248W        W10508  44.207  16.800   2.439
45249W        W10509  35.451  37.947  10.617
45250W        W10510   7.164  12.750  10.669
45251W        W10511  23.641  24.691  12.924
45252W        W10512  24.010  25.960  12.926
45253W        W10513  43.311  44.847   2.532
45254W        W10514  13.003  34.138   4.155
45255W        W10515  38.421   2.461   2.304
45256W        W10516  30.437  43.328   2.353
45257W        W10517  41.573  44.386   0.760
45258W        W10518  17.562  39.547  14.656
45259W        W10519  29.019  19.509   0.059
45260W        W10520  21.439  20.162  14.500
45261W        W10521   5.950  12.441  13.283
45262W        W10522  25.476  19.715  14.735
45263W        W10523  20.159   2.927  13.019
45264W        W10524  42.913  32.626   2.842
45265W        W10525  26.073   7.691  10.419
45266W        W10526  40.578   9.339  12.118
45267W        W10527  20.643   5.010   1.437
45268W        W10528  39.818  33.222  11.661
45269W        W10529  34.770  42.880   1.359
45270W        W10530  32.165  13.288  11.214
45271W        W10531  30.761  35.514  11.035
45272W        W10532  13.948   6.265  11.333
45273W        W10533  39.845  22.724   3.950
45274W        W10534   1.766  25.135  14.926
45275W        W10535  33.144  35.970  13.891
45276W        W10536   9.425  38.450  10.653
45277W        W10537  38.056  33.063   3.159
45278W        W10538  37.682   7.703   3.664
45279W        W10539  44.709  31.178  14.060
45280W        W10540  16.641   3.940   4.296
45281W        W10541  28.699  44.300  12.532
45282W        W10542   4.106  43.520   3.198
45283W        W10543  30.495  38.385  14.206
45284W        W10544  10.917   2.433  14.872
45285W        W10545  14.051  21.073  10.281
45286W        W10546  27.777  35.792  11.475
45287W        W10547  41.652  31.135   0.004
45288W        W10548  26.443  34.093   4.151
45289W        W10549   6.369  27.583  10.817
45290W        W10550  41.823  38.548  11.851
45291W        W10551  20.538  35.399   1.611
45292W        W10552  18.651   8.760  11.531
45293W        W10553   5.423   9.340   2.798
45294W        W10554   6.711  12.250   0.583
45295W        W10555  23.517  19.188  13.410
45296W        W10556  35.027  29.351   3.585
45297W        W10557  31.010  15.622  11.478
45298W        W10558  35.538  42.980  13.909
45299W        W10559  44.846  43.449   1.900
45300W        W10560   6.255   0.784   1.316
45301W        W10561  37.292  20.132   1.523
45302W        W10562  36.293  24.777  11.353
45303W        W10563  39.063  42.791   4.686
45304W        W10564  35.000   9.435  11.091
45305W        W10565  18.545  27.900   0.287
45306W        W10566  33.193  23.059  11.681
45307W        W10567  19.429  26.396  14.865
45308W        W10568  44.799  13.280   0.084
45309W        W10569   5.991  41.439  13.555
45310W        W10570  27.626  27.759   4.460
45311W        W10571  19.532  24.612   0.702
45312W        W10572  35.905  44.330   0.935
45313W        W10573  41.575   8.690  10.709
45314W        W10574  12.208  41.777  11.219
45315W        W10575  21.774   2.292  14.013
45316W        W10576  38.305  29.931   2.198
45317W        W10577   6.765  24.834   2.175
45318W        W10578   6.865   2.116  14.848
45319W        W10579  40.957  38.300  11.466
45320W        W10580   6.161   8.349   3.636
45321W        W10581  39.538  34.098   2.354
45322W        W10582  36.981  11.642   3.252
45323W        W10583   9.513  22.716  12.132
45324W        W10584  20.155  27.914   3.792
45325W        W10585  12.036  27.109  13.973
45326W        W10586  26.692  25.728   2.830
45327W        W10587   0.535  37.958  14.845
45328W        W10588  14.660  42.363  14.945
45329W        W10589  34.166  40.949   4.620
45330W        W10590  15.148  38.078   3.369
45331W        W10591  41.782   9.311  12.558
45332W        W10592  28.976  40.496   1.042
45333W        W10593  29.137  29.462   2.218
45334W        W10594  14.880  25.676   2.178
45335W        W10595  10.825  23.941  11.156
45336W        W10596  41.855  18.704  11.403
45337W        W10597  16.009  13.400  11.123
45338W        W10598  25.225  36.198  12.215
45339W        W10599  34.019  23.164   3.775
45340W        W10600  40.571  37.384  10.561
45341W        W10601  11.362  25.983  14.483
45342W        W10602  18.096   4.176  12.831
45343W        W10603  43.229  13.322  14.140
45344W        W10604  37.538   8.123  13.957
45345W        W10605  36.528  40.433  11.705
45346W        W10606   9.567   4.274   1.214
45347W        W10607  30.119   6.146   5.092
45348W        W10608   7.371  24.539   4.214
45349W        W10609  18.826  26.759  13.593
45350W        W10610  16.139  33.269  13.620
45351W        W10611  20.634  43.395  12.448
45352W        W10612  12.401  12.197   2.270
45353W        W10613  35.302   0.801   1.330
45354W        W10614  42.054  40.315   1.748
45355W        W10615  19.867  36.020  10.811
45356W        W10616  18.042  39.901   1.384
45357W        W10617  37.865   1.903  12.151
45358W        W10618  19.458  31.573  13.832
45359W        W10619  39.682  13.527   1.955
45360W        W10620  37.776  44.593  13.022
45361W        W10621  11.889  39.575  11.922
45362W        W10622  20.209  28.418   0.079
45363W        W10623  27.925  28.169   1.324
45364W        W10624  14.134  37.439   1.738
45365W        W10625  23.998  28.720   4.280
45366W        W10626  20.276  39.878  12.435
45367W        W10627   6.097  43.697  12.799
45368W        W10628  28.743  20.332   0.790
45369W        W10629  27.176  17.692   2.683
45370W        W10630  35.309  36.934  12.549
45371W        W10631   8.192  16.257  13.908
45372W        W10632  41.706  27.570  13.072
45373W        W10633  25.991   3.650  13.836
45374W        W10634  40.826  15.740  13.484
45375W        W10635   8.926  18.866  10.656
45376W        W10636  32.862  31.622   2.763
45377W        W10637  30.217   6.807   2.439
45378W        W10638  40.909  41.254   3.252
45379W        W10639  30.934  29.650  14.787
45380W        W10640   2.531  26.361  10.750
45381W        W10641  37.881   9.752  14.107
45382W        W10642   1.049  32.830  12.491
45383W        W10643  14.841  18.178  10.146
45384W        W10644   3.410  44.022  14.078
45385W        W10645  16.293  24.996   4.582
45386W        W10646  43.344  17.827  13.149
45387W        W10647   3.691  22.554   0.307
45388W        W10648   1.738  38.554  14.479
45389W        W10649  41.005  15.290   0.311
45390W        W10650  23.726  33.975   3.713
45391W        W10651  40.841  34.118   0.039
45392W        W10652  39.436   9.108   0.875
45393W        W10653  33.771  37.063   2.373
45394W        W10654  10.534  19.729  14.452
45395W        W10655  43.331  44.700  14.500
45396W        W10656  43.608  41.542  13.059
45397W        W10657  14.259  20.379   4.463
45398W        W10658  18.640   5.765  11.667
45399W        W10659  15.231  21.224   4.376
45400W        W10660  29.420  34.048   2.754
45401W        W10661   3.635  31.893   1.348
45402W        W10662  15.334  27.752  13.002
45403W        W10663  33.692  40.579  10.200
45404W        W10664  42.839  40.105   1.826
45405W        W10665  29.506  33.548   2.536
45406W        W10666  11.206   9.480   0.414
45407W        W10667  24.214   3.738  12.898
45408W        W10668   9.292  30.015  13.517
45409W        W10669   3.336  26.386  11.223
45410W        W10670  22.626  26.168  10.405
45411W        W10671  21.850  18.763  10.264
45412W        W10672  20.157  33.657   2.666
45413W        W10673  20.488  36.557  11.879
45414W        W10674  38.903   6.956   1.831
45415W        W10675  17.420  17.077  10.326
45416W        W10676   8.003  19.208  11.921
45417W        W10677  16.591  42.815   1.637
45418W        W10678  23.934  16.750   1.477
45419W        W10679  36.472   1.246   1.836
45420W        W10680  28.770  42.957  14.260
45421W        W10681   5.868  25.750  12.857
45422W        W10682  27.705  40.178  11.153
45423W        W10683  32.318  24.729   1.752
45424W        W10684  18.269   9.340  14.876
45425W        W10685  37.803   4.553   0.977
45426W        W10686  29.952  44.141  11.193
45427W        W10687  42.562  17.532   3.675
45428W        W10688  37.932  27.624   1.625
45429W        W10689  38.054  22.254  12.557
45430W        W10690  22.691  33.598   3.134
45431W        W10691  34.869   9.322  14.293
45432W        W10692   6.486  29.458   2.778
45433W        W10693  28.928   0.224  13.892
45434W        W10694  41.845  27.143  13.392
45435W        W10695   5.864  14.898  14.362
45436W        W10696  38.781  21.246   2.341
45437W        W10697  30.531  44.873   1.872
45438W        W10698   1.715  42.733  13.644
45439W        W10699  43.668  15.338   0.817
45440W        W10700  11.651  31.766   4.085
45441W        W10701   0.347   2.290  11.539
45442W        W10702  38.988  43.905  14.661
45443W        W10703   0.914  21.987  13.058
45444W        W10704  24.432  27.171  10.687
45445W        W10705   1.680   8.705   1.793
45446W        W10706  40.371   5.906  12.943
45447W        W10707  22.633  21.412  11.090
45448W        W10708  42.972  17.152   2.828
45449W        W10709  20.688  12.229  12.942
45450W        W10710   4.792  22.197  11.881
45451W        W10711  31.097   4.830   4.524
45452W        W10712  43.271  24.677   4.451
45453W        W10713  21.796  41.729   0.817
45454W        W10714  20.489   2.772  14.980
45455W        W10715  27.131  20.322   1.261
45456W        W10716  16.033  16.062   4.521
45457W        W10717  36.520  16.693  12.643
45458W        W10718   5.437   1.672   3.676
45459W        W10719  16.687  26.532   3.170
45460W        W10720  16.670   4.837  13.522
45461W        W10721  17.826   6.156   2.320
45462W        W10722  37.074  36.494   1.864
45463W        W10723  33.210  21.072  11.132
45464W        W10724  13.648  28.525  13.546
45465W        W10725  15.704  32.070  14.561
45466W        W10726  32.420   2.951   0.978
45467W        W10727  43.466  16.392  12.843
45468W        W10728  33.291  36.560   3.213
45469W        W10729  39.325   0.203  14.319
45470W        W10730  44.486  17.078  10.393
45471W        W10731  27.507  17.139  10.596
45472W        W10732   5.025  27.489  14.512
45473W        W10733   0.624  10.782  10.231
45474W        W10734  27.691  25.591  12.074
45475W        W10735   5.620  33.375   1.909
45476W        W10736  14.178  10.641   2.037
45477W        W10737   4.997   4.645  13.919
45478W        W10738  21.338  10.527   0.955
45479W        W10739  42.002   0.257   2.846
45480W        W10740  38.705  14.652  12.907
45481W        W10741  30.457  27.033  13.674
45482W        W10742  35.352  13.795   0.926
45483W        W10743   0.959  16.202   2.584
45484W        W10744   0.172  26.147   0.724
45485W        W10745  13.316  40.033   0.193
45486W        W10746  31.698   9.744  11.230
45487W        W10747  38.854  14.967  14.973
45488W        W10748  22.057  19.601   3.152
45489W        W10749  13.713  11.790   5.015
45490W        W10750  13.877   2.714  14.293
45491W        W10751  42.036  42.930  13.001
45492W        W10752  32.092  43.398  13.975
45493W        W10753  31.862  28.603   0.304
45494W        W10754  11.839  21.170   1.827
45495W        W10755  15.400  33.044  14.461
45496W        W10756  18.501   9.331   2.208
45497W        W10757  42.765   0.781   4.403
45498W        W10758  32.584  37.388   0.350
45499W        W10759  27.889  39.869   3.139
45500W        W10760  19.062  44.775  12.304
45501W        W10761  42.065   9.580  14.039
45502W        W10762  22.527  29.732  14.322
45503W        W10763  18.246  36.900   1.344
45504W        W10764  44.528  28.289  10.344
45505W        W10765  34.407  19.834   3.289
45506W        W10766  37.285  35.560   3.385
45507W        W10767  27.087   4.832  10.547
45508W        W10768  27.331   5.185  13.350
45509W        W10769  14.727  21.098   2.096
45510W        W10770  14.790  19.168  11.124
45511W        W10771  25.126  21.568  12.588
45512W        W10772  35.506  42.458   2.199
45513W        W10773  41.405  13.674   4.371
45514W        W10774  26.068  44.308   4.121
45515W        W10775   5.475  44.101   4.116
45516W        W10776  26.447  10.316   1.033
45517W        W10777  15.982  41.940  13.811
45518W        W10778   8.792  34.055  14.235
45519W        W10779  39.375  44.932   3.816
45520W        W10780  41.580  13.775   2.958
45521W        W10781  34.456   3.812  11.358
45522W        W10782  38.986  12.834  13.322
45523W        W10783  27.717  37.225  14.281
45524W        W10784   3.810  25.579   0.889
45525W        W10785   2.184   0.223  12.560
45526W        W10786  30.334   3.901  12.750
45527W        W10787  10.012   5.350   4.133
45528W        W10788  43.028   1.529   0.104
45529W        W10789  25.227  21.245  12.109
45530W        W10790   5.414  43.010  13.951
45531W        W10791  12.135  16.167   2.772
45532W        W10792  32.371  21.573   1.549
45533W        W10793   6.728  11.369  13.385
45534W        W10794   7.694  11.315  11.448
45535W        W10795  32.021   6.654   3.800
45536W        W10796   9.308  39.132  14.480
45537W        W10797  43.789  19.741   4.899
45538W        W10798  22.194  29.436   2.209
45539W        W10799  39.130  18.618   2.650
45540W        W10800  37.311  31.566   3.813
45541W        W10801  12.034  16.698  12.347
45542W        W10802  33.281  30.258  14.058
45543W        W10803  30.935  41.880   1.862
45544W        W10804  40.997  32.437   1.772
45545W        W10805  11.825  20.930  12.756
45546W        W10806   1.351  22.917   2.760
45547W        W10807   8.437  40.676   2.223
45548W        W10808  24.988   5.435  12.630
45549W        W10809  40.923  43.919  14.013
45550W        W10810  18.327   2.386  12.692
45551W        W10811  40.316  32.918   2.720
45552W        W10812  28.048  43.371  13.775
45553W        W10813  10.300  15.683  12.926
45554W        W10814  22.224  42.224  14.703
45555W        W10815  13.075   3.753  11.115
45556W        W10816  10.430   7.694   2.564
45557W        W10817  17.827  20.102  13.983
45558W        W10818  20.550   9.419  10.971
45559W        W10819  16.244  31.385   4.202
45560W        W10820  19.027  32.497  14.726
45561W        W10821  25.582  21.196  10.122
45562W        W10822   5.915   5.852  12.918
45563W        W10823  29.922  37.527   2.670
45564W        W10824  14.992  32.669  14.465
45565W        W10825  41.925   0.709   0.958
45566W        W10826  38.825  19.062   0.811
45567W        W10827  10.978   5.296  13.345
45568W        W10828  42.145  35.784   4.822
45569W        W10829   7.831  29.757  12.896
45570W        W10830   2.161  27.925   2.254
45571W        W10831   7.378   6.935  12.563
45572W        W10832  34.620  16.462  12.979
45573W        W10833  10.613  11.861  11.077
45574W        W10834   8.604  23.569   5.345
45575W        W10835   3.496  33.854  13.944
45576W        W10836  42.295  27.620   0.392
45577W        W10837  41.969  11.619  11.785
45578W        W10838  13.758   8.743   0.279
45579W        W10839  37.508  44.331  12.451
45580W        W10840  38.359   9.272   2.663
45581W        W10841  39.277  13.430   2.328
45582W        W10842  36.535  23.965  13.040
45583W        W10843  19.658  29.182   3.674
45584W        W10844  13.055  44.713  14.522
45585W        W10845  26.615   5.790   9.570
45586W        W10846  35.156  32.393  10.645
45587W        W10847  42.457   5.789   3.788
45588W        W10848  10.359  31.948   2.760
45589W        W10849  18.528  10.310   0.844
45590W        W10850  19.848  39.792  12.752
45591W        W10851  30.575  42.550  12.415
45592W        W10852  19.967   4.819   4.120
45593W        W10853  42.546   1.898  13.418
45594W        W10854   5.024   3.007   3.906
45595W        W10855  36.524  42.386   3.127
45596W        W10856   9.639  19.459   1.321
45597W        W10857  40.234   2.414   1.349
45598W        W10858   1.021  44.900   3.602
45599W        W10859  26.875  17.240  13.727
45600W        W10860  14.239  11.273  13.838
45601W        W10861  36.947  28.828  14.883
45602W        W10862  10.833  38.832  12.895
45603W        W10863  24.691   2.988  12.827
45604W        W10864  35.397  17.778   1.466
45605W        W10865  35.331  20.842  12.829
45606W        W10866  22.631  22.776   5.432
45607W        W10867   4.247  35.245  11.446
45608W        W10868  20.164  29.112  14.432
45609W        W10869  18.048   8.955  14.614
45610W        W10870  21.733  44.864   4.426
45611W        W10871  18.500  36.401  12.181
45612W        W10872  42.798  14.906  11.929
45613W        W10873  39.054  36.816   3.812
45614W        W10874  33.202  26.011   3.301
45615W        W10875  44.727  10.434   0.030
45616W        W10876  21.710  30.364   0.974
45617W        W10877  29.724   0.348   2.648
45618W        W10878  29.547  32.312   4.157
45619W        W10879   7.966   7.949   3.781
45620W        W10880  29.558  22.454   4.210
45621W        W10881  22.737  24.987   3.568
45622W        W10882   4.344  21.014   2.665
45623W        W10883  12.354  33.429  13.850
45624W        W10884  29.636  42.996   2.545
45625W        W10885   3.430  32.933   1.377
45626W        W10886  38.321  14.232   3.710
45627W        W10887  29.685  14.332   1.810
45628W        W10888  32.105  15.112  10.434
45629W        W10889   7.564  40.823  12.984
45630W        W10890  16.262   1.974   2.124
45631W        W10891  32.876  33.571  13.733
45632W        W10892  42.055  18.743  12.414
45633W        W10893  43.369  40.994  10.982
45634W        W10894  42.834  38.271   0.253
45635W        W10895  16.525   2.520   3.292
45636W        W10896  27.906  41.038  13.039
45637W        W10897   9.237  14.501   4.448
45638W        W10898  21.776  15.075  14.810
45639W        W10899  20.059   6.729   3.586
45640W        W10900  37.857  42.508  10.561
45641W        W10901  36.033  15.721  14.939
45642W        W10902   1.526   2.722  11.676
45643W        W10903  34.859  32.187   0.867
45644W        W10904   1.714  16.109   0.747
45645W        W10905  24.722  19.591  12.545
45646W        W10906  44.495  39.239   0.832
45647W        W10907   6.050  12.327   1.750
45648W        W10908  17.308  25.720  13.912
45649W        W10909  27.947  42.045  11.085
45650W        W10910  43.716  14.130  11.677
45651W        W10911   8.326  11.659  11.573
45652W        W10912  34.605  21.115  10.722
45653W        W10913   1.444   5.725   4.873
45654W        W10914  21.562  35.523  13.176
45655W        W10915  44.797  41.638  10.772
45656W        W10916   1.840  20.983  12.527
45657W        W10917  41.297  16.623   3.237
45658W        W10918  31.171  23.955   5.500
45659W        W10919  19.862  14.338  12.113
45660W        W10920  19.328  25.608   0.990
45661W        W10921  14.336  28.076  13.044
45662W        W10922  14.624   5.658   4.113
45663W        W10923  18.211  42.013  11.925
45664W        W10924   9.771  11.715   1.809
45665W        W10925  29.806  19.683  10.710
45666W        W10926  44.356   8.546   4.303
45667W        W10927  10.836   1.278   4.391
45668W        W10928  43.790  29.250  12.476
45669W        W10929   5.023  40.747   4.089
45670W        W10930  14.355  33.375  13.346
45671W        W10931  12.124  34.023   4.120
45672W        W10932  30.882  44.259   0.840
45673W        W10933  33.462  23.808  12.396
45674W        W10934  38.478  36.326  11.933
45675W        W10935  35.547  19.655  13.531
45676W        W10936   9.656  20.608  11.419
45677W        W10937   5.320  17.754  12.913
45678W        W10938  36.143   3.551  11.805
45679W        W10939  24.552  25.713  11.618
45680W        W10940  32.607  11.684  13.422
45681W        W10941  19.744  43.347   4.296
45682W        W10942  39.065   7.848   1.090
45683W        W10943  13.270  22.993   2.786
45684W        W10944  41.475   3.014   2.441
45685W        W10945   6.404  13.383  11.648
45686W        W10946  25.431  41.074   0.529
45687W        W10947  18.223  43.930  13.866
45688W        W10948  15.789   6.282   4.587
45689W        W10949   1.841  42.391   1.430
45690W        W10950  15.140  44.436  11.887
45691W        W10951  44.136   6.857   1.776
45692W        W10952  14.737  13.607  14.315
45693W        W10953  35.243  23.439   9.774
45694W        W10954  30.406  33.980  14.689
45695W        W10955  42.237  12.840  10.639
45696W        W10956  15.790   0.785  14.097
45697W        W10957  13.720   0.285   2.618
45698W        W10958   7.282  19.831  10.599
45699W        W10959   2.338  37.603   2.390
45700W        W10960  39.394  16.116  12.586
45701W        W10961  36.628  32.818  12.635
45702W        W10962  29.695  37.059  11.898
45703W        W10963   5.254  17.478   1.803
45704W        W10964   1.428  21.796  13.799
45705W        W10965   4.844   5.814  12.673
45706W        W10966  26.409  19.772   0.013
45707W        W10967  36.431   5.456  13.976
45708W        W10968   8.177  26.455   3.139
45709W        W10969  31.179  16.554   1.016
45710W        W10970  33.960   2.530  13.340
45711W        W10971  11.132  32.045   2.338
45712W        W10972  37.631  21.756  11.170
45713W        W10973  44.883   2.266   4.017
45714W        W10974   0.438  26.649   2.801
45715W        W10975  24.983  29.242  13.546
45716W        W10976  19.603   2.695   2.828
45717W        W10977  31.616  44.638   1.262
45718W        W10978  21.045  19.233   3.331
45719W        W10979   1.377  29.260  10.579
45720W        W10980   9.718  16.269   2.593
45721W        W10981   8.913  37.589  10.485
45722W        W10982  10.622   5.440  12.066
45723W        W10983  31.131  16.716   4.110
45724W        W10984  35.123  38.862   2.254
45725W        W10985   7.621  17.642  10.460
45726W        W10986   1.243   2.486   3.210
45727W        W10987  33.643   4.432  13.859
45728W        W10988  17.080  19.757   3.129
45729W        W10989   5.199  31.056   3.323
45730W        W10990  28.412  17.728   0.926
45731W        W10991  38.931  23.530  11.975
45732W        W10992   2.694  37.904   2.199
45733W        W10993  24.448   4.591  13.973
45734W        W10994  44.381  16.419   4.643
45735W        W10995  43.979  43.003  14.990
45736W        W10996  20.431  19.682   0.776
45737W        W10997   9.763  28.421  14.069
45738W        W10998  42.747   3.801   0.191
45739W        W10999  10.136  44.327   0.948
45740W        W11000  32.885  42.879  12.037
45741W        W11001  44.417  13.050  13.396
45742W        W11002  35.650  37.361   4.457
45743W        W11003  31.422  30.166   2.330
45744W        W11004  39.857  23.241  10.718
45745W        W11005  12.858  41.831  14.297
45746W        W11006  36.110   4.796  13.950
45747W        W11007   0.778  23.265  11.162
45748W        W11008  17.179   7.381   4.748
45749W        W11009  32.203  24.222  10.324
45750W        W11010  38.507   9.176   0.151
45751W        W11011  27.587  32.630   3.793
45752W        W11012  30.926  30.743   4.272
45753W        W11013  20.587  40.082  11.631
45754W        W11014   3.653   9.707  13.988
45755W        W11015  37.816  36.115   4.902
45756W        W11016   8.798  15.572  12.090
45757W        W11017  25.815  10.768  10.988
45758W        W11018  19.694  30.401   4.430
45759W        W11019  40.789  30.547  11.126
45760W        W11020  33.350  34.626  13.505
45761W        W11021  31.103   6.976  13.908
45762W        W11022  41.072  30.156   4.095
45763W        W11023  34.738  31.441   4.143
45764W        W11024  44.889  28.652   1.761
45765W        W11025  35.273  35.126   2.963
45766W        W11026  32.030  19.245  11.619
45767W        W11027  22.726  43.932  13.986
45768W        W11028  29.941  33.519  10.133
45769W        W11029  15.057   8.418   3.158
45770W        W11030  27.136  35.563   0.425
45771W        W11031  27.002  26.259  10.627
45772W        W11032  23.927  16.630   3.486
45773W        W11033   3.349  39.272   4.664
45774W        W11034  29.963  12.581  14.099
45775W        W11035  20.015   6.726  11.656
45776W        W11036   3.771  31.366  11.200
45777W        W11037  24.416   7.167   5.141
45778W        W11038  23.840  16.315  10.579
45779W        W11039  25.541  20.767  11.212
45780W        W11040  35.349  22.138   3.699
45781W        W11041  26.517  19.064   1.562
45782W        W11042  29.030   0.358   1.383
45783W        W11043  15.229  29.073   3.224
45784W        W11044   5.174  24.576   4.540
45785W        W11045  22.147  16.043   1.871
45786W        W11046  44.373   5.173   2.755
45787W        W11047  11.463   8.850  12.450
45788W        W11048   1.920  21.775  13.494
45789W        W11049  24.947   7.445   2.623
45790W        W11050  24.278  34.651  11.493
45791W        W11051  34.012  40.530   1.775
45792W        W11052  35.042   1.288  12.895
45793W        W11053  38.383   1.701  13.335
45794W        W11054   9.916  33.685   0.287
45795W        W11055   6.810   9.721   3.589
45796W        W11056  17.262  38.417   4.479
45797W        W11057   6.688  25.087   2.654
45798W        W11058   0.481  38.327  11.158
45799W        W11059   9.330   1.952  14.369
45800W        W11060  28.112  34.672  11.988
45801W        W11061  21.554  20.102   0.440
45802W        W11062  43.770  37.357  12.976
45803W        W11063  30.187  44.401  13.327
45804W        W11064  18.942   6.968   2.740
45805W        W11065  16.687   8.800  14.596
45806W        W11066  11.233  20.471  12.211
45807W        W11067  12.302   8.648  12.618
45808W        W11068  35.941  39.668  12.681
45809W        W11069  33.601  13.173   1.853
45810W        W11070  41.841  36.831   4.470
45811W        W11071  29.947  20.710  13.033
45812W        W11072  20.069   0.947   4.487
45813W        W11073  26.400  35.074  13.090
45814W        W11074  32.981  36.234   2.382
45815W        W11075  18.150  32.875   3.754
45816W        W11076  27.478   2.688   0.406
45817W        W11077  42.917  43.309  14.839
45818W        W11078  42.092  12.850  12.527
45819W        W11079  27.245  21.166   1.933
45820W        W11080  30.610  13.789  10.919
45821W        W11081  15.555  10.691  11.029
45822W        W11082   8.675  43.021   2.353
45823W        W11083  26.544  41.410  11.525
45824W        W11084  27.807   5.239   4.779
45825W        W11085  17.708  31.963  14.854
45826W        W11086  27.081  15.848  12.901
45827W        W11087  13.772  10.404   1.392
45828W        W11088  14.122  32.067  11.175
45829W        W11089  17.484  36.442  14.407
45830W        W11090  18.162  26.492  12.668
45831W        W11091  27.565  12.161   2.166
45832W        W11092  30.879   5.687   3.295
45833W        W11093  44.865  13.189   5.425
45834W        W11094  18.713  27.015  14.449
45835W        W11095   0.949  34.609   4.129
45836W        W11096   3.908  33.005   3.880
45837W        W11097  23.960  21.616   0.186
45838W        W11098  16.097  42.135   4.915
45839W        W11099  21.386  13.296   2.921
45840W        W11100  14.342  11.816  13.138
45841W        W11101  10.931  18.885  14.264
45842W        W11102   3.257  38.170   0.337
45843W        W11103  35.722  40.493  14.183
45844W        W11104  26.437  38.454  14.299
45845W        W11105  37.709   5.185  10.751
45846W        W11106   8.726  13.823  12.898
45847W        W11107  21.714  29.448   2.977
45848W        W11108  42.128  18.507  13.394
45849W        W11109  10.302  42.425   0.968
45850W        W11110  12.100  29.169   1.247
45851W        W11111   6.453  13.589  11.177
45852W        W11112   8.422   1.895  14.866
45853W        W11113   5.692   1.903  12.836
45854W        W11114  41.558  21.468   2.656
45855W        W11115  35.402  23.998  13.957
45856W        W11116  12.902  23.711  10.669
45857W        W11117  19.196   5.803  10.865
45858W        W11118   2.455   1.027   0.760
45859W        W11119  36.944  24.751   1.006
45860W        W11120  37.759  42.960  12.214
45861W        W11121   7.378  19.098  11.233
45862W        W11122  44.762   6.700  14.517
45863W        W11123  39.122  26.712  14.296
45864W        W11124  25.887   4.625  11.402
45865W        W11125  10.861  16.253   1.844
45866W        W11126  37.412  43.359   5.135
45867W        W11127  44.632  24.941  13.535
45868W        W11128  21.766  35.182   4.156
45869W        W11129  19.908   7.507   1.961
45870W        W11130  38.518  37.846  14.398
45871W        W11131  44.583  40.462   4.120
45872W        W11132  44.361   7.519   4.056
45873W        W11133   3.278  38.589  12.450
45874W        W11134  44.362   9.750  12.977
45875W        W11135  37.990  21.130   1.327
45876W        W11136  37.435  42.031  14.736
45877W        W11137  38.749  24.673   1.952
45878W        W11138   9.869  15.789   2.436
45879W        W11139   1.170  18.361  12.981
45880W        W11140  18.292  32.567   4.458
45881W        W11141   1.931  28.149  10.186
45882W        W11142  33.010   7.448  12.000
45883W        W11143  23.120  32.046   0.983
45884W        W11144  16.291  34.150   4.663
45885W        W11145  41.265  30.854  14.386
45886W        W11146  27.385  20.075   4.420
45887W        W11147  33.456  31.810   3.729
45888W        W11148  38.996  18.446  11.911
45889W        W11149  42.505   0.361   4.194
45890W        W11150  35.569  10.111  12.987
45891W        W11151  35.053  35.909  13.321
45892W        W11152  42.825  18.145  11.143
45893W        W11153   5.646  29.444  14.305
45894W        W11154   7.441   2.440   1.299
45895W        W11155  33.979  18.053  14.762
45896W        W11156  43.470  32.470  12.496
45897W        W11157  42.558  39.902   1.435
45898W        W11158  23.173  23.641   4.203
45899W        W11159  13.713  26.603   2.735
45900W        W11160  39.358   6.241   2.853
45901W        W11161  29.610   7.464   4.339
45902W        W11162  34.462  31.196   2.595
45903W        W11163  21.814   1.251   1.370
45904W        W11164  31.892  31.464  11.738
45905W        W11165   9.251  24.657  12.167
45906W        W11166   2.081   7.202   4.614
45907W        W11167  32.519   8.998   3.626
45908W        W11168  40.767  21.173   0.833
45909W        W11169  29.741   9.770   0.942
45910W        W11170  35.500  38.988  13.226
45911W        W11171  21.258  23.687   3.676
45912W        W11172  34.904  12.570   0.948
45913W        W11173  10.978  14.927   3.757
45914W        W11174   4.924  23.485  12.051
45915W        W11175  18.389   2.778  14.090
45916W        W11176  30.224   5.779  12.668
45917W        W11177  39.467   9.068  11.651
45918W        W11178  11.368  11.855   4.840
45919W        W11179   0.804  41.480   4.219
45920W        W11180   5.784   5.917  13.734
45921W        W11181   4.889   3.745   2.177
45922W        W11182   2.019  26.684  13.805
45923W        W11183  31.373  29.035  11.418
45924W        W11184   8.693  40.692  11.008
45925W        W11185  26.251  33.881   4.602
45926W        W11186  12.753  26.765   3.087
45927W        W11187  40.646  21.355  10.786
45928W        W11188  29.942  28.104  10.666
45929W        W11189  20.035  26.224   4.700
45930W        W11190  11.317  18.909   2.134
45931W        W11191  26.008   0.132  14.945
45932W        W11192   6.705  41.556   3.267
45933W        W11193   5.136   7.306   2.610
45934W        W11194  23.064  38.808  12.340
45935W        W11195  39.937   9.697   1.333
45936W        W11196  18.283   9.844  12.154
45937W        W11197  18.609  23.563  14.955
45938W        W11198   5.894   9.800   2.775
45939W        W11199  23.043  34.134  13.687
45940W        W11200  29.933  14.347  11.977
45941W        W11201  41.026  38.975  13.971
45942W        W11202  22.944   6.325   2.309
45943W        W11203  34.932  35.503   3.127
45944W        W11204  33.963  42.865  11.307
45945W        W11205  39.063  18.580   4.633
45946W        W11206  20.164  44.833  14.032
45947W        W11207  22.054  27.008  13.747
45948W        W11208  40.470  19.190   4.694
45949W        W11209  26.916   2.020   4.129
45950W        W11210   8.045  10.165  13.511
45951W        W11211  31.566  14.731   1.014
45952W        W11212  28.488  11.457   1.215
45953W        W11213  41.911  27.484   0.743
45954W        W11214  27.813  37.631   5.011
45955W        W11215   3.483   8.406   3.643
45956W        W11216  18.778  31.215   0.814
45957W        W11217  36.990  28.134   0.393
45958W        W11218  19.493  34.770  13.444
45959W        W11219  15.650   9.848   4.263
45960W        W11220   1.746  11.230  13.730
45961W        W11221  20.768   0.062  11.073
45962W        W11222   1.172  29.256  11.527
45963W        W11223  31.529  37.698  14.495
45964W        W11224  37.509  31.928   1.370
45965W        W11225  18.976  19.111  12.384
45966W        W11226  39.875  27.081   4.849
45967W        W11227  39.501  38.837   3.926
45968W        W11228   7.625  15.636   2.803
45969W        W11229  30.984  38.634  10.567
45970W        W11230   2.855  14.708  10.297
45971W        W11231  17.694  26.789  13.019
45972W        W11232   1.014   7.754   3.204
45973W        W11233  24.958  36.794  14.828
45974W        W11234  23.957  11.898   3.763
45975W        W11235  16.570  28.715  11.055
45976W        W11236  41.045   9.892   0.429
45977W        W11237  33.314  27.115  14.874
45978W        W11238  17.782  10.060   1.366
45979W        W11239  16.113  22.811  10.392
45980W        W11240  18.169  42.239  11.029
45981W        W11241  11.621  37.829  12.557
45982W        W11242  33.637  15.742   0.325
45983W        W11243  15.768  25.640  11.737
45984W        W11244  31.895  14.608  14.861
45985W        W11245  37.976   9.332  12.686
45986W        W11246  31.004  34.039  12.551
45987W        W11247  26.076   2.491  10.487
45988W        W11248   8.927  35.582  13.438
45989W        W11249  32.884  43.401  12.103
45990W        W11250  30.857  38.089  13.501
45991W        W11251   2.182  22.654   9.820
45992W        W11252  13.497  33.310   1.163
45993W        W11253  42.563   0.212   3.704
45994W        W11254  44.080  37.348   0.298
45995W        W11255  25.498  30.741   1.847
45996W        W11256   2.391  25.117   1.153
45997W        W11257  38.456   6.481   2.426
45998W        W11258  33.331   4.221   4.049
45999W        W11259  34.380  17.657  11.282
46000W        W11260  39.298  42.416   2.320
46001W        W11261   0.383  34.291  11.822
46002W        W11262  27.225  33.760  11.154
46003W        W11263  12.300   6.382  12.002
46004W        W11264  23.178   9.371  10.244
46005W        W11265  36.401  28.700   0.142
46006W        W11266  12.692   1.370  12.672
46007W        W11267  20.244   2.203  10.726
46008W        W11268  44.754  42.000   4.164
46009W        W11269  27.139   3.921  13.098
46010W        W11270  11.330  44.916   0.073
46011W        W11271   0.867   9.909   4.013
46012W        W11272  19.703   7.779   3.056
46013W        W11273  30.188   1.283   3.694
46014W        W11274  20.066  42.883  12.829
46015W        W11275   6.009  10.724  14.570
46016W        W11276  38.652  36.363  14.335
46017W        W11277  35.043  24.733  12.082
46018W        W11278  29.007   9.398  13.001
46019W        W11279  17.123   1.721   1.579
46020W        W11280  10.250  15.509   4.145
46021W        W11281  19.057   0.266   3.818
46022W        W11282  40.738  38.302   2.883
46023W        W11283  18.290   1.209  11.718
46024W        W11284  14.135  34.063  11.991
46025W        W11285  40.488  38.276   4.196
46026W        W11286  29.624  10.427  14.289
46027W        W11287  25.565  32.414  12.127
46028W        W11288  36.569  20.193   4.398
46029W        W11289   7.425  19.458   2.619
46030W        W11290  30.518   2.784  13.491
46031W        W11291  36.326  22.690   0.427
46032W        W11292   7.947   2.783  14.327
46033W        W11293  18.820   2.263  11.086
46034W        W11294  23.031   2.900  13.828
46035W        W11295  30.709  23.159   2.239
46036W        W11296  28.254  21.342  11.165
46037W        W11297  16.579   6.643  11.048
46038W        W11298  15.374   4.145   4.552
46039W        W11299  20.526  41.953  11.159
46040W        W11300  22.874  17.577  12.172
46041W        W11301  41.198  14.870   1.157
46042W        W11302  38.481   3.738  13.392
46043W        W11303  24.550   6.875  12.787
46044W        W11304  10.417  27.596   3.186
46045W        W11305  12.104   1.991  10.696
46046W        W11306  33.320  37.980   2.430
46047W        W11307  15.583  14.460  10.716
46048W        W11308  17.849   5.274  14.409
46049W        W11309  16.408   6.388   1.733
46050W        W11310  14.204   4.752   5.024
46051W        W11311  22.959  25.223   0.340
46052W        W11312  37.099  35.193  13.908
46053W        W11313  23.714  11.645  12.082
46054W        W11314  29.589   1.371   2.863
46055W        W11315  33.059   9.278  14.352
46056W        W11316  11.255  41.967   2.502
46057W        W11317  16.232   4.494   0.479
46058W        W11318  32.794  13.675  11.680
46059W        W11319   4.847  17.686   2.629
46060W        W11320  10.354  41.827  14.660
46061W        W11321   4.802  27.611   3.029
46062W        W11322   1.022  16.773   1.800
46063W        W11323  18.862  30.231  12.843
46064W        W11324  31.023  21.033  14.320
46065W        W11325  44.761  15.810   2.189
46066W        W11326   7.818   1.866  13.511
46067W        W11327  29.931  23.652   1.792
46068W        W11328  10.058   0.931  14.872
46069W        W11329  34.309  12.166   1.423
46070W        W11330  26.502  31.926   3.666
46071W        W11331  11.564   7.188  13.827
46072W        W11332  13.762  24.466   0.097
46073W        W11333  40.189  16.704   0.957
46074W        W11334  22.755  17.612   4.597
46075W        W11335  10.023  30.544  10.189
46076W        W11336  33.989  19.783  14.586
46077W        W11337  16.188   6.905   2.912
46078W        W11338  17.102   7.936   0.883
46079W        W11339  25.718  27.200  11.955
46080W        W11340  31.439  18.021  12.114
46081W        W11341  10.431  41.032   0.204
46082W        W11342  18.717   6.309   4.495
46083W        W11343  15.840  26.205  12.465
46084W        W11344  26.531   2.393   2.190
46085W        W11345  24.961  16.287  14.310
46086W        W11346  38.241  28.692  13.524
46087W        W11347  32.089  35.400  10.750
46088W        W11348  31.885   9.116   3.368
46089W        W11349  19.588  36.586   4.657
46090W        W11350  21.724  19.555   2.285
46091W        W11351  37.574  27.244  12.005
46092W        W11352  41.240  33.183  10.944
46093W        W11353   3.379  33.036  11.570
46094W        W11354  22.977  40.574   0.009
46095W        W11355  30.197  20.663  11.672
46096W        W11356   5.589  10.380  11.604
46097W        W11357  37.476   9.231   0.505
46098W        W11358  15.953   0.492  10.744
46099W        W11359  37.419  20.916   3.146
46100W        W11360  22.038  17.085   1.822
46101W        W11361  19.351  32.918   1.309
46102W        W11362   1.936   6.410   2.147
46103W        W11363  13.726  26.579  12.496
46104W        W11364  10.759  32.617   0.319
46105W        W11365  14.622  19.327   2.224
46106W        W11366  39.405  14.380   3.276
46107W        W11367  31.407  22.491   0.879
46108W        W11368  12.205  28.556   4.202
46109W        W11369   0.216   3.523  14.018
46110W        W11370  15.622   7.786  11.427
46111W        W11371  22.165  35.935  14.153
46112W        W11372  19.735  11.336   0.653
46113W        W11373  30.141  41.328   1.633
46114W        W11374  12.812  36.089   2.703
46115W        W11375   5.480   1.257   2.409
46116W        W11376  30.153  19.521   1.704
46117W        W11377  12.686  43.180  14.156
46118W        W11378  26.507  36.326   0.492
46119W        W11379  37.265  11.085   4.193
46120W        W11380  22.227  18.231  12.921
46121W        W11381  28.024  23.694  12.358
46122W        W11382  22.674   0.397  10.621
46123W        W11383  26.128  40.893  14.621
46124W        W11384   7.627   0.044  14.308
46125W        W11385  33.562  21.534   2.489
46126W        W11386  28.962  37.107   1.675
46127W        W11387  13.249  32.438  10.982
46128W        W11388  27.089  12.145   4.453
46129W        W11389  38.396  36.474   1.691
46130W        W11390  39.431  24.698  14.412
46131W        W11391  36.886   3.343  11.730
46132W        W11392  38.650  43.349  11.251
46133W        W11393   8.175   0.528  12.062
46134W        W11394   4.510  17.179   0.475
46135W        W11395  24.451  33.210   3.578
46136W        W11396  17.696  40.424   1.761
46137W        W11397  17.510  40.095  11.868
46138W        W11398  20.762  19.280   5.107
46139W        W11399  44.075  15.817  12.124
46140W        W11400  19.689  20.555  13.082
46141W        W11401  27.697  19.629  12.138
46142W        W11402  41.856  24.513   0.703
46143W        W11403  31.639  17.338  13.957
46144W        W11404  38.134  44.544   1.283
46145W        W11405  31.660  26.155   3.104
46146W        W11406   6.848  39.382  14.452
46147W        W11407  42.235   1.820  12.896
46148W        W11408   4.039   5.737   0.834
46149W        W11409   6.950  23.177   0.406
46150W        W11410  33.568   6.230   0.916
46151W        W11411  11.834  15.398   4.221
46152W        W11412  16.394  29.365  12.033
46153W        W11413  26.963  31.804  13.946
46154W        W11414  16.520  25.259  11.026
46155W        W11415  30.422   3.245  11.581
46156W        W11416  38.281  23.811   4.112
46157W        W11417  11.235  14.570   3.177
46158W        W11418  32.858  13.267  13.455
46159W        W11419  12.895  38.868  10.335
46160W        W11420   5.810  12.688   3.508
46161W        W11421  38.375   4.174   4.290
46162W        W11422   6.776  35.613   2.302
46163W        W11423  11.233  42.337   1.432
46164W        W11424   1.358  31.898   0.214
46165W        W11425  16.329   5.456  13.339
46166W        W11426   9.461   6.826  13.816
46167W        W11427  10.232   1.233  12.486
46168W        W11428  10.190  16.530   1.297
46169W        W11429  22.598  13.766   2.381
46170W        W11430  34.145  36.968   3.672
46171W        W11431  37.136   0.915  12.077
46172W        W11432  11.797  10.278  13.734
46173W        W11433   8.162   8.163  14.912
46174W        W11434   4.566   3.257   5.089
46175W        W11435  15.848  35.512   0.388
46176W        W11436  29.435  13.110  10.733
46177W        W11437  13.177  27.212   1.747
46178W        W11438  25.117  35.183  12.372
46179W        W11439  43.079  41.275  12.970
46180W        W11440  18.078  25.995   4.400
46181W        W11441  41.231   9.872  12.357
46182W        W11442  35.386  20.505  12.406
46183W        W11443   3.190   4.907  13.405
46184W        W11444  33.183  38.583  13.921
46185W        W11445  36.027   5.748  11.036
46186W        W11446  36.545  10.216  13.835
46187W        W11447  22.301  19.079  14.888
46188W        W11448  20.648  27.204   0.865
46189W        W11449  21.558  16.657   4.412
46190W        W11450   2.892   2.417  14.980
46191W        W11451  43.333   9.234  11.070
46192W        W11452  22.534  29.598   1.155
46193W        W11453  24.082  41.808  11.132
46194W        W11454   6.475  10.355  10.723
46195W        W11455   7.198  15.134  11.044
46196W        W11456  27.585  20.063  14.562
46197W        W11457  21.774  38.459  13.297
46198W        W11458  22.034  11.147   4.064
46199W        W11459  28.685  25.590  12.045
46200W        W11460   9.440  38.747   3.739
46201W        W11461   2.652  29.940   4.403
46202W        W11462  33.775   1.582   9.632
46203W        W11463  22.511  13.287  11.462
46204W        W11464  18.272  29.749  12.035
46205W        W11465  44.380   2.953  14.449
46206W        W11466  39.787  19.756   0.246
46207W        W11467  35.482   6.024   2.747
46208W        W11468  25.933  41.899  10.501
46209W        W11469  35.067  30.608  10.440
46210W        W11470  39.045   9.240   0.372
46211W        W11471  33.515  11.868   4.152
46212W        W11472  29.478  27.308   3.297
46213W        W11473  28.941   3.301   3.231
46214W        W11474  13.961  24.008  14.952
46215W        W11475  16.722  31.166  13.850
46216W        W11476  38.544  39.384   0.849
46217W        W11477  28.099  31.002   1.350
46218W        W11478  14.676  42.755   2.299
46219W        W11479   0.813  38.844   9.915
46220W        W11480  36.351   8.182  10.471
46221W        W11481  40.887  18.021  14.733
46222W        W11482  11.091  41.800   3.770
46223W        W11483   8.366  42.360  12.035
46224W        W11484  39.860  34.095   0.981
46225W        W11485   1.950  23.008  11.653
46226W        W11486   0.525  26.726  11.941
46227W        W11487  17.214  39.769  13.805
46228W        W11488  18.140  26.916   4.452
46229W        W11489   0.252  26.735  13.461
46230W        W11490  10.959  36.613  13.848
46231W        W11491  32.685  34.094   1.207
46232W        W11492  16.593  34.661   3.172
46233W        W11493  41.463  42.323   1.650
46234W        W11494  34.838   3.100   1.160
46235W        W11495  36.744  42.189  11.409
46236W        W11496  12.232   0.883  13.666
46237W        W11497  42.146  36.323   2.689
46238W        W11498  31.965   3.766   5.018
46239W        W11499  34.127  39.010   3.236
46240W        W11500  36.166  29.884  12.926
46241W        W11501  24.128  17.511  11.908
46242W        W11502  38.296   2.704   2.731
46243W        W11503   0.780  23.388   0.957
46244W        W11504  20.473  31.075   1.425
46245W        W11505  22.687  27.751   0.919
46246W        W11506  27.008  12.073   1.450
46247W        W11507   9.814  18.972   3.384
46248W        W11508  44.741  16.797  13.397
46249W        W11509  36.364  23.536   0.612
46250W        W11510   6.130   6.339  14.669
46251W        W11511  40.642  34.374  12.084
46252W        W11512  38.361   8.151  13.466
46253W        W11513  44.322  43.835  11.184
46254W        W11514   1.259  10.278  10.661
46255W        W11515  38.838  20.330   0.239
46256W        W11516   1.307  11.794  12.040
46257W        W11517  28.904  28.875  13.350
46258W        W11518  16.334   4.626   3.615
46259W        W11519  40.410   0.052   1.682
46260W        W11520  38.893  20.251  12.459
46261W        W11521  33.306  15.161   2.283
46262W        W11522   6.589  28.668   0.756
46263W        W11523   5.761  27.712  12.771
46264W        W11524  14.619  31.442  13.143
46265W        W11525  22.388  33.065   3.756
46266W        W11526   7.721  13.682   2.201
46267W        W11527  15.188  17.081   4.721
46268W        W11528   0.755   3.763  10.664
46269W        W11529  33.998  32.157  13.306
46270W        W11530  40.500  39.302   1.892
46271W        W11531  37.356  31.603  14.215
46272W        W11532  12.199  20.874   5.139
46273W        W11533  19.638  33.648   2.755
46274W        W11534  18.773  36.718  12.539
46275W        W11535  33.075  19.933   1.476
46276W        W11536  43.686  24.094   4.133
46277W        W11537   1.698  30.019  10.480
46278W        W11538  37.894  40.050  13.380
46279W        W11539  37.781  30.005  11.667
46280W        W11540  27.141  29.549   2.725
46281W        W11541  39.532   9.961   2.305
46282W        W11542  32.857   0.901  11.117
46283W        W11543  19.908  44.398   3.197
46284W        W11544  32.660  22.160  11.529
46285W        W11545  30.126  12.079   2.682
46286W        W11546   1.876  31.926   0.825
46287W        W11547  29.899  36.560   4.153
46288W        W11548  28.506  23.176  14.417
46289W        W11549  20.539   7.016   2.208
46290W        W11550  20.728   5.901  12.446
46291W        W11551  16.279  33.160   2.385
46292W        W11552  15.277  10.299   3.593
46293W        W11553  16.275  26.838   4.178
46294W        W11554   1.041  41.331   4.647
46295W        W11555  42.162  23.695   0.470
46296W        W11556  14.874  43.900  12.894
46297W        W11557  14.776   5.332   3.672
46298W        W11558  17.612  18.203   2.467
46299W        W11559  33.035  42.451   0.804
46300W        W11560  33.855  34.584  13.508
46301W        W11561   4.103  13.412  12.140
46302W        W11562  34.456  12.142   4.137
46303W        W11563  41.773  31.326   3.804
46304W        W11564   8.970  35.315  14.885
46305W        W11565  37.049  32.476   3.858
46306W        W11566  36.440  37.312  14.989
46307W        W11567  40.647  42.745   4.412
46308W        W11568  15.231   9.171   3.902
46309W        W11569   9.252  39.242   1.388
46310W        W11570  42.642  15.320  11.166
46311W        W11571  24.544  25.672   1.736
46312W        W11572  23.630  18.758   3.210
46313W        W11573  23.626  41.583  10.967
46314W        W11574   1.845  37.774   2.294
46315W        W11575  30.232  24.553   2.176
46316W        W11576   7.069  17.799   1.830
46317W        W11577  26.221   3.168  11.147
46318W        W11578  30.986  43.223   0.960
46319W        W11579  21.496  34.549  12.474
46320W        W11580  38.380  39.801  12.689
46321W        W11581  39.651  15.669   2.579
46322W        W11582   8.142  35.160   4.981
46323W        W11583   4.747   5.241  13.390
46324W        W11584  28.592  43.630   4.271
46325W        W11585  39.988   6.196   2.409
46326W        W11586   8.150  32.709  11.732
46327W        W11587  17.569   4.266  11.951
46328W        W11588  41.253  44.238  14.411
46329W        W11589  25.672   8.747   1.809
46330W        W11590  39.353  23.031  10.653
46331W        W11591   8.602  33.209  13.728
46332W        W11592  27.918  44.343   2.174
46333W        W11593  31.961  11.627  12.917
46334W        W11594  43.455  41.810   4.321
46335W        W11595   1.209  10.888   4.076
46336W        W11596  20.066  23.511  12.377
46337W        W11597  38.998  27.214  10.389
46338W        W11598  10.331  33.420   3.667
46339W        W11599  29.066  37.853  12.133
46340W        W11600  20.039   8.378  11.525
46341W        W11601  20.596  41.313  12.953
46342W        W11602  24.349  30.742   4.530
46343W        W11603   1.522   6.802  12.196
46344W        W11604  42.899   3.328   2.277
46345W        W11605  35.385  36.556  13.824
46346W        W11606  10.457  20.204   2.286
46347W        W11607  23.055  32.873   2.822
46348W        W11608   8.382   3.977  14.336
46349W        W11609  26.449  38.963  11.424
46350W        W11610   8.352  17.695   0.230
46351W        W11611  20.325  34.908  12.874
46352W        W11612  37.888  36.605  14.936
46353W        W11613  30.536  23.348   1.256
46354W        W11614  35.845   5.857   0.269
46355W        W11615   9.405  41.354   1.249
46356W        W11616  17.926  17.771   5.056
46357W        W11617   3.690  25.554  14.231
46358W        W11618   7.909   6.380  11.180
46359W        W11619  35.188   6.332   2.429
46360W        W11620  14.216   0.727   3.608
46361W        W11621  18.693  40.491  14.512
46362W        W11622  33.622  26.239  13.532
46363W        W11623   0.836  28.408   0.439
46364W        W11624  23.281  32.882   4.642
46365W        W11625  29.598   3.850  14.522
46366W        W11626  22.756  32.444   1.196
46367W        W11627  40.216  12.627  13.865
46368W        W11628   2.278  19.199   3.876
46369W        W11629  33.886  37.141  13.948
46370W        W11630  33.708  22.567   1.262
46371W        W11631   1.980  37.960  12.101
46372W        W11632   8.485  15.517   2.346
46373W        W11633  18.187  15.190   4.077
46374W        W11634  30.709   6.832   3.679
46375W        W11635   7.399  21.795   3.820
46376W        W11636  38.940  17.095  14.384
46377W        W11637  40.989  39.604   0.897
46378W        W11638   5.897  10.132  11.969
46379W        W11639  32.824   2.807   3.378
46380W        W11640  43.297  35.323  13.457
46381W        W11641  24.687  37.632   1.355
46382W        W11642  44.816  27.620  14.210
46383W        W11643  26.672  25.470   0.427
46384W        W11644   9.652  32.900  11.158
46385W        W11645  38.085  21.147  14.342
46386W        W11646  26.614   0.855   2.398
46387W        W11647   6.128  16.748   2.178
46388W        W11648   0.504  43.002   3.531
46389W        W11649  21.019  38.040  11.525
46390W        W11650   1.376   8.676   1.297
46391W        W11651  35.912  43.634   1.208
46392W        W11652   1.942  25.197  12.087
46393W        W11653  43.729  13.428  11.168
46394W        W11654  26.025  22.223   3.350
46395W        W11655   2.345   9.674  10.991
46396W        W11656   1.307   9.226  13.916
46397W        W11657  11.607  30.220   0.026
46398W        W11658   2.218   7.447  14.333
46399W        W11659  44.241   2.126   3.422
46400W        W11660  21.548   4.181   5.401
46401W        W11661   0.578  40.352   3.113
46402W        W11662  15.726  31.411  13.118
46403W        W11663  38.521   5.197   4.752
46404W        W11664   3.101   4.040   0.432
46405W        W11665  15.165  42.632   4.898
46406W        W11666   3.478  28.663  14.400
46407W        W11667  27.834  38.274   2.164
46408W        W11668  29.034  24.483  14.413
46409W        W11669   6.398  18.460  13.016
46410W        W11670   1.478  37.454  11.617
46411W        W11671  13.717  40.201   0.458
46412W        W11672  10.447  40.945  11.596
46413W        W11673  13.623  44.840  14.796
46414W        W11674  16.129  30.176   4.821
46415W        W11675  16.350  20.540  12.953
46416W        W11676   8.129  35.420  12.464
46417W        W11677  37.641  14.723   1.361
46418W        W11678  12.469  17.768  12.947
46419W        W11679  27.556  21.770   0.751
46420W        W11680  42.001  42.068  13.088
46421W        W11681  41.068  39.039   3.330
46422W        W11682   3.468  38.524  13.464
46423W        W11683   8.645  13.408   0.738
46424W        W11684  29.977  28.685   2.783
46425W        W11685   9.225  10.762  12.497
46426W        W11686  15.163  18.246   2.653
46427W        W11687  39.775   9.847  12.101
46428W        W11688  41.532  10.124   3.756
46429W        W11689  19.609   4.339  13.542
46430W        W11690  33.982  18.233   3.449
46431W        W11691  28.766  14.721   2.536
46432W        W11692   4.946  28.501  11.175
46433W        W11693  25.986   9.453   2.134
46434W        W11694  19.586  41.421   4.789
46435W        W11695   1.814   0.053   3.218
46436W        W11696  32.815  41.501  13.204
46437W        W11697  12.337  39.087  12.439
46438W        W11698  27.603  21.474   3.970
46439W        W11699  30.487  39.052   3.317
46440W        W11700   5.390  15.629  14.761
46441W        W11701  38.419  20.515  11.330
46442W        W11702  21.629   2.920  11.918
46443W        W11703  43.272  30.468   2.479
46444W        W11704  30.622  14.609  12.053
46445W        W11705  21.950  13.913   3.762
46446W        W11706   5.237  21.147  10.682
46447W        W11707  42.553  44.238  14.007
46448W        W11708   4.967  28.612   0.233
46449W        W11709   6.745  43.328   4.502
46450W        W11710  25.460  23.524  10.960
46451W        W11711  33.509  14.238   2.769
46452W        W11712  24.899  42.796   0.626
46453W        W11713  38.932  25.126  10.159
46454W        W11714  29.856  17.231  11.889
46455W        W11715   8.099  11.150  13.362
46456W        W11716  40.847  19.328  11.626
46457W        W11717  33.553   9.716   0.409
46458W        W11718   1.512   1.732  11.337
46459W        W11719  15.820  19.764  12.862
46460W        W11720  44.986  14.646  11.753
46461W        W11721  10.164   4.850  14.742
46462W        W11722  31.173  11.514   4.045
46463W        W11723   2.164  16.356  14.879
46464W        W11724  44.797  40.987  12.824
46465W        W11725   2.871  12.508  12.054
46466W        W11726  28.096   0.960  12.876
46467W        W11727  37.180   5.100  10.807
46468W        W11728  41.893   9.761   4.703
46469W        W11729   4.701  21.178  12.931
46470W        W11730  27.201  13.951   4.546
46471W        W11731  32.654   0.244   4.269
46472W        W11732  28.139  13.538   0.492
46473W        W11733  14.819  25.468  13.841
46474W        W11734  12.883  19.949  13.008
46475W        W11735  20.843   5.252  13.069
46476W        W11736  20.117  30.967   1.813
46477W        W11737   7.832  31.911   4.507
46478W        W11738  44.868  20.130  14.396
46479W        W11739  20.097  16.082  14.503
46480W        W11740  35.598  44.344   4.013
46481W        W11741  31.939  33.312  10.354
46482W        W11742  31.659  36.888   1.411
46483W        W11743  28.995  31.039   3.157
46484W        W11744   9.566   8.933  11.725
46485W        W11745  44.345  19.177  14.021
46486W        W11746   7.198  41.501  11.230
46487W        W11747  40.921  32.837  12.119
46488W        W11748  14.654   4.138  12.093
46489W        W11749  14.713  34.649   1.843
46490W        W11750  38.848  40.932   4.224
46491W        W11751  13.080  44.731   3.496
46492W        W11752  31.593  21.281   3.217
46493W        W11753   9.859  16.595  12.124
46494W        W11754   6.775   1.565   2.819
46495W        W11755  39.909  38.304  11.097
46496W        W11756  27.728  12.074   1.190
46497W        W11757  28.635   0.538  11.848
46498W        W11758   3.330  35.836   0.989
46499W        W11759  11.146  27.736  13.767
46500W        W11760  43.325  42.897   3.330
46501W        W11761  36.270  28.272   0.930
46502W        W11762  33.930   0.023  14.080
46503W        W11763  41.980  26.748  10.614
46504W        W11764  42.636  31.679  12.090
46505W        W11765  36.079  30.012   4.116
46506W        W11766  28.713  23.461   3.651
46507W        W11767  26.146  40.457   2.643
46508W        W11768  22.733  22.952   2.363
46509W        W11769  14.692   0.738   3.347
46510W        W11770  23.831  24.309   1.173
46511W        W11771  29.628  29.153  13.974
46512W        W11772  23.683  14.612   1.668
46513W        W11773  34.718  32.000  14.948
46514W        W11774   0.211  42.089  14.720
46515W        W11775   0.044  29.383  13.078
46516W        W11776  12.340  28.598  10.688
46517W        W11777  34.999  39.141  14.479
46518W        W11778  24.305   6.747   0.124
46519W        W11779   5.129  43.370  10.593
46520W        W11780   0.955  42.273   1.277
46521W        W11781  30.161  37.895  13.008
46522W        W11782  22.428  29.377  11.775
46523W        W11783   4.687  10.389   2.302
46524W        W11784  21.273  38.952   2.607
46525W        W11785  10.251  22.310  14.463
46526W        W11786  24.294   2.943  12.499
46527W        W11787  24.025  27.546   2.327
46528W        W11788   9.659  19.975  13.052
46529W        W11789  13.714  24.851   2.487
46530W        W11790  43.292  16.272  11.908
46531W        W11791  29.454  25.234  11.521
46532W        W11792  43.935  23.019  12.566
46533W        W11793  31.553  15.771   4.211
46534W        W11794  16.594   1.915   3.934
46535W        W11795  30.320  26.953  14.164
46536W        W11796  41.988  14.012  14.366
46537W        W11797  37.801  27.927   2.439
46538W        W11798  17.155   8.269  10.992
46539W        W11799   2.186   2.284  12.455
46540W        W11800  10.326  33.830  11.091
46541W        W11801  30.901  31.432   1.667
46542W        W11802  11.252  36.272  13.526
46543W        W11803  14.515  39.626   3.655
46544W        W11804  27.059  44.743   2.276
46545W        W11805  41.323  35.985  11.600
46546W        W11806  37.461  42.474   4.664
46547W        W11807  30.514   0.498   2.442
46548W        W11808  34.947  15.068   3.216
46549W        W11809  38.583  17.142  13.539
46550W        W11810   2.429   1.231   2.195
46551W        W11811  23.607  22.787  11.087
46552W        W11812  16.489  40.376  14.423
46553W        W11813  19.670  33.047  10.729
46554W        W11814  20.203   5.788  10.763
46555W        W11815  32.964  22.598  14.813
46556W        W11816  10.317  29.660  11.196
46557W        W11817  16.805  19.070  14.607
46558W        W11818  24.249  24.750   4.947
46559W        W11819  31.859   4.483   4.596
46560W        W11820   4.897   7.216   1.250
46561W        W11821  43.755  35.544   2.868
46562W        W11822  44.691  42.435   0.283
46563W        W11823  17.232   8.768  12.520
46564W        W11824   6.980  27.948  12.606
46565W        W11825  33.472   2.316  11.614
46566W        W11826   1.865  21.821   1.798
46567W        W11827   1.734  12.832   0.343
46568W        W11828  34.287  39.421  10.906
46569W        W11829  22.286   9.165   3.243
46570W        W11830   2.297  20.282  10.614
46571W        W11831   6.631  36.795  13.029
46572W        W11832  13.235  19.536  13.559
46573W        W11833   9.931   0.565   4.498
46574W        W11834   2.365  35.196  11.537
46575W        W11835  34.957  34.889  12.348
46576W        W11836   8.682   0.724  12.899
46577W        W11837  44.088  29.062  13.325
46578W        W11838  15.913  27.956  13.001
46579W        W11839  41.400  30.542   0.183
46580W        W11840   5.124  36.278  11.589
46581W        W11841  38.384   5.806  14.892
46582W        W11842   1.595  32.019  11.034
46583W        W11843  34.937  24.465   1.538
46584W        W11844  14.735  39.005   4.994
46585W        W11845   1.239  42.843   1.829
46586W        W11846  13.180  27.008   3.360
46587W        W11847  42.441  26.412  10.699
46588W        W11848  16.082   3.254   0.751
46589W        W11849  44.423  25.011  14.418
46590W        W11850  11.687   2.633  11.887
46591W        W11851  24.248  20.022   3.267
46592W        W11852  37.182  11.675   0.796
46593W        W11853  30.894   5.418   3.809
46594W        W11854  12.125  11.926  11.343
46595W        W11855  16.839  30.078   2.778
46596W        W11856  22.298  32.649   0.301
46597W        W11857  27.905  44.859  11.527
46598W        W11858  32.662   5.380   1.365
46599W        W11859  11.714  37.575  14.298
46600W        W11860  42.144  25.032  14.440
46601W        W11861  23.338  27.152   4.936
46602W        W11862  40.852  10.943   2.829
46603W        W11863  37.989  40.406   4.829
46604W        W11864  22.199  10.204   2.613
46605W        W11865  41.611   6.437   2.687
46606W        W11866  15.247   3.103  11.484
46607W        W11867   8.136  19.355  10.683
46608W        W11868  17.564  32.829  12.105
46609W        W11869  37.489  36.837  14.618
46610W        W11870  33.701   3.017  10.943
46611W        W11871  44.429  30.701   2.598
46612W        W11872  11.072  32.478  10.442
46613W        W11873  19.615  21.463  13.385
46614W        W11874   6.252  14.282  13.253
46615W        W11875  40.828  21.529  13.953
46616W        W11876  29.218  33.109  13.314
46617W        W11877  27.261  31.013   0.263
46618W        W11878   0.760  44.305  11.548
46619W        W11879  36.391  11.453   0.844
46620W        W11880  30.781  31.794  10.389
46621W        W11881  21.478  20.103   9.905
46622W        W11882  39.914  41.939   3.623
46623W        W11883  13.665   9.884   1.439
46624W        W11884  23.659  33.592   3.280
46625W        W11885  44.730  25.309  11.180
46626W        W11886  20.583  22.126   4.227
46627W        W11887  32.505  10.435   0.009
46628W        W11888  19.789  12.660   2.374
46629W        W11889  24.498  38.478   2.042
46630W        W11890  20.703  19.655   3.410
46631W        W11891   7.606   9.324   0.371
46632W        W11892  18.507  42.103   1.798
46633W        W11893  12.549  17.252   4.264
46634W        W11894  25.760   2.664   3.677
46635W        W11895  39.503  39.592   2.697
46636W        W11896   1.752  13.121  13.023
46637W        W11897  10.452  24.186   4.036
46638W        W11898  26.571  21.685  10.959
46639W        W11899   9.208   9.051  10.872
46640W        W11900  32.157  28.423  14.151
46641W        W11901   1.885  16.366  14.423
46642W        W11902  40.514  31.926  12.052
46643W        W11903  23.017  43.921  13.279
46644W        W11904  43.219  44.464  13.368
46645W        W11905   5.731  11.700  10.549
46646W        W11906  14.729  32.076   1.813
46647W        W11907  10.056  16.574  10.992
46648W        W11908   6.340   8.699   2.158
46649W        W11909  16.563  38.089  10.551
46650W        W11910   0.885  22.056   1.176
46651W        W11911  32.501  13.832  14.258
46652W        W11912  15.159  35.183  13.840
46653W        W11913  35.329  22.301   0.641
46654W        W11914  19.640   9.281  11.072
46655W        W11915  36.533   2.939   2.316
46656W        W11916  20.237   3.927   3.179
46657W        W11917  35.822  18.817  12.492
46658W        W11918  23.678   0.966  14.315
46659W        W11919   1.790  11.153   9.775
46660W        W11920  35.880   1.921   0.457
46661W        W11921  17.273  14.870  13.028
46662W        W11922  20.098   4.958   3.260
46663W        W11923  31.104   4.636   3.168
46664W        W11924  31.507   2.084   4.716
46665W        W11925  28.286  15.829   3.823
46666W        W11926   2.118  31.801   3.244
46667W        W11927  40.140   8.859  11.680
46668W        W11928  34.042   9.256   4.517
46669W        W11929  42.267  17.711  10.746
46670W        W11930   6.686  44.828   1.800
46671W        W11931  43.867  10.936   2.210
46672W        W11932   3.029  25.481   1.613
46673W        W11933  24.646  44.791   0.870
46674W        W11934  32.887  30.186   1.135
46675W        W11935   7.734  32.865  14.360
46676W        W11936  13.938  41.744   0.292
46677W        W11937  18.244  13.707  11.127
46678W        W11938  25.769  34.071  14.432
46679W        W11939   4.914  40.524   4.571
46680W        W11940  41.982  42.532   1.560
46681W        W11941  14.335   3.135   4.351
46682W        W11942  35.761  28.969   1.594
46683W        W11943   2.505  32.982   3.174
46684W        W11944  38.693  40.818   1.866
46685W        W11945   9.912  12.382  14.210
46686W        W11946  40.994  16.536   2.810
46687W        W11947  44.358   9.448   3.587
46688W        W11948   7.776   2.428  11.205
46689W        W11949  15.239  37.996   0.876
46690W        W11950  34.087  31.682   3.422
46691W        W11951   6.358  21.957  14.887
46692W        W11952  26.186  20.971  13.735
46693W        W11953  34.994  29.175  12.087
46694W        W11954  14.788  25.258   3.092
46695W        W11955  21.734  12.535  14.146
46696W        W11956   7.816  44.791  10.860
46697W        W11957  22.110  36.962   1.727
46698W        W11958  24.989  16.673   0.496
46699W        W11959  26.933   1.116   2.771
46700W        W11960  27.529   8.730  10.597
46701W        W11961   0.457   1.887   3.663
46702W        W11962  35.877  20.242   0.497
46703W        W11963  44.000  42.504  14.272
46704W        W11964   4.071  33.589   2.835
46705W        W11965  44.413  18.086  12.527
46706W        W11966  13.287  40.592  10.561
46707W        W11967  23.604  37.682   5.142
46708W        W11968  30.466  11.776  13.003
46709W        W11969  17.185  12.182  12.484
46710W        W11970  38.720  34.682   4.125
46711W        W11971  18.062  15.884   4.173
46712W        W11972  16.317  31.171  11.105
46713W        W11973  26.950  40.810   2.626
46714W        W11974   8.650  37.480   4.380
46715W        W11975  14.650  23.275  11.984
46716W        W11976  10.517   8.846  12.814
46717W        W11977  21.748  35.025  12.416
46718W        W11978   6.229   8.252  12.363
46719W        W11979  30.000  42.365  10.665
46720W        W11980  12.165  27.499  14.791
46721W        W11981   5.007  22.835  14.973
46722W        W11982   8.705  12.324   4.570
46723W        W11983  28.133  11.173   2.987
46724W        W11984   0.389  31.222   2.385
46725W        W11985  11.940   1.308   0.836
46726W        W11986  31.981  23.943  12.582
46727W        W11987  32.410   4.667   2.053
46728W        W11988  32.076  42.056  13.896
46729W        W11989   1.542  24.018   4.571
46730W        W11990  17.086  40.821  12.051
46731W        W11991  18.344  43.305   4.124
46732W        W11992   8.356   4.454   2.272
46733W        W11993   4.625  12.794   2.480
46734W        W11994  36.984  31.268  13.338
46735W        W11995   3.351  14.062   1.705
46736W        W11996  33.058  12.500   3.692
46737W        W11997  19.783  32.137  14.229
46738W        W11998  30.081  41.750  14.424
46739W        W11999  18.976  31.632  13.746
46740W        W12000  28.524  30.155  13.552
46741W        W12001   3.039  36.968  11.398
46742W        W12002  24.492  34.424  11.890
46743W        W12003   0.687  19.649   0.566
46744W        W12004  28.555   7.098  12.545
46745W        W12005  16.819  39.352  10.534
46746W        W12006   9.036  31.946   0.412
46747W        W12007  36.548  35.068   1.380
46748W        W12008  23.614  24.001   0.159
46749W        W12009  40.958   4.948  14.889
46750W        W12010  22.299  29.052   4.731
46751W        W12011  28.532  17.564   3.654
46752W        W12012   0.131  21.001   1.716
46753W        W12013  25.377  33.653   2.447
46754W        W12014  15.306  14.773   4.513
46755W        W12015   2.230   8.648   3.401
46756W        W12016   6.688  14.153  12.987
46757W        W12017  18.907  33.417  10.653
46758W        W12018   5.835  39.341  14.439
46759W        W12019   5.705  16.305   3.063
46760W        W12020  44.300  13.914  10.711
46761W        W12021  11.276   8.835   2.338
46762W        W12022  34.742  17.174  11.305
46763W        W12023  31.988  21.066  13.285
46764W        W12024  14.105   4.843   3.147
46765W        W12025  17.773  21.193   1.264
46766W        W12026  10.299  36.897  11.037
46767W        W12027   8.873  10.570  12.868
46768W        W12028  31.407  34.349  11.423
46769W        W12029  35.500  44.685   0.855
46770W        W12030  19.757   7.876  12.841
46771W        W12031   7.356  43.267   3.841
46772W        W12032   1.332  19.421   2.702
46773W        W12033  12.656  13.569   3.275
46774W        W12034  32.516  33.914   1.657
46775W        W12035  42.615  31.490  11.132
46776W        W12036  11.750  35.926   1.104
46777W        W12037  13.684   5.410   1.583
46778W        W12038   4.762   4.837  14.342
46779W        W12039  35.473   8.169  11.475
46780W        W12040  36.632   3.291   2.796
46781W        W12041  10.400   2.289  10.375
46782W        W12042  29.734  32.122   2.360
46783W        W12043  30.386  17.109  13.692
46784W        W12044  24.659   3.165  13.393
46785W        W12045   2.349  14.617   4.112
46786W        W12046   7.305   8.420   2.653
46787W        W12047  33.511  30.970  14.901
46788W        W12048  23.896  30.618   2.280
46789W        W12049   5.637  39.817  10.646
46790W        W12050  17.640  11.371   3.119
46791W        W12051  27.518  43.203   2.176
46792W        W12052  37.027  28.193   4.169
46793W        W12053  22.346  15.281  14.815
46794W        W12054  29.850  16.803   4.565
46795W        W12055  24.759  40.082  11.031
46796W        W12056  28.926  35.342  13.125
46797W        W12057  15.309  41.108  10.560
46798W        W12058  14.114   1.541   1.419
46799W        W12059  22.186   6.318  13.467
46800W        W12060  28.709  36.112  10.670
46801W        W12061  23.208  25.980  13.334
46802W        W12062  36.448  33.044   4.159
46803W        W12063  13.725   0.706   1.357
46804W        W12064  11.796  24.648   4.452
46805W        W12065   0.435  19.308   0.294
46806W        W12066   5.666  43.280   3.187
46807W        W12067   0.943  15.798   3.342
46808W        W12068  16.295  18.934  13.333
46809W        W12069  32.642   7.338   2.350
46810W        W12070  31.809  25.282  13.413
46811W        W12071  17.583  29.910   3.231
46812W        W12072  15.206  23.081   1.895
46813W        W12073  23.518  37.372  11.659
46814W        W12074   6.844  26.456   0.463
46815W        W12075  41.868  26.045  11.542
46816W        W12076  17.572   9.729  10.502
46817W        W12077  20.769  38.797  14.930
46818W        W12078   6.202  39.307   3.021
46819W        W12079  38.251   4.245   1.854
46820W        W12080   2.914  34.051  12.100
46821W        W12081  13.223  22.148   3.832
46822W        W12082  38.944  44.508   1.919
46823W        W12083  24.518   1.506   1.254
46824W        W12084  26.679   1.895   2.168
46825W        W12085  27.117  29.759   4.051
46826W        W12086  28.166  40.535  13.206
46827W        W12087  35.027  32.659   0.718
46828W        W12088  44.039   1.873  11.609
46829W        W12089   9.389  26.703  12.515
46830W        W12090   3.727  37.491  14.898
46831W        W12091  22.039   8.582   1.154
46832W        W12092   4.799  13.644  13.859
46833W        W12093  38.864  40.061  11.039
46834W        W12094   2.523  23.126  13.906
46835W        W12095  18.534  28.646   4.515
46836W        W12096  22.557  39.022   4.042
46837W        W12097  19.303  43.319  14.463
46838W        W12098   8.993   8.896  12.587
46839W        W12099  42.089  30.526   0.760
46840W        W12100  11.363  42.927   2.832
46841W        W12101  28.419  29.945  13.054
46842W        W12102  42.018   4.866   0.442
46843W        W12103  41.305   7.797   1.213
46844W        W12104   8.904  14.963  10.788
46845W        W12105  18.202  24.275   0.816
46846W        W12106   6.161  27.000  11.544
46847W        W12107  11.729  26.255  13.064
46848W        W12108  16.374  33.019  11.105
46849W        W12109   0.561  21.794   0.202
46850W        W12110  40.066  23.086   3.672
46851W        W12111  21.333  27.002  14.582
46852W        W12112  23.640  28.561   3.638
46853W        W12113  11.178  26.712  12.554
46854W        W12114  36.266  43.390   3.116
46855W        W12115  28.784  12.545   4.531
46856W        W12116  13.418  42.055  11.333
46857W        W12117   4.295  23.201   0.865
46858W        W12118  21.460  32.567  14.876
46859W        W12119  34.519  25.714   3.270
46860W        W12120   7.948  23.073   2.372
46861W        W12121   6.407  42.472   1.250
46862W        W12122  13.832   6.373   2.827
46863W        W12123  36.990  32.229  10.172
46864W        W12124  18.775   0.497   0.499
46865W        W12125  38.361  36.811  14.996
46866W        W12126  25.413  39.848   5.346
46867W        W12127  42.055  19.132  13.073
46868W        W12128   7.368  27.497  11.100
46869W        W12129  20.136  18.253  12.730
46870W        W12130  19.332  24.284  11.104
46871W        W12131  26.730  42.429   3.218
46872W        W12132  37.368  19.370  11.038
46873W        W12133  41.762  18.275  13.665
46874W        W12134   0.809  35.266  12.848
46875W        W12135  19.581   1.324   1.880
46876W        W12136  14.824  31.679  12.130
46877W        W12137  24.774  27.046   1.193
46878W        W12138  18.473  14.889   0.380
46879W        W12139  25.681  10.724  14.912
46880W        W12140  30.492   1.795   0.334
46881W        W12141  36.565  23.580   1.266
46882W        W12142  22.567  26.637   2.560
46883W        W12143  25.720  18.498  14.770
46884W        W12144  31.907   2.728   0.976
46885W        W12145  30.614  37.661  12.893
46886W        W12146  16.855   0.488  12.570
46887W        W12147  36.848   1.168  14.347
46888W        W12148  42.221  32.563  11.828
46889W        W12149  29.998  27.792  11.069
46890W        W12150  34.134  34.781  13.916
46891W        W12151  28.691  24.840   3.744
46892W        W12152  13.558   5.850  13.511
46893W        W12153  16.359   1.361  10.606
46894W        W12154   6.784  20.584  12.649
46895W        W12155  26.321  36.592   0.041
46896W        W12156  44.394  31.298  11.303
46897W        W12157  25.911  11.311  14.418
46898W        W12158   7.931  17.376   1.627
46899W        W12159  18.060   2.913  10.728
46900W        W12160  30.472  13.017   2.047
46901W        W12161  35.123  24.184  11.323
46902W        W12162  27.641  38.988  13.810
46903W        W12163  44.069  38.888   2.674
46904W        W12164   8.541  30.481   5.046
46905W        W12165  37.524  10.367  11.593
46906W        W12166   6.641   7.337  14.787
46907W        W12167  33.673  27.513  14.927
46908W        W12168  10.715  27.649  12.110
46909W        W12169  26.071  44.648   2.336
46910W        W12170  13.755  15.074   2.862
46911W        W12171  19.341  25.215   2.741
46912W        W12172  16.708  44.296  12.966
46913W        W12173  38.788  21.347   4.148
46914W        W12174   2.913   3.408   3.950
46915W        W12175  14.157  18.152  13.690
46916W        W12176   3.258  15.623   3.795
46917W        W12177  14.323  17.777   2.749
46918W        W12178  44.800  32.129  12.950
46919W        W12179  37.082   8.854  13.524
46920W        W12180  13.618  17.691  12.499
46921W        W12181  21.941  22.538   4.186
46922W        W12182   1.850   4.880  10.104
46923W        W12183  42.549   6.833  13.852
46924W        W12184  23.581   5.521   3.219
46925W        W12185  12.364   1.681   1.640
46926W        W12186   5.665  30.484  11.601
46927W        W12187  30.952  31.432  13.797
46928W        W12188  13.089  17.720  10.974
46929W        W12189  42.160   8.956  10.244
46930W        W12190  35.641  25.073   3.325
46931W        W12191  37.776  38.519   3.856
46932W        W12192  30.209  13.736   1.602
46933W        W12193  24.691  33.977   2.315
46934W        W12194   1.179  18.598  12.514
46935W        W12195  35.075  44.413  14.876
46936W        W12196   3.737  26.440   2.813
46937W        W12197   3.893  40.327   2.316
46938W        W12198  24.456  38.884  13.525
46939W        W12199  22.382  36.867   0.930
46940W        W12200  20.303  13.961  11.066
46941W        W12201   3.228  30.020  11.054
46942W        W12202  25.191  38.449  11.911
46943W        W12203  32.878  15.281  14.470
46944W        W12204  32.567  25.551  12.010
46945W        W12205   4.869  26.995   0.408
46946W        W12206  33.418  28.590  11.230
46947W        W12207  19.313  38.460  14.914
46948W        W12208  25.526   3.493   3.225
46949W        W12209  40.995  31.584  14.725
46950W        W12210  42.314  14.576  14.423
46951W        W12211  43.373  21.537   0.025
46952W        W12212  34.106  30.837  14.344
46953W        W12213  32.506  18.236  11.282
46954W        W12214  44.627  42.662  11.695
46955W        W12215  12.845   4.654  13.999
46956W        W12216  15.681  34.787   4.577
46957W        W12217  33.358   0.365   5.037
46958W        W12218  22.007   1.997   2.110
46959W        W12219  40.540  18.254   2.423
46960W        W12220  24.724  30.752  14.482
46961W        W12221  17.269   1.787  14.788
46962W        W12222  25.774   8.646  11.899
46963W        W12223  42.084  42.931   2.486
46964W        W12224  30.002  25.227   3.361
46965W        W12225  41.913   4.014  13.895
46966W        W12226  44.582  13.672  14.820
46967W        W12227  22.674  13.600   0.514
46968W        W12228  14.833   1.523  13.503
46969W        W12229  19.275  28.567   1.206
46970W        W12230  32.591  39.472  12.476
46971W        W12231  43.700  16.602  11.489
46972W        W12232   7.920  16.060  13.258
46973W        W12233   2.655  43.382  14.193
46974W        W12234  32.061  27.671  14.448
46975W        W12235  44.308  35.017   1.494
46976W        W12236  15.915  43.676   1.359
46977W        W12237  41.507  19.815  14.946
46978W        W12238  15.845  41.726   1.322
46979W        W12239  22.983  18.903   2.080
46980W        W12240   5.457  44.450   3.697
46981W        W12241  17.124  26.957   2.326
46982W        W12242  26.952  14.418   2.728
46983W        W12243  14.306  39.022  11.603
46984W        W12244  34.674  22.157  11.951
46985W        W12245  34.549  41.790   2.779
46986W        W12246  37.537  12.563  10.776
46987W        W12247  21.065  20.816  10.148
46988W        W12248  33.062  38.803  11.147
46989W        W12249   2.345   0.453  11.356
46990W        W12250  28.252  24.151   4.026
46991W        W12251  28.469  24.790   1.395
46992W        W12252   0.851   7.924  12.134
46993W        W12253  30.115  24.457  12.091
46994W        W12254  12.827  39.340  10.556
46995W        W12255  32.662  22.720   0.238
46996W        W12256  15.707  12.428  10.446
46997W        W12257  16.884  23.654  13.308
46998W        W12258  17.644  21.211  11.271
46999W        W12259  32.566  15.792  12.158
47000W        W12260  44.665  13.297   1.293
47001W        W12261   9.261  36.806   1.749
47002W        W12262   5.637  23.698  13.850
47003W        W12263  31.044  42.490  10.761
47004W        W12264  38.879  11.645  11.711
47005W        W12265  16.857  21.469  11.560
47006W        W12266  12.265  27.809   1.239
47007W        W12267  37.053  10.617  14.868
47008W        W12268  28.802  28.641  10.739
47009W        W12269   1.708   3.859   2.178
47010W        W12270  28.294   5.301   0.706
47011W        W12271   5.889  33.097  12.515
47012W        W12272  40.481  13.325   2.179
47013W        W12273   2.340   7.579  11.901
47014W        W12274  23.941  10.579   2.865
47015W        W12275  28.235  19.125  14.319
47016W        W12276   6.246  35.075  12.997
47017W        W12277  27.940   3.827  11.084
47018W        W12278  10.806  30.445  11.807
47019W        W12279   9.295  21.813   1.821
47020W        W12280  11.409  18.071  10.830
47021W        W12281  35.348   1.943  12.408
47022W        W12282   6.785  39.673   0.946
47023W        W12283  25.542  30.172  12.923
47024W        W12284  11.061  40.294  11.135
47025W        W12285  25.063  14.507   1.838
47026W        W12286  17.821  35.041  14.408
47027W        W12287   1.294  15.549   3.652
47028W        W12288   4.807  27.960  12.367
47029W        W12289  12.829   1.131   4.266
47030W        W12290  18.751  32.246   5.307
47031W        W12291  27.393  16.648   2.441
47032W        W12292  38.256  19.623  11.226
47033W        W12293  18.958   8.927   0.078
47034W        W12294  10.776  20.738  10.863
47035W        W12295   7.222  44.275  10.729
47036W        W12296   3.172  20.349  14.511
47037W        W12297  34.930  11.209  13.990
47038W        W12298  10.325  31.351   5.443
47039W        W12299  41.980  19.819   1.674
47040W        W12300  12.253  20.641  11.110
47041W        W12301   5.216  42.993   2.388
47042W        W12302  18.571  28.597   4.012
47043W        W12303  30.626  16.192  14.073
47044W        W12304   7.735  19.745   0.005
47045W        W12305  12.731  11.706   2.283
47046W        W12306   4.316  40.829   3.718
47047W        W12307  34.031  40.452   3.662
47048W        W12308  32.433  19.617   0.627
47049W        W12309  18.819  15.212   3.657
47050W        W12310  22.725  35.855   1.965
47051W        W12311  35.635   4.798  13.289
47052W        W12312  43.275  15.562  14.977
47053W        W12313  17.862  43.797  13.447
47054W        W12314  14.590  33.342  14.918
47055W        W12315  41.349  27.979   0.045
47056W        W12316  12.819  40.819   0.453
47057W        W12317  20.812  30.121   1.229
47058W        W12318   1.763  44.515   1.379
47059W        W12319  23.719   1.105  11.147
47060W        W12320  37.139  35.786   2.935
47061W        W12321   9.101  11.825  10.193
47062W        W12322  44.646  21.078   1.863
47063W        W12323  11.913  40.044  12.761
47064W        W12324  19.762  39.001   1.738
47065W        W12325  24.436  35.413   0.789
47066W        W12326   8.220  13.600   1.420
47067W        W12327  35.602  34.035   1.747
47068W        W12328   8.125  29.073  12.459
47069W        W12329  13.102   3.263   3.620
47070W        W12330   5.973  34.528  11.425
47071W        W12331  40.960  36.543  13.304
47072W        W12332  41.445  42.010   2.183
47073W        W12333  35.650   3.806   0.563
47074W        W12334   9.705  11.736   3.800
47075W        W12335   1.474  13.178  14.890
47076W        W12336  36.556  35.946   4.163
47077W        W12337  32.305   3.202  13.450
47078W        W12338   1.772  29.139   2.754
47079W        W12339  15.343  24.308  10.738
47080W        W12340  44.405   0.867  13.415
47081W        W12341   8.684   9.422   4.087
47082W        W12342  24.389  36.258  14.396
47083W        W12343   0.095  30.196  13.441
47084W        W12344  36.386  44.203   4.087
47085W        W12345   2.569  12.782   1.857
47086W        W12346  21.339  25.696  11.650
47087W        W12347  43.462   9.276   3.670
47088W        W12348  34.377   5.147  11.830
47089W        W12349  33.991  21.469  11.575
47090W        W12350   2.673  17.349  12.979
47091W        W12351  11.778   5.528   5.407
47092W        W12352  11.580  11.134   4.486
47093W        W12353   3.856  41.774  14.810
47094W        W12354  32.923  27.549   0.292
47095W        W12355   5.397  14.961   2.008
47096W        W12356  19.012   9.887  13.459
47097W        W12357   4.124  26.140   5.391
47098W        W12358  32.711  24.205   2.604
47099W        W12359  41.770  10.693  11.219
47100W        W12360  42.654  12.241  12.265
47101W        W12361  37.537  23.173   1.242
47102W        W12362  31.530  37.584  13.953
47103W        W12363  15.588  29.687   2.881
47104W        W12364  28.413  28.160   2.812
47105W        W12365  23.684  39.504  13.299
47106W        W12366  11.690  23.044   3.384
47107W        W12367  40.947  24.502   2.945
47108W        W12368  22.560   7.799   2.005
47109W        W12369   7.241  32.875  13.814
47110W        W12370  22.549  44.028  13.512
47111W        W12371  14.565  22.450   1.712
47112W        W12372   0.989  13.509   0.022
47113W        W12373  25.574  29.846  12.526
47114W        W12374  36.143  40.380  14.479
47115W        W12375   8.332  10.337  11.129
47116W        W12376  40.031  10.814  12.011
47117W        W12377  42.440  24.028  11.913
47118W        W12378  28.250  34.635  13.842
47119W        W12379  16.907  32.876   3.167
47120W        W12380  34.387  36.294   0.454
47121W        W12381   6.231  25.047  13.331
47122W        W12382  25.717  35.580   2.236
47123W        W12383   7.743  15.123  13.376
47124W        W12384  20.981   0.292  12.879
47125W        W12385  17.058   0.052  12.414
47126W        W12386   6.303  36.915  13.579
47127W        W12387  22.803  41.863  13.869
47128W        W12388  13.780  34.655   2.346
47129W        W12389  38.885  33.888  11.594
47130W        W12390  38.871  36.694  13.405
47131W        W12391  35.404   7.490  13.325
47132W        W12392  28.483   4.924   4.532
47133W        W12393  19.186  41.587  11.195
47134W        W12394  15.439  19.278  10.165
47135W        W12395  12.629   4.806  13.427
47136W        W12396  44.496  22.502   0.712
47137W        W12397  24.223  16.227   0.741
47138W        W12398   9.483   8.964   1.625
47139W        W12399  34.584  30.131   2.773
47140W        W12400  24.614  29.105   0.773
47141W        W12401  11.202  11.341   9.528
47142W        W12402   9.485  13.200   1.781
47143W        W12403  17.109   0.472  11.642
47144W        W12404  42.406  13.275   1.449
47145W        W12405  31.216  10.260   1.322
47146W        W12406  41.998   6.775  10.964
47147W        W12407  21.018  30.609  13.920
47148W        W12408   8.376   0.700  14.270
47149W        W12409   8.677  19.029   1.361
47150W        W12410  43.786  15.750   4.952
47151W        W12411  27.507  37.294   3.276
47152W        W12412   7.244  15.810  10.745
47153W        W12413  25.555  39.856   1.800
47154W        W12414  22.483   3.386   2.308
47155W        W12415   4.920  39.943  13.405
47156W        W12416  20.012  28.172  11.095
47157W        W12417  18.118  21.461   0.195
47158W        W12418   2.180  13.293   0.563
47159W        W12419  25.718  11.713  10.893
47160W        W12420  23.982  33.851  14.025
47161W        W12421  12.136  25.675  11.380
47162W        W12422  27.195  13.019  14.877
47163W        W12423   5.497  35.784   3.133
47164W        W12424  31.587  18.080   3.898
47165W        W12425  32.355  24.174   4.351
47166W        W12426   7.727   0.223  12.055
47167W        W12427  16.449  22.150  14.139
47168W        W12428  36.929  21.806   2.113
47169W        W12429  44.494  12.566   4.659
47170W        W12430   0.147  44.416  13.370
47171W        W12431   9.119  10.298  10.664
47172W        W12432  19.397  21.262   4.173
47173W        W12433  15.183  31.495   4.691
47174W        W12434  34.081  25.448   3.159
47175W        W12435  28.348  36.982  12.221
47176W        W12436  33.408  44.630   1.282
47177W        W12437  37.860   8.045   1.300
47178W        W12438  43.616  21.284   1.924
47179W        W12439   3.563  16.742  14.975
47180W        W12440  38.374  43.292   3.247
47181W        W12441  29.181  36.651   2.408
47182W        W12442  17.594  34.184   0.411
47183W        W12443  25.925   7.575  14.066
47184W        W12444  17.123  14.753  12.530
47185W        W12445  14.350  39.920   2.378
47186W        W12446  32.392  43.818   2.445
47187W        W12447  28.555   2.941  12.142
47188W        W12448  28.038  22.457  13.310
47189W        W12449  22.358  32.219   1.520
47190W        W12450  24.230  30.193  11.147
47191W        W12451  15.361  26.823  10.478
47192W        W12452   1.776  23.343  11.174
47193W        W12453   0.827  43.200   4.552
47194W        W12454   9.856  39.079   3.893
47195W        W12455  17.755   0.314   4.430
47196W        W12456   6.340  38.807   1.608
47197W        W12457  28.984  33.458  14.842
47198W        W12458  19.771  33.867   4.469
47199W        W12459  34.386  37.950   1.362
47200W        W12460  43.835  15.122   2.637
47201W        W12461   6.756  31.198  12.639
47202W        W12462   3.687  29.623   3.634
47203W        W12463   9.819  16.283   3.101
47204W        W12464  26.771  16.824  11.157
47205W        W12465  24.575   2.777  11.867
47206W        W12466  35.415  16.818   4.154
47207W        W12467  31.964  41.269   3.017
47208W        W12468  44.363  19.845   2.851
47209W        W12469  33.928   5.294   3.139
47210W        W12470   4.827  43.952   2.021
47211W        W12471  43.495   3.440  13.022
47212W        W12472  26.098  28.354  10.668
47213W        W12473  40.528  42.046   2.766
47214W        W12474   2.760  29.023  14.756
47215W        W12475  29.890  33.059   1.347
47216W        W12476   0.554  35.854   3.767
47217W        W12477  39.288  22.992   2.257
47218W        W12478   8.789  17.643   1.183
47219W        W12479  27.615  31.269   4.019
47220W        W12480   4.585  25.919   9.689
47221W        W12481   9.802  35.566  11.127
47222W        W12482  20.438   8.267  12.483
47223W        W12483  27.038  36.309  12.113
47224W        W12484  35.024  43.658   3.588
47225W        W12485  21.414   4.466  11.149
47226W        W12486  12.110  31.032  13.578
47227W        W12487  34.356  10.864   3.635
47228W        W12488  15.698   7.746   0.513
47229W        W12489  17.855  14.526  10.452
47230W        W12490  44.419  31.740   1.006
47231W        W12491  13.854  36.444   3.633
47232W        W12492  15.096   4.190  13.907
47233W        W12493  24.655   8.652  12.981
47234W        W12494  32.504  23.032  14.060
47235W        W12495  38.084  16.975  14.781
47236W        W12496  10.312  27.369  14.412
47237W        W12497   8.884   8.571  12.177
47238W        W12498  26.526  29.116  12.526
47239W        W12499   9.990  12.343   4.870
47240W        W12500  17.790  39.004   0.249
47241W        W12501  13.833  24.440   1.364
47242W        W12502  18.056  16.147  11.617
47243W        W12503   7.839  43.739   4.552
47244W        W12504  29.378  33.086  14.129
47245W        W12505  29.903  38.954  13.124
47246W        W12506   3.874  41.129  13.066
47247W        W12507  16.049  22.104   4.047
47248W        W12508  42.894  38.086   1.717
47249W        W12509  27.788  40.754   0.475
47250W        W12510  42.902  32.805  14.651
47251W        W12511  34.884  27.626   1.932
47252W        W12512   2.292  33.518   3.299
47253W        W12513  24.532  38.099  13.894
47254W        W12514  12.442   0.349  12.128
47255W        W12515  30.630   0.482  13.790
47256W        W12516  16.794  19.725  12.092
47257W        W12517  44.925  39.984   3.679
47258W        W12518  15.566  31.145   2.281
47259W        W12519   9.399  22.511   4.891
47260W        W12520  33.608  24.255   4.131
47261W        W12521  24.611  38.961  11.364
47262W        W12522  44.498  22.216   1.153
47263W        W12523  36.600  41.523   2.189
47264W        W12524  31.310  17.856  14.385
47265W        W12525  10.744  25.924   2.149
47266W        W12526  39.730  33.720   0.597
47267W        W12527  21.033  33.510  14.951
47268W        W12528  39.803   4.468   4.336
47269W        W12529   7.937  32.004  13.098
47270W        W12530  12.798   7.457   1.817
47271W        W12531  38.371  34.505  11.190
47272W        W12532  32.936  27.699   1.755
47273W        W12533  17.739  14.840   0.880
47274W        W12534  11.337  12.261   4.086
47275W        W12535  33.934  19.296  14.820
47276W        W12536  20.553   0.758   3.700
47277W        W12537  19.711   6.673  10.703
47278W        W12538  30.926  42.165   2.799
47279W        W12539   8.689  27.981  12.043
47280W        W12540  42.429  23.575  10.521
47281W        W12541  38.785  10.615   1.305
47282W        W12542  40.287  29.206   5.023
47283W        W12543   1.396  17.589  13.331
47284W        W12544  17.899  40.578   2.696
47285W        W12545  25.454  32.638  13.421
47286W        W12546  43.009  30.035   2.273
47287W        W12547  18.591  41.514   0.390
47288W        W12548  26.468  38.074   3.762
47289W        W12549   2.258   3.161   4.955
47290W        W12550  15.763  34.619   0.215
47291W        W12551  40.295  37.427  10.113
47292W        W12552   6.140  24.549   1.201
47293W        W12553  41.092  22.561   4.295
47294W        W12554   5.496  16.325  13.545
47295W        W12555  20.861   5.586   3.711
47296W        W12556  36.014  17.051  14.009
47297W        W12557  28.324  12.950   0.795
47298W        W12558   9.216   1.951   4.492
47299W        W12559  22.156  24.225   1.360
47300W        W12560   9.322  20.335  13.820
47301W        W12561  40.060  18.778   4.304
47302W        W12562  12.763  32.542  10.788
47303W        W12563  37.935  11.348   4.579
47304W        W12564  20.453  17.115   0.832
47305W        W12565  36.389  43.653   1.395
47306W        W12566  24.038  40.443  11.158
47307W        W12567  14.961  17.638   1.344
47308W        W12568  17.006  35.542  12.672
47309W        W12569  16.704  15.837  13.342
47310W        W12570   3.763  24.191  12.547
47311W        W12571  21.226  10.663   1.772
47312W        W12572  38.330  41.091   0.361
47313W        W12573   2.807  12.334   0.850
47314W        W12574  33.518   3.753   1.793
47315W        W12575  29.594  33.096  10.491
47316W        W12576  26.498  27.979   3.106
47317W        W12577  12.900  20.703  11.898
47318W        W12578   5.472  11.619  13.235
47319W        W12579  34.872  12.744   1.890
47320W        W12580  37.833  15.719  13.233
47321W        W12581  19.776  43.397   2.338
47322W        W12582  20.121  25.008   4.123
47323W        W12583  25.829  31.581   0.698
47324W        W12584  23.999   3.826   0.000
47325W        W12585  30.978  42.257   0.386
47326W        W12586  43.400   9.103  14.324
47327W        W12587   8.328  31.601  13.917
47328W        W12588  27.701  37.539   1.574
47329W        W12589  33.158  27.182   1.851
47330W        W12590  30.049   1.755   0.747
47331W        W12591  42.020  41.798  12.577
47332W        W12592  34.565  23.199   0.409
47333W        W12593  42.076   6.069   1.832
47334W        W12594  26.298  25.540   1.348
47335W        W12595  15.150  32.546   1.229
47336W        W12596  44.883   9.160  10.621
47337W        W12597  43.450  34.460  11.746
47338W        W12598  33.133  18.717  13.887
47339W        W12599  24.672  38.077   1.780
47340W        W12600   9.362  42.467   4.399
47341W        W12601   8.447  38.783   0.804
47342W        W12602  43.077  14.768  13.345
47343W        W12603  23.438   7.471   5.109
47344W        W12604  27.017   0.792  10.642
47345W        W12605  23.088   7.635  12.978
47346W        W12606  40.584   6.291  12.536
47347W        W12607  44.060   6.288  11.647
47348W        W12608  18.922  37.975   1.455
47349W        W12609  33.007  40.521  13.337
47350W        W12610  26.117   1.004  10.675
47351W        W12611   3.855  33.530   4.645
47352W        W12612  11.028  17.767   2.838
47353W        W12613   5.825  24.562   0.748
47354W        W12614  15.138  43.768  14.426
47355W        W12615  30.109   1.181   2.848
47356W        W12616  20.419   9.252   0.751
47357W        W12617  34.481  27.380   1.712
47358W        W12618  11.050  27.802  12.455
47359W        W12619  44.438  39.923   2.396
47360W        W12620  17.303  39.837  12.299
47361W        W12621  41.772  17.182   0.248
47362W        W12622   6.456  31.059   0.156
47363W        W12623  39.333  29.913   1.858
47364W        W12624  40.884  40.426  11.681
47365W        W12625   3.308   5.368  14.329
47366W        W12626  40.795  40.742  10.869
47367W        W12627  38.779  18.648   1.332
47368W        W12628  34.305   1.545   9.735
47369W        W12629  39.414   3.245   0.655
47370W        W12630  15.573  14.642  13.431
47371W        W12631  12.125  12.665  12.348
47372W        W12632   7.479  40.355  11.185
47373W        W12633   5.821  25.691   0.890
47374W        W12634  30.417  22.641  13.069
47375W        W12635   1.314  32.585  13.031
47376W        W12636   0.532  37.540  10.573
47377W        W12637   3.845  36.952   0.015
47378W        W12638  33.074  40.258   1.781
47379W        W12639   1.876  33.459   4.126
47380W        W12640  10.293  25.253  14.044
47381W        W12641  24.131  39.628  12.862
47382W        W12642  20.615  27.430   2.247
47383W        W12643  29.642  34.284  11.700
47384W        W12644  11.252  11.691  10.338
47385W        W12645  17.429  11.810   4.891
47386W        W12646  24.006  20.696   1.913
47387W        W12647   6.745  23.774  13.604
47388W        W12648  13.592  34.329   1.366
47389W        W12649  21.166  26.624  12.531
47390W        W12650  37.304  36.868   0.629
47391W        W12651  42.729   8.125   3.240
47392W        W12652  11.578   5.994   0.022
47393W        W12653   5.347   6.959   0.757
47394W        W12654   8.441   1.584  11.855
47395W        W12655   2.286   7.938   2.599
47396W        W12656  24.715  32.080  13.477
47397W        W12657  27.045  11.449   3.646
47398W        W12658  24.619  18.271   3.398
47399W        W12659   9.424  20.345  12.386
47400W        W12660  31.391   3.925   1.800
47401W        W12661  42.564  25.248  11.426
47402W        W12662  19.884  20.198   3.482
47403W        W12663  25.489   1.456   3.171
47404W        W12664  37.383  15.525  13.392
47405W        W12665  40.035  34.924  11.429
47406W        W12666  38.480  44.986   0.306
47407W        W12667   7.458  22.615   0.337
47408W        W12668  43.992  37.799   3.262
47409W        W12669  25.304  37.795  13.066
47410W        W12670  40.511  25.869   1.945
47411W        W12671  11.303  42.502   0.360
47412W        W12672  22.734   8.579   2.441
47413W        W12673  35.352  19.465   0.208
47414W        W12674  28.532   4.604  13.460
47415W        W12675   7.777  14.664  14.406
47416W        W12676   0.406  43.936   2.825
47417W        W12677  17.060  43.266  12.433
47418W        W12678  34.034  43.925  11.402
47419W        W12679  15.842   9.188  14.726
47420W        W12680  11.170   5.411  14.799
47421W        W12681   2.920  26.106  13.498
47422W        W12682  11.819   3.715  12.388
47423W        W12683  16.057   2.454   4.513
47424W        W12684  24.156   3.247   1.313
47425W        W12685   7.224  29.246  11.233
47426W        W12686  30.655  28.214   1.010
47427W        W12687  17.026  40.584   3.648
47428W        W12688  40.076  25.163  14.556
47429W        W12689  44.508  36.044   1.928
47430W        W12690   3.450  32.625  11.269
47431W        W12691  39.486  19.763  13.229
47432W        W12692  44.505  43.757   2.908
47433W        W12693  15.326   8.884   1.304
47434W        W12694  12.527  14.445   4.148
47435W        W12695  33.077  38.337  10.315
47436W        W12696  13.082  37.830  13.991
47437W        W12697   6.917  37.765  12.882
47438W        W12698  28.961  40.520   4.691
47439W        W12699  42.796  35.114  10.751
47440W        W12700  11.915  19.971   0.248
47441W        W12701  29.772  40.794  14.046
47442W        W12702  38.086  36.076   2.243
47443W        W12703  18.502  26.090  11.079
47444W        W12704  19.262  37.001  14.493
47445W        W12705  25.156  36.073   0.484
47446W        W12706   3.617  37.400  11.985
47447W        W12707  31.659  16.677   4.107
47448W        W12708  12.281   2.348   4.273
47449W        W12709  33.437  24.418  11.612
47450W        W12710   6.448  41.140  14.145
47451W        W12711  27.235  24.658  13.442
47452W        W12712  21.086  13.311   3.349
47453W        W12713  34.947   3.389  13.973
47454W        W12714  33.227  36.062  11.294
47455W        W12715   8.431  12.196  12.821
47456W        W12716   4.760  37.465   0.731
47457W        W12717   6.646  18.837   3.812
47458W        W12718  10.830  19.222  11.486
47459W        W12719   3.421  11.592  11.111
47460W        W12720  29.362  39.111  14.424
47461W        W12721  13.180  24.212  11.568
47462W        W12722  21.828  17.248   0.233
47463W        W12723  20.585  12.311   5.017
47464W        W12724  25.239  14.825  13.490
47465W        W12725  30.291  27.987   1.345
47466W        W12726  10.229  27.525  12.230
47467W        W12727   4.181   9.170   3.244
47468W        W12728  36.913   0.762   0.639
47469W        W12729  12.652  31.875  14.831
47470W        W12730   9.154   6.241  11.513
47471W        W12731  34.316  14.643   2.777
47472W        W12732  15.550   3.528  12.387
47473W        W12733   0.012  19.321   4.643
47474W        W12734   0.736  29.656  14.454
47475W        W12735   8.313  43.619  11.550
47476W        W12736   0.258  28.156   1.337
47477W        W12737  16.652   1.735  13.394
47478W        W12738  28.355  13.229  11.918
47479W        W12739  22.323   1.459   9.892
47480W        W12740  33.769   3.146   2.616
47481W        W12741  18.731  40.688   1.216
47482W        W12742  30.971  24.132   4.084
47483W        W12743  37.608  37.266  14.339
47484W        W12744  16.590   2.236  11.734
47485W        W12745  39.569  16.479   1.934
47486W        W12746   1.913  10.143  13.039
47487W        W12747  44.748  40.256  13.524
47488W        W12748  38.270  36.039  10.650
47489W        W12749  16.745  17.204  11.524
47490W        W12750  41.098  27.244  13.857
47491W        W12751  22.865  37.163   0.403
47492W        W12752  14.167  16.834   0.146
47493W        W12753  27.943   3.336   3.696
47494W        W12754  27.640  26.572   0.775
47495W        W12755  32.892   9.204  10.735
47496W        W12756   7.379   0.265  14.826
47497W        W12757   5.447  15.583  11.219
47498W        W12758  27.597   7.153   2.425
47499W        W12759   6.916   7.667   2.144
47500W        W12760  37.762  41.451  12.038
47501W        W12761  41.931  21.528   3.696
47502W        W12762  24.820  14.641   4.580
47503W        W12763  11.710  28.304  12.335
47504W        W12764  38.761  17.616   0.785
47505W        W12765  21.776  19.643   5.539
47506W        W12766  25.160  24.192   2.480
47507W        W12767  28.481  17.714  11.554
47508W        W12768  27.071  21.205  11.219
47509W        W12769  14.340  33.649   4.244
47510W        W12770  22.600  14.786   1.812
47511W        W12771  39.892   6.625   3.261
47512W        W12772  32.933  21.590   0.336
47513W        W12773  42.625  38.845   2.204
47514W        W12774  44.417  29.346  11.162
47515W        W12775  37.956  40.268   0.291
47516W        W12776   8.915  15.594  13.330
47517W        W12777  10.320  22.236  12.965
47518W        W12778  39.541  22.469   4.271
47519W        W12779  37.531   5.832   3.766
47520W        W12780  19.373   6.405  13.056
47521W        W12781  36.151   2.976  11.153
47522W        W12782   7.290  29.540   1.699
47523W        W12783  41.694  10.594   0.282
47524W        W12784  24.076   6.434   4.070
47525W        W12785  27.254  24.279  12.710
47526W        W12786   0.523  30.782  11.176
47527W        W12787  41.766  44.916   4.186
47528W        W12788   5.233  10.395   2.255
47529W        W12789  18.642  21.259   4.725
47530W        W12790  40.391   1.491  10.574
47531W        W12791  40.545  38.856   4.658
47532W        W12792  28.237  43.035  12.968
47533W        W12793   6.631   0.195   4.752
47534W        W12794  22.591  44.662   2.224
47535W        W12795  19.081   2.370  11.552
47536W        W12796  10.674  17.688   4.359
47537W        W12797  22.538  34.136  13.410
47538W        W12798   7.977  21.066   3.681
47539W        W12799   0.165  18.774   1.186
47540W        W12800  26.702   3.486   0.217
47541W        W12801  33.382   7.100  13.943
47542W        W12802  30.693  20.063   3.565
47543W        W12803  12.876  20.630   1.156
47544W        W12804   2.320  37.280   0.442
47545W        W12805  28.754  35.388  14.509
47546W        W12806  35.935   9.311  11.072
47547W        W12807  43.234  12.823  13.969
47548W        W12808  34.474  43.822  11.154
47549W        W12809  24.053   6.710   4.498
47550W        W12810   2.792  42.571   1.112
47551W        W12811  17.024   2.743   1.144
47552W        W12812   9.059  26.436  13.459
47553W        W12813  27.188  44.452  12.066
47554W        W12814  24.464   7.668  12.877
47555W        W12815  37.732  17.684   3.535
47556W        W12816  17.397  17.155  14.515
47557W        W12817  28.516  20.976   1.312
47558W        W12818  29.924  18.707   1.379
47559W        W12819   3.766  16.995   3.775
47560W        W12820   2.762   0.882   3.238
47561W        W12821  14.736  23.953   2.835
47562W        W12822  19.157   9.665  13.026
47563W        W12823  18.201  22.702   2.843
47564W        W12824  22.634  29.491   4.265
47565W        W12825  17.722  19.725  12.598
47566W        W12826  35.113   9.762  14.695
47567W        W12827  14.639  14.318   1.798
47568W        W12828  10.874  40.280  14.416
47569W        W12829  38.860  31.079   4.592
47570W        W12830  22.186  15.087  10.786
47571W        W12831   0.695  33.183   4.084
47572W        W12832  37.966  41.705   1.460
47573W        W12833  23.547  34.957  12.838
47574W        W12834  13.214  39.474   3.678
47575W        W12835  16.053  27.654   4.525
47576W        W12836  21.166  31.364  12.047
47577W        W12837  18.034  35.966   3.767
47578W        W12838  14.126  41.087   2.722
47579W        W12839  12.355  31.453  13.364
47580W        W12840  21.184  43.841  12.357
47581W        W12841  31.980   1.920   1.443
47582W        W12842  41.953  38.988  13.852
47583W        W12843  36.906  21.626   3.014
47584W        W12844  31.247  31.953   3.260
47585W        W12845  10.540  40.552  12.826
47586W        W12846  43.271   0.024   0.798
47587W        W12847   8.775   0.759   2.389
47588W        W12848  30.075  20.507   2.832
47589W        W12849   4.914  26.813   4.203
47590W        W12850  44.289  36.247   0.834
47591W        W12851  44.349  15.115   2.241
47592W        W12852   8.211  14.005  11.691
47593W        W12853  32.303   7.792   1.468
47594W        W12854  19.035  16.650   4.518
47595W        W12855   7.654  12.078  14.800
47596W        W12856  17.779  44.096   1.634
47597W        W12857  25.070  34.917  12.823
47598W        W12858  25.584  18.880   3.762
47599W        W12859  33.829  12.249  12.436
47600W        W12860  39.194  35.491  12.167
47601W        W12861  20.506   3.644   2.675
47602W        W12862  13.836  20.171   0.082
47603W        W12863  13.865  19.240   2.865
47604W        W12864  40.341  25.690   0.399
47605W        W12865  20.302  35.495  13.632
47606W        W12866  40.188  26.204   2.206
47607W        W12867  30.885   2.436   3.941
47608W        W12868   5.374  28.793  11.154
47609W        W12869  17.219   5.430   3.322
47610W        W12870   7.774   3.935   4.738
47611W        W12871   0.807   7.510  11.184
47612W        W12872  43.409  36.634  14.828
47613W        W12873   1.344   2.560  11.112
47614W        W12874   7.969  22.633   3.633
47615W        W12875   4.397  19.779   4.671
47616W        W12876  10.706  39.955   0.287
47617W        W12877  38.052  22.880   4.108
47618W        W12878  42.911   9.653  13.793
47619W        W12879  12.794  18.226  11.329
47620W        W12880   1.802  41.277  11.071
47621W        W12881  20.314  28.664   1.399
47622W        W12882  32.412   6.798  12.518
47623W        W12883   6.916  35.472  14.751
47624W        W12884  36.934  11.250   3.833
47625W        W12885   3.777  37.959  13.191
47626W        W12886  14.814   2.838   3.733
47627W        W12887  18.156   0.552   1.866
47628W        W12888   4.706   7.556   0.924
47629W        W12889   8.208  31.804  10.945
47630W        W12890  10.785  33.988  12.711
47631W        W12891  40.024  36.043   4.061
47632W        W12892  17.323  36.069   2.630
47633W        W12893   5.802  12.346  11.381
47634W        W12894  18.349  26.608   0.816
47635W        W12895  13.838  40.487  14.461
47636W        W12896  43.950  36.544   2.314
47637W        W12897  33.587  25.547   2.652
47638W        W12898  10.582  12.122   1.785
47639W        W12899  10.215   3.240  12.862
47640W        W12900  14.262  19.084   3.352
47641W        W12901  21.749  23.781   3.629
47642W        W12902   6.737  21.287  14.787
47643W        W12903  32.120  21.265   3.070
47644W        W12904  38.641  32.656   2.755
47645W        W12905  29.210   8.112   0.937
47646W        W12906  13.539   1.216  12.849
47647W        W12907  21.707  17.530   4.565
47648W        W12908   7.954  29.135   1.689
47649W        W12909  11.813   0.201  14.893
47650W        W12910  16.223  42.019  14.351
47651W        W12911   7.188  39.348  14.833
47652W        W12912  35.093  25.555   5.224
47653W        W12913  43.404   3.344   3.205
47654W        W12914  23.145   8.208   3.344
47655W        W12915   9.868  39.498   0.546
47656W        W12916  20.299   7.192   3.703
47657W        W12917  17.756  23.628   4.654
47658W        W12918  39.774   5.747   2.265
47659W        W12919  34.550  44.727   2.616
47660W        W12920  40.381  11.463   5.109
47661W        W12921  32.414  32.493  13.451
47662W        W12922  13.082  22.781   3.959
47663W        W12923   2.295  34.342   4.578
47664W        W12924  40.679   6.713   0.044
47665W        W12925   6.342   9.661  13.599
47666W        W12926  30.460  23.754   1.615
47667W        W12927  25.966  20.608  14.911
47668W        W12928  28.566   0.575   3.280
47669W        W12929  15.483  20.425   2.764
47670W        W12930  13.778  13.430   1.435
47671W        W12931  44.782   2.828   0.463
47672W        W12932  13.903   0.282   1.591
47673W        W12933   3.711  14.306  10.272
47674W        W12934   0.842  25.100   1.799
47675W        W12935  41.811   6.139   1.387
47676W        W12936  23.670  37.738   3.729
47677W        W12937  41.589  35.113  13.822
47678W        W12938  32.671  27.699   4.981
47679W        W12939  31.187  42.183  11.140
47680W        W12940   5.908  11.837  12.428
47681W        W12941   4.363  12.359  11.563
47682W        W12942   9.392  17.359  10.639
47683W        W12943  38.411  14.432   4.582
47684W        W12944   4.728  41.837   0.261
47685W        W12945  28.944   6.627   0.794
47686W        W12946   0.284  30.419  14.910
47687W        W12947  37.499  17.024  10.515
47688W        W12948  13.051   2.667   1.966
47689W        W12949   6.273  32.848  10.674
47690W        W12950  24.972  25.040   1.331
47691W        W12951  11.984   6.532   3.828
47692W        W12952  21.337  36.400   9.911
47693W        W12953  17.011  23.406  12.481
47694W        W12954   8.140  15.970   3.353
47695W        W12955  31.528  33.935   3.712
47696W        W12956  25.511  12.895  12.152
47697W        W12957   7.849  37.612   0.861
47698W        W12958  44.240  31.713  13.528
47699W        W12959   8.284   9.153  13.347
47700W        W12960   4.952  25.183   0.867
47701W        W12961  30.997  11.828  12.468
47702W        W12962  21.764  14.298  12.043
47703W        W12963   6.922  23.938   2.410
47704W        W12964  36.627  29.024  13.837
47705W        W12965  19.550  15.411   2.873
47706W        W12966   1.934  41.640   0.404
47707W        W12967  16.813   3.330   5.169
47708W        W12968   6.375  22.937  14.579
47709W        W12969  15.668  21.684  13.972
47710W        W12970  30.042  33.695  12.423
47711W        W12971  44.695   2.056   4.744
47712W        W12972  14.686  19.744  12.016
47713W        W12973  42.434  36.832   1.874
47714W        W12974   4.468  28.664   0.341
47715W        W12975  25.028  32.622   3.307
47716W        W12976   0.869  32.457   2.278
47717W        W12977  35.021  33.179   3.265
47718W        W12978  19.947  20.268   1.313
47719W        W12979  36.425  38.026  10.660
47720W        W12980  14.189  42.666   0.666
47721W        W12981  37.385  27.900  14.462
47722W        W12982   8.315  13.359  14.967
47723W        W12983   7.404   1.816   1.619
47724W        W12984  29.128  16.027  12.855
47725W        W12985  10.660  29.917   0.928
47726W        W12986   8.681  12.739   1.855
47727W        W12987   5.267  13.214   0.448
47728W        W12988  38.231  38.448   3.422
47729W        W12989  13.699  20.620  12.895
47730W        W12990  43.344   9.275  12.466
47731W        W12991  29.419  30.673  14.938
47732W        W12992  39.574   5.264   4.662
47733W        W12993  25.743   2.270  12.052
47734W        W12994  17.005   0.868   3.933
47735W        W12995  40.330  35.850   3.646
47736W        W12996  22.653  18.383   2.332
47737W        W12997  30.824  23.418   1.786
47738W        W12998  18.269  10.730  11.521
47739W        W12999   7.163  42.486   4.258
47740W        W13000   8.563  29.979   1.833
47741W        W13001   6.768   0.603  12.105
47742W        W13002  10.657   1.646  13.292
47743W        W13003  13.723  28.150  11.554
47744W        W13004  15.893   9.156  11.982
47745W        W13005  41.432   9.649   4.490
47746W        W13006  26.405  36.461  10.349
47747W        W13007  20.402  19.791  11.295
47748W        W13008  23.881  22.983   4.895
47749W        W13009  37.265   1.502   3.184
47750W        W13010  33.538  30.626  13.810
47751W        W13011  40.047  38.852  13.990
47752W        W13012   7.336  40.286   0.731
47753W        W13013   8.919   1.637  13.042
47754W        W13014  28.053  41.739  10.689
47755W        W13015  20.208  21.176  14.083
47756W        W13016  38.065  10.806  14.973
47757W        W13017   4.616  11.386  14.528
47758W        W13018  35.162   3.359  14.433
47759W        W13019   9.667  38.309  13.363
47760W        W13020  36.047  23.690   1.219
47761W        W13021  20.755  40.420  14.966
47762W        W13022  31.640  36.077  12.940
47763W        W13023  37.397  27.537  11.111
47764W        W13024  10.425  40.175   1.783
47765W        W13025  38.709  35.398  11.068
47766W        W13026  24.236   7.883   1.690
47767W        W13027  28.230   6.117  11.652
47768W        W13028   4.323  44.507  11.880
47769W        W13029  42.973   8.528   2.215
47770W        W13030  31.463  36.618   2.437
47771W        W13031  24.958   7.746  11.351
47772W        W13032   7.325  16.392  12.614
47773W        W13033   5.901  24.603   1.903
47774W        W13034  32.778  39.978  14.045
47775W        W13035  28.012  10.778  10.292
47776W        W13036   5.371  36.599   2.161
47777W        W13037  19.442  30.658  13.960
47778W        W13038  32.014  15.839  11.137
47779W        W13039  16.403  13.781   4.108
47780W        W13040  43.939  35.292  13.899
47781W        W13041   3.879  26.896   2.569
47782W        W13042  42.421   8.660  11.784
47783W        W13043  18.529   3.020  11.961
47784W        W13044   0.071   2.981   4.518
47785W        W13045   2.627  33.640  13.890
47786W        W13046  25.494  35.114   2.204
47787W        W13047  25.163  15.300   3.181
47788W        W13048  27.442   9.732  11.591
47789W        W13049  41.427   2.857   3.887
47790W        W13050  28.430  30.372  14.949
47791W        W13051  16.206   7.304   0.675
47792W        W13052  27.740  14.038   2.789
47793W        W13053  23.999   8.948  11.862
47794W        W13054  10.701  17.599   4.882
47795W        W13055   9.178  31.401  13.543
47796W        W13056   0.873  26.459   3.077
47797W        W13057   1.213   4.478  14.569
47798W        W13058  39.751  21.394  11.132
47799W        W13059   2.716  17.298  14.952
47800W        W13060   7.651  21.126  11.889
47801W        W13061  25.469  27.299  10.782
47802W        W13062  27.039  12.348  14.126
47803W        W13063  14.809   6.763  13.692
47804W        W13064   6.393   9.316  11.573
47805W        W13065  39.852  16.965  12.130
47806W        W13066  38.032  12.320  13.504
47807W        W13067  21.615  15.310  10.657
47808W        W13068  12.201  12.355  11.071
47809W        W13069  42.082  23.205  14.426
47810W        W13070  11.283  16.607  10.575
47811W        W13071  13.683  28.642  13.043
47812W        W13072   7.922  35.042   2.006
47813W        W13073  16.996  10.106  10.063
47814W        W13074  10.348   5.231   2.718
47815W        W13075   3.969   1.932  12.067
47816W        W13076  44.954  15.878  13.777
47817W        W13077   0.892  22.930  10.298
47818W        W13078  28.570   6.897  13.014
47819W        W13079  28.687  36.482   2.414
47820W        W13080  11.367  35.012  14.768
47821W        W13081  30.884  16.239   3.279
47822W        W13082  22.092  10.199   4.447
47823W        W13083   4.024  42.795  12.063
47824W        W13084   6.462  35.165   2.429
47825W        W13085  20.066  38.293  11.503
47826W        W13086  30.068  35.160  12.253
47827W        W13087  11.293  27.488  13.325
47828W        W13088  14.734   9.151   3.658
47829W        W13089  28.794  34.840  14.946
47830W        W13090  27.189  32.589   4.334
47831W        W13091  17.850   8.230   0.560
47832W        W13092  11.078  27.908  14.260
47833W        W13093  17.273  26.244  13.831
47834W        W13094  28.069  28.808  13.527
47835W        W13095  43.675   8.313  12.207
47836W        W13096  37.263  27.927  12.474
47837W        W13097   7.722  13.670  11.594
47838W        W13098   5.294  44.740   4.531
47839W        W13099  24.788  25.654   0.375
47840W        W13100  34.100  30.366   2.774
47841W        W13101  33.416   0.901   2.322
47842W        W13102  38.915  34.942  11.134
47843W        W13103   0.327  13.889  13.979
47844W        W13104  26.394  43.476   0.188
47845W        W13105  19.342  25.831  11.773
47846W        W13106  33.983   8.150  13.074
47847W        W13107  34.947  30.466   4.517
47848W        W13108   7.985  15.191  10.595
47849W        W13109  20.098  33.394   4.329
47850W        W13110  27.203  33.284  12.790
47851W        W13111  40.779  10.277  10.515
47852W        W13112  31.907  10.409   1.739
47853W        W13113  33.510  27.978  14.743
47854W        W13114  23.706  38.176  12.102
47855W        W13115  28.677  17.141   3.402
47856W        W13116  19.690   1.250   4.126
47857W        W13117  33.536  39.759  13.451
47858W        W13118  22.552  37.573  13.805
47859W        W13119  23.370   6.080  12.075
47860W        W13120  24.051  13.198   1.437
47861W        W13121  15.085  22.035   3.801
47862W        W13122  35.464  28.888  11.421
47863W        W13123  42.338  38.299   0.425
47864W        W13124  20.081  15.224  10.514
47865W        W13125   1.212   8.926   1.765
47866W        W13126  18.703  35.774  12.753
47867W        W13127  26.158  43.743  12.679
47868W        W13128   4.016  18.308  12.527
47869W        W13129   2.301  15.213  10.480
47870W        W13130  40.832  44.350   1.243
47871W        W13131  25.146  27.464  14.928
47872W        W13132  13.182   9.418  14.051
47873W        W13133  43.419  37.567  14.591
47874W        W13134   4.229  15.718   3.872
47875W        W13135  22.073  24.492  14.203
47876W        W13136  39.901  41.530   4.141
47877W        W13137  24.064  40.822   2.684
47878W        W13138  32.808  34.674  13.515
47879W        W13139   6.905   8.671   0.393
47880W        W13140  36.821  31.924   2.724
47881W        W13141  33.070  44.461  11.208
47882W        W13142  32.060  18.286   2.674
47883W        W13143  37.315   4.076   0.389
47884W        W13144   8.175  37.538  12.724
47885W        W13145  41.383  37.432  12.410
47886W        W13146  18.034   5.754  14.266
47887W        W13147  13.671  40.994  10.711
47888W        W13148  28.020  25.090  14.972
47889W        W13149   4.421   4.520  14.924
47890W        W13150   2.038  41.640  10.726
47891W        W13151  24.794  22.981  13.473
47892W        W13152  33.867  10.258  10.722
47893W        W13153   2.190  25.383   0.385
47894W        W13154  38.011  28.033   4.558
47895W        W13155  17.244  44.177   2.791
47896W        W13156  30.873  44.712   3.238
47897W        W13157  15.781  39.751   2.189
47898W        W13158  42.325  19.214  14.868
47899W        W13159  34.861  12.124  11.523
47900W        W13160   1.879   9.381   2.354
47901W        W13161  25.550  41.566  10.294
47902W        W13162  23.649  41.443   0.866
47903W        W13163   2.240  28.574   4.546
47904W        W13164  15.575  35.535  12.508
47905W        W13165  37.149  33.030   0.260
47906W        W13166  10.577  39.112   0.379
47907W        W13167  10.403  23.148   1.440
47908W        W13168  36.349  14.404  14.339
47909W        W13169   4.380  18.270   4.717
47910W        W13170   8.656  11.107   2.333
47911W        W13171  19.508  11.763  12.891
47912W        W13172  12.321  37.167  13.347
47913W        W13173   3.943  26.918  14.530
47914W        W13174  41.497  11.562   4.216
47915W        W13175   8.681   3.734  12.259
47916W        W13176   4.997   3.827   3.625
47917W        W13177  13.628  18.538  11.478
47918W        W13178  38.805  35.641   1.871
47919W        W13179  35.125  16.165   1.711
47920W        W13180  35.321  20.532   4.094
47921W        W13181  25.595  41.796  12.971
47922W        W13182  43.581  35.056   1.566
47923W        W13183   8.309   2.219   4.599
47924W        W13184  24.484  10.701  11.457
47925W        W13185  44.035  34.114  12.399
47926W        W13186  44.521  13.727   3.109
47927W        W13187  44.743  42.245  13.439
47928W        W13188  39.877  32.984   1.322
47929W        W13189   8.663  13.515   4.265
47930W        W13190   8.785  24.647   9.858
47931W        W13191  19.527  25.503  12.148
47932W        W13192  22.010  21.592  12.768
47933W        W13193  41.011  42.296  12.449
47934W        W13194  30.535   4.201   4.346
47935W        W13195   7.286  22.686   4.062
47936W        W13196  18.210  28.519  13.287
47937W        W13197  22.161  22.031   0.760
47938W        W13198   2.161   5.498  12.841
47939W        W13199   6.247  32.446  14.959
47940W        W13200   0.514  10.277   1.736
47941W        W13201   1.196  20.619   4.387
47942W        W13202  23.173  18.531  14.047
47943W        W13203  20.515  19.321  11.492
47944W        W13204  31.376  34.296   2.176
47945W        W13205  41.571  38.283  13.440
47946W        W13206  13.655  32.580  12.549
47947W        W13207   3.438  39.020   4.244
47948W        W13208   9.994  11.566   3.410
47949W        W13209  10.605   9.871   3.643
47950W        W13210   5.402  25.420   2.683
47951W        W13211  43.639  36.559  11.471
47952W        W13212  17.914  19.095   4.660
47953W        W13213  11.100   0.881  14.926
47954W        W13214   0.745  35.598  13.465
47955W        W13215  11.309  26.719   2.255
47956W        W13216  26.256   5.896   0.916
47957W        W13217  18.078  43.319   0.030
47958W        W13218  22.606   6.497  11.699
47959W        W13219   3.359   7.978  11.949
47960W        W13220  18.766  21.022   1.354
47961W        W13221  39.116  15.409   3.792
47962W        W13222  29.980  26.218  14.915
47963W        W13223  42.326  25.236   2.389
47964W        W13224  30.613  35.935   3.227
47965W        W13225   6.071   3.370   2.430
47966W        W13226  32.571  35.897  10.643
47967W        W13227  20.930  32.537   0.014
47968W        W13228  36.260  29.863  11.689
47969W        W13229  12.401   4.307  10.360
47970W        W13230  15.684  35.122   3.721
47971W        W13231  13.579  35.985  12.454
47972W        W13232   4.094  14.723   3.220
47973W        W13233  27.284  40.085  14.210
47974W        W13234  14.274  40.799  13.297
47975W        W13235  35.911  21.983   4.325
47976W        W13236   6.628  17.917   3.303
47977W        W13237  24.522  27.857   0.719
47978W        W13238  12.798  27.353   5.542
47979W        W13239  15.022  22.014  11.631
47980W        W13240   4.444  21.513  11.934
47981W        W13241  41.016  10.848  13.460
47982W        W13242  22.542  23.114  13.084
47983W        W13243   8.133  18.970  11.049
47984W        W13244  27.980  32.148   4.401
47985W        W13245  26.184  18.850  14.869
47986W        W13246  39.868  30.342  13.548
47987W        W13247  32.119   0.179   0.931
47988W        W13248   9.255   6.636  12.332
47989W        W13249   2.303  27.763  10.227
47990W        W13250  34.478  27.504  13.545
47991W        W13251  24.614  24.303  12.944
47992W        W13252  22.483  43.990  10.672
47993W        W13253  16.028  18.081   3.581
47994W        W13254  37.548  41.319  13.178
47995W        W13255   5.751  42.012  12.517
47996W        W13256   3.604  21.603   4.559
47997W        W13257   9.197  19.649   1.489
47998W        W13258  28.710  10.206   3.777
47999W        W13259  21.881  19.830  12.463
48000W        W13260   5.369  37.888  11.480
48001W        W13261   9.315  37.874   2.767
48002W        W13262  27.055  31.677  10.954
48003W        W13263  13.293  27.124  14.466
48004W        W13264  23.520  16.534   1.269
48005W        W13265  17.235  19.259  12.919
48006W        W13266  37.377   7.759   0.842
48007W        W13267   8.675  26.583  14.849
48008W        W13268  25.005  35.500  13.617
48009W        W13269  41.216  21.613  11.033
48010W        W13270   3.135  44.978  13.789
48011W        W13271  13.278  33.993   3.222
48012W        W13272  44.303  15.623   2.336
48013W        W13273  23.093  19.878  13.782
48014W        W13274  22.129  23.072   3.715
48015W        W13275  11.907   0.720   4.496
48016W        W13276  32.743   3.742  12.138
48017W        W13277  33.516  40.449   1.048
48018W        W13278   3.981  11.888  11.611
48019W        W13279  22.690   6.812  12.942
48020W        W13280  43.924  18.525  11.354
48021W        W13281  29.511  39.824   0.464
48022W        W13282   4.663  33.377  11.185
48023W        W13283   3.269  10.743  12.842
48024W        W13284  19.087  33.915   2.242
48025W        W13285  41.512  15.328  13.049
48026W        W13286  33.876  24.947   1.397
48027W        W13287  20.998   9.891   0.390
48028W        W13288  33.001  22.929   4.171
48029W        W13289  36.063  20.883  13.321
48030W        W13290  32.754  12.560   1.738
48031W        W13291  17.509  27.236  12.853
48032W        W13292   7.258  44.185   0.503
48033W        W13293   2.038  33.889   4.377
48034W        W13294  30.469  38.113   3.266
48035W        W13295  36.058  24.450  12.467
48036W        W13296   2.957  17.742  12.832
48037W        W13297  21.526   8.193   0.991
48038W        W13298  11.239   1.196   3.521
48039W        W13299  17.112  11.646  10.623
48040W        W13300  22.313   6.825  14.728
48041W        W13301   3.412  15.549  12.162
48042W        W13302   4.744  26.081   2.550
48043W        W13303  18.808  15.068  12.492
48044W        W13304   5.227  18.292  13.065
48045W        W13305  13.277   7.129  13.010
48046W        W13306   6.057  44.435   0.061
48047W        W13307  22.066  29.159   2.646
48048W        W13308  42.304  11.175   1.314
48049W        W13309  44.498   6.513  12.897
48050W        W13310   6.383  34.118  12.129
48051W        W13311  31.488   9.203  12.586
48052W        W13312   6.285  28.203  11.002
48053W        W13313  43.119   9.356   2.760
48054W        W13314  11.122  11.891  11.143
48055W        W13315  40.928  37.913   0.544
48056W        W13316  35.019  22.602  10.710
48057W        W13317  13.819  16.293   4.735
48058W        W13318   5.779  38.994  14.860
48059W        W13319  30.623   0.318  12.973
48060W        W13320  16.711  17.282  10.579
48061W        W13321  35.477  29.358  11.229
48062W        W13322   0.852  18.458  13.383
48063W        W13323   3.112  21.619   3.728
48064W        W13324  25.570  41.034  10.767
48065W        W13325   4.496   7.779  14.364
48066W        W13326  31.190  31.121   0.044
48067W        W13327  17.498   0.734  11.893
48068W        W13328  29.537   5.312   3.367
48069W        W13329  21.857  23.128   4.176
48070W        W13330  42.539   9.468  10.815
48071W        W13331  38.966  33.537  11.982
48072W        W13332  18.197   5.218   4.754
48073W        W13333  12.265  30.748  11.325
48074W        W13334   9.696  21.764  13.821
48075W        W13335  21.567  30.757  12.432
48076W        W13336   8.249   7.192   3.124
48077W        W13337  27.128   4.804  11.590
48078W        W13338  15.461  40.968   2.617
48079W        W13339  22.053  22.564   2.345
48080W        W13340  31.237  41.758  14.824
48081W        W13341   9.531  42.462   2.579
48082W        W13342  24.305   2.365  12.014
48083W        W13343  13.845  11.342   4.788
48084W        W13344  16.008  36.406   3.352
48085W        W13345  25.766  40.064   0.481
48086W        W13346  42.026  35.213   3.139
48087W        W13347  34.033  34.084   4.980
48088W        W13348  23.469  38.878   3.140
48089W        W13349  18.864   0.862  14.696
48090W        W13350   8.197  42.737   1.466
48091W        W13351  15.806   2.171   1.417
48092W        W13352  14.117  17.587   0.844
48093W        W13353   6.153  18.539  10.417
48094W        W13354  15.778  11.582  13.162
48095W        W13355  44.070  40.506   3.255
48096W        W13356  23.219  30.876  13.977
48097W        W13357  35.551  44.526  11.900
48098W        W13358  16.188  13.050   1.358
48099W        W13359  28.388   8.112  11.721
48100W        W13360   3.212  22.265   4.003
48101W        W13361  37.286  26.602  10.980
48102W        W13362  25.001  25.118  12.626
48103W        W13363  20.920  30.911   1.822
48104W        W13364   7.885   8.804   4.227
48105W        W13365   1.664  17.081   0.145
48106W        W13366  36.310  27.417   0.410
48107W        W13367  16.800  43.284  14.376
48108W        W13368  16.748  10.627  13.016
48109W        W13369   6.637  25.524   0.362
48110W        W13370  16.722  18.783   4.105
48111W        W13371  35.090   4.704   0.811
48112W        W13372   3.034   6.259   2.758
48113W        W13373  31.443  12.190   0.824
48114W        W13374  42.522  15.053  13.743
48115W        W13375   9.628  19.602   3.727
48116W        W13376   2.862  13.775  10.970
48117W        W13377   5.383  21.609  14.983
48118W        W13378  24.758   5.810  13.440
48119W        W13379   4.562  28.971   0.755
48120W        W13380  41.579  39.999  12.971
48121W        W13381  17.646  15.632  14.773
48122W        W13382   0.969  30.481   4.354
48123W        W13383  40.017  43.759   3.796
48124W        W13384  24.312   7.741  11.215
48125W        W13385   0.061  25.496  14.944
48126W        W13386  42.003  44.940  10.940
48127W        W13387   9.936  21.001  11.583
48128W        W13388  34.105  27.004   2.465
48129W        W13389  35.807  20.113  12.039
48130W        W13390   4.980  34.922  14.765
48131W        W13391  17.050  38.910  12.246
48132W        W13392  27.688  14.097  14.482
48133W        W13393  12.838  20.808   0.184
48134W        W13394  22.088  36.262   2.628
48135W        W13395  14.644  38.977  14.254
48136W        W13396  24.437  43.783   1.726
48137W        W13397   4.682   0.310  12.032
48138W        W13398  14.050  40.321  13.303
48139W        W13399   7.877  20.469  11.477
48140W        W13400  41.965  20.004  11.233
48141W        W13401   9.605  39.992  14.313
48142W        W13402  10.212  35.020  14.551
48143W        W13403  42.360  28.601   1.919
48144W        W13404  33.355  44.230   0.957
48145W        W13405  28.263  12.460   4.622
48146W        W13406  31.106  20.164  10.677
48147W        W13407   7.091  25.046   4.555
48148W        W13408  34.080   1.391  14.311
48149W        W13409  30.914   8.150  11.883
48150W        W13410  24.430  21.298  14.328
48151W        W13411   9.264   9.842   1.922
48152W        W13412  31.968   4.922   3.282
48153W        W13413  32.604  21.692  12.745
48154W        W13414  40.751  24.871  13.776
48155W        W13415   6.917  44.594  11.975
48156W        W13416   1.398  21.521   3.440
48157W        W13417  38.574  10.688  14.979
48158W        W13418  24.020  12.198  14.999
48159W        W13419  15.521  37.824   0.452
48160W        W13420  12.743  41.379  13.465
48161W        W13421  14.932   1.577   1.323
48162W        W13422  36.181   2.905  10.633
48163W        W13423  29.935  32.016   2.866
48164W        W13424  32.299  15.206  12.535
48165W        W13425  19.664   0.998  13.353
48166W        W13426  38.569  38.199   3.750
48167W        W13427  20.229   2.799   0.655
48168W        W13428  44.268   6.359   0.965
48169W        W13429   2.390   9.227  13.999
48170W        W13430  28.385  21.642  14.374
48171W        W13431  16.534  34.309   3.546
48172W        W13432  18.648  25.178  13.025
48173W        W13433  15.472  41.930  13.765
48174W        W13434  35.875  35.194  14.967
48175W        W13435  34.057   8.793   0.380
48176W        W13436  44.713   1.067   1.467
48177W        W13437   1.406   3.955  11.152
48178W        W13438  13.162  15.929  13.973
48179W        W13439  14.200  16.784   2.834
48180W        W13440   9.707  28.581  14.545
48181W        W13441  20.596  21.688   3.672
48182W        W13442  35.349  43.078  14.452
48183W        W13443   2.430  40.995  14.339
48184W        W13444  19.220  31.115   1.740
48185W        W13445  30.488  14.079  12.695
48186W        W13446  22.458  44.292   3.003
48187W        W13447  32.488  10.821   0.954
48188W        W13448   1.224  23.177  12.893
48189W        W13449   4.515  42.831  10.541
48190W        W13450  10.917  23.631   0.822
48191W        W13451  42.906  28.367  14.904
48192W        W13452  18.903  21.588   5.001
48193W        W13453  25.597  28.448   0.559
48194W        W13454   7.934  23.955  10.717
48195W        W13455  33.572  40.981  11.837
48196W        W13456  33.475   1.391  13.966
48197W        W13457   1.223  40.672   0.741
48198W        W13458  34.442  21.011   0.426
48199W        W13459  36.317  41.594   1.767
48200W        W13460  29.084  24.090   1.822
48201W        W13461  27.229  23.629   3.572
48202W        W13462  13.093  25.076   0.554
48203W        W13463  26.975  13.718   1.489
48204W        W13464   8.744   9.452   2.676
48205W        W13465  15.858  30.265   9.945
48206W        W13466  34.421  25.996   1.681
48207W        W13467  38.445  13.034  13.555
48208W        W13468  31.817   3.854   0.393
48209W        W13469  14.920  27.986   0.533
48210W        W13470  26.670  28.730   2.472
48211W        W13471  16.132  15.904  11.464
48212W        W13472  16.321  25.767  10.690
48213W        W13473  10.873   9.240   3.223
48214W        W13474  22.478  16.819   4.518
48215W        W13475  12.651  21.484   2.816
48216W        W13476  41.786  25.790   4.977
48217W        W13477  32.972  40.959  11.311
48218W        W13478   2.273   5.147   0.804
48219W        W13479  41.442  13.855   2.413
48220W        W13480  14.268  37.995   1.322
48221W        W13481   4.593  37.172  12.141
48222W        W13482   3.321  13.394  10.572
48223W        W13483   8.554   0.437  13.387
48224W        W13484  37.547  23.707   1.271
48225W        W13485  26.266   6.772  13.907
48226W        W13486  10.433  34.603   3.129
48227W        W13487  34.239  34.840  12.137
48228W        W13488  39.070  32.395  12.842
48229W        W13489  11.129   3.229  10.811
48230W        W13490   5.710   1.666   3.234
48231W        W13491  44.733   0.314  10.597
48232W        W13492  14.084  33.630   3.780
48233W        W13493  28.006  40.525   2.709
48234W        W13494  17.299  30.046  11.743
48235W        W13495  33.041  42.604   4.297
48236W        W13496  19.247  21.361   1.392
48237W        W13497  34.011   8.099   2.286
48238W        W13498  13.605   8.668  13.376
48239W        W13499  12.561  13.734  12.071
48240W        W13500   4.016   6.437   1.576
48241W        W13501  33.539   6.351  10.590
48242W        W13502  41.687   6.441  10.708
48243W        W13503  40.362  39.460   2.387
48244W        W13504  12.217  23.204   2.163
48245W        W13505  31.664  44.324  14.893
48246W        W13506  22.467  39.810   1.342
48247W        W13507  12.038  27.484  10.035
48248W        W13508  15.233   1.489  12.067
48249W        W13509  11.365   4.397  13.443
48250W        W13510   5.737  38.518  12.518
48251W        W13511  15.739  32.072  13.527
48252W        W13512  34.562  25.977   3.713
48253W        W13513  30.947  29.198   2.727
48254W        W13514  25.646  27.558  11.528
48255W        W13515   9.739  13.646  13.367
48256W        W13516  34.426  32.139  10.951
48257W        W13517  30.944  23.340   2.648
48258W        W13518  33.585   1.945  13.944
48259W        W13519  16.309  37.380   0.398
48260W        W13520  31.367  14.278   0.252
48261W        W13521  40.901  43.454   4.852
48262W        W13522  15.811   4.842  12.881
48263W        W13523  16.334  17.620   2.695
48264W        W13524   7.870   7.929   4.683
48265W        W13525  27.970  14.504  14.805
48266W        W13526  42.955  41.917   2.274
48267W        W13527   3.196  35.201  11.223
48268W        W13528  21.315   1.715   3.095
48269W        W13529  14.530  18.920  10.696
48270W        W13530   2.796  44.439  10.727
48271W        W13531   4.777  29.137  13.642
48272W        W13532  36.554   2.542  12.621
48273W        W13533  33.658  11.849  12.677
48274W        W13534   9.809  39.629  12.055
48275W        W13535  36.554  19.329  13.985
48276W        W13536  29.132  40.483   4.200
48277W        W13537  10.754  31.607  14.441
48278W        W13538  28.608  19.344  10.274
48279W        W13539  21.032  26.587   3.430
48280W        W13540  10.049  27.504   1.826
48281W        W13541  26.718  31.943  13.523
48282W        W13542  20.638   6.254  14.252
48283W        W13543   4.876  10.889  11.701
48284W        W13544  40.303  15.692   1.851
48285W        W13545  33.565   0.324  14.936
48286W        W13546  25.392  38.239   2.762
48287W        W13547   3.822  15.228   4.404
48288W        W13548   0.037  34.885  11.157
48289W        W13549  17.630  11.100   1.325
48290W        W13550  30.980   5.071   2.868
48291W        W13551  28.008  23.843   9.826
48292W        W13552   7.163  27.433   1.698
48293W        W13553  43.382  35.429   4.192
48294W        W13554  35.641   5.822  12.192
48295W        W13555  20.359  18.158   4.664
48296W        W13556   2.755  30.042   3.051
48297W        W13557   6.186  37.554  11.399
48298W        W13558  18.602  15.654  13.901
48299W        W13559  22.055  16.860   0.493
48300W        W13560   1.632  22.421  12.453
48301W        W13561   2.422  36.493  11.067
48302W        W13562  36.696  32.832  14.093
48303W        W13563  29.073   0.215   4.420
48304W        W13564  22.297   9.836  14.849
48305W        W13565   6.242  36.662   4.075
48306W        W13566  25.501  33.601  10.139
48307W        W13567  13.272  35.841   3.743
48308W        W13568  31.426  11.689   2.820
48309W        W13569  44.965  43.492  13.426
48310W        W13570  14.317  10.623  10.039
48311W        W13571  13.256  38.870   9.941
48312W        W13572   4.057  18.525  13.853
48313W        W13573  27.692  42.169  14.420
48314W        W13574  28.843   5.278   4.641
48315W        W13575   3.772  25.369  12.945
48316W        W13576  25.117  20.293   5.742
48317W        W13577  12.320  19.754  14.497
48318W        W13578  41.428  34.335   3.114
48319W        W13579  29.758  24.531   1.453
48320W        W13580   6.269  17.609  14.751
48321W        W13581  20.663  42.325  12.668
48322W        W13582  18.248   5.314   1.746
48323W        W13583   6.472  13.665  13.498
48324W        W13584  31.164   7.854  13.954
48325W        W13585  34.169   8.338   0.067
48326W        W13586  24.875  18.388   1.698
48327W        W13587  24.816  29.870  12.460
48328W        W13588   9.456  34.742   0.988
48329W        W13589  35.531  39.387   4.623
48330W        W13590   9.111  41.258   4.586
48331W        W13591  36.360   5.368   1.759
48332W        W13592  39.490  30.581   0.785
48333W        W13593  32.963   4.008  14.276
48334W        W13594  29.154  34.064   1.908
48335W        W13595  32.473  29.456  11.539
48336W        W13596   9.337  35.942  12.694
48337W        W13597  43.432   7.164  11.981
48338W        W13598  23.504   4.188  12.017
48339W        W13599  34.631  29.626   2.854
48340W        W13600  42.089   3.145   0.509
48341W        W13601   6.657   6.844   4.190
48342W        W13602  40.508  38.088   3.293
48343W        W13603  16.258   6.402   4.313
48344W        W13604   3.229  24.153  12.532
48345W        W13605   5.886  38.566   2.941
48346W        W13606  28.402  24.030  13.826
48347W        W13607   0.314  37.812  11.845
48348W        W13608  24.092  13.086  10.663
48349W        W13609   9.725   4.394   2.966
48350W        W13610   6.467  20.257  12.315
48351W        W13611  21.261  29.996  11.206
48352W        W13612  36.681  33.119  11.099
48353W        W13613  12.386  13.607  12.633
48354W        W13614  37.840  21.257   3.201
48355W        W13615   5.475  13.583  12.075
48356W        W13616  35.441  21.569  10.622
48357W        W13617   0.690  11.152   9.836
48358W        W13618  19.730  35.377  13.005
48359W        W13619  13.907  23.727   3.921
48360W        W13620   9.980  26.551  14.486
48361W        W13621  25.575  19.301  10.558
48362W        W13622  21.065  31.468  10.644
48363W        W13623  33.108  18.782  13.376
48364W        W13624  44.008  18.144   1.917
48365W        W13625   6.466   5.823   0.882
48366W        W13626  37.961  25.565  12.466
48367W        W13627  21.219  11.291  11.059
48368W        W13628  31.565  40.024  11.390
48369W        W13629  10.701  32.355   2.415
48370W        W13630  29.726  38.393   4.690
48371W        W13631  14.275   3.112  14.923
48372W        W13632  34.237  16.108  12.920
48373W        W13633  31.692  11.406  11.529
48374W        W13634   3.125  33.472  13.933
48375W        W13635  15.848  28.652  13.831
48376W        W13636  13.044  39.345  13.882
48377W        W13637   7.111  34.128   1.405
48378W        W13638  16.588  16.659   9.401
48379W        W13639  35.935  27.189   3.949
48380W        W13640  17.348  35.932   5.089
48381W        W13641   6.083  24.451   4.121
48382W        W13642  13.652  37.749  13.439
48383W        W13643  21.495   3.846  10.695
48384W        W13644  42.235  40.795   2.202
48385W        W13645  28.215  32.371   2.419
48386W        W13646   1.763  33.321   2.115
48387W        W13647  37.956  37.692   3.350
48388W        W13648  28.918  15.377  11.175
48389W        W13649  34.843  28.068  10.634
48390W        W13650  20.071   7.217   2.348
48391W        W13651  43.328  21.767   1.968
48392W        W13652   6.833  42.528  10.282
48393W        W13653  32.282  39.902   0.435
48394W        W13654  21.138   5.358  13.526
48395W        W13655  17.274   9.277  11.208
48396W        W13656   2.393   8.872   2.586
48397W        W13657  31.748  28.942   0.735
48398W        W13658  16.677  22.055  12.618
48399W        W13659  20.269  44.922  12.025
48400W        W13660  38.935  26.267  12.051
48401W        W13661  32.484   2.347  11.193
48402W        W13662  32.125  25.669  13.510
48403W        W13663  43.592  43.332   1.849
48404W        W13664  11.349  20.790   4.585
48405W        W13665  15.469   9.697   9.692
48406W        W13666  18.575  43.059   0.133
48407W        W13667  11.665  38.354  12.519
48408W        W13668  33.543  34.000  10.973
48409W        W13669  14.513   1.380  11.468
48410W        W13670   6.609  26.968   4.015
48411W        W13671  36.303  40.757  12.954
48412W        W13672  23.203  20.192  14.194
48413W        W13673  31.103   3.102   3.887
48414W        W13674  17.937   4.222   1.921
48415W        W13675  32.292   9.191  13.683
48416W        W13676   9.344  16.296   3.851
48417W        W13677  38.469  44.228   1.881
48418W        W13678   7.702  16.158  14.056
48419W        W13679  32.926   8.418   1.941
48420W        W13680   3.495   4.196  14.570
48421W        W13681  28.922   6.589  14.942
48422W        W13682  13.080   4.474   1.020
48423W        W13683   4.671  12.875   1.944
48424W        W13684  44.712   5.240   3.744
48425W        W13685   1.236   4.366  14.068
48426W        W13686  33.649  15.752   1.284
48427W        W13687  40.383  37.857  10.442
48428W        W13688  23.013  35.135  10.258
48429W        W13689  39.147  26.176  11.117
48430W        W13690  27.906  34.888  10.424
48431W        W13691  18.239  10.345   1.281
48432W        W13692  38.061  27.611  12.472
48433W        W13693  21.023   6.407  14.654
48434W        W13694   6.251  41.740  12.521
48435W        W13695  30.112  33.410  13.554
48436W        W13696   3.481  20.077  12.461
48437W        W13697  31.485   0.465  11.669
48438W        W13698  12.133  42.293  13.250
48439W        W13699   9.382  29.455   1.746
48440W        W13700  26.134   6.333   3.075
48441W        W13701  19.587   6.983   1.387
48442W        W13702  24.114  26.130   1.126
48443W        W13703  16.700  21.092   1.819
48444W        W13704  40.903  34.937   3.743
48445W        W13705   9.342  27.713  12.155
48446W        W13706  43.438  40.949  10.461
48447W        W13707  22.976  35.070  12.166
48448W        W13708  22.302   2.146  14.845
48449W        W13709  38.499   2.038  12.363
48450W        W13710  33.176  18.007  12.186
48451W        W13711   0.509   5.467   1.408
48452W        W13712  20.367   7.098  11.143
48453W        W13713   5.982  29.064  11.505
48454W        W13714  13.807   0.357  13.080
48455W        W13715   0.493  24.632   1.745
48456W        W13716   8.750  19.504  12.832
48457W        W13717  30.918  30.001  13.514
48458W        W13718  25.172  17.299   1.233
48459W        W13719  32.907   7.796   0.303
48460W        W13720  42.036  44.460  10.735
48461W        W13721  30.848  20.324  14.998
48462W        W13722  27.424   1.420   4.858
48463W        W13723   2.325   5.038   9.932
48464W        W13724  22.636  19.307   2.102
48465W        W13725   0.396  34.420   3.269
48466W        W13726  23.128  39.279   0.310
48467W        W13727  29.945  26.507  12.646
48468W        W13728  21.369  43.262   3.299
48469W        W13729  17.303  13.240   2.738
48470W        W13730  40.954   6.779  10.415
48471W        W13731  41.878  32.877  13.459
48472W        W13732  20.100   6.859   1.332
48473W        W13733  13.407  36.097   5.161
48474W        W13734  22.600  33.175  14.545
48475W        W13735   2.853  23.064   0.825
48476W        W13736  20.729   2.412  13.062
48477W        W13737   0.956  37.248  14.437
48478W        W13738   3.748  13.063   1.643
48479W        W13739   0.969  11.309   0.892
48480W        W13740  38.284  13.665  10.690
48481W        W13741  34.653  19.650  12.549
48482W        W13742  42.626   3.469   4.948
48483W        W13743  44.551  37.342  10.599
48484W        W13744   0.779  19.077   3.619
48485W        W13745   4.795  22.636   2.664
48486W        W13746  10.702  18.645   4.340
48487W        W13747  39.387   3.243  11.667
48488W        W13748  35.372  18.149   5.160
48489W        W13749  11.466  41.841  14.383
48490W        W13750  35.387  23.717  13.502
48491W        W13751  26.117  13.352   3.203
48492W        W13752  23.610   1.298   2.307
48493W        W13753  23.576  32.131  12.820
48494W        W13754  18.405  36.790  12.912
48495W        W13755  18.571  23.773  11.530
48496W        W13756   3.888   4.908   3.430
48497W        W13757  13.039  43.913   3.038
48498W        W13758  15.180   2.930   3.178
48499W        W13759  11.948  31.699  11.560
48500W        W13760  23.348  36.395   1.454
48501W        W13761   1.952  21.796   3.344
48502W        W13762   7.383  33.783  11.143
48503W        W13763  14.601  43.243   1.317
48504W        W13764  12.814  28.678   0.940
48505W        W13765  42.535  39.206  14.986
48506W        W13766  13.880   1.713  12.052
48507W        W13767  42.302  21.711  14.873
48508W        W13768  39.476  22.792   1.192
48509W        W13769  25.140  42.260   1.756
48510W        W13770   2.965  41.412  13.245
48511W        W13771  18.499  41.647  12.678
48512W        W13772   7.868  24.816  12.655
48513W        W13773  24.027  33.695  10.280
48514W        W13774   1.782   8.360   2.183
48515W        W13775  33.643  39.561  12.344
48516W        W13776  27.255  10.151  13.507
48517W        W13777  12.247  18.692  13.863
48518W        W13778  13.693   7.496  13.770
48519W        W13779  26.484  29.503   0.275
48520W        W13780  21.346  23.303  14.352
48521W        W13781  16.050  15.631   1.834
48522W        W13782  14.384   5.313   3.228
48523W        W13783  23.903  26.602   1.060
48524W        W13784  16.379  19.421  14.897
48525W        W13785   8.682   4.849   3.344
48526W        W13786  26.066  10.283  11.017
48527W        W13787  26.668  38.058   2.317
48528W        W13788  13.663  35.957  12.976
48529W        W13789  35.064  44.752  14.481
48530W        W13790  32.970   7.822   4.331
48531W        W13791   9.073   4.205   1.132
48532W        W13792  14.495  20.079  13.062
48533W        W13793  34.752  16.177  10.683
48534W        W13794   2.725  13.529  13.596
48535W        W13795  38.714  41.759  11.213
48536W        W13796   9.466   5.411  14.357
48537W        W13797   6.524  42.308   2.206
48538W        W13798  15.670  19.244   2.237
48539W        W13799   2.311  18.176  14.378
48540W        W13800  24.904   3.009  11.033
48541W        W13801  29.426  27.834   1.411
48542W        W13802   9.490  13.282   2.665
48543W        W13803   4.992  32.411   1.244
48544W        W13804  14.248  18.717   1.877
48545W        W13805  31.760   6.522   4.306
48546W        W13806  41.656  24.396   2.379
48547W        W13807  21.513  39.076   1.642
48548W        W13808  34.438  17.316  13.530
48549W        W13809   6.698   6.563   0.362
48550W        W13810  41.000  16.157  13.773
48551W        W13811  36.523  37.906   4.376
48552W        W13812  35.855  10.205   1.709
48553W        W13813  11.639   6.842   1.522
48554W        W13814   7.865  26.636  12.661
48555W        W13815  14.033  22.300   1.635
48556W        W13816   7.036  24.028   1.047
48557W        W13817  12.035  32.577  14.976
48558W        W13818  34.475  42.496   4.670
48559W        W13819  40.821  22.914  11.746
48560W        W13820  23.109  22.161  11.025
48561W        W13821   1.876   7.452   0.015
48562W        W13822  39.395  40.566   1.197
48563W        W13823   7.932  35.592  11.946
48564W        W13824  43.747  14.793   4.210
48565W        W13825  26.195  35.054   1.636
48566W        W13826   8.449  39.894  14.936
48567W        W13827  38.554  32.320   4.965
48568W        W13828   4.752  12.590   5.096
48569W        W13829   5.833  23.454  10.439
48570W        W13830   3.842  22.920   2.345
48571W        W13831  24.020   5.418  14.441
48572W        W13832  23.631  32.906  11.165
48573W        W13833   8.193  20.056   1.867
48574W        W13834  23.087  26.925   0.420
48575W        W13835  29.476  43.528  10.624
48576W        W13836  19.761   2.234   2.667
48577W        W13837  38.288  29.145  13.251
48578W        W13838   6.196  42.260  12.429
48579W        W13839  17.002  19.795   0.621
48580W        W13840  41.043  25.750   2.682
48581W        W13841  16.163  42.583   1.424
48582W        W13842  26.897  39.253  13.445
48583W        W13843  20.112  44.670  11.580
48584W        W13844  16.735  44.105   4.532
48585W        W13845  22.221  13.154  10.429
48586W        W13846   6.277   7.981   1.435
48587W        W13847  19.028  29.446   4.890
48588W        W13848  19.723  22.908  12.818
48589W        W13849  18.701  20.972  14.845
48590W        W13850  29.044  19.665  11.176
48591W        W13851  16.548  12.938   2.188
48592W        W13852  29.024  22.562  14.094
48593W        W13853   8.821  20.459   3.275
48594W        W13854  23.824  34.782   0.559
48595W        W13855  38.269  20.927  11.009
48596W        W13856  26.301  32.137  12.704
48597W        W13857   6.658  34.499  13.380
48598W        W13858  31.388   5.292   3.754
48599W        W13859  36.028  35.028   4.137
48600W        W13860   1.409  34.144  14.897
48601W        W13861  26.932  35.027   3.362
48602W        W13862  43.757  23.370  11.609
48603W        W13863  24.164  13.627   0.376
48604W        W13864  25.909  38.304  10.270
48605W        W13865  17.134  28.182   3.785
48606W        W13866  19.695  30.203   3.927
48607W        W13867  21.116  31.993  14.335
48608W        W13868  35.809  28.733   3.644
48609W        W13869  22.270  18.149  13.451
48610W        W13870  23.405   7.954  12.219
48611W        W13871   3.470  20.106  11.084
48612W        W13872  35.517  11.559  11.655
48613W        W13873  20.996  10.716  14.664
48614W        W13874  21.051  19.637   1.632
48615W        W13875  14.679  13.538  12.614
48616W        W13876   8.799  32.129   1.318
48617W        W13877  39.292  19.286  12.126
48618W        W13878  10.884  15.595  12.096
48619W        W13879  30.023  30.203  12.177
48620W        W13880  13.067  11.591  11.109
48621W        W13881  44.836  14.686  14.567
48622W        W13882   3.179  15.594   1.785
48623W        W13883  17.575   1.714   1.877
48624W        W13884  39.037  18.830   1.751
48625W        W13885  28.765   5.328   2.838
48626W        W13886  26.508   9.752  11.544
48627W        W13887  13.669  39.313   3.853
48628W        W13888   7.876  11.172   3.877
48629W        W13889  29.485  14.800  13.097
48630W        W13890  12.187  40.567  14.889
48631W        W13891  13.843  43.978   0.912
48632W        W13892  11.276  24.730   4.159
48633W        W13893  34.121   8.972  11.117
48634W        W13894  23.260  30.476   1.871
48635W        W13895  10.372  41.465   0.918
48636W        W13896  37.857  35.602   2.290
48637W        W13897   5.217  32.029  10.147
48638W        W13898  21.569  24.271   2.850
48639W        W13899  34.985  30.239  12.161
48640W        W13900   9.276  23.567   2.312
48641W        W13901  10.935   2.202   0.321
48642W        W13902  19.787  34.419   0.531
48643W        W13903  34.380   3.637  10.648
48644W        W13904   5.812   1.684  13.773
48645W        W13905   4.941   0.944  14.598
48646W        W13906  13.303  12.287  13.084
48647W        W13907  30.481   5.226  11.892
48648W        W13908  13.954  32.173  12.464
48649W        W13909  43.514  13.895  13.359
48650W        W13910  44.230   4.707  11.077
48651W        W13911   3.327  28.916   0.247
48652W        W13912  28.177  15.576   4.383
48653W        W13913  43.256  21.827   2.473
48654W        W13914  23.021  21.812  14.920
48655W        W13915  37.154  37.325   2.746
48656W        W13916   1.489  24.729   0.096
48657W        W13917  35.441  26.903   2.776
48658W        W13918  42.467  42.291  13.362
48659W        W13919  42.838  30.365   3.424
48660W        W13920  16.512  36.211   2.473
48661W        W13921  40.324   4.993   4.202
48662W        W13922  17.503   6.342   1.476
48663W        W13923  39.328  35.003   4.594
48664W        W13924  43.347  16.729  14.275
48665W        W13925   3.547  43.828  11.528
48666W        W13926  20.024   4.409   9.694
48667W        W13927  26.716   5.351  14.817
48668W        W13928  15.805  18.806  14.745
48669W        W13929  10.278  17.335  10.735
48670W        W13930   3.459  16.782  12.415
48671W        W13931  33.146  43.766   2.690
48672W        W13932   3.743  20.909  12.906
48673W        W13933  18.006   6.258   0.246
48674W        W13934  31.517  10.181   0.892
48675W        W13935  28.933  37.476   3.897
48676W        W13936  33.803  23.735   3.202
48677W        W13937  26.550  38.088  13.378
48678W        W13938  10.470  37.307   1.816
48679W        W13939  44.806   6.948   4.590
48680W        W13940   6.740  19.760  13.586
48681W        W13941  27.616  21.049  11.209
48682W        W13942  26.886   5.121   4.662
48683W        W13943   1.695  31.032   4.186
48684W        W13944  10.818  14.407  11.327
48685W        W13945  35.930  39.897  11.410
48686W        W13946  42.060  29.929   4.210
48687W        W13947  34.397  10.897  10.980
48688W        W13948   1.593   3.637   1.184
48689W        W13949  31.203  44.282  12.520
48690W        W13950   1.756  44.016   4.633
48691W        W13951   4.373  31.040  12.694
48692W        W13952  24.149   6.422   0.523
48693W        W13953   9.582  43.266   0.660
48694W        W13954  43.285  39.435  13.113
48695W        W13955  43.303  20.035  10.680
48696W        W13956  34.444   6.113  13.883
48697W        W13957  24.704  42.007   3.719
48698W        W13958  39.010  36.320   1.190
48699W        W13959   3.143   7.742  11.073
48700W        W13960   3.286  19.640   1.158
48701W        W13961  43.134   9.639   3.246
48702W        W13962  19.302   0.342  13.369
48703W        W13963  40.986  42.227  11.604
48704W        W13964  16.803  30.153   3.668
48705W        W13965  32.375  11.255  13.979
48706W        W13966   9.742  42.730  12.642
48707W        W13967   9.718  13.952  11.131
48708W        W13968   0.832  35.397   0.379
48709W        W13969  14.613  39.943   2.847
48710W        W13970   1.801  42.774   3.914
48711W        W13971  33.147  28.089  12.527
48712W        W13972   2.270  11.830  13.673
48713W        W13973   9.707  27.703   5.381
48714W        W13974   3.819  16.385  12.335
48715W        W13975  25.446   1.844  11.993
48716W        W13976  16.601  39.929  11.519
48717W        W13977   6.573   8.224   4.858
48718W        W13978  30.697  31.984  10.874
48719W        W13979  14.008  34.641   1.438
48720W        W13980   3.399  11.358  12.163
48721W        W13981  19.471   9.935   0.917
48722W        W13982  31.183   8.684   4.559
48723W        W13983   3.909  23.305   1.354
48724W        W13984  36.821  35.518  12.185
48725W        W13985   9.701  23.874   2.246
48726W        W13986  31.140  22.065   1.652
48727W        W13987  38.295  44.656  13.838
48728W        W13988  16.586  12.641  14.265
48729W        W13989  33.889   4.124   2.651
48730W        W13990  42.083  29.941   0.273
48731W        W13991   4.230  33.095  12.953
48732W        W13992  17.535   7.870   4.024
48733W        W13993  39.210  15.020   0.343
48734W        W13994  27.161  10.879  12.056
48735W        W13995  37.799  23.991   4.890
48736W        W13996  15.500  42.286   3.179
48737W        W13997  16.547  23.897  14.295
48738W        W13998  15.333  39.979   1.541
48739W        W13999  35.377  10.241  13.499
48740W        W14000  35.420  21.809   0.722
48741W        W14001  40.005  37.632   4.328
48742W        W14002   1.888  25.414  14.480
48743W        W14003  36.452  26.469  12.054
48744W        W14004   8.093  30.129   2.793
48745W        W14005  27.472  14.349   1.800
48746W        W14006  10.223  26.878   1.632
48747W        W14007  22.946  23.425  13.053
48748W        W14008  40.792   6.944  10.883
48749W        W14009  42.031   5.417  14.192
48750W        W14010  19.754   0.954  12.447
48751W        W14011  40.839  25.035   5.072
48752W        W14012  11.379  40.850  13.060
48753W        W14013   5.195  13.583   3.583
48754W        W14014  21.232  40.993   2.768
48755W        W14015  12.641  10.209  14.469
48756W        W14016  10.534  39.343  13.564
48757W        W14017   4.514  14.866  14.348
48758W        W14018   8.099  43.115   2.281
48759W        W14019   3.354   5.404  13.388
48760W        W14020  10.035  36.324   1.076
48761W        W14021   8.672  40.072  10.414
48762W        W14022  22.941  10.248   1.814
48763W        W14023   0.956  14.069  14.974
48764W        W14024  39.973   3.820   0.223
48765W        W14025  42.842   6.051   2.479
48766W        W14026  15.048   6.905   2.252
48767W        W14027  43.975  17.564   4.192
48768W        W14028  33.560   5.454  13.941
48769W        W14029  31.977  27.014  14.934
48770W        W14030  19.335  44.291   2.256
48771W        W14031  35.052  21.124   2.955
48772W        W14032  42.343  41.820  14.309
48773W        W14033  38.438   2.720  13.444
48774W        W14034  37.418  16.589  14.384
48775W        W14035  36.359  35.006  14.889
48776W        W14036  13.236  27.997  10.705
48777W        W14037  19.579  35.195   1.224
48778W        W14038   2.820  36.554  12.958
48779W        W14039  32.330  20.873  14.882
48780W        W14040  21.719   6.196   0.742
48781W        W14041  27.562  26.010   2.978
48782W        W14042  39.930  20.530  13.722
48783W        W14043  16.524  20.321   3.567
48784W        W14044  21.817  25.112  13.900
48785W        W14045  19.142  18.747  11.465
48786W        W14046  17.235  12.212  14.914
48787W        W14047   8.421  17.806  14.303
48788W        W14048  23.093   8.616  14.739
48789W        W14049  16.190  19.585  12.552
48790W        W14050  15.778  43.995   3.652
48791W        W14051  28.286  12.650  10.279
48792W        W14052  11.538  24.739  13.857
48793W        W14053  19.951  32.929   3.065
48794W        W14054  28.980  20.054   5.025
48795W        W14055  40.988  14.116   1.011
48796W        W14056   7.928   7.685  11.552
48797W        W14057   0.262   1.160  12.331
48798W        W14058  34.923   7.447  11.643
48799W        W14059  18.785  21.453   0.657
48800W        W14060  19.188   5.445  13.018
48801W        W14061  37.803   8.948  12.367
48802W        W14062  34.914  25.219  12.938
48803W        W14063  17.711  33.367   4.133
48804W        W14064  29.984  44.990  14.029
48805W        W14065  21.152   2.391  10.572
48806W        W14066  22.032  23.282   2.923
48807W        W14067  36.839  35.105  13.439
48808W        W14068  24.071  23.540   0.804
48809W        W14069  29.375   6.353  14.864
48810W        W14070  43.408   3.588   0.782
48811W        W14071   7.791  44.673   3.092
48812W        W14072  10.740  28.533  14.735
48813W        W14073  36.549  17.510   2.686
48814W        W14074   7.618  10.235  10.789
48815W        W14075  31.083  21.017  13.337
48816W        W14076  24.000  41.790  13.124
48817W        W14077  10.216  16.070   2.699
48818W        W14078  13.914  14.629   0.009
48819W        W14079  14.558  12.385   4.105
48820W        W14080  24.646  44.194   4.830
48821W        W14081  26.342  17.921   2.000
48822W        W14082   5.301  13.021  12.666
48823W        W14083  29.441  36.279  13.030
48824W        W14084  37.068  31.386  12.806
48825W        W14085   4.590  14.832   3.357
48826W        W14086  38.836   5.655  12.436
48827W        W14087  36.962   7.226   2.644
48828W        W14088  32.026  18.103   0.761
48829W        W14089  31.880  16.697   3.649
48830W        W14090  39.387   1.996  12.979
48831W        W14091  32.047  13.759   2.817
48832W        W14092  31.362  23.991   0.818
48833W        W14093   1.915  12.708  11.511
48834W        W14094  25.171  34.993  11.881
48835W        W14095  14.345  37.871   2.803
48836W        W14096  21.028  44.269  12.082
48837W        W14097  30.884   7.751   4.069
48838W        W14098  34.458  13.565   1.435
48839W        W14099   4.426  20.159   1.639
48840W        W14100  40.072  26.279  13.934
48841W        W14101   2.736  19.549  14.835
48842W        W14102  12.233  10.117   4.772
48843W        W14103  12.273   7.975   3.663
48844W        W14104  43.964  43.751  11.516
48845W        W14105  18.217  37.009  11.428
48846W        W14106   7.473  16.276  11.545
48847W        W14107  38.605  28.166   0.783
48848W        W14108  18.032   5.408   3.629
48849W        W14109   9.103  23.082  11.166
48850W        W14110   5.830  37.934   0.869
48851W        W14111  16.192   1.224   3.254
48852W        W14112  34.436  39.882  14.798
48853W        W14113   5.307  13.367  13.042
48854W        W14114  29.967  34.726   3.651
48855W        W14115  42.456  37.211  14.409
48856W        W14116  17.704  20.366   1.725
48857W        W14117  17.592  22.226   0.843
48858W        W14118   7.686  38.413  14.975
48859W        W14119  35.803  16.983  13.521
48860W        W14120  18.237  38.266  12.041
48861W        W14121   6.221  41.454  12.983
48862W        W14122  32.544  43.853   0.579
48863W        W14123   6.035  26.639  14.396
48864W        W14124   4.253  21.336   2.267
48865W        W14125  24.141   2.290   1.321
48866W        W14126  42.346   3.171   1.734
48867W        W14127  17.223  13.215   0.224
48868W        W14128   1.952   6.385  14.026
48869W        W14129  18.445  17.304   4.029
48870W        W14130   9.357  29.580   2.806
48871W        W14131  12.269   9.341   3.207
48872W        W14132  41.789  20.360  11.609
48873W        W14133  29.152   0.559  10.952
48874W        W14134  16.049  32.075   3.669
48875W        W14135  14.212  27.929   0.014
48876W        W14136  25.495   8.687   2.316
48877W        W14137  19.259  42.307   3.755
48878W        W14138   5.476  35.336   1.865
48879W        W14139  16.214   6.636  11.437
48880W        W14140   1.938  43.392   1.063
48881W        W14141  31.408   7.444   2.760
48882W        W14142  23.076  43.037   1.758
48883W        W14143   8.466  31.223  13.455
48884W        W14144  33.672   3.751   2.317
48885W        W14145  29.797  36.567  12.075
48886W        W14146  15.211   2.380  13.349
48887W        W14147  15.833  12.136   1.499
48888W        W14148  41.854  27.357   3.783
48889W        W14149  40.846  44.262   3.319
48890W        W14150  10.853  42.828   4.565
48891W        W14151   7.088  16.291   3.101
48892W        W14152  34.118   9.479  11.140
48893W        W14153  32.048  12.014   0.158
48894W        W14154   7.768  35.397  11.493
48895W        W14155  39.626  43.468   0.757
48896W        W14156  12.175  23.479   1.279
48897W        W14157  35.813   6.977  10.801
48898W        W14158  34.860   5.690   1.719
48899W        W14159  41.448   2.506   4.664
48900W        W14160  32.131  42.085  12.340
48901W        W14161   2.318  42.477   3.917
48902W        W14162  40.943  11.825  12.504
48903W        W14163  35.116  34.676   3.157
48904W        W14164  21.514  43.067  12.450
48905W        W14165  14.121   8.951   1.627
48906W        W14166   8.731  34.552  13.360
48907W        W14167  27.026  15.262  14.905
48908W        W14168  18.692  26.362  14.406
48909W        W14169  38.037   1.965  13.675
48910W        W14170  40.648  13.627  11.167
48911W        W14171  29.644  39.752   4.535
48912W        W14172  14.127   6.032   2.059
48913W        W14173  41.385  22.289   3.240
48914W        W14174  22.241   1.901  12.505
48915W        W14175  36.030  15.329  14.484
48916W        W14176   9.907  40.899  11.527
48917W        W14177  34.906  12.720  14.792
48918W        W14178   9.870  42.565   2.199
48919W        W14179  42.278  20.206  13.979
48920W        W14180   4.808  40.830  11.580
48921W        W14181  27.801   0.800   0.707
48922W        W14182  25.700  24.281  14.302
48923W        W14183  38.870  15.140   0.800
48924W        W14184   7.067   7.220   2.385
48925W        W14185  24.915   3.258   1.754
48926W        W14186  18.710   8.453  11.123
48927W        W14187  14.585  23.274  11.090
48928W        W14188   7.485  41.165  12.053
48929W        W14189   4.897  33.257  12.461
48930W        W14190  19.946  20.623  14.276
48931W        W14191  20.493   6.363  10.582
48932W        W14192   6.280  27.635  12.891
48933W        W14193  31.136  44.877   2.799
48934W        W14194  31.979  33.358  13.805
48935W        W14195  39.555  20.116  14.885
48936W        W14196   2.215  26.125  14.986
48937W        W14197  31.365  19.255  13.850
48938W        W14198  35.585  13.916   3.520
48939W        W14199   7.921  24.141  11.606
48940W        W14200  44.765  12.323  14.026
48941W        W14201  11.827   8.816  12.836
48942W        W14202   2.468   9.072   0.777
48943W        W14203  11.229   6.115   5.029
48944W        W14204  35.454  15.629  14.160
48945W        W14205  21.313   1.315   3.389
48946W        W14206  23.177  35.331  13.015
48947W        W14207   3.861  36.504   3.121
48948W        W14208  26.572  19.722   5.105
48949W        W14209  42.955  22.471   4.149
48950W        W14210  12.367  26.035   2.761
48951W        W14211   5.863  39.964  11.456
48952W        W14212  10.837   6.299  14.515
48953W        W14213  19.668  40.561  11.699
48954W        W14214  12.575  40.516   4.719
48955W        W14215  40.864  43.960  12.057
48956W        W14216  21.000  30.344  13.377
48957W        W14217  28.121  33.432   3.983
48958W        W14218  15.595  13.576   3.239
48959W        W14219  20.074  32.079   0.925
48960W        W14220   4.650  25.202  14.891
48961W        W14221  42.444  25.416  11.941
48962W        W14222  35.043  32.188  13.295
48963W        W14223  35.014  33.562   0.748
48964W        W14224  42.406  21.281   3.786
48965W        W14225  38.861  22.054  10.036
48966W        W14226  35.846  39.549   1.321
48967W        W14227  44.554  36.384  11.527
48968W        W14228  20.563  39.468   3.648
48969W        W14229   8.681  11.350  14.168
48970W        W14230  14.159  20.168   3.166
48971W        W14231  38.380   3.949   2.282
48972W        W14232  15.168  33.829   1.784
48973W        W14233  29.190  40.337  11.983
48974W        W14234   0.474   5.275  11.945
48975W        W14235   6.725  20.660  12.133
48976W        W14236  10.048  32.428   2.728
48977W        W14237  14.756  19.155   4.257
48978W        W14238  11.125  16.377   1.389
48979W        W14239  26.669  23.578   1.508
48980W        W14240  29.232  36.723   2.909
48981W        W14241  41.004   6.778  12.741
48982W        W14242  28.943  20.830   1.677
48983W        W14243   5.297   7.846   0.274
48984W        W14244  43.360  15.099   2.396
48985W        W14245  21.002  44.732  11.406
48986W        W14246  15.141  32.808   1.678
48987W        W14247  28.224  18.782   1.138
48988W        W14248  43.012  34.368   0.595
48989W        W14249   8.685   0.487  10.367
48990W        W14250  35.331  40.928   1.373
48991W        W14251   1.692   4.863   4.600
48992W        W14252  42.434  17.097  12.458
48993W        W14253  20.522  31.973   4.684
48994W        W14254  42.298   1.364  11.859
48995W        W14255  37.503  35.544   0.502
48996W        W14256  18.988  29.619  13.102
48997W        W14257  18.703  30.524   1.989
48998W        W14258  13.471  37.306   3.694
48999W        W14259  24.309  20.017  10.715
49000W        W14260   3.219  40.462   1.728
49001W        W14261  29.740  35.456  11.007
49002W        W14262  26.959  35.698  12.385
49003W        W14263  12.817  11.772  10.684
49004W        W14264  34.657   5.690   2.238
49005W        W14265   7.178  34.866  11.926
49006W        W14266  23.668  44.105   2.434
49007W        W14267  39.402  29.954   4.392
49008W        W14268  24.260  15.358   0.856
49009W        W14269   5.797  32.058  11.382
49010W        W14270  12.219  15.784   0.841
49011W        W14271   8.633  32.172   4.201
49012W        W14272  42.485   7.760  10.719
49013W        W14273  20.242  23.993  12.391
49014W        W14274  37.457  34.216  10.703
49015W        W14275  42.767  25.933  10.759
49016W        W14276  23.519  38.757  12.831
49017W        W14277  20.625   8.943   4.037
49018W        W14278  42.363   0.536   4.676
49019W        W14279  39.604  11.739  12.266
49020W        W14280  38.428  35.369  13.809
49021W        W14281  36.804  40.890   0.346
49022W        W14282  36.398  14.354  13.425
49023W        W14283  20.993  37.454   4.568
49024W        W14284   7.918  24.782  12.163
49025W        W14285  13.860  12.423   1.273
49026W        W14286  16.118  23.709   2.756
49027W        W14287  31.352  17.186  13.484
49028W        W14288  37.608  31.912  14.985
49029W        W14289   6.936  11.164  11.989
49030W        W14290   3.676  36.956  10.783
49031W        W14291  33.017  30.627  11.422
49032W        W14292  15.818  24.290   3.642
49033W        W14293  18.917   6.766  10.789
49034W        W14294  39.372  23.259  14.859
49035W        W14295  36.194  32.458  12.638
49036W        W14296  29.036  22.643  13.592
49037W        W14297   8.189  26.439  13.504
49038W        W14298  18.073  28.658   2.729
49039W        W14299   4.260  12.209   0.056
49040W        W14300  22.010  34.086  13.460
49041W        W14301  33.172  19.246  13.858
49042W        W14302  33.523  38.602  11.090
49043W        W14303  20.003  19.237  12.261
49044W        W14304  32.620   9.341   2.802
49045W        W14305   3.036  41.755   4.229
49046W        W14306  44.780  14.767  13.100
49047W        W14307   6.911  33.923  12.004
49048W        W14308  26.548  21.746  13.699
49049W        W14309  11.933   1.270  14.944
49050W        W14310  40.534   6.676  13.513
49051W        W14311   7.617  43.364  12.063
49052W        W14312  25.626   6.935  14.881
49053W        W14313  24.160  13.400   2.728
49054W        W14314   5.912   5.716   2.821
49055W        W14315   6.120  28.057   2.728
49056W        W14316  14.349  15.121  13.086
49057W        W14317  18.259  33.843   3.539
49058W        W14318  38.832  17.281  12.416
49059W        W14319  41.866   6.942   4.037
49060W        W14320  25.205  25.766   4.505
49061W        W14321  30.607  31.354   1.237
49062W        W14322  23.721  27.906  11.399
49063W        W14323  32.098  19.997   5.057
49064W        W14324  10.231  21.725  13.076
49065W        W14325  32.626  12.146   3.926
49066W        W14326   6.185  22.792   0.517
49067W        W14327  21.177  22.631  12.128
49068W        W14328  11.865  12.393  14.316
49069W        W14329  31.005  13.844  14.904
49070W        W14330   1.402  43.980  10.467
49071W        W14331   0.326   9.061  11.590
49072W        W14332  40.831  31.452   2.306
49073W        W14333   9.615   9.634   3.368
49074W        W14334   7.726   9.682   1.318
49075W        W14335  27.658  31.111  13.274
49076W        W14336  23.820  36.821   3.720
49077W        W14337  25.883  28.046  11.499
49078W        W14338  38.786  25.613   4.600
49079W        W14339  43.006  43.529  14.374
49080W        W14340  30.442   2.910  12.533
49081W        W14341  40.082  12.154  11.144
49082W        W14342  42.914  28.904  14.332
49083W        W14343  18.667  41.512   3.173
49084W        W14344  22.774  10.894   0.758
49085W        W14345  32.286  40.522   4.725
49086W        W14346  14.734  17.553   3.741
49087W        W14347   1.314  25.662  13.103
49088W        W14348  43.271  26.601   1.824
49089W        W14349  18.250  30.134  13.804
49090W        W14350  16.746  26.255  13.875
49091W        W14351  44.515  35.950   2.839
49092W        W14352   4.482  35.023   4.769
49093W        W14353  28.857   8.610  12.504
49094W        W14354  15.643   8.722  11.877
49095W        W14355   4.542  16.972   2.104
49096W        W14356  37.919  32.499   0.890
49097W        W14357  25.477  31.788  14.788
49098W        W14358  17.857   4.854  13.164
49099W        W14359  39.533  40.988  11.653
49100W        W14360  35.124  23.537  13.924
49101W        W14361  39.157   7.157   2.474
49102W        W14362  34.501   5.699  14.211
49103W        W14363  10.413   3.694  13.045
49104W        W14364   9.754  28.562   2.286
49105W        W14365   1.485   1.716   3.052
49106W        W14366   8.252   3.415   1.836
49107W        W14367  18.836  34.827   1.567
49108W        W14368  17.811   4.992  14.945
49109W        W14369   3.234  25.748  14.375
49110W        W14370  19.536  35.878   2.707
49111W        W14371   6.203   3.314  10.678
49112W        W14372  33.200  39.094  12.888
49113W        W14373  14.341  25.421  12.488
49114W        W14374   0.292  16.596   1.424
49115W        W14375   3.683  25.514   2.348
49116W        W14376   6.866  16.202  12.921
49117W        W14377   5.124  37.059  11.147
49118W        W14378   9.061  26.046  12.952
49119W        W14379  28.080  25.387   0.390
49120W        W14380  31.181  18.521   1.659
49121W        W14381  19.037  21.893   4.598
49122W        W14382  32.652   7.953  14.293
49123W        W14383  40.550  21.020  12.227
49124W        W14384  19.074  36.635  12.961
49125W        W14385   2.364  14.879   1.816
49126W        W14386  32.031  36.085  14.448
49127W        W14387  41.850  44.804   1.317
49128W        W14388   6.891  36.887  12.576
49129W        W14389  38.381  40.098   3.862
49130W        W14390  35.484   9.380   4.747
49131W        W14391  44.794  17.728  13.797
49132W        W14392  41.966  27.150  14.389
49133W        W14393  20.317  10.325  10.624
49134W        W14394   6.867  14.577  14.470
49135W        W14395  20.145  16.701  11.569
49136W        W14396  22.053   1.078   5.013
49137W        W14397  33.107  40.376   3.591
49138W        W14398   4.892  17.839   0.883
49139W        W14399  37.933  23.220   1.658
49140W        W14400   8.672  22.477  11.868
49141W        W14401  38.828  11.538  11.198
49142W        W14402  38.857   9.189  13.413
49143W        W14403  40.537   1.421   4.639
49144W        W14404  18.521   0.172  11.147
49145W        W14405   6.175  40.522   0.403
49146W        W14406  19.074  15.208  12.911
49147W        W14407   0.919  19.300   3.180
49148W        W14408  42.710   5.752   4.995
49149W        W14409  38.398  10.376   1.768
49150W        W14410  15.705  20.159   1.443
49151W        W14411  11.252   5.453   3.119
49152W        W14412  37.151   8.827   1.293
49153W        W14413   8.543  21.528  14.459
49154W        W14414  29.940  32.353  10.626
49155W        W14415  30.383  31.583  10.643
49156W        W14416  16.056  18.168  11.987
49157W        W14417  12.752  29.201  10.203
49158W        W14418  26.408  34.400  12.544
49159W        W14419  42.838  19.533  11.240
49160W        W14420  35.497  27.416   2.657
49161W        W14421   7.380   3.255  10.695
49162W        W14422   3.320  13.351   4.876
49163W        W14423  27.721  21.553  11.975
49164W        W14424  16.228  39.869  10.938
49165W        W14425  34.842   9.603  12.434
49166W        W14426  18.118   3.728   0.266
49167W        W14427  28.926  23.714   0.965
49168W        W14428  28.445   6.290  12.089
49169W        W14429   1.747  18.814  11.203
49170W        W14430  21.298  41.987  11.610
49171W        W14431  29.010   4.688  12.353
49172W        W14432  25.393  15.320  14.855
49173W        W14433   8.046   6.987   3.706
49174W        W14434  21.001  13.134   2.589
49175W        W14435  10.358  26.454   0.717
49176W        W14436  42.858  29.683  14.107
49177W        W14437  26.217  38.099   3.066
49178W        W14438  31.695  11.032   1.718
49179W        W14439  27.408  32.184   3.531
49180W        W14440  12.130   0.042  10.512
49181W        W14441  34.956  31.477   1.824
49182W        W14442   0.655   9.293   0.560
49183W        W14443  41.879  44.031   2.960
49184W        W14444  10.761  21.323   0.907
49185W        W14445   9.309  14.266  11.148
49186W        W14446   2.522  13.593   4.522
49187W        W14447  19.470  12.311  11.429
49188W        W14448  17.511  32.114   4.880
49189W        W14449   5.913  15.784   1.226
49190W        W14450  14.019  36.652  13.950
49191W        W14451  41.776  43.994   0.488
49192W        W14452  35.086  28.744   5.016
49193W        W14453  16.614  39.377   4.572
49194W        W14454  37.550   2.871   3.354
49195W        W14455  27.207  12.822  13.944
49196W        W14456  17.863  21.698   2.144
49197W        W14457   4.657  33.519  14.899
49198W        W14458  24.077   6.528  13.675
49199W        W14459   5.606  35.397  13.736
49200W        W14460  12.142  24.586   1.214
49201W        W14461   1.863   4.126   1.193
49202W        W14462  33.225  36.924  10.662
49203W        W14463   1.246  38.235   3.260
49204W        W14464  35.051   9.622  13.231
49205W        W14465   2.645  16.382   3.179
49206W        W14466  13.341  33.188   1.683
49207W        W14467  21.944  23.607  13.301
49208W        W14468  20.890  21.060   0.316
49209W        W14469  30.882  36.326  12.053
49210W        W14470  10.841  33.805  13.821
49211W        W14471   6.741  18.150   0.370
49212W        W14472   8.936  13.791  12.056
49213W        W14473  37.957  16.483  14.358
49214W        W14474  12.580  11.792  13.298
49215W        W14475  21.071  17.519   5.029
49216W        W14476  38.552  37.142  11.493
49217W        W14477  18.818  40.501  11.440
49218W        W14478  21.629  28.690  14.245
49219W        W14479  12.220  10.882  14.937
49220W        W14480  26.193  36.849   1.742
49221W        W14481  17.818  10.277   2.476
49222W        W14482   9.413  34.474  14.248
49223W        W14483  35.920  12.290   4.239
49224W        W14484   6.969  37.085  14.384
49225W        W14485  29.973   9.892  14.542
49226W        W14486  24.839  38.499   3.427
49227W        W14487  31.451  22.881   0.017
49228W        W14488  34.082  20.724   2.212
49229W        W14489  40.639  44.530  10.856
49230W        W14490  42.470  18.530   3.431
49231W        W14491  21.763  32.973  14.906
49232W        W14492  34.868   5.049   3.368
49233W        W14493  32.742  31.114  14.173
49234W        W14494  16.135  14.787   4.036
49235W        W14495   5.500  44.717  13.483
49236W        W14496  27.445  43.564  13.219
49237W        W14497  30.542   9.421   3.066
49238W        W14498  27.763  11.251   1.702
49239W        W14499  40.477  26.461  14.732
49240W        W14500  40.992  39.862   1.378
49241W        W14501   4.283   1.396   3.675
49242W        W14502  18.738  14.594   4.442
49243W        W14503  38.663  34.006  12.857
49244W        W14504  13.475   0.011  12.209
49245W        W14505  17.763  33.821  12.013
49246W        W14506   7.455  16.594  11.967
49247W        W14507  24.431  37.861   2.223
49248W        W14508  20.721  17.883   4.157
49249W        W14509  24.513   7.829   0.001
49250W        W14510   8.288  42.255  13.327
49251W        W14511  32.585  18.547   2.720
49252W        W14512  26.941   4.587   2.766
49253W        W14513   7.407   0.821   4.815
49254W        W14514  22.747  42.962   4.170
49255W        W14515  36.164  26.586   4.152
49256W        W14516  35.780  36.066   4.518
49257W        W14517  29.962  12.556  11.149
49258W        W14518  36.059  18.036  14.443
49259W        W14519  10.347  32.211  11.976
49260W        W14520  21.696  33.389   1.723
49261W        W14521  10.332  41.936   2.698
49262W        W14522   4.183   6.712   2.281
49263W        W14523  35.457  28.388   0.738
49264W        W14524   6.118  20.981   4.130
49265W        W14525  38.905  30.374  14.440
49266W        W14526  10.707  11.095  10.718
49267W        W14527  39.402  17.765  12.129
49268W        W14528  35.632  27.622  14.724
49269W        W14529   4.178  22.094   4.568
49270W        W14530   7.632   6.462   3.638
49271W        W14531   5.351   5.794  13.969
49272W        W14532  29.377  16.778  12.065
49273W        W14533  30.695  32.629  14.997
49274W        W14534  38.034  27.406  13.560
49275W        W14535   8.115  35.107  14.921
49276W        W14536  26.602  25.254   2.678
49277W        W14537   8.635  35.008   3.257
49278W        W14538  36.958  43.155  11.554
49279W        W14539  32.342  20.576   2.809
49280W        W14540  21.328  30.459   4.082
49281W        W14541  35.224  32.031  14.882
49282W        W14542  16.700  17.126   1.512
49283W        W14543  16.212  40.529   2.351
49284W        W14544  36.467  13.069  10.884
49285W        W14545  26.485  41.619   3.662
49286W        W14546  31.108  30.244   2.734
49287W        W14547  43.022  32.430  11.432
49288W        W14548  35.098  18.508   2.339
49289W        W14549  27.914  23.231   1.341
49290W        W14550  26.228  24.451  13.465
49291W        W14551  25.038  16.727  10.483
49292W        W14552   3.335  42.395   4.073
49293W        W14553  30.970  12.888  12.473
49294W        W14554  43.180  22.416   3.702
49295W        W14555  16.570  11.534   0.401
49296W        W14556  14.659  43.209   0.350
49297W        W14557  24.737  37.391   0.237
49298W        W14558   7.207  37.753  11.416
49299W        W14559  30.938   6.147   1.888
49300W        W14560  28.409  34.045   4.167
49301W        W14561  10.568  38.504   3.098
49302W        W14562  13.646   0.286  11.602
49303W        W14563  19.450  33.298  13.329
49304W        W14564  34.560  30.701   3.482
49305W        W14565  39.294  10.227  13.965
49306W        W14566   0.265  35.538  11.575
49307W        W14567  18.356   0.871  14.791
49308W        W14568   9.181  12.245   0.974
49309W        W14569  35.832  10.647   0.975
49310W        W14570  27.398  21.815   0.262
49311W        W14571  19.259   0.369   4.291
49312W        W14572   0.327   9.381   2.749
49313W        W14573  13.249  43.857   4.599
49314W        W14574   2.848  24.393  14.350
49315W        W14575  38.870  32.788   1.122
49316W        W14576  44.388  18.303   0.242
49317W        W14577  33.551  23.494   2.278
49318W        W14578  22.726  34.748  10.019
49319W        W14579  25.736  30.047  11.179
49320W        W14580   2.986   7.453   3.725
49321W        W14581  26.292  12.701   2.094
49322W        W14582  27.436  28.226   4.266
49323W        W14583   9.865  23.727   0.917
49324W        W14584  31.258  29.547  14.393
49325W        W14585   2.925  37.595   1.027
49326W        W14586  27.901  30.728  11.143
49327W        W14587   4.178  30.647  13.888
49328W        W14588  25.182  18.269   0.388
49329W        W14589   9.204  30.119  14.425
49330W        W14590  29.672  10.787   2.610
49331W        W14591   7.792  25.878  11.132
49332W        W14592  39.028  18.183   1.310
49333W        W14593  37.546   2.855  11.016
49334W        W14594  32.102  10.631   4.942
49335W        W14595   5.189  41.748   2.842
49336W        W14596  28.887  39.339  11.984
49337W        W14597   5.032  44.625  13.672
49338W        W14598  22.113  18.579   5.045
49339W        W14599  24.997  44.866   4.796
49340W        W14600   2.897   3.013  12.531
49341W        W14601  38.011  12.914   1.182
49342W        W14602  19.984  41.772   2.757
49343W        W14603   0.471  43.923   4.381
49344W        W14604  18.814   0.055   4.217
49345W        W14605   5.681  36.116   1.451
49346W        W14606  38.105  12.360  12.997
49347W        W14607  21.165  18.521  13.850
49348W        W14608  42.338  24.800   2.096
49349W        W14609   5.275  17.270  14.103
49350W        W14610  13.293  18.357  10.217
49351W        W14611  34.427  28.470  11.901
49352W        W14612  26.518  17.422  12.832
49353W        W14613  13.045   3.782  11.906
49354W        W14614  13.660  17.644   1.090
49355W        W14615  38.254   1.584  12.368
49356W        W14616  43.163  38.415  13.401
49357W        W14617  17.615   7.415  13.088
49358W        W14618  18.514  28.180  13.524
49359W        W14619  20.720   6.257  13.737
49360W        W14620  26.584   1.354   2.229
49361W        W14621  18.833  41.316   0.806
49362W        W14622  33.071  31.985  13.137
49363W        W14623  38.831   2.354  13.440
49364W        W14624  36.300   6.899  11.459
49365W        W14625  28.628  24.380   2.327
49366W        W14626  27.611  14.837   4.656
49367W        W14627  44.028   1.016   2.173
49368W        W14628   0.058   1.860  11.555
49369W        W14629   1.245   0.063  14.007
49370W        W14630  10.677   2.501   0.701
49371W        W14631  11.413   3.299  13.691
49372W        W14632  13.257  40.547   3.598
49373W        W14633  41.525  37.363  14.534
49374W        W14634  29.815   1.804  11.633
49375W        W14635  11.625  19.807   3.688
49376W        W14636  20.993  19.184   1.387
49377W        W14637  29.260   6.666   2.203
49378W        W14638   1.700  13.882  13.438
49379W        W14639  22.274  11.178   2.324
49380W        W14640  39.783  32.896   2.757
49381W        W14641   1.797   6.954  11.545
49382W        W14642  36.016  22.535   4.724
49383W        W14643  23.345  44.392   4.622
49384W        W14644  42.398  23.511  13.486
49385W        W14645   8.675  18.273   0.194
49386W        W14646  41.275   8.358  14.998
49387W        W14647   2.823  17.171  14.052
49388W        W14648  33.557  10.739  13.773
49389W        W14649   0.247  42.284  11.173
49390W        W14650   0.149   3.615  13.346
49391W        W14651  13.280  39.025  10.639
49392W        W14652  36.079  33.205  13.493
49393W        W14653  24.734  40.309  12.294
49394W        W14654   5.460  24.943   5.496
49395W        W14655   6.250  12.088  11.479
49396W        W14656  35.358   2.885  13.446
49397W        W14657   7.114  39.806  10.581
49398W        W14658  35.941  11.329   4.718
49399W        W14659  19.134  36.273  13.356
49400W        W14660  13.523   4.878   1.715
49401W        W14661  10.898  41.757  14.385
49402W        W14662   7.841  14.588  12.570
49403W        W14663  21.726  43.746   0.761
49404W        W14664   3.728   2.196  11.209
49405W        W14665  30.438  20.153   2.691
49406W        W14666  42.404  39.027   4.518
49407W        W14667   0.259  29.709   0.455
49408W        W14668  16.133  12.618   0.941
49409W        W14669  38.439  16.106   3.619
49410W        W14670  19.285   3.782  13.408
49411W        W14671  17.034  38.056  13.758
49412W        W14672  36.559  14.234  10.653
49413W        W14673   2.576   4.791  12.528
49414W        W14674  15.361  26.080   3.303
49415W        W14675  10.774  39.395  14.044
49416W        W14676  11.359   6.935  14.684
49417W        W14677  36.856  13.516   4.617
49418W        W14678  27.650   7.406  14.323
49419W        W14679  39.969  30.745   3.340
49420W        W14680   3.342  20.952  11.385
49421W        W14681  16.702  38.185   2.341
49422W        W14682   8.394  25.114  10.716
49423W        W14683   5.568   0.426  12.980
49424W        W14684  18.695  29.437  13.497
49425W        W14685  21.866  25.401   3.206
49426W        W14686  23.410  36.624  13.468
49427W        W14687  34.644   5.237   0.477
49428W        W14688  31.236  29.238  14.897
49429W        W14689  11.823  24.069   4.427
49430W        W14690  33.635   0.128  11.109
49431W        W14691  25.517  30.107   4.550
49432W        W14692  26.620  17.711  13.804
49433W        W14693  44.237  28.205   1.241
49434W        W14694  38.476   6.365  12.959
49435W        W14695  11.657  25.912   2.147
49436W        W14696  11.291   9.126   2.826
49437W        W14697  31.601  32.621  13.917
49438W        W14698  30.839  25.445   0.983
49439W        W14699  15.657  37.874   5.064
49440W        W14700  44.863  38.731  14.021
49441W        W14701  25.128  41.418   0.805
49442W        W14702  28.813  26.908  11.964
49443W        W14703   3.364  17.812  14.157
49444W        W14704  40.780  38.549   2.442
49445W        W14705   2.590  27.696   0.039
49446W        W14706  39.018  39.876   0.342
49447W        W14707  39.970  13.813   3.228
49448W        W14708  25.046  31.332   4.878
49449W        W14709   4.647  31.178  14.905
49450W        W14710  15.299   7.303   4.348
49451W        W14711   2.730   3.007  14.247
49452W        W14712   7.472  20.761  10.633
49453W        W14713  42.880  27.046   4.495
49454W        W14714   2.087   2.442   3.130
49455W        W14715   2.012  38.261  12.522
49456W        W14716  27.392  11.501   4.042
49457W        W14717   5.847  37.862  14.336
49458W        W14718  16.101   9.313  12.410
49459W        W14719  15.224  27.813   2.848
49460W        W14720  22.221  35.395  12.499
49461W        W14721  29.444  12.461  12.089
49462W        W14722  31.654  13.762   3.626
49463W        W14723  40.726  33.136  11.754
49464W        W14724  42.890  21.288  11.633
49465W        W14725  12.998  37.320  14.903
49466W        W14726   9.317  13.256   0.392
49467W        W14727  22.454   5.046  12.159
49468W        W14728  15.724  39.410   4.140
49469W        W14729  14.193  17.001   2.366
49470W        W14730   2.950   8.083  11.607
49471W        W14731  24.620  36.492  10.514
49472W        W14732  42.869  37.842  12.243
49473W        W14733  19.426   5.159  14.905
49474W        W14734  12.669  44.233   5.096
49475W        W14735  11.069  31.091   4.152
49476W        W14736  18.164  16.395   4.160
49477W        W14737  36.545  10.253   3.712
49478W        W14738  10.612  16.408   2.761
49479W        W14739  23.075  22.328   2.239
49480W        W14740   6.046  24.709   3.623
49481W        W14741  17.564   1.226   0.548
49482W        W14742  16.910  16.536   3.758
49483W        W14743  10.883  28.655  12.372
49484W        W14744  11.986  26.990   2.681
49485W        W14745   8.110  38.192   3.675
49486W        W14746   8.078   8.102   0.819
49487W        W14747  15.379   2.877   0.136
49488W        W14748  31.943  43.041  10.277
49489W        W14749  23.179  42.754  11.941
49490W        W14750  29.528  23.510   0.307
49491W        W14751   5.840  39.261   1.350
49492W        W14752  41.809  40.674   4.054
49493W        W14753  32.562  36.013   3.566
49494W        W14754  41.284   9.180   0.552
49495W        W14755  33.750  30.147  13.893
49496W        W14756  38.798  24.006   3.315
49497W        W14757  37.100  13.612  11.570
49498W        W14758  12.291  42.205   0.508
49499W        W14759  31.190  10.894   0.501
49500W        W14760  33.293  11.873   4.642
49501W        W14761  13.851  31.681  12.551
49502W        W14762  26.630  41.718  13.796
49503W        W14763  35.329  28.722  14.001
49504W        W14764  11.268  14.227   0.944
49505W        W14765   3.599  33.697   2.627
49506W        W14766  19.218  41.423  12.822
49507W        W14767  15.873  26.426   2.626
49508W        W14768  43.814  36.961   1.027
49509W        W14769  28.560  27.275  10.504
49510W        W14770  36.798  38.597   3.193
49511W        W14771  18.210   8.451  13.311
49512W        W14772   5.400  42.042   4.327
49513W        W14773  42.390  28.143   3.923
49514W        W14774  24.710  39.260   4.183
49515W        W14775  23.958  30.299  12.083
49516W        W14776  13.641  32.384   3.757
49517W        W14777  13.237  16.078  14.484
49518W        W14778  39.538  40.898   0.759
49519W        W14779  33.860  12.395   2.326
49520W        W14780  40.778  23.566  11.470
49521W        W14781  31.713   2.283   4.258
49522W        W14782  41.544  13.202   1.826
49523W        W14783  33.156   8.379   2.765
49524W        W14784  14.074  30.941   2.217
49525W        W14785   2.930  38.811   2.547
49526W        W14786  16.555  13.362   4.874
49527W        W14787  22.944   8.081  11.963
49528W        W14788  29.067  16.760  14.807
49529W        W14789  20.256   1.692  10.610
49530W        W14790   9.243  17.055  14.139
49531W        W14791  19.590  13.868  12.089
49532W        W14792  26.965  12.775  14.438
49533W        W14793  44.456  22.298   1.822
49534W        W14794  36.545   2.412   2.225
49535W        W14795  20.795   0.222  13.372
49536W        W14796  30.668  40.942  13.884
49537W        W14797  21.192  38.811  14.305
49538W        W14798  11.739  27.619   0.509
49539W        W14799  26.726   1.404  12.652
49540W        W14800  21.019   7.154   4.465
49541W        W14801   4.265   4.904   0.265
49542W        W14802  37.297  26.068   2.871
49543W        W14803  43.876  11.085   3.712
49544W        W14804   4.810  27.005  14.009
49545W        W14805   4.748  36.645  13.568
49546W        W14806  15.785  10.557   2.831
49547W        W14807  13.296  21.937  11.818
49548W        W14808  28.395  13.489  13.504
49549W        W14809  17.442  24.508   4.490
49550W        W14810  37.663  42.376   2.247
49551W        W14811  33.911  39.023   0.403
49552W        W14812  28.661  14.038  11.366
49553W        W14813  36.426  24.472   0.380
49554W        W14814   4.979  40.307   3.293
49555W        W14815  14.698  34.868  10.797
49556W        W14816   6.236  31.656  13.371
49557W        W14817  41.956  23.564  13.203
49558W        W14818  43.755  39.840  11.058
49559W        W14819   1.942  37.529  13.815
49560W        W14820  18.161   3.981   3.841
49561W        W14821   6.398  15.328   3.257
49562W        W14822   6.703  41.504   4.601
49563W        W14823  11.639  12.659   1.285
49564W        W14824  43.440   9.374  13.871
49565W        W14825  41.001  38.073  13.503
49566W        W14826   2.004  14.889   1.288
49567W        W14827  27.899  42.510  13.261
49568W        W14828   8.736   4.494   4.246
49569W        W14829  20.765  26.579   4.427
49570W        W14830   6.663   2.923   2.670
49571W        W14831  12.408  43.042  13.031
49572W        W14832  20.296  14.165  14.390
49573W        W14833  43.785   6.450   1.767
49574W        W14834  38.372  15.037   2.213
49575W        W14835  29.416  37.167  13.276
49576W        W14836   5.348  20.623  12.696
49577W        W14837  40.281   3.319   3.402
49578W        W14838   2.244  19.883  12.413
49579W        W14839  23.009  34.323  13.184
49580W        W14840  20.555  30.762  10.655
49581W        W14841   6.861   4.505  11.641
49582W        W14842  25.992   6.568   1.315
49583W        W14843   0.889  11.895  14.742
49584W        W14844  13.957   4.921  13.943
49585W        W14845  34.846  11.421  12.517
49586W        W14846   1.242  16.185   4.355
49587W        W14847  21.681  41.748  13.476
49588W        W14848  15.121  33.527  12.059
49589W        W14849  28.536  39.834   0.423
49590W        W14850  13.882  11.623  13.026
49591W        W14851  35.460   3.761  14.540
49592W        W14852   4.850  22.192   0.517
49593W        W14853  22.455  28.631  13.982
49594W        W14854  33.227  27.678  13.788
49595W        W14855  13.648  43.303   2.370
49596W        W14856  24.060  15.840   2.347
49597W        W14857  31.496  14.298  13.488
49598W        W14858   7.345   3.547   3.681
49599W        W14859  39.317  26.682   4.343
49600W        W14860  16.713  39.755   2.194
49601W        W14861  33.280  27.205  12.118
49602W        W14862   5.794  27.082  14.005
49603W        W14863  13.869   6.818  12.089
49604W        W14864   4.032   7.328   0.190
49605W        W14865  27.179  30.261  13.373
49606W        W14866   6.874   6.379  13.511
49607W        W14867  35.067   9.174   3.484
49608W        W14868  25.067  19.713   4.133
49609W        W14869  37.714  42.757   4.335
49610W        W14870  25.944  27.002  12.485
49611W        W14871  42.824  44.351   2.273
49612W        W14872   2.469  37.383  14.574
49613W        W14873   2.187  43.352  12.474
49614W        W14874  17.821  35.486  11.659
49615W        W14875  12.118  33.916  11.081
49616W        W14876  44.479  17.559  10.588
49617W        W14877  31.102  32.937  14.790
49618W        W14878   5.394  37.449   1.465
49619W        W14879  14.052   6.688  12.651
49620W        W14880  22.287  41.940  12.395
49621W        W14881  22.146  15.809   2.368
49622W        W14882   7.097  11.865   2.019
49623W        W14883  37.938  23.415   4.897
49624W        W14884  14.309   3.806   1.849
49625W        W14885   2.310  27.117  14.947
49626W        W14886  20.166  42.239   1.265
49627W        W14887   5.733   8.315  13.313
49628W        W14888  15.964  21.697   4.473
49629W        W14889  30.049  33.461   0.891
49630W        W14890  35.157  31.741   4.121
49631W        W14891  15.773   9.624   0.013
49632W        W14892   7.711  28.987   0.870
49633W        W14893  11.191   8.327  13.317
49634W        W14894  38.302   8.732   2.750
49635W        W14895  32.045   1.132   0.036
49636W        W14896  15.612  15.064  14.750
49637W        W14897  39.834  34.115   1.569
49638W        W14898  38.892  31.828  13.326
49639W        W14899  34.017  24.741   5.373
49640W        W14900   9.648   6.606   0.487
49641W        W14901  22.722  20.523  14.204
49642W        W14902  28.765   8.800   3.817
49643W        W14903  29.354   4.416  12.585
49644W        W14904  11.163  23.066  11.442
49645W        W14905  15.298  41.361  10.998
49646W        W14906  19.016  16.125   0.534
49647W        W14907  27.037  11.804  14.449
49648W        W14908   0.305  20.280  14.893
49649W        W14909  43.038  44.479   9.964
49650W        W14910  42.602  13.335  13.493
49651W        W14911  43.854   9.551  14.952
49652W        W14912  22.724  11.848   4.571
49653W        W14913   9.308  17.644   4.023
49654W        W14914   8.842   3.220  10.674
49655W        W14915  24.115   7.821   3.112
49656W        W14916  26.472   1.928  12.876
49657W        W14917  10.749  12.903   3.571
49658W        W14918   3.150  14.174   2.696
49659W        W14919  12.691  14.550  12.937
49660W        W14920  26.727  34.506   2.558
49661W        W14921  35.437  14.341  11.495
49662W        W14922  25.232  43.834  11.418
49663W        W14923  27.081   7.375   0.938
49664W        W14924  21.063  18.721  13.405
49665W        W14925  39.581  25.970   0.995
49666W        W14926   9.160  42.945  12.029
49667W        W14927  21.238   1.933  10.796
49668W        W14928  14.220  29.343  13.991
49669W        W14929  33.810  35.133   2.387
49670W        W14930  41.829  15.512  11.166
49671W        W14931  36.110  27.798  14.675
49672W        W14932   1.895   3.838   2.737
49673W        W14933   5.492  42.221  14.449
49674W        W14934   6.194  33.460  14.922
49675W        W14935  31.561   0.958   3.572
49676W        W14936  39.991  24.726  10.897
49677W        W14937  14.613  33.507   0.961
49678W        W14938   0.529  15.124  13.476
49679W        W14939  41.811   3.163  12.061
49680W        W14940   4.186   1.726   4.336
49681W        W14941  19.002  39.256   3.805
49682W        W14942  32.506  43.987  14.880
49683W        W14943  30.972   5.307  12.595
49684W        W14944   7.122  25.216  12.495
49685W        W14945  29.653  40.945  14.901
49686W        W14946  35.116  16.086   3.251
49687W        W14947  20.166   7.063   1.824
49688W        W14948  42.216  33.593  10.939
49689W        W14949  17.837   8.821  11.301
49690W        W14950  20.148  35.852  12.994
49691W        W14951  12.218  31.609   4.319
49692W        W14952  10.148  21.961   3.251
49693W        W14953   5.019  11.794  11.751
49694W        W14954  31.080  18.238   2.124
49695W        W14955  43.736  27.727   0.677
49696W        W14956   4.720  19.625   2.864
49697W        W14957  22.995  41.747   0.337
49698W        W14958  24.513  36.219   3.354
49699W        W14959  33.160  30.695   2.912
49700W        W14960  21.083  16.879   1.892
49701W        W14961   9.650  39.574   1.457
49702W        W14962  20.166  25.577  10.657
49703W        W14963  41.591   9.565   0.774
49704W        W14964  22.690  28.455   3.665
49705W        W14965  29.180  16.048  10.678
49706W        W14966  37.443  42.432   1.309
49707W        W14967  20.320  11.565  12.718
49708W        W14968   7.623  21.222   9.882
49709W        W14969  18.209  27.245  10.434
49710W        W14970  43.839  27.550   1.901
49711W        W14971  24.484  23.087   4.124
49712W        W14972   3.933  16.789  12.061
49713W        W14973   4.836  12.293  14.218
49714W        W14974   6.757  30.585   1.203
49715W        W14975  42.928  10.854  10.183
49716W        W14976  39.893  14.952   1.652
49717W        W14977  24.308  18.171   2.984
49718W        W14978  43.909  33.330  11.199
49719W        W14979  43.459  27.750  12.872
49720W        W14980  17.810  17.147  14.838
49721W        W14981  19.175  35.731   9.547
49722W        W14982  34.037  23.326   2.985
49723W        W14983  43.991  21.621   0.227
49724W        W14984  40.366  29.220   2.154
49725W        W14985  21.246   9.802  12.474
49726W        W14986  12.254  22.064  11.088
49727W        W14987  32.935  29.619  14.868
49728W        W14988  41.513  35.650   4.209
49729W        W14989  38.514   1.980  14.314
49730W        W14990   6.379   9.227   4.049
49731W        W14991  32.274  33.297  12.876
49732W        W14992  15.531  22.080   1.736
49733W        W14993  10.138  35.619   2.153
49734W        W14994  12.320  38.125  13.669
49735W        W14995  32.095  40.409   2.878
49736W        W14996   8.118  44.289   3.852
49737W        W14997  20.249  35.359  13.133
49738W        W14998  21.646  16.406   1.156
49739W        W14999   9.946  19.437  10.947
49740W        W15000  25.300  36.586   3.059
49741W        W15001  43.556   9.918  13.274
49742W        W15002  13.695  44.868  13.331
49743W        W15003  34.982  33.325  10.696
49744W        W15004  31.321  21.226   1.220
49745W        W15005   5.467  15.158   4.905
49746W        W15006   9.221  19.697   2.009
49747W        W15007  38.175   3.294   5.088
49748W        W15008  39.421  39.511   2.156
49749W        W15009  38.381  38.084  12.601
49750W        W15010  39.751  14.537   0.850
49751W        W15011  27.827  26.874   1.167
49752W        W15012  37.121  36.408   1.308
49753W        W15013  36.629  17.084   4.150
49754W        W15014  36.515  26.843   0.854
49755W        W15015  32.557  15.327   1.681
49756W        W15016  26.894   1.435   0.475
49757W        W15017   3.455  40.619  11.067
49758W        W15018  20.763  43.266   2.217
49759W        W15019  34.047  36.421   4.268
49760W        W15020  16.296   0.769   0.415
49761W        W15021   2.452  10.957  12.082
49762W        W15022   4.951  24.730  14.970
49763W        W15023  28.520  32.420   3.807
49764W        W15024  25.470  39.896  14.446
49765W        W15025  14.950   9.013  12.966
49766W        W15026   4.351  25.254   2.111
49767W        W15027  29.641  43.223   1.795
49768W        W15028   1.697   0.275  12.469
49769W        W15029   7.530  16.185   3.481
49770W        W15030  32.003  17.152  10.590
49771W        W15031  31.061  35.904   0.463
49772W        W15032  39.071  25.506   3.168
49773W        W15033  10.074  37.534   3.770
49774W        W15034  33.449  19.743   0.801
49775W        W15035  36.381  14.085   4.141
49776W        W15036  43.294  21.799  14.035
49777W        W15037  35.433  22.070   3.196
49778W        W15038  44.460  12.807   3.805
49779W        W15039  43.776  38.079  14.410
49780W        W15040  43.613  17.891   5.014
49781W        W15041   4.427  32.010   1.611
49782W        W15042  26.633  10.757  11.943
49783W        W15043  43.407   9.116  11.971
49784W        W15044  33.634   9.764  11.207
49785W        W15045   0.181   5.227  11.516
49786W        W15046   5.540  26.113  12.654
49787W        W15047  20.424  12.788  14.029
49788W        W15048  25.713  22.691  11.081
49789W        W15049  43.821   7.094  10.376
49790W        W15050  39.593  44.743  14.461
49791W        W15051  30.146  35.347   2.860
49792W        W15052  41.314  35.053   0.417
49793W        W15053  31.029  25.990   2.058
49794W        W15054  20.019   4.630  13.712
49795W        W15055  10.427  11.234   3.609
49796W        W15056  41.798  20.621   3.626
49797W        W15057  16.343   8.241   1.419
49798W        W15058  24.537   8.571   3.741
49799W        W15059  41.004  38.010  12.151
49800W        W15060  25.757  13.697   4.859
49801W        W15061  12.305  11.674   5.074
49802W        W15062  44.721  16.739   3.838
49803W        W15063  18.081   5.428   0.848
49804W        W15064  44.794  32.647   2.834
49805W        W15065  42.844  10.786  12.822
49806W        W15066  34.976   8.113  13.514
49807W        W15067  36.862  30.013   0.423
49808W        W15068   3.328   8.618  10.618
49809W        W15069   8.719  27.917  14.329
49810W        W15070  29.543   7.581  10.617
49811W        W15071  11.573  35.059  13.016
49812W        W15072   7.168   0.329  14.360
49813W        W15073  34.462  18.819   1.290
49814W        W15074  28.562  25.500  11.122
49815W        W15075  20.826  30.451   0.281
49816W        W15076  26.598  20.025   3.134
49817W        W15077  43.377  21.202   0.412
49818W        W15078  12.069   5.461   3.113
49819W        W15079  41.439  11.880   3.754
49820W        W15080  34.907  42.770   2.686
49821W        W15081  14.231  21.194   1.021
49822W        W15082  23.017   0.378   3.659
49823W        W15083  13.782   4.293  14.724
49824W        W15084  40.199  12.434  12.546
49825W        W15085  41.845   2.654  12.362
49826W        W15086  32.390  11.717  10.494
49827W        W15087  44.253  29.437   3.182
49828W        W15088  31.862   7.556   3.348
49829W        W15089  32.177  23.195   3.149
49830W        W15090  10.839  12.657   4.595
49831W        W15091  14.685  11.035  13.249
49832W        W15092  14.383  22.623   3.210
49833W        W15093   1.411  34.914   2.139
49834W        W15094  26.199  36.758   5.481
49835W        W15095  21.213   1.254   2.876
49836W        W15096  35.399  30.912   1.518
49837W        W15097  44.678  25.411   2.128
49838W        W15098  28.940  25.362   1.926
49839W        W15099  41.174  12.498  14.841
49840W        W15100   6.171  33.982  14.887
49841W        W15101  33.659  20.319  13.089
49842W        W15102  41.279  14.656  11.144
49843W        W15103  15.602  14.000  14.736
49844W        W15104  12.971  44.864  13.555
49845W        W15105  18.113  42.443  11.511
49846W        W15106   6.834   4.463  13.883
49847W        W15107   6.276  33.887   3.588
49848W        W15108  26.043  13.625  11.943
49849W        W15109   7.899  16.826   3.694
49850W        W15110  25.245  13.344   4.409
49851W        W15111  26.987  10.065  11.595
49852W        W15112   5.881  17.312  10.322
49853W        W15113  39.660   1.671   3.171
49854W        W15114  29.741   6.198   3.321
49855W        W15115  38.398  14.230   2.746
49856W        W15116   0.242  16.709   2.297
49857W        W15117  18.625  17.836   2.285
49858W        W15118  39.684  42.546  14.034
49859W        W15119  35.944  32.516  14.721
49860W        W15120  28.115  42.033  12.889
49861W        W15121   2.143  30.939  12.995
49862W        W15122  38.958  25.727  13.860
49863W        W15123  10.376  32.054   4.603
49864W        W15124   9.172  42.416  11.425
49865W        W15125  17.503  26.996  12.109
49866W        W15126  44.587  34.402   0.897
49867W        W15127  33.356   0.681   9.847
49868W        W15128   8.256  17.700  12.935
49869W        W15129  16.312  25.909   0.333
49870W        W15130  34.187  25.999  14.400
49871W        W15131  35.120  44.046  13.010
49872W        W15132  17.268  42.668  13.981
49873W        W15133  15.143  44.456  11.392
49874W        W15134  12.396   5.283  13.227
49875W        W15135  21.115  34.876   0.617
49876W        W15136  27.814  32.927   0.867
49877W        W15137  42.617  35.609  12.595
49878W        W15138  20.094  13.829   3.701
49879W        W15139  23.733  42.425  11.550
49880W        W15140  29.695  43.418  11.538
49881W        W15141  34.779  12.161  14.508
49882W        W15142  30.268  20.589   1.301
49883W        W15143  40.292  14.985  13.544
49884W        W15144   5.144   3.253   2.864
49885W        W15145  24.563   0.038  11.034
49886W        W15146  38.874  32.479   4.144
49887W        W15147   2.275  41.786   5.037
49888W        W15148   8.102  19.243   3.880
49889W        W15149   0.593  39.912   0.687
49890W        W15150  33.925  32.686   1.558
49891W        W15151  35.824  17.981  12.035
49892W        W15152  41.951  33.940  10.681
49893W        W15153  43.750  22.150  13.986
49894W        W15154  31.382  30.052   1.379
49895W        W15155  42.493  38.947  14.549
49896W        W15156  17.709   9.258   4.640
49897W        W15157  39.764  17.863   2.291
49898W        W15158  38.227  31.549   1.863
49899W        W15159  41.080  22.127  11.099
49900W        W15160  32.531  23.961  11.162
49901W        W15161  44.244  39.334   2.911
49902W        W15162  21.289   7.224  13.509
49903W        W15163   1.894  36.156  12.874
49904W        W15164  20.188  44.795   3.358
49905W        W15165  12.659   8.236  10.232
49906W        W15166  40.391  30.619   4.086
49907W        W15167  19.274  10.761  12.909
49908W        W15168  23.202  28.642   0.507
49909W        W15169   6.869  14.151   2.115
49910W        W15170  41.998  38.945  14.719
49911W        W15171  28.189  32.415   1.914
49912W        W15172   1.203  40.409  13.403
49913W        W15173   7.613   3.935   0.384
49914W        W15174  21.995   2.305   1.688
49915W        W15175   4.183  19.614   0.454
49916W        W15176  16.786  16.685  12.439
49917W        W15177  12.239  26.199  12.918
49918W        W15178  36.440  24.146   2.536
49919W        W15179  22.889  34.956   0.188
49920W        W15180  25.002  42.374  14.833
49921W        W15181  41.658  38.790   4.283
49922W        W15182  20.842   9.749  10.612
49923W        W15183  13.275  15.733   3.540
49924W        W15184   8.330  32.072   4.618
49925W        W15185  33.534  33.424  11.693
49926W        W15186  15.978  31.004  11.462
49927W        W15187  31.167   5.854  11.029
49928W        W15188   9.399  23.572  13.919
49929W        W15189  35.388  33.006   0.182
49930W        W15190  22.982  12.630   4.711
49931W        W15191  31.990   7.310  14.829
49932W        W15192   9.388  23.591  11.392
49933W        W15193  43.459   8.704  10.254
49934W        W15194  40.830  32.874  13.017
49935W        W15195   8.380  22.251   2.746
49936W        W15196  20.561  10.979   4.522
49937W        W15197  23.474  16.989   2.573
49938W        W15198  41.867  27.439  14.843
49939W        W15199  23.704  42.042   1.367
49940W        W15200  15.222   9.732   3.301
49941W        W15201  41.738  43.823   1.507
49942W        W15202   8.623  27.024  13.009
49943W        W15203  40.258  39.743  10.601
49944W        W15204   3.250   9.613   3.217
49945W        W15205  24.550  17.747   1.039
49946W        W15206  23.271  29.732   0.706
49947W        W15207   1.038  28.311  12.854
49948W        W15208  39.032  14.144  10.445
49949W        W15209   9.760   4.236  11.101
49950W        W15210   0.894  20.816   0.928
49951W        W15211   3.528  15.390   1.362
49952W        W15212  10.481   4.258  10.642
49953W        W15213  25.859  30.335   4.183
49954W        W15214  18.159  34.371  13.050
49955W        W15215  42.103  20.781  11.565
49956W        W15216  40.337  29.138   0.405
49957W        W15217  19.709   1.953  12.558
49958W        W15218  33.394  30.052   2.327
49959W        W15219  23.440   8.741   3.687
49960W        W15220  26.554   9.400   4.137
49961W        W15221  36.018   6.734   2.955
49962W        W15222  42.348  41.994   4.650
49963W        W15223  42.236  27.595  12.984
49964W        W15224  16.242  14.927  12.083
49965W        W15225  22.533  44.805  12.881
49966W        W15226  32.627  28.018   0.364
49967W        W15227  24.154  40.733   0.766
49968W        W15228   4.747  20.660   2.665
49969W        W15229  44.939  21.822   4.493
49970W        W15230  23.601  16.010   2.765
49971W        W15231  44.283  38.033  12.941
49972W        W15232  30.126  19.903  11.981
49973W        W15233  38.890   9.431   1.857
49974W        W15234  13.869  37.516  13.032
49975W        W15235  26.336  17.861  13.352
49976W        W15236   1.450  44.319  14.920
49977W        W15237  41.587  43.339  11.996
49978W        W15238  17.205  18.028   5.048
49979W        W15239  37.453   2.110   9.859
49980W        W15240  38.364   8.430  13.041
49981W        W15241  18.886  29.602  11.181
49982W        W15242  42.144  11.443  14.056
49983W        W15243  37.302  24.041  12.613
49984W        W15244  21.161  18.732   2.645
49985W        W15245  43.210  12.351   2.270
49986W        W15246  11.848  34.976  13.778
49987W        W15247  10.944  15.259   0.290
49988W        W15248   8.356   8.234  13.889
49989W        W15249  13.138  34.410  13.518
49990W        W15250  36.104  18.050   3.377
49991W        W15251  19.013  39.156  13.963
49992W        W15252  35.161  19.511  13.850
49993W        W15253  32.533  31.427   2.397
49994W        W15254  27.108  41.288   4.089
49995W        W15255   2.061  13.042   1.853
49996W        W15256   6.186  36.191   2.659
49997W        W15257  21.462  37.579   4.775
49998W        W15258   1.228   4.855   0.446
49999W        W15259  19.828  24.229   0.473
50000W        W15260  15.381  25.889  12.588
50001W        W15261  39.437   9.975  13.506
50002W        W15262   2.375  32.280   1.582
50003W        W15263  27.900  20.649   4.162
50004W        W15264  28.098   7.670  13.841
50005W        W15265  10.137  25.155  10.193
50006W        W15266  43.625  16.030   2.155
50007W        W15267  41.981  43.196  11.656
50008W        W15268  44.920  17.770  11.928
50009W        W15269   4.218  18.009  13.921
50010W        W15270  24.992  23.106   4.177
50011W        W15271  41.758   5.248   3.836
50012W        W15272  13.183   5.348  13.874
50013W        W15273  44.392  16.052  12.837
50014W        W15274   0.942  43.398  13.505
50015W        W15275  11.414  42.989  11.791
50016W        W15276   8.378  25.049  11.553
50017W        W15277  17.869  13.205   0.268
50018W        W15278   2.746   9.356   3.181
50019W        W15279  39.510  20.360   0.765
50020W        W15280  18.040  23.166  10.645
50021W        W15281   2.796  17.884   0.958
50022W        W15282  25.486  33.343   2.853
50023W        W15283  19.119  38.626  13.115
50024W        W15284  20.547  27.715  11.422
50025W        W15285  10.772   9.212  13.416
50026W        W15286  12.494  28.478  14.953
50027W        W15287   9.617  10.296  11.542
50028W        W15288  26.983  39.117  12.607
50029W        W15289  18.739  41.050   2.948
50030W        W15290  33.246   8.155  12.495
50031W        W15291   9.155   4.663  11.535
50032W        W15292  13.045  14.549   1.236
50033W        W15293  40.198  30.625   2.111
50034W        W15294   5.475  40.505   3.245
50035W        W15295   2.776  17.334   3.834
50036W        W15296  44.062  41.778  13.023
50037W        W15297   9.775  28.742   4.767
50038W        W15298  10.709  22.557  14.267
50039W        W15299   5.952  33.571  12.353
50040W        W15300  20.983  28.103  13.352
50041W        W15301  11.444  34.991   0.746
50042W        W15302   8.945  19.327  13.715
50043W        W15303  26.242  29.290   3.131
50044W        W15304  16.873  38.823   0.345
50045W        W15305  32.052   4.227   1.023
50046W        W15306  13.579  16.724  14.193
50047W        W15307  18.244  31.194  13.095
50048W        W15308  21.517  33.625  12.065
50049W        W15309  24.434  37.272  14.348
50050W        W15310  41.456  42.180   2.698
50051W        W15311  20.755  14.884  13.994
50052W        W15312  18.961   0.593  10.259
50053W        W15313  23.158  28.078  14.276
50054W        W15314  29.173  35.517  12.161
50055W        W15315  19.554  32.461  14.875
50056W        W15316  22.718   1.725   1.166
50057W        W15317  25.666   9.801   2.914
50058W        W15318  22.937  19.835  10.710
50059W        W15319   6.949   5.278  12.351
50060W        W15320  15.232  25.839  11.501
50061W        W15321  42.961   0.850  13.564
50062W        W15322  40.342  22.496  13.040
50063W        W15323  13.809  35.457  14.957
50064W        W15324   2.278   7.649   3.149
50065W        W15325  33.000  33.148   3.725
50066W        W15326  38.301  28.066   1.686
50067W        W15327  37.914  43.692   1.352
50068W        W15328  37.076   8.924  12.157
50069W        W15329  34.176   2.010  11.127
50070W        W15330  10.085   7.247  12.030
50071W        W15331  22.443  26.635  14.736
50072W        W15332  16.181  41.631   0.429
50073W        W15333  27.888  25.685   3.237
50074W        W15334  13.884   3.774  11.549
50075W        W15335  22.484  32.435  14.859
50076W        W15336  37.785  26.462  12.176
50077W        W15337  13.641   8.865  12.399
50078W        W15338   2.293  23.501   2.187
50079W        W15339  35.132   9.828  12.064
50080W        W15340  42.962  36.863  12.514
50081W        W15341  28.916  22.723  12.123
50082W        W15342   3.810  40.857   1.456
50083W        W15343  20.441   0.985   0.735
50084W        W15344   4.130  27.453  13.929
50085W        W15345   7.586  11.032   1.216
50086W        W15346   8.387   3.412  12.035
50087W        W15347  11.359   8.510   3.519
50088W        W15348   5.176  11.341   2.331
50089W        W15349  33.553  29.500  13.479
50090W        W15350  33.697  39.838   1.403
50091W        W15351  16.163   2.440  14.537
50092W        W15352  21.368  13.865  12.918
50093W        W15353  39.440  36.196   4.828
50094W        W15354  12.495   3.251  10.285
50095W        W15355  41.237  44.727   0.543
50096W        W15356  31.848   5.997  13.354
50097W        W15357  18.955  33.492  13.342
50098W        W15358  40.352   4.103   2.783
50099W        W15359  12.361   0.605   4.817
50100W        W15360  22.621  37.612   0.168
50101W        W15361  36.909  11.886  10.668
50102W        W15362  15.974  30.968  12.653
50103W        W15363  29.612  13.391  13.848
50104W        W15364   6.237   7.760  12.615
50105W        W15365  23.540  30.233  11.465
50106W        W15366  38.153  35.488  12.340
50107W        W15367  33.383   0.074  13.228
50108W        W15368   5.986  10.165   0.965
50109W        W15369   9.766  33.673  13.453
50110W        W15370  24.622  27.974   1.766
50111W        W15371   5.394  22.206  11.551
50112W        W15372  20.656  24.524  11.920
50113W        W15373  40.491   3.179   1.908
50114W        W15374   0.456  37.357  11.548
50115W        W15375  44.737  21.989  14.919
50116W        W15376  12.305  31.675  14.451
50117W        W15377   9.764   6.435  10.588
50118W        W15378  21.734   6.830  11.514
50119W        W15379  13.164   2.183   2.763
50120W        W15380  44.706  12.348   3.645
50121W        W15381   9.010  28.940  12.898
50122W        W15382  10.397  31.089  12.823
50123W        W15383   2.294  36.828   4.621
50124W        W15384  20.534  18.687  13.431
50125W        W15385  44.083  40.451   4.220
50126W        W15386   8.704  30.017  11.772
50127W        W15387  21.792  20.151  11.671
50128W        W15388  10.388  21.023  13.418
50129W        W15389  43.743  41.941   0.695
50130W        W15390  11.837  33.076  12.174
50131W        W15391  16.137  30.846   3.352
50132W        W15392  39.752  32.035  14.306
50133W        W15393  33.019  24.511   4.142
50134W        W15394   4.857   7.912  13.406
50135W        W15395  11.273   2.781  10.602
50136W        W15396  13.371  14.155  10.337
50137W        W15397  20.104   8.492  10.928
50138W        W15398  13.837  11.830  11.578
50139W        W15399  28.430  43.688   2.843
50140W        W15400  22.401  42.263  13.000
50141W        W15401  12.192  15.166   3.693
50142W        W15402   9.529  29.829  11.175
50143W        W15403  10.465  13.922  11.456
50144W        W15404  15.785  43.681   2.270
50145W        W15405   7.330  10.189  10.344
50146W        W15406  35.725  43.013  11.693
50147W        W15407  22.685   0.312  12.879
50148W        W15408  31.426   7.298  12.960
50149W        W15409  38.896  25.420  12.810
50150W        W15410  29.990  30.725  13.037
50151W        W15411  13.398   9.602   2.747
50152W        W15412  18.112  14.166  12.089
50153W        W15413  17.009  13.078   1.763
50154W        W15414  11.401  34.362  14.454
50155W        W15415  23.451  42.926   0.398
50156W        W15416   1.975  44.876   4.513
50157W        W15417   7.855  34.403   3.709
50158W        W15418  43.114  41.355  10.361
50159W        W15419  39.071  17.285   2.950
50160W        W15420  28.442  14.789  14.749
50161W        W15421   5.341  11.240   0.509
50162W        W15422   0.504  37.926  13.520
50163W        W15423  41.838   1.416   1.773
50164W        W15424  22.988  28.054   3.786
50165W        W15425  19.134   8.907  11.654
50166W        W15426  37.542  31.922   2.235
50167W        W15427  36.868  32.750   3.349
50168W        W15428  11.783  19.898  11.714
50169W        W15429  24.942  21.172  11.667
50170W        W15430  30.226   7.838   2.380
50171W        W15431  43.265  34.473  10.738
50172W        W15432   1.426  44.725  13.512
50173W        W15433  12.716  39.296   3.736
50174W        W15434  25.964   8.675  12.399
50175W        W15435  27.353  16.780   3.528
50176W        W15436   3.257  10.639   2.320
50177W        W15437  33.865   7.809   0.472
50178W        W15438  41.818  39.347  11.592
50179W        W15439  30.306   5.767  10.610
50180W        W15440   8.719  37.053   4.054
50181W        W15441  19.850  43.294   0.304
50182W        W15442  19.936   6.774  12.163
50183W        W15443  25.215  16.266  10.645
50184W        W15444  32.838  40.033  13.536
50185W        W15445  21.329  28.121  12.050
50186W        W15446  28.630  32.723  12.829
50187W        W15447  26.007  35.924   4.725
50188W        W15448  18.502  25.624  11.457
50189W        W15449  18.716  22.048   5.077
50190W        W15450  25.123  13.840   1.440
50191W        W15451  13.253  30.621  11.087
50192W        W15452   2.441  30.648   2.689
50193W        W15453   7.742  15.226  11.447
50194W        W15454  31.713   1.377   0.841
50195W        W15455  10.096  35.202  11.773
50196W        W15456  28.434  30.172  10.805
50197W        W15457  17.459  13.822  13.031
50198W        W15458  32.125  11.529   0.253
50199W        W15459  27.106  18.999   1.199
50200W        W15460  27.887   7.221  10.062
50201W        W15461   5.294  20.368   0.374
50202W        W15462   4.177  35.763  11.522
50203W        W15463  25.149  10.661   3.631
50204W        W15464  44.375  29.139  10.684
50205W        W15465  40.062  10.741   4.242
50206W        W15466  27.497  12.321   4.128
50207W        W15467  33.865  26.915  12.924
50208W        W15468  42.560   8.991  10.572
50209W        W15469  26.549  38.803   1.074
50210W        W15470   8.247  30.276  11.074
50211W        W15471   8.085  44.425   4.344
50212W        W15472  28.597   1.940  13.095
50213W        W15473  24.542   4.218   1.770
50214W        W15474  19.735  11.084   2.462
50215W        W15475  23.734  25.081  14.936
50216W        W15476  38.249  35.301  11.857
50217W        W15477   4.625  14.799   1.256
50218W        W15478  28.132  26.028  10.547
50219W        W15479  35.394  28.920  11.906
50220W        W15480  31.525  11.350  12.965
50221W        W15481   1.869  14.635   0.852
50222W        W15482  34.330  39.254  13.277
50223W        W15483  20.912  38.195   2.356
50224W        W15484  16.032   8.328   2.826
50225W        W15485  36.524  27.268   5.162
50226W        W15486  44.926  20.623  14.876
50227W        W15487  40.960  32.493   3.127
50228W        W15488  14.857  30.086  11.508
50229W        W15489  32.973   6.865   1.785
50230W        W15490   5.342   5.311   2.244
50231W        W15491   8.077  33.611  12.826
50232W        W15492  10.815  14.280  13.793
50233W        W15493  11.567  44.916   2.579
50234W        W15494  21.148  16.505  11.093
50235W        W15495  29.372   5.895   4.196
50236W        W15496  28.181  41.933   4.570
50237W        W15497  19.766  15.783  11.554
50238W        W15498   8.310  18.731   2.440
50239W        W15499  32.391  14.285   4.819
50240W        W15500  11.842  29.831   1.921
50241W        W15501  40.819  30.169  14.838
50242W        W15502  20.221  25.425  14.369
50243W        W15503  27.214  36.087  10.605
50244W        W15504  21.719  20.317   4.156
50245W        W15505  41.043  30.950   2.330
50246W        W15506   5.836  29.708   1.752
50247W        W15507   2.217   1.526  12.130
50248W        W15508  36.618  21.772   0.413
50249W        W15509   4.524  44.665  13.622
50250W        W15510  34.848  44.886   1.283
50251W        W15511  36.019  35.610   3.716
50252W        W15512   1.982  28.896   0.812
50253W        W15513  21.646  39.026   1.143
50254W        W15514  14.250  30.758   5.014
50255W        W15515   4.618  18.327   3.164
50256W        W15516  28.305  30.606  13.393
50257W        W15517  14.371  20.197   0.034
50258W        W15518  34.404  39.744  13.441
50259W        W15519  44.733  34.957   4.480
50260W        W15520  12.457  27.728  10.247
50261W        W15521  13.127   9.143   3.137
50262W        W15522  44.994   3.996  12.968
50263W        W15523  26.499   2.372   4.032
50264W        W15524  24.079  12.913   3.907
50265W        W15525  38.800  17.161   4.959
50266W        W15526  28.912   9.786   2.945
50267W        W15527  15.770  31.181   4.052
50268W        W15528  33.849  26.406  11.662
50269W        W15529  36.025   3.485   0.241
50270W        W15530  10.639  32.804   3.235
50271W        W15531  23.811  19.307  14.973
50272W        W15532   4.458   8.191   3.305
50273W        W15533  38.353  11.628   0.017
50274W        W15534  30.509   4.823  14.832
50275W        W15535   5.848  21.919  11.509
50276W        W15536  13.328  28.521   4.222
50277W        W15537   9.613  24.463   9.810
50278W        W15538  27.946   5.589   2.408
50279W        W15539  32.261  30.840   2.370
50280W        W15540  42.597  17.437   4.195
50281W        W15541  16.661  23.737   2.823
50282W        W15542  43.860  36.372  14.887
50283W        W15543   9.422  21.037  11.682
50284W        W15544  15.793  16.994   3.204
50285W        W15545   5.843   6.778   2.779
50286W        W15546  26.041  41.934   2.912
50287W        W15547  21.804  27.039  12.832
50288W        W15548  13.870  43.958  11.406
50289W        W15549  41.329  12.349   4.112
50290W        W15550  22.763   7.353   1.789
50291W        W15551  15.090  44.007   2.153
50292W        W15552  14.164  22.983  14.070
50293W        W15553   6.376  24.374   4.925
50294W        W15554   2.602  43.218   3.329
50295W        W15555  20.616  19.654   1.964
50296W        W15556  35.514  17.257   0.827
50297W        W15557  39.763  39.978  12.487
50298W        W15558  42.526  19.106   0.358
50299W        W15559  42.390   5.836  11.532
50300W        W15560   7.325  33.200  14.209
50301W        W15561  18.684  28.658  11.435
50302W        W15562   1.758  12.592  13.482
50303W        W15563  14.853  28.001   3.269
50304W        W15564  42.496  34.168  12.509
50305W        W15565  17.585  11.200   0.387
50306W        W15566  41.968  22.593   0.409
50307W        W15567  31.474   9.379  14.016
50308W        W15568   3.729  23.104  14.664
50309W        W15569  22.610  12.362   3.839
50310W        W15570  25.369   8.409   2.754
50311W        W15571  38.044  44.120  13.065
50312W        W15572  36.574  19.128   1.795
50313W        W15573  35.283  12.000   0.439
50314W        W15574  26.363   2.597   2.629
50315W        W15575   8.132  43.531  11.088
50316W        W15576  42.952  40.418   0.282
50317W        W15577  37.553  37.033   2.922
50318W        W15578   1.269  20.935  12.068
50319W        W15579  37.040  22.979   2.744
50320W        W15580  33.126  30.572   4.314
50321W        W15581  39.806  44.292  12.495
50322W        W15582  36.571  16.411   0.507
50323W        W15583  22.642  37.602   1.439
50324W        W15584  17.590  34.646  11.124
50325W        W15585  16.734   0.179  12.036
50326W        W15586  13.080   6.972   1.245
50327W        W15587  23.100  30.194   3.789
50328W        W15588  16.763   3.598  14.309
50329W        W15589  30.916   8.813   0.068
50330W        W15590  11.341  25.971  10.871
50331W        W15591   7.688  13.571  12.532
50332W        W15592   1.703  38.396  12.085
50333W        W15593   9.346  24.781   4.071
50334W        W15594  18.990  44.269  11.178
50335W        W15595  15.198  42.043  10.883
50336W        W15596   2.264  14.153   2.675
50337W        W15597  26.058  26.235  13.022
50338W        W15598  21.105  44.839  13.875
50339W        W15599  31.983  38.941   0.281
50340W        W15600  35.247  33.465  12.398
50341W        W15601   8.568  15.571  12.934
50342W        W15602  28.024  18.575   1.938
50343W        W15603   7.293  19.769   3.624
50344W        W15604  26.117  44.452   0.942
50345W        W15605   0.725  44.267   3.125
50346W        W15606   2.963  16.594  12.667
50347W        W15607   7.074  37.890  10.423
50348W        W15608  13.275  30.100   3.859
50349W        W15609  19.430   3.517   4.102
50350W        W15610  38.101  37.556   3.824
50351W        W15611   8.804  34.022  14.762
50352W        W15612   1.016  17.132  11.139
50353W        W15613  17.205  43.798   0.905
50354W        W15614  22.295  12.622   4.162
50355W        W15615  23.783  16.727  13.296
50356W        W15616   3.542   4.643  14.875
50357W        W15617  39.772  12.337   0.062
50358W        W15618  21.766   6.904   3.262
50359W        W15619  23.544  26.203   1.005
50360W        W15620  12.862   7.107  13.379
50361W        W15621   8.251  38.628   2.326
50362W        W15622  25.655   7.690  12.079
50363W        W15623  37.554  37.619   1.324
50364W        W15624  24.338  34.087  14.356
50365W        W15625   2.784  38.560   4.743
50366W        W15626  26.466  40.762   0.009
50367W        W15627  32.846  13.313  10.584
50368W        W15628  42.024  38.521   1.923
50369W        W15629  35.982  42.760   0.926
50370W        W15630   1.386  24.117  13.455
50371W        W15631  14.056  23.139  12.434
50372W        W15632  34.286  30.056   1.767
50373W        W15633   4.837  27.961  12.867
50374W        W15634  40.079  13.507  14.576
50375W        W15635  14.409  41.404  12.053
50376W        W15636   7.665   3.137  12.898
50377W        W15637  39.304   1.485   1.231
50378W        W15638   3.648  39.482   4.157
50379W        W15639  12.996  41.361   3.739
50380W        W15640  39.596  37.927  12.831
50381W        W15641  31.502  38.490  11.450
50382W        W15642   9.181  38.957  12.208
50383W        W15643   9.600  43.973  12.848
50384W        W15644   3.637  36.866  14.025
50385W        W15645  22.687  33.881  11.590
50386W        W15646  16.946  11.480   4.986
50387W        W15647   1.804  41.505  11.562
50388W        W15648  29.965  36.819  13.994
50389W        W15649  10.666  41.373  13.128
50390W        W15650   3.343  23.607   4.219
50391W        W15651  27.286   0.925  14.710
50392W        W15652  16.606  28.404  12.816
50393W        W15653   2.857  20.125  13.072
50394W        W15654  25.005  10.008  14.792
50395W        W15655   9.377  25.682   1.793
50396W        W15656   8.658   8.446   2.677
50397W        W15657  12.139  22.562   2.843
50398W        W15658   0.414  20.222  12.009
50399W        W15659  18.392  22.983  13.297
50400W        W15660  31.400   8.605   0.992
50401W        W15661  13.597  37.516   1.497
50402W        W15662  16.843  24.314  12.429
50403W        W15663  23.246  13.139   1.768
50404W        W15664  31.251  29.002   0.846
50405W        W15665  16.279   6.426   4.854
50406W        W15666  32.334  26.570  10.157
50407W        W15667  32.733  17.661   1.695
50408W        W15668  43.038  12.948   2.088
50409W        W15669  24.692  35.446   0.338
50410W        W15670  42.996  13.293   0.440
50411W        W15671  30.088  28.622   1.627
50412W        W15672  34.132  10.693   1.943
50413W        W15673  43.923  29.512  12.050
50414W        W15674  26.108   0.006   3.325
50415W        W15675  14.191  38.592   0.128
50416W        W15676  20.188   1.234  12.468
50417W        W15677  18.045  43.959  11.888
50418W        W15678   2.835  21.705   1.481
50419W        W15679   6.977  28.571   3.514
50420W        W15680  36.460  17.275   5.073
50421W        W15681   6.180   6.170  11.572
50422W        W15682  22.192  13.781   4.181
50423W        W15683   0.078  35.955  11.838
50424W        W15684  16.154  12.690  10.464
50425W        W15685  37.454  37.671   3.706
50426W        W15686  10.683  18.139   2.154
50427W        W15687  33.110  16.139   1.944
50428W        W15688  16.325   2.872   4.706
50429W        W15689  16.812  34.123   1.805
50430W        W15690  39.069  37.447   1.654
50431W        W15691  10.542  41.510  10.818
50432W        W15692  25.215  25.531  14.367
50433W        W15693  40.749  10.190   4.267
50434W        W15694  16.104   4.384  13.934
50435W        W15695   6.645   9.125  11.168
50436W        W15696  27.538  33.607  11.546
50437W        W15697  40.043  17.126   4.339
50438W        W15698  36.511  20.672   3.573
50439W        W15699  43.570   2.488  12.386
50440W        W15700  23.456  44.938   1.909
50441W        W15701  27.629   6.319   1.966
50442W        W15702  32.301  31.243  13.670
50443W        W15703  29.484  10.813   3.611
50444W        W15704   2.969  18.062  11.770
50445W        W15705  12.189  38.399   2.024
50446W        W15706  31.168   1.771  14.416
50447W        W15707  40.970  30.555  13.013
50448W        W15708   4.607  38.481   2.721
50449W        W15709  31.466   8.739  12.405
50450W        W15710  44.710  35.195  12.088
50451W        W15711  22.095  43.282   0.354
50452W        W15712   3.859   3.433   0.726
50453W        W15713  12.318  15.403  14.187
50454W        W15714  40.490  32.481  10.798
50455W        W15715   9.701   2.359  11.100
50456W        W15716   4.201  39.752   0.157
50457W        W15717  37.735   7.240   2.306
50458W        W15718  15.900  18.558  13.308
50459W        W15719  21.690  28.171  14.297
50460W        W15720  22.144  15.380  11.217
50461W        W15721  38.341  35.333   0.612
50462W        W15722  33.658  34.620   3.229
50463W        W15723  22.566   8.245   1.727
50464W        W15724  22.449  22.495  14.342
50465W        W15725  33.506   8.687  10.284
50466W        W15726  42.754  20.002  10.519
50467W        W15727   2.436  20.199   1.930
50468W        W15728  43.272   1.359   2.151
50469W        W15729  32.057  34.885   1.173
50470W        W15730   4.486  25.008   0.786
50471W        W15731  15.248  24.089   2.802
50472W        W15732  38.422  35.791  11.982
50473W        W15733  41.754  44.543  12.609
50474W        W15734  33.018   5.698  13.392
50475W        W15735  17.258  18.625   0.475
50476W        W15736  34.437  26.498   1.840
50477W        W15737   7.474  24.042   4.054
50478W        W15738  25.629  15.797  11.845
50479W        W15739   9.256  39.444  11.991
50480W        W15740  20.406   3.810  11.544
50481W        W15741  17.740  30.070  10.863
50482W        W15742  35.993  30.565   1.302
50483W        W15743   2.717   7.825   3.370
50484W        W15744  21.189  25.695  14.429
50485W        W15745   0.728  34.067   2.711
50486W        W15746  43.464   6.031   1.755
50487W        W15747  33.420  25.766  13.514
50488W        W15748  23.805  38.966   1.018
50489W        W15749   0.922  39.265  11.189
50490W        W15750  20.758  21.667  14.287
50491W        W15751   4.760  24.095  12.465
50492W        W15752  27.202  27.750   4.138
50493W        W15753  37.743  27.052  13.302
50494W        W15754  33.480  10.906   2.420
50495W        W15755  35.176   2.770   2.763
50496W        W15756   3.728  34.008  10.440
50497W        W15757  40.397  33.021  10.969
50498W        W15758  12.171  20.421   2.709
50499W        W15759  36.341  32.203   1.868
50500W        W15760  18.365   2.366   1.890
50501W        W15761  29.934  13.999  10.652
50502W        W15762  12.255  36.663  14.277
50503W        W15763  28.452  41.494   4.690
50504W        W15764  43.569  39.815  13.499
50505W        W15765  12.509  33.591  11.068
50506W        W15766  30.133   0.791  13.008
50507W        W15767  38.248  32.345  14.940
50508W        W15768   0.255  10.800   0.018
50509W        W15769  44.807   4.010  11.626
50510W        W15770   6.187  18.101   4.852
50511W        W15771   9.720  15.636  10.669
50512W        W15772  20.344  37.073   2.887
50513W        W15773  41.577  12.744   2.913
50514W        W15774  39.093  41.725  13.970
50515W        W15775  18.222  29.776  14.321
50516W        W15776  41.518  39.561  14.959
50517W        W15777   1.837  12.711   4.073
50518W        W15778  36.983  30.142  11.260
50519W        W15779  40.313  20.130  11.558
50520W        W15780   7.092  43.371   0.876
50521W        W15781  19.223  22.075   3.108
50522W        W15782  38.942  35.906  11.185
50523W        W15783   9.161  37.658   0.436
50524W        W15784  42.793  23.237   4.636
50525W        W15785   5.902  20.707  14.487
50526W        W15786  30.286  11.106  13.509
50527W        W15787  32.942  12.850  11.505
50528W        W15788  20.284   3.490  11.128
50529W        W15789   5.236  37.260   3.946
50530W        W15790  29.572   1.656   2.329
50531W        W15791   7.354  25.075   4.119
50532W        W15792   6.107   9.518   3.207
50533W        W15793  28.856  34.642  11.041
50534W        W15794  41.034  32.790   4.938
50535W        W15795   9.614   7.846   3.417
50536W        W15796  36.081  42.316  13.552
50537W        W15797  19.785  33.990   1.750
50538W        W15798   5.891  11.381  13.383
50539W        W15799   4.932  19.232  10.758
50540W        W15800  13.367  24.707  12.410
50541W        W15801  44.307  10.199  11.166
50542W        W15802  13.846  27.525  12.055
50543W        W15803  11.729  36.801  12.448
50544W        W15804  30.142  10.775  11.332
50545W        W15805  38.864  33.370  10.260
50546W        W15806  43.320  42.757   4.685
50547W        W15807  34.886  42.093  13.818
50548W        W15808  27.075  36.995   3.160
50549W        W15809  29.183  32.997  14.683
50550W        W15810   4.758  31.923  10.467
50551W        W15811  32.351  14.853   1.717
50552W        W15812  23.704   8.948  11.041
50553W        W15813   8.145   0.196  14.269
50554W        W15814  21.035  39.020   0.326
50555W        W15815  40.118   4.813   3.654
50556W        W15816  19.977  43.772   4.205
50557W        W15817  41.402  14.354  12.866
50558W        W15818  13.227   1.986   4.155
50559W        W15819  10.148  15.270  12.411
50560W        W15820  44.767  40.729  13.289
50561W        W15821  39.599  19.782  12.459
50562W        W15822  13.168  12.333  13.584
50563W        W15823   2.237  21.096  13.919
50564W        W15824  34.119  38.109   1.764
50565W        W15825  27.945  13.041   0.390
50566W        W15826   9.377  44.171  13.586
50567W        W15827  25.412  21.522   3.775
50568W        W15828   3.825  34.768  11.877
50569W        W15829  43.772  28.609  11.405
50570W        W15830  24.217  41.917   1.338
50571W        W15831   4.642  14.272  11.174
50572W        W15832  40.311  13.698   4.156
50573W        W15833  14.567  36.580  12.396
50574W        W15834  16.346  42.422   1.899
50575W        W15835  21.586   7.719   0.768
50576W        W15836  16.829  18.767  13.233
50577W        W15837   6.859  28.592  13.397
50578W        W15838  35.942  17.981   0.824
50579W        W15839  16.406  17.146  10.156
50580W        W15840  25.948   2.408  14.759
50581W        W15841  24.159   1.881   3.751
50582W        W15842  20.919  39.494   4.668
50583W        W15843  16.274  15.736   3.409
50584W        W15844  28.089  19.018  12.892
50585W        W15845  26.242  33.354   3.674
50586W        W15846   6.263  35.295  12.355
50587W        W15847  32.197  18.533  11.988
50588W        W15848  13.711  33.638   0.254
50589W        W15849   1.575  26.739   4.930
50590W        W15850  20.450  13.572   0.429
50591W        W15851  16.493  33.410  12.379
50592W        W15852  16.368  16.637  14.452
50593W        W15853   4.947  41.732  12.848
50594W        W15854  29.385  35.960  14.409
50595W        W15855  31.911   1.348   4.656
50596W        W15856  26.163   9.098  14.924
50597W        W15857  21.076  40.522   0.432
50598W        W15858   8.591  40.150   0.929
50599W        W15859   4.880  34.867  13.245
50600W        W15860  44.262  17.014   3.213
50601W        W15861  41.395   7.211   2.356
50602W        W15862  22.097  42.025  13.358
50603W        W15863  14.229  29.459   0.543
50604W        W15864  11.081  12.345   1.765
50605W        W15865  20.122   6.212   1.328
50606W        W15866  26.450  28.133   4.057
50607W        W15867  34.813  41.553   1.645
50608W        W15868  15.845   6.927   0.639
50609W        W15869  16.635   2.254  13.514
50610W        W15870  42.280  25.655   1.241
50611W        W15871  42.189  21.105  13.877
50612W        W15872  13.727  40.484   1.874
50613W        W15873  24.543  44.507  14.550
50614W        W15874  19.285  10.131   2.982
50615W        W15875  26.972  30.996   3.687
50616W        W15876  14.339   6.137   4.649
50617W        W15877  16.253  38.787   2.865
50618W        W15878  20.647  33.598  10.930
50619W        W15879  25.879  11.770  14.661
50620W        W15880  40.017  37.533  13.352
50621W        W15881  17.528  21.273   3.999
50622W        W15882   3.835  28.658  12.987
50623W        W15883  24.223  43.616  13.379
50624W        W15884  15.895  35.345  14.845
50625W        W15885   3.216  40.790   4.745
50626W        W15886  38.449  41.291  14.241
50627W        W15887   2.041  20.803  11.192
50628W        W15888   9.912  41.629   2.669
50629W        W15889   2.287  34.885   4.666
50630W        W15890  10.835  20.728  14.051
50631W        W15891  35.495   5.451   4.601
50632W        W15892  12.899   5.367  13.032
50633W        W15893  37.265  29.777  12.508
50634W        W15894  35.766   7.834  11.157
50635W        W15895  11.646   4.209  14.117
50636W        W15896  13.126  15.808   0.915
50637W        W15897   0.494   9.800   0.665
50638W        W15898  16.340  12.284  11.921
50639W        W15899  13.168  22.633   1.591
50640W        W15900  25.177   7.819  12.342
50641W        W15901  36.620  14.351  11.559
50642W        W15902  11.368   5.170  10.189
50643W        W15903  42.595  38.504  13.317
50644W        W15904  19.167  12.308   3.091
50645W        W15905  37.348  28.136  11.416
50646W        W15906  20.799  44.277  12.911
50647W        W15907  26.331   7.028   1.304
50648W        W15908   4.796  18.513  10.383
50649W        W15909  26.240   4.444  14.946
50650W        W15910  22.226   6.198   1.666
50651W        W15911  12.372   1.339   4.182
50652W        W15912  16.759  38.982   2.760
50653W        W15913   6.181  23.686   0.271
50654W        W15914  15.636  33.517  12.080
50655W        W15915  32.620  34.635   0.364
50656W        W15916   5.917   9.790   4.091
50657W        W15917  32.647   6.276  14.973
50658W        W15918  41.380   4.374  12.988
50659W        W15919  11.352  33.060   4.358
50660W        W15920  17.206  33.438   4.427
50661W        W15921  29.571   0.394   4.512
50662W        W15922  11.744  36.402  13.548
50663W        W15923   4.481  12.849  14.397
50664W        W15924  42.801  28.988  11.561
50665W        W15925  11.475  30.959  11.101
50666W        W15926  20.726  35.970   1.761
50667W        W15927  35.135  13.029  13.566
50668W        W15928   9.614  35.041   4.096
50669W        W15929  20.344  26.224  10.661
50670W        W15930  28.112  40.412   0.220
50671W        W15931  18.733  19.625   2.192
50672W        W15932  29.533  41.647  14.404
50673W        W15933  38.498  23.255  11.137
50674W        W15934  25.646  32.126   3.569
50675W        W15935  17.131  16.772  11.187
50676W        W15936  20.319  10.210   0.724
50677W        W15937  19.803  20.168   2.605
50678W        W15938  34.979   8.443  13.916
50679W        W15939  22.047  44.916  13.426
50680W        W15940  12.998  13.738   4.905
50681W        W15941   6.291   3.775  11.582
50682W        W15942  16.762  20.803  10.192
50683W        W15943  43.937   6.866  13.937
50684W        W15944   7.180  11.273  11.519
50685W        W15945  16.229   8.410   0.936
50686W        W15946  11.439  32.246   4.580
50687W        W15947  12.654  33.186   1.349
50688W        W15948  29.530  29.619   4.080
50689W        W15949  39.321  38.534   4.702
50690W        W15950  11.764   2.463  11.415
50691W        W15951  43.820  23.309   4.597
50692W        W15952  28.264  38.360  11.661
50693W        W15953  29.523  39.808  14.128
50694W        W15954  17.269  39.057  10.544
50695W        W15955   3.440   9.386  12.565
50696W        W15956  24.709  20.488  12.903
50697W        W15957   9.834   3.330   4.994
50698W        W15958  31.237  43.771   0.299
50699W        W15959  18.961  23.390   3.435
50700W        W15960  15.784  22.536   4.042
50701W        W15961  42.802  37.508   3.208
50702W        W15962  18.831  24.321   5.011
50703W        W15963  13.165   9.339  13.005
50704W        W15964  23.656   8.632  14.974
50705W        W15965  14.439  14.180  14.134
50706W        W15966  21.123  27.547   2.941
50707W        W15967  21.621  43.698   4.892
50708W        W15968  34.866  22.121  13.871
50709W        W15969  15.770   8.439  14.286
50710W        W15970  14.539  40.522  12.408
50711W        W15971   2.188   7.409  13.027
50712W        W15972  37.576  19.062  10.651
50713W        W15973  13.330  20.457  12.013
50714W        W15974  43.788  31.174  12.433
50715W        W15975  27.001  13.909  10.688
50716W        W15976  21.195  15.309  12.417
50717W        W15977  43.859   6.147   1.359
50718W        W15978   1.683  18.485  12.522
50719W        W15979  21.657  27.032   0.006
50720W        W15980  37.351  15.250   0.221
50721W        W15981  12.569  11.632  12.019
50722W        W15982  25.859  33.935  13.928
50723W        W15983   8.671  13.558  14.310
50724W        W15984  13.943  38.398   3.781
50725W        W15985   7.431   3.328   4.150
50726W        W15986  31.551   9.906   3.265
50727W        W15987  43.114   5.903   3.219
50728W        W15988  36.869  43.480  13.912
50729W        W15989  30.674  11.088  10.681
50730W        W15990   5.813   0.668  14.883
50731W        W15991  20.819  36.602   5.074
50732W        W15992  35.889   6.903  12.182
50733W        W15993  35.447   2.870   3.193
50734W        W15994  27.947  31.792   0.252
50735W        W15995  26.752  24.755   3.542
50736W        W15996  15.425   8.412  13.901
50737W        W15997   8.391  22.770   0.242
50738W        W15998  29.735  22.928  11.813
50739W        W15999  44.965   1.427  13.901
50740W        W16000  28.067  41.952   2.111
50741W        W16001  19.502  22.810   9.834
50742W        W16002  20.492   6.357  12.421
50743W        W16003   8.634  25.466   1.471
50744W        W16004  29.465  43.423   0.890
50745W        W16005  12.063  33.879   0.427
50746W        W16006  17.385  42.751   4.596
50747W        W16007   3.673   6.654   3.688
50748W        W16008  33.108   9.582   0.784
50749W        W16009  29.857  27.515   4.034
50750W        W16010  19.135  30.972  12.630
50751W        W16011  35.517  39.072  14.216
50752W        W16012  41.391  32.885   3.014
50753W        W16013   3.312   0.364  10.853
50754W        W16014  31.345  28.398   0.198
50755W        W16015  32.853   1.421  13.837
50756W        W16016  41.013  10.586   2.473
50757W        W16017  19.978  35.543   1.851
50758W        W16018  24.222  12.138  13.828
50759W        W16019  29.678   4.754  14.013
50760W        W16020  40.368  44.221   4.086
50761W        W16021  28.614  15.763   4.591
50762W        W16022   0.221  44.392   3.075
50763W        W16023  16.251  18.971  11.144
50764W        W16024   4.889   4.889   2.784
50765W        W16025  20.768  32.844   4.562
50766W        W16026  25.043   5.172  13.098
50767W        W16027  19.293  39.954   0.961
50768W        W16028  31.812  44.917   3.118
50769W        W16029  17.163  18.079   2.251
50770W        W16030  43.645  33.997   4.337
50771W        W16031   9.474  43.676  12.452
50772W        W16032   5.030  16.221  12.451
50773W        W16033  34.878   6.569   0.702
50774W        W16034  12.437   3.143   4.105
50775W        W16035   5.395  19.712  14.760
50776W        W16036  33.863  40.728   2.248
50777W        W16037  25.299   4.739  14.258
50778W        W16038  11.414  13.686   2.228
50779W        W16039   1.014  39.659  14.453
50780W        W16040  38.918  30.521   3.407
50781W        W16041  23.173  31.767   3.307
50782W        W16042   8.358  18.759   3.900
50783W        W16043  32.852  36.348   3.866
50784W        W16044  18.011  28.580   4.508
50785W        W16045   8.735  16.733  10.893
50786W        W16046  31.575  10.137  14.516
50787W        W16047  37.023  29.017   1.122
50788W        W16048  42.010  30.502  12.944
50789W        W16049  26.649  39.402   1.743
50790W        W16050  29.928   6.643  10.748
50791W        W16051  30.572  17.720   4.636
50792W        W16052  40.282  19.504  14.423
50793W        W16053  41.915  24.934  10.796
50794W        W16054  43.804  37.946   1.735
50795W        W16055  38.775  39.025  12.358
50796W        W16056  29.230  29.394   2.734
50797W        W16057  44.864   6.636   3.155
50798W        W16058  43.823  38.067   1.200
50799W        W16059  31.800  33.466  12.892
50800W        W16060  23.283  32.015   4.617
50801W        W16061  28.604   5.038  14.326
50802W        W16062   0.340  38.415   3.218
50803W        W16063  27.802   7.494   3.827
50804W        W16064  34.751  33.446   4.679
50805W        W16065  12.735  20.590  14.197
50806W        W16066  39.485  35.982  12.816
50807W        W16067  37.380  26.163  13.872
50808W        W16068  26.755  28.391  11.424
50809W        W16069  17.711  19.004  12.955
50810W        W16070   5.307  14.482   1.874
50811W        W16071  11.783  31.203  12.633
50812W        W16072  18.261  27.781   2.404
50813W        W16073  44.331  26.169   2.707
50814W        W16074  23.188   4.690   2.968
50815W        W16075  24.264  26.597   4.995
50816W        W16076  12.252  21.671   3.631
50817W        W16077  20.481  44.910  10.644
50818W        W16078  26.499   3.612  14.767
50819W        W16079  44.869   3.001   2.803
50820W        W16080  11.302  40.813   3.717
50821W        W16081  39.031  33.337  14.465
50822W        W16082  43.355   3.088   0.797
50823W        W16083  36.849  10.824   4.687
50824W        W16084  44.420   1.327   0.484
50825W        W16085  11.314  19.207  13.485
50826W        W16086  39.448  24.496   2.136
50827W        W16087  13.334  22.206  14.415
50828W        W16088   4.210   3.742  13.392
50829W        W16089  22.836  35.655   2.441
50830W        W16090  37.932  12.297   4.439
50831W        W16091  37.322   3.203   4.161
50832W        W16092  26.191  15.999   2.636
50833W        W16093  44.127  24.789  12.057
50834W        W16094   0.577  41.280   3.244
50835W        W16095  30.962  37.072  12.462
50836W        W16096  40.428   5.847  14.831
50837W        W16097   8.230  21.720   0.858
50838W        W16098  18.263  31.289  14.387
50839W        W16099  43.881  43.901   4.040
50840W        W16100  29.205  34.139   3.208
50841W        W16101  25.736  26.219   4.607
50842W        W16102  21.656  18.573  10.702
50843W        W16103   5.712   2.232  12.433
50844W        W16104  28.185  25.556  11.981
50845W        W16105  30.929  34.019  13.880
50846W        W16106  30.386  43.904  11.013
50847W        W16107   6.867  21.208  10.763
50848W        W16108  34.998  41.695   2.572
50849W        W16109   9.092  31.877   4.113
50850W        W16110  27.109  14.302   1.414
50851W        W16111   5.431  24.126   0.380
50852W        W16112  18.345   4.594   1.204
50853W        W16113  33.506   0.830   5.201
50854W        W16114   8.214   8.251  11.472
50855W        W16115  29.494  17.086  13.269
50856W        W16116  42.189  24.422   2.413
50857W        W16117   9.353  28.741   5.055
50858W        W16118  34.455  24.477   3.932
50859W        W16119   0.876  19.668   2.782
50860W        W16120   1.882  23.180   3.406
50861W        W16121  27.908   4.053   1.452
50862W        W16122  23.246   0.945  10.974
50863W        W16123   0.331  22.157   4.564
50864W        W16124  20.168  43.625  10.705
50865W        W16125   1.961   1.868   3.714
50866W        W16126  33.334   2.972   0.588
50867W        W16127   2.558   2.884   4.627
50868W        W16128  35.611   9.201  11.546
50869W        W16129  36.298  44.255  14.232
50870W        W16130  22.333  42.019  10.600
50871W        W16131   4.416   6.665  11.854
50872W        W16132  27.154  35.313  11.079
50873W        W16133  29.892  29.697   1.436
50874W        W16134  17.291  13.530   4.388
50875W        W16135  24.723   4.003   1.324
50876W        W16136  22.542  33.948   9.975
50877W        W16137  23.744  22.304  11.216
50878W        W16138  27.477  40.924   4.037
50879W        W16139  42.376  36.159  11.690
50880W        W16140  10.723  43.500  14.831
50881W        W16141  40.381  28.424  10.290
50882W        W16142  11.428  10.368   4.071
50883W        W16143  39.588  39.404   4.673
50884W        W16144  19.676  24.803  10.405
50885W        W16145  40.682  43.532  11.848
50886W        W16146   2.347  19.155   1.234
50887W        W16147   0.166   4.412  14.953
50888W        W16148   7.701  31.316  11.778
50889W        W16149  18.553  25.611  10.684
50890W        W16150  39.898  39.414  13.372
50891W        W16151  29.096  41.010   2.351
50892W        W16152  14.849   3.321  14.074
50893W        W16153   0.811  30.548   3.320
50894W        W16154  11.555  31.266   4.034
50895W        W16155  14.824  36.118  14.691
50896W        W16156  21.891  17.039  14.748
50897W        W16157  40.293  22.494   3.805
50898W        W16158   0.085  33.845   4.122
50899W        W16159   2.829  36.022   4.923
50900W        W16160  33.797  40.573   4.596
50901W        W16161  15.105  33.855  12.469
50902W        W16162   8.496  34.505  14.277
50903W        W16163   0.476   9.971  12.396
50904W        W16164  21.513  39.387   0.795
50905W        W16165   8.050  10.777   3.091
50906W        W16166  41.249  36.868   0.836
50907W        W16167  43.440  12.191   1.822
50908W        W16168  30.651  30.134  13.977
50909W        W16169  23.629  38.230   1.441
50910W        W16170   1.680   7.290  11.113
50911W        W16171  44.179  28.090  12.564
50912W        W16172   8.143  31.058   1.902
50913W        W16173   2.741   4.268   3.720
50914W        W16174  32.714  21.176  14.741
50915W        W16175   1.445  16.234   2.375
50916W        W16176  17.199  16.611   4.966
50917W        W16177   4.758  44.514   1.838
50918W        W16178  11.354  44.995  11.133
50919W        W16179  25.104  28.226   4.602
50920W        W16180   4.335  25.534   0.799
50921W        W16181  24.966  30.590   3.219
50922W        W16182  25.212  16.332  14.991
50923W        W16183  23.543   8.790  11.655
50924W        W16184  12.146  27.460   2.797
50925W        W16185  24.623  12.447  10.977
50926W        W16186  36.032   3.373  12.455
50927W        W16187   3.409  18.182  14.979
50928W        W16188  30.434  35.287   4.219
50929W        W16189   6.819   2.913   0.244
50930W        W16190  41.055   5.787   0.536
50931W        W16191  19.837  25.547  12.577
50932W        W16192  29.513  39.373   1.091
50933W        W16193  22.364  39.859   3.812
50934W        W16194  21.373  42.837   3.663
50935W        W16195  39.270  32.195  13.363
50936W        W16196  14.817  10.717  10.156
50937W        W16197  29.490  31.051   2.773
50938W        W16198   8.728   8.591   1.238
50939W        W16199  38.414  20.524   4.122
50940W        W16200  33.439  28.561  11.732
50941W        W16201   6.547  34.564   0.880
50942W        W16202   5.273  13.334   3.072
50943W        W16203  38.744   4.263  11.851
50944W        W16204  41.020  41.273   0.219
50945W        W16205   7.524  17.524  11.992
50946W        W16206  17.010   5.814  14.467
50947W        W16207   4.913   3.827   1.630
50948W        W16208  17.247  16.035  12.192
50949W        W16209   2.241  30.236   4.229
50950W        W16210  13.771   5.343  13.212
50951W        W16211   4.027  38.864  11.557
50952W        W16212   8.241   0.480   3.230
50953W        W16213  11.741  24.851  11.452
50954W        W16214   5.532  10.831   4.239
50955W        W16215  37.269  20.161   0.101
50956W        W16216  36.939  10.914   0.311
50957W        W16217   2.002  25.168   0.837
50958W        W16218  22.893  33.751   0.982
50959W        W16219  21.456  32.191   1.352
50960W        W16220  34.959   2.843  10.492
50961W        W16221   9.158  26.741   2.290
50962W        W16222  36.072  12.780  11.391
50963W        W16223  22.238  34.544  13.593
50964W        W16224  25.240  17.968   2.839
50965W        W16225  12.526  29.030   4.445
50966W        W16226  28.689  14.798   4.791
50967W        W16227  34.329  32.416   3.944
50968W        W16228  11.017  34.170  10.522
50969W        W16229   4.409  28.957   3.513
50970W        W16230  13.419   2.503  12.058
50971W        W16231  29.877  20.740  12.160
50972W        W16232   6.880  26.945  12.011
50973W        W16233  38.375   0.090  11.617
50974W        W16234  16.163  28.266  14.290
50975W        W16235  17.713   1.760   3.321
50976W        W16236  15.583   8.791   3.807
50977W        W16237  28.997   1.018  11.077
50978W        W16238  41.489   6.119  14.363
50979W        W16239   6.500   7.319   0.288
50980W        W16240  30.599  40.461  14.913
50981W        W16241  41.590  37.050   3.745
50982W        W16242  33.808  39.943   0.444
50983W        W16243   4.781  15.020   2.848
50984W        W16244  33.072  29.952   1.888
50985W        W16245  13.356  35.534  13.073
50986W        W16246   4.201  43.277   1.282
50987W        W16247  42.955  33.593   2.722
50988W        W16248  31.383  29.255  11.958
50989W        W16249  21.302  37.809   2.380
50990W        W16250  24.609  13.158  12.859
50991W        W16251  44.994  29.886   0.015
50992W        W16252  28.360  34.492  12.427
50993W        W16253  20.301   9.329   4.101
50994W        W16254  25.151  14.153   2.407
50995W        W16255  13.678  13.094  10.731
50996W        W16256  19.334   7.236  12.035
50997W        W16257  10.113  31.164  10.350
50998W        W16258  37.066  25.902  10.655
50999W        W16259   9.661   6.629   1.341
51000W        W16260  20.841  41.659  11.546
51001W        W16261  10.793  36.461   4.216
51002W        W16262   6.284  25.370  11.886
51003W        W16263  40.423  31.490   3.806
51004W        W16264  12.258  32.137   0.181
51005W        W16265  13.962   4.958   4.515
51006W        W16266   7.110  19.156  12.286
51007W        W16267  18.160   8.440  11.858
51008W        W16268  41.787  17.277   1.707
51009W        W16269   1.423  36.015  12.944
51010W        W16270  22.557   8.675   0.425
51011W        W16271  42.893  42.847  10.947
51012W        W16272  40.558   3.716   1.867
51013W        W16273  43.038   3.887  12.900
51014W        W16274  43.806   5.711   0.463
51015W        W16275  39.847  16.680  14.048
51016W        W16276  19.469   6.459   0.437
51017W        W16277  44.838  10.521   2.599
51018W        W16278  42.326  32.952  13.176
51019W        W16279  18.070  33.065  12.160
51020W        W16280  27.064  17.197  10.877
51021W        W16281  25.092  14.005   1.923
51022W        W16282   4.863  38.543  11.087
51023W        W16283  12.074   0.023   1.778
51024W        W16284   1.739  23.808  10.971
51025W        W16285  22.488  33.446  10.559
51026W        W16286  37.514   8.616  11.084
51027W        W16287   4.648  29.889   3.777
51028W        W16288  43.291  42.529   0.308
51029W        W16289  10.697   0.037   3.598
51030W        W16290  20.120  38.211   0.969
51031W        W16291  24.189  42.641  11.440
51032W        W16292  18.991  36.406   3.616
51033W        W16293  15.274  31.812   1.830
51034W        W16294  31.985  23.061   4.107
51035W        W16295  34.080  36.082  13.392
51036W        W16296  35.985  44.321  12.146
51037W        W16297  12.694  27.259   0.811
51038W        W16298  35.577  20.310  14.016
51039W        W16299   5.291   8.868   0.028
51040W        W16300  38.898  15.023  13.829
51041W        W16301  44.998  20.512   2.804
51042W        W16302  18.007  20.841  13.520
51043W        W16303   7.113  11.405  12.413
51044W        W16304  26.990  22.480   0.874
51045W        W16305  19.508   8.612  12.448
51046W        W16306  18.513  15.226  11.549
51047W        W16307   5.131  38.780   0.448
51048W        W16308   4.895  33.160   2.858
51049W        W16309   8.984  13.279   2.781
51050W        W16310   6.963  16.843   1.798
51051W        W16311  20.973  22.990  11.048
51052W        W16312  21.079  30.957   4.859
51053W        W16313   4.272  21.056   1.283
51054W        W16314  42.268  17.004   3.494
51055W        W16315  43.452   5.979   0.794
51056W        W16316  36.479  20.803   0.327
51057W        W16317  18.715  39.111  14.386
51058W        W16318  41.765  37.539   1.306
51059W        W16319  36.829  25.954   2.702
51060W        W16320   3.738  22.804   1.239
51061W        W16321  13.917  10.952  11.533
51062W        W16322   9.408  27.521   0.426
51063W        W16323  16.825   8.984   1.469
51064W        W16324  32.572  40.357   3.664
51065W        W16325   3.399  43.295   1.855
51066W        W16326  41.527  31.094  12.070
51067W        W16327  20.767   0.897   3.239
51068W        W16328   6.746  27.230  13.331
51069W        W16329   8.307   4.018   3.613
51070W        W16330   0.920  39.952  11.504
51071W        W16331  28.925  30.479  10.977
51072W        W16332   4.017  26.087   3.564
51073W        W16333  21.215  41.989   4.615
51074W        W16334   0.040  11.376  13.489
51075W        W16335  39.074   5.736   0.365
51076W        W16336  19.530  28.990  14.496
51077W        W16337  10.001  11.985   0.529
51078W        W16338   4.492  20.226  11.177
51079W        W16339  16.631  30.200  12.292
51080W        W16340  39.721  32.606   0.453
51081W        W16341  26.588  38.732  10.090
51082W        W16342  38.715  21.771   2.319
51083W        W16343  10.183  13.937  13.435
51084W        W16344  24.115  25.771  13.825
51085W        W16345   2.831  32.954  12.660
51086W        W16346  22.587  19.800  13.472
51087W        W16347  15.262  36.139  11.224
51088W        W16348  38.617   6.846  13.352
51089W        W16349  13.308  11.822  11.573
51090W        W16350  26.083  36.082  12.327
51091W        W16351  13.320   1.486   4.189
51092W        W16352  27.186   4.160   5.085
51093W        W16353  42.576  19.897   1.661
51094W        W16354  20.970  30.880  12.068
51095W        W16355   5.684  12.546   3.985
51096W        W16356  26.719   6.057   5.154
51097W        W16357  27.876  17.946  14.989
51098W        W16358  43.884  23.956  12.476
51099W        W16359  37.471   3.843  12.257
51100W        W16360  12.442  16.269   1.773
51101W        W16361   9.843  19.539  13.363
51102W        W16362  37.428  39.505  12.324
51103W        W16363  21.680  29.163   0.407
51104W        W16364  29.824  44.794   2.876
51105W        W16365   8.914  18.690   0.775
51106W        W16366  36.839  41.011  14.424
51107W        W16367  13.533  16.936   3.659
51108W        W16368  13.797  43.378  13.367
51109W        W16369  21.474  16.210  10.304
51110W        W16370  37.652  32.856   1.584
51111W        W16371   8.175  23.024  14.807
51112W        W16372  20.838  36.375  11.048
51113W        W16373  25.719  35.591  10.657
51114W        W16374  17.558   9.325   2.597
51115W        W16375  36.589  24.133   3.027
51116W        W16376   9.683   5.798  13.413
51117W        W16377   4.606  11.874  14.397
51118W        W16378  35.121  25.669  12.035
51119W        W16379  37.164  43.432  10.189
51120W        W16380  17.911  29.337   4.034
51121W        W16381  16.887  12.320  10.740
51122W        W16382  38.526  40.524  12.588
51123W        W16383   7.405  40.959   4.671
51124W        W16384  28.889  27.021   9.565
51125W        W16385   1.259  14.931  11.942
51126W        W16386   8.953  29.177  14.761
51127W        W16387  38.047  29.468  14.868
51128W        W16388  22.436  39.832   2.273
51129W        W16389  27.888  15.148   1.831
51130W        W16390  14.088  12.570  10.242
51131W        W16391  34.829   1.911  12.526
51132W        W16392  25.026  16.653   4.534
51133W        W16393  35.197  40.046   3.652
51134W        W16394   7.644  12.127  10.995
51135W        W16395   8.801   7.622   1.150
51136W        W16396  35.628  39.297  12.840
51137W        W16397  29.114  34.990   4.514
51138W        W16398  34.488  10.262  14.763
51139W        W16399  40.989  12.619  11.196
51140W        W16400  39.344  23.424  13.103
51141W        W16401  13.019  39.853   0.575
51142W        W16402  43.060  11.548  13.751
51143W        W16403   0.926  18.829  12.132
51144W        W16404  25.725  29.569   1.390
51145W        W16405  35.472  11.643  13.585
51146W        W16406  25.425   6.842   3.153
51147W        W16407  23.233  12.777   3.795
51148W        W16408  41.955  16.322  14.530
51149W        W16409  25.903  25.167  12.157
51150W        W16410   1.408  39.605  13.148
51151W        W16411  31.959  21.743   2.398
51152W        W16412  16.723  28.170  12.387
51153W        W16413  24.232  40.403   3.628
51154W        W16414  32.789  34.656   1.743
51155W        W16415  32.139  18.779  13.770
51156W        W16416   8.261   5.413   0.736
51157W        W16417  30.789   6.676   4.685
51158W        W16418   1.892  28.478  11.472
51159W        W16419  43.171  33.307  10.790
51160W        W16420   9.701  25.423   1.246
51161W        W16421  24.598   5.870   2.262
51162W        W16422   0.375   9.194  13.492
51163W        W16423  27.769   8.388  12.288
51164W        W16424  39.407   8.210   1.007
51165W        W16425  29.924   7.228  12.800
51166W        W16426  11.767  25.406   2.182
51167W        W16427  13.853  42.571  14.921
51168W        W16428  26.133  23.634   1.384
51169W        W16429  32.010  33.084   3.671
51170W        W16430  32.431   3.418   0.717
51171W        W16431  22.628  18.851   3.272
51172W        W16432  34.044  35.643  11.554
51173W        W16433  25.501   8.937   3.284
51174W        W16434  37.557  38.066  12.953
51175W        W16435  20.538   2.041  14.077
51176W        W16436  14.217   4.705   0.860
51177W        W16437  33.672  29.657   0.771
51178W        W16438  41.701  12.779  13.833
51179W        W16439  21.344  29.956  13.366
51180W        W16440  36.547  20.716  12.894
51181W        W16441  14.023  40.593  12.477
51182W        W16442  26.062  19.198  11.377
51183W        W16443   5.095  29.616   3.646
51184W        W16444  36.996  21.649  14.485
51185W        W16445  12.154   7.519   2.380
51186W        W16446  42.504  25.548  14.336
51187W        W16447   4.802  15.652  12.474
51188W        W16448  28.464  20.511  11.133
51189W        W16449  12.695  25.420   0.382
51190W        W16450  26.454   5.797  14.857
51191W        W16451  41.991  28.194   4.286
51192W        W16452  34.101  12.155  13.490
51193W        W16453   6.837  19.727   3.917
51194W        W16454  24.760  39.060  12.945
51195W        W16455   0.732   1.878   2.647
51196W        W16456  33.526  22.744  12.485
51197W        W16457  14.336   1.491  11.953
51198W        W16458  22.619   6.811   1.195
51199W        W16459  19.040  39.167  12.544
51200W        W16460  39.433  34.932   1.351
51201W        W16461  15.282  30.980   1.871
51202W        W16462  35.965  39.250   0.866
51203W        W16463  43.359  23.695  10.981
51204W        W16464  39.528   3.855  10.366
51205W        W16465  31.341  20.973   2.086
51206W        W16466  15.188  37.089  13.111
51207W        W16467  12.604  42.751  10.616
51208W        W16468   9.760   0.272   1.648
51209W        W16469  39.017  39.884   1.504
51210W        W16470  38.514  44.062  14.780
51211W        W16471  24.600  32.372   0.995
51212W        W16472  38.494  35.047   2.401
51213W        W16473  27.838   7.879   5.049
51214W        W16474  35.687  11.506   0.033
51215W        W16475   4.290   8.815   3.673
51216W        W16476  38.466  28.484   3.437
51217W        W16477  33.775  10.084   4.090
51218W        W16478  33.296  30.025   1.432
51219W        W16479  35.570  43.405  12.368
51220W        W16480  37.515  41.887  11.193
51221W        W16481  28.271  17.178   4.295
51222W        W16482  22.028  44.015   1.789
51223W        W16483  25.089  14.161   3.863
51224W        W16484  26.614  36.800   3.342
51225W        W16485  31.335  41.516   2.197
51226W        W16486  28.616   8.348   3.196
51227W        W16487   0.467  33.595   3.897
51228W        W16488  13.312   2.964  11.838
51229W        W16489   4.790  36.847  14.998
51230W        W16490  39.931  39.365   3.774
51231W        W16491   0.671  19.833   3.229
51232W        W16492  11.764  20.724   2.792
51233W        W16493  15.159  39.863  11.987
51234W        W16494  44.425  32.617   1.371
51235W        W16495  33.571  35.656  11.181
51236W        W16496  23.495  28.707  13.189
51237W        W16497   8.231  27.046   0.327
51238W        W16498  43.305   1.678   2.602
51239W        W16499  36.664   5.192   2.198
51240W        W16500  19.038   1.009   0.555
51241W        W16501  28.250  23.223  13.975
51242W        W16502  41.232  13.680   3.856
51243W        W16503  19.508  14.496  13.889
51244W        W16504  13.556   2.006  11.180
51245W        W16505  36.601  37.360  14.403
51246W        W16506  33.248  13.548   0.349
51247W        W16507  26.522  31.473   1.260
51248W        W16508  38.260  18.649   1.370
51249W        W16509  40.888   0.574  12.995
51250W        W16510  24.652  29.616   3.474
51251W        W16511   7.337  23.437   1.854
51252W        W16512  30.531   6.777   0.213
51253W        W16513  10.380  32.282   1.611
51254W        W16514  29.372  12.131   0.733
51255W        W16515  23.502  11.210  14.293
51256W        W16516  17.193  44.498  13.796
51257W        W16517  20.006   9.895  10.562
51258W        W16518  19.770  19.606   2.322
51259W        W16519  37.360  34.826   3.851
51260W        W16520   9.340  25.969   2.681
51261W        W16521  15.014  33.042  10.827
51262W        W16522  27.306  36.928  14.246
51263W        W16523  28.503  23.088  12.974
51264W        W16524  20.641  39.561  14.505
51265W        W16525  34.814  22.525   3.090
51266W        W16526  32.699  29.940   4.978
51267W        W16527  25.980  27.021   4.637
51268W        W16528  31.399  10.928  12.043
51269W        W16529   5.797  40.070  13.858
51270W        W16530  16.207  21.505  14.704
51271W        W16531  11.386  28.675  11.436
51272W        W16532   5.728  32.444  13.302
51273W        W16533  19.501   7.427  10.310
51274W        W16534  29.604  36.592  14.714
51275W        W16535  25.638  22.728   2.375
51276W        W16536  44.937  10.575  11.551
51277W        W16537  12.635  37.508   1.705
51278W        W16538  29.578  21.504  12.030
51279W        W16539  35.483  38.798  10.769
51280W        W16540  12.543   0.508   0.368
51281W        W16541  34.125  30.584  10.737
51282W        W16542  18.852   4.876   0.691
51283W        W16543  43.245  15.613  12.417
51284W        W16544  28.388  20.593   2.130
51285W        W16545  12.233  40.050  12.376
51286W        W16546  25.550  15.129   1.162
51287W        W16547  16.637  40.353  10.604
51288W        W16548   7.417  24.934  12.177
51289W        W16549  20.994  20.894   3.752
51290W        W16550  25.169  12.722  11.680
51291W        W16551  33.275  44.856  10.795
51292W        W16552  11.230   3.928   3.997
51293W        W16553  14.664  25.679   3.330
51294W        W16554  12.944  21.554  11.774
51295W        W16555   3.435  10.765   4.609
51296W        W16556  21.320  28.598  11.826
51297W        W16557  17.137  40.100   0.629
51298W        W16558  20.144  34.999  12.394
51299W        W16559  35.961  22.148   3.823
51300W        W16560  37.131   0.234  14.730
51301W        W16561  22.614  39.276   2.892
51302W        W16562  30.900  13.323   4.154
51303W        W16563   8.737  23.064   3.891
51304W        W16564  44.083  11.141  12.392
51305W        W16565  29.207  11.371  12.428
51306W        W16566  31.444  29.697  13.154
51307W        W16567   5.362  35.118  11.209
51308W        W16568   3.633  24.566   2.823
51309W        W16569   0.365  17.180  14.260
51310W        W16570  38.015  41.567  14.430
51311W        W16571  24.990  24.610   3.968
51312W        W16572  31.916  17.404   2.913
51313W        W16573   0.979  37.432  12.541
51314W        W16574  27.435  19.182  10.630
51315W        W16575  44.950  33.767  11.900
51316W        W16576   9.340  26.496   4.581
51317W        W16577  38.584   5.341  12.070
51318W        W16578   5.433   6.749  12.067
51319W        W16579  39.052  17.687  11.498
51320W        W16580   9.237  33.082   0.630
51321W        W16581  35.519  21.196  11.116
51322W        W16582  24.885  35.528   1.700
51323W        W16583  16.297  23.483  13.559
51324W        W16584  20.719   3.071  12.361
51325W        W16585  26.181  30.759   2.110
51326W        W16586  10.282   6.766  13.825
51327W        W16587  12.690  29.728   3.241
51328W        W16588   6.960  44.202   4.773
51329W        W16589   5.515  31.866  13.892
51330W        W16590  30.130  43.350   3.693
51331W        W16591  23.752  42.023  10.748
51332W        W16592   0.740  44.929   0.931
51333W        W16593  18.042  28.170   3.697
51334W        W16594  39.444  21.083  10.550
51335W        W16595  36.449  35.494  13.642
51336W        W16596   7.825  32.914   4.517
51337W        W16597  38.303  38.980  12.624
51338W        W16598  15.445  15.250   3.188
51339W        W16599  24.723  21.368  11.200
51340W        W16600  41.423  32.101   2.318
51341W        W16601  43.859  12.404  12.020
51342W        W16602   7.407  33.035   1.149
51343W        W16603  32.661  35.369   0.023
51344W        W16604  25.729  38.812   1.830
51345W        W16605   5.949  33.889  11.199
51346W        W16606  40.946  15.538   2.710
51347W        W16607   5.865   6.940   0.795
51348W        W16608  28.870  41.535  13.349
51349W        W16609  41.124  14.709  12.513
51350W        W16610  13.259  18.225  11.136
51351W        W16611  19.099   1.829  10.983
51352W        W16612  22.718  43.257  10.715
51353W        W16613  38.944  23.114  12.314
51354W        W16614  18.400  24.961  11.999
51355W        W16615  36.269  40.920  11.693
51356W        W16616  39.487  32.900   1.788
51357W        W16617  19.186  15.557   3.712
51358W        W16618  40.318  42.971  13.359
51359W        W16619  26.566   3.252   1.813
51360W        W16620   6.886   0.714   1.801
51361W        W16621   1.965  39.281  11.023
51362W        W16622  39.305   4.365   0.442
51363W        W16623  27.365  22.280   3.551
51364W        W16624  36.048  15.642   4.521
51365W        W16625  24.930  20.653  14.843
51366W        W16626  25.087  18.792  10.779
51367W        W16627  40.073  31.943  12.344
51368W        W16628   1.515  10.623   2.253
51369W        W16629  22.158  19.508   4.352
51370W        W16630  24.138  12.950  11.954
51371W        W16631  10.262   4.697  12.472
51372W        W16632  40.852   9.612   2.519
51373W        W16633  33.404  13.378   2.315
51374W        W16634  37.606  25.698  13.867
51375W        W16635  28.099  27.092   4.827
51376W        W16636  25.616  10.178  11.608
51377W        W16637  16.766  16.774   0.825
51378W        W16638  42.314  33.620  13.778
51379W        W16639  21.009  35.460   1.865
51380W        W16640  14.842  10.405  10.605
51381W        W16641   2.462  21.596  11.147
51382W        W16642  11.081  10.080   3.582
51383W        W16643  37.368   0.927   1.428
51384W        W16644  29.846  15.230   1.686
51385W        W16645  44.563  34.543   3.660
51386W        W16646   6.280   2.531  10.901
51387W        W16647  16.739   5.279  11.617
51388W        W16648  25.160   1.311   2.385
51389W        W16649  41.484   7.896   0.181
51390W        W16650  18.659  22.507   2.628
51391W        W16651  17.579   4.235   4.947
51392W        W16652  30.519  14.259   3.729
51393W        W16653  14.355  17.266  14.505
51394W        W16654  30.690  14.843  14.283
51395W        W16655  24.194  39.340  11.892
51396W        W16656   4.220   6.392  13.732
51397W        W16657  35.399   1.953   5.417
51398W        W16658  39.994  23.665   2.386
51399W        W16659  28.421  17.115  14.496
51400W        W16660  26.514  20.761  14.065
51401W        W16661  19.974  26.985  11.465
51402W        W16662  11.109  19.991  13.008
51403W        W16663   5.185   1.225  10.980
51404W        W16664   5.259  21.311  11.987
51405W        W16665  37.817  39.384   0.148
51406W        W16666  42.703  10.350   0.348
51407W        W16667   2.523  34.556  14.387
51408W        W16668   2.461   7.813   1.179
51409W        W16669  30.607  36.131  14.378
51410W        W16670   2.910  40.782  12.098
51411W        W16671  21.220  26.706   1.888
51412W        W16672  15.062   9.339  13.348
51413W        W16673  43.844  14.207  10.711
51414W        W16674  20.262  44.900  14.533
51415W        W16675  19.739  11.722   0.303
51416W        W16676  18.100  28.295   2.337
51417W        W16677  15.710   2.435   0.954
51418W        W16678  40.994  20.942   0.405
51419W        W16679  20.976  11.661   4.735
51420W        W16680   9.215  25.283   4.062
51421W        W16681  12.755  24.228  10.360
51422W        W16682  40.738  27.547  14.078
51423W        W16683  30.066  31.773  14.975
51424W        W16684  37.654  31.129   3.102
51425W        W16685  40.733   6.058   0.836
51426W        W16686  33.032   6.325   2.946
51427W        W16687   2.607  26.580   4.064
51428W        W16688   1.302  21.032   3.613
51429W        W16689   0.244   3.830  12.419
51430W        W16690  22.260  22.596   4.613
51431W        W16691  14.529  21.273   3.391
51432W        W16692   8.674  29.981   0.890
51433W        W16693  31.102  20.769   0.949
51434W        W16694  15.791  15.812   4.907
51435W        W16695   7.726  13.129   4.533
51436W        W16696  10.430  23.608   1.785
51437W        W16697   1.809  36.072   2.773
51438W        W16698  24.756  43.809   3.164
51439W        W16699  38.795  42.547   2.397
51440W        W16700  16.874   1.430  10.635
51441W        W16701  37.945  41.250  11.601
51442W        W16702  18.971  32.773  12.912
51443W        W16703  35.188  30.145  10.740
51444W        W16704  37.610   7.298   0.912
51445W        W16705  10.225  14.076  10.037
51446W        W16706  20.057  18.772   2.757
51447W        W16707  37.648   8.799   2.235
51448W        W16708  18.840  12.038  12.011
51449W        W16709  43.514  40.534  12.966
51450W        W16710  33.341  38.314   0.805
51451W        W16711  16.631  21.646  14.405
51452W        W16712  21.457  39.874   1.271
51453W        W16713  34.868  32.206  12.395
51454W        W16714  43.845   2.929   0.004
51455W        W16715  44.552  29.661  11.532
51456W        W16716  30.457  27.204   0.886
51457W        W16717   1.931  38.547   0.815
51458W        W16718  11.884   0.895  14.448
51459W        W16719  12.649   4.060   0.372
51460W        W16720   5.841  35.600  13.015
51461W        W16721  18.789   6.907  14.945
51462W        W16722  22.079  36.746  12.197
51463W        W16723   6.672  18.342   3.618
51464W        W16724  41.968   6.375   2.272
51465W        W16725  12.195   9.309   2.678
51466W        W16726  22.122  18.723   2.098
51467W        W16727  31.531  44.806  14.703
51468W        W16728  10.694  28.687  14.257
51469W        W16729   3.272   4.860  14.445
51470W        W16730  16.282  34.053  11.170
51471W        W16731  30.770  37.368  13.511
51472W        W16732  35.493  12.248  10.397
51473W        W16733  13.443  24.022   0.003
51474W        W16734   7.878  28.769   2.634
51475W        W16735  41.511  17.257  10.796
51476W        W16736  14.799  32.612   0.326
51477W        W16737  22.757  40.704   2.847
51478W        W16738  35.850  27.699  11.984
51479W        W16739   2.079  32.482  11.066
51480W        W16740  16.423  33.317  11.510
51481W        W16741   3.694   9.811  10.523
51482W        W16742  19.245  11.851   0.458
51483W        W16743  14.103   7.797   3.897
51484W        W16744  12.207  40.313  14.424
51485W        W16745   4.017  28.572  13.598
51486W        W16746  14.044  43.040   1.738
51487W        W16747  27.447  20.953   3.232
51488W        W16748   1.399  30.607  12.123
51489W        W16749  25.294  37.479   4.092
51490W        W16750  26.120  32.899  14.581
51491W        W16751   5.105  14.755   1.083
51492W        W16752  23.551   5.504  13.070
51493W        W16753  31.040  10.698  14.418
51494W        W16754  20.113  42.959  10.776
51495W        W16755  32.414  10.357   1.867
51496W        W16756  42.255  34.598  14.065
51497W        W16757  26.078  26.080   4.230
51498W        W16758  19.252  42.421  14.697
51499W        W16759   5.112  29.740   1.207
51500W        W16760  16.571  17.991  12.839
51501W        W16761  37.533  44.248  13.818
51502W        W16762   4.828  32.619  14.065
51503W        W16763  42.089  28.619  10.431
51504W        W16764  10.372  30.688   2.458
51505W        W16765  27.458  44.984   1.679
51506W        W16766   4.662   3.571   3.922
51507W        W16767  20.360  38.379  13.402
51508W        W16768   0.381  33.645  12.625
51509W        W16769   6.934  32.000  12.909
51510W        W16770  13.421  35.601   3.291
51511W        W16771  44.193  26.497   3.788
51512W        W16772  42.067  22.979   0.803
51513W        W16773  44.024   6.919  12.968
51514W        W16774  30.427   5.209   3.934
51515W        W16775  39.939  14.416   1.372
51516W        W16776   6.352  44.429   1.916
51517W        W16777  11.344   1.835   2.234
51518W        W16778  17.228  20.140   3.627
51519W        W16779  36.898  44.932   2.348
51520W        W16780   4.780  10.563   1.806
51521W        W16781  41.350   6.211   4.534
51522W        W16782  32.591  12.539   2.631
51523W        W16783  20.601  27.013   3.712
51524W        W16784   9.217  18.182   1.750
51525W        W16785  10.978  18.450   3.425
51526W        W16786   1.379  30.170  10.905
51527W        W16787  21.473  28.441   4.074
51528W        W16788  34.277  15.214  12.902
51529W        W16789   9.390  29.052   3.587
51530W        W16790   9.584  11.728   0.396
51531W        W16791  20.045  24.034  14.520
51532W        W16792   1.430  37.760   3.415
51533W        W16793  35.739  22.419  11.148
51534W        W16794   8.208  13.509  11.616
51535W        W16795   0.375  28.035  13.298
51536W        W16796  18.679  10.068   1.293
51537W        W16797   6.251  10.760   1.267
51538W        W16798  21.509  32.118  11.565
51539W        W16799   4.775  42.503  12.568
51540W        W16800  15.454  33.796  10.821
51541W        W16801  11.733  15.749   2.747
51542W        W16802  39.342  18.037  13.839
51543W        W16803  24.712  24.259   2.784
51544W        W16804  25.923  29.210  11.860
51545W        W16805  30.860  23.214   0.510
51546W        W16806  34.524  15.721  12.015
51547W        W16807  19.284  42.764   4.756
51548W        W16808  33.446  35.790  12.629
51549W        W16809  18.548  28.348  11.034
51550W        W16810  24.930  17.782  12.885
51551W        W16811  24.815   8.062   3.198
51552W        W16812  32.897  30.520   3.340
51553W        W16813  10.640  38.503  13.311
51554W        W16814  22.417  40.364  11.964
51555W        W16815  16.194  24.268  11.680
51556W        W16816   3.174  17.319  13.072
51557W        W16817  37.909  28.919  10.696
51558W        W16818  22.068   7.306   3.526
51559W        W16819  27.002   5.133   0.382
51560W        W16820  26.720  43.806   0.431
51561W        W16821  35.918  10.672  11.410
51562W        W16822  25.258   7.357  13.689
51563W        W16823   1.371  14.280  14.718
51564W        W16824   5.693  17.014   2.697
51565W        W16825   0.882  33.637  14.168
51566W        W16826  29.701  44.885   2.376
51567W        W16827  17.354   9.538   1.643
51568W        W16828  38.497  40.631  13.099
51569W        W16829  24.034  22.283  12.063
51570W        W16830  37.923  11.820   1.404
51571W        W16831  18.579  30.293   0.893
51572W        W16832  10.306  18.097   0.385
51573W        W16833  16.801  37.264  13.354
51574W        W16834  15.178  40.845  13.386
51575W        W16835  10.237   4.394   3.099
51576W        W16836   8.582  15.230   0.988
51577W        W16837  43.970   3.215   3.355
51578W        W16838   6.374  39.350   4.245
51579W        W16839  37.597  18.751  13.823
51580W        W16840  25.324  24.760   3.119
51581W        W16841  31.877  21.549  14.405
51582W        W16842  11.834   5.367  10.115
51583W        W16843  21.527  34.669  11.959
51584W        W16844  25.404   7.957  11.177
51585W        W16845   9.272  42.244   3.442
51586W        W16846  23.250  40.119   0.059
51587W        W16847  18.389  27.270   2.446
51588W        W16848   7.270  19.560  13.701
51589W        W16849  40.969  40.452   0.454
51590W        W16850  42.601  24.986   0.999
51591W        W16851   5.816  28.320  14.725
51592W        W16852  33.865  16.580  12.097
51593W        W16853  21.672   5.646  13.862
51594W        W16854   5.690  24.481   2.373
51595W        W16855  12.767  20.055  12.506
51596W        W16856  23.043  27.881  10.385
51597W        W16857  36.881   4.333   0.298
51598W        W16858   2.792   3.362  13.886
51599W        W16859   9.454  44.064   3.893
51600W        W16860  27.173  39.459  11.636
51601W        W16861   2.657   7.229  13.138
51602W        W16862  27.662  13.743   0.453
51603W        W16863  20.128  30.414   4.114
51604W        W16864  26.752   3.707   4.155
51605W        W16865   7.767  21.666   4.633
51606W        W16866   4.334  20.994  10.606
51607W        W16867  42.766  19.015  11.256
51608W        W16868   0.990   0.864  14.351
51609W        W16869  39.956  38.835   1.487
51610W        W16870  18.432   0.378  14.559
51611W        W16871  12.151  21.981  13.504
51612W        W16872   6.067  28.126   4.937
51613W        W16873   5.942   0.386   3.661
51614W        W16874  26.425  41.946  11.473
51615W        W16875  38.821  19.579  14.421
51616W        W16876  31.563  33.817   0.389
51617W        W16877  11.808  40.585  14.211
51618W        W16878   1.117  24.567  14.774
51619W        W16879  12.153   5.951   0.507
51620W        W16880   1.375  44.021   3.851
51621W        W16881  19.760  30.241  13.900
51622W        W16882  19.735  20.590  10.797
51623W        W16883  34.197   9.545  14.280
51624W        W16884  19.246  23.761   1.488
51625W        W16885  25.724  15.706  12.583
51626W        W16886   9.890  14.064  14.089
51627W        W16887  11.339  30.707  13.253
51628W        W16888  12.307  26.659  11.686
51629W        W16889  34.572  17.161  12.179
51630W        W16890  35.883  23.066  13.944
51631W        W16891  20.272  11.943  12.231
51632W        W16892  11.780  11.126  11.403
51633W        W16893   4.837  31.225   1.839
51634W        W16894   4.987   4.021  11.075
51635W        W16895  18.177  42.758  10.980
51636W        W16896   3.650  10.569  12.505
51637W        W16897  14.273  24.680   1.222
51638W        W16898  28.746   3.563   2.420
51639W        W16899  33.213   6.855  13.010
51640W        W16900  37.979  20.619  13.077
51641W        W16901  27.364  33.052   4.026
51642W        W16902   5.761  40.795  14.380
51643W        W16903  32.377  36.399  11.438
51644W        W16904  32.574  43.516   4.789
51645W        W16905  29.488   8.693   2.194
51646W        W16906   9.452  34.808  11.371
51647W        W16907  38.402  28.897  10.543
51648W        W16908  16.275  43.436  10.657
51649W        W16909  11.523   7.037  12.087
51650W        W16910  37.430  11.253   4.655
51651W        W16911  40.940  15.564  13.956
51652W        W16912  37.858  27.224  11.557
51653W        W16913  39.961  20.989  14.002
51654W        W16914  44.424   8.724  12.925
51655W        W16915  21.549  29.306   0.910
51656W        W16916  27.021  35.807  14.998
51657W        W16917  41.311   7.443   0.401
51658W        W16918  11.619  39.039   4.909
51659W        W16919   7.711  39.571  11.613
51660W        W16920  17.271  39.067  14.492
51661W        W16921  30.148  11.696   0.855
51662W        W16922  31.050  23.260  13.147
51663W        W16923  16.718   0.723   1.113
51664W        W16924  11.669  40.394   4.578
51665W        W16925   2.832  30.501   1.816
51666W        W16926  22.689   4.901  14.332
51667W        W16927  17.251  16.721   1.014
51668W        W16928  14.081  15.775   1.713
51669W        W16929   3.835  37.025   3.921
51670W        W16930  44.767   2.723   2.396
51671W        W16931   2.728  11.816  13.321
51672W        W16932  26.933  11.699  11.644
51673W        W16933  30.759  22.859   2.706
51674W        W16934   2.743  14.932   3.046
51675W        W16935  44.733  24.630  10.221
51676W        W16936  35.630  28.849   4.147
51677W        W16937  24.698  29.422  13.951
51678W        W16938  36.095  37.479   0.473
51679W        W16939  30.539  12.055  12.575
51680W        W16940  19.731  37.103   3.906
51681W        W16941   0.894   3.192   0.119
51682W        W16942  16.037  30.675   2.827
51683W        W16943  23.835  16.400  14.922
51684W        W16944   8.860  10.759  11.530
51685W        W16945  17.245  27.242   3.208
51686W        W16946   7.816  28.958  14.266
51687W        W16947  22.092   2.001   3.136
51688W        W16948  14.215  11.958   4.265
51689W        W16949  19.365  28.604   2.449
51690W        W16950  18.693   0.333   2.451
51691W        W16951  32.638  27.232   0.596
51692W        W16952  12.156  41.988  10.762
51693W        W16953  10.725   2.494  13.447
51694W        W16954  22.952  27.851   4.247
51695W        W16955  41.032  41.183  14.716
51696W        W16956  44.800  31.948   1.361
51697W        W16957  12.815  27.527   1.967
51698W        W16958  22.086  32.445   4.525
51699W        W16959  18.465  13.477  13.000
51700W        W16960  22.343  42.313   3.174
51701W        W16961  35.500  36.984   1.175
51702W        W16962  14.346  17.161  11.630
51703W        W16963   3.410  17.683   0.170
51704W        W16964  20.095  30.918  13.379
51705W        W16965   3.500  18.266  12.595
51706W        W16966  23.392  42.857  10.425
51707W        W16967  19.144  30.114   3.249
51708W        W16968  22.240   1.520   1.232
51709W        W16969  19.671  41.043  11.570
51710W        W16970  21.644   0.324  10.878
51711W        W16971  28.960   8.337  14.430
51712W        W16972   3.924  11.042  12.434
51713W        W16973  27.148  36.071  13.979
51714W        W16974  17.725  31.833   1.391
51715W        W16975  19.763  26.289   3.176
51716W        W16976   1.907   1.931   2.401
51717W        W16977  13.110  11.259   0.762
51718W        W16978   5.410   3.318   0.682
51719W        W16979  10.967  24.273  12.032
51720W        W16980  18.782   3.468  12.006
51721W        W16981  30.540  27.434   2.764
51722W        W16982  21.318  26.559  13.389
51723W        W16983  30.482  17.658   0.979
51724W        W16984  36.670  14.517   4.240
51725W        W16985  26.965   7.953  12.818
51726W        W16986  19.782  17.278  13.877
51727W        W16987  25.065   2.808   0.552
51728W        W16988  28.586  38.499  12.573
51729W        W16989  28.050   0.497  12.611
51730W        W16990  37.149  43.144   1.226
51731W        W16991   9.008  10.168   2.367
51732W        W16992  35.481   6.514  11.469
51733W        W16993  17.473  29.488  13.767
51734W        W16994  39.459   7.315   0.647
51735W        W16995  44.542  38.533  11.943
51736W        W16996  40.442  14.072  10.604
51737W        W16997  30.159  44.672   2.234
51738W        W16998   1.832  25.911  14.544
51739W        W16999  27.439  22.981   1.314
51740W        W17000  41.887   1.415  10.634
51741W        W17001  37.631  13.747   1.905
51742W        W17002  28.076  26.083   3.743
51743W        W17003   7.407  11.752  11.416
51744W        W17004  12.222   2.512  10.795
51745W        W17005   1.759  36.452   0.201
51746W        W17006   7.540  41.315  14.319
51747W        W17007   0.261  16.608   4.199
51748W        W17008   1.981  44.093   0.553
51749W        W17009   2.868  17.119   2.826
51750W        W17010   8.572   8.627  13.012
51751W        W17011   3.427  12.862   0.772
51752W        W17012   3.873  23.965   0.248
51753W        W17013  23.029  11.618   2.765
51754W        W17014  39.516  27.984   2.633
51755W        W17015  17.411  10.332  14.064
51756W        W17016  21.493  11.395  10.619
51757W        W17017   2.683   9.229  13.254
51758W        W17018   7.610   8.850  14.040
51759W        W17019  40.369  42.965   5.041
51760W        W17020  37.533   3.308  14.083
51761W        W17021   6.456  21.314   3.814
51762W        W17022  26.645   1.233  11.637
51763W        W17023  25.509  15.350  13.493
51764W        W17024   6.759   5.204   1.289
51765W        W17025   0.804  29.969   0.506
51766W        W17026   0.972  17.521  14.424
51767W        W17027  30.702   0.037  13.436
51768W        W17028  18.490  18.371   4.530
51769W        W17029  17.573  28.992  13.525
51770W        W17030  26.641  11.266  11.640
51771W        W17031  27.852  43.244  12.128
51772W        W17032  25.161   7.675  13.272
51773W        W17033  24.450  42.395  14.782
51774W        W17034   1.443  18.105   3.373
51775W        W17035  41.319  15.823   2.922
51776W        W17036  12.171   4.082  14.806
51777W        W17037   9.223  37.418  12.507
51778W        W17038  17.995  11.501  14.056
51779W        W17039  11.378   9.115   3.689
51780W        W17040   9.835   3.015   0.890
51781W        W17041   8.675   4.976  10.690
51782W        W17042   1.964  25.470   4.125
51783W        W17043   4.016  10.179   4.344
51784W        W17044  10.390  15.114  10.117
51785W        W17045  40.400   2.362   3.267
51786W        W17046   1.381  11.319   1.192
51787W        W17047  34.376   0.849   2.172
51788W        W17048   5.782  14.111   0.506
51789W        W17049  20.098  19.716  14.494
51790W        W17050  22.078  10.730  10.442
51791W        W17051  23.273  42.447   3.556
51792W        W17052   0.882   5.817  11.838
51793W        W17053  33.925  19.654   1.030
51794W        W17054  39.401  40.576  12.845
51795W        W17055   0.528  25.387  13.409
51796W        W17056  38.858  23.535  14.168
51797W        W17057  26.402  31.758  14.822
51798W        W17058  43.621  41.312   2.285
51799W        W17059  10.273  38.895   2.584
51800W        W17060  14.529  15.679   0.855
51801W        W17061   0.270  29.419   4.667
51802W        W17062   8.710   2.530   1.636
51803W        W17063  21.712  33.923  11.545
51804W        W17064   1.998  29.093   3.719
51805W        W17065  36.417  33.191  11.565
51806W        W17066   1.696   0.196  14.290
51807W        W17067   6.285  26.737   4.458
51808W        W17068   8.296   4.691  13.303
51809W        W17069  14.421   9.576   3.632
51810W        W17070   7.960  28.415  11.605
51811W        W17071   6.277   8.829   4.462
51812W        W17072  32.447  13.663   2.329
51813W        W17073  25.271  31.423   4.279
51814W        W17074  38.050  29.725   4.664
51815W        W17075  10.038  39.060  12.925
51816W        W17076  37.031  43.713   0.375
51817W        W17077  11.865   2.769  12.848
51818W        W17078  30.355  10.261   0.410
51819W        W17079  18.126  11.245   0.849
51820W        W17080  40.093  11.384   4.636
51821W        W17081  37.974  17.031   1.225
51822W        W17082  30.843  12.435  13.455
51823W        W17083  13.106  38.785   2.871
51824W        W17084  21.281  18.246  13.277
51825W        W17085  32.037   7.914   1.897
51826W        W17086   0.731  21.718  13.772
51827W        W17087  14.137  10.882  13.508
51828W        W17088   3.826  25.438  14.706
51829W        W17089  35.066  34.024   1.678
51830W        W17090  37.100  33.908  14.840
51831W        W17091  17.511   6.103   1.020
51832W        W17092  17.227  26.472   1.960
51833W        W17093  20.579  20.563   1.725
51834W        W17094  31.900  35.046   2.146
51835W        W17095  31.231  36.902   4.636
51836W        W17096   8.120   3.296  11.196
51837W        W17097   2.298  24.019   0.297
51838W        W17098  31.101  12.260  13.898
51839W        W17099  44.307  11.105  11.934
51840W        W17100  18.566   1.790  11.027
51841W        W17101   3.965  25.507   1.907
51842W        W17102  26.978  11.704   3.220
51843W        W17103  20.704   8.761  11.639
51844W        W17104   4.307  20.665   3.032
51845W        W17105  23.460  28.559  12.177
51846W        W17106  43.847   7.850   2.605
51847W        W17107  13.640  37.319   1.963
51848W        W17108  22.640  21.160   4.596
51849W        W17109  23.449  41.401   4.599
51850W        W17110   3.230   6.736  11.490
51851W        W17111  28.977  12.078  14.671
51852W        W17112  11.586   3.325   1.173
51853W        W17113  39.987  16.460   2.734
51854W        W17114  12.725  14.758   0.305
51855W        W17115  16.668  37.189  10.756
51856W        W17116  41.238  44.633   1.072
51857W        W17117   9.265   4.797  12.768
51858W        W17118  19.964  38.045   2.754
51859W        W17119  15.324  10.439  13.141
51860W        W17120  29.162  21.495  14.842
51861W        W17121  14.302  10.616   2.565
51862W        W17122  33.477  10.396   4.550
51863W        W17123  25.594  23.390   1.375
51864W        W17124   8.730  11.340  14.675
51865W        W17125   3.323  28.814   4.036
51866W        W17126  31.362  39.739   1.563
51867W        W17127  10.902  38.945  13.456
51868W        W17128  17.497  37.896  13.620
51869W        W17129  29.884   6.428  13.265
51870W        W17130   9.726   8.626  12.097
51871W        W17131  25.562   2.768  14.849
51872W        W17132  15.323  31.545   0.303
51873W        W17133  44.454  29.977   0.899
51874W        W17134  28.781  38.109  14.484
51875W        W17135  13.800  20.655   4.573
51876W        W17136  22.249  17.329  12.829
51877W        W17137   4.921   2.316   4.058
51878W        W17138  35.836  34.460  11.621
51879W        W17139  33.859  30.021   1.427
51880W        W17140   8.746  34.886  14.658
51881W        W17141  11.207  15.761   2.836
51882W        W17142   6.649  37.597  13.300
51883W        W17143  22.601  26.217   0.715
51884W        W17144  26.172  31.078  10.730
51885W        W17145  15.206   8.098  11.460
51886W        W17146   0.249  28.468  13.024
51887W        W17147  42.886  40.283   3.294
51888W        W17148   2.865   1.850  10.682
51889W        W17149   3.594  26.232   9.826
51890W        W17150  16.278   2.313  10.736
51891W        W17151  39.608  34.122  11.400
51892W        W17152  38.537  37.108  12.624
51893W        W17153  30.028  22.139   0.300
51894W        W17154  24.669  39.802   2.336
51895W        W17155  39.323   4.179   1.736
51896W        W17156  43.646   7.802  12.059
51897W        W17157  33.189   0.980  10.267
51898W        W17158  21.291  28.396   1.443
51899W        W17159  32.572  32.461   2.452
51900W        W17160   7.455  31.602  14.581
51901W        W17161  12.269  41.107  12.584
51902W        W17162  11.282   6.426  14.826
51903W        W17163  35.457  34.680  10.690
51904W        W17164  23.920   3.728   2.240
51905W        W17165  43.867  18.548  10.822
51906W        W17166  41.769  25.884   0.739
51907W        W17167  35.177  36.432  14.518
51908W        W17168  39.792   6.562   0.019
51909W        W17169  10.638  19.649  13.938
51910W        W17170  40.926  20.098  14.316
51911W        W17171  35.850  31.988   3.667
51912W        W17172  16.627  32.906   1.284
51913W        W17173  38.413  26.067   0.924
51914W        W17174  23.899  42.039  13.582
51915W        W17175  34.042  35.963   1.932
51916W        W17176  35.482  18.959   0.173
51917W        W17177  35.009  26.667  10.733
51918W        W17178  35.409  27.462   0.192
51919W        W17179  34.142   2.866  11.619
51920W        W17180  41.728   7.591  13.903
51921W        W17181   3.427  29.284   4.898
51922W        W17182   1.019   8.272   3.916
51923W        W17183  15.616  21.100  12.725
51924W        W17184   6.936  30.007   3.586
51925W        W17185  11.930   4.327   4.810
51926W        W17186  32.748  44.511  10.633
51927W        W17187  32.214  42.984  12.814
51928W        W17188  22.209  36.923  13.732
51929W        W17189  10.229  41.251  13.531
51930W        W17190  40.056  33.862  11.194
51931W        W17191  40.981  12.126  12.932
51932W        W17192   8.384  32.619  11.254
51933W        W17193  36.883  21.080   0.492
51934W        W17194  33.672  19.471   0.411
51935W        W17195  36.446   5.803   3.526
51936W        W17196   1.342  23.564   4.122
51937W        W17197  21.230  13.176  14.485
51938W        W17198  37.925  27.503   2.144
51939W        W17199  27.225  15.838  14.771
51940W        W17200  35.576  36.472  14.840
51941W        W17201   3.885  10.111   3.859
51942W        W17202   2.342   1.878   0.438
51943W        W17203  10.823  13.597   1.685
51944W        W17204  27.563  16.467   3.185
51945W        W17205  36.626  44.481   9.826
51946W        W17206  21.141  37.851   0.825
51947W        W17207  39.488  24.664  11.614
51948W        W17208  17.030   0.271  14.918
51949W        W17209  41.048   3.993  13.839
51950W        W17210  43.352  27.544   1.645
51951W        W17211  13.316   1.261  10.692
51952W        W17212  26.869  26.410   4.534
51953W        W17213  20.090  26.690   3.212
51954W        W17214  31.027  14.808   2.709
51955W        W17215  44.415  19.031  10.721
51956W        W17216  24.450  24.375  13.480
51957W        W17217  32.955  44.711  11.645
51958W        W17218  13.540  27.509   5.021
51959W        W17219  29.040  29.408   1.196
51960W        W17220   6.724   6.999   0.644
51961W        W17221   8.708   6.723  10.982
51962W        W17222  12.651   6.788   2.148
51963W        W17223  38.295  43.567  11.591
51964W        W17224  38.626   5.815  14.407
51965W        W17225  12.691   0.828  13.358
51966W        W17226  20.161  35.538  14.994
51967W        W17227  23.692  33.813   1.802
51968W        W17228  16.144  34.097   1.372
51969W        W17229   1.920  18.647   2.293
51970W        W17230   7.133  23.289   1.354
51971W        W17231  23.779  30.150  13.500
51972W        W17232  29.891  33.019   4.414
51973W        W17233  17.824  43.584  12.927
51974W        W17234   1.744  22.340   4.483
51975W        W17235  22.630  31.993   2.483
51976W        W17236  20.125  19.516   3.667
51977W        W17237  38.500  27.655   3.440
51978W        W17238  21.602  32.646  10.797
51979W        W17239   4.739  43.447  12.533
51980W        W17240   9.749  16.702   4.397
51981W        W17241  20.100  29.211  13.895
51982W        W17242   8.080  32.291   5.214
51983W        W17243   6.428  37.795   1.493
51984W        W17244  34.049  31.083   2.306
51985W        W17245  15.987  40.941   2.653
51986W        W17246   8.228  10.460  13.113
51987W        W17247  11.697  30.527   0.431
51988W        W17248  25.361   9.510   0.930
51989W        W17249  34.369   5.912   4.173
51990W        W17250  27.242  27.091   0.297
51991W        W17251   1.969  37.164  11.611
51992W        W17252  21.297  42.789  14.415
51993W        W17253  11.984  41.877  14.277
51994W        W17254  33.706  30.888   1.945
51995W        W17255   6.455  44.370   3.816
51996W        W17256  44.253  37.541  13.077
51997W        W17257  24.292  16.424  10.818
51998W        W17258   1.570  12.900  14.463
51999W        W17259   2.070   5.945  14.420
52000W        W17260  33.201  34.005   2.765
52001W        W17261  17.731  38.287  11.422
52002W        W17262  11.660  11.760  14.955
52003W        W17263  20.446  28.575  11.225
52004W        W17264  23.822  37.447   1.659
52005W        W17265  30.011  24.151  11.585
52006W        W17266   6.179  42.783  12.503
52007W        W17267  31.420  36.378   3.857
52008W        W17268   9.059   8.567   0.336
52009W        W17269  39.129  33.614  14.000
52010W        W17270   7.262  11.301   2.791
52011W        W17271  39.868  17.518  11.196
52012W        W17272  24.340  24.270   1.188
52013W        W17273  12.722  35.218   3.705
52014W        W17274  28.877  44.188   4.571
52015W        W17275  11.621   0.845  14.907
52016W        W17276  42.263  22.743   3.636
52017W        W17277  31.551  40.465   3.563
52018W        W17278  24.614  38.285  14.507
52019W        W17279  37.030  27.090   3.441
52020W        W17280  38.454  28.719   4.434
52021W        W17281   6.009   4.435  12.623
52022W        W17282   6.290  19.007   3.421
52023W        W17283  12.828  20.648   4.829
52024W        W17284  35.248  12.090  11.876
52025W        W17285  23.938  28.650  12.018
52026W        W17286  35.472   9.711  10.894
52027W        W17287  11.693  27.120   1.349
52028W        W17288  10.287  39.070   3.596
52029W        W17289  13.319  35.596  12.223
52030W        W17290  10.227  28.983   4.749
52031W        W17291  34.578  19.835  13.230
52032W        W17292  36.589  30.932  11.445
52033W        W17293  36.066  16.101  11.118
52034W        W17294  17.543  32.125  14.378
52035W        W17295  18.774  30.440   4.174
52036W        W17296  19.146  20.365  11.154
52037W        W17297  22.109   1.478  14.474
52038W        W17298  19.918   7.690   9.756
52039W        W17299  44.970  12.257  10.553
52040W        W17300  21.160  12.546  13.405
52041W        W17301  36.022  42.094  12.967
52042W        W17302  32.575  14.630   1.286
52043W        W17303   7.150  30.785  10.513
52044W        W17304   5.641  14.091   1.975
52045W        W17305   9.680  18.501   3.555
52046W        W17306  21.242   9.806  14.952
52047W        W17307  31.540  23.517   0.837
52048W        W17308  44.061  43.493   0.037
52049W        W17309   5.804  42.548   3.699
52050W        W17310  15.831   0.440  12.465
52051W        W17311  29.984  36.919  14.511
52052W        W17312  21.086  42.647  10.617
52053W        W17313  41.887  10.195   4.988
52054W        W17314  32.693  28.648   4.145
52055W        W17315  21.705   4.796  14.499
52056W        W17316  28.825  19.135  12.021
52057W        W17317  20.624  13.800   3.784
52058W        W17318  19.517  22.183   1.732
52059W        W17319   4.942  11.188   2.778
52060W        W17320  13.869   8.246  13.245
52061W        W17321  12.336   0.295   3.527
52062W        W17322   2.762   4.788   3.622
52063W        W17323  10.252  22.734   3.645
52064W        W17324  12.606   1.493   4.660
52065W        W17325   4.483  31.814   0.342
52066W        W17326  13.029  32.295   4.774
52067W        W17327  42.515  33.623  12.401
52068W        W17328  23.569  38.885  11.535
52069W        W17329   3.517  13.281  12.081
52070W        W17330  30.807  33.064   1.275
52071W        W17331  43.711   8.105  13.568
52072W        W17332   2.640  16.089   4.553
52073W        W17333   3.360   8.624   3.202
52074W        W17334  42.032  20.704   3.157
52075W        W17335  15.561  12.867  14.704
52076W        W17336  13.266  42.801   3.809
52077W        W17337  30.935  13.508  13.500
52078W        W17338  12.334  37.668  11.604
52079W        W17339  42.982  38.016   4.443
52080W        W17340   9.710  17.233  14.048
52081W        W17341  34.590   8.223  11.330
52082W        W17342  29.647  31.002   3.783
52083W        W17343   1.843  36.189  11.645
52084W        W17344   6.182   9.227   2.247
52085W        W17345  15.235  27.646   4.114
52086W        W17346  33.655  36.274  12.731
52087W        W17347  39.088   6.676   2.231
52088W        W17348  42.300  16.744  13.355
52089W        W17349  28.986   0.553  12.589
52090W        W17350  43.889   0.848  10.890
52091W        W17351  42.522  32.095  14.900
52092W        W17352  26.503   3.421  14.277
52093W        W17353   0.508  35.379   1.525
52094W        W17354  33.679   4.110  10.169
52095W        W17355  31.725  24.083  10.238
52096W        W17356  24.236  44.867  13.954
52097W        W17357  29.012  25.081   4.340
52098W        W17358  26.251   9.828  14.307
52099W        W17359  38.948   4.651  11.588
52100W        W17360   5.434  37.445   0.385
52101W        W17361  24.222   8.123  12.736
52102W        W17362   7.381  31.067   2.701
52103W        W17363  41.971  10.959  12.955
52104W        W17364   5.961  21.109  11.175
52105W        W17365  11.151  40.877   0.710
52106W        W17366  19.347  13.992   2.685
52107W        W17367  10.745  27.473  14.075
52108W        W17368  17.822  38.495   0.239
52109W        W17369  39.258  21.015   2.340
52110W        W17370   2.772   6.165   1.480
52111W        W17371   0.660  26.603   0.351
52112W        W17372   2.422  29.747   0.744
52113W        W17373  21.151  29.615   0.790
52114W        W17374  37.442  25.705   2.218
52115W        W17375  22.823  14.690   1.357
52116W        W17376  14.735  39.466  13.002
52117W        W17377  11.890  26.083   4.855
52118W        W17378  17.623  34.690   2.883
52119W        W17379  43.251   7.703   0.723
52120W        W17380   8.132  17.497  11.196
52121W        W17381   6.310  22.607   1.538
52122W        W17382  43.311   5.271   3.632
52123W        W17383  17.102  42.420   4.910
52124W        W17384  13.604  15.601  14.938
52125W        W17385   7.166  35.716   3.599
52126W        W17386  38.520  22.358  11.245
52127W        W17387  40.456   7.717  14.773
52128W        W17388  43.251  30.873  14.784
52129W        W17389  16.673  17.166   4.452
52130W        W17390  14.059  38.913   1.813
52131W        W17391  35.569  30.090   3.701
52132W        W17392  23.507   8.894  13.142
52133W        W17393  42.296  10.657  14.473
52134W        W17394   1.747  23.690   9.637
52135W        W17395  39.382  40.449  11.584
52136W        W17396  44.928  42.488   4.196
52137W        W17397  41.339  19.051   1.983
52138W        W17398  36.172  29.913  13.928
52139W        W17399   7.861  23.059   4.272
52140W        W17400  25.203  41.738  13.389
52141W        W17401  16.666  19.759   2.310
52142W        W17402  10.292  12.880  12.619
52143W        W17403  29.475  18.208   4.191
52144W        W17404  20.836  13.330   3.803
52145W        W17405  12.493  25.261  12.431
52146W        W17406   4.686  36.170  13.901
52147W        W17407  25.556  12.646   1.824
52148W        W17408  12.697  35.226  12.563
52149W        W17409  39.161   7.300   3.255
52150W        W17410  15.569   4.704  13.334
52151W        W17411  16.862  11.595  11.081
52152W        W17412  30.560  15.045  14.994
52153W        W17413  43.295  41.294  14.844
52154W        W17414  27.088  37.234   4.519
52155W        W17415  30.139  26.694   1.376
52156W        W17416  16.774  27.678  13.317
52157W        W17417  18.524  22.229  10.752
52158W        W17418   8.758  39.233  12.043
52159W        W17419  25.572  14.738   1.890
52160W        W17420  34.987  21.586   2.659
52161W        W17421   0.101  23.161   2.335
52162W        W17422  27.009  38.897  13.076
52163W        W17423   6.113  31.395   2.798
52164W        W17424  35.397  32.329  12.913
52165W        W17425  21.155  26.226   1.641
52166W        W17426   6.470  39.524  12.877
52167W        W17427  38.898  11.038  13.061
52168W        W17428  17.117  27.444   4.142
52169W        W17429  16.051  42.103   3.629
52170W        W17430  14.114  33.623  12.958
52171W        W17431  32.370   7.459  12.016
52172W        W17432  44.316  26.071   0.746
52173W        W17433  33.431  10.898  14.868
52174W        W17434  39.261  41.922  13.131
52175W        W17435   2.481  36.303  14.460
52176W        W17436  43.727  13.182  11.639
52177W        W17437   8.608   7.918  14.807
52178W        W17438  11.135  12.303  11.525
52179W        W17439   7.578  18.232  14.991
52180W        W17440  35.660  12.692   2.334
52181W        W17441  14.734  44.979   3.837
52182W        W17442  25.604  14.781  12.169
52183W        W17443  10.608  27.597  10.543
52184W        W17444  26.939  18.076  12.178
52185W        W17445  31.115   2.417  14.968
52186W        W17446   3.250  34.868  13.984
52187W        W17447  18.663  35.783   1.433
52188W        W17448  16.279  43.800   4.597
52189W        W17449  10.144  14.049  14.556
52190W        W17450  38.763  23.005   2.267
52191W        W17451  39.982  30.635  12.606
52192W        W17452  31.669  33.941   1.339
52193W        W17453   9.068  25.555  14.418
52194W        W17454  27.968  28.133   0.410
52195W        W17455  12.393  33.513  11.848
52196W        W17456  34.284  26.510  10.093
52197W        W17457  36.431  23.131  10.943
52198W        W17458  18.009  15.986   3.297
52199W        W17459  16.609  23.133   3.638
52200W        W17460  34.921  44.100  11.282
52201W        W17461  26.367  17.795   0.825
52202W        W17462  44.780  27.518   2.219
52203W        W17463  11.872   9.068  14.332
52204W        W17464   8.841   1.736  14.357
52205W        W17465   6.160  43.437  10.627
52206W        W17466  26.767  23.670   0.150
52207W        W17467   0.364  42.397  12.136
52208W        W17468  30.132  35.965   4.713
52209W        W17469  12.889  32.380  11.340
52210W        W17470  37.447  42.974   2.816
52211W        W17471   5.837   5.244   1.899
52212W        W17472  14.769  22.647   1.228
52213W        W17473  41.787  34.384   1.689
52214W        W17474  13.323  41.368  11.962
52215W        W17475  13.172   7.526   2.165
52216W        W17476   1.324   7.909  14.368
52217W        W17477  36.143  25.237  11.617
52218W        W17478  31.442  16.351  11.539
52219W        W17479  41.645  34.065  12.028
52220W        W17480   8.165  39.444  14.995
52221W        W17481  13.750   3.919   1.065
52222W        W17482  34.190  43.949  13.410
52223W        W17483  40.821   4.887  12.535
52224W        W17484   5.338  40.430   1.908
52225W        W17485  37.602  22.525  12.067
52226W        W17486  23.248   6.836   0.710
52227W        W17487   1.760  26.400   1.406
52228W        W17488  40.038  28.001   1.217
52229W        W17489  13.599   8.495  12.849
52230W        W17490  20.215  27.391   3.746
52231W        W17491  24.897  22.346   5.347
52232W        W17492  13.843  29.900   2.243
52233W        W17493  10.202   6.138   0.455
52234W        W17494  21.640  39.064  14.386
52235W        W17495  17.194  30.909  14.985
52236W        W17496  16.816  38.868  14.324
52237W        W17497  23.285  22.512   1.747
52238W        W17498  15.665   2.937  12.689
52239W        W17499   6.913  35.559   1.745
52240W        W17500   2.348  40.411   4.549
52241W        W17501  41.823  16.761   4.186
52242W        W17502  25.633   3.214   2.796
52243W        W17503  12.301  27.584   3.788
52244W        W17504  17.582  26.791   4.603
52245W        W17505  34.347  16.156   3.650
52246W        W17506  44.923  14.115   4.084
52247W        W17507  32.942  13.588  13.044
52248W        W17508  20.992   5.915  14.878
52249W        W17509  37.284  33.133   1.806
52250W        W17510  31.556  31.462   1.441
52251W        W17511  20.302  31.654   2.133
52252W        W17512  19.029  14.335  10.658
52253W        W17513  28.189   3.139   2.861
52254W        W17514  12.206  19.520   0.996
52255W        W17515   1.968  29.421   0.827
52256W        W17516  30.451  14.066   2.893
52257W        W17517  21.732  38.023  13.577
52258W        W17518  10.562  21.467   4.069
52259W        W17519  23.249   3.008  14.701
52260W        W17520  26.485  19.694   2.215
52261W        W17521  42.993  21.037   4.577
52262W        W17522   4.378  26.326  10.205
52263W        W17523   7.815   8.644  12.761
52264W        W17524  14.072  30.482  11.781
52265W        W17525  13.781   6.345   0.783
52266W        W17526  34.933  41.117  13.082
52267W        W17527  30.044  26.244   4.892
52268W        W17528   4.715   9.339  11.641
52269W        W17529  44.935   4.247  14.369
52270W        W17530  27.999   5.945   4.067
52271W        W17531  11.704  24.649   3.559
52272W        W17532  17.031  10.847  14.809
52273W        W17533  17.122  40.344  12.589
52274W        W17534  34.039  17.109   2.602
52275W        W17535   7.748  16.613  12.396
52276W        W17536  30.423  34.968   3.795
52277W        W17537   5.442   5.861   3.716
52278W        W17538  22.190  44.490   1.581
52279W        W17539  10.531   9.841  11.558
52280W        W17540   3.741  17.361   1.854
52281W        W17541  23.829  19.740   4.835
52282W        W17542  34.028  26.159   0.425
52283W        W17543  19.694  41.889  12.178
52284W        W17544  28.347  20.530   1.073
52285W        W17545  26.773  32.624  12.305
52286W        W17546  42.327  26.322   2.815
52287W        W17547   6.714  18.379   2.547
52288W        W17548  31.047  36.654   3.632
52289W        W17549   8.329  27.707  14.031
52290W        W17550  40.741  11.876   4.493
52291W        W17551   3.743   2.926   4.209
52292W        W17552  22.509  11.383   0.631
52293W        W17553  42.774   6.687   1.777
52294W        W17554  41.554  31.109   4.230
52295W        W17555   0.386  29.137  13.878
52296W        W17556  10.112  13.106  12.134
52297W        W17557   1.205  41.825   0.840
52298W        W17558   0.010   8.207  14.319
52299W        W17559  27.837  28.438   3.750
52300W        W17560  36.308  41.734   3.730
52301W        W17561  14.376   8.373  14.524
52302W        W17562  23.757  39.023  14.127
52303W        W17563  17.651  29.131   2.632
52304W        W17564  15.056  43.017  14.001
52305W        W17565  24.698  31.670  10.697
52306W        W17566  14.095  42.144  13.846
52307W        W17567  30.794  10.773   4.150
52308W        W17568  14.748  22.956  14.784
52309W        W17569  32.985  32.649  11.769
52310W        W17570   6.471  11.265  10.437
52311W        W17571  37.434  23.463   4.246
52312W        W17572   2.981   8.350   3.776
52313W        W17573  29.043  41.296   0.163
52314W        W17574  43.842  10.738   0.014
52315W        W17575  31.600  15.324  13.981
52316W        W17576  40.343  24.953   2.476
52317W        W17577   1.316  12.182  14.853
52318W        W17578  29.920  25.730   2.618
52319W        W17579  36.574  36.833  14.371
52320W        W17580  26.037  26.715   0.553
52321W        W17581  31.194  41.266  14.713
52322W        W17582  20.614  44.375  14.419
52323W        W17583  22.186  38.925   1.213
52324W        W17584   0.717  12.613   1.926
52325W        W17585  25.060  10.654   0.389
52326W        W17586  29.448  44.202   0.199
52327W        W17587  19.283  12.954   1.815
52328W        W17588   9.906  36.961   1.451
52329W        W17589  36.548  41.990   0.674
52330W        W17590  31.071  29.438   4.478
52331W        W17591  37.369  31.519   0.246
52332W        W17592  30.183  13.159  13.093
52333W        W17593  35.074  41.248   4.908
52334W        W17594  43.237   8.840   1.897
52335W        W17595  41.143  41.289   4.661
52336W        W17596   8.157  18.635  13.871
52337W        W17597  26.078  36.913  13.995
52338W        W17598   7.712  43.316   1.978
52339W        W17599  23.377  16.786  14.792
52340W        W17600  35.957  22.790  11.435
52341W        W17601  42.077  39.751  11.433
52342W        W17602  26.495  41.261  12.914
52343W        W17603  38.375  42.308  12.899
52344W        W17604   0.131   9.251   4.724
52345W        W17605  37.362   5.596  10.985
52346W        W17606  21.574  31.070  12.855
52347W        W17607  29.105   1.466   2.656
52348W        W17608   6.412   8.606   4.012
52349W        W17609  38.077  31.216  14.613
52350W        W17610  22.162  37.803   0.366
52351W        W17611   2.907  31.593   3.219
52352W        W17612   8.384   8.809   3.747
52353W        W17613   6.425  40.306  14.429
52354W        W17614   9.231  13.664   1.876
52355W        W17615  44.696  25.503   0.288
52356W        W17616   0.163  16.160  14.878
52357W        W17617  39.161  44.351   2.387
52358W        W17618  44.430  34.463  13.492
52359W        W17619  14.400  25.220   4.019
52360W        W17620  11.720  16.414   3.970
52361W        W17621  20.292  31.945  10.079
52362W        W17622  36.104  14.690   1.143
52363W        W17623  12.750  39.852  10.611
52364W        W17624   4.551  24.499  11.176
52365W        W17625   9.034  24.427   0.388
52366W        W17626  38.383  35.425  10.676
52367W        W17627  13.228  11.875   3.705
52368W        W17628  38.820  16.886   3.155
52369W        W17629  18.325  33.894   4.884
52370W        W17630  36.064  34.029   4.052
52371W        W17631  36.956  20.753   1.410
52372W        W17632  29.594  38.876  11.771
52373W        W17633  16.218  42.750   2.888
52374W        W17634  39.830   6.348  11.973
52375W        W17635  15.658  19.613   0.634
52376W        W17636  19.977  13.033  12.886
52377W        W17637  26.545  20.430   4.375
52378W        W17638  32.552  33.869  14.134
52379W        W17639  23.932  14.657  11.160
52380W        W17640  22.698  21.981   2.213
52381W        W17641   9.082  15.030  11.479
52382W        W17642  20.405  33.354   1.381
52383W        W17643  29.329  40.130   0.866
52384W        W17644  24.030  16.717   2.477
52385W        W17645   2.511  22.110   1.417
52386W        W17646  25.058  34.396  12.782
52387W        W17647  30.505  40.506  13.653
52388W        W17648  30.587  28.089  13.514
52389W        W17649   7.773   9.760  10.683
52390W        W17650  43.477  22.679   4.083
52391W        W17651  17.069  39.408  12.528
52392W        W17652   3.655  32.536   2.799
52393W        W17653  44.047  28.707   0.789
52394W        W17654  24.724  44.699  14.996
52395W        W17655  14.567  10.179  10.976
52396W        W17656  10.388  23.242   0.933
52397W        W17657   3.459  34.375   4.209
52398W        W17658  11.900   3.261   4.123
52399W        W17659  15.784  34.906   3.167
52400W        W17660  24.677  17.875   0.098
52401W        W17661   9.266   8.919  12.144
52402W        W17662  10.354   5.747  12.415
52403W        W17663  26.420  15.282   5.147
52404W        W17664  36.512  10.148  10.239
52405W        W17665  38.930  23.058   0.059
52406W        W17666  26.947  34.772  13.845
52407W        W17667   5.359  40.832   2.857
52408W        W17668  40.733  13.611   1.819
52409W        W17669  24.653  31.350  12.402
52410W        W17670  18.753  19.477   0.857
52411W        W17671  30.105  32.920  13.343
52412W        W17672  14.792   1.967   2.892
52413W        W17673  14.778  34.618   0.414
52414W        W17674   2.230   6.666  11.570
52415W        W17675  22.447  34.225  12.478
52416W        W17676  38.546  29.455  11.594
52417W        W17677  15.862  38.614   3.181
52418W        W17678   7.932   6.192   0.888
52419W        W17679  40.844  22.990   5.044
52420W        W17680   2.667  37.040  12.827
52421W        W17681  23.204  41.993   3.272
52422W        W17682  17.506  36.390   0.938
52423W        W17683   4.848  21.593   3.676
52424W        W17684  17.809  26.141  13.776
52425W        W17685  25.693  33.580  10.623
52426W        W17686  39.825   5.673   0.910
52427W        W17687   3.034  12.083  12.966
52428W        W17688  23.584  19.036   2.739
52429W        W17689  17.176   9.462  14.861
52430W        W17690  15.280  25.700   1.229
52431W        W17691  31.430   7.966   0.212
52432W        W17692  28.579  10.668   3.608
52433W        W17693   8.507  15.985   0.805
52434W        W17694   3.318   7.686   0.134
52435W        W17695  19.206   1.859   0.468
52436W        W17696  38.834  19.495  13.565
52437W        W17697  11.638  43.333   0.406
52438W        W17698  30.126  21.132  13.291
52439W        W17699  31.184  40.875   0.975
52440W        W17700  16.630  32.318   2.276
52441W        W17701  15.295  13.063   4.952
52442W        W17702  13.710  30.435   2.891
52443W        W17703   5.158  29.989   0.737
52444W        W17704  43.900  43.982  12.418
52445W        W17705  42.901  31.417   5.016
52446W        W17706  15.631  17.203   4.956
52447W        W17707  31.078  13.054   0.846
52448W        W17708   0.597  23.023   2.427
52449W        W17709  40.846  22.389   3.872
52450W        W17710   2.360  12.724  10.770
52451W        W17711  40.344  37.539  11.040
52452W        W17712  15.312  17.229   3.197
52453W        W17713  25.153   1.275  12.974
52454W        W17714  44.866  13.206   1.740
52455W        W17715  43.850  31.512   4.647
52456W        W17716  18.031  41.528   3.852
52457W        W17717  34.038  36.852   2.766
52458W        W17718  30.122   4.341   4.075
52459W        W17719  19.302  38.931  14.353
52460W        W17720   5.234  27.948   4.559
52461W        W17721  27.197  40.888  13.944
52462W        W17722  19.873  40.999   0.330
52463W        W17723  44.459   6.270  13.925
52464W        W17724   1.246  27.512   1.853
52465W        W17725  23.119  33.636  13.981
52466W        W17726  17.485  34.913  13.910
52467W        W17727  24.159  42.318  10.575
52468W        W17728   3.396   9.324   1.900
52469W        W17729  42.747   4.259  10.725
52470W        W17730  44.223  17.724   2.199
52471W        W17731  10.854  25.245   3.626
52472W        W17732  33.616  31.876   0.476
52473W        W17733  41.309  39.441   4.135
52474W        W17734   4.172  32.586   2.766
52475W        W17735  20.739  19.668  12.950
52476W        W17736  38.064  30.689   3.106
52477W        W17737  28.084  20.186  11.003
52478W        W17738  37.035  13.726  12.529
52479W        W17739  34.851  10.633   3.654
52480W        W17740  35.676  18.099   1.749
52481W        W17741  35.419  17.814  13.951
52482W        W17742  29.301  12.661   4.555
52483W        W17743  15.748  10.007   1.984
52484W        W17744  39.614  42.573   0.878
52485W        W17745   8.771  34.174   0.938
52486W        W17746   2.327  13.677   2.415
52487W        W17747  21.591   7.138   2.829
52488W        W17748  13.267   3.467   3.174
52489W        W17749  13.744  17.072  10.635
52490W        W17750  25.121  11.763   0.388
52491W        W17751  33.894  18.336   2.939
52492W        W17752  34.014  18.822  14.058
52493W        W17753  44.734  44.119  14.030
52494W        W17754  19.791   3.433  13.974
52495W        W17755   7.096  10.969  11.089
52496W        W17756   1.548  23.514   3.635
52497W        W17757   5.895  37.010  13.930
52498W        W17758  14.278  37.149  13.081
52499W        W17759  26.563  23.112  13.407
52500W        W17760  37.386  40.379   3.615
52501W        W17761  33.483   4.277  10.623
52502W        W17762  11.707  15.824  13.741
52503W        W17763  23.308   1.794   0.782
52504W        W17764  26.995  31.926   2.380
52505W        W17765   7.315  14.822   0.798
52506W        W17766   1.755  35.152   0.397
52507W        W17767  41.339  26.979  12.037
52508W        W17768  25.433  43.958   2.445
52509W        W17769  20.641  42.825  10.862
52510W        W17770  11.257   7.898  13.757
52511W        W17771  37.308  15.325  11.082
52512W        W17772  43.369   1.191   1.220
52513W        W17773   3.451  21.607  13.060
52514W        W17774   0.537  26.503   2.293
52515W        W17775  26.590  13.331   0.001
52516W        W17776   9.158   8.583  11.064
52517W        W17777  11.637  15.186  12.393
52518W        W17778  19.961  41.347   1.354
52519W        W17779  43.721  31.495  14.418
52520W        W17780   7.316  26.237  13.805
52521W        W17781  38.629  32.619   3.662
52522W        W17782  15.305  32.283   3.582
52523W        W17783  31.551  44.141   1.443
52524W        W17784  14.815  17.243  14.712
52525W        W17785  26.206   6.979   2.253
52526W        W17786  20.641  36.200  10.205
52527W        W17787  13.660   2.166   4.803
52528W        W17788  15.767  32.373   4.690
52529W        W17789   3.945  24.534   1.822
52530W        W17790  43.395   2.867   1.796
52531W        W17791  30.451  37.461  12.422
52532W        W17792  44.454  42.619   2.072
52533W        W17793  18.772  35.886   3.221
52534W        W17794  34.106  35.746   3.622
52535W        W17795  22.470  28.591  10.717
52536W        W17796  15.512  32.006   2.270
52537W        W17797   6.937  41.023  13.877
52538W        W17798  37.145   8.394   1.580
52539W        W17799  36.814  27.607   3.593
52540W        W17800  44.193   2.676   3.352
52541W        W17801  44.238  44.533   2.351
52542W        W17802   2.029  35.814   3.915
52543W        W17803  13.910   7.301  12.318
52544W        W17804   5.996  44.457  11.979
52545W        W17805  31.536  12.424   1.309
52546W        W17806   6.726  30.558  13.352
52547W        W17807  44.295  31.508   4.122
52548W        W17808  41.326  16.282  13.321
52549W        W17809  39.047  28.479   1.959
52550W        W17810  33.881  39.379   1.298
52551W        W17811  16.354  26.385  11.707
52552W        W17812  31.927  19.985   1.782
52553W        W17813   5.822  43.055  11.352
52554W        W17814   0.272  27.048  14.020
52555W        W17815  38.900  33.790  10.720
52556W        W17816  13.327  22.518   4.875
52557W        W17817   7.410  28.193   2.333
52558W        W17818  33.025  20.057   0.975
52559W        W17819  25.058   8.606   4.570
52560W        W17820  31.909  27.100  13.420
52561W        W17821  42.325  28.111  13.979
52562W        W17822  42.698  22.509  13.988
52563W        W17823   0.480  16.126   1.279
52564W        W17824  37.603  20.343  14.756
52565W        W17825  41.124  25.692  10.677
52566W        W17826  35.215  42.828  13.475
52567W        W17827  30.657   8.556  11.371
52568W        W17828  24.060   8.383  13.792
52569W        W17829  26.670  25.165   4.300
52570W        W17830  28.426  37.787   2.671
52571W        W17831  40.908  12.003   4.954
52572W        W17832   0.500  31.416   4.734
52573W        W17833  43.445   7.400  10.652
52574W        W17834  26.640  13.373   2.458
52575W        W17835  43.353  11.786  12.527
52576W        W17836  12.333  35.780  13.203
52577W        W17837  33.638  12.619  11.683
52578W        W17838  24.279  16.675   4.915
52579W        W17839  38.751  17.216  11.514
52580W        W17840   6.513  38.796  11.237
52581W        W17841  40.368  10.101   1.410
52582W        W17842  32.572  37.554  10.815
52583W        W17843  30.506  26.276  14.332
52584W        W17844   4.952  12.542  10.832
52585W        W17845  42.381  33.499  14.965
52586W        W17846   6.410  33.191   3.101
52587W        W17847   6.470  38.164  13.568
52588W        W17848  33.414  43.286  14.828
52589W        W17849  10.846  41.047   1.447
52590W        W17850  32.491  41.309  12.849
52591W        W17851  11.845  31.600  11.053
52592W        W17852  16.470  21.721   4.586
52593W        W17853  25.167  44.034   5.139
52594W        W17854  12.370  11.291  14.009
52595W        W17855  40.363  41.125  12.040
52596W        W17856  20.193  24.358   0.856
52597W        W17857   4.400  34.750   1.246
52598W        W17858   1.643  17.183  12.589
52599W        W17859   6.468  24.926   1.407
52600W        W17860  33.971   0.456   4.702
52601W        W17861  36.400  23.042  11.483
52602W        W17862  21.016  31.092  14.826
52603W        W17863  19.577  44.722  12.884
52604W        W17864  38.473   8.812  10.755
52605W        W17865   2.385   1.302   4.579
52606W        W17866  18.164   8.932  13.105
52607W        W17867   1.658  15.636  10.941
52608W        W17868  22.115   5.333  13.099
52609W        W17869   9.346  14.191   4.028
52610W        W17870  43.134  17.860   4.805
52611W        W17871  24.708  39.125  13.969
52612W        W17872  24.615  42.888   3.216
52613W        W17873   1.121   3.569  10.973
52614W        W17874  21.430   0.264   4.599
52615W        W17875  32.871  12.524   4.179
52616W        W17876  19.783  37.038  14.432
52617W        W17877  19.008  36.364   2.291
52618W        W17878  42.261  12.184  13.440
52619W        W17879  31.912  34.166  11.472
52620W        W17880  41.273   5.671   3.163
52621W        W17881  24.870  41.995   2.763
52622W        W17882  11.785  18.025   1.851
52623W        W17883   9.439  15.205   4.068
52624W        W17884  37.616  31.970   3.069
52625W        W17885  22.078  16.114  13.004
52626W        W17886  43.395  27.455   2.162
52627W        W17887  30.375   6.767  14.407
52628W        W17888  30.618  31.627   2.733
52629W        W17889   2.301  20.514  14.716
52630W        W17890  23.106  14.065  13.386
52631W        W17891  34.988  30.438   2.748
52632W        W17892   2.432  19.574  13.820
52633W        W17893  43.809  42.022  13.390
52634W        W17894  18.867  16.229   0.031
52635W        W17895   9.349  25.711  10.238
52636W        W17896   7.375  36.439  14.931
52637W        W17897  24.685  10.807  13.503
52638W        W17898  40.265  31.639  10.772
52639W        W17899   3.783   2.333   4.896
52640W        W17900  32.276  25.180  13.641
52641W        W17901  21.784  18.036   4.616
52642W        W17902  33.318   5.290  13.511
52643W        W17903  41.934  41.788  13.948
52644W        W17904  43.431  10.769   4.578
52645W        W17905  14.359  21.749  14.245
52646W        W17906  17.377  29.517   2.407
52647W        W17907  12.198  23.169   0.825
52648W        W17908   9.344   8.249  12.937
52649W        W17909  20.882  33.196  13.607
52650W        W17910  26.026  42.796  12.504
52651W        W17911   0.231  24.997  14.812
52652W        W17912  43.177  43.936  13.374
52653W        W17913  19.088  17.380  10.626
52654W        W17914   1.392  12.528   2.498
52655W        W17915  33.125  44.063   2.269
52656W        W17916  40.605  10.198   4.823
52657W        W17917   9.808   8.318   3.211
52658W        W17918   2.898  44.466   2.784
52659W        W17919  28.282  32.453   4.663
52660W        W17920  39.508  25.037   1.992
52661W        W17921  28.552  36.672  11.882
52662W        W17922  42.995  37.116  14.312
52663W        W17923  25.988  16.550   2.177
52664W        W17924  10.169  36.352   3.608
52665W        W17925   5.935   2.630   0.890
52666W        W17926  32.481  33.122   4.671
52667W        W17927  13.251  33.277  13.828
52668W        W17928   7.002   7.795   3.623
52669W        W17929   1.767  14.054   4.546
52670W        W17930  13.089  38.912   3.826
52671W        W17931  37.088   0.945   4.454
52672W        W17932  28.596   6.973   3.355
52673W        W17933  23.208   2.359  10.701
52674W        W17934   3.353   0.706   2.331
52675W        W17935  10.775   1.825  14.085
52676W        W17936   7.335  14.426   5.256
52677W        W17937  40.124  23.941  13.890
52678W        W17938  37.056  43.106  12.326
52679W        W17939  14.820  15.770   0.444
52680W        W17940  40.365  21.345   1.870
52681W        W17941  34.414   4.391  10.225
52682W        W17942   8.364  24.994   3.309
52683W        W17943  25.831  37.806   0.843
52684W        W17944  10.685  20.703   1.294
52685W        W17945  41.901  10.557   4.575
52686W        W17946  11.182  43.764  11.189
52687W        W17947  35.105   5.870  12.376
52688W        W17948  25.648  26.640   1.167
52689W        W17949   5.303  32.450   2.940
52690W        W17950   3.637  20.639   3.819
52691W        W17951  26.260  30.006  14.927
52692W        W17952  44.486  14.626  11.531
52693W        W17953  28.921  43.877  13.290
52694W        W17954  25.147  43.440   2.860
52695W        W17955  19.529   5.341  11.164
52696W        W17956   4.919  42.127  11.059
52697W        W17957  42.593  31.018  11.657
52698W        W17958   3.484  30.582  11.063
52699W        W17959  22.657  41.816   4.010
52700W        W17960  32.872  23.488   0.934
52701W        W17961  18.302  35.344   0.298
52702W        W17962  27.676  43.737  14.451
52703W        W17963  43.586  19.529   2.943
52704W        W17964  10.610  44.403   2.385
52705W        W17965  20.972  30.130  12.891
52706W        W17966  15.538  43.251   2.196
52707W        W17967  33.555  19.152  10.203
52708W        W17968  40.382   3.504   0.148
52709W        W17969  42.502  43.210  10.999
52710W        W17970  40.297  30.350   5.026
52711W        W17971  43.758  33.481   3.204
52712W        W17972  13.333  14.808   3.643
52713W        W17973  20.273   5.359  12.014
52714W        W17974  39.939   8.188   2.236
52715W        W17975   6.411  17.601   4.112
52716W        W17976  20.136  11.859   1.441
52717W        W17977   9.953  29.250  12.931
52718W        W17978   9.862  11.512   0.780
52719W        W17979  31.169  14.158  12.102
52720W        W17980  20.112  43.211   1.481
52721W        W17981  37.452   6.771  11.593
52722W        W17982  27.003  33.988  10.743
52723W        W17983  18.994   9.172  13.053
52724W        W17984  41.518  34.838  13.378
52725W        W17985   0.235   8.203  11.736
52726W        W17986  40.342  38.058  10.925
52727W        W17987   1.473  23.233   2.330
52728W        W17988   6.503  13.331  12.865
52729W        W17989  40.529  15.888  13.925
52730W        W17990  25.562  31.467  12.085
52731W        W17991  25.056  35.191  11.414
52732W        W17992  36.721   7.162  14.978
52733W        W17993  18.315  31.173   4.375
52734W        W17994  22.611  37.997  14.781
52735W        W17995   0.106  41.004  11.520
52736W        W17996  29.502  30.692  12.526
52737W        W17997  30.891  20.764   2.274
52738W        W17998  24.795   4.153   0.720
52739W        W17999   6.762  31.855   0.377
52740W        W18000  33.074  38.605  11.626
52741W        W18001  40.704  17.567  14.543
52742W        W18002  30.657   4.906  12.522
52743W        W18003  21.027  31.945  13.287
52744W        W18004  27.237  34.101   1.748
52745W        W18005   0.408  28.521  13.514
52746W        W18006  11.036  41.428  10.894
52747W        W18007  16.307  31.491  10.658
52748W        W18008  17.300  25.030   2.825
52749W        W18009   5.708  18.231   1.308
52750W        W18010  35.061  27.937  12.449
52751W        W18011  28.553  27.284   1.805
52752W        W18012  19.523  23.472   4.242
52753W        W18013  36.986   0.412  13.915
52754W        W18014  42.763   1.812   1.869
52755W        W18015  23.610  13.378  14.284
52756W        W18016  20.101  22.559   3.418
52757W        W18017  39.977  24.632   4.287
52758W        W18018  37.756  31.357   1.731
52759W        W18019  19.546  14.513  12.900
52760W        W18020  23.702  36.645   0.841
52761W        W18021  16.286  17.834   1.767
52762W        W18022  17.153   6.739   4.198
52763W        W18023  34.999  28.021   4.549
52764W        W18024   5.458  25.199  11.588
52765W        W18025  34.838  17.822   2.978
52766W        W18026  18.826  34.916  13.086
52767W        W18027  21.672   8.354   5.130
52768W        W18028  29.015  22.706   3.237
52769W        W18029  31.551  29.097   1.607
52770W        W18030  42.403  27.479   0.888
52771W        W18031  13.254  15.395  10.441
52772W        W18032  17.094  20.194   0.963
52773W        W18033   6.970  13.297  10.756
52774W        W18034  31.605   3.782   4.231
52775W        W18035  32.870  21.357   2.814
52776W        W18036  20.053  39.130  13.950
52777W        W18037  19.626  40.587  10.404
52778W        W18038  18.419  10.244  11.362
52779W        W18039   1.031   1.451   4.283
52780W        W18040  22.425  23.591  10.725
52781W        W18041  36.012  25.346   1.425
52782W        W18042  36.022  31.540   2.872
52783W        W18043  19.462  28.159   3.652
52784W        W18044  23.007  16.711  14.407
52785W        W18045   4.334  24.491  12.873
52786W        W18046  32.874  32.242   0.712
52787W        W18047  22.291  27.807  11.667
52788W        W18048   8.363  28.683  13.477
52789W        W18049  13.206  29.371   5.061
52790W        W18050  24.845  33.586   3.603
52791W        W18051  12.439  42.471   2.033
52792W        W18052  39.019  28.052   4.939
52793W        W18053  22.397  24.012   3.208
52794W        W18054  40.042   2.734   4.620
52795W        W18055  12.799  13.694  13.461
52796W        W18056  38.077  39.773   0.432
52797W        W18057  22.168  15.840   4.736
52798W        W18058  16.311  39.055  14.347
52799W        W18059  34.584   8.764  13.687
52800W        W18060  26.615  28.659   4.249
52801W        W18061  36.791  40.896  10.550
52802W        W18062   1.669  32.707   1.234
52803W        W18063  30.872  22.948  11.432
52804W        W18064  31.148   3.806   0.852
52805W        W18065  11.760  40.878   4.408
52806W        W18066   0.451  18.911   4.778
52807W        W18067  12.654   5.126   0.456
52808W        W18068   8.984   7.409   4.105
52809W        W18069  20.371  41.812  11.653
52810W        W18070  12.141  44.240   4.081
52811W        W18071   1.850  41.587  12.934
52812W        W18072  18.701  14.654  14.385
52813W        W18073   9.681  16.651   1.232
52814W        W18074  35.880   8.451   1.258
52815W        W18075  13.906   8.249  12.461
52816W        W18076  11.843  22.641  10.817
52817W        W18077  28.977  26.070   4.288
52818W        W18078  44.431   8.987   3.840
52819W        W18079  23.507  27.661   3.237
52820W        W18080   6.897  26.654  14.971
52821W        W18081  26.293   4.377  11.629
52822W        W18082  10.064  44.547  12.258
52823W        W18083  17.107  12.946  14.380
52824W        W18084  41.573  30.049  11.071
52825W        W18085   0.718  29.476   1.337
52826W        W18086  35.869  32.694   3.835
52827W        W18087  29.882  29.144  13.510
52828W        W18088   4.716  42.500   1.287
52829W        W18089   0.893  30.890  10.829
52830W        W18090  34.991  23.640  10.629
52831W        W18091  32.127  34.493   0.369
52832W        W18092  22.186  40.272   1.621
52833W        W18093  43.008  33.391  12.540
52834W        W18094  15.837  25.963  10.525
52835W        W18095   8.433   2.387  13.647
52836W        W18096  23.388  18.065  13.505
52837W        W18097  16.176  25.826   4.289
52838W        W18098  36.635   1.705   0.855
52839W        W18099   4.420  41.543   1.159
52840W        W18100   8.690  38.789   2.100
52841W        W18101  21.301  33.616   3.255
52842W        W18102  38.259   9.020   1.449
52843W        W18103   9.381   8.434  14.380
52844W        W18104  44.854  21.261   1.374
52845W        W18105  43.619  41.561   3.121
52846W        W18106  15.603   0.361  12.922
52847W        W18107  40.503  29.427  11.401
52848W        W18108  10.803  12.079   0.445
52849W        W18109   9.211  20.218  10.581
52850W        W18110  12.404  29.403  14.024
52851W        W18111  44.566  33.058   3.255
52852W        W18112   8.741   7.396   1.612
52853W        W18113  43.350  29.897   0.024
52854W        W18114  14.403  35.659  10.879
52855W        W18115  34.031  35.819  13.856
52856W        W18116  28.972   7.266  13.331
52857W        W18117  33.989   0.679   0.652
52858W        W18118  18.084  35.565  14.309
52859W        W18119  34.131  24.306   0.654
52860W        W18120  44.722  17.560   4.952
52861W        W18121  13.551  16.912  11.105
52862W        W18122  33.181  40.014   2.252
52863W        W18123  12.851  38.946   0.288
52864W        W18124   1.825  34.836  13.939
52865W        W18125  28.557  41.156  14.124
52866W        W18126   2.941  26.036  12.586
52867W        W18127  41.944  41.197   4.125
52868W        W18128  18.082  17.875  13.451
52869W        W18129  37.965   8.581   1.911
52870W        W18130  36.085  13.245  11.176
52871W        W18131  27.655  40.132   1.383
52872W        W18132  21.496  43.971   1.738
52873W        W18133  34.532   7.780   2.279
52874W        W18134  40.587   5.697  14.347
52875W        W18135  40.049   3.973   5.649
52876W        W18136  21.809  37.384   1.182
52877W        W18137  17.459  19.021   5.301
52878W        W18138   2.784  28.226  10.561
52879W        W18139  19.599   6.235  13.546
52880W        W18140  16.087  29.616   2.755
52881W        W18141  31.573  39.473  13.647
52882W        W18142   9.069  44.468  11.150
52883W        W18143  13.941  35.990  14.854
52884W        W18144  19.553  39.192  12.497
52885W        W18145  19.114  32.381  10.848
52886W        W18146  29.921  43.100  11.162
52887W        W18147  34.782  33.612  13.288
52888W        W18148   1.927   9.677  11.915
52889W        W18149  27.954  21.086  12.080
52890W        W18150  19.590  32.309   4.936
52891W        W18151   3.548  29.195  14.305
52892W        W18152  24.146  17.163   4.681
52893W        W18153  43.990  15.285   3.615
52894W        W18154   6.186  37.415  14.317
52895W        W18155  33.203  20.093  12.985
52896W        W18156  37.411  33.864  13.962
52897W        W18157   8.254  37.322   4.050
52898W        W18158  32.229  37.691   3.519
52899W        W18159  44.528  31.575  11.708
52900W        W18160  19.133  37.455   2.173
52901W        W18161   8.283  44.852   4.548
52902W        W18162  42.563  30.546   3.875
52903W        W18163  37.165  43.269  11.077
52904W        W18164  36.000  22.448   5.246
52905W        W18165  11.269  37.476   0.453
52906W        W18166  16.383  37.891   4.336
52907W        W18167  26.524  27.380  14.262
52908W        W18168  28.061  23.227   3.199
52909W        W18169  21.163  30.087   3.764
52910W        W18170  30.183  13.017  11.918
52911W        W18171   8.138  31.026  10.614
52912W        W18172  12.327  22.456  10.759
52913W        W18173   4.382  44.894  12.745
52914W        W18174   8.477   7.200   0.027
52915W        W18175  23.178  24.434  12.927
52916W        W18176   7.373  33.683  14.431
52917W        W18177  39.785  25.675   4.644
52918W        W18178   1.918  10.964   2.409
52919W        W18179  44.013  23.636  10.762
52920W        W18180  38.087  32.693   1.345
52921W        W18181  36.553   2.659  11.143
52922W        W18182   6.722  33.441  12.810
52923W        W18183   4.782   2.749  11.508
52924W        W18184  18.642  33.843  12.431
52925W        W18185  35.105  27.726   3.338
52926W        W18186  27.978  17.837   5.031
52927W        W18187   4.255   8.294   3.768
52928W        W18188  22.987  22.878  13.335
52929W        W18189  40.030  34.855  12.400
52930W        W18190   0.849  13.622   0.993
52931W        W18191  21.669  34.883   1.861
52932W        W18192  27.650  10.723  11.406
52933W        W18193   1.693  10.708  14.035
52934W        W18194  27.123  23.299  12.706
52935W        W18195   2.244  13.176  10.578
52936W        W18196   0.177   6.395  14.513
52937W        W18197   1.533  11.314   2.682
52938W        W18198  30.438  24.031  13.915
52939W        W18199  30.462  22.748  14.973
52940W        W18200  12.062  15.317   1.124
52941W        W18201  20.537  10.169  14.391
52942W        W18202  36.511  24.158   2.039
52943W        W18203   8.684  15.441  11.581
52944W        W18204  33.905  26.568   0.067
52945W        W18205  10.294   4.509   4.099
52946W        W18206  36.001  23.291  11.190
52947W        W18207  19.086  16.783  14.050
52948W        W18208   6.178  25.116   2.419
52949W        W18209   1.725  20.104  14.052
52950W        W18210  42.949  24.204  13.495
52951W        W18211  28.692  44.916   1.425
52952W        W18212  26.166  44.112   3.227
52953W        W18213   4.744  31.055   3.626
52954W        W18214  36.950  18.834   1.137
52955W        W18215  17.194  13.212  12.410
52956W        W18216  16.465  27.552  11.501
52957W        W18217  13.811  12.999   0.474
52958W        W18218  21.205  43.937  12.880
52959W        W18219   5.490   2.851   4.721
52960W        W18220  37.354  42.703  12.459
52961W        W18221  10.891  41.453   4.110
52962W        W18222  14.541  30.521  13.586
52963W        W18223  30.176  35.736   3.407
52964W        W18224  16.300   8.283   4.557
52965W        W18225   4.372   4.831   2.690
52966W        W18226   7.727  32.708   1.840
52967W        W18227   5.489  13.086   1.570
52968W        W18228  14.730   2.740  12.274
52969W        W18229  39.070  30.206  14.925
52970W        W18230  41.833  31.574   0.244
52971W        W18231   2.645  10.709  10.247
52972W        W18232  29.843  15.143   3.389
52973W        W18233  28.487  23.592  14.730
52974W        W18234  20.593  31.468   0.905
52975W        W18235   7.723  14.142  11.773
52976W        W18236  43.779  33.452  13.198
52977W        W18237   1.282  12.860   4.007
52978W        W18238  25.691  21.459  14.339
52979W        W18239  35.644  18.111   4.223
52980W        W18240  32.424  24.570   5.656
52981W        W18241  44.479  28.620  12.495
52982W        W18242  13.927  40.787  14.886
52983W        W18243  33.846   7.264  14.082
52984W        W18244   3.800  27.929  11.460
52985W        W18245  24.006   4.378  13.148
52986W        W18246  32.036   5.660  14.110
52987W        W18247  24.170   9.604  14.315
52988W        W18248  35.424  42.033  11.168
52989W        W18249  42.256  34.973   3.894
52990W        W18250   2.707  21.999  12.996
52991W        W18251   7.976  24.181   0.235
52992W        W18252  26.965  40.843  14.881
52993W        W18253  26.460   9.880  12.471
52994W        W18254  12.274  40.893  13.064
52995W        W18255  42.570   0.050   4.630
52996W        W18256  38.801  19.408  12.052
52997W        W18257   9.169  13.327  11.895
52998W        W18258  34.008   0.169  14.733
52999W        W18259  26.063  43.409   3.106
53000W        W18260   8.095  14.935   1.272
53001W        W18261  41.441  16.077   4.682
53002W        W18262  32.975  13.187  11.884
53003W        W18263  20.272  21.317   4.419
53004W        W18264   6.671   6.317  11.508
53005W        W18265   4.158   9.314  13.434
53006W        W18266  21.193  32.657   2.769
53007W        W18267  44.387   4.490   0.497
53008W        W18268  36.557  15.062  10.419
53009W        W18269  31.879   5.427   3.147
53010W        W18270  21.032  12.788   1.715
53011W        W18271  41.006  35.729  11.251
53012W        W18272  38.342   7.600   4.874
53013W        W18273  42.038   5.907   4.056
53014W        W18274  20.782  32.891  14.051
53015W        W18275  33.864  20.680  14.857
53016W        W18276  32.553   0.996   2.728
53017W        W18277  38.335  15.518  14.522
53018W        W18278  21.641   0.079  12.427
53019W        W18279  36.279  12.767   3.158
53020W        W18280  37.866  28.469   0.164
53021W        W18281  42.107   2.700  12.805
53022W        W18282  10.744  39.285  11.172
53023W        W18283  21.385  35.470   5.355
53024W        W18284  27.704   6.353   4.110
53025W        W18285  29.620  35.399  10.443
53026W        W18286  30.010  14.513   2.232
53027W        W18287  11.274   9.822   1.729
53028W        W18288  36.326   8.122  13.231
53029W        W18289   0.019   7.422   2.677
53030W        W18290  30.707   0.397   0.826
53031W        W18291  18.547  26.790  13.157
53032W        W18292  40.325  31.932  12.993
53033W        W18293  18.336  33.575   2.634
53034W        W18294  23.558  44.459  13.138
53035W        W18295  24.556  14.677   1.945
53036W        W18296   8.094   2.961  10.824
53037W        W18297  20.412  36.795   4.012
53038W        W18298  38.169  12.446   0.385
53039W        W18299   7.374   7.295  14.017
53040W        W18300   3.957  26.411   0.388
53041W        W18301  37.797   5.911  13.002
53042W        W18302  34.461  11.149  11.612
53043W        W18303  18.106  23.130  12.899
53044W        W18304  31.390  11.815  11.674
53045W        W18305  16.509  30.006   1.512
53046W        W18306  12.586  23.439   2.457
53047W        W18307  12.647  28.981   2.143
53048W        W18308  11.768  33.555  12.659
53049W        W18309  40.645   4.489  11.770
53050W        W18310  13.792  22.698  12.372
53051W        W18311   0.994  13.918  12.322
53052W        W18312   5.131  18.264   0.320
53053W        W18313  10.348  40.784   4.112
53054W        W18314  24.498  25.625  14.949
53055W        W18315  24.928  32.378  11.649
53056W        W18316  26.594  13.667  11.266
53057W        W18317  18.580  44.853  10.658
53058W        W18318  27.675   2.311   0.709
53059W        W18319  37.493  39.635  10.625
53060W        W18320  13.122  19.145  12.769
53061W        W18321  12.657  23.612  14.418
53062W        W18322   0.381  27.101  13.050
53063W        W18323  19.171  20.527  10.155
53064W        W18324  29.906  10.519   0.413
53065W        W18325  20.814  22.045   0.978
53066W        W18326  40.049  15.072  11.531
53067W        W18327   4.435   0.532  13.946
53068W        W18328  32.267   9.876   4.589
53069W        W18329  16.873   6.729  12.433
53070W        W18330  41.248   8.303   0.496
53071W        W18331  25.323  31.222  11.062
53072W        W18332  43.053  31.931   1.802
53073W        W18333  23.482  34.428   3.653
53074W        W18334  30.028  16.670  13.290
53075W        W18335  23.134  26.195   2.318
53076W        W18336  26.607  11.499   0.241
53077W        W18337  42.421  41.980  10.514
53078W        W18338  27.604  38.009   1.352
53079W        W18339  33.393  13.381  12.138
53080W        W18340  22.117   8.460   0.251
53081W        W18341  28.648  42.207   0.944
53082W        W18342   6.642  39.836  14.288
53083W        W18343   3.208   9.106   3.208
53084W        W18344  11.266  14.869  13.089
53085W        W18345  26.687  41.676  11.090
53086W        W18346   4.944  37.310   0.276
53087W        W18347  34.932   8.761   3.773
53088W        W18348  10.677  15.231   1.870
53089W        W18349  26.778  21.729   1.232
53090W        W18350  37.444  40.013  12.092
53091W        W18351  22.572  31.599  10.860
53092W        W18352  17.689   0.941  14.741
53093W        W18353  16.394  38.125  13.416
53094W        W18354   0.571  43.437   0.513
53095W        W18355  32.441   9.663  10.769
53096W        W18356  29.643  17.664  12.077
53097W        W18357  10.974   9.414   1.881
53098W        W18358  34.802  41.479  12.139
53099W        W18359   4.904  42.751   2.748
53100W        W18360  28.157  25.138  10.729
53101W        W18361  25.226  23.371   2.761
53102W        W18362  38.547  30.997  13.514
53103W        W18363  31.090  21.768   2.405
53104W        W18364  19.161  27.509  10.637
53105W        W18365  22.679   1.246   1.889
53106W        W18366   5.921  15.177   3.599
53107W        W18367  25.625  23.202  13.631
53108W        W18368  42.941  10.777   0.198
53109W        W18369  28.061  41.560   1.789
53110W        W18370  16.039  12.655   0.436
53111W        W18371   5.845  33.876   0.957
53112W        W18372   9.798   7.721  14.463
53113W        W18373  19.332   3.450   3.312
53114W        W18374   1.472  42.050   4.741
53115W        W18375  20.941   2.072  11.174
53116W        W18376  44.391  20.644   0.145
53117W        W18377  14.065  19.421   3.712
53118W        W18378  34.971  40.889  10.198
53119W        W18379  26.573  15.103  13.119
53120W        W18380  30.576  18.771  13.111
53121W        W18381  27.893   6.669  14.930
53122W        W18382   0.744   7.469   4.136
53123W        W18383  21.249  14.241  12.019
53124W        W18384  17.298  40.064  14.223
53125W        W18385  14.592  26.620   3.185
53126W        W18386   5.082  16.768   2.395
53127W        W18387  43.416  15.574   2.095
53128W        W18388  38.617  38.553   0.537
53129W        W18389  33.004  28.057  14.585
53130W        W18390  38.582  43.827  14.329
53131W        W18391   1.801  12.114  13.285
53132W        W18392  14.864  14.388   3.184
53133W        W18393   9.251  19.236  14.560
53134W        W18394  15.627  13.002   3.174
53135W        W18395  42.739  27.187  13.900
53136W        W18396  13.118  16.713   2.790
53137W        W18397  38.583  40.500   3.591
53138W        W18398   3.372  13.709   2.379
53139W        W18399  32.972  20.796  11.517
53140W        W18400  32.689  13.783  10.745
53141W        W18401   0.523   0.698   4.219
53142W        W18402  24.076  10.890  14.329
53143W        W18403  37.473   3.427  12.636
53144W        W18404  37.805  18.737  14.294
53145W        W18405   9.884  22.365   3.789
53146W        W18406  34.348   5.788  12.121
53147W        W18407   6.993   4.242   0.683
53148W        W18408  24.654  21.561   3.284
53149W        W18409  42.438  11.340   0.834
53150W        W18410   9.698  33.938  14.810
53151W        W18411  38.457   9.545  13.451
53152W        W18412  36.680  10.011  11.763
53153W        W18413  38.410  25.478   2.691
53154W        W18414   8.980  40.820  13.612
53155W        W18415  34.359  11.446  13.984
53156W        W18416   2.827  15.347  10.470
53157W        W18417  29.679  28.172   0.789
53158W        W18418  17.110  10.216   3.608
53159W        W18419  14.329  37.705   2.300
53160W        W18420  26.092  37.418  12.591
53161W        W18421  25.330  39.061   2.020
53162W        W18422  16.325  21.706  12.448
53163W        W18423  34.888  43.937  12.559
53164W        W18424  20.092  23.619   1.343
53165W        W18425  43.024  36.348  14.972
53166W        W18426  40.329  27.994   3.424
53167W        W18427   2.041  21.690   4.596
53168W        W18428   4.612  31.505   2.824
53169W        W18429   3.162  30.399   1.270
53170W        W18430  33.499   5.557  11.705
53171W        W18431   9.089  37.164  11.642
53172W        W18432  26.200  33.609   3.077
53173W        W18433   4.246   2.118   1.895
53174W        W18434  41.447   1.524   3.141
53175W        W18435  41.013  38.056   3.277
53176W        W18436  25.968  20.673   3.064
53177W        W18437  24.916   6.391   3.712
53178W        W18438  17.584  11.350  11.504
53179W        W18439  11.664  31.279  11.468
53180W        W18440  29.568  19.039  14.026
53181W        W18441  44.496   0.802  12.044
53182W        W18442  15.659  32.620   4.251
53183W        W18443  10.376   7.635  13.011
53184W        W18444  31.207  10.022  12.969
53185W        W18445  15.540  19.380  13.090
53186W        W18446  20.572  10.753  12.088
53187W        W18447  40.673  14.357  11.648
53188W        W18448  31.344  39.102   0.912
53189W        W18449   4.369   1.172  13.321
53190W        W18450  27.104  21.504  14.990
53191W        W18451   2.825  17.336   0.859
53192W        W18452  29.426  31.925   1.721
53193W        W18453  31.654  21.428  14.945
53194W        W18454  43.259  21.615  14.529
53195W        W18455   5.769  26.960   2.233
53196W        W18456  27.064   2.005   2.724
53197W        W18457  19.477  13.022   1.053
53198W        W18458  23.141  43.467   0.889
53199W        W18459  11.127   6.832   1.662
53200W        W18460  40.695  33.785  12.066
53201W        W18461  30.869  36.578  12.489
53202W        W18462  19.133  30.544  11.452
53203W        W18463  31.920  15.219   4.601
53204W        W18464  38.238   4.294   0.414
53205W        W18465  31.527  12.339   2.385
53206W        W18466  40.409  43.587  10.785
53207W        W18467  27.019  44.168  14.782
53208W        W18468  18.540  16.893  11.092
53209W        W18469  27.589   8.325   4.901
53210W        W18470  18.657   4.129   2.804
53211W        W18471  35.784  29.849   1.838
53212W        W18472  11.217  37.238   3.198
53213W        W18473  23.640   9.367   4.681
53214W        W18474  24.800   5.307  13.551
53215W        W18475   7.740   0.617  14.979
53216W        W18476   5.444   4.588  12.080
53217W        W18477  30.673  17.585  13.794
53218W        W18478  14.177   2.854   1.406
53219W        W18479  31.589  43.957  11.598
53220W        W18480  35.997  39.420   3.332
53221W        W18481  11.368  41.010  14.908
53222W        W18482  33.997  11.451   0.347
53223W        W18483  27.234  23.600  11.412
53224W        W18484   8.794  22.614  13.220
53225W        W18485  31.590   4.063   0.836
53226W        W18486  21.470  10.770   2.387
53227W        W18487  33.503  32.163   2.669
53228W        W18488  21.103  36.805  12.582
53229W        W18489  17.013  42.502   3.318
53230W        W18490   6.293  31.096   0.663
53231W        W18491  10.242   3.699  12.558
53232W        W18492   1.978  13.811   1.244
53233W        W18493  10.140  24.853  13.082
53234W        W18494  15.550   7.338   2.291
53235W        W18495  13.680   9.861   0.430
53236W        W18496  36.772  40.857   3.751
53237W        W18497  25.513   7.987   4.488
53238W        W18498   9.315   4.862  14.814
53239W        W18499  35.085  33.996  13.465
53240W        W18500   1.766  25.837   1.422
53241W        W18501  38.503  31.484  14.005
53242W        W18502  39.953  17.226   3.181
53243W        W18503  38.289   5.463   0.729
53244W        W18504   4.817  10.098  11.204
53245W        W18505  42.285  22.966   2.185
53246W        W18506  12.820  11.162   2.154
53247W        W18507  21.196   4.034  10.245
53248W        W18508  40.829  19.785   4.300
53249W        W18509  11.242  33.043   1.120
53250W        W18510   7.179  18.018   1.321
53251W        W18511  19.020  37.275  13.484
53252W        W18512  38.103  29.938  13.995
53253W        W18513   0.915   7.251   2.662
53254W        W18514  36.438   8.686   5.263
53255W        W18515  40.258   0.823   2.652
53256W        W18516  17.844  27.890  12.589
53257W        W18517  30.941  13.546   0.758
53258W        W18518  27.210  14.184  14.326
53259W        W18519  37.131  16.059   2.354
53260W        W18520  33.079  32.938  11.016
53261W        W18521  25.752  29.539  10.982
53262W        W18522  18.656  13.752   4.431
53263W        W18523  29.766  21.013  12.607
53264W        W18524   0.129  14.218   1.248
53265W        W18525   9.783  14.087  12.031
53266W        W18526  26.772  13.122  12.446
53267W        W18527   8.595   9.544  12.121
53268W        W18528  26.250  40.077  14.323
53269W        W18529   5.895  11.799  14.871
53270W        W18530  19.807  44.677  11.141
53271W        W18531  26.610   0.975  12.902
53272W        W18532   2.251  25.193   2.624
53273W        W18533  19.575  41.897   3.706
53274W        W18534  24.494  28.189   3.550
53275W        W18535  26.477  14.208   2.791
53276W        W18536  19.846  44.083   2.787
53277W        W18537   7.500  41.928   4.921
53278W        W18538  10.337  33.046   0.995
53279W        W18539   2.378  33.836  14.964
53280W        W18540  24.147  29.867   2.623
53281W        W18541  36.995  36.980   2.365
53282W        W18542   1.843  18.394  13.403
53283W        W18543  22.910  34.655   2.371
53284W        W18544  13.219  41.353  14.461
53285W        W18545  16.992   2.542  11.733
53286W        W18546  19.454   8.290  12.863
53287W        W18547   8.269   1.356   1.687
53288W        W18548   3.703   2.386   1.697
53289W        W18549   2.538  41.300  10.261
53290W        W18550  30.602  44.885   2.382
53291W        W18551  14.818  42.561   1.798
53292W        W18552   3.365   9.128  10.618
53293W        W18553  10.172  27.383  11.030
53294W        W18554  15.148  23.052   1.368
53295W        W18555  28.745  10.078  14.200
53296W        W18556  25.569  12.366  11.698
53297W        W18557  37.179  32.652   1.550
53298W        W18558  25.562  13.320  14.707
53299W        W18559   4.854   4.949  12.541
53300W        W18560  33.194   0.031  13.984
53301W        W18561  11.742  28.735   3.289
53302W        W18562  15.183  41.996   2.360
53303W        W18563  37.798  27.179  12.507
53304W        W18564  11.081  21.240   0.514
53305W        W18565  12.577  29.331  14.538
53306W        W18566  35.454  27.932   1.005
53307W        W18567  22.480  18.000  10.646
53308W        W18568  44.465  30.626   1.734
53309W        W18569  12.952   5.594   3.997
53310W        W18570   3.905  24.892   4.120
53311W        W18571  10.077   9.832   1.134
53312W        W18572  42.230  22.463   2.321
53313W        W18573  25.739  43.169  13.318
53314W        W18574  20.220  28.557  13.522
53315W        W18575   7.005   6.665  12.777
53316W        W18576  24.533  19.681   2.914
53317W        W18577   7.284   2.761  12.119
53318W        W18578   7.442  34.419  13.859
53319W        W18579  35.353  11.770   4.617
53320W        W18580  43.872  14.191   4.561
53321W        W18581  43.490   7.216   4.503
53322W        W18582  10.802   7.922  13.095
53323W        W18583  12.249  28.176   1.638
53324W        W18584  16.494  16.453  11.822
53325W        W18585  43.116  38.781   2.170
53326W        W18586  41.981  34.550   3.690
53327W        W18587  34.748  17.964  12.925
53328W        W18588  12.134  36.092   1.451
53329W        W18589  15.391   3.294   0.462
53330W        W18590  38.501  32.124   3.557
53331W        W18591   1.980   1.840   2.912
53332W        W18592   7.265  22.000  11.158
53333W        W18593  30.068  25.229  13.069
53334W        W18594  34.081  24.041   1.893
53335W        W18595  40.415   3.943   0.458
53336W        W18596  16.676  16.088  11.516
53337W        W18597  15.311  44.119  13.176
53338W        W18598   0.962  16.851  11.962
53339W        W18599  22.109   7.295  14.541
53340W        W18600   0.939  39.687  12.126
53341W        W18601  23.664  36.632  13.937
53342W        W18602  35.040   0.210   4.006
53343W        W18603  28.106   9.749  14.845
53344W        W18604  10.562  11.479   4.625
53345W        W18605   0.413  42.819   1.624
53346W        W18606  27.366  20.496   4.132
53347W        W18607   9.668  44.787  12.963
53348W        W18608  25.056   3.241   3.191
53349W        W18609  10.675   5.191  12.920
53350W        W18610   4.073   6.789   4.642
53351W        W18611   6.682   8.782  10.777
53352W        W18612  10.419  19.838   3.170
53353W        W18613   3.787  33.921   1.279
53354W        W18614  14.583  36.794   4.290
53355W        W18615   3.468  26.760  13.796
53356W        W18616  16.254  27.573   2.367
53357W        W18617  22.444  43.388   1.363
53358W        W18618  12.813  12.359   1.961
53359W        W18619  21.231  30.554  11.619
53360W        W18620   4.446  25.339   1.610
53361W        W18621   2.855  42.419   4.789
53362W        W18622  28.258  37.033   0.274
53363W        W18623  29.162  39.845   3.671
53364W        W18624  43.161  37.129   5.133
53365W        W18625  36.435  34.513   4.066
53366W        W18626  21.533  17.714   0.825
53367W        W18627  27.947  11.608   4.258
53368W        W18628  25.174   2.902   5.507
53369W        W18629  15.909  13.573  14.824
53370W        W18630  17.416  25.347   4.180
53371W        W18631  41.037  41.584  13.972
53372W        W18632   2.563   2.234  13.872
53373W        W18633  24.148  33.341  13.953
53374W        W18634  44.047   0.059   1.460
53375W        W18635   4.808  28.613   4.134
53376W        W18636  27.916  11.639   0.996
53377W        W18637  29.516   5.373   3.879
53378W        W18638  41.678  41.566   3.850
53379W        W18639  12.027   1.405  11.548
53380W        W18640  14.667  27.787   1.756
53381W        W18641  44.336  25.560   0.731
53382W        W18642  15.384  31.051  11.593
53383W        W18643  26.155  26.477  12.528
53384W        W18644  13.747  41.026  13.382
53385W        W18645  11.309   5.073   1.746
53386W        W18646  15.731  41.769   2.323
53387W        W18647  10.192  12.635  11.267
53388W        W18648  12.924  41.844  14.809
53389W        W18649  10.133   3.451   0.918
53390W        W18650  12.845  40.120  11.944
53391W        W18651   3.740   9.709   1.852
53392W        W18652  36.915   1.282   0.743
53393W        W18653  15.103  22.284  13.036
53394W        W18654  37.756  32.668   3.312
53395W        W18655  27.176  41.365  11.856
53396W        W18656  24.464  16.843  11.084
53397W        W18657  43.532  31.507  12.806
53398W        W18658  38.357  16.245   0.262
53399W        W18659  11.793  12.924   4.052
53400W        W18660  27.864   8.801   2.944
53401W        W18661  36.990  31.112  14.952
53402W        W18662  15.686  29.147   2.787
53403W        W18663  38.343  12.369   4.136
53404W        W18664  27.845  19.609  13.538
53405W        W18665  39.365  38.016   4.513
53406W        W18666  12.694   6.271   2.258
53407W        W18667  30.553  18.781   3.259
53408W        W18668  35.175   9.148   4.046
53409W        W18669  32.922   0.118   3.697
53410W        W18670  23.814  24.397  14.523
53411W        W18671   5.784  20.655  12.457
53412W        W18672   3.760  42.755   4.722
53413W        W18673  43.303   8.151   0.961
53414W        W18674  27.984  34.463  11.097
53415W        W18675  44.894  27.980  13.806
53416W        W18676  37.864   3.322  14.485
53417W        W18677   6.694  36.545   4.330
53418W        W18678   4.847  28.919   1.177
53419W        W18679  31.611  19.727   4.118
53420W        W18680  15.056  29.323   0.386
53421W        W18681  29.393  25.464   4.169
53422W        W18682   6.796  39.341   1.357
53423W        W18683   4.440  29.437   4.207
53424W        W18684  27.912  42.943  14.010
53425W        W18685  11.088  16.882   1.249
53426W        W18686  22.837  20.236  14.999
53427W        W18687  22.221   0.547   4.134
53428W        W18688  35.354  34.497   1.769
53429W        W18689  14.800  37.812  12.758
53430W        W18690  20.733   9.399   4.348
53431W        W18691  36.809  18.054   3.814
53432W        W18692   6.686  18.822  13.978
53433W        W18693   8.150  12.193  11.478
53434W        W18694  38.489  39.614   3.038
53435W        W18695  27.664   9.255  14.369
53436W        W18696  37.933   1.863  13.160
53437W        W18697   4.055  17.726  13.470
53438W        W18698  36.214  44.000   0.019
53439W        W18699  23.074  14.186  12.396
53440W        W18700  11.698   1.940  14.379
53441W        W18701   4.859   7.964   1.472
53442W        W18702  23.669  24.255  13.563
53443W        W18703  30.013  25.116   0.931
53444W        W18704  29.641  29.293  11.830
53445W        W18705  29.125  13.916   2.216
53446W        W18706  40.782   0.792   4.489
53447W        W18707  25.646  36.913  14.285
53448W        W18708  18.343   8.623   1.065
53449W        W18709   7.141  41.051   0.535
53450W        W18710  13.649  37.608   4.956
53451W        W18711  39.440  30.787   4.183
53452W        W18712  10.828  19.781  11.551
53453W        W18713  23.091   2.722  11.051
53454W        W18714   9.897   6.760   2.258
53455W        W18715  13.703  23.725  11.989
53456W        W18716  13.209   8.061  14.306
53457W        W18717  24.922  19.825   3.654
53458W        W18718  39.428  13.952  13.430
53459W        W18719  13.803  39.110  12.395
53460W        W18720   1.412  17.886  11.913
53461W        W18721  29.727  42.309  12.573
53462W        W18722  35.841  10.098  10.702
53463W        W18723  19.530   1.303   2.801
53464W        W18724  36.355  16.585   0.029
53465W        W18725  30.577   8.427   0.828
53466W        W18726  21.043  11.971   5.175
53467W        W18727  27.455  25.552   2.231
53468W        W18728   6.928  38.556   2.785
53469W        W18729  33.997  13.719  14.681
53470W        W18730  38.545   9.665   4.286
53471W        W18731  17.122  31.433   2.673
53472W        W18732  40.409  21.240  13.966
53473W        W18733  44.970  37.444  12.474
53474W        W18734  23.163  16.664  13.527
53475W        W18735  28.928  42.446   4.537
53476W        W18736  25.980  36.415   9.689
53477W        W18737  34.948  20.676   1.817
53478W        W18738  13.577  28.604   3.215
53479W        W18739  14.309  26.572   0.478
53480W        W18740  31.194  34.672  11.093
53481W        W18741  21.680  32.564  11.822
53482W        W18742   2.912   7.229   2.304
53483W        W18743  11.187  10.966   5.063
53484W        W18744  34.521  33.085   0.786
53485W        W18745  25.676  38.309  14.888
53486W        W18746  39.377   0.813   1.748
53487W        W18747  42.808  16.215   1.223
53488W        W18748   9.340   4.646   3.289
53489W        W18749  30.930  21.826   3.340
53490W        W18750  12.333  30.536   0.288
53491W        W18751  30.758  24.990   2.176
53492W        W18752   9.772  21.502  12.906
53493W        W18753  36.419  41.943  12.674
53494W        W18754  41.277  38.149   4.669
53495W        W18755  20.282   6.271   3.577
53496W        W18756  28.056  37.562   0.761
53497W        W18757  15.230  35.640  12.904
53498W        W18758  38.153  22.628  12.899
53499W        W18759  10.241  18.258   1.892
53500W        W18760  13.377  23.692  10.425
53501W        W18761   2.707  22.959  12.055
53502W        W18762  21.129  17.824   1.581
53503W        W18763  14.501   8.694   3.565
53504W        W18764  33.368  23.722  13.314
53505W        W18765  37.006  24.650  10.947
53506W        W18766  17.643  40.465  13.762
53507W        W18767   8.339   1.249  10.543
53508W        W18768  41.361  39.287   2.142
53509W        W18769  25.612   9.667   4.600
53510W        W18770  17.855  29.465   3.195
53511W        W18771  19.508  40.265   2.154
53512W        W18772  39.385  34.602  12.584
53513W        W18773  24.763  22.645   4.091
53514W        W18774   7.399  23.444   3.703
53515W        W18775  17.856  24.111   0.446
53516W        W18776  15.212  15.692   3.629
53517W        W18777  36.860  30.011  14.431
53518W        W18778  24.475  33.810   3.316
53519W        W18779   0.814  27.949   1.336
53520W        W18780  21.586  37.083   5.062
53521W        W18781  34.885   9.180   0.725
53522W        W18782  11.354  33.515   4.612
53523W        W18783  39.727  40.252  13.585
53524W        W18784   6.849   2.637  14.787
53525W        W18785   3.249  12.044   0.960
53526W        W18786   9.106  38.045  10.623
53527W        W18787  28.953   9.122   1.873
53528W        W18788  27.746  28.009  11.321
53529W        W18789  44.412  24.618  14.935
53530W        W18790   8.963   7.803   1.842
53531W        W18791   2.943  23.890   4.066
53532W        W18792   9.624  35.736   3.614
53533W        W18793  11.551  38.896   0.509
53534W        W18794  24.669  35.429  14.023
53535W        W18795   2.210  42.744  11.257
53536W        W18796   1.738  18.719  14.176
53537W        W18797  21.186  32.485  10.562
53538W        W18798  26.722   5.542   5.015
53539W        W18799  31.968  14.543   0.760
53540W        W18800   7.951  17.759   4.370
53541W        W18801  35.195   2.886  10.940
53542W        W18802  28.859   6.688  13.388
53543W        W18803  19.400  35.288  13.382
53544W        W18804   7.265   6.366   1.643
53545W        W18805  30.669   2.865   2.886
53546W        W18806  35.853   7.349  13.115
53547W        W18807   1.184   3.331   4.600
53548W        W18808   4.253   2.258   3.310
53549W        W18809  32.374  43.471  10.707
53550W        W18810  27.592  31.185   2.242
53551W        W18811  27.635   5.604   3.556
53552W        W18812  22.197   6.440   4.564
53553W        W18813  16.799   5.455  14.178
53554W        W18814  33.968  34.316   2.597
53555W        W18815   8.214  14.907  13.465
53556W        W18816  42.757  41.891  14.619
53557W        W18817  40.175  40.011  14.903
53558W        W18818  20.722  29.574   3.823
53559W        W18819   6.554  44.470  14.852
53560W        W18820  39.043  24.726   2.836
53561W        W18821  23.338   6.306  14.085
53562W        W18822   5.502   3.052   3.697
53563W        W18823  15.246  32.958   2.163
53564W        W18824   4.367  13.628   3.305
53565W        W18825  30.053   7.675   1.838
53566W        W18826   1.699  18.621  11.669
53567W        W18827  14.735  44.333   3.113
53568W        W18828  15.353  18.206   2.160
53569W        W18829  30.224  36.489  14.375
53570W        W18830  35.842  21.660   1.028
53571W        W18831   0.942  11.281   0.384
53572W        W18832  35.029  29.060   2.212
53573W        W18833   8.648   9.235   2.204
53574W        W18834  19.567   8.680  14.379
53575W        W18835  33.650  22.251  11.604
53576W        W18836  39.268  16.241   0.576
53577W        W18837   1.429  11.880  13.549
53578W        W18838  10.695   4.884   3.376
53579W        W18839  44.956  15.538  11.975
53580W        W18840   1.006   2.674   4.361
53581W        W18841  40.270  44.932   3.123
53582W        W18842  12.652  31.004   1.471
53583W        W18843   5.134  16.738  10.366
53584W        W18844  41.987   7.439   1.675
53585W        W18845  39.930  38.429   1.171
53586W        W18846   8.342  41.572  12.529
53587W        W18847  11.856  35.345   0.372
53588W        W18848  20.284   7.637  12.029
53589W        W18849  16.325  43.321  14.760
53590W        W18850   8.803  10.557  13.890
53591W        W18851  36.076  21.112   2.857
53592W        W18852  33.444   6.711  13.466
53593W        W18853  30.339  16.525   3.680
53594W        W18854   1.160   4.823   3.272
53595W        W18855  10.067  41.335  10.723
53596W        W18856   9.260  26.252   3.093
53597W        W18857  36.358  17.756   1.342
53598W        W18858  30.046  44.181   2.345
53599W        W18859  30.881  21.760  11.474
53600W        W18860  37.508  15.583  14.819
53601W        W18861   8.945  12.785   3.645
53602W        W18862  34.065  41.391   3.843
53603W        W18863   4.255   9.497   4.118
53604W        W18864  35.481  38.552  12.878
53605W        W18865  16.638  13.870  11.504
53606W        W18866  43.317  42.897  11.742
53607W        W18867  20.706   1.949  11.603
53608W        W18868  12.188   2.069  14.480
53609W        W18869  15.045  15.513   4.634
53610W        W18870  17.695  24.933   0.522
53611W        W18871  15.685   6.231   1.743
53612W        W18872  33.546  22.396   3.630
53613W        W18873  21.060  12.729  12.018
53614W        W18874  34.172  20.178  13.964
53615W        W18875  23.527  35.817  14.506
53616W        W18876  38.821  11.542  13.046
53617W        W18877  26.938  37.890   3.676
53618W        W18878  13.421  40.919  14.943
53619W        W18879  19.694  10.370   2.770
53620W        W18880  43.737  34.842   4.186
53621W        W18881   2.937  33.002   2.314
53622W        W18882   2.788  29.085   0.262
53623W        W18883  42.998  10.613  13.828
53624W        W18884  28.246  17.813   2.740
53625W        W18885  13.761  40.497  11.623
53626W        W18886  37.457  15.690   2.221
53627W        W18887  27.848   4.294   4.540
53628W        W18888  36.428  20.233  10.803
53629W        W18889  10.113  11.145  12.783
53630W        W18890   8.012  41.992  13.805
53631W        W18891   6.334  42.723  10.191
53632W        W18892  31.505  21.035   2.598
53633W        W18893   5.951  32.048   4.624
53634W        W18894   5.368  29.103   4.357
53635W        W18895  42.782  24.849  10.936
53636W        W18896  11.138  11.318  13.019
53637W        W18897  34.038  18.826  12.583
53638W        W18898  20.780   4.330   0.813
53639W        W18899  29.880  39.745   0.062
53640W        W18900  26.744  27.947  11.183
53641W        W18901  43.699  20.025  13.188
53642W        W18902  38.007   2.524   4.584
53643W        W18903  19.701  40.103   2.630
53644W        W18904  31.544  16.229  10.570
53645W        W18905  19.659   3.428  10.219
53646W        W18906  43.483  37.163  13.382
53647W        W18907   6.793  17.875   3.770
53648W        W18908   3.875  26.752   4.191
53649W        W18909  39.849  15.769   0.217
53650W        W18910   4.474  34.567   3.849
53651W        W18911  10.840  35.401   2.931
53652W        W18912   6.918  42.365  13.468
53653W        W18913  30.155  37.394  12.828
53654W        W18914  26.589   4.451  14.545
53655W        W18915  22.491  10.709  11.148
53656W        W18916  26.254  13.190  12.454
53657W        W18917  13.111  27.731   3.317
53658W        W18918   0.856  44.525   4.919
53659W        W18919  43.478   1.306   0.313
53660W        W18920  34.343   7.992   4.306
53661W        W18921  29.884   2.520   3.261
53662W        W18922  29.668  18.587  14.746
53663W        W18923  18.889  12.730   3.247
53664W        W18924  43.673  44.450  12.469
53665W        W18925   8.910  16.368   0.948
53666W        W18926  10.346  18.751   2.122
53667W        W18927  44.427  10.154  14.720
53668W        W18928  25.219  13.656  14.456
53669W        W18929  11.861  39.334   2.848
53670W        W18930  33.236  11.493   4.968
53671W        W18931   9.562   2.377   0.294
53672W        W18932  10.289  16.342  12.232
53673W        W18933  12.309  10.699   2.883
53674W        W18934  35.291   4.419   2.842
53675W        W18935  23.468  41.105  11.021
53676W        W18936  29.162  12.590   3.145
53677W        W18937  32.421  16.887   0.231
53678W        W18938  10.809   0.459   0.805
53679W        W18939  39.870  30.909  10.416
53680W        W18940   2.833  28.547  10.953
53681W        W18941   2.771  12.848  10.489
53682W        W18942  18.240  14.649   0.782
53683W        W18943  13.176  27.700   1.559
53684W        W18944  26.648  21.579   0.358
53685W        W18945  11.066  44.038   1.872
53686W        W18946  14.695  22.628   3.781
53687W        W18947  25.861   6.167  10.894
53688W        W18948   3.180  19.199   4.168
53689W        W18949  23.060  28.996  10.613
53690W        W18950   2.232  26.177   3.595
53691W        W18951   7.348  15.320   0.126
53692W        W18952  21.848  24.442   2.412
53693W        W18953  20.813   5.374  13.955
53694W        W18954  29.636  13.127   2.450
53695W        W18955  12.119  13.096  14.797
53696W        W18956  23.634  38.753   1.482
53697W        W18957  14.371  15.910  14.430
53698W        W18958   7.782  30.940   2.269
53699W        W18959  21.501  44.032  13.370
53700W        W18960  44.705  24.518   4.599
53701W        W18961  41.904   5.321   0.188
53702W        W18962   5.082  29.038   0.713
53703W        W18963  43.327  12.825  13.073
53704W        W18964  18.556  38.335   3.637
53705W        W18965   7.625  23.553  10.799
53706W        W18966  24.236  11.575  12.933
53707W        W18967  13.272   4.215  10.985
53708W        W18968  41.160  13.500  12.928
53709W        W18969  23.181   0.427   1.834
53710W        W18970   2.922   2.633   2.852
53711W        W18971   1.909  43.240   2.023
53712W        W18972  19.771  33.992   0.863
53713W        W18973   7.790  29.731   2.949
53714W        W18974  15.358  26.701  10.986
53715W        W18975  24.761  21.613  14.888
53716W        W18976  28.572  34.872   1.812
53717W        W18977   3.953  13.249  14.131
53718W        W18978  15.347  11.286  12.540
53719W        W18979  43.948  17.049  10.641
53720W        W18980  16.954  33.837  10.464
53721W        W18981   2.678  24.303  13.862
53722W        W18982  34.336  35.145   4.209
53723W        W18983  23.759   8.219   4.262
53724W        W18984  41.458   0.495   4.551
53725W        W18985  26.877  27.597  10.111
53726W        W18986  32.671   0.934  13.855
53727W        W18987   0.287  15.958  12.990
53728W        W18988  16.612  35.126  13.511
53729W        W18989  20.814  20.794   4.234
53730W        W18990  29.849  24.582  10.794
53731W        W18991  19.563   4.468   5.043
53732W        W18992   9.787  20.176   1.974
53733W        W18993  18.495  33.375  11.522
53734W        W18994  11.719  32.882   1.214
53735W        W18995  24.788  35.981  14.558
53736W        W18996  34.389  17.227   3.319
53737W        W18997  27.013  19.814  10.945
53738W        W18998  14.583   0.319  11.261
53739W        W18999  29.922   5.488  14.951
53740W        W19000  44.240  25.113  11.183
53741W        W19001   4.916   6.907  10.516
53742W        W19002  11.336  10.281  10.140
53743W        W19003   0.308  41.318   1.042
53744W        W19004  27.068  42.790   3.396
53745W        W19005  40.939   6.372   4.270
53746W        W19006  11.210   5.330  12.845
53747W        W19007  21.532  36.998  14.475
53748W        W19008  20.537   7.126  14.533
53749W        W19009  12.260  40.330   0.357
53750W        W19010  22.109  37.589  14.407
53751W        W19011  15.377   9.274  14.994
53752W        W19012  14.818   1.753   4.299
53753W        W19013  35.585  40.024   1.261
53754W        W19014  42.759  24.928   3.565
53755W        W19015   1.042   4.390  12.179
53756W        W19016  17.686  13.398   2.308
53757W        W19017  42.046  42.555   0.506
53758W        W19018  35.091  41.374   0.726
53759W        W19019  12.725   6.180   3.362
53760W        W19020   7.449  42.043  12.852
53761W        W19021  40.387  27.450   2.743
53762W        W19022  39.738  32.427  13.473
53763W        W19023  32.821  27.921   2.899
53764W        W19024  20.122  14.334   2.877
53765W        W19025  41.103  24.536  12.532
53766W        W19026  18.675  32.145   1.048
53767W        W19027  40.983  25.504  14.836
53768W        W19028  19.730  32.539  13.916
53769W        W19029  33.415   2.733   2.476
53770W        W19030  41.905  22.508  11.116
53771W        W19031  11.715  23.547  14.261
53772W        W19032  27.974  33.606  14.022
53773W        W19033  32.750   4.254   3.246
53774W        W19034  41.833   1.398   3.923
53775W        W19035  41.992  28.116   3.330
53776W        W19036  11.596  13.154   4.472
53777W        W19037   4.841  39.053  14.939
53778W        W19038   1.831  19.824  11.220
53779W        W19039  35.698   2.863  11.636
53780W        W19040  23.600  12.373   0.276
53781W        W19041   9.104  39.811  10.534
53782W        W19042  23.039  35.697  13.364
53783W        W19043  25.905  11.101  12.145
53784W        W19044  18.995   6.249   0.315
53785W        W19045  40.980   7.243   3.719
53786W        W19046  24.930  32.514  13.310
53787W        W19047  17.739  25.520  12.586
53788W        W19048  15.751   2.046   3.355
53789W        W19049  42.056  43.469   0.683
53790W        W19050  29.039  37.350   0.908
53791W        W19051  42.560  25.280   2.845
53792W        W19052  20.066  21.635  13.616
53793W        W19053   8.196  12.504  13.201
53794W        W19054  24.109  44.460   3.128
53795W        W19055  39.066  44.770  14.361
53796W        W19056   8.264   7.710   4.986
53797W        W19057   7.359   6.616  14.555
53798W        W19058  30.355   0.990   2.407
53799W        W19059  37.017  20.944  14.443
53800W        W19060   1.163   4.727  10.588
53801W        W19061   6.560  21.736   4.119
53802W        W19062  31.383  24.148   5.046
53803W        W19063  43.318  10.229   3.474
53804W        W19064  26.637   3.477  11.089
53805W        W19065  31.612  20.047  11.543
53806W        W19066   9.988  20.962   3.375
53807W        W19067  14.323   6.587   4.403
53808W        W19068  20.575  25.230  13.442
53809W        W19069   1.745   2.271  13.388
53810W        W19070  34.065  36.347   2.777
53811W        W19071  11.279   3.315   4.623
53812W        W19072  16.548  12.619  12.564
53813W        W19073  25.189  20.124   1.907
53814W        W19074   5.783  32.257   0.244
53815W        W19075  33.951  36.582  13.075
53816W        W19076  23.563  35.591  14.991
53817W        W19077  31.894  32.739   4.238
53818W        W19078  40.449  13.122   2.892
53819W        W19079  40.268  12.362  14.826
53820W        W19080  16.450  33.685  13.510
53821W        W19081   0.742   3.665  11.576
53822W        W19082  13.619   3.980  13.569
53823W        W19083   1.137  15.259  13.792
53824W        W19084  44.441  37.395  12.592
53825W        W19085   8.583  32.279  14.116
53826W        W19086  44.270  14.577   3.235
53827W        W19087  18.137  34.675  13.475
53828W        W19088  44.585   9.911  14.310
53829W        W19089  44.033   6.278  14.513
53830W        W19090  14.727  16.692   2.793
53831W        W19091  10.643  31.384   4.178
53832W        W19092  44.236   3.907  10.415
53833W        W19093  39.102  15.799  10.207
53834W        W19094  22.663  34.603  12.878
53835W        W19095   3.472  11.598   1.161
53836W        W19096  43.828   0.435   4.507
53837W        W19097  22.423  41.397   4.512
53838W        W19098  15.978  41.556  14.505
53839W        W19099   1.788   9.143  13.002
53840W        W19100  44.866  40.941  14.517
53841W        W19101  27.994   4.326  12.825
53842W        W19102   6.672  12.396  11.642
53843W        W19103  41.748  24.645  13.841
53844W        W19104   1.907  16.076  10.937
53845W        W19105  36.487  21.515   3.311
53846W        W19106  26.754  37.398  10.160
53847W        W19107   8.874  30.100   2.255
53848W        W19108   8.947  44.908  11.408
53849W        W19109  29.006  18.938  11.561
53850W        W19110  38.654  22.453  12.870
53851W        W19111  39.610  35.939   4.395
53852W        W19112  40.414   9.642  13.393
53853W        W19113   1.334  34.056   3.637
53854W        W19114   6.897  37.337  11.484
53855W        W19115  33.934   0.415   2.777
53856W        W19116  17.469  12.603   2.267
53857W        W19117  11.447  24.239   3.153
53858W        W19118  35.927  23.360   4.041
53859W        W19119  37.401  26.715   2.241
53860W        W19120   3.490  39.812  13.045
53861W        W19121  29.673   2.326   1.272
53862W        W19122  23.557   2.747   2.803
53863W        W19123  11.362   1.972   1.056
53864W        W19124   6.849  29.454   2.416
53865W        W19125  22.800  11.770  12.113
53866W        W19126   3.819  17.760   4.199
53867W        W19127  11.357  40.395  14.355
53868W        W19128  31.913  42.990  13.223
53869W        W19129  26.160  27.352   1.703
53870W        W19130  29.193  23.602  11.591
53871W        W19131  22.788  28.483  13.636
53872W        W19132  15.590  43.510  11.494
53873W        W19133  25.508  44.455   0.340
53874W        W19134   9.331  43.593  13.331
53875W        W19135  42.058  32.940  12.140
53876W        W19136  10.877  14.502   4.698
53877W        W19137  44.311  42.716   0.815
53878W        W19138  34.957  40.888   3.169
53879W        W19139   1.527  41.538  10.687
53880W        W19140  43.814  43.026  11.041
53881W        W19141  39.934  25.090  10.150
53882W        W19142   5.361  26.168   1.480
53883W        W19143   2.185  29.992   2.392
53884W        W19144  42.765  39.041  11.953
53885W        W19145  17.732   2.223  11.089
53886W        W19146  19.143   7.136  13.891
53887W        W19147  32.534  44.261  12.835
53888W        W19148  15.248  15.710  13.052
53889W        W19149  21.676  29.902   2.736
53890W        W19150  22.068  20.096   3.270
53891W        W19151  19.220  15.140   0.444
53892W        W19152  17.231  14.149   2.272
53893W        W19153  25.908  38.472  14.403
53894W        W19154  29.036  34.943  14.379
53895W        W19155  25.737   4.315  14.897
53896W        W19156   6.281   4.165   3.614
53897W        W19157  35.830  13.856  10.708
53898W        W19158  40.079   0.014  14.308
53899W        W19159  44.881  23.318  14.810
53900W        W19160  22.716  22.555   0.434
53901W        W19161   5.693  17.561  11.080
53902W        W19162  32.728  28.141   0.879
53903W        W19163  37.052  44.327   5.394
53904W        W19164  31.581  26.907  14.639
53905W        W19165  39.814  18.779  14.373
53906W        W19166  25.619   4.413   1.273
53907W        W19167  21.941  17.394  12.400
53908W        W19168  43.282   6.377   4.188
53909W        W19169  36.088  30.630  13.527
53910W        W19170  44.369   5.336   4.135
53911W        W19171  34.532  27.014   2.770
53912W        W19172  42.511  44.241  12.997
53913W        W19173  34.499  15.793  10.429
53914W        W19174   9.975   9.416   0.816
53915W        W19175  41.533   7.063  12.036
53916W        W19176  26.015  24.189  11.199
53917W        W19177  22.022  13.269   2.860
53918W        W19178  30.833  21.688   4.591
53919W        W19179  15.812  42.944   0.211
53920W        W19180  16.665  12.051  14.090
53921W        W19181  23.646  37.137  12.119
53922W        W19182  42.490  20.455  10.491
53923W        W19183  20.354   4.815   5.466
53924W        W19184  30.423  17.660  12.451
53925W        W19185  10.363  43.427  14.286
53926W        W19186  26.952  44.768  12.520
53927W        W19187  12.570  32.987   0.829
53928W        W19188  12.227  32.426   2.974
53929W        W19189   9.119   3.370   3.627
53930W        W19190  19.787   5.276  12.175
53931W        W19191  26.722  28.134  13.878
53932W        W19192  34.397  11.334   2.245
53933W        W19193  22.690  20.350  11.988
53934W        W19194  17.943  33.159   0.442
53935W        W19195  18.772   9.899   0.374
53936W        W19196   5.801  28.114  10.856
53937W        W19197  31.328  33.547   1.504
53938W        W19198   5.653  21.644  13.938
53939W        W19199  40.853  23.044  13.837
53940W        W19200  15.666  35.637   3.743
53941W        W19201  16.624  34.556  13.080
53942W        W19202  37.623  20.857  14.821
53943W        W19203  12.304  10.676  12.739
53944W        W19204  39.570  33.649  12.978
53945W        W19205  30.952  32.412  10.751
53946W        W19206  22.960  44.396  13.983
53947W        W19207  35.428  18.472  12.576
53948W        W19208   4.215   5.107   3.087
53949W        W19209  13.723  13.816  12.456
53950W        W19210  19.344   9.751  11.128
53951W        W19211  39.568   7.418   2.314
53952W        W19212  44.878  15.821  13.280
53953W        W19213   7.947   4.191  14.539
53954W        W19214   0.224   9.745  13.777
53955W        W19215  21.914   6.001  14.782
53956W        W19216  15.533  26.050  13.437
53957W        W19217  19.208  27.021  13.309
53958W        W19218  24.191   0.364   4.776
53959W        W19219  31.533  42.330   2.355
53960W        W19220  31.150  44.730  13.374
53961W        W19221  10.387   3.944   3.259
53962W        W19222  11.313   9.964   0.271
53963W        W19223  33.628  32.064   1.319
53964W        W19224   4.858   6.239   1.029
53965W        W19225  22.605  38.105   0.316
53966W        W19226   3.844  26.677  13.461
53967W        W19227   0.385  14.374   0.833
53968W        W19228  43.671  32.401  12.966
53969W        W19229  17.755   1.332   2.344
53970W        W19230  44.943   8.701  14.499
53971W        W19231  34.018   4.775  14.611
53972W        W19232  23.787  43.141   2.302
53973W        W19233  11.697  41.337   3.235
53974W        W19234   7.320   0.814  11.080
53975W        W19235  31.151  17.165   3.046
53976W        W19236  17.235  39.514   0.795
53977W        W19237   0.160  27.253   4.488
53978W        W19238  17.717  24.927  13.985
53979W        W19239   1.521  23.912  14.428
53980W        W19240  18.171  40.760  13.571
53981W        W19241  41.042   6.884   4.622
53982W        W19242  37.063  35.952   4.198
53983W        W19243  35.665  23.129   4.803
53984W        W19244  13.700  18.852  11.888
53985W        W19245  40.922  39.551  13.507
53986W        W19246   3.248  17.793  14.683
53987W        W19247  21.000   3.770   0.814
53988W        W19248  39.987  21.027  14.837
53989W        W19249  41.892   5.256   4.928
53990W        W19250  38.784  28.225  11.545
53991W        W19251  19.736  38.519   2.700
53992W        W19252  30.259  18.532  11.228
53993W        W19253  38.562  42.221   4.230
53994W        W19254  34.610  35.547  10.591
53995W        W19255  41.315  43.483  10.679
53996W        W19256  21.950  39.381  14.649
53997W        W19257  40.846  44.888   1.366
53998W        W19258  26.129  28.492   4.271
53999W        W19259  42.115   3.098  11.116
54000W        W19260  40.987  36.032  10.813
54001W        W19261  33.832  24.234  14.824
54002W        W19262   0.368  33.395   4.903
54003W        W19263  16.275  11.067   2.444
54004W        W19264  17.680   7.791   0.312
54005W        W19265   5.874  22.586   3.409
54006W        W19266  28.200   9.762  11.170
54007W        W19267  19.655  44.931   1.725
54008W        W19268  10.161   1.470   2.766
54009W        W19269  13.896   6.722   4.162
54010W        W19270  27.411  42.531  12.594
54011W        W19271  21.816  33.601   1.165
54012W        W19272   6.410   5.838   1.410
54013W        W19273  40.271  31.198  14.361
54014W        W19274  21.105  16.756   4.641
54015W        W19275  13.321  32.118   2.700
54016W        W19276  25.498  16.321   1.305
54017W        W19277  31.600  12.064  14.845
54018W        W19278  21.113  10.951  10.083
54019W        W19279  12.163  24.579  12.893
54020W        W19280   9.837  23.591  11.148
54021W        W19281  42.608  23.339   2.757
54022W        W19282  20.333  40.136   0.003
54023W        W19283   0.289  40.537   2.251
54024W        W19284  11.918  39.954   4.903
54025W        W19285  32.457   0.338   3.808
54026W        W19286  35.936  40.452  12.710
54027W        W19287  39.909   0.278  10.718
54028W        W19288  30.187  23.218   2.184
54029W        W19289  39.989  19.297  11.625
54030W        W19290   0.577   9.735   1.668
54031W        W19291  23.429  24.458  10.920
54032W        W19292  34.397  42.840  14.293
54033W        W19293  43.428   8.487   4.258
54034W        W19294  12.707  41.185  11.715
54035W        W19295  21.462  35.803  11.428
54036W        W19296  22.725  15.751  13.969
54037W        W19297  24.752   7.258  13.076
54038W        W19298  17.075  29.606   3.680
54039W        W19299  18.345  22.263   0.430
54040W        W19300  14.383  17.284   0.016
54041W        W19301  25.542  11.423  13.914
54042W        W19302  32.886  15.748  11.099
54043W        W19303  22.065  30.301  12.030
54044W        W19304  29.487  23.101   2.891
54045W        W19305  25.811  14.112  13.346
54046W        W19306   9.546  19.944  13.559
54047W        W19307  33.954  12.700  12.148
54048W        W19308  14.246  30.104   0.833
54049W        W19309  14.836   4.628  10.684
54050W        W19310  22.533   4.829  12.621
54051W        W19311  23.177  40.574  11.513
54052W        W19312  19.758  28.845  13.775
54053W        W19313  30.395  16.092   0.115
54054W        W19314  40.842  12.674   2.771
54055W        W19315   8.220   8.488   1.130
54056W        W19316  24.797  34.021  11.946
54057W        W19317  15.328   5.572   0.404
54058W        W19318   5.856  38.637  11.144
54059W        W19319  44.276  43.331   3.339
54060W        W19320  27.632  30.741   0.557
54061W        W19321  31.532  24.992  14.725
54062W        W19322  16.920  22.963  11.622
54063W        W19323  15.840  30.653   0.237
54064W        W19324  43.433  14.820   5.556
54065W        W19325  28.433  38.907  10.630
54066W        W19326   0.279  10.743  14.518
54067W        W19327  12.616  18.612   1.854
54068W        W19328  28.413  40.476  12.376
54069W        W19329  39.578  29.383   3.404
54070W        W19330  15.133  43.363   0.730
54071W        W19331   7.656  13.269  12.129
54072W        W19332  32.074  15.564  11.575
54073W        W19333  26.537  13.148  12.912
54074W        W19334  12.725  21.040   1.438
54075W        W19335  22.582  28.674   1.308
54076W        W19336   8.607  18.041  13.104
54077W        W19337  24.778   9.836  13.206
54078W        W19338  42.035  24.146  11.541
54079W        W19339   5.651  30.453  14.409
54080W        W19340  36.166  33.887  10.713
54081W        W19341  30.113  31.007  14.423
54082W        W19342  22.414  26.001  11.845
54083W        W19343  29.645  21.711  14.970
54084W        W19344  13.620   0.451  14.969
54085W        W19345  36.101  39.875   4.132
54086W        W19346  42.730  11.229   1.590
54087W        W19347   4.810  37.611  11.413
54088W        W19348  20.615   1.533  12.583
54089W        W19349  38.927  24.102  11.075
54090W        W19350   3.226  12.906  10.742
54091W        W19351   8.204   4.829  12.816
54092W        W19352  21.543  33.593  12.872
54093W        W19353  29.477  19.308   3.710
54094W        W19354  32.964   5.419   2.689
54095W        W19355  36.764  22.566   1.439
54096W        W19356  24.283   4.771   1.233
54097W        W19357  27.402   2.372  13.968
54098W        W19358  32.064  32.462   4.645
54099W        W19359   8.608  11.113   4.245
54100W        W19360  11.083  11.799  11.641
54101W        W19361  19.720   5.901   0.391
54102W        W19362  19.249  36.058   0.888
54103W        W19363  23.178   1.857   4.618
54104W        W19364  16.846  16.351  10.725
54105W        W19365  44.235  35.472   1.220
54106W        W19366  33.469  25.564   2.146
54107W        W19367   2.635  14.028  13.435
54108W        W19368  21.705  26.680  12.430
54109W        W19369  32.954  32.635   3.722
54110W        W19370  15.170  37.989   0.120
54111W        W19371  21.708  44.861  12.990
54112W        W19372  38.919   9.206   0.909
54113W        W19373  23.771  24.752  11.975
54114W        W19374  42.319  15.597  10.400
54115W        W19375  37.339   2.637   1.764
54116W        W19376  24.013  11.732   2.886
54117W        W19377  16.079  10.878   1.987
54118W        W19378  14.235  28.539  14.343
54119W        W19379  22.199  22.058   3.147
54120W        W19380  33.391  37.135   3.332
54121W        W19381  43.919   3.940  11.704
54122W        W19382  10.863  32.317  14.866
54123W        W19383  22.104  11.638  11.235
54124W        W19384  37.028  33.562   1.363
54125W        W19385  19.047   8.455  14.855
54126W        W19386  14.273   2.067   0.295
54127W        W19387  10.402  42.925  10.655
54128W        W19388   7.097  18.837  11.567
54129W        W19389  11.906  16.848   0.337
54130W        W19390  43.861  18.293   4.686
54131W        W19391  25.938   0.728  14.918
54132W        W19392  32.021  38.720   4.555
54133W        W19393  33.354  28.684  10.734
54134W        W19394  34.983  40.026  14.676
54135W        W19395  21.718  11.070  14.012
54136W        W19396  28.039  18.538  13.019
54137W        W19397  36.335   0.425  12.520
54138W        W19398  19.702  32.903   0.829
54139W        W19399   2.548  35.031   2.882
54140W        W19400  12.919  39.882  13.769
54141W        W19401  10.897  19.198  13.849
54142W        W19402   6.008   7.297  11.059
54143W        W19403  13.591   5.865   1.328
54144W        W19404   7.193  23.930   3.646
54145W        W19405   7.658  33.241   3.201
54146W        W19406   3.029  40.350  11.181
54147W        W19407  30.841  17.755   1.389
54148W        W19408  25.046  25.833  11.519
54149W        W19409  36.308  13.577  10.819
54150W        W19410   2.933  34.022  10.945
54151W        W19411  44.418  20.671   2.163
54152W        W19412  14.103  39.641   0.844
54153W        W19413  41.844  21.484  13.857
54154W        W19414   1.536   4.801  12.429
54155W        W19415  42.773  25.794   0.453
54156W        W19416   2.342  23.304   2.664
54157W        W19417  31.437  11.428  14.058
54158W        W19418  40.877   1.037   0.491
54159W        W19419   3.230  31.205   4.846
54160W        W19420  42.446  35.169  11.658
54161W        W19421  27.691  39.403  11.661
54162W        W19422  36.791  11.412   0.505
54163W        W19423  23.717   7.729   4.114
54164W        W19424  37.815  38.558   1.260
54165W        W19425   9.436   1.520  12.994
54166W        W19426   3.509  12.364   4.025
54167W        W19427   8.199  11.848  14.865
54168W        W19428  38.007  31.176   2.163
54169W        W19429  43.889   1.435  12.110
54170W        W19430   2.376  17.857  13.553
54171W        W19431  24.241   3.280  12.108
54172W        W19432  41.550   6.586  12.206
54173W        W19433   7.817  21.659  13.141
54174W        W19434  38.841  33.576  11.174
54175W        W19435  24.575   9.377  11.260
54176W        W19436  33.633  13.161   4.215
54177W        W19437  26.554  16.004  12.784
54178W        W19438  25.481  39.571   2.231
54179W        W19439  26.656  32.187  10.345
54180W        W19440  17.085  30.809  14.012
54181W        W19441  29.123   4.473   4.191
54182W        W19442  26.932  19.332  10.748
54183W        W19443  33.132   3.973   4.514
54184W        W19444  40.551  38.632  12.649
54185W        W19445  38.607  33.044   3.225
54186W        W19446   5.418  42.872   0.219
54187W        W19447  13.134   8.269  12.909
54188W        W19448  16.217  36.577   3.822
54189W        W19449   2.403   0.549  11.870
54190W        W19450  33.459  26.002  13.969
54191W        W19451  25.707  33.136   1.890
54192W        W19452   4.293  39.941  10.642
54193W        W19453  22.632  17.805   3.196
54194W        W19454  10.210  18.621   0.311
54195W        W19455  36.901  10.224  13.388
54196W        W19456   9.778  23.375  11.660
54197W        W19457  33.780   3.822  10.618
54198W        W19458  21.466  24.535  11.112
54199W        W19459  12.838  17.274  12.125
54200W        W19460   7.605   8.742   2.944
54201W        W19461  23.834  12.537  12.929
54202W        W19462  11.584   5.690   4.944
54203W        W19463  19.568  28.719   0.763
54204W        W19464   7.454  18.730   3.580
54205W        W19465  38.324  17.051   3.304
54206W        W19466  30.469  11.322  12.053
54207W        W19467  43.091  36.586   4.625
54208W        W19468  37.876  43.474  10.607
54209W        W19469  12.031   7.935  13.814
54210W        W19470  27.878   4.252   3.032
54211W        W19471  26.114  14.546  13.406
54212W        W19472  23.096  31.973  14.251
54213W        W19473  14.677  34.909   4.104
54214W        W19474  17.629  31.932  10.548
54215W        W19475  41.938   1.939  11.523
54216W        W19476   6.865   5.955  13.796
54217W        W19477  38.144  41.979   1.863
54218W        W19478  35.481  25.524   4.743
54219W        W19479   1.885  11.390  12.489
54220W        W19480  11.611  40.508   1.563
54221W        W19481   5.247  32.618  13.433
54222W        W19482  14.414  32.688   3.421
54223W        W19483  17.862  41.387  13.281
54224W        W19484  12.591  25.178  14.701
54225W        W19485  18.697   0.106  12.914
54226W        W19486  29.133  22.721   4.086
54227W        W19487  31.731   1.897   2.301
54228W        W19488  12.937  14.331  10.564
54229W        W19489  16.325  35.562  13.483
54230W        W19490   0.770  36.382  13.394
54231W        W19491  28.765  15.770  12.551
54232W        W19492   5.768  17.840   4.589
54233W        W19493  40.562   3.791   0.952
54234W        W19494  23.149   5.914  11.186
54235W        W19495  34.723  42.702  14.934
54236W        W19496   3.044  29.717  13.435
54237W        W19497  31.154  15.654  14.807
54238W        W19498   2.274  44.439  10.669
54239W        W19499  39.183  37.582   4.275
54240W        W19500  25.024  44.081   9.957
54241W        W19501  18.026  41.757  10.997
54242W        W19502   1.010  23.300   1.465
54243W        W19503  14.710  13.920   1.461
54244W        W19504  43.938  30.565  11.230
54245W        W19505  42.392  13.711  12.009
54246W        W19506  38.343  11.208   1.184
54247W        W19507   4.764  22.309   0.031
54248W        W19508  11.054  13.313   2.407
54249W        W19509   1.072  36.385   1.396
54250W        W19510   1.979  37.355  12.568
54251W        W19511   0.947  35.855  14.445
54252W        W19512   4.839  13.761   0.840
54253W        W19513   8.287  34.420   1.749
54254W        W19514   1.385  16.374   2.870
54255W        W19515  16.156  15.758  14.977
54256W        W19516   6.363  32.284  12.074
54257W        W19517  16.154  18.901   3.292
54258W        W19518   1.820  35.183  11.598
54259W        W19519  15.641  41.751  12.940
54260W        W19520   3.539  33.130  12.386
54261W        W19521  24.523  40.630  14.941
54262W        W19522  10.117  16.339  14.018
54263W        W19523  22.945  40.988  12.262
54264W        W19524  26.592  14.268   9.630
54265W        W19525   2.564  43.994  10.607
54266W        W19526  36.458   5.696  10.220
54267W        W19527   6.746  24.028  14.518
54268W        W19528  14.271   9.760   4.466
54269W        W19529  19.851  41.891  11.700
54270W        W19530  41.306   1.982  14.940
54271W        W19531  21.992  27.993  11.270
54272W        W19532  14.883  41.929   0.113
54273W        W19533   2.341  35.549   2.212
54274W        W19534   8.144  24.495   4.521
54275W        W19535  27.473  27.531   0.011
54276W        W19536   6.443  18.151  11.076
54277W        W19537   7.105  23.647   4.095
54278W        W19538  42.718  37.391  12.029
54279W        W19539  39.481  29.854  14.007
54280W        W19540  26.854   6.834  12.486
54281W        W19541   8.791  24.343   2.354
54282W        W19542  36.400  37.371   3.112
54283W        W19543  39.130  16.520  11.033
54284W        W19544  15.148  17.744  10.791
54285W        W19545   1.930  19.117   3.053
54286W        W19546  36.422  44.078  12.038
54287W        W19547  38.988  34.805  11.653
54288W        W19548   1.885  23.997   4.969
54289W        W19549  36.229  10.666   3.674
54290W        W19550   3.393   0.719   1.693
54291W        W19551  24.262  43.481  11.566
54292W        W19552  23.902   6.270   0.946
54293W        W19553  16.162  44.518   3.110
54294W        W19554  41.313  40.284   1.428
54295W        W19555  40.469  11.779  12.031
54296W        W19556  27.413  14.141  12.402
54297W        W19557  32.898   2.179   0.389
54298W        W19558  32.212  19.646   4.591
54299W        W19559  15.097  20.308   3.073
54300W        W19560  27.784  24.033   0.682
54301W        W19561  34.971  40.453  14.989
54302W        W19562  13.506   7.817   5.528
54303W        W19563   4.615  31.583   3.667
54304W        W19564  19.106   2.553   4.080
54305W        W19565  26.739   0.460  11.063
54306W        W19566  28.061  14.696   3.376
54307W        W19567  43.331  16.669  10.637
54308W        W19568  35.082  15.672   4.578
54309W        W19569  11.508   9.464   2.044
54310W        W19570  19.028  24.560   0.881
54311W        W19571  44.642  23.997  13.039
54312W        W19572  42.016  32.145   1.705
54313W        W19573  36.017  26.350   1.209
54314W        W19574  36.290  41.038  11.180
54315W        W19575   6.394   7.303  12.859
54316W        W19576  27.421  21.678  14.448
54317W        W19577   6.973  29.255   2.878
54318W        W19578   7.997  44.468  12.564
54319W        W19579  33.869  10.240   3.224
54320W        W19580  22.512  27.083   2.825
54321W        W19581  25.519  32.930  13.866
54322W        W19582  17.827  13.613  14.911
54323W        W19583  41.249  38.173  12.900
54324W        W19584  25.665  21.073   2.804
54325W        W19585  13.100  39.234  11.992
54326W        W19586  39.435  27.556   1.745
54327W        W19587  32.530  29.093  13.100
54328W        W19588  29.699  37.058   1.400
54329W        W19589  40.749  37.802   1.909
54330W        W19590  10.715  40.351   3.592
54331W        W19591  35.135  26.062   5.101
54332W        W19592  20.169  12.756  14.928
54333W        W19593  23.239  25.016   1.732
54334W        W19594  39.341  13.203  10.973
54335W        W19595  32.605  35.809   2.142
54336W        W19596  16.592   1.878  10.526
54337W        W19597   6.754  34.434  12.009
54338W        W19598  30.924  35.607  11.505
54339W        W19599  42.294  22.879  11.001
54340W        W19600   8.713  36.361   4.643
54341W        W19601  32.642  32.049   0.274
54342W        W19602  33.338   4.979   4.529
54343W        W19603  32.639  18.219   3.596
54344W        W19604  14.458   9.834  10.587
54345W        W19605   5.731   4.490   0.596
54346W        W19606   9.675  28.567   4.211
54347W        W19607  31.493   4.381  12.154
54348W        W19608  15.063  22.623   1.653
54349W        W19609  19.299  23.033  14.288
54350W        W19610  23.186  24.744   4.148
54351W        W19611  25.480  37.416   2.479
54352W        W19612  34.319  29.983   4.611
54353W        W19613  21.816   3.776  14.507
54354W        W19614  44.157   8.829   4.781
54355W        W19615  25.615  28.564   0.054
54356W        W19616  25.933  42.493   2.174
54357W        W19617  37.599  17.769  14.781
54358W        W19618   4.431  31.078   2.146
54359W        W19619  11.290  20.737   5.078
54360W        W19620  38.634  44.398   3.688
54361W        W19621  21.050  40.617   0.947
54362W        W19622  27.576  36.870  12.424
54363W        W19623   3.918  24.108  14.332
54364W        W19624  29.754  12.327  11.556
54365W        W19625  43.293  16.249   4.160
54366W        W19626  14.658  16.530  11.077
54367W        W19627   9.651  40.151  12.051
54368W        W19628  28.881   1.293   0.337
54369W        W19629  22.643  42.046   1.254
54370W        W19630  22.263  36.407  12.973
54371W        W19631  16.211  31.561   3.610
54372W        W19632  34.946  42.357   0.269
54373W        W19633   2.837  35.872   2.468
54374W        W19634  26.700  23.805  10.019
54375W        W19635  28.400  16.200   0.025
54376W        W19636  21.688  12.111   3.453
54377W        W19637  42.317   0.917   1.763
54378W        W19638   9.619   0.590   1.247
54379W        W19639  14.132  26.047  11.925
54380W        W19640  39.248  41.033  13.098
54381W        W19641  41.035  28.495   4.706
54382W        W19642  25.584  14.544  13.186
54383W        W19643  43.529  34.649   1.012
54384W        W19644   1.887  33.432   0.758
54385W        W19645  15.580  43.103   0.651
54386W        W19646  17.069  14.203  10.652
54387W        W19647  32.530  42.015  10.725
54388W        W19648  36.905  34.472  14.984
54389W        W19649  33.610  31.973  12.439
54390W        W19650   0.704  20.694   4.472
54391W        W19651  10.872  27.315  12.496
54392W        W19652  44.372  30.181  10.685
54393W        W19653  10.293  20.542   0.236
54394W        W19654  38.845  25.503   2.353
54395W        W19655  26.829  40.819   1.296
54396W        W19656  39.340   9.579  13.054
54397W        W19657  22.032  17.620   0.935
54398W        W19658  13.863  41.327  12.044
54399W        W19659  20.362  25.948  13.896
54400W        W19660  20.163  38.535  12.498
54401W        W19661  15.536  22.145  12.459
54402W        W19662   6.148  31.836  10.679
54403W        W19663  29.107  29.020   3.446
54404W        W19664  28.406  30.512  13.968
54405W        W19665  35.513  33.915  14.747
54406W        W19666   1.220  29.471   0.508
54407W        W19667  17.101  35.035  11.626
54408W        W19668  41.822  26.103   3.170
54409W        W19669   7.196  24.682  14.252
54410W        W19670   0.806  10.457  13.574
54411W        W19671  14.363  37.139  13.921
54412W        W19672  43.097  30.534  12.868
54413W        W19673   0.917  39.376   0.321
54414W        W19674  36.437  39.494   4.152
54415W        W19675  39.855   3.413  11.784
54416W        W19676  31.518  10.857  14.247
54417W        W19677  43.627  13.557   5.073
54418W        W19678  28.198  37.284  13.891
54419W        W19679  44.840  43.314  12.944
54420W        W19680  15.793   1.195  13.357
54421W        W19681   4.494  14.780   1.893
54422W        W19682  34.508  29.330  10.699
54423W        W19683  29.417  23.386  12.771
54424W        W19684  24.353  32.804   2.407
54425W        W19685  10.077  29.128   1.347
54426W        W19686  26.036  11.085   1.260
54427W        W19687  27.002  30.633  11.187
54428W        W19688  32.061   0.391  13.634
54429W        W19689  19.497   3.384  11.548
54430W        W19690   8.194  29.205  13.354
54431W        W19691  13.630   0.652   0.448
54432W        W19692   4.320   4.315  11.996
54433W        W19693  16.378  21.246  11.660
54434W        W19694  13.192  26.006   9.882
54435W        W19695  37.925   8.572  14.815
54436W        W19696  42.596  38.990   2.684
54437W        W19697   6.689  43.902   2.818
54438W        W19698  15.762  21.999  12.895
54439W        W19699  20.698  20.599   0.425
54440W        W19700  18.313  36.076  14.350
54441W        W19701  19.652   9.600   3.136
54442W        W19702   6.751  22.077   0.472
54443W        W19703  36.918  38.356   1.099
54444W        W19704  37.134  23.117  12.534
54445W        W19705   9.211   3.846   3.822
54446W        W19706   0.101  32.877  13.584
54447W        W19707   1.509  11.863   0.489
54448W        W19708  40.974  29.429  12.562
54449W        W19709  35.267  26.145   4.123
54450W        W19710   1.041  18.284  13.887
54451W        W19711  10.959  37.635   4.126
54452W        W19712  19.100  14.720  13.075
54453W        W19713  42.119  20.589   2.241
54454W        W19714   5.189  19.578   3.566
54455W        W19715  20.102  17.426  12.816
54456W        W19716  23.523  42.060   4.115
54457W        W19717  10.188  18.991  11.699
54458W        W19718  40.408  39.391   4.499
54459W        W19719   2.269  31.925  11.685
54460W        W19720  40.718  28.035   3.776
54461W        W19721  12.732  22.151  12.494
54462W        W19722  21.467  38.547   3.895
54463W        W19723  41.979  15.936  10.184
54464W        W19724  35.643  42.314   2.674
54465W        W19725  40.287  30.965  12.936
54466W        W19726  38.110  21.078  12.908
54467W        W19727  25.010  15.675   3.498
54468W        W19728   3.185  41.742   0.850
54469W        W19729  11.325  44.033  12.697
54470W        W19730  26.212  33.042  12.561
54471W        W19731  27.260  23.633   0.301
54472W        W19732  20.736  25.045  11.304
54473W        W19733   0.409  39.593   4.768
54474W        W19734  13.551  43.244  14.413
54475W        W19735   5.942   2.954   3.942
54476W        W19736  27.175  30.584   4.512
54477W        W19737   2.034  26.060  11.678
54478W        W19738  17.592  29.645  10.627
54479W        W19739  39.491  40.848   2.342
54480W        W19740  37.794   7.253  13.509
54481W        W19741  22.986  31.540   3.728
54482W        W19742  43.229  33.521   3.175
54483W        W19743  14.565  11.128   3.645
54484W        W19744  21.036  33.405  11.947
54485W        W19745  20.611  17.132  13.561
54486W        W19746  15.622  43.979   4.709
54487W        W19747  30.454   7.366   2.445
54488W        W19748  17.067  10.309  12.543
54489W        W19749  12.288  11.832   3.687
54490W        W19750   5.121  43.247  11.469
54491W        W19751  43.611  39.132  12.826
54492W        W19752   3.471  29.526   2.295
54493W        W19753  32.889  24.478  11.658
54494W        W19754  30.774  34.851   0.833
54495W        W19755  30.892  20.050   1.819
54496W        W19756  34.661  25.227  10.282
54497W        W19757  36.886   3.636  10.734
54498W        W19758  13.163  37.970   4.367
54499W        W19759  39.792  41.557  10.852
54500W        W19760  11.543  17.656  11.109
54501W        W19761  35.336  11.768  10.637
54502W        W19762  38.669  24.799  11.120
54503W        W19763  10.160   4.143   4.436
54504W        W19764   9.233   7.784   2.665
54505W        W19765  29.565  25.809   3.832
54506W        W19766  37.978   5.354   4.016
54507W        W19767   5.466  38.611  12.096
54508W        W19768  15.129  44.040  13.994
54509W        W19769  18.104   4.847  14.517
54510W        W19770  10.779  36.774   0.579
54511W        W19771   5.163  33.240   2.170
54512W        W19772  24.368  30.651   9.830
54513W        W19773  27.032   3.374   2.684
54514W        W19774  31.523  32.924  12.950
54515W        W19775   0.037  42.790   0.141
54516W        W19776  27.294  23.810   2.632
54517W        W19777  19.829  16.779  11.988
54518W        W19778  35.397  25.920   2.612
54519W        W19779  13.913  38.865   3.983
54520W        W19780  41.806  30.830  10.964
54521W        W19781  13.668  33.173  14.311
54522W        W19782   5.685  44.800   0.111
54523W        W19783   1.003  30.330  13.277
54524W        W19784  26.052  42.024  11.856
54525W        W19785  37.122   5.090   4.068
54526W        W19786  32.017  35.846  13.945
54527W        W19787  34.616   9.780   4.244
54528W        W19788   5.279   2.927   3.254
54529W        W19789  19.102  14.639   0.356
54530W        W19790  29.105  15.615   2.762
54531W        W19791  31.049  20.531  14.301
54532W        W19792  37.649   9.804   3.224
54533W        W19793  16.835   8.403  10.589
54534W        W19794  34.483   7.553  12.694
54535W        W19795  38.935  13.146  14.902
54536W        W19796   7.783   5.205  12.003
54537W        W19797   8.775  44.368   2.586
54538W        W19798  34.333  21.606   1.404
54539W        W19799   0.358  23.277   2.824
54540W        W19800  24.036   6.869   5.352
54541W        W19801  18.105  28.074   4.623
54542W        W19802  37.126  31.974   4.113
54543W        W19803  41.012  40.395  14.133
54544W        W19804   9.671   7.447   2.292
54545W        W19805   0.614  41.101   0.095
54546W        W19806  35.559  13.352   0.757
54547W        W19807   6.721  12.270   3.289
54548W        W19808   2.462   7.221  11.535
54549W        W19809   2.653  24.893   2.418
54550W        W19810   7.117  11.118   1.442
54551W        W19811  34.944  42.428  10.380
54552W        W19812  20.781   0.844  13.364
54553W        W19813  27.648  12.790  14.989
54554W        W19814  19.359  40.360  14.843
54555W        W19815  19.651  10.653  10.646
54556W        W19816  31.655  27.078   0.325
54557W        W19817  42.163  38.321  14.659
54558W        W19818  19.533  30.484  12.132
54559W        W19819  15.600   2.976   2.384
54560W        W19820  25.807  27.466   0.818
54561W        W19821  35.861  38.958   4.632
54562W        W19822  29.422  40.003  13.097
54563W        W19823  41.477  41.340   0.464
54564W        W19824  29.276  14.133  13.616
54565W        W19825  32.588  17.211   4.533
54566W        W19826  41.912  28.050   1.978
54567W        W19827  33.431  12.188  13.125
54568W        W19828  25.138   3.743   1.928
54569W        W19829  44.353  35.613   2.250
54570W        W19830  12.085  31.475   3.857
54571W        W19831   9.803  30.814   4.286
54572W        W19832   5.154  24.977   2.681
54573W        W19833  17.269  20.708   2.810
54574W        W19834  12.853  14.146  12.011
54575W        W19835   4.348  24.129   3.889
54576W        W19836   6.498  41.617   3.852
54577W        W19837  18.635  27.643   3.236
54578W        W19838  42.469  40.690  13.461
54579W        W19839  35.711  38.574  14.297
54580W        W19840  16.154  11.901  14.331
54581W        W19841  32.914  21.609  12.347
54582W        W19842   0.344  38.444  13.478
54583W        W19843  44.016  24.954   3.258
54584W        W19844   1.603  40.683   0.327
54585W        W19845  36.698  36.128  11.459
54586W        W19846   4.679  33.024  10.641
54587W        W19847  20.189  44.496  10.636
54588W        W19848  22.709  23.597   3.217
54589W        W19849   9.606   8.729  12.943
54590W        W19850  43.978  30.201   0.708
54591W        W19851  28.203  37.002  14.355
54592W        W19852   0.319  40.896   3.802
54593W        W19853  44.375  35.556   5.092
54594W        W19854  23.790  16.117  11.564
54595W        W19855   2.790  38.671   1.723
54596W        W19856  21.615  24.559   1.905
54597W        W19857  26.650  39.409   4.211
54598W        W19858  16.530   1.357  11.572
54599W        W19859  31.434   4.816   2.783
54600W        W19860  25.713   8.009   0.854
54601W        W19861   8.941   7.595   3.628
54602W        W19862   8.608  35.547   4.601
54603W        W19863  19.199   0.249  11.394
54604W        W19864  29.581  26.459  11.072
54605W        W19865   4.902  37.161  13.545
54606W        W19866   1.179  28.981  13.225
54607W        W19867  30.522  27.598  10.736
54608W        W19868  23.283  41.064   0.787
54609W        W19869  33.037   0.330   0.788
54610W        W19870  21.246  14.298  11.197
54611W        W19871  24.044  20.836  12.746
54612W        W19872   2.490  26.167  14.007
54613W        W19873  44.843  16.298   1.231
54614W        W19874  18.822  10.773   4.086
54615W        W19875   5.923  32.665  13.802
54616W        W19876  22.944  33.375   2.748
54617W        W19877   3.858   9.474   0.512
54618W        W19878   6.692  33.097  13.614
54619W        W19879   3.385  41.525   2.136
54620W        W19880  24.210  38.183   4.014
54621W        W19881   4.832  35.391  13.086
54622W        W19882   7.844  38.647  12.885
54623W        W19883   5.831  27.661   2.641
54624W        W19884  29.205  32.167   2.332
54625W        W19885   4.386  41.840  10.947
54626W        W19886   6.920  31.511  14.525
54627W        W19887  30.106  35.464   1.716
54628W        W19888   4.497  43.779  10.689
54629W        W19889  38.355  17.263  13.089
54630W        W19890  44.593  17.247   2.767
54631W        W19891  16.848  14.077  12.861
54632W        W19892   3.512   4.047   3.565
54633W        W19893  20.065   0.187   1.938
54634W        W19894  23.529   7.858   4.569
54635W        W19895  35.109  19.206  11.070
54636W        W19896   9.972  34.341   4.125
54637W        W19897  24.995  19.001  11.245
54638W        W19898  28.273  32.377  12.889
54639W        W19899  36.409  14.580   2.698
54640W        W19900  26.895  30.969  12.678
54641W        W19901  25.693  17.147   0.518
54642W        W19902  27.904   3.404  12.954
54643W        W19903   2.977  38.661  13.398
54644W        W19904  20.568  43.972  14.120
54645W        W19905  40.380  12.071   4.115
54646W        W19906  36.484   6.950   2.784
54647W        W19907   8.650  35.450   2.385
54648W        W19908  23.295   4.657   1.587
54649W        W19909   0.757  31.945   1.319
54650W        W19910  36.643  11.697  11.139
54651W        W19911  18.745  27.847   0.752
54652W        W19912   5.456  12.758   0.246
54653W        W19913   7.205  29.708   4.519
54654W        W19914  11.577   6.262  11.542
54655W        W19915  29.422  16.572   2.427
54656W        W19916  20.968   0.354   5.068
54657W        W19917   8.199  16.788  10.734
54658W        W19918  36.512  13.260  12.128
54659W        W19919   1.812  39.856   1.315
54660W        W19920  27.223  29.186  10.098
54661W        W19921  32.504  35.584   0.773
54662W        W19922  15.162  31.970  11.843
54663W        W19923  32.746  26.183   2.287
54664W        W19924  21.212  22.435   4.590
54665W        W19925  37.402   0.471   3.368
54666W        W19926  31.986  31.179   1.567
54667W        W19927  39.930  33.608   1.605
54668W        W19928   9.734   0.488  14.071
54669W        W19929  19.719  30.583   3.049
54670W        W19930  39.919  43.414   3.266
54671W        W19931  15.219  27.233  13.116
54672W        W19932  34.823   7.219   0.136
54673W        W19933  16.324  12.776   5.222
54674W        W19934  43.108  37.420   0.546
54675W        W19935   4.415   2.038   2.845
54676W        W19936  42.884  28.041   4.673
54677W        W19937  32.152   6.260   3.126
54678W        W19938   1.978  11.211  11.132
54679W        W19939  25.977  17.154   4.615
54680W        W19940   8.590  24.084  12.114
54681W        W19941  34.975  35.989   3.729
54682W        W19942  39.089  24.167   3.725
54683W        W19943  40.935  39.964  13.843
54684W        W19944  25.335  23.719   2.364
54685W        W19945  21.643  10.132  12.326
54686W        W19946  42.942  26.723  13.931
54687W        W19947  27.952  22.447  11.904
54688W        W19948  29.949   8.839   5.066
54689W        W19949  28.105  27.584   4.026
54690W        W19950  20.568   9.729  14.133
54691W        W19951   8.623  38.907  12.431
54692W        W19952  33.883  38.067   0.402
54693W        W19953   9.253  25.445   0.341
54694W        W19954  12.587  19.716   0.680
54695W        W19955  15.603  29.564   3.950
54696W        W19956  22.798  11.114   0.283
54697W        W19957  22.215  15.624  10.771
54698W        W19958  11.817  34.901   2.185
54699W        W19959  17.097  17.595   3.196
54700W        W19960   9.767  18.116   0.878
54701W        W19961  29.066  40.719  10.753
54702W        W19962  20.160  38.402   0.322
54703W        W19963  36.054  27.722   3.768
54704W        W19964  41.082   9.412  12.167
54705W        W19965   8.268  40.358  13.988
54706W        W19966  38.012  26.071  11.010
54707W        W19967  13.468  16.781  12.630
54708W        W19968  14.683   4.146   3.246
54709W        W19969  19.698  41.097  14.462
54710W        W19970  33.233   9.345  13.380
54711W        W19971  15.229  41.101   0.245
54712W        W19972  20.276  34.578   4.575
54713W        W19973   3.926  13.109  10.689
54714W        W19974  34.872  33.520   1.883
54715W        W19975  32.090   7.350   3.803
54716W        W19976  43.494   4.425  12.949
54717W        W19977  22.729  33.386  12.507
54718W        W19978   6.368   4.545   3.275
54719W        W19979  23.534  34.497   0.210
54720W        W19980  17.487   6.641   3.192
54721W        W19981  34.647  31.138  11.885
54722W        W19982   7.791  12.563  13.536
54723W        W19983  43.970  27.634   1.388
54724W        W19984  38.810  36.176   1.872
54725W        W19985  11.082  31.976  12.393
54726W        W19986  19.934  44.076  10.839
54727W        W19987  27.194  42.389   0.166
54728W        W19988  38.885  10.157  12.073
54729W        W19989   8.402  35.761   1.676
54730W        W19990  24.116   8.839  10.145
54731W        W19991  16.045  40.023   4.679
54732W        W19992  33.956  40.508   2.737
54733W        W19993  29.705  20.777   0.648
54734W        W19994  13.821   4.791  11.502
54735W        W19995  30.310   1.490   4.185
54736W        W19996  28.069   2.947   2.344
54737W        W19997  28.683  40.001   3.511
54738W        W19998  13.104   1.758  10.275
54739W        W19999  19.436  40.059  12.536
54740W        W20000  40.352  24.608   0.896
54741W        W20001   1.206   1.879   1.301
54742W        W20002  15.148  16.182   0.481
54743W        W20003   4.696   0.933  14.132
54744W        W20004  31.139  28.886   1.356
54745W        W20005  36.963  28.160   2.407
54746W        W20006  35.420  30.103  14.514
54747W        W20007  43.849  40.762   2.276
54748W        W20008  25.164  23.926  11.118
54749W        W20009  38.371  14.826  11.999
54750W        W20010  25.109  11.739  12.061
54751W        W20011  39.226  21.977   3.609
54752W        W20012  13.308  17.929   0.803
54753W        W20013   7.681  12.717  10.723
54754W        W20014  40.252  33.617  14.717
54755W        W20015  36.376  23.980   0.897
54756W        W20016  21.672  34.495  14.947
54757W        W20017  38.895  43.223   3.208
54758W        W20018  44.509   0.831   0.314
54759W        W20019  43.314  16.248   1.795
54760W        W20020  21.146   0.250  12.363
54761W        W20021  39.549  39.288  12.034
54762W        W20022  23.493   8.563   1.978
54763W        W20023   1.547  32.521  11.132
54764W        W20024  20.591  17.150  14.989
54765W        W20025  12.028  43.403  10.977
54766W        W20026  39.899  14.645  11.085
54767W        W20027  21.310   3.845  14.458
54768W        W20028   5.346  11.797  10.235
54769W        W20029  33.601  13.409  11.265
54770W        W20030  17.400  34.950   4.151
54771W        W20031  32.241  23.469   4.901
54772W        W20032  20.782  44.865  14.335
54773W        W20033  13.092  12.002  10.228
54774W        W20034  23.140  15.720   1.397
54775W        W20035  30.591  15.248  13.964
54776W        W20036  14.879  31.068  10.755
54777W        W20037  12.876  13.855   2.366
54778W        W20038  24.148  41.252   0.789
54779W        W20039  40.239  18.304  12.482
54780W        W20040  14.353  36.343  11.556
54781W        W20041  16.067  18.264   2.759
54782W        W20042   9.270  40.452   2.614
54783W        W20043  12.272  39.436  13.132
54784W        W20044  13.401  14.606   4.098
54785W        W20045  22.812  11.249   4.758
54786W        W20046  31.062  15.175  13.102
54787W        W20047  32.521  29.882   3.610
54788W        W20048  38.942  37.339   1.159
54789W        W20049  16.355   2.458  13.117
54790W        W20050   0.092  38.792  11.925
54791W        W20051  17.710   7.144  14.561
54792W        W20052  37.081  40.276   1.463
54793W        W20053   1.699   5.166  14.343
54794W        W20054  36.248  29.620  14.868
54795W        W20055  16.703  42.792   4.092
54796W        W20056  43.549  39.802   3.979
54797W        W20057  42.347  14.821   3.851
54798W        W20058   6.023   4.702  14.785
54799W        W20059  22.721  31.967  14.886
54800W        W20060   3.652  16.118   3.378
54801W        W20061  16.182  38.610  13.397
54802W        W20062  23.621  43.841  11.940
54803W        W20063  33.717   6.293  13.304
54804W        W20064  36.372  31.921   3.653
54805W        W20065  18.139   6.410  12.445
54806W        W20066  18.224   4.666   1.723
54807W        W20067  18.527  12.277   4.305
54808W        W20068  12.224  19.058   1.224
54809W        W20069  25.177  11.399   1.695
54810W        W20070  35.594  33.083   3.607
54811W        W20071  35.409  25.619  12.476
54812W        W20072   8.816  38.604   2.853
54813W        W20073   3.414  34.357   1.444
54814W        W20074  44.734  12.224   3.138
54815W        W20075  41.347   2.208   1.754
54816W        W20076  30.250  36.429   3.817
54817W        W20077   4.441  15.622  13.812
54818W        W20078  18.038  44.201   3.171
54819W        W20079  18.463   3.736   1.930
54820W        W20080  26.108  24.039   2.193
54821W        W20081  41.513  10.233  12.893
54822W        W20082   2.411  36.550   3.280
54823W        W20083  17.230  30.839  12.103
54824W        W20084  24.935  28.683   0.788
54825W        W20085   7.424  30.499  10.161
54826W        W20086  40.968  26.771  12.940
54827W        W20087  30.534  26.598   2.130
54828W        W20088   9.610  41.339   4.605
54829W        W20089  25.629  43.408  13.955
54830W        W20090   1.211  38.347  13.614
54831W        W20091  37.055  37.617  14.354
54832W        W20092  35.593  11.216   3.050
54833W        W20093  14.293   3.017  12.068
54834W        W20094  33.020  43.673  14.812
54835W        W20095  40.095  27.164  13.934
54836W        W20096  24.162  42.445  12.443
54837W        W20097  10.720  17.000   0.782
54838W        W20098  29.136  17.872   2.385
54839W        W20099  30.548  38.499  14.873
54840W        W20100  23.454   4.882  13.525
54841W        W20101  41.603  20.854  11.670
54842W        W20102  26.229  36.129  14.217
54843W        W20103  31.479  43.076  13.471
54844W        W20104  19.607  43.192   4.760
54845W        W20105  21.169   5.193   3.179
54846W        W20106   8.293  21.962   2.310
54847W        W20107  15.270  22.323   0.291
54848W        W20108  39.059  38.361  12.046
54849W        W20109   1.347  19.934   2.785
54850W        W20110  28.603  22.379  13.866
54851W        W20111   7.164  38.412  14.881
54852W        W20112  44.262  20.711  14.344
54853W        W20113  19.746  10.384   1.875
54854W        W20114  29.589  14.794  12.596
54855W        W20115   2.968   9.173  12.384
54856W        W20116  31.230  12.765   4.949
54857W        W20117  12.145  39.725   4.181
54858W        W20118   0.279  33.062  11.560
54859W        W20119  15.505   7.939  13.520
54860W        W20120   9.354  24.053   2.910
54861W        W20121  22.692   3.440  14.989
54862W        W20122  15.452  44.798   2.646
54863W        W20123  39.006  37.959   2.671
54864W        W20124   6.603  19.990  11.513
54865W        W20125  15.249   1.868   4.635
54866W        W20126   5.422  19.672  12.295
54867W        W20127  35.752  29.767  14.761
54868W        W20128  18.075  41.478   0.411
54869W        W20129  31.725  14.724  11.245
54870W        W20130  44.551   1.169   0.979
54871W        W20131  36.421   3.447   2.342
54872W        W20132  41.300  20.199  10.745
54873W        W20133   3.676  26.310  14.939
54874W        W20134  21.262   8.982  13.955
54875W        W20135  30.126  13.600  11.010
54876W        W20136  21.204   1.591   4.669
54877W        W20137  25.207  20.505  12.996
54878W        W20138  44.994  36.061  14.498
54879W        W20139  28.388   0.701   0.500
54880W        W20140   4.215  36.079  12.459
54881W        W20141  37.465   7.569  11.116
54882W        W20142  18.112  43.049  11.392
54883W        W20143  19.737  37.077  13.439
54884W        W20144   8.203  38.829   1.840
54885W        W20145  36.130  20.060  11.194
54886W        W20146  10.573  43.115   4.939
54887W        W20147  31.250  28.025   4.072
54888W        W20148  14.261  24.464   0.247
54889W        W20149  17.563  40.007   2.328
54890W        W20150   2.229   6.998   4.135
54891W        W20151  22.665   3.293  14.460
54892W        W20152  41.141  34.518  14.919
54893W        W20153  18.683  27.218   1.991
54894W        W20154  42.588  30.175  13.703
54895W        W20155  24.493  22.054   3.246
54896W        W20156   3.669   0.988  13.328
54897W        W20157   2.482  33.202  14.624
54898W        W20158  28.542  30.954  14.357
54899W        W20159  18.000   0.956  13.960
54900W        W20160  14.602  38.981  12.880
54901W        W20161  31.709  14.156  11.486
54902W        W20162  13.311  29.093   1.951
54903W        W20163  16.929  41.531  12.431
54904W        W20164  23.127  14.837  12.949
54905W        W20165  27.631  21.325  13.880
54906W        W20166  33.099  19.036  11.993
54907W        W20167  21.922  18.471  11.997
54908W        W20168   9.968  26.698   4.183
54909W        W20169  11.168  28.127   0.229
54910W        W20170  30.608  38.496  13.709
54911W        W20171   5.013  42.213   2.699
54912W        W20172  34.834  30.973   4.491
54913W        W20173  42.044  26.551  11.524
54914W        W20174  40.811  38.345  14.761
54915W        W20175   8.901   6.679  11.443
54916W        W20176  44.309  39.415   2.418
54917W        W20177  44.185  13.304  11.392
54918W        W20178  35.529  18.997   3.134
54919W        W20179  14.823  22.155   1.009
54920W        W20180  32.226  20.290  12.885
54921W        W20181  19.191  24.001  10.266
54922W        W20182  43.442  39.386  14.814
54923W        W20183  25.147  33.742   0.715
54924W        W20184  40.783  25.680   4.144
54925W        W20185  17.785  36.087   1.331
54926W        W20186  38.359  32.867  11.512
54927W        W20187  17.759  25.224  11.633
54928W        W20188  13.386   6.434  10.644
54929W        W20189  31.667  26.217  14.160
54930W        W20190   5.670   5.217  14.441
54931W        W20191  17.026  40.224   0.126
54932W        W20192  17.694  39.067   2.826
54933W        W20193  43.322  23.256  12.392
54934W        W20194  14.229  41.574   2.825
54935W        W20195  29.584  14.763   2.384
54936W        W20196  13.176  18.629  12.641
54937W        W20197   2.442   8.426  10.251
54938W        W20198  28.984  24.254   2.706
54939W        W20199  12.326  23.152   1.655
54940W        W20200   4.118  43.254  11.271
54941W        W20201   3.215   0.203   4.582
54942W        W20202  27.661   2.331  13.472
54943W        W20203  14.975  17.292  11.016
54944W        W20204   7.144   1.872   2.616
54945W        W20205  19.106  37.433   0.803
54946W        W20206  36.868   1.693  14.414
54947W        W20207  15.803   8.651  11.064
54948W        W20208  41.524  17.831  13.580
54949W        W20209  11.566  36.441  10.733
54950W        W20210  31.185  23.733  11.719
54951W        W20211  27.164  20.103  11.631
54952W        W20212  43.342   1.993  13.793
54953W        W20213   7.900  41.163   1.695
54954W        W20214   9.345  33.420  13.283
54955W        W20215   4.933  40.290   1.614
54956W        W20216  42.345  41.416  12.089
54957W        W20217  42.758   9.807  14.356
54958W        W20218  24.022  23.811   1.244
54959W        W20219  22.020  42.996  11.715
54960W        W20220  26.828   9.695   2.372
54961W        W20221  17.686   5.233  11.523
54962W        W20222  44.756   9.181   3.421
54963W        W20223  20.540  14.531   3.095
54964W        W20224   7.107  38.294  10.771
54965W        W20225  15.706  23.542  13.481
54966W        W20226  19.975  22.263   0.838
54967W        W20227   1.781  33.464   4.633
54968W        W20228  35.448  34.881  14.091
54969W        W20229   4.073   2.591  14.792
54970W        W20230   3.417   7.751  10.548
54971W        W20231   9.194   3.387  11.004
54972W        W20232  19.606  43.635   5.050
54973W        W20233   5.530   6.400   2.625
54974W        W20234   8.394   2.641  11.707
54975W        W20235   3.289  21.600  10.783
54976W        W20236  26.560  42.232   4.598
54977W        W20237   2.933  39.911  10.930
54978W        W20238   9.500  31.250   9.669
54979W        W20239  28.954  36.491  11.593
54980W        W20240  35.073   7.676   2.350
54981W        W20241  37.820   2.748   0.351
54982W        W20242  17.761  25.793  14.961
54983W        W20243   5.325   4.208   0.760
54984W        W20244  30.450   2.370   3.662
54985W        W20245  42.380  37.698  14.569
54986W        W20246  21.782  18.573   4.666
54987W        W20247   0.320  38.096   4.492
54988W        W20248  28.231   5.620  11.617
54989W        W20249  12.721   1.333  13.183
54990W        W20250  34.811   8.107   1.888
54991W        W20251  20.627  23.101  10.662
54992W        W20252  37.569  19.181   4.878
54993W        W20253   0.804  13.124   1.054
54994W        W20254  24.614   2.340   3.147
54995W        W20255  43.002  23.424   3.766
54996W        W20256  23.646  36.320   3.277
54997W        W20257  41.396  12.403  12.059
54998W        W20258  16.702  37.814  11.369
54999W        W20259  34.832  29.740  10.780
55000W        W20260  10.244  13.103  13.915
55001W        W20261  33.178  26.888   1.389
55002W        W20262   8.338   1.518   2.709
55003W        W20263  12.152  26.693   0.239
55004W        W20264  33.175   6.212  13.333
55005W        W20265  28.982  14.315  11.637
55006W        W20266  32.755  23.997  13.130
55007W        W20267   4.465   5.720   1.128
55008W        W20268   8.837  29.937  13.301
55009W        W20269   4.324   9.235  12.928
55010W        W20270  12.371   2.138   2.260
55011W        W20271   6.369  16.288  11.579
55012W        W20272  40.963  14.759   4.105
55013W        W20273  16.323   0.011  11.439
55014W        W20274   6.460  35.752   2.736
55015W        W20275  35.157  18.227   1.361
55016W        W20276  34.655  35.082   2.966
55017W        W20277  41.500  18.038  14.062
55018W        W20278  29.529   8.709  14.722
55019W        W20279   1.033  40.531   1.988
55020W        W20280  44.447  14.891  11.058
55021W        W20281  22.382  41.010   3.151
55022W        W20282  30.933  10.597   1.949
55023W        W20283   3.028  41.249  10.974
55024W        W20284  17.287  31.150  10.139
55025W        W20285  29.198  30.323   0.708
55026W        W20286  42.865  35.827   1.201
55027W        W20287  11.271  24.673   2.284
55028W        W20288  13.337   0.313   4.997
55029W        W20289   7.216  33.385   4.259
55030W        W20290  30.856  14.221   0.304
55031W        W20291  20.123   0.693  11.555
55032W        W20292   8.302  26.558  13.012
55033W        W20293  11.787  23.778  13.799
55034W        W20294   1.236  13.169  12.812
55035W        W20295   2.873  33.106  13.679
55036W        W20296  10.477  16.822   2.470
55037W        W20297  19.698  35.968   1.696
55038W        W20298  38.539   4.460  12.338
55039W        W20299  25.043  26.126  10.632
55040W        W20300  31.521   4.144   2.292
55041W        W20301  27.645  19.444   3.332
55042W        W20302   4.240  13.239   1.891
55043W        W20303   2.558  42.671  11.671
55044W        W20304  17.318  44.266   1.758
55045W        W20305  27.015  30.093   1.812
55046W        W20306  10.208   5.857  13.373
55047W        W20307  30.704  26.766   4.674
55048W        W20308  11.767   9.177  13.453
55049W        W20309  16.773  13.190  13.192
55050W        W20310  39.478   2.242  11.655
55051W        W20311  12.640  31.942   4.852
55052W        W20312  18.514  24.615  13.025
55053W        W20313  39.891   0.491  11.972
55054W        W20314  31.412  41.557  13.527
55055W        W20315   0.617  35.668  11.979
55056W        W20316  22.605  24.705   2.106
55057W        W20317  18.774   5.665   2.423
55058W        W20318   5.439  18.624   2.274
55059W        W20319  22.661  21.214  13.375
55060W        W20320  35.302  24.457  10.298
55061W        W20321   8.121  25.186  11.137
55062W        W20322  11.191  44.816  10.691
55063W        W20323   6.448  13.865  11.973
55064W        W20324   5.492  10.792  12.476
55065W        W20325  28.455   8.485   0.324
55066W        W20326   4.403  24.047   4.400
55067W        W20327   6.549   4.898  10.244
55068W        W20328  41.528   8.661   3.691
55069W        W20329  38.256  42.659   4.266
55070W        W20330  31.497   6.973  12.030
55071W        W20331  17.724  15.573   3.113
55072W        W20332  35.940  18.970   4.089
55073W        W20333  21.527  24.726   0.832
55074W        W20334  26.864  36.614   0.162
55075W        W20335   5.503  25.172  12.477
55076W        W20336   5.320  14.633  12.651
55077W        W20337  11.756  11.271   1.849
55078W        W20338  22.821   8.205   0.456
55079W        W20339   7.814  18.787  14.928
55080W        W20340   3.148  11.121   3.250
55081W        W20341   2.704  21.942   4.666
55082W        W20342  38.421   2.622   1.314
55083W        W20343  21.068  14.544   4.300
55084W        W20344  30.609  13.580  14.079
55085W        W20345   2.803  14.179  14.843
55086W        W20346  42.308  14.134  12.696
55087W        W20347  15.164  11.715  14.338
55088W        W20348  27.146  10.809   2.857
55089W        W20349  32.904  38.513   3.388
55090W        W20350  34.292  13.397  12.151
55091W        W20351   3.464  39.357  13.906
55092W        W20352  14.642   8.671   0.397
55093W        W20353  36.123  32.411  13.866
55094W        W20354  21.421   0.964  14.107
55095W        W20355  43.373  18.685  12.059
55096W        W20356  43.026  40.533  13.107
55097W        W20357  36.911  21.336  14.100
55098W        W20358  26.506  44.282  11.480
55099W        W20359  25.151   9.213  12.076
55100W        W20360   2.847  23.498  14.803
55101W        W20361  16.638   4.213   1.851
55102W        W20362  20.339   2.733   2.211
55103W        W20363  37.524   7.098  10.303
55104W        W20364   5.818  33.528  11.523
55105W        W20365   7.777   9.211  12.657
55106W        W20366   0.846  25.910   1.327
55107W        W20367  36.071  13.633   2.715
55108W        W20368   7.679  23.636   3.048
55109W        W20369   0.061   4.323   4.071
55110W        W20370  26.705  36.888  10.222
55111W        W20371  30.036  28.933  10.340
55112W        W20372  36.140  33.107  11.126
55113W        W20373   5.716  19.630   4.978
55114W        W20374  12.202  25.219   2.394
55115W        W20375   3.333  18.020  11.150
55116W        W20376  23.692  43.366   3.882
55117W        W20377  29.806   6.463   0.706
55118W        W20378  37.760  25.577   0.686
55119W        W20379   3.234  36.373  10.726
55120W        W20380  26.982   7.261  12.220
55121W        W20381  16.767  12.138   1.289
55122W        W20382  17.538  29.228  14.979
55123W        W20383  27.546  34.873   2.120
55124W        W20384   1.376  28.171   4.180
55125W        W20385   2.536  18.406   4.549
55126W        W20386  11.153  18.770  11.528
55127W        W20387  37.736  23.098  10.665
55128W        W20388  38.946  21.541  10.099
55129W        W20389  41.955  33.664  14.390
55130W        W20390  17.729   9.603   0.285
55131W        W20391  10.923   0.874  11.135
55132W        W20392  24.575  35.074  10.276
55133W        W20393  16.049  16.579   3.331
55134W        W20394  32.963  36.337   1.340
55135W        W20395  38.107  40.567   3.809
55136W        W20396  28.122  18.962  14.827
55137W        W20397  41.344   6.247  11.900
55138W        W20398  32.986  26.253  12.905
55139W        W20399  12.401  10.617   0.773
55140W        W20400  33.646  38.816  13.900
55141W        W20401   5.636  36.895   0.890
55142W        W20402  25.783   6.488   3.439
55143W        W20403  29.663  14.853   0.935
55144W        W20404  36.650   7.268   3.176
55145W        W20405  12.336  20.771   2.254
55146W        W20406  27.545  17.849  12.952
55147W        W20407   5.468  14.292   1.337
55148W        W20408  11.168  34.494  11.875
55149W        W20409  23.800  16.944   0.046
55150W        W20410  25.765  29.479  12.852
55151W        W20411  30.658  23.566  14.000
55152W        W20412   1.674  28.324  13.757
55153W        W20413  41.455  33.071   3.676
55154W        W20414   0.458  40.051   4.433
55155W        W20415   5.602  24.689   3.371
55156W        W20416  12.106  19.496  11.090
55157W        W20417  29.400  37.011   3.301
55158W        W20418   5.315  44.992  13.063
55159W        W20419   7.284   5.322  10.554
55160W        W20420   4.951  40.484   1.143
55161W        W20421  20.240  42.933   1.903
55162W        W20422  24.445  35.929  13.983
55163W        W20423  24.069  25.071   3.248
55164W        W20424   2.104  27.166   5.567
55165W        W20425  26.186  23.516   1.990
55166W        W20426  38.419  41.530   1.714
55167W        W20427  44.280   9.218  10.141
55168W        W20428  15.305  10.295  12.160
55169W        W20429  19.369  28.994   0.367
55170W        W20430   3.804  11.322   0.404
55171W        W20431   5.300   2.831  12.951
55172W        W20432  21.408  38.833  13.790
55173W        W20433  11.168  37.569  13.868
55174W        W20434  11.754  44.995  14.240
55175W        W20435  30.681   6.334   3.927
55176W        W20436   9.953  31.240  11.154
55177W        W20437  18.857  20.012   0.161
55178W        W20438  32.443   8.274  13.894
55179W        W20439  20.569  15.831  12.809
55180W        W20440  31.150  38.565   0.466
55181W        W20441  39.897  30.522   4.249
55182W        W20442   1.319  17.140  13.799
55183W        W20443  14.464   7.610  13.632
55184W        W20444  38.133  43.825   1.827
55185W        W20445  24.880  28.405  11.271
55186W        W20446  26.373   8.901   4.090
55187W        W20447  17.797   6.630   3.614
55188W        W20448   8.799  23.201  14.475
55189W        W20449  26.063  19.345   0.008
55190W        W20450   7.401  44.970   2.282
55191W        W20451  14.746  11.275   0.471
55192W        W20452   3.169  32.652   3.781
55193W        W20453  43.790   9.381  12.190
55194W        W20454  14.208  27.504   0.428
55195W        W20455  35.519  26.052   4.773
55196W        W20456   8.143   5.178   3.369
55197W        W20457   8.133  38.940  13.951
55198W        W20458  37.783  24.031  11.647
55199W        W20459   5.679  43.487   0.821
55200W        W20460  41.195  24.096   4.701
55201W        W20461  13.362   7.663   0.769
55202W        W20462  41.531  27.903   2.432
55203W        W20463  14.586   8.935  14.924
55204W        W20464  33.765   1.062   9.556
55205W        W20465  33.484  14.210   1.810
55206W        W20466  11.434  34.529  12.325
55207W        W20467  14.102  44.098  12.969
55208W        W20468  29.387  29.133   1.812
55209W        W20469  14.284  10.776  12.997
55210W        W20470   4.504  22.518  14.435
55211W        W20471  23.770   6.793   0.913
55212W        W20472   2.286  19.786  14.769
55213W        W20473  37.498  33.344   0.003
55214W        W20474  38.782  37.546  14.003
55215W        W20475  34.127  40.426  13.841
55216W        W20476  15.528  14.827   2.853
55217W        W20477  24.186  36.006  11.778
55218W        W20478  14.096   3.458  11.897
55219W        W20479  35.428  16.834   1.097
55220W        W20480  13.878  34.255   3.807
55221W        W20481  30.837  41.110   2.732
55222W        W20482  10.171  30.874  14.611
55223W        W20483  40.484   1.336   0.658
55224W        W20484  37.866  24.890  14.100
55225W        W20485  35.123  37.420  12.422
55226W        W20486  13.593  25.672   3.738
55227W        W20487   3.601   1.090  14.846
55228W        W20488  23.929   7.944  12.087
55229W        W20489   0.341   8.850   2.867
55230W        W20490  33.039  36.102  10.806
55231W        W20491  42.749  37.766   0.363
55232W        W20492  40.520  29.209   1.301
55233W        W20493  41.106   4.619   0.272
55234W        W20494  13.355   8.736  11.032
55235W        W20495  13.139  33.781   5.125
55236W        W20496  19.878   6.217  13.084
55237W        W20497  36.476  12.234  14.923
55238W        W20498  30.445  15.239   4.598
55239W        W20499  44.173  27.537   0.883
55240W        W20500  11.681  30.911   2.702
55241W        W20501  34.098  14.629  10.846
55242W        W20502  15.424  34.347   2.347
55243W        W20503  30.230  39.778  12.608
55244W        W20504  37.086  31.657   2.345
55245W        W20505  36.483  23.651   3.216
55246W        W20506  10.788  26.443   2.112
55247W        W20507   2.809   8.812   4.563
55248W        W20508   7.360  43.078  13.060
55249W        W20509   7.436   6.139   0.736
55250W        W20510  25.932  26.937   2.902
55251W        W20511  23.184  42.010  14.919
55252W        W20512  40.383  17.347  14.037
55253W        W20513   6.868  40.042  12.352
55254W        W20514  31.929  40.250   0.247
55255W        W20515  41.387   2.920  11.485
55256W        W20516  20.478  22.217  13.131
55257W        W20517  29.742  44.759  11.973
55258W        W20518  20.815  14.186  12.944
55259W        W20519  14.763  41.003  12.472
55260W        W20520   2.908  23.126  10.651
55261W        W20521  27.609  17.100   0.843
55262W        W20522   9.368  36.697  14.997
55263W        W20523   0.395  22.599  13.385
55264W        W20524   8.549   7.490  12.804
55265W        W20525   4.361  16.560  12.388
55266W        W20526  38.949  10.183  14.928
55267W        W20527  41.463  41.433  14.916
55268W        W20528  24.484  18.770   3.550
55269W        W20529  27.212  39.962   2.156
55270W        W20530  31.252  25.176   2.186
55271W        W20531  24.045  31.012  10.634
55272W        W20532  17.324  20.052  12.502
55273W        W20533   4.440  26.267   0.283
55274W        W20534  25.117   6.492   2.848
55275W        W20535  39.236  20.682  10.189
55276W        W20536  44.366  23.117  10.438
55277W        W20537  14.094  14.344  14.514
55278W        W20538   3.632  33.462   3.115
55279W        W20539   8.511  32.536  10.729
55280W        W20540  41.138   7.244  10.604
55281W        W20541  42.986  38.376  14.143
55282W        W20542  33.939  23.176   1.946
55283W        W20543  33.982  38.555  14.218
55284W        W20544   6.181  34.100  11.624
55285W        W20545  30.509  27.180  11.018
55286W        W20546  21.980  35.690  14.577
55287W        W20547  10.824  38.517  10.662
55288W        W20548  44.727  23.573   4.191
55289W        W20549  33.368  35.617   3.177
55290W        W20550  25.086   8.351  13.070
55291W        W20551  36.870  28.598   2.135
55292W        W20552  14.057  42.699   4.128
55293W        W20553  33.638  28.624   0.835
55294W        W20554  21.153  34.903   1.133
55295W        W20555  44.553  17.155   4.125
55296W        W20556   5.681   7.659   3.230
55297W        W20557   8.901  43.469   2.551
55298W        W20558  21.094  31.460   5.014
55299W        W20559   3.792  14.825   0.850
55300W        W20560  32.159  41.165   4.550
55301W        W20561  34.375  35.803   1.515
55302W        W20562  13.505  31.926  12.871
55303W        W20563  12.396  26.045  11.597
55304W        W20564  15.936  21.773   1.831
55305W        W20565  28.345  31.771  13.888
55306W        W20566  29.274  17.389   4.181
55307W        W20567  42.147   2.760  11.958
55308W        W20568  23.236  10.661  12.382
55309W        W20569  36.570  17.833   0.346
55310W        W20570   6.747  36.721  13.830
55311W        W20571   5.303  34.665   4.343
55312W        W20572  20.281   3.069   4.317
55313W        W20573  23.492  36.815   3.312
55314W        W20574   7.765  23.596  11.544
55315W        W20575  34.306  32.978   1.310
55316W        W20576  41.350  25.605   0.905
55317W        W20577   8.674  25.057  13.906
55318W        W20578  21.643  38.637  12.819
55319W        W20579  40.960  20.048  11.093
55320W        W20580  19.180  17.755  14.420
55321W        W20581  42.507   5.279  14.398
55322W        W20582  41.827  43.437   4.609
55323W        W20583   3.077  36.826   0.705
55324W        W20584  19.786  39.798  12.233
55325W        W20585  11.176   9.093  14.920
55326W        W20586  31.928   7.224  12.143
55327W        W20587  34.116   5.767  13.663
55328W        W20588  10.601   4.900  13.336
55329W        W20589   0.444   3.839   2.898
55330W        W20590  26.042  10.754  14.552
55331W        W20591  10.778  16.672   3.344
55332W        W20592  41.558  13.740  14.108
55333W        W20593  36.485  26.677   2.260
55334W        W20594   7.214  35.847  13.083
55335W        W20595  22.233   0.760  11.496
55336W        W20596  31.558  31.525  12.136
55337W        W20597  14.220  22.119  14.773
55338W        W20598  40.450  36.817   2.782
55339W        W20599  31.327  26.070  14.950
55340W        W20600  16.784   2.310  10.766
55341W        W20601   2.583  14.189   1.147
55342W        W20602   4.049  23.807   1.442
55343W        W20603  17.355   4.724  14.012
55344W        W20604   3.423  42.942   4.300
55345W        W20605   7.195  13.400   4.551
55346W        W20606   6.017  25.153  14.609
55347W        W20607  40.598   4.675  11.268
55348W        W20608   0.862  34.879   3.697
55349W        W20609  17.274  34.006  11.907
55350W        W20610  18.818  11.837  11.131
55351W        W20611  40.518  11.268  14.439
55352W        W20612  24.095   0.727   4.443
55353W        W20613   0.525  15.083   1.363
55354W        W20614  29.492  22.176   4.626
55355W        W20615   6.880  42.711   1.939
55356W        W20616   9.157  30.217  11.071
55357W        W20617  23.961  10.262  12.556
55358W        W20618  21.313  12.690  14.378
55359W        W20619  10.810  10.816  11.205
55360W        W20620  23.257  21.083  12.701
55361W        W20621  32.891  26.429   1.331
55362W        W20622  39.351   3.201  14.748
55363W        W20623  14.415  32.063  10.747
55364W        W20624  14.596   7.396  10.275
55365W        W20625   0.257  42.262   3.418
55366W        W20626  20.329   4.791  14.631
55367W        W20627  40.858  44.745   1.864
55368W        W20628  16.207  41.396   2.594
55369W        W20629  30.122  25.294   2.815
55370W        W20630  21.743   6.976  13.387
55371W        W20631   0.795  27.522  14.410
55372W        W20632   5.772   6.219   0.371
55373W        W20633  11.193   3.384   1.499
55374W        W20634  12.371  26.285   4.669
55375W        W20635  16.321   1.444   1.431
55376W        W20636   3.650   5.115  11.111
55377W        W20637  19.995  14.146  10.540
55378W        W20638  26.522  20.997   3.272
55379W        W20639   2.801  31.514   2.721
55380W        W20640  39.839  10.817  14.537
55381W        W20641  37.507  24.910   0.520
55382W        W20642  27.612  43.650  10.486
55383W        W20643  15.635  39.866   3.888
55384W        W20644   5.319  41.959  11.922
55385W        W20645   1.240  18.010  14.306
55386W        W20646  36.474  42.906   3.185
55387W        W20647  34.003  41.631  14.825
55388W        W20648  25.301  26.923   2.240
55389W        W20649  42.905  22.517   0.878
55390W        W20650  28.488   5.804  14.943
55391W        W20651  38.146   9.004  14.327
55392W        W20652   8.680  32.984  10.912
55393W        W20653   8.855  34.986   5.136
55394W        W20654   9.683  19.483  12.835
55395W        W20655  21.795  22.813   1.882
55396W        W20656  20.595  37.439  14.296
55397W        W20657  17.537  13.618   0.443
55398W        W20658  17.936   2.538   3.486
55399W        W20659  11.818   1.027   0.389
55400W        W20660  32.582  35.842   1.587
55401W        W20661  24.410   3.251   0.846
55402W        W20662   9.297  18.642   3.907
55403W        W20663  39.921  38.980  14.508
55404W        W20664  21.287  27.455  11.135
55405W        W20665  44.202  16.666  12.156
55406W        W20666   7.950  16.470   3.299
55407W        W20667  40.549  12.365  11.134
55408W        W20668  21.715  41.477  11.179
55409W        W20669   8.906  42.385   4.135
55410W        W20670  16.566  33.742   3.315
55411W        W20671  14.322  18.468   1.442
55412W        W20672   6.802   3.787   4.413
55413W        W20673  24.004  31.936  14.094
55414W        W20674  15.890  33.330  11.607
55415W        W20675  43.067  19.368  13.187
55416W        W20676  17.302  39.292  10.038
55417W        W20677   4.463  15.655   2.431
55418W        W20678  20.276  13.727   4.175
55419W        W20679  20.061  23.676  12.865
55420W        W20680  28.541  30.669   1.833
55421W        W20681  19.533   5.397   0.361
55422W        W20682   6.793  37.787   4.598
55423W        W20683  34.454  26.454  13.366
55424W        W20684  32.103  27.607   5.009
55425W        W20685  14.155  14.129  13.131
55426W        W20686  23.521  40.905   3.927
55427W        W20687  17.980  29.032  13.206
55428W        W20688  17.799  12.766  11.151
55429W        W20689  16.807  25.006   0.460
55430W        W20690   7.324  15.741   4.621
55431W        W20691  31.131  29.488  12.354
55432W        W20692  37.567  11.529   4.239
55433W        W20693  17.274  29.937  13.901
55434W        W20694  33.931  21.609   4.475
55435W        W20695  27.240  20.181  13.113
55436W        W20696  28.679   3.704  10.622
55437W        W20697  39.386  23.884   0.466
55438W        W20698   7.120  35.935  14.840
55439W        W20699  30.370  36.383   4.917
55440W        W20700  40.810  33.589   3.247
55441W        W20701  24.018   7.801   3.645
55442W        W20702   6.028  41.335   0.271
55443W        W20703  39.831  29.999   4.070
55444W        W20704  35.854  41.467   1.120
55445W        W20705  14.590  30.865  11.155
55446W        W20706  13.850   6.737  11.560
55447W        W20707  33.966  14.668  13.663
55448W        W20708  39.533   1.640  10.708
55449W        W20709  25.864  20.482  12.201
55450W        W20710  36.451  32.234  13.028
55451W        W20711  41.407   7.599  12.577
55452W        W20712  43.562  40.017  13.008
55453W        W20713   9.271  44.923  13.299
55454W        W20714  39.234  41.033   4.612
55455W        W20715  37.154  29.261   4.142
55456W        W20716  21.403  17.697   2.957
55457W        W20717   8.961  19.564  12.364
55458W        W20718  30.160   6.327   2.639
55459W        W20719  13.253  42.586  13.914
55460W        W20720  13.737  12.217   2.142
55461W        W20721   0.140  20.313  11.135
55462W        W20722  23.182  28.758   3.822
55463W        W20723   1.526  12.902   4.991
55464W        W20724  19.545   1.801  11.235
55465W        W20725   9.392  29.016   4.134
55466W        W20726  43.462   3.143   5.499
55467W        W20727   8.079  18.673  11.722
55468W        W20728  38.804  31.678   0.470
55469W        W20729  44.279  29.748  13.306
55470W        W20730  40.523  19.251  12.516
55471W        W20731  11.259   8.981   1.212
55472W        W20732  14.289  15.684  13.010
55473W        W20733   0.848  29.541   2.207
55474W        W20734  14.081  15.012   3.648
55475W        W20735  26.453  22.430  11.496
55476W        W20736  43.913  13.665  11.649
55477W        W20737  10.028  37.010   4.532
55478W        W20738  24.742  16.525   0.052
55479W        W20739  25.687  20.235   3.187
55480W        W20740  37.380  18.757   4.084
55481W        W20741  38.369  31.228   4.526
55482W        W20742  11.168   3.836   4.501
55483W        W20743  10.810  43.903   0.810
55484W        W20744  21.591  40.516   0.317
55485W        W20745  40.338  17.545   4.153
55486W        W20746   0.909  44.512  14.286
55487W        W20747  44.982   7.218   1.787
55488W        W20748  41.204   2.919   0.753
55489W        W20749  38.817   7.971   2.735
55490W        W20750  36.008  22.849  10.414
55491W        W20751  13.504  40.552  12.605
55492W        W20752  14.546  35.029  12.599
55493W        W20753  11.778  35.466   1.326
55494W        W20754  40.580  29.336  10.888
55495W        W20755  25.563  40.292   0.896
55496W        W20756   2.583  38.860   2.169
55497W        W20757  12.123  25.735   2.403
55498W        W20758  29.378  12.673   9.957
55499W        W20759  43.498  30.925   0.293
55500W        W20760  33.169  35.863  11.976
55501W        W20761  37.819  18.591  11.199
55502W        W20762  19.168  31.182   4.539
55503W        W20763  39.966   3.977   1.795
55504W        W20764   9.252  31.664  13.994
55505W        W20765   7.957  41.939   2.039
55506W        W20766  14.799   8.424  14.926
55507W        W20767  27.420  35.105   3.204
55508W        W20768  24.137  10.204   4.558
55509W        W20769  20.506  32.119   2.227
55510W        W20770  27.227   1.699   3.870
55511W        W20771  10.050  38.225  12.505
55512W        W20772  20.839  26.185   4.767
55513W        W20773  24.258  28.162  12.707
55514W        W20774  44.568  30.205  14.279
55515W        W20775  39.472  19.050  11.698
55516W        W20776  24.057  28.617   0.299
55517W        W20777   2.661  43.177   4.195
55518W        W20778  43.755  30.349   1.967
55519W        W20779   9.615  13.726   4.205
55520W        W20780  36.402  29.577  10.759
55521W        W20781  15.304  40.861   1.220
55522W        W20782  39.469  25.450  11.872
55523W        W20783  28.665  11.431  11.575
55524W        W20784  26.713  20.542   0.487
55525W        W20785  35.976  25.938  14.742
55526W        W20786  33.308  32.807   0.283
55527W        W20787  19.309  20.739   3.227
55528W        W20788  35.884  10.313  13.384
55529W        W20789  26.985  32.873   1.481
55530W        W20790  22.665   0.759   5.005
55531W        W20791   8.972  18.151   1.267
55532W        W20792  27.814   9.760  14.406
55533W        W20793  38.523  32.491  12.846
55534W        W20794  21.313  20.473   4.603
55535W        W20795  40.669   3.848   3.630
55536W        W20796  24.502  24.770   2.703
55537W        W20797  18.165  29.543   0.627
55538W        W20798  25.548  19.071   0.503
55539W        W20799  24.995  22.669   3.651
55540W        W20800  24.927  41.364   1.292
55541W        W20801  38.535  30.649   0.796
55542W        W20802  37.320  38.474   1.425
55543W        W20803  32.560  34.167  10.626
55544W        W20804  23.849  14.576  12.951
55545W        W20805  38.163  34.911  13.020
55546W        W20806  20.055  23.180  10.987
55547W        W20807  19.102  14.661   4.093
55548W        W20808  11.847  43.299  12.435
55549W        W20809  36.024  43.341   2.151
55550W        W20810  31.144  17.501  13.996
55551W        W20811  35.954  43.406   3.534
55552W        W20812  20.381  38.105  12.642
55553W        W20813  44.030  27.528  13.682
55554W        W20814  40.456   2.743  11.869
55555W        W20815  33.367   0.898   0.390
55556W        W20816   3.495  36.348   1.233
55557W        W20817  40.676  16.716   1.874
55558W        W20818  13.876  35.839  13.489
55559W        W20819  32.446  28.512   0.337
55560W        W20820  27.486  30.859   1.836
55561W        W20821  21.288  31.909   3.722
55562W        W20822  24.799  25.644   4.200
55563W        W20823  36.189  31.013  11.055
55564W        W20824  42.909  32.062   0.884
55565W        W20825  25.633  24.275  10.483
55566W        W20826  14.613  32.449  14.055
55567W        W20827  29.589  36.895   4.701
55568W        W20828  40.505  44.966   2.186
55569W        W20829  12.123  21.276   3.136
55570W        W20830   7.802  28.160   0.650
55571W        W20831  34.720  26.929   1.760
55572W        W20832  32.863  34.936   2.864
55573W        W20833   0.156   8.191  14.885
55574W        W20834  43.075  21.519   1.253
55575W        W20835  12.035   1.287   2.765
55576W        W20836  31.826   5.168   1.011
55577W        W20837  40.271   6.355  14.941
55578W        W20838  25.672   1.494   1.197
55579W        W20839  40.633   9.897   0.770
55580W        W20840  17.821   6.676   4.796
55581W        W20841  31.102  40.434   1.634
55582W        W20842  30.624  35.321  13.494
55583W        W20843  38.122   3.376  12.173
55584W        W20844  44.691   4.724  10.844
55585W        W20845  23.121   1.918   0.315
55586W        W20846  31.075  40.330  14.802
55587W        W20847  23.101   9.360   4.400
55588W        W20848   2.807  42.402   2.084
55589W        W20849  42.892  36.573   1.849
55590W        W20850  29.058   4.758   4.615
55591W        W20851  24.005   5.862   1.535
55592W        W20852   4.696  30.008  13.413
55593W        W20853  34.698   0.361   4.362
55594W        W20854  33.643   5.121  10.109
55595W        W20855   2.235  15.650  14.434
55596W        W20856  21.877  33.438  10.247
55597W        W20857  44.370   0.994  11.067
55598W        W20858  30.664  44.541  12.351
55599W        W20859  34.828  35.176   1.317
55600W        W20860   6.343  25.987  12.906
55601W        W20861  42.456  10.474   1.947
55602W        W20862  20.338  43.348   5.110
55603W        W20863   4.910   3.378   4.711
55604W        W20864   7.791  11.552  14.776
55605W        W20865  16.179   7.893  10.852
55606W        W20866  29.965   7.509  12.357
55607W        W20867  40.425  40.599  10.096
55608W        W20868   2.306  41.093  11.070
55609W        W20869  39.066   7.350   0.999
55610W        W20870  37.560  26.588  13.616
55611W        W20871  36.230  11.803   3.558
55612W        W20872  20.711  39.775  14.970
55613W        W20873   1.537   1.054  14.381
55614W        W20874   5.288  20.682  14.698
55615W        W20875   2.247  26.262  11.231
55616W        W20876   4.677  24.681  13.599
55617W        W20877   2.976  32.353  11.201
55618W        W20878  34.598  18.495   3.229
55619W        W20879  15.049  37.524  14.948
55620W        W20880  35.433  14.577  11.039
55621W        W20881  35.112  24.901  11.128
55622W        W20882  41.123  42.636  14.976
55623W        W20883  33.059  44.565   2.345
55624W        W20884   1.657  40.874   4.069
55625W        W20885  39.913   7.702  13.568
55626W        W20886  17.553  21.944   1.785
55627W        W20887  35.089  31.274  14.442
55628W        W20888  19.066  13.340   1.120
55629W        W20889  30.820  30.496   1.727
55630W        W20890  43.761  12.787   0.353
55631W        W20891  32.458  14.635  13.375
55632W        W20892  41.120  39.996  13.301
55633W        W20893  44.953   2.450   4.493
55634W        W20894  36.419  27.184   2.298
55635W        W20895  31.438   9.637   3.694
55636W        W20896   3.763  21.142   0.023
55637W        W20897  23.256  20.159  14.720
55638W        W20898  16.665   7.171  10.770
55639W        W20899  19.080  37.024   4.843
55640W        W20900  42.350  33.118   3.855
55641W        W20901  43.599  13.555   3.199
55642W        W20902   7.765   7.666  10.642
55643W        W20903  13.080  31.495   3.532
55644W        W20904  40.911  38.383   0.267
55645W        W20905  31.870  41.430   0.484
55646W        W20906  29.526  26.024  14.294
55647W        W20907  33.628  23.686  13.753
55648W        W20908   2.889   1.814   1.310
55649W        W20909  34.610  25.504   4.991
55650W        W20910  23.740  35.805   2.197
55651W        W20911   5.480   2.895  14.390
55652W        W20912  11.582   4.875   4.601
55653W        W20913  21.757   0.740  10.591
55654W        W20914   7.292  14.513   1.832
55655W        W20915  42.395  24.221  12.924
55656W        W20916  25.658  37.331   1.028
55657W        W20917  24.503  22.855   2.786
55658W        W20918  19.200  44.805   1.499
55659W        W20919  15.829  41.382  11.863
55660W        W20920   1.385  32.528   2.213
55661W        W20921  38.996  37.778   0.263
55662W        W20922  27.939  30.832   3.996
55663W        W20923  29.936  42.254  12.106
55664W        W20924   6.383  29.987   4.595
55665W        W20925  27.876   9.447  11.534
55666W        W20926  26.043  29.082   1.438
55667W        W20927  33.993  15.205  13.566
55668W        W20928   4.575  26.493  11.992
55669W        W20929   7.913  24.575  13.449
55670W        W20930  43.729  41.134  14.510
55671W        W20931  41.350  14.536  10.662
55672W        W20932   6.848  36.013  11.587
55673W        W20933  25.042  29.592   2.255
55674W        W20934   6.783  35.370   3.577
55675W        W20935  44.350  32.482   4.559
55676W        W20936  15.523   7.945   1.517
55677W        W20937  13.584  26.677   3.233
55678W        W20938   0.248  26.658  14.450
55679W        W20939  11.700  11.106  11.936
55680W        W20940  43.950  17.691   3.266
55681W        W20941   1.293  24.078   4.134
55682W        W20942   8.678  15.523   3.657
55683W        W20943  12.205  43.845  11.877
55684W        W20944   4.836  32.859  13.621
55685W        W20945  17.068  31.666   3.123
55686W        W20946   2.717  38.931   3.555
55687W        W20947  37.834  10.315   1.720
55688W        W20948   4.187  13.767   2.853
55689W        W20949  16.080  10.739  11.024
55690W        W20950   6.733  43.319   2.326
55691W        W20951   3.018  29.480  11.822
55692W        W20952  16.685  41.753  14.283
55693W        W20953   3.238   9.623   2.333
55694W        W20954  39.402  32.435   4.201
55695W        W20955  44.951   2.309   0.520
55696W        W20956  23.076  34.638   1.892
55697W        W20957  11.580  18.742  14.735
55698W        W20958  16.018  31.950   0.380
55699W        W20959  23.303  29.943   3.075
55700W        W20960  22.478  36.348  12.182
55701W        W20961  30.507  43.339   3.301
55702W        W20962   6.874  30.051  14.047
55703W        W20963   9.194  29.117   0.893
55704W        W20964  21.197  21.328  13.820
55705W        W20965  33.977   0.230   3.781
55706W        W20966  25.452   4.254   2.300
55707W        W20967  17.131  25.520  14.382
55708W        W20968  19.936   9.249   2.257
55709W        W20969  30.719  11.006  12.591
55710W        W20970   1.872   5.909   4.595
55711W        W20971  14.376   5.488   1.477
55712W        W20972  40.262  30.612  13.785
55713W        W20973  13.591  38.875   3.105
55714W        W20974  35.826  40.251   4.817
55715W        W20975  29.705  34.455   0.341
55716W        W20976  22.236  41.738   1.448
55717W        W20977  30.053  36.010  11.931
55718W        W20978   6.221  17.583  10.749
55719W        W20979  35.477  40.057  14.358
55720W        W20980  18.430   7.370  13.162
55721W        W20981  38.414  15.270   4.334
55722W        W20982  35.609  33.561   1.490
55723W        W20983  21.766  18.865  12.981
55724W        W20984   3.954  33.683  13.727
55725W        W20985   1.031  20.851  14.005
55726W        W20986   9.929  36.255  14.847
55727W        W20987  29.409   2.975  10.619
55728W        W20988  26.130  39.092   2.885
55729W        W20989  31.650  18.624   1.829
55730W        W20990  44.125  29.390  11.600
55731W        W20991  16.819   5.418  12.101
55732W        W20992   4.793  15.986  14.836
55733W        W20993  30.806  30.045   1.472
55734W        W20994  13.524  25.778   1.196
55735W        W20995  24.219   3.358  14.794
55736W        W20996  38.534   9.397  14.696
55737W        W20997  34.101  24.622   3.570
55738W        W20998  41.815  29.141  12.570
55739W        W20999  41.872  16.264   4.117
55740W        W21000  19.203  13.741   3.157
55741W        W21001  37.733   4.345   3.710
55742W        W21002  17.336  24.069   0.535
55743W        W21003  43.888   8.327  13.110
55744W        W21004   6.578  34.903   1.330
55745W        W21005  41.223  36.021   0.366
55746W        W21006  43.196  35.093   0.287
55747W        W21007   2.695  37.352   0.078
55748W        W21008  28.235  39.271   0.941
55749W        W21009  21.980   8.509  12.001
55750W        W21010  15.111  42.652  11.656
55751W        W21011  15.309  23.598   4.133
55752W        W21012  35.216  20.999   3.432
55753W        W21013  29.464   1.275   4.655
55754W        W21014  18.281  15.748  10.732
55755W        W21015  19.725  23.075   4.515
55756W        W21016  12.641  27.280  13.139
55757W        W21017  29.557  43.479   2.305
55758W        W21018  39.706  29.289   2.868
55759W        W21019  29.628  35.021   4.556
55760W        W21020  23.757  15.753  10.370
55761W        W21021  31.669  40.027   1.242
55762W        W21022   0.019  42.574  10.791
55763W        W21023  36.712   7.418   3.714
55764W        W21024  39.000   4.243  12.498
55765W        W21025  22.266   6.347  14.928
55766W        W21026  17.615  35.704   2.870
55767W        W21027   5.229   0.810   2.119
55768W        W21028   1.309  23.600  13.369
55769W        W21029  44.490   6.919  13.243
55770W        W21030   2.234   6.693   4.566
55771W        W21031  10.834  41.697   2.723
55772W        W21032  26.850  41.320   1.331
55773W        W21033   7.224   9.839   2.651
55774W        W21034   6.115  40.389  12.030
55775W        W21035  38.498  10.825   3.176
55776W        W21036  43.782  13.676   4.592
55777W        W21037   1.977  13.889  11.221
55778W        W21038  19.657   2.104   0.659
55779W        W21039  17.150  33.594   4.911
55780W        W21040  37.112  16.221  13.801
55781W        W21041  43.864  36.305   4.067
55782W        W21042  44.854  17.808   0.952
55783W        W21043  32.580  41.076   1.906
55784W        W21044  32.845   4.655   2.372
55785W        W21045  33.811  29.685  10.138
55786W        W21046   7.903   7.409  11.072
55787W        W21047  39.210  17.479  13.417
55788W        W21048  21.582   0.262   3.623
55789W        W21049  35.298   5.444   1.884
55790W        W21050  30.107  25.294   1.884
55791W        W21051  29.565   3.620  13.066
55792W        W21052  38.696  31.579  14.958
55793W        W21053  29.173  41.363   3.148
55794W        W21054   0.533  16.288   2.276
55795W        W21055  36.473   2.903  13.425
55796W        W21056  17.474   8.460  11.509
55797W        W21057  12.377   7.201   1.940
55798W        W21058  13.508  14.822   1.288
55799W        W21059  22.579  12.846  12.642
55800W        W21060  31.777  38.108   2.752
55801W        W21061   3.676  42.329   3.241
55802W        W21062   5.473  18.805   3.160
55803W        W21063  12.596  14.564  11.204
55804W        W21064  11.859  16.724  12.828
55805W        W21065   8.201  12.185   4.698
55806W        W21066  32.025  39.161  14.404
55807W        W21067  25.641  33.919  11.927
55808W        W21068  11.839   7.443   1.244
55809W        W21069   0.496  18.503   2.730
55810W        W21070  13.364  28.208  14.023
55811W        W21071  41.737  12.230  13.426
55812W        W21072  28.030   7.168   4.473
55813W        W21073  31.195   0.976   1.364
55814W        W21074   4.505  20.323   4.257
55815W        W21075  29.327  20.123   0.035
55816W        W21076  26.278  23.672   0.005
55817W        W21077  29.826  17.953   1.790
55818W        W21078  23.652   8.141   2.246
55819W        W21079  11.250   4.932   3.133
55820W        W21080  11.056  28.290  13.803
55821W        W21081  39.794  13.117  14.339
55822W        W21082   2.413  34.680  11.546
55823W        W21083   3.772   4.847  10.675
55824W        W21084  26.769   4.486  10.735
55825W        W21085   0.734  18.796   3.116
55826W        W21086   9.731   4.946   2.204
55827W        W21087  27.094  17.682  13.573
55828W        W21088  30.199  21.702   3.899
55829W        W21089  30.067  34.398  10.601
55830W        W21090  33.895  24.967   2.274
55831W        W21091  14.212  44.113  13.859
55832W        W21092  27.448  37.839  12.455
55833W        W21093  28.625  41.096   2.526
55834W        W21094  41.560   8.109   4.433
55835W        W21095  29.633  31.503   4.624
55836W        W21096  30.607  15.136  12.002
55837W        W21097  12.453  23.662   0.875
55838W        W21098  22.037  17.731   2.419
55839W        W21099  28.539  10.948  14.385
55840W        W21100  14.325   4.817  10.605
55841W        W21101  13.174  44.452   0.847
55842W        W21102  29.600  40.565  11.268
55843W        W21103  13.783   2.010   0.477
55844W        W21104  33.468  21.824  12.975
55845W        W21105  16.879  19.407   0.013
55846W        W21106   3.174  34.932   4.827
55847W        W21107   8.307  26.100   0.886
55848W        W21108   1.389  34.133   4.757
55849W        W21109  32.967  28.455  11.951
55850W        W21110  10.247  33.039  10.395
55851W        W21111  12.041   0.717   2.281
55852W        W21112  14.721  17.892  13.386
55853W        W21113   5.797  38.914  12.874
55854W        W21114  21.193  29.513   1.806
55855W        W21115  19.771   0.451  12.493
55856W        W21116  43.268   1.733   4.557
55857W        W21117   2.948  26.431   2.635
55858W        W21118  14.374  14.019   3.551
55859W        W21119  12.585  32.130  12.984
55860W        W21120  22.760   1.817   0.668
55861W        W21121   6.633  23.406   4.984
55862W        W21122   2.270  31.883   3.763
55863W        W21123  38.343  33.617  11.233
55864W        W21124   1.801  26.701  14.306
55865W        W21125  19.242  30.095   1.826
55866W        W21126   1.196  39.710   4.188
55867W        W21127   9.139   4.957  11.969
55868W        W21128  10.928  13.882  14.105
55869W        W21129   0.453   1.360   1.335
55870W        W21130  40.719  26.352  11.133
55871W        W21131  21.961  29.891   3.196
55872W        W21132   9.826   0.247   3.157
55873W        W21133  38.667  37.473   4.243
55874W        W21134  26.237   7.270   2.694
55875W        W21135  15.278  35.578  11.194
55876W        W21136  19.130  15.130  13.767
55877W        W21137  21.523   3.725   0.957
55878W        W21138  33.202  16.813   4.070
55879W        W21139  33.437  44.568   1.798
55880W        W21140  10.058  18.647  14.810
55881W        W21141  19.144  35.679   4.200
55882W        W21142   9.370  26.484  12.999
55883W        W21143  42.980  43.799   3.168
55884W        W21144  36.353  37.828  14.962
55885W        W21145  22.319  33.881   3.359
55886W        W21146  39.847  41.274   2.771
55887W        W21147   9.290  22.455   2.130
55888W        W21148  35.893  28.694   0.879
55889W        W21149   3.136  15.849  11.544
55890W        W21150  34.329  22.637   4.533
55891W        W21151  11.330  37.777  12.124
55892W        W21152  30.195   2.425  14.987
55893W        W21153  23.124  18.236  12.580
55894W        W21154  23.487  23.287   1.896
55895W        W21155  12.752  38.283  13.367
55896W        W21156  16.041  20.165  13.106
55897W        W21157  44.493  42.139   2.341
55898W        W21158   7.821  28.428   1.340
55899W        W21159  13.007  41.771   1.755
55900W        W21160  43.039  31.530   0.861
55901W        W21161  20.211  10.521   1.702
55902W        W21162  20.729  28.595  13.330
55903W        W21163   9.111  27.441  11.788
55904W        W21164  41.748  41.164  13.283
55905W        W21165  37.566  27.638   2.808
55906W        W21166  23.695  41.969  14.958
55907W        W21167   4.920  34.171   5.110
55908W        W21168   2.414   7.920   0.257
55909W        W21169  14.650  33.139   3.336
55910W        W21170  17.167  29.236   4.671
55911W        W21171  28.869   4.238   4.575
55912W        W21172   6.298  11.691   0.515
55913W        W21173  20.727  32.251  14.569
55914W        W21174  16.663  11.647  13.136
55915W        W21175  40.075  16.065  11.052
55916W        W21176  40.956  35.035  10.554
55917W        W21177  24.161  10.064   2.748
55918W        W21178  41.534   1.345  14.471
55919W        W21179  16.808  42.769   4.618
55920W        W21180   3.291  28.662  11.145
55921W        W21181  42.481   2.797   0.309
55922W        W21182   7.983  44.917   4.113
55923W        W21183  14.516   9.154  11.514
55924W        W21184  19.751   5.314   4.112
55925W        W21185  35.612  32.693   2.697
55926W        W21186   9.340  15.167  10.977
55927W        W21187  33.574  34.046   2.396
55928W        W21188  15.289  31.352   2.757
55929W        W21189  34.295   8.805   4.464
55930W        W21190  23.152  41.071   2.950
55931W        W21191  36.414  17.284  11.893
55932W        W21192  27.033   0.289  12.510
55933W        W21193  38.825  24.908  12.881
55934W        W21194   0.217   5.421   0.952
55935W        W21195   4.780   9.641   4.239
55936W        W21196   2.708   1.494  11.961
55937W        W21197  21.786  37.064   2.332
55938W        W21198  34.494   1.846   2.581
55939W        W21199  41.968  35.985  13.467
55940W        W21200  36.440  25.301  12.541
55941W        W21201  17.220  17.058   0.439
55942W        W21202  24.072  38.454   1.260
55943W        W21203  27.254  19.632   3.593
55944W        W21204   6.937  10.392   1.830
55945W        W21205  41.147  39.060  14.482
55946W        W21206  40.865  19.159   1.834
55947W        W21207  22.062  21.223   9.787
55948W        W21208  36.468   5.891   0.782
55949W        W21209  26.346  39.505  14.927
55950W        W21210  31.219  10.789   2.871
55951W        W21211  11.553  21.775  10.665
55952W        W21212  34.243   2.518   9.825
55953W        W21213  35.587   9.414   1.738
55954W        W21214   9.391  33.583  13.800
55955W        W21215  36.441  20.519   3.081
55956W        W21216  37.749  28.093   3.125
55957W        W21217  13.310  38.662   0.282
55958W        W21218  16.055  43.852   1.827
55959W        W21219  27.037  30.567  14.890
55960W        W21220  14.916  35.454   3.381
55961W        W21221  24.568  39.329  14.412
55962W        W21222   3.990  35.035  11.041
55963W        W21223  33.671  13.888  13.431
55964W        W21224  10.075  24.680   4.561
55965W        W21225   7.015  29.665  11.010
55966W        W21226   0.964  10.490  11.467
55967W        W21227  35.634  24.066  10.192
55968W        W21228  11.318  41.001   1.689
55969W        W21229  15.521  38.829   2.464
55970W        W21230   5.997  18.255  12.688
55971W        W21231   5.910  17.872   4.087
55972W        W21232  24.133  23.299   0.359
55973W        W21233  15.872  36.982   3.718
55974W        W21234  11.398  38.798  13.569
55975W        W21235  17.287  14.659  14.761
55976W        W21236  42.068   6.879   3.122
55977W        W21237  24.938   1.759  12.000
55978W        W21238  17.144   1.745   2.606
55979W        W21239   0.347  39.143   2.115
55980W        W21240  16.135  19.253  14.324
55981W        W21241  35.756  12.878   0.734
55982W        W21242  18.560  10.898  11.053
55983W        W21243   0.985  38.955  10.716
55984W        W21244  42.014   4.912   2.199
55985W        W21245  42.538  31.174   3.498
55986W        W21246  21.034  27.093  11.709
55987W        W21247  35.570  23.063  11.630
55988W        W21248   9.836  27.221  10.216
55989W        W21249  44.273  44.680   5.101
55990W        W21250  27.247  37.684  12.005
55991W        W21251  41.960   4.264  14.348
55992W        W21252   1.462  10.148  14.825
55993W        W21253   1.969  41.330  13.349
55994W        W21254  23.022  17.412   4.211
55995W        W21255  23.075  34.207   2.188
55996W        W21256   6.813   3.263  12.817
55997W        W21257  34.409  34.831  12.668
55998W        W21258  30.476  29.237  10.906
55999W        W21259  25.712  21.784   4.137
56000W        W21260  31.452   2.672   1.199
56001W        W21261  32.321   9.415  14.286
56002W        W21262   0.952  22.489  12.896
56003W        W21263  21.649  15.206  11.162
56004W        W21264   6.571  30.210   3.100
56005W        W21265  41.255  27.893  11.077
56006W        W21266  23.229  41.289   4.137
56007W        W21267  14.200  15.027   1.257
56008W        W21268   7.249  10.120  14.977
56009W        W21269  29.984  16.044  11.602
56010W        W21270   7.352  25.206   4.997
56011W        W21271  36.144   9.262  11.528
56012W        W21272  28.702  44.341   3.673
56013W        W21273   6.313  18.297  11.547
56014W        W21274  36.108  35.781   2.759
56015W        W21275   4.236   0.381  12.579
56016W        W21276  27.024  41.945  13.100
56017W        W21277  15.240  39.106   1.058
56018W        W21278  39.849   2.269   4.522
56019W        W21279  18.286  31.973   4.176
56020W        W21280  41.501   7.624  10.672
56021W        W21281  13.213   3.475   0.638
56022W        W21282  38.374  23.495   1.667
56023W        W21283  16.607   7.400   1.280
56024W        W21284  26.794   6.418  13.401
56025W        W21285  15.628  40.858   4.145
56026W        W21286  19.969  38.015  11.067
56027W        W21287  44.985  33.128   4.692
56028W        W21288  19.097  12.875   3.701
56029W        W21289  10.711  27.330  10.972
56030W        W21290  37.546  21.848   0.356
56031W        W21291   5.203  27.882  14.212
56032W        W21292  17.146  24.606  14.901
56033W        W21293  10.946  35.114   1.592
56034W        W21294  42.440  17.260   0.832
56035W        W21295   8.202  37.108  14.335
56036W        W21296  20.224  30.741   3.125
56037W        W21297  34.004  38.803  12.508
56038W        W21298  34.113  43.691   3.652
56039W        W21299   9.473  28.557  13.391
56040W        W21300  38.417  11.798   0.499
56041W        W21301   7.731  25.221   0.693
56042W        W21302   8.097  19.235  13.145
56043W        W21303   6.612  30.611  14.882
56044W        W21304   9.468   0.643   4.203
56045W        W21305   1.933  28.603   1.814
56046W        W21306   8.914  30.709   0.521
56047W        W21307  27.591   4.218  10.989
56048W        W21308   6.660   7.327  13.356
56049W        W21309   7.357  37.490  10.615
56050W        W21310  27.478  39.836   4.044
56051W        W21311  13.242  14.669   1.700
56052W        W21312   5.715   3.299  10.849
56053W        W21313  28.653  24.938  14.898
56054W        W21314  41.135   5.871   4.145
56055W        W21315   8.214  26.661   1.145
56056W        W21316  27.463   8.871   4.162
56057W        W21317  19.525   3.897  13.872
56058W        W21318  30.566  37.837   4.722
56059W        W21319   5.188  22.942  14.493
56060W        W21320  37.367  31.593   0.761
56061W        W21321  25.988  33.868   2.176
56062W        W21322   2.006  24.155  11.228
56063W        W21323  17.998   0.862  11.996
56064W        W21324  39.448   4.102  11.133
56065W        W21325  40.754  36.036  12.374
56066W        W21326  33.155  36.584  14.418
56067W        W21327   2.230  27.049   1.835
56068W        W21328   7.458  41.566  13.064
56069W        W21329  13.361  27.437   3.656
56070W        W21330  44.254  33.991   0.829
56071W        W21331   3.138  21.762   3.208
56072W        W21332  40.044  21.162   2.778
56073W        W21333  36.505  34.611  10.651
56074W        W21334  19.037  21.027   5.574
56075W        W21335  30.985  29.512  13.381
56076W        W21336  17.907  35.677   1.654
56077W        W21337  16.583   4.678   2.045
56078W        W21338  20.534  35.850   3.525
56079W        W21339  44.961  17.643  10.369
56080W        W21340  21.202   3.810  13.157
56081W        W21341  13.941  26.339   4.585
56082W        W21342  35.452  26.387   0.309
56083W        W21343  42.498  39.528   3.221
56084W        W21344  21.959  37.995  14.927
56085W        W21345  41.312  23.906  13.480
56086W        W21346  21.269  41.650   5.020
56087W        W21347  23.280  33.207   1.350
56088W        W21348  40.952  34.543   3.391
56089W        W21349  34.964   7.582  13.591
56090W        W21350   8.359  44.708   0.920
56091W        W21351  10.169   9.362   1.334
56092W        W21352  19.266  39.567  12.276
56093W        W21353  41.449  42.712  11.124
56094W        W21354  17.120   4.690  11.081
56095W        W21355  20.714  26.514   0.330
56096W        W21356  11.220  33.027  13.830
56097W        W21357  32.505  37.868   4.572
56098W        W21358  26.933   9.261   2.069
56099W        W21359  39.571   5.748   2.806
56100W        W21360  21.502  14.338  10.743
56101W        W21361   5.389  29.443   1.706
56102W        W21362  38.614  38.926   2.653
56103W        W21363  25.320  19.073   1.747
56104W        W21364  13.148   2.782   4.612
56105W        W21365   6.193  36.855   3.590
56106W        W21366  27.028  44.725  11.664
56107W        W21367  41.489  24.175   1.954
56108W        W21368  31.095   6.859   1.452
56109W        W21369  43.814   5.749  10.905
56110W        W21370   6.410   5.331  13.333
56111W        W21371  44.301  34.922   3.397
56112W        W21372  27.646   5.500   1.337
56113W        W21373  27.347  22.744  14.066
56114W        W21374  27.898   5.045   0.429
56115W        W21375  43.906   2.106  14.166
56116W        W21376   6.635   9.562   3.126
56117W        W21377   0.801  17.043  14.535
56118W        W21378  19.584  12.989   2.743
56119W        W21379  19.981  13.756  14.318
56120W        W21380  16.823  27.691   2.488
56121W        W21381  29.584   2.282  12.509
56122W        W21382  28.864  13.662  14.264
56123W        W21383  12.764  11.655   3.732
56124W        W21384  34.999  35.035  13.919
56125W        W21385  33.052   6.438   0.842
56126W        W21386  40.186   2.429  12.164
56127W        W21387  21.114  33.674  12.593
56128W        W21388  22.044   3.107  12.191
56129W        W21389  25.556  35.978  11.881
56130W        W21390  44.425  17.705   0.111
56131W        W21391  16.068  15.799  14.063
56132W        W21392   5.931   8.823   1.225
56133W        W21393  25.825  22.206  10.931
56134W        W21394  15.741  40.787   2.174
56135W        W21395   5.174  25.761   3.269
56136W        W21396   7.271  22.116   3.090
56137W        W21397  36.999  15.894   3.186
56138W        W21398  29.966   9.243  14.101
56139W        W21399  20.109  26.248  11.986
56140W        W21400   1.882  16.735  11.278
56141W        W21401  37.976  13.404  12.848
56142W        W21402  11.422  28.507  13.509
56143W        W21403  13.690  19.302  11.634
56144W        W21404   3.508  33.460   0.807
56145W        W21405  15.089   7.870   3.692
56146W        W21406  30.593  21.413  12.049
56147W        W21407  13.422  10.908   0.015
56148W        W21408  33.328  31.289  10.694
56149W        W21409  18.038   2.281  11.521
56150W        W21410  25.656  35.568   4.900
56151W        W21411  40.960  13.960   9.861
56152W        W21412  13.842  34.604  12.931
56153W        W21413  22.787  42.318   4.729
56154W        W21414  43.373  21.895  12.151
56155W        W21415  40.860  16.877   4.715
56156W        W21416   8.370  43.909  10.788
56157W        W21417  33.300  28.601   4.988
56158W        W21418  28.932  42.745   1.988
56159W        W21419  12.758   0.612   3.428
56160W        W21420   5.421   1.637   1.351
56161W        W21421  32.541  27.925   3.581
56162W        W21422  38.418   2.120   1.404
56163W        W21423  42.032  28.369   2.838
56164W        W21424  26.527  13.025   0.474
56165W        W21425  17.925  41.471  10.550
56166W        W21426  33.589  38.858   2.295
56167W        W21427  35.295   6.026  10.563
56168W        W21428  38.971   0.987  11.048
56169W        W21429  43.569  11.981  12.950
56170W        W21430  23.637  19.457  14.486
56171W        W21431  30.938  27.491  11.046
56172W        W21432   0.053  44.125  14.445
56173W        W21433  13.851  34.090  13.107
56174W        W21434   3.988   6.119  14.610
56175W        W21435  12.988  42.954  10.333
56176W        W21436  24.968  22.679  10.655
56177W        W21437  20.179   9.566  13.848
56178W        W21438   5.033  39.076   4.129
56179W        W21439  21.127  17.629  12.102
56180W        W21440  28.892   2.400  13.110
56181W        W21441  15.183  39.130  14.278
56182W        W21442  30.482  23.572   4.119
56183W        W21443   4.254  23.992  13.059
56184W        W21444  29.938  43.242  13.521
56185W        W21445  36.718  22.671   2.453
56186W        W21446  24.675  16.200  11.540
56187W        W21447  22.415  31.427   4.732
56188W        W21448  20.147  24.580   2.916
56189W        W21449   8.975   6.582   3.701
56190W        W21450  14.541  20.794   2.471
56191W        W21451   7.277  29.518  13.859
56192W        W21452  35.782  17.674   3.938
56193W        W21453  38.748  26.006   4.945
56194W        W21454  25.943  10.857  12.602
56195W        W21455  29.661  20.129   9.963
56196W        W21456   3.668   1.269  11.166
56197W        W21457  42.508  38.564  11.496
56198W        W21458  20.935   9.743  14.526
56199W        W21459  28.607   6.658  13.871
56200W        W21460   1.480  18.095   1.846
56201W        W21461  29.070  27.533  11.603
56202W        W21462  41.043   2.299  13.475
56203W        W21463  35.450  31.715   1.793
56204W        W21464  37.555  13.048  14.717
56205W        W21465  38.568  21.801   4.303
56206W        W21466  41.210  10.359   0.292
56207W        W21467  41.071  41.796  14.483
56208W        W21468  30.110  38.240   3.892
56209W        W21469  40.371  42.989   1.040
56210W        W21470  29.475  16.114   2.125
56211W        W21471   0.479  43.041   0.071
56212W        W21472   8.691   2.752   0.354
56213W        W21473  29.393  44.352  13.856
56214W        W21474   0.371   1.834   2.282
56215W        W21475   0.683  44.777  11.331
56216W        W21476  20.261  17.694  10.597
56217W        W21477   0.446  28.934   0.915
56218W        W21478  11.164  30.326   4.049
56219W        W21479  39.976  21.464   2.277
56220W        W21480  10.255  18.878   0.749
56221W        W21481  39.364  26.404   2.418
56222W        W21482  30.035  22.208   3.094
56223W        W21483   9.737  34.099  13.739
56224W        W21484   1.914  11.637   4.741
56225W        W21485  15.681  17.461   1.909
56226W        W21486  30.564  15.052   1.887
56227W        W21487  18.825  23.939   5.350
56228W        W21488   5.772   5.496  14.020
56229W        W21489   1.334   4.747   3.735
56230W        W21490  26.220  30.341   2.432
56231W        W21491  29.083  26.892  13.519
56232W        W21492   3.738  30.101   3.398
56233W        W21493  18.404   9.272  12.290
56234W        W21494  25.733  14.713   0.872
56235W        W21495  22.535  14.790  11.740
56236W        W21496  18.268  33.336   3.603
56237W        W21497  32.643  10.199  12.419
56238W        W21498  34.498  32.224   1.839
56239W        W21499  31.904  14.259   4.639
56240W        W21500  17.755  38.089  11.886
56241W        W21501  15.995  28.131  13.812
56242W        W21502  42.768  32.157   1.389
56243W        W21503  18.216  15.630   4.607
56244W        W21504  23.161  20.919   9.755
56245W        W21505   1.386  13.061  10.401
56246W        W21506  27.343  39.023   3.196
56247W        W21507   5.236  16.834  14.394
56248W        W21508  33.838  12.703  10.901
56249W        W21509   7.208  11.298   0.316
56250W        W21510  22.143   5.715   1.804
56251W        W21511  41.036  30.542  11.581
56252W        W21512  32.265  40.779   3.705
56253W        W21513  23.102   8.323   0.865
56254W        W21514  28.861  25.893  13.393
56255W        W21515  18.247  12.280  11.554
56256W        W21516  13.499  12.596   0.431
56257W        W21517   7.102  23.682  10.812
56258W        W21518  13.817  14.753   4.843
56259W        W21519  17.327  14.550   0.668
56260W        W21520   1.475   9.752   1.227
56261W        W21521  37.616  17.808   2.673
56262W        W21522  32.851  35.312  11.331
56263W        W21523  33.172  28.044  11.737
56264W        W21524  43.007   7.027  14.072
56265W        W21525  37.898   8.491   4.118
56266W        W21526  35.416  16.222   2.399
56267W        W21527  33.334  15.291  11.676
56268W        W21528  23.783  15.106   1.741
56269W        W21529  27.957  39.550  11.081
56270W        W21530  26.809  28.537   3.785
56271W        W21531  36.155  11.912   0.814
56272W        W21532  42.474  39.790  14.891
56273W        W21533   5.756  35.814  13.487
56274W        W21534  11.775  34.633   1.716
56275W        W21535   8.590  30.339  13.081
56276W        W21536  39.824  34.152   3.588
56277W        W21537   9.408  44.245  11.477
56278W        W21538  13.600  20.626   4.077
56279W        W21539  37.012  31.502  11.022
56280W        W21540   0.729  40.623  12.541
56281W        W21541  30.656  38.306  11.118
56282W        W21542  39.497   3.882   0.377
56283W        W21543   3.517   8.952   4.033
56284W        W21544  40.690  25.237  12.891
56285W        W21545  12.857  27.121  13.576
56286W        W21546  33.230  39.894  13.827
56287W        W21547  20.666  34.940  12.457
56288W        W21548  42.087   1.840   0.109
56289W        W21549  28.023  38.407   0.079
56290W        W21550  17.997  33.185  13.998
56291W        W21551  32.479  12.541   5.008
56292W        W21552  31.967  44.716   4.477
56293W        W21553  13.760  16.293   4.216
56294W        W21554  20.162  21.628   1.396
56295W        W21555  44.711   0.463  13.576
56296W        W21556   2.912  42.747  12.116
56297W        W21557  20.939  42.370   2.357
56298W        W21558   6.731   0.473   4.288
56299W        W21559  32.065  20.817  11.605
56300W        W21560  39.341  18.616  12.620
56301W        W21561  41.976  19.271  14.019
56302W        W21562  15.408  13.810   3.773
56303W        W21563  23.936   8.413  11.828
56304W        W21564  31.895  41.224  13.495
56305W        W21565   3.959  23.995  11.220
56306W        W21566  32.651  35.890   3.073
56307W        W21567  31.913  42.972  13.737
56308W        W21568   9.856  38.182   0.217
56309W        W21569  26.790   2.707  12.240
56310W        W21570  23.521  16.745  10.867
56311W        W21571  23.053  25.739   4.591
56312W        W21572  42.244   9.801   1.931
56313W        W21573  19.075  15.603  11.076
56314W        W21574  40.666   1.924   3.324
56315W        W21575  33.993  21.159  13.572
56316W        W21576  21.064  11.584  13.510
56317W        W21577  39.028   5.356  13.366
56318W        W21578  23.966  32.080   2.809
56319W        W21579  37.137   7.660  12.928
56320W        W21580  11.573  17.650  12.656
56321W        W21581   9.793  21.450  11.905
56322W        W21582  29.469   2.916  13.717
56323W        W21583  38.795  33.269  12.397
56324W        W21584  10.420  32.992  14.496
56325W        W21585  26.216   6.742  12.939
56326W        W21586   9.623  29.120  10.288
56327W        W21587  23.575  22.788   2.826
56328W        W21588  42.557  36.928  13.457
56329W        W21589  28.405  20.832   4.126
56330W        W21590   5.700  18.565  12.402
56331W        W21591  19.611  28.593  11.910
56332W        W21592  12.955  34.373  12.681
56333W        W21593   8.674  30.476   1.867
56334W        W21594   3.337   0.291   1.990
56335W        W21595  29.653  34.435  14.109
56336W        W21596   8.681  36.789  12.945
56337W        W21597  24.086  40.622  11.626
56338W        W21598  44.992  38.434   4.095
56339W        W21599  40.939  35.947   2.696
56340W        W21600  13.284  28.954  11.944
56341W        W21601  28.838  33.066   0.655
56342W        W21602  36.574  20.318  11.802
56343W        W21603  25.513  38.384   2.096
56344W        W21604  33.429  27.516   2.229
56345W        W21605  32.946  12.014  12.948
56346W        W21606  44.909  34.850  13.928
56347W        W21607   9.646  31.356  13.901
56348W        W21608  21.144  15.172  14.149
56349W        W21609   8.730   9.709  10.465
56350W        W21610   2.284   8.339  12.543
56351W        W21611  20.965  23.916   2.217
56352W        W21612  42.250  20.631   1.239
56353W        W21613  14.567   5.616  12.081
56354W        W21614   6.375   9.100  12.042
56355W        W21615  18.174  12.362   1.451
56356W        W21616   6.421  22.282   1.116
56357W        W21617  17.617  16.007   2.865
56358W        W21618  17.388   1.364  10.699
56359W        W21619  25.558   9.995  12.103
56360W        W21620  10.134  18.716   4.555
56361W        W21621   5.850  16.073  13.037
56362W        W21622   5.722   9.951   4.545
56363W        W21623  11.142  19.479  13.051
56364W        W21624  32.680  18.447   4.443
56365W        W21625  16.241  29.163  14.202
56366W        W21626  12.283  30.222  14.427
56367W        W21627  30.417  10.146  12.398
56368W        W21628  26.992  27.468  12.003
56369W        W21629  14.240   2.217  14.800
56370W        W21630   7.196  11.953   1.008
56371W        W21631  24.911  17.100  12.491
56372W        W21632  37.655  23.031  14.465
56373W        W21633   0.457  30.057  13.782
56374W        W21634  35.855  25.730  13.400
56375W        W21635  20.296  14.171  11.892
56376W        W21636  21.102  38.775   1.719
56377W        W21637  38.613  29.574   0.965
56378W        W21638  26.267  42.350   0.847
56379W        W21639  26.748  10.804  11.434
56380W        W21640  12.232  16.128   4.743
56381W        W21641  24.464   1.619  14.291
56382W        W21642   1.422  40.498   1.623
56383W        W21643  29.447  37.317  13.804
56384W        W21644   9.692  11.452   4.685
56385W        W21645  22.705  35.381   1.277
56386W        W21646  23.213  22.722   4.717
56387W        W21647   0.484  29.069  11.998
56388W        W21648  15.807  28.129   2.885
56389W        W21649  12.270  27.053  12.539
56390W        W21650  10.044   8.872   4.303
56391W        W21651  11.154  19.353   0.740
56392W        W21652  37.593   5.910   0.471
56393W        W21653  33.207  19.082   2.219
56394W        W21654  34.411   3.263  13.029
56395W        W21655  23.923  15.604   2.776
56396W        W21656  10.929   8.785  13.154
56397W        W21657  43.176   2.024  14.988
56398W        W21658  42.466  43.721  10.997
56399W        W21659  10.117   6.901   1.812
56400W        W21660   4.348  43.022  12.432
56401W        W21661  36.505   0.532   2.927
56402W        W21662  42.873  33.600  13.058
56403W        W21663   3.169  30.448   0.429
56404W        W21664  33.471  37.541   2.664
56405W        W21665  34.470  21.278  12.954
56406W        W21666  10.670  23.176  12.599
56407W        W21667   6.706  21.372  12.205
56408W        W21668  42.290  31.637   2.185
56409W        W21669  14.371  44.241  12.541
56410W        W21670   8.656  33.581   0.013
56411W        W21671   7.212  44.760   1.829
56412W        W21672   5.485  20.650   1.390
56413W        W21673  38.355  39.474   4.505
56414W        W21674  10.722  36.189  13.012
56415W        W21675   6.205   6.100   4.284
56416W        W21676  27.760  23.225  12.205
56417W        W21677  35.512  10.623  14.481
56418W        W21678  44.007  30.025   1.174
56419W        W21679  44.440  12.408  11.233
56420W        W21680  20.226  44.351   3.658
56421W        W21681  41.338  36.487  12.947
56422W        W21682  33.592  14.818  13.295
56423W        W21683  34.807  31.964  13.876
56424W        W21684  25.476   1.139   2.757
56425W        W21685  40.597  25.844   2.964
56426W        W21686  24.954  41.560  12.942
56427W        W21687  38.103  20.217   0.919
56428W        W21688  21.351  20.130   2.855
56429W        W21689  41.370  31.501   2.227
56430W        W21690  43.311  26.194  12.459
56431W        W21691   1.243  44.833   2.118
56432W        W21692   9.934  23.519  13.975
56433W        W21693  37.889  42.852  13.410
56434W        W21694  12.764   1.859   0.451
56435W        W21695  18.176  22.635   5.029
56436W        W21696  17.512  27.694  13.877
56437W        W21697  36.494   3.515   0.493
56438W        W21698   0.841  15.875   2.162
56439W        W21699  26.105  27.938  14.903
56440W        W21700  29.000  39.042   3.142
56441W        W21701  42.371   9.103   4.163
56442W        W21702   7.801   2.167   4.444
56443W        W21703  23.241   9.781  14.697
56444W        W21704  34.486   2.535  12.051
56445W        W21705   0.051  26.424  14.953
56446W        W21706  26.068  14.556  12.064
56447W        W21707  13.463  17.734   3.302
56448W        W21708  34.009   1.953  14.952
56449W        W21709  42.869  39.491   1.348
56450W        W21710  28.407  21.547   2.657
56451W        W21711  29.804  26.317   1.221
56452W        W21712  33.951  10.198   2.152
56453W        W21713  15.021  10.683  13.463
56454W        W21714  21.469   7.385   2.206
56455W        W21715  34.538  24.578   0.838
56456W        W21716  37.859  44.756   4.870
56457W        W21717   1.896   1.819  11.634
56458W        W21718  35.045  41.794   4.652
56459W        W21719   6.896   4.912   3.131
56460W        W21720  26.934  44.036   3.810
56461W        W21721  29.815  12.648   4.543
56462W        W21722  35.899  10.218   2.245
56463W        W21723  13.358   4.469   3.056
56464W        W21724  42.750  17.128  13.779
56465W        W21725  42.977  42.217  13.166
56466W        W21726   7.426  29.326   3.141
56467W        W21727  23.911  40.317  12.008
56468W        W21728  39.314  36.975  14.651
56469W        W21729  35.459  27.925   0.476
56470W        W21730  32.427   2.288   1.609
56471W        W21731  11.311  19.137  14.510
56472W        W21732  30.505  20.866  12.948
56473W        W21733  37.111   8.169  14.938
56474W        W21734  24.950   6.985  13.491
56475W        W21735  31.216  24.086   3.616
56476W        W21736   7.363   8.166  11.950
56477W        W21737   1.725   0.369  10.545
56478W        W21738  41.606  40.028   1.774
56479W        W21739   3.890  16.086   3.838
56480W        W21740  13.825  30.658   0.251
56481W        W21741   0.866  15.202  14.462
56482W        W21742  37.405  32.860  14.848
56483W        W21743  19.267   4.919  13.046
56484W        W21744  27.033  34.873  12.005
56485W        W21745  32.332  12.120  12.465
56486W        W21746  21.488  20.701  12.389
56487W        W21747  41.412  33.052   4.236
56488W        W21748  12.346  17.180   1.890
56489W        W21749  40.857  21.064   3.127
56490W        W21750   4.352  17.121  14.338
56491W        W21751  19.112   8.272   2.487
56492W        W21752  21.446  18.328   5.508
56493W        W21753   9.791   8.484  13.797
56494W        W21754   1.911   0.516   1.229
56495W        W21755   2.971  32.823   2.856
56496W        W21756   4.938  42.541   2.282
56497W        W21757  40.355   8.297  14.939
56498W        W21758  27.323  33.089   1.161
56499W        W21759   0.180  29.858  13.058
56500W        W21760  20.102  10.714   2.663
56501W        W21761  26.723  29.618  12.906
56502W        W21762  11.713  10.233  14.260
56503W        W21763  41.465  28.766  12.393
56504W        W21764  30.429  38.523   3.579
56505W        W21765   6.945   7.708   1.352
56506W        W21766  14.098  41.338   4.879
56507W        W21767  40.577  22.459  14.362
56508W        W21768  28.877  20.018   0.358
56509W        W21769  42.826  38.622  11.057
56510W        W21770   7.819   9.567   2.370
56511W        W21771  24.223  26.542  14.947
56512W        W21772  22.443  29.152  13.025
56513W        W21773  13.121  36.219  14.111
56514W        W21774  39.036  37.031   2.952
56515W        W21775  21.091  20.287  10.189
56516W        W21776  11.276  39.566   4.425
56517W        W21777  12.094   7.471  10.522
56518W        W21778  11.136  42.449  13.357
56519W        W21779  38.972   3.875  12.095
56520W        W21780  18.560  28.485   1.871
56521W        W21781  39.877  40.573  11.677
56522W        W21782  15.005  27.262   0.935
56523W        W21783  41.916  36.420  13.764
56524W        W21784  22.599  14.138  12.222
56525W        W21785  42.983   6.872  13.003
56526W        W21786  35.827   6.183  11.232
56527W        W21787  10.177  15.302   4.621
56528W        W21788  39.648  18.391  13.446
56529W        W21789   3.018  25.629   2.905
56530W        W21790  30.383  17.728  14.297
56531W        W21791   9.500  24.251  11.925
56532W        W21792  29.465  21.309  14.468
56533W        W21793  14.032   2.508   2.724
56534W        W21794   9.810   4.019  13.038
56535W        W21795   5.797  22.552   2.855
56536W        W21796   0.817  17.114   0.857
56537W        W21797  19.374  36.696   2.144
56538W        W21798  37.631  16.357   1.853
56539W        W21799  17.150  11.462  13.092
56540W        W21800  31.853  18.317  13.737
56541W        W21801  33.623   9.305   2.614
56542W        W21802   7.397  34.302  11.160
56543W        W21803  37.511  23.939   4.048
56544W        W21804   8.086  21.777  12.218
56545W        W21805  11.651  24.331   0.208
56546W        W21806  16.029  42.903  14.273
56547W        W21807  31.511  11.217   0.855
56548W        W21808  13.744  19.862   2.282
56549W        W21809  20.596  23.960   4.802
56550W        W21810  34.218   6.713  12.980
56551W        W21811  30.117  32.765   4.960
56552W        W21812  28.507  11.451  14.531
56553W        W21813  14.207  12.694   3.334
56554W        W21814   4.711  13.624   2.868
56555W        W21815   2.756  30.989  12.032
56556W        W21816  31.153   2.174  11.963
56557W        W21817  29.734  29.410  13.088
56558W        W21818  11.404   5.382   0.826
56559W        W21819  26.447  22.270  14.847
56560W        W21820  18.017  41.777  12.901
56561W        W21821   7.359  14.239   4.171
56562W        W21822   2.501   1.757   3.708
56563W        W21823   9.209  40.332   4.561
56564W        W21824   3.198  36.457  14.000
56565W        W21825   7.297   4.382  11.438
56566W        W21826  34.620  14.883  10.492
56567W        W21827   7.838  34.886  14.175
56568W        W21828  31.074  45.000   2.244
56569W        W21829  10.762  30.813  11.429
56570W        W21830  37.512   2.746  14.901
56571W        W21831  44.418  29.201  10.101
56572W        W21832  43.690  34.792   2.377
56573W        W21833  29.959  43.369  10.719
56574W        W21834  25.921  31.003   1.702
56575W        W21835  27.134  37.963  12.842
56576W        W21836  41.150  14.163  10.347
56577W        W21837  15.820  33.858  14.844
56578W        W21838  17.159   3.372   4.699
56579W        W21839  14.262   8.958  11.115
56580W        W21840   2.227  22.041  13.161
56581W        W21841  29.636  19.433  12.522
56582W        W21842  10.428  39.898  14.833
56583W        W21843  43.998   7.398   3.729
56584W        W21844  11.630  19.272   3.768
56585W        W21845   5.864   8.692  11.224
56586W        W21846   2.285   4.676   3.441
56587W        W21847   5.347   7.748  10.483
56588W        W21848  35.851  14.262  14.325
56589W        W21849  36.652   6.867   1.712
56590W        W21850   7.968  12.244   1.848
56591W        W21851   6.987  41.521   0.670
56592W        W21852   0.278  42.297   0.744
56593W        W21853  32.297  24.586  13.389
56594W        W21854  41.389  35.962   3.579
56595W        W21855  41.879  33.360  13.933
56596W        W21856  32.508  29.402   1.265
56597W        W21857  22.571  29.672   3.285
56598W        W21858  12.750  32.714   2.247
56599W        W21859  41.184  40.632  14.578
56600W        W21860  28.609  38.512  13.629
56601W        W21861  16.647  29.439  14.417
56602W        W21862   1.908  32.156  12.874
56603W        W21863   1.431  15.676   0.931
56604W        W21864   7.665  32.572   2.759
56605W        W21865  34.191   8.249  12.201
56606W        W21866  25.093  10.582   1.210
56607W        W21867  36.028  31.880   0.246
56608W        W21868  26.251  27.991  13.986
56609W        W21869   5.179  10.765   3.760
56610W        W21870  24.856   5.950   4.749
56611W        W21871  37.082  37.359   1.211
56612W        W21872  32.822  23.851   2.981
56613W        W21873  12.126  14.061  14.263
56614W        W21874  26.590  12.152  12.842
56615W        W21875  10.478   3.470   4.990
56616W        W21876  22.241   8.621  13.968
56617W        W21877  38.277  23.699   3.589
56618W        W21878  26.860  36.165  12.611
56619W        W21879  36.587   8.321  11.371
56620W        W21880   1.176  18.653  11.718
56621W        W21881  42.298   6.298   3.682
56622W        W21882   3.295  29.098  14.755
56623W        W21883   1.297  27.996  12.349
56624W        W21884  36.081  29.199  13.671
56625W        W21885  42.515  34.547   3.712
56626W        W21886  13.181  40.800   2.612
56627W        W21887  19.264   1.464  12.142
56628W        W21888   9.331  12.846   2.890
56629W        W21889  13.597   2.921  13.508
56630W        W21890  16.023  25.098  12.931
56631W        W21891  19.138  26.668  11.196
56632W        W21892  10.281   1.979   1.907
56633W        W21893  31.875  12.704  11.653
56634W        W21894  17.146  40.479   1.027
56635W        W21895  38.718  17.576  11.135
56636W        W21896  24.368  23.590  12.529
56637W        W21897  14.384  32.929   0.250
56638W        W21898   7.389  36.946   4.097
56639W        W21899  35.436  19.854   1.297
56640W        W21900  42.625  22.081   3.184
56641W        W21901  20.523  42.891  12.605
56642W        W21902  29.441  44.594  14.345
56643W        W21903   0.509  17.866   4.545
56644W        W21904   2.487  43.788  13.891
56645W        W21905  24.066  12.080   4.265
56646W        W21906  28.787   7.758  13.240
56647W        W21907  25.717  26.536  13.339
56648W        W21908  35.173  35.842  10.564
56649W        W21909  24.706  41.798   1.445
56650W        W21910   2.791  27.078   4.564
56651W        W21911  21.014  31.347  11.150
56652W        W21912  16.539  35.396  13.960
56653W        W21913   7.413  15.307   3.126
56654W        W21914  27.627  23.472  12.651
56655W        W21915   4.333  14.466   1.509
56656W        W21916  23.067  34.336   0.062
56657W        W21917  13.662  37.962   0.682
56658W        W21918   8.121  26.410  12.110
56659W        W21919  15.619  32.617   1.941
56660W        W21920  10.895  10.314   0.250
56661W        W21921  13.955  27.556  14.112
56662W        W21922   0.873   1.512   1.624
56663W        W21923  32.332   8.347  11.628
56664W        W21924  33.448   7.364   1.704
56665W        W21925  36.043  44.336   3.732
56666W        W21926  22.226  17.478  14.971
56667W        W21927  17.054  26.976  12.915
56668W        W21928  15.077  27.892  13.846
56669W        W21929  15.771  29.093  14.521
56670W        W21930   1.672  13.180  11.398
56671W        W21931  17.083  38.005   0.281
56672W        W21932   2.141  32.420   4.653
56673W        W21933   0.152  24.575  10.576
56674W        W21934  30.085  36.610  13.495
56675W        W21935  41.961  39.909   2.116
56676W        W21936  22.254  25.864  11.186
56677W        W21937   6.413  20.562  14.536
56678W        W21938  32.656  44.213  11.033
56679W        W21939  43.512   0.697   3.766
56680W        W21940  31.045   8.195   0.941
56681W        W21941  37.755  28.050  12.472
56682W        W21942  26.506  16.011  14.454
56683W        W21943  26.086  37.112   1.305
56684W        W21944  28.692  34.517   0.339
56685W        W21945   1.754   0.249   1.829
56686W        W21946  43.521  38.524   3.844
56687W        W21947  11.635  37.972   0.368
56688W        W21948  37.552  36.082   2.212
56689W        W21949   9.666   9.212  14.789
56690W        W21950  31.199   0.598  10.288
56691W        W21951  15.390  16.789   0.714
56692W        W21952  22.225  16.037   4.247
56693W        W21953  27.484  14.633  13.107
56694W        W21954   6.656  32.040   1.142
56695W        W21955  23.966   0.437  13.455
56696W        W21956  22.869  44.266   3.356
56697W        W21957  16.110  34.456  13.080
56698W        W21958  43.975   5.929   0.909
56699W        W21959  36.351  28.719   0.654
56700W        W21960  32.541  39.444  13.360
56701W        W21961   4.416   5.027   1.853
56702W        W21962  29.892  21.305   3.771
56703W        W21963  23.575  12.236   0.818
56704W        W21964  27.927  19.529   0.729
56705W        W21965  10.557   5.483   4.055
56706W        W21966   2.927  14.935  13.507
56707W        W21967  24.181  33.572  12.644
56708W        W21968  14.297  39.503  12.600
56709W        W21969  27.481   6.579   3.682
56710W        W21970  41.902  29.803   1.230
56711W        W21971  16.380   3.278  11.976
56712W        W21972  11.964   7.509   0.336
56713W        W21973  32.108  21.070   1.674
56714W        W21974   6.124  17.210   3.369
56715W        W21975  12.559  16.715  14.889
56716W        W21976  32.408  33.940   2.172
56717W        W21977  34.024  16.640   0.849
56718W        W21978  18.065  39.843   3.224
56719W        W21979   6.019  13.440  14.288
56720W        W21980  15.659  43.297  13.105
56721W        W21981   1.775   7.609   4.792
56722W        W21982  17.738  21.759  13.926
56723W        W21983   3.369  21.856   2.221
56724W        W21984  34.596  17.662   0.819
56725W        W21985  17.719  30.821  11.403
56726W        W21986  16.828  40.952  13.236
56727W        W21987  31.779  30.953  12.598
56728W        W21988  29.200  32.041   3.267
56729W        W21989  35.598  16.701   3.149
56730W        W21990  42.741  39.913   3.649
56731W        W21991   1.922  39.584   4.551
56732W        W21992  26.591  20.539  13.618
56733W        W21993  22.159  41.392  10.581
56734W        W21994  34.900  27.896  14.296
56735W        W21995  25.568  32.394  13.870
56736W        W21996  23.701  16.746  13.814
56737W        W21997  23.242  14.865  13.929
56738W        W21998  40.301  14.768   3.277
56739W        W21999   9.170  26.601   1.424
56740W        W22000  25.561   3.647  13.566
56741W        W22001   6.009  27.535  14.210
56742W        W22002  21.093  17.089   1.403
56743W        W22003   0.237  31.418   0.959
56744W        W22004  14.730  37.541  10.248
56745W        W22005  21.220   3.999  11.145
56746W        W22006  44.844   7.303   0.326
56747W        W22007  23.819  14.364   2.308
56748W        W22008  10.270  37.806   1.936
56749W        W22009  32.151  30.412   2.746
56750W        W22010  42.427  39.828   1.941
56751W        W22011  14.696  35.385   3.845
56752W        W22012  42.835  40.348   3.940
56753W        W22013   4.002  33.377  14.345
56754W        W22014   9.066   7.771  13.982
56755W        W22015   8.793  36.745  12.091
56756W        W22016  33.131  29.446  11.138
56757W        W22017  12.390  12.119   4.149
56758W        W22018  16.161   1.489  11.958
56759W        W22019  27.530  24.104   1.137
56760W        W22020  18.979  19.524  13.100
56761W        W22021  36.576  18.795  13.951
56762W        W22022  18.571  43.323  12.592
56763W        W22023  22.544   9.731   1.390
56764W        W22024   8.670  20.978  14.008
56765W        W22025  16.234  19.954  13.553
56766W        W22026   3.471   7.466   3.911
56767W        W22027  27.998   9.285   2.767
56768W        W22028  38.951  30.246   1.704
56769W        W22029  44.506  13.324  13.953
56770W        W22030  42.465  29.045   2.208
56771W        W22031  31.637  30.037  14.985
56772W        W22032  33.056  42.156  12.536
56773W        W22033  44.946  14.915  10.283
56774W        W22034  28.387   2.209   2.993
56775W        W22035   7.165  31.322  13.624
56776W        W22036  38.504  12.739  14.514
56777W        W22037  12.455  14.041   3.295
56778W        W22038  31.897  34.417   1.305
56779W        W22039  30.629  24.238   1.479
56780W        W22040  12.556  44.058   2.924
56781W        W22041  18.185  39.312   0.410
56782W        W22042  44.198  13.301  11.902
56783W        W22043  22.855   2.360   2.167
56784W        W22044  35.277  39.092  12.126
56785W        W22045   7.064   5.046   2.247
56786W        W22046  16.332  10.220   1.087
56787W        W22047  21.712  40.095  12.529
56788W        W22048   5.655  19.072  13.885
56789W        W22049  20.173  32.525  10.617
56790W        W22050   6.342   3.199  14.035
56791W        W22051   8.715  31.658  10.998
56792W        W22052  18.552  14.624   1.224
56793W        W22053   7.761  20.251  14.965
56794W        W22054   4.779  35.689  14.065
56795W        W22055  22.593   7.767  11.061
56796W        W22056  21.167  44.800   3.007
56797W        W22057  22.695  30.960   0.407
56798W        W22058  12.133   5.846   2.719
56799W        W22059  17.096  31.470   1.654
56800W        W22060  34.164  20.229   2.316
56801W        W22061   2.326   5.571   1.098
56802W        W22062  42.217  10.280  13.529
56803W        W22063  34.403  35.770   4.557
56804W        W22064  28.753  23.190  11.985
56805W        W22065  19.431   9.100   2.325
56806W        W22066  32.171  10.371  12.643
56807W        W22067  22.975  34.733   2.855
56808W        W22068  21.673  34.221   2.414
56809W        W22069  32.546  23.141   4.065
56810W        W22070   8.590  44.638   0.209
56811W        W22071  31.161  42.536  14.400
56812W        W22072   5.891  42.579  12.119
56813W        W22073  33.276  40.713  14.284
56814W        W22074  26.025  12.953   0.925
56815W        W22075   4.476   6.396   2.847
56816W        W22076   3.342  24.845   2.336
56817W        W22077  10.529   8.562   5.098
56818W        W22078  19.630  31.657  14.315
56819W        W22079  11.414  18.300   3.658
56820W        W22080  32.288   0.779  14.351
56821W        W22081  24.050  40.381  14.983
56822W        W22082  30.126  10.302  11.564
56823W        W22083  10.262  30.640   0.565
56824W        W22084   7.724  26.733  13.442
56825W        W22085  33.137  12.184  10.790
56826W        W22086  30.091  27.222   0.189
56827W        W22087   0.439  17.176  12.379
56828W        W22088  28.500  33.534  13.586
56829W        W22089  37.361  37.490  13.922
56830W        W22090   4.438  19.232   2.623
56831W        W22091   9.274  36.086  13.176
56832W        W22092  22.974  34.614   1.398
56833W        W22093   2.697  33.559  11.050
56834W        W22094   5.764  28.463   4.074
56835W        W22095  36.623  38.738   1.883
56836W        W22096  10.760  37.747   1.746
56837W        W22097  21.050  35.976   9.995
56838W        W22098  36.148   9.097   0.307
56839W        W22099  24.479  15.349   4.644
56840W        W22100   9.409  44.959  14.063
56841W        W22101   9.921  23.696   1.808
56842W        W22102  16.820   5.739  12.972
56843W        W22103   8.627  38.049  14.058
56844W        W22104  20.329  38.268  14.840
56845W        W22105  17.441  37.267  12.072
56846W        W22106  15.233  38.584   4.253
56847W        W22107  19.115  31.402   1.317
56848W        W22108  15.176  19.324   0.398
56849W        W22109  25.571  12.068   3.172
56850W        W22110  27.092  37.062   0.296
56851W        W22111  38.953  14.040   1.039
56852W        W22112  10.201  30.307   4.553
56853W        W22113  11.178  12.821  12.211
56854W        W22114  39.572  11.387   4.651
56855W        W22115   1.896  17.326   3.748
56856W        W22116   7.430  24.687   0.818
56857W        W22117  41.604   5.106  14.195
56858W        W22118  25.510  14.377  11.868
56859W        W22119   1.987   6.714  14.511
56860W        W22120  25.296  23.200  12.754
56861W        W22121  23.540  20.208  13.792
56862W        W22122  43.370  16.525   3.732
56863W        W22123  17.116   3.595   0.444
56864W        W22124  43.524  20.236   4.307
56865W        W22125  35.836   9.668  11.589
56866W        W22126  21.516  10.200  14.686
56867W        W22127   2.662  30.477  14.002
56868W        W22128  39.107  28.935   1.258
56869W        W22129  36.531  22.425   2.901
56870W        W22130  18.263  18.722   0.385
56871W        W22131   0.184  36.561  10.506
56872W        W22132  21.244  14.151   1.176
56873W        W22133  19.751   2.838  13.374
56874W        W22134   0.454   6.463  12.936
56875W        W22135  16.053  43.425   0.278
56876W        W22136  24.855  43.378  14.400
56877W        W22137  20.732  39.040  14.479
56878W        W22138  40.009  37.961  13.649
56879W        W22139  16.711  27.998  11.278
56880W        W22140   7.664   3.196   0.869
56881W        W22141  41.862  18.960  14.972
56882W        W22142  30.655  39.845   4.635
56883W        W22143  40.826  28.044   3.239
56884W        W22144  11.255   2.909   3.178
56885W        W22145   5.959  12.901  14.352
56886W        W22146  37.316  27.051  14.483
56887W        W22147  13.218   3.667  13.729
56888W        W22148  43.752  37.871  13.874
56889W        W22149  29.068  10.301   0.980
56890W        W22150  12.977  10.297  14.874
56891W        W22151   6.141  42.955   3.694
56892W        W22152   0.274  43.012   0.554
56893W        W22153   7.709   2.898  12.374
56894W        W22154   4.029   2.004  14.733
56895W        W22155  13.299   4.283   0.542
56896W        W22156   0.299  30.154   3.664
56897W        W22157  36.590  26.857   2.730
56898W        W22158   7.074  43.098   1.312
56899W        W22159  43.006  39.883   4.098
56900W        W22160  11.393  11.807   4.326
56901W        W22161  14.866  37.075  13.947
56902W        W22162  18.153   1.265  11.205
56903W        W22163  38.881  35.918  12.203
56904W        W22164   5.949  41.485  11.630
56905W        W22165  16.315  29.257   4.636
56906W        W22166  17.204   8.189   1.353
56907W        W22167  39.907  21.951  13.935
56908W        W22168  22.229  10.248  13.127
56909W        W22169  18.589  34.849  12.578
56910W        W22170  39.413  10.447  12.721
56911W        W22171  34.953  35.946  12.380
56912W        W22172  19.289   3.349  12.019
56913W        W22173   0.317  30.319  12.879
56914W        W22174  25.022   0.087  13.079
56915W        W22175  11.787  19.337   1.412
56916W        W22176  19.245  35.758  11.479
56917W        W22177   7.765   1.271  14.933
56918W        W22178   6.527  42.614  11.553
56919W        W22179  10.364   8.218   2.668
56920W        W22180   9.838  43.523  11.237
56921W        W22181  19.056  22.125   3.590
56922W        W22182  25.389  31.313   2.630
56923W        W22183   8.439  20.120   2.339
56924W        W22184  44.386   6.576  11.400
56925W        W22185  33.053  20.619   4.960
56926W        W22186  40.813  17.533  11.231
56927W        W22187  39.614  32.834   3.808
56928W        W22188  12.075  44.240   2.260
56929W        W22189  36.953  22.177  12.712
56930W        W22190   1.763  39.797  11.879
56931W        W22191  30.840  34.559   4.599
56932W        W22192  17.974  33.039   3.268
56933W        W22193  37.935  44.405  10.769
56934W        W22194  40.029  31.761   3.987
56935W        W22195  17.023  37.494   0.381
56936W        W22196  11.730  24.718  10.959
56937W        W22197  39.395  34.906   1.892
56938W        W22198   0.784  19.191   5.095
56939W        W22199  24.809  20.179   0.742
56940W        W22200  22.999   8.804   1.201
56941W        W22201  13.939  40.872  11.247
56942W        W22202   8.650  30.490   3.697
56943W        W22203  42.238  38.534   1.443
56944W        W22204  18.616  44.285  13.387
56945W        W22205  22.613  30.874   3.932
56946W        W22206  42.414  24.399   4.977
56947W        W22207  38.946  24.869  14.532
56948W        W22208  43.264  29.195  14.090
56949W        W22209   7.863  35.904  10.031
56950W        W22210   8.091  31.396   2.275
56951W        W22211  20.098  30.303   1.805
56952W        W22212   6.621  21.004  14.371
56953W        W22213  41.965  41.683   4.282
56954W        W22214  43.298  18.808   3.295
56955W        W22215  18.775   1.949   0.884
56956W        W22216  30.998  35.622   3.387
56957W        W22217   1.515  37.595   2.925
56958W        W22218  23.221   4.198  11.205
56959W        W22219  26.194   3.312   2.448
56960W        W22220   1.679  23.732   0.782
56961W        W22221  35.352   4.944  10.247
56962W        W22222  44.461  38.868  11.521
56963W        W22223  11.392  11.373   1.216
56964W        W22224  35.929  11.716  13.317
56965W        W22225  38.315  34.116   4.620
56966W        W22226  16.379  28.797   3.714
56967W        W22227  20.790  27.966  11.969
56968W        W22228  27.189   9.855  12.030
56969W        W22229  32.645  16.644  13.370
56970W        W22230  36.017  35.441  11.595
56971W        W22231  14.151  19.864   4.454
56972W        W22232   1.910   4.431  11.638
56973W        W22233  23.459  11.228   1.694
56974W        W22234  16.787   9.071   4.592
56975W        W22235  20.659  27.178  10.688
56976W        W22236  44.845   7.183  14.375
56977W        W22237  28.384   7.869   3.106
56978W        W22238  28.260  35.697  12.067
56979W        W22239  25.732   7.126   4.710
56980W        W22240  24.955  34.824   1.440
56981W        W22241   1.350  44.370   1.858
56982W        W22242  35.511  27.949   4.572
56983W        W22243  36.879  36.933  12.680
56984W        W22244  21.129   3.756  12.643
56985W        W22245  30.900  34.241  11.113
56986W        W22246  23.734  17.437   4.455
56987W        W22247  39.917   1.006  12.039
56988W        W22248  27.602   3.461   1.207
56989W        W22249   3.704  33.507  11.027
56990W        W22250  22.690  10.426  12.943
56991W        W22251  42.305  41.904   2.789
56992W        W22252  40.240   6.492   0.864
56993W        W22253  20.578  16.648   4.713
56994W        W22254  43.365  29.610  14.365
56995W        W22255  30.095   6.256  12.417
56996W        W22256  27.061   1.280  10.372
56997W        W22257  40.723  35.160   1.504
56998W        W22258   6.573  32.905  11.967
56999W        W22259  16.851  18.674  11.124
57000W        W22260  36.458  25.914   3.668
57001W        W22261  23.423  22.685  14.139
57002W        W22262  34.396   3.774   9.793
57003W        W22263  42.836  11.206   9.778
57004W        W22264  42.540  20.154   4.871
57005W        W22265  10.181   8.400  13.480
57006W        W22266  10.253  30.373  14.519
57007W        W22267  26.062   3.057   1.845
57008W        W22268  28.085  37.591   3.266
57009W        W22269  31.387   4.844   4.105
57010W        W22270  22.294  39.453   4.642
57011W        W22271  13.107   5.448   2.247
57012W        W22272  23.785   9.800  13.435
57013W        W22273   1.879   1.493  10.551
57014W        W22274  26.555  25.876   3.304
57015W        W22275  26.567  18.209   1.093
57016W        W22276  42.479   2.677  13.855
57017W        W22277  15.733   5.213   0.292
57018W        W22278   4.381  38.829  11.995
57019W        W22279  13.104   5.164   1.809
57020W        W22280  16.364  31.063   2.710
57021W        W22281   8.422  44.977   1.392
57022W        W22282  15.353  43.393   1.726
57023W        W22283  41.975  10.697   1.761
57024W        W22284   5.936  19.602   2.410
57025W        W22285  43.433  44.844  11.248
57026W        W22286  26.184  39.027   0.069
57027W        W22287  37.863  18.085  12.998
57028W        W22288  19.517  29.236  11.593
57029W        W22289  24.649  21.693  13.398
57030W        W22290  31.568  24.504  14.480
57031W        W22291  36.984  34.132  12.984
57032W        W22292  33.359  19.126   4.200
57033W        W22293  24.079   6.350   1.413
57034W        W22294  44.624  29.699  12.879
57035W        W22295  30.232   9.934  11.044
57036W        W22296  39.835  31.876  11.892
57037W        W22297   6.219  31.560   4.863
57038W        W22298  12.837  36.087  11.552
57039W        W22299  21.951  25.764   2.806
57040W        W22300  28.708  32.955   1.141
57041W        W22301  38.538  25.149  13.269
57042W        W22302  24.713  40.295   4.128
57043W        W22303  11.817  39.198  11.542
57044W        W22304  12.608  39.074   0.760
57045W        W22305  12.912   7.414   0.819
57046W        W22306  13.285  44.999   3.941
57047W        W22307   0.135  17.218  12.788
57048W        W22308   1.328  23.443   5.408
57049W        W22309  19.335   7.246  13.391
57050W        W22310  34.020   4.144   0.288
57051W        W22311  22.591   5.152  13.856
57052W        W22312  14.294  37.180   3.579
57053W        W22313  28.495  41.504  13.705
57054W        W22314  22.671  16.561   1.214
57055W        W22315  15.407  25.055  14.976
57056W        W22316  35.351  21.220   4.620
57057W        W22317  18.125  32.668  14.017
57058W        W22318  42.756  42.139   2.715
57059W        W22319  36.925  29.190   0.241
57060W        W22320  25.152  24.447  11.956
57061W        W22321  41.951  37.395  14.253
57062W        W22322  28.924  16.513  11.950
57063W        W22323  29.427  24.195  13.895
57064W        W22324  13.246  30.383   2.642
57065W        W22325  38.738  35.669  13.508
57066W        W22326  27.543  34.102   1.278
57067W        W22327  36.179   8.543  10.106
57068W        W22328  29.003  20.651  13.088
57069W        W22329  13.650  37.170   1.135
57070W        W22330  33.442  13.711  13.015
57071W        W22331   4.090  35.805  12.905
57072W        W22332  43.769  25.349   2.858
57073W        W22333  24.136  33.145   4.515
57074W        W22334  24.407   6.378  14.123
57075W        W22335  11.679  13.907  14.489
57076W        W22336   2.729  25.646   3.358
57077W        W22337  18.527  14.141   3.465
57078W        W22338  29.404  40.647  13.124
57079W        W22339  22.490  31.374  12.951
57080W        W22340   9.670  20.753  13.888
57081W        W22341   1.339  15.085   2.323
57082W        W22342  11.265  29.429  11.283
57083W        W22343   8.936   0.365  11.645
57084W        W22344   1.880  28.431   3.255
57085W        W22345  40.991  37.906  14.005
57086W        W22346  25.171   3.435   2.730
57087W        W22347  34.792  19.662  14.184
57088W        W22348  42.426  28.000   0.729
57089W        W22349  27.121   7.411   3.670
57090W        W22350  16.860  18.051   3.286
57091W        W22351  25.597  40.071   4.610
57092W        W22352   6.230  21.684   0.321
57093W        W22353  29.112  14.417   9.712
57094W        W22354  36.520  24.647  13.808
57095W        W22355  26.763  14.233  11.984
57096W        W22356  17.363  33.544  10.555
57097W        W22357  23.576  31.333  12.202
57098W        W22358   5.033   9.355   1.304
57099W        W22359  16.541  38.578  14.964
57100W        W22360  44.793  16.723  10.695
57101W        W22361   0.740  19.978   1.435
57102W        W22362  23.823   6.652  14.928
57103W        W22363  30.980  18.508  12.876
57104W        W22364  22.347  19.045  11.864
57105W        W22365  21.320  18.750   2.142
57106W        W22366  42.419  37.449  13.513
57107W        W22367   8.527  23.699   4.544
57108W        W22368   0.670  20.241  11.192
57109W        W22369  37.865   3.571  14.927
57110W        W22370  14.697  13.384   3.201
57111W        W22371   4.629  11.690  12.960
57112W        W22372  27.579  20.562   1.382
57113W        W22373   3.010  44.515  11.186
57114W        W22374  35.014   3.240   2.668
57115W        W22375  30.093  35.177   0.148
57116W        W22376  15.330  33.378  10.554
57117W        W22377  24.117   2.931   0.075
57118W        W22378  37.505  13.097  12.473
57119W        W22379  26.254  29.980   4.191
57120W        W22380  27.893  18.688  13.489
57121W        W22381  33.855   2.225   0.359
57122W        W22382  27.102  23.089   1.690
57123W        W22383  16.132  14.742   3.525
57124W        W22384  33.550  31.903   1.797
57125W        W22385   0.321  23.127   4.616
57126W        W22386  21.805  26.969   4.028
57127W        W22387  22.275   2.655  14.814
57128W        W22388   3.340  13.350   3.393
57129W        W22389  18.092   8.862   1.478
57130W        W22390  33.793  44.482  12.705
57131W        W22391  14.472  32.385  14.955
57132W        W22392   7.080  35.359  13.980
57133W        W22393  36.871  19.633  11.757
57134W        W22394   1.284  12.089   2.259
57135W        W22395   2.505   6.379   2.848
57136W        W22396  35.314   7.261  14.447
57137W        W22397  15.677   7.206  10.825
57138W        W22398  14.308  12.747  10.697
57139W        W22399  33.953  19.749   2.445
57140W        W22400  36.393  10.251  13.320
57141W        W22401  21.726  21.258   4.134
57142W        W22402  11.368   7.705  11.901
57143W        W22403   4.151  28.256   0.348
57144W        W22404   3.759   3.240  11.833
57145W        W22405  44.693  32.552  13.713
57146W        W22406  10.790  39.397   4.651
57147W        W22407   5.859   0.216  12.613
57148W        W22408  16.258   7.914  13.594
57149W        W22409  12.685  23.264   0.627
57150W        W22410  37.555  41.738   3.700
57151W        W22411   8.305  36.644   4.829
57152W        W22412  19.588  35.686   2.196
57153W        W22413  39.796  11.275   1.389
57154W        W22414  26.426  14.748   3.241
57155W        W22415  32.461  42.401  11.554
57156W        W22416  44.685  40.903   1.645
57157W        W22417   0.326   4.379  12.930
57158W        W22418  16.816  24.127   3.633
57159W        W22419  14.567  27.510   3.158
57160W        W22420  40.919   4.263  11.159
57161W        W22421  20.358  44.672  10.154
57162W        W22422  29.048   8.348  10.731
57163W        W22423  20.965   4.267  12.903
57164W        W22424   2.686  42.938  11.223
57165W        W22425  23.765  19.233   2.283
57166W        W22426   6.717  19.334   4.648
57167W        W22427   5.269  12.085  12.141
57168W        W22428  38.454  13.326  11.028
57169W        W22429   2.755  44.072   1.793
57170W        W22430   1.815  44.757  12.367
57171W        W22431  16.792  29.744  14.938
57172W        W22432  11.851  43.806  12.623
57173W        W22433  34.836  37.043   2.338
57174W        W22434  32.446  13.427   4.158
57175W        W22435  17.829  13.364  14.405
57176W        W22436  28.059  14.004   0.226
57177W        W22437  25.602   9.666  11.669
57178W        W22438  29.062   0.077   0.521
57179W        W22439  43.515  27.707  12.348
57180W        W22440  39.977  17.130  10.827
57181W        W22441   1.372  42.421   3.709
57182W        W22442  31.914   8.441   1.024
57183W        W22443  16.205  10.165   4.595
57184W        W22444   3.656  26.056   1.379
57185W        W22445  30.983  13.423   3.323
57186W        W22446   0.797  44.761  11.819
57187W        W22447  13.808  18.116  10.577
57188W        W22448  31.562  14.896  12.115
57189W        W22449  15.079  40.170   3.632
57190W        W22450  21.165   6.886   1.046
57191W        W22451  29.997   8.900   0.468
57192W        W22452  15.690  31.016   4.543
57193W        W22453   4.396  26.976  11.992
57194W        W22454  12.359  23.782   2.889
57195W        W22455  12.216  26.069  14.841
57196W        W22456  19.232  19.128   4.478
57197W        W22457  31.656   2.742  14.348
57198W        W22458  34.930  35.503   0.758
57199W        W22459  14.792  38.483   2.194
57200W        W22460  34.591  42.999   0.685
57201W        W22461  23.828   7.856   5.040
57202W        W22462  39.398   8.616  10.546
57203W        W22463  35.280   6.349  14.244
57204W        W22464  30.518  24.332   0.978
57205W        W22465   2.731  21.501   1.942
57206W        W22466  39.877  44.920   3.973
57207W        W22467  29.003   0.332   3.175
57208W        W22468  18.011  12.378   4.357
57209W        W22469  23.985  23.155  11.991
57210W        W22470  34.906  17.618   3.904
57211W        W22471  29.312  19.832  12.508
57212W        W22472  28.508   3.908   3.749
57213W        W22473  33.338  12.662  10.755
57214W        W22474  35.539  29.874   4.192
57215W        W22475  19.826  20.978  13.360
57216W        W22476  25.551  42.806  14.255
57217W        W22477  17.563  41.489   0.465
57218W        W22478  42.869  28.483  11.497
57219W        W22479  13.225  33.431   0.006
57220W        W22480   3.943   6.532   2.786
57221W        W22481  21.098  37.327  13.473
57222W        W22482  12.873  31.111  13.924
57223W        W22483  12.564  22.383  12.030
57224W        W22484  27.492   1.271   1.297
57225W        W22485  27.958  40.031  13.304
57226W        W22486  24.030  38.106   5.403
57227W        W22487  26.212   3.331   0.111
57228W        W22488  38.591  24.906  11.986
57229W        W22489   6.134  32.741  12.215
57230W        W22490  42.966  25.650  14.588
57231W        W22491  33.421  20.455  13.860
57232W        W22492  42.881   6.598  12.588
57233W        W22493  32.549  28.689   2.842
57234W        W22494  23.177  40.287   2.431
57235W        W22495   4.430  18.014   2.790
57236W        W22496  40.983   4.275  14.272
57237W        W22497   6.766  33.536   3.230
57238W        W22498  43.892  19.448   2.122
57239W        W22499   5.891  16.767  12.067
57240W        W22500  38.999  32.134   3.362
57241W        W22501  10.607  22.543  14.781
57242W        W22502  20.643   9.071  10.612
57243W        W22503  44.916  17.635   4.439
57244W        W22504  25.563  42.461  13.849
57245W        W22505  17.804   9.287   1.592
57246W        W22506   0.045  21.753   0.279
57247W        W22507   9.696  15.665   3.349
57248W        W22508  31.433   4.434   3.778
57249W        W22509  44.051  29.078   0.062
57250W        W22510   3.762  28.610   0.941
57251W        W22511  34.803  16.747  14.950
57252W        W22512  37.243   6.818  12.397
57253W        W22513  42.586  19.795  13.917
57254W        W22514   9.922   5.853   4.763
57255W        W22515  40.459  37.003  11.528
57256W        W22516  15.262  27.126   4.135
57257W        W22517  37.452  44.447   1.856
57258W        W22518  39.505  21.629  14.065
57259W        W22519  19.306   3.443  13.833
57260W        W22520  22.101  30.017   0.955
57261W        W22521  12.594   1.419  14.154
57262W        W22522   2.236  17.665  11.651
57263W        W22523   7.372  32.400   3.245
57264W        W22524  14.488  43.778  13.193
57265W        W22525  38.545  18.723   4.600
57266W        W22526   2.011  22.709   0.857
57267W        W22527  38.507   9.228   3.169
57268W        W22528   8.307  22.144   0.545
57269W        W22529  29.101  43.006   3.818
57270W        W22530  12.154  15.169   2.286
57271W        W22531  24.967  21.206   1.363
57272W        W22532  12.777  40.306   0.443
57273W        W22533   2.091  30.520  11.228
57274W        W22534  17.854  27.390  12.513
57275W        W22535  32.548   6.431  13.113
57276W        W22536  13.303   0.958  11.101
57277W        W22537  24.498  37.469   3.819
57278W        W22538  19.115  33.954  14.540
57279W        W22539   9.790   4.233   0.374
57280W        W22540  27.636  15.261  14.325
57281W        W22541  31.155  35.856  12.948
57282W        W22542  19.328  10.112  13.791
57283W        W22543  43.453   5.431  13.016
57284W        W22544  22.718  44.836  10.424
57285W        W22545   4.809   0.423   4.446
57286W        W22546   8.213   1.173   1.207
57287W        W22547   1.978  17.127  11.599
57288W        W22548   9.124  25.941  10.654
57289W        W22549   7.158   9.211  13.473
57290W        W22550  14.583   8.712  13.956
57291W        W22551   4.195  27.671  11.635
57292W        W22552   7.206  26.959  10.256
57293W        W22553  26.673  31.703  10.603
57294W        W22554   6.479  43.363   3.709
57295W        W22555  19.815  20.117  14.374
57296W        W22556  37.671   1.863   0.783
57297W        W22557  37.572   2.957   1.415
57298W        W22558  37.551  20.013   0.546
57299W        W22559  34.728  29.403  14.257
57300W        W22560   0.261  39.527   2.479
57301W        W22561   1.239  21.698  14.703
57302W        W22562  32.839  18.041  10.938
57303W        W22563  20.427  11.987   4.620
57304W        W22564  10.693  26.828  12.466
57305W        W22565  33.990  42.927   1.508
57306W        W22566  29.672   7.854  11.418
57307W        W22567   8.002   2.746  12.943
57308W        W22568  40.785  36.566   3.388
57309W        W22569  25.108  28.341   3.261
57310W        W22570  40.147  39.519   0.728
57311W        W22571  27.479  42.276  11.093
57312W        W22572  30.938  14.051   2.467
57313W        W22573  33.033  44.864   0.448
57314W        W22574  34.009  11.252  10.462
57315W        W22575  20.758  19.884   4.368
57316W        W22576  30.973  23.956  13.901
57317W        W22577  20.490  34.039  13.557
57318W        W22578  33.837  28.688  10.965
57319W        W22579  16.518   6.763  14.430
57320W        W22580  36.363  35.345   2.438
57321W        W22581  31.149  15.633   3.167
57322W        W22582  19.054   8.157   1.468
57323W        W22583  44.038  17.055   4.145
57324W        W22584  32.497  26.955   5.436
57325W        W22585   0.198  38.536   0.395
57326W        W22586  11.682  20.263   0.918
57327W        W22587  27.235  40.951   2.217
57328W        W22588  23.256  44.467  14.968
57329W        W22589  20.799  23.028  13.641
57330W        W22590   6.984   0.824  14.449
57331W        W22591  17.685   6.639   2.338
57332W        W22592   7.268  35.504  12.671
57333W        W22593  10.175  35.529  13.852
57334W        W22594  28.623   9.685  14.776
57335W        W22595   7.418  30.369   3.405
57336W        W22596  37.388   9.236   1.534
57337W        W22597   2.393  13.398   4.985
57338W        W22598  29.594  19.125   4.212
57339W        W22599  33.590  30.631  14.314
57340W        W22600  24.459  24.749  13.157
57341W        W22601   3.192  36.266   4.547
57342W        W22602  13.344   3.854  12.309
57343W        W22603   7.078  33.358   2.424
57344W        W22604  24.797  15.991  13.912
57345W        W22605  42.889  34.104  10.647
57346W        W22606  31.138  15.392   1.894
57347W        W22607  10.872   0.003  11.588
57348W        W22608  31.654  29.968   1.897
57349W        W22609   2.327   6.174   4.548
57350W        W22610  20.541  31.075  13.587
57351W        W22611   2.687  16.283  14.942
57352W        W22612  40.447  22.284   0.284
57353W        W22613  15.054  37.037   4.243
57354W        W22614  16.713  33.926   4.850
57355W        W22615  20.936  31.620  14.051
57356W        W22616  43.788  15.729  14.926
57357W        W22617  29.884  11.989   2.003
57358W        W22618  34.566  41.022   0.939
57359W        W22619  26.574  23.255  14.941
57360W        W22620  23.022   8.772  14.243
57361W        W22621  35.496  41.249  10.676
57362W        W22622  37.274  20.717   0.634
57363W        W22623  41.571  10.747  12.143
57364W        W22624  26.453  25.642   2.340
57365W        W22625  37.627  39.019  14.811
57366W        W22626  37.010  42.321   3.305
57367W        W22627  17.917  22.295  10.329
57368W        W22628  19.737  22.811   3.167
57369W        W22629  37.975  10.857  12.929
57370W        W22630   5.972   5.783   4.612
57371W        W22631  36.725  37.178  10.483
57372W        W22632  40.873  28.571   2.346
57373W        W22633  37.843  42.844  11.743
57374W        W22634   1.449   8.452  12.493
57375W        W22635   4.875  29.887  12.504
57376W        W22636  36.546  41.811   2.808
57377W        W22637  16.634   8.130   0.791
57378W        W22638  18.676  38.523  10.376
57379W        W22639  42.319  27.621   1.856
57380W        W22640  34.303  18.753   4.129
57381W        W22641  33.569  34.631   0.596
57382W        W22642  10.095   2.455   2.793
57383W        W22643  44.896  20.296  10.673
57384W        W22644  21.142   4.373   0.239
57385W        W22645  38.464  14.701   3.604
57386W        W22646  12.201  38.650   2.477
57387W        W22647  40.579  26.676  11.513
57388W        W22648   4.717   3.951   2.616
57389W        W22649   0.765  24.106  12.549
57390W        W22650   0.761   5.568  14.523
57391W        W22651  24.226  44.849  14.985
57392W        W22652   3.447  16.120   4.833
57393W        W22653   1.487  13.608  13.027
57394W        W22654   1.016  24.237  12.102
57395W        W22655   5.755  43.479  12.451
57396W        W22656  16.108  40.821  11.095
57397W        W22657  42.986   0.799   1.216
57398W        W22658  26.738  38.334   4.147
57399W        W22659  26.683  29.036   3.314
57400W        W22660  28.473   9.338   0.623
57401W        W22661   2.944  31.870  10.428
57402W        W22662  15.728  16.139   4.104
57403W        W22663  30.133  22.074   0.807
57404W        W22664  15.883  26.090   3.064
57405W        W22665  15.231  37.032   0.882
57406W        W22666   6.858  43.839  11.563
57407W        W22667  43.271   8.407  13.572
57408W        W22668   4.454  23.101   1.730
57409W        W22669  22.252  15.674  14.457
57410W        W22670  28.683  28.896   0.823
57411W        W22671  16.073  17.412   3.215
57412W        W22672  13.821  42.993   0.858
57413W        W22673  28.844  19.425   5.751
57414W        W22674   6.307  31.549   0.378
57415W        W22675   9.818  38.313   4.503
57416W        W22676   0.017  33.907   2.439
57417W        W22677  18.090   8.204   4.093
57418W        W22678  16.900   9.834   1.685
57419W        W22679   4.850  21.367   4.141
57420W        W22680  11.342  32.242   0.006
57421W        W22681  26.756  43.581   4.250
57422W        W22682  28.717   0.445   4.091
57423W        W22683  12.785  38.461   3.342
57424W        W22684   8.600  14.001  10.602
57425W        W22685  15.541  38.521   1.670
57426W        W22686  29.610  20.234  13.046
57427W        W22687  16.722  20.301   2.306
57428W        W22688  10.326  32.110  12.950
57429W        W22689  35.328  10.514   0.886
57430W        W22690  22.196  34.429  13.085
57431W        W22691  16.473   5.813  10.378
57432W        W22692  29.961  20.255  13.895
57433W        W22693  12.200  34.558   2.236
57434W        W22694  39.811   5.267   3.393
57435W        W22695  22.967  25.187  12.107
57436W        W22696  27.421  34.666  12.341
57437W        W22697  40.857   0.514   0.316
57438W        W22698  19.237  13.375  13.358
57439W        W22699  44.946  44.255   3.511
57440W        W22700  27.376   7.882   2.557
57441W        W22701  23.892  28.592  13.999
57442W        W22702   4.409  32.468  13.777
57443W        W22703  18.277  35.718   3.156
57444W        W22704   5.241  42.575   1.858
57445W        W22705  37.294  32.094   2.661
57446W        W22706  16.504  33.777  10.710
57447W        W22707  34.857  15.103  13.763
57448W        W22708  17.155   1.900   0.649
57449W        W22709  16.911  39.402  13.046
57450W        W22710   4.262   6.182   3.261
57451W        W22711   1.661  31.410   1.463
57452W        W22712  33.103  34.260   4.948
57453W        W22713  16.371  35.358  12.122
57454W        W22714  38.570  39.040   3.662
57455W        W22715  31.986  13.779  11.123
57456W        W22716  37.027   1.052   3.063
57457W        W22717  13.123   9.264  14.893
57458W        W22718  21.976  31.933   1.790
57459W        W22719  24.680  25.170   1.783
57460W        W22720   6.896  43.992  13.294
57461W        W22721   5.933  17.723   1.136
57462W        W22722  32.804  33.002  11.443
57463W        W22723  40.573  30.677   1.761
57464W        W22724  14.170  24.763   2.265
57465W        W22725   0.358   9.477  12.526
57466W        W22726   4.164   5.353  14.563
57467W        W22727  37.709  11.660   0.894
57468W        W22728  30.996  42.670   2.960
57469W        W22729   5.998  34.909   2.219
57470W        W22730  27.925  23.216  14.511
57471W        W22731  31.622  28.437  14.211
57472W        W22732  10.393  10.803  14.018
57473W        W22733  26.088  26.071   3.269
57474W        W22734   3.573  19.605  12.214
57475W        W22735  25.001  37.107  12.439
57476W        W22736  33.009  19.755  12.444
57477W        W22737  10.183  36.275   5.050
57478W        W22738  14.835  38.848   4.019
57479W        W22739  35.038  11.452  10.934
57480W        W22740  36.930  22.121   3.186
57481W        W22741  41.545   3.840   0.823
57482W        W22742   9.853  39.400   3.022
57483W        W22743  18.511  36.995   2.925
57484W        W22744  43.812   2.852   0.516
57485W        W22745   9.100   5.117   3.163
57486W        W22746  36.999   0.230   5.452
57487W        W22747  27.129  13.423   4.598
57488W        W22748   4.215  22.254   3.235
57489W        W22749  38.785  42.650  11.100
57490W        W22750  34.644   5.031   1.447
57491W        W22751  23.516  37.756   1.227
57492W        W22752  15.699   4.048  12.531
57493W        W22753  16.134   7.778  14.088
57494W        W22754  41.497  21.708  10.622
57495W        W22755   2.781  20.523  10.684
57496W        W22756  33.279  34.868  10.525
57497W        W22757  31.053   3.245  14.448
57498W        W22758  28.594  39.268   2.871
57499W        W22759  33.667  38.351   4.147
57500W        W22760  25.668   5.370   4.920
57501W        W22761  38.084  13.753  14.577
57502W        W22762  15.436  16.786   1.234
57503W        W22763  25.595  10.215  14.670
57504W        W22764  15.152  34.671  13.865
57505W        W22765  26.610  18.861   2.673
57506W        W22766  42.396  33.622   3.748
57507W        W22767  35.304   1.456   0.706
57508W        W22768  12.660  33.594   4.763
57509W        W22769  28.594  23.429   2.306
57510W        W22770  29.606  18.076  14.864
57511W        W22771  17.697  21.611  14.911
57512W        W22772  43.750  33.778  12.770
57513W        W22773  13.682  26.645   0.149
57514W        W22774  33.620   0.240  12.806
57515W        W22775  41.531  24.260  11.524
57516W        W22776  21.746   0.220  10.379
57517W        W22777   1.236  41.996   3.434
57518W        W22778   8.696  18.593   4.732
57519W        W22779   0.930  14.162  11.837
57520W        W22780  24.675   0.878  12.177
57521W        W22781  23.519  27.488  13.976
57522W        W22782  19.006   3.274   0.360
57523W        W22783  10.017  43.734   3.256
57524W        W22784   2.218  31.397   2.286
57525W        W22785  38.028  40.528   4.327
57526W        W22786   7.520  20.953  12.342
57527W        W22787  36.976   8.292   2.571
57528W        W22788   4.470  13.704   2.401
57529W        W22789  38.460  33.101   1.277
57530W        W22790  39.509  41.516   0.031
57531W        W22791  18.394  11.089  14.883
57532W        W22792   8.926  17.538   4.823
57533W        W22793  34.798  30.873  11.321
57534W        W22794  28.738  34.753  14.004
57535W        W22795   8.231   8.822   4.700
57536W        W22796  35.075  38.028   3.565
57537W        W22797   2.987  12.573   3.175
57538W        W22798  13.273  39.098  12.493
57539W        W22799  16.078  40.561   0.407
57540W        W22800  43.447  24.676   3.680
57541W        W22801  15.967  30.526  14.249
57542W        W22802   5.542   4.265  12.457
57543W        W22803   4.808  42.421   3.118
57544W        W22804  22.673  31.622  13.388
57545W        W22805   6.483   1.904  12.539
57546W        W22806  18.295   1.230   3.221
57547W        W22807   4.833  26.536   2.175
57548W        W22808  19.626  18.204  12.898
57549W        W22809   7.288  16.070   3.923
57550W        W22810  33.186  24.231   1.107
57551W        W22811  36.449  15.403   2.422
57552W        W22812  14.761  14.356  12.973
57553W        W22813  17.912  16.057   2.418
57554W        W22814   2.518  34.017  11.740
57555W        W22815  37.532  30.166   1.757
57556W        W22816  43.785  15.111  10.659
57557W        W22817  26.751   5.492   3.770
57558W        W22818  14.686  11.887   0.235
57559W        W22819   2.422  40.680   2.367
57560W        W22820  26.979  17.707  11.088
57561W        W22821  39.537  35.431  13.990
57562W        W22822   9.085  10.748   0.217
57563W        W22823  36.503  15.236  10.932
57564W        W22824   0.373  13.024  13.555
57565W        W22825  10.717  38.937   3.347
57566W        W22826  33.658  43.375  14.375
57567W        W22827  19.612  18.158   2.303
57568W        W22828  22.241   7.683  10.693
57569W        W22829   3.927  19.475  11.514
57570W        W22830  34.799  12.697   3.302
57571W        W22831   4.760   4.678   0.259
57572W        W22832  34.890  15.216   4.459
57573W        W22833  33.087  13.122   4.871
57574W        W22834  32.480  20.099   4.701
57575W        W22835  17.792  12.954   2.055
57576W        W22836  11.934   0.556   3.294
57577W        W22837  26.962  35.857  11.871
57578W        W22838  10.654  37.559  12.385
57579W        W22839   4.901  41.851  14.768
57580W        W22840  36.380   0.088  12.122
57581W        W22841   3.957  37.282  13.978
57582W        W22842  12.047   8.307  10.931
57583W        W22843   5.912  25.970   0.458
57584W        W22844  34.982  28.162  13.848
57585W        W22845  29.705   3.733   2.967
57586W        W22846  18.898   5.432  11.968
57587W        W22847  31.838  11.714  13.882
57588W        W22848   2.837  43.803  14.757
57589W        W22849  33.423   7.809   0.773
57590W        W22850  22.315  22.887   4.169
57591W        W22851  39.536  20.973   2.817
57592W        W22852  22.810  37.149  10.431
57593W        W22853  34.957  38.512   4.370
57594W        W22854  26.637  38.974   4.522
57595W        W22855  43.716  14.374  12.111
57596W        W22856  31.514   5.461   0.495
57597W        W22857   0.495  14.825  13.907
57598W        W22858   8.713  44.840  10.946
57599W        W22859   0.758  24.493   2.352
57600W        W22860  17.051   7.120   2.806
57601W        W22861  44.082  33.889   4.103
57602W        W22862  30.688   2.362  12.420
57603W        W22863  44.672  44.996   3.737
57604W        W22864  41.280  26.327  11.993
57605W        W22865   4.020  13.536   0.532
57606W        W22866  38.604  34.040  12.006
57607W        W22867  15.510  20.547   2.191
57608W        W22868  15.730  16.253  11.466
57609W        W22869  17.587  42.007  11.104
57610W        W22870  28.045  24.984  12.856
57611W        W22871  40.221   9.758  13.890
57612W        W22872  43.792  18.444  13.703
57613W        W22873  18.711  44.442  11.583
57614W        W22874  15.500  13.338   2.804
57615W        W22875  21.425  22.899   0.932
57616W        W22876   1.752  20.453  12.502
57617W        W22877   1.005  29.402  10.041
57618W        W22878  30.747  26.737  14.408
57619W        W22879  26.164   1.489  11.564
57620W        W22880  38.007  16.787   4.070
57621W        W22881  30.488   9.334  14.050
57622W        W22882  19.236  27.958  10.906
57623W        W22883   2.879  21.668   0.974
57624W        W22884   5.987  37.234   9.939
57625W        W22885  27.930  17.505  13.019
57626W        W22886  17.714   5.537   4.085
57627W        W22887  13.259  39.077   0.626
57628W        W22888   8.087  14.092   4.460
57629W        W22889  30.490  41.381  12.053
57630W        W22890  38.462  37.800  10.708
57631W        W22891  41.422   6.955  13.063
57632W        W22892   8.876  28.948   4.212
57633W        W22893  22.493  40.318   0.069
57634W        W22894  14.059  30.579   0.914
57635W        W22895  36.095  15.237  10.606
57636W        W22896  32.841  30.476   3.901
57637W        W22897   8.739   8.888  10.686
57638W        W22898  39.240   7.498  10.497
57639W        W22899  37.912  23.544  14.724
57640W        W22900  27.334   4.802  12.090
57641W        W22901   8.674  26.953  13.929
57642W        W22902  27.971  17.088   4.692
57643W        W22903  29.332  20.489   1.824
57644W        W22904  25.297  15.493   2.706
57645W        W22905  29.768  18.724  11.213
57646W        W22906   1.349  44.851   0.554
57647W        W22907  29.390  13.342   0.079
57648W        W22908  41.605  29.546  12.842
57649W        W22909   5.395  30.115  10.635
57650W        W22910   1.268   9.317  11.564
57651W        W22911   5.119  34.321  11.506
57652W        W22912  12.950  29.300   0.891
57653W        W22913  28.577  38.483  14.127
57654W        W22914  23.063  26.725   4.824
57655W        W22915  25.795  12.839   2.248
57656W        W22916  44.458  19.792   1.422
57657W        W22917  21.804  13.390   3.305
57658W        W22918  17.762  14.187   2.844
57659W        W22919  32.915   2.563  11.063
57660W        W22920  21.244  25.236   2.889
57661W        W22921  14.226  24.935  10.789
57662W        W22922   9.524  35.289  14.742
57663W        W22923   7.823  30.258  10.437
57664W        W22924  33.763  18.211  10.719
57665W        W22925  17.050   2.596  12.569
57666W        W22926  37.912  42.692   1.214
57667W        W22927  18.770  10.438   0.400
57668W        W22928  11.174  37.051  11.650
57669W        W22929  15.557  44.160  11.222
57670W        W22930  34.382  10.372  13.224
57671W        W22931  16.719  11.228   2.211
57672W        W22932   5.288  11.824   1.593
57673W        W22933  15.321  26.486   1.969
57674W        W22934  32.433  23.226  13.034
57675W        W22935  42.099  31.870   4.983
57676W        W22936   8.380  27.609   3.253
57677W        W22937  28.759  32.255  13.076
57678W        W22938   0.069  27.495  13.768
57679W        W22939  11.369  15.797  14.999
57680W        W22940   2.439  43.119  10.346
57681W        W22941  32.570   1.811  12.000
57682W        W22942   0.272   1.411  11.420
57683W        W22943  41.489  30.530  12.901
57684W        W22944  10.068  35.992  11.938
57685W        W22945  31.630  39.517  14.444
57686W        W22946  36.537  41.341  11.523
57687W        W22947  33.593  29.611  14.325
57688W        W22948  17.703  35.065   0.926
57689W        W22949  20.167  10.185   4.310
57690W        W22950  11.092  31.492   2.315
57691W        W22951  16.866  14.098  11.115
57692W        W22952  21.191   2.506  11.077
57693W        W22953   3.772  16.109  10.989
57694W        W22954  24.223  24.807   0.345
57695W        W22955  19.264  36.745   1.404
57696W        W22956   4.902  31.072  12.642
57697W        W22957  18.200  26.583  11.660
57698W        W22958  28.950  40.944  14.379
57699W        W22959  15.834   2.667   2.805
57700W        W22960  11.791  33.553   1.763
57701W        W22961  22.537  38.965   1.641
57702W        W22962  44.690  12.748  13.035
57703W        W22963   5.751  20.744  14.985
57704W        W22964   2.449  18.254  12.571
57705W        W22965  35.086  30.615   1.254
57706W        W22966  18.255  38.258   0.418
57707W        W22967  44.233  19.137  14.975
57708W        W22968  32.819  39.941   4.362
57709W        W22969  42.314  35.340  12.118
57710W        W22970  19.606  23.471   2.158
57711W        W22971  10.310   7.550   0.797
57712W        W22972  28.057  20.318   1.436
57713W        W22973  13.182  13.244  14.876
57714W        W22974  35.541  42.395  14.994
57715W        W22975  23.736  30.547  14.273
57716W        W22976  24.692  26.366  13.341
57717W        W22977  44.745  44.063  13.333
57718W        W22978  23.739  17.733  12.198
57719W        W22979  21.840  37.541   5.137
57720W        W22980  33.064  21.518  12.843
57721W        W22981   9.077  29.723  11.987
57722W        W22982   5.320  38.855  13.101
57723W        W22983  40.760   9.920  13.847
57724W        W22984  13.042  16.190  11.727
57725W        W22985  40.276   0.484  14.439
57726W        W22986  16.124  28.495   3.348
57727W        W22987   1.441   9.462  14.377
57728W        W22988   2.322  40.349   2.792
57729W        W22989   5.201  28.770   3.179
57730W        W22990   3.746  23.178  11.258
57731W        W22991  20.172  18.388   0.303
57732W        W22992  21.970  35.956   0.464
57733W        W22993  43.086  27.647  12.079
57734W        W22994  13.822  37.552  14.445
57735W        W22995   1.794  37.596   4.593
57736W        W22996  17.014   5.098  13.867
57737W        W22997  10.242  11.519  11.145
57738W        W22998   2.377  18.363  13.434
57739W        W22999   9.022   6.865   0.749
57740W        W23000  22.688  40.312   2.215
57741W        W23001  20.833  14.078  14.307
57742W        W23002  42.955   5.845   3.706
57743W        W23003  42.962  28.429   1.348
57744W        W23004  11.879  31.502  13.549
57745W        W23005  43.754  21.506   3.866
57746W        W23006  23.097   5.379   4.073
57747W        W23007  22.155  43.481   4.555
57748W        W23008  39.817  12.237   1.463
57749W        W23009  34.814  18.128   0.992
57750W        W23010  37.098  14.640   3.788
57751W        W23011  12.886  12.173   2.461
57752W        W23012  37.057  36.759   3.766
57753W        W23013  28.219  39.784  10.679
57754W        W23014  16.639  24.591   3.349
57755W        W23015  12.843   6.117   4.821
57756W        W23016  15.538  37.432  11.176
57757W        W23017  16.980  21.707   1.237
57758W        W23018  44.838  21.360   3.679
57759W        W23019  32.326  21.827   4.656
57760W        W23020   9.403  40.820   1.215
57761W        W23021  25.992  28.352   0.889
57762W        W23022  37.406  43.417  13.900
57763W        W23023  26.624   5.896   3.380
57764W        W23024  20.159   1.337   1.011
57765W        W23025  17.128  30.526  13.039
57766W        W23026  42.738  21.454  12.413
57767W        W23027  27.699  19.484   2.215
57768W        W23028  42.359  42.356  11.933
57769W        W23029  38.092  32.859  13.029
57770W        W23030  39.273  25.150  11.467
57771W        W23031  37.974  17.117   2.146
57772W        W23032  30.952   8.152  13.082
57773W        W23033  18.309  35.224   3.255
57774W        W23034  30.666  34.045   1.217
57775W        W23035  20.351  17.376   2.709
57776W        W23036  33.290  42.000   0.977
57777W        W23037  40.550   2.730   1.645
57778W        W23038  34.208   8.373   2.694
57779W        W23039  24.728  17.789   1.584
57780W        W23040  11.814  19.177   4.683
57781W        W23041  27.676  17.006   3.206
57782W        W23042  35.118  10.724   0.472
57783W        W23043  20.051  25.402   1.617
57784W        W23044  37.907  33.447  12.199
57785W        W23045  36.949   2.971   1.763
57786W        W23046   9.076  35.465  13.911
57787W        W23047  20.668  12.294   0.922
57788W        W23048  39.271  14.767   2.212
57789W        W23049  12.797   2.830   3.561
57790W        W23050  23.138  43.818   3.310
57791W        W23051  41.514  39.086   3.044
57792W        W23052  17.871   7.402  11.938
57793W        W23053   0.836  38.382   2.379
57794W        W23054  36.940  42.027   0.987
57795W        W23055  39.253  41.898  11.506
57796W        W23056  20.768  33.581   3.262
57797W        W23057  36.067  15.249  12.713
57798W        W23058  23.154   5.649   1.607
57799W        W23059  25.160   5.739  14.953
57800W        W23060   7.827   2.184   2.105
57801W        W23061  23.636  43.603   2.425
57802W        W23062  12.709  38.257  13.983
57803W        W23063  41.285  43.431   3.974
57804W        W23064  11.177  29.095   2.238
57805W        W23065   7.965   8.159  12.920
57806W        W23066   0.754  16.675   3.348
57807W        W23067  22.788  29.024  12.625
57808W        W23068  34.418  32.642  10.845
57809W        W23069  17.503  14.043   3.269
57810W        W23070  24.782   1.779   4.607
57811W        W23071  21.716  25.192   4.635
57812W        W23072  27.135   3.694  14.447
57813W        W23073  18.821  35.066   4.182
57814W        W23074  33.019  11.388  13.445
57815W        W23075  16.361   3.978  14.375
57816W        W23076   3.318  25.123  14.032
57817W        W23077  32.654  28.288  14.908
57818W        W23078  33.975  34.115  13.323
57819W        W23079  31.653  10.660   0.266
57820W        W23080  18.473   1.845  13.969
57821W        W23081   6.682  21.051  12.902
57822W        W23082   6.169  40.800   2.270
57823W        W23083  19.793  13.082  14.225
57824W        W23084  14.221  15.713   9.988
57825W        W23085  23.139  17.905   2.291
57826W        W23086  19.159  22.659   1.749
57827W        W23087   8.109  13.129  13.971
57828W        W23088  15.540  42.027   3.629
57829W        W23089  14.794  11.180   4.568
57830W        W23090  35.473  36.295   4.884
57831W        W23091  17.626  39.217   1.113
57832W        W23092  42.181  12.384  14.830
57833W        W23093   1.714  37.621  13.011
57834W        W23094  35.423  25.438  14.379
57835W        W23095  36.754  10.756  11.538
57836W        W23096   2.129  43.099   5.086
57837W        W23097  26.799   1.517   4.174
57838W        W23098  30.606  41.705   0.490
57839W        W23099  24.898  36.428   1.674
57840W        W23100  18.889  43.125  13.019
57841W        W23101  28.377  42.886   3.593
57842W        W23102  38.396  15.297  12.836
57843W        W23103  23.465   2.308   4.615
57844W        W23104  44.446  25.057  10.714
57845W        W23105  43.359   0.296  13.839
57846W        W23106  15.134   1.381  13.940
57847W        W23107   6.001  20.812   1.325
57848W        W23108  21.540  21.011  14.101
57849W        W23109  27.035  24.486   0.012
57850W        W23110  22.013  35.148  10.653
57851W        W23111   5.156  15.197   3.905
57852W        W23112  14.097  12.276  10.694
57853W        W23113  27.002  21.038  11.711
57854W        W23114  18.837  24.684   4.270
57855W        W23115  34.834  17.358   1.681
57856W        W23116  18.692  19.524  12.282
57857W        W23117  18.839  26.468   0.700
57858W        W23118   6.867  22.442   2.871
57859W        W23119  31.632  38.353   4.611
57860W        W23120   7.424  33.987  12.578
57861W        W23121  14.771  44.185   4.182
57862W        W23122  41.431  26.962  11.123
57863W        W23123  13.675  13.250  14.666
57864W        W23124  37.354  11.137   1.465
57865W        W23125  44.324  37.069  11.010
57866W        W23126  17.875  37.313  10.153
57867W        W23127   4.712   7.243  10.161
57868W        W23128   6.421  18.102   2.880
57869W        W23129  32.510   9.259   4.485
57870W        W23130   6.650  39.563  12.340
57871W        W23131  39.426  20.883   4.619
57872W        W23132  43.479  19.290   0.423
57873W        W23133  27.233   0.791   3.091
57874W        W23134  44.346  21.334  13.050
57875W        W23135  18.557  39.577   9.901
57876W        W23136  27.763  16.778   2.751
57877W        W23137   3.515  30.181  13.661
57878W        W23138  14.883  10.668   1.322
57879W        W23139  39.462  22.550  10.470
57880W        W23140  29.030  41.461  14.273
57881W        W23141  28.062  26.091   4.263
57882W        W23142  25.767  17.410   2.373
57883W        W23143  20.143  34.297  10.706
57884W        W23144  20.749  35.014   1.923
57885W        W23145   2.216   1.918   4.555
57886W        W23146  36.098  19.560  11.224
57887W        W23147  37.346  17.182  11.464
57888W        W23148  30.534  13.576  12.718
57889W        W23149  20.027  20.042   2.170
57890W        W23150  23.950  28.170  14.989
57891W        W23151   9.885  21.340   2.740
57892W        W23152   3.878   3.766  12.524
57893W        W23153   4.391  41.030  12.809
57894W        W23154   1.405  23.401  12.439
57895W        W23155   0.944   0.223   0.471
57896W        W23156   9.303  40.148   0.367
57897W        W23157  41.997   1.822   1.306
57898W        W23158  43.323  26.700  10.903
57899W        W23159   0.883  19.228   4.092
57900W        W23160  37.604  26.216  12.985
57901W        W23161  15.181  19.210  14.518
57902W        W23162  33.642  31.135  11.094
57903W        W23163  17.244  36.439   4.733
57904W        W23164  39.723   6.869   4.140
57905W        W23165  10.872  40.942  12.913
57906W        W23166  34.039  29.680   3.120
57907W        W23167  15.833   2.970  14.877
57908W        W23168  10.779  36.082  13.515
57909W        W23169  29.688  13.359  12.994
57910W        W23170   5.173  41.113   2.412
57911W        W23171  14.280   4.325   1.830
57912W        W23172  25.136  29.164   0.935
57913W        W23173   6.753  13.254  13.327
57914W        W23174  26.209   6.867  11.487
57915W        W23175  12.532   1.293  11.546
57916W        W23176  40.432  26.186  11.536
57917W        W23177  13.191   8.283   3.402
57918W        W23178  43.000  33.976   0.246
57919W        W23179   8.179  21.332   4.064
57920W        W23180   3.393   0.820   3.777
57921W        W23181  33.854   7.120   4.110
57922W        W23182   3.834   4.266  13.310
57923W        W23183  10.726  29.085   1.932
57924W        W23184  30.493  41.032  13.360
57925W        W23185  23.776  42.776  11.159
57926W        W23186  29.625   2.446   4.190
57927W        W23187  19.644  19.063  13.073
57928W        W23188   1.404  11.593   2.247
57929W        W23189  43.199  43.008  14.530
57930W        W23190   7.740  39.573   2.967
57931W        W23191  17.869  23.526  11.027
57932W        W23192  33.110   5.674   1.389
57933W        W23193  25.526  21.128  10.640
57934W        W23194  11.232  21.093  12.942
57935W        W23195  29.243  12.648  10.481
57936W        W23196  29.982  43.970  13.037
57937W        W23197   9.786  36.007  14.422
57938W        W23198  10.107  22.966   1.814
57939W        W23199  42.515  12.727  13.449
57940W        W23200  25.430  22.887   2.812
57941W        W23201  27.500   7.919   4.594
57942W        W23202  25.626   3.903   1.408
57943W        W23203  33.555  22.296  10.777
57944W        W23204  38.445  15.806   4.458
57945W        W23205  38.459  27.059  13.803
57946W        W23206   2.774  11.646  14.481
57947W        W23207  10.776   0.501  11.479
57948W        W23208  34.513   1.834   0.855
57949W        W23209  16.618  25.411  13.361
57950W        W23210   4.252  17.413   4.869
57951W        W23211  29.447  23.570   3.145
57952W        W23212  19.349  32.480  11.683
57953W        W23213   4.679  43.588   4.974
57954W        W23214  28.356   6.354   2.659
57955W        W23215  14.258   3.370   3.072
57956W        W23216  15.702  19.682   4.953
57957W        W23217  39.945   2.903  11.969
57958W        W23218  12.317  22.574   4.663
57959W        W23219  26.012  37.637   1.299
57960W        W23220  19.464  30.993   1.296
57961W        W23221  10.383  37.790   4.105
57962W        W23222  30.580  43.062  10.658
57963W        W23223   9.541  42.890   4.210
57964W        W23224   2.690  17.670  13.938
57965W        W23225  44.947  44.752   3.364
57966W        W23226  44.542  27.583  13.772
57967W        W23227  14.347   6.353   2.910
57968W        W23228  12.911  17.082  14.501
57969W        W23229   7.239  14.130   2.810
57970W        W23230  33.933   2.901   4.231
57971W        W23231   7.817  11.918   0.275
57972W        W23232  42.357  39.930   4.677
57973W        W23233  42.226  25.677   2.128
57974W        W23234  18.546  30.067  10.392
57975W        W23235   4.240  10.171  13.432
57976W        W23236  31.159   0.647   0.082
57977W        W23237  17.698  15.909   1.154
57978W        W23238  27.842  26.375   2.724
57979W        W23239  26.070  41.368   2.768
57980W        W23240   3.925   5.067   1.340
57981W        W23241  15.303  10.859   0.996
57982W        W23242  24.999  23.669   3.682
57983W        W23243  25.663  14.168   4.573
57984W        W23244  31.164   2.226  10.956
57985W        W23245  20.306  26.944   2.794
57986W        W23246   1.944  43.033   3.100
57987W        W23247  17.221  15.095  12.092
57988W        W23248  26.000  38.741  13.532
57989W        W23249   9.696  16.173   2.095
57990W        W23250   9.018  27.523   1.727
57991W        W23251  37.870   4.886   0.109
57992W        W23252  23.155  23.164   3.977
57993W        W23253   6.894  16.698  12.661
57994W        W23254   5.230  15.593   5.027
57995W        W23255  43.344  24.258  13.819
57996W        W23256  44.331  30.765   1.252
57997W        W23257  16.270   1.873  13.746
57998W        W23258  15.258  24.815  10.707
57999W        W23259  29.954   9.132   0.925
58000W        W23260   0.784  18.302   4.285
58001W        W23261  29.078  17.137   1.933
58002W        W23262  11.567  40.469  11.112
58003W        W23263  17.996  41.829   1.137
58004W        W23264   4.986  32.549  11.236
58005W        W23265  25.393   7.713   2.619
58006W        W23266  42.717  20.557   0.288
58007W        W23267  34.454   0.179   0.015
58008W        W23268  36.294  39.980   0.409
58009W        W23269  28.167   0.003  10.542
58010W        W23270  43.317  28.246   3.448
58011W        W23271  20.386  18.945   4.983
58012W        W23272  28.622  15.755   0.812
58013W        W23273   3.821  15.171  13.598
58014W        W23274   8.164  44.832   0.437
58015W        W23275  14.860   4.422  12.496
58016W        W23276  22.214  22.569   3.759
58017W        W23277  31.652   5.731   3.854
58018W        W23278  13.565  35.399  13.544
58019W        W23279  41.904  24.638  11.627
58020W        W23280  16.210   8.935   0.820
58021W        W23281   9.708  37.835  14.168
58022W        W23282  29.322   2.490  12.097
58023W        W23283  34.419   7.089  12.432
58024W        W23284  37.966  17.767   0.229
58025W        W23285  15.387  28.646  13.511
58026W        W23286  11.884  21.123   0.944
58027W        W23287  12.823  21.541   1.513
58028W        W23288  22.516  21.670   4.710
58029W        W23289  16.623  15.583  12.860
58030W        W23290  13.659  21.574   1.239
58031W        W23291  37.542  10.638   4.119
58032W        W23292  33.718  29.021  10.556
58033W        W23293  42.441  10.301   2.414
58034W        W23294  26.647  23.498  12.546
58035W        W23295  19.326  39.433   4.749
58036W        W23296  25.611  16.787   4.727
58037W        W23297  15.311   9.793  14.231
58038W        W23298   8.956   1.349  14.017
58039W        W23299  28.381  26.924   9.707
58040W        W23300   2.478  22.993   4.640
58041W        W23301  39.759  18.575  12.950
58042W        W23302  40.855  15.275   4.373
58043W        W23303  30.070  32.490   2.123
58044W        W23304  12.204  24.380  12.021
58045W        W23305  22.288  29.893  11.119
58046W        W23306  18.968   8.245  14.374
58047W        W23307  35.885  16.962  12.135
58048W        W23308   4.791  16.670   4.703
58049W        W23309  22.014  23.206  12.989
58050W        W23310  40.487  24.544  11.587
58051W        W23311  29.787  14.611   1.389
58052W        W23312  20.162  42.477  12.533
58053W        W23313  29.363  43.657   3.819
58054W        W23314   6.460   4.920  13.049
58055W        W23315  32.394  26.467   1.481
58056W        W23316  16.970   7.237  12.358
58057W        W23317  24.732   9.853  11.077
58058W        W23318  32.485  29.735  13.919
58059W        W23319  14.738  33.925  11.413
58060W        W23320  37.007  10.316  11.468
58061W        W23321  39.640  26.673  12.473
58062W        W23322  28.015   3.826   3.836
58063W        W23323  12.824  17.904   0.564
58064W        W23324  26.599   1.736   0.813
58065W        W23325  33.971   4.794  14.099
58066W        W23326  23.629  26.869   4.092
58067W        W23327  33.131  10.890  13.505
58068W        W23328   5.738   8.957  12.519
58069W        W23329  36.387  16.321   2.364
58070W        W23330  22.985   2.392   4.789
58071W        W23331  39.634  40.164  11.924
58072W        W23332   8.655   0.428   0.039
58073W        W23333  37.612   5.226   3.302
58074W        W23334  26.566  18.117   0.113
58075W        W23335  20.062   5.485   3.229
58076W        W23336  25.358   8.140  13.488
58077W        W23337   4.923   4.530  11.213
58078W        W23338   1.935  12.424   2.612
58079W        W23339  26.669  43.772   0.959
58080W        W23340  34.326   8.832  10.669
58081W        W23341  30.915  28.025  11.149
58082W        W23342  32.511   3.758   3.162
58083W        W23343  11.816  11.661   4.612
58084W        W23344  29.525  27.679   4.390
58085W        W23345  29.025  28.351  11.170
58086W        W23346   0.536  30.666   3.744
58087W        W23347  31.715  14.375  14.392
58088W        W23348  13.930   8.444  13.741
58089W        W23349  23.288  17.813   1.441
58090W        W23350  36.485  44.580  12.041
58091W        W23351  24.113  15.655   3.641
58092W        W23352  19.068  35.373   2.453
58093W        W23353  15.124   3.235   0.944
58094W        W23354   3.645   5.754  14.458
58095W        W23355  41.789  38.754  13.426
58096W        W23356  33.376   8.715   1.875
58097W        W23357  37.121   7.870   2.286
58098W        W23358  31.482  43.060   0.853
58099W        W23359  44.721   5.322  12.525
58100W        W23360  21.002  39.313  11.533
58101W        W23361  33.691  29.589   3.809
58102W        W23362   6.849  39.469   0.465
58103W        W23363   2.503  36.801   2.791
58104W        W23364  28.006   1.790  13.842
58105W        W23365  44.035  29.194   0.965
58106W        W23366   9.333  20.468  11.031
58107W        W23367   6.172   1.267  13.795
58108W        W23368  39.094  42.310   4.292
58109W        W23369  44.523  16.358   2.450
58110W        W23370   2.498  13.852  14.460
58111W        W23371  27.474  28.116  12.523
58112W        W23372  33.296  18.493   1.545
58113W        W23373  32.885  30.152   4.544
58114W        W23374   5.415  39.436   4.809
58115W        W23375  11.307   0.267   1.546
58116W        W23376  18.651   4.923  11.147
58117W        W23377  27.417  22.288   0.059
58118W        W23378  15.745   9.805   3.359
58119W        W23379  30.068  40.737  12.450
58120W        W23380  36.398  13.178   1.210
58121W        W23381  21.105  10.212   4.640
58122W        W23382  35.574   2.219   2.165
58123W        W23383  32.553  14.041   0.451
58124W        W23384   7.846  35.870   0.314
58125W        W23385   5.995  31.601   3.720
58126W        W23386  26.424   4.488   2.604
58127W        W23387  31.129  15.533  13.891
58128W        W23388   6.686  32.584   0.866
58129W        W23389  30.489   9.513  11.583
58130W        W23390   9.905  30.546   2.679
58131W        W23391  27.555   2.734   1.772
58132W        W23392  34.580  28.548   0.060
58133W        W23393  25.625  16.246   0.790
58134W        W23394  14.333   8.863  14.388
58135W        W23395  16.674  18.752   4.992
58136W        W23396  32.066  21.607   0.821
58137W        W23397  36.497  20.617   1.192
58138W        W23398  36.594   2.924  11.977
58139W        W23399  33.491   3.012  13.944
58140W        W23400  11.365   8.429  13.854
58141W        W23401  21.117   2.048   4.947
58142W        W23402  34.401   0.474   2.532
58143W        W23403  37.757  15.068  11.028
58144W        W23404  40.941   8.361   4.151
58145W        W23405   8.449  41.012  12.700
58146W        W23406   2.589  20.130   3.286
58147W        W23407  36.371   6.410   1.719
58148W        W23408  37.311  36.609  11.168
58149W        W23409   0.917  38.785  11.579
58150W        W23410  26.054  41.296   0.002
58151W        W23411  17.130   3.980  11.621
58152W        W23412  40.276  21.691  14.764
58153W        W23413  18.304  32.968  11.158
58154W        W23414  10.219  43.359  10.916
58155W        W23415  15.059  13.300  12.112
58156W        W23416  10.204  42.056  10.176
58157W        W23417   6.104  33.187  11.954
58158W        W23418  22.615  18.627   4.466
58159W        W23419   4.457  28.507   2.785
58160W        W23420  27.002   1.184   4.631
58161W        W23421   9.446  42.829  11.567
58162W        W23422  44.236  40.510   1.207
58163W        W23423  20.556  13.315   2.295
58164W        W23424  44.190  10.364  11.642
58165W        W23425  21.467   2.182   3.226
58166W        W23426  10.437   0.736   5.148
58167W        W23427  38.138  38.232  10.691
58168W        W23428  30.287  29.382  11.982
58169W        W23429  32.435  42.639   0.455
58170W        W23430   3.197  19.985  11.512
58171W        W23431  43.744  21.146   1.005
58172W        W23432  17.634  10.806  12.885
58173W        W23433  33.078  16.449  14.205
58174W        W23434   1.364  15.374   1.884
58175W        W23435  42.425   6.100   4.693
58176W        W23436  35.108  38.833   0.935
58177W        W23437  41.373   9.068  14.420
58178W        W23438  17.242  35.113  12.900
58179W        W23439  14.558  43.041   1.841
58180W        W23440  43.192   6.454   0.823
58181W        W23441  38.534  40.073   0.319
58182W        W23442  25.533  14.883  13.939
58183W        W23443  42.290  44.269   2.244
58184W        W23444  34.603  28.655  12.647
58185W        W23445  30.096  21.644  12.015
58186W        W23446  24.023  28.416   1.823
58187W        W23447   8.399  22.627  11.430
58188W        W23448  28.642  24.200  10.733
58189W        W23449   9.444  44.660   4.205
58190W        W23450  36.076  33.484   0.476
58191W        W23451   5.276   7.614   1.373
58192W        W23452  40.447   3.963  14.899
58193W        W23453  28.981  12.704  11.947
58194W        W23454  22.150  24.146  12.514
58195W        W23455  29.321  14.110   4.451
58196W        W23456  22.476  18.444  12.023
58197W        W23457  16.881  40.893   4.994
58198W        W23458  39.480  33.214  13.229
58199W        W23459   2.947  36.495  11.137
58200W        W23460  18.107  39.388   2.813
58201W        W23461  40.353  25.518  14.259
58202W        W23462   3.337   3.022  10.757
58203W        W23463  15.514  18.618  10.703
58204W        W23464   2.370  34.507   2.362
58205W        W23465  39.369   7.905  12.478
58206W        W23466  21.986  20.168  14.528
58207W        W23467  43.290  20.251  11.952
58208W        W23468  34.404  20.826   4.290
58209W        W23469  40.844  31.990  11.184
58210W        W23470  36.800  13.029  12.486
58211W        W23471  18.995   4.528  14.513
58212W        W23472  25.379  17.798   2.370
58213W        W23473  24.038  37.149   2.387
58214W        W23474  11.292  30.600   0.747
58215W        W23475  33.551  17.637  14.780
58216W        W23476  30.091  12.368  12.683
58217W        W23477  31.061  24.439   5.375
58218W        W23478  10.923  33.061  13.413
58219W        W23479  26.634   4.134  11.946
58220W        W23480  16.837  16.632   2.889
58221W        W23481  12.053  21.639  10.822
58222W        W23482  25.982  22.616  11.523
58223W        W23483   0.441  44.399   4.632
58224W        W23484   7.214  41.554  14.017
58225W        W23485  33.467   3.483  11.123
58226W        W23486  23.633  31.668   2.772
58227W        W23487  27.431  44.252   1.414
58228W        W23488  42.852  43.379   2.357
58229W        W23489  28.507  11.863  14.837
58230W        W23490  38.290  33.868   0.573
58231W        W23491  44.281  31.709   0.295
58232W        W23492  41.815  41.410  10.794
58233W        W23493  37.728  12.176  11.159
58234W        W23494  44.221  33.565   0.012
58235W        W23495   1.582  23.139   4.301
58236W        W23496  11.647   8.550  14.287
58237W        W23497  11.243  18.334  14.793
58238W        W23498  23.820  21.677  12.988
58239W        W23499   4.164  39.792   0.722
58240W        W23500  21.681  44.269   0.804
58241W        W23501  12.940  41.556   0.511
58242W        W23502  21.096  19.475  13.481
58243W        W23503   1.062  35.854   3.656
58244W        W23504  16.579  29.248  11.047
58245W        W23505  30.275  38.082  11.426
58246W        W23506   0.496  31.820   2.757
58247W        W23507   5.922  18.054   2.779
58248W        W23508  37.632  31.412  13.799
58249W        W23509   2.384  31.501  12.165
58250W        W23510   8.927  31.990  12.968
58251W        W23511  34.011  16.140   1.068
58252W        W23512  10.289  43.940  14.385
58253W        W23513  14.345   1.704  14.849
58254W        W23514  42.578  37.922   2.278
58255W        W23515  44.837  27.469  12.065
58256W        W23516  35.477  31.638   3.713
58257W        W23517  42.435  20.968  10.622
58258W        W23518  32.479  24.626   4.628
58259W        W23519   8.942  28.635  13.473
58260W        W23520  21.212  35.110   3.591
58261W        W23521   9.012  39.305  11.582
58262W        W23522  37.210  42.903   4.405
58263W        W23523  25.475  17.280   4.580
58264W        W23524  27.063   5.264   4.201
58265W        W23525   0.720   7.966   4.197
58266W        W23526   1.984  22.074   1.343
58267W        W23527  20.127   5.921  12.508
58268W        W23528  16.773   4.501  12.498
58269W        W23529  40.928  40.255  12.895
58270W        W23530  14.012  38.394   1.887
58271W        W23531  37.040   2.905   3.193
58272W        W23532  40.256  20.808   0.508
58273W        W23533  42.848  22.212   4.580
58274W        W23534   6.929   7.047   0.168
58275W        W23535  25.618  21.651   2.023
58276W        W23536  34.843  14.584  13.896
58277W        W23537   5.927  30.212  13.971
58278W        W23538   3.489  31.994  13.013
58279W        W23539  43.750  43.811  14.775
58280W        W23540   3.237  31.988   5.027
58281W        W23541  29.284   5.719  14.460
58282W        W23542   7.733  43.752  12.370
58283W        W23543   6.275  20.979  13.499
58284W        W23544  28.978   3.924  10.975
58285W        W23545  34.272  19.737  11.881
58286W        W23546   0.408  15.036  11.930
58287W        W23547  12.805  11.698  11.563
58288W        W23548  15.836  10.972  14.568
58289W        W23549   1.296  40.350   1.142
58290W        W23550  44.579   0.992  12.612
58291W        W23551  39.316  24.172  14.854
58292W        W23552  27.655  20.851  10.701
58293W        W23553  20.243  43.428   2.089
58294W        W23554  20.599  38.734  13.115
58295W        W23555  25.695   2.008   4.554
58296W        W23556  41.100  34.724   0.805
58297W        W23557   6.820  27.584  14.210
58298W        W23558   5.858  25.443   4.142
58299W        W23559   7.193  21.489  13.854
58300W        W23560  10.598   2.434   2.676
58301W        W23561  40.917  30.017  11.579
58302W        W23562   7.665  29.909   4.759
58303W        W23563  44.911   4.363  10.545
58304W        W23564   8.682  17.542  13.266
58305W        W23565  39.867  17.522  12.082
58306W        W23566  32.445  33.762   3.966
58307W        W23567  29.445  34.006  13.925
58308W        W23568  19.305   2.325   3.630
58309W        W23569   6.701  20.161   3.658
58310W        W23570   3.114   6.798  13.468
58311W        W23571   2.948  17.365  10.651
58312W        W23572  39.087  44.800  13.377
58313W        W23573  25.474   7.994   3.052
58314W        W23574  13.220  26.301  14.788
58315W        W23575  14.689  11.368  12.385
58316W        W23576  35.366  11.445   2.625
58317W        W23577   3.962  32.461  11.295
58318W        W23578  23.071  30.570   1.341
58319W        W23579  39.596  10.269  14.403
58320W        W23580  12.766  27.200  14.429
58321W        W23581  38.371  32.340   2.457
58322W        W23582  26.692  22.014   2.916
58323W        W23583   1.352  12.679  10.753
58324W        W23584   1.414   5.054  12.871
58325W        W23585  27.128  39.608  14.342
58326W        W23586  28.255   2.840  14.719
58327W        W23587  40.775  28.833   0.477
58328W        W23588  23.744  28.231   1.278
58329W        W23589   2.396  24.507   0.515
58330W        W23590  26.757  19.221   5.132
58331W        W23591  30.893  38.043  12.616
58332W        W23592  39.493  42.260  12.823
58333W        W23593  19.658  17.296   1.194
58334W        W23594  21.277  16.184  13.519
58335W        W23595  16.331  28.034   9.950
58336W        W23596  25.252  13.855   4.644
58337W        W23597  27.023  16.938  10.443
58338W        W23598   0.854   0.948   3.168
58339W        W23599   7.052  26.817  14.487
58340W        W23600   8.994  29.773   1.718
58341W        W23601  37.874   6.772   4.194
58342W        W23602   0.376  32.394  12.107
58343W        W23603  35.866  11.929   1.879
58344W        W23604  34.125  29.232  12.673
58345W        W23605  25.975  13.283  13.815
58346W        W23606   0.418  36.396   4.573
58347W        W23607  27.036  27.538  14.337
58348W        W23608  39.483  29.956   2.366
58349W        W23609  31.579   8.207   0.685
58350W        W23610  17.677  36.453  11.887
58351W        W23611   5.059  13.690  14.348
58352W        W23612  16.686  33.471  11.081
58353W        W23613  23.215  27.127   1.398
58354W        W23614   7.088  14.003   3.809
58355W        W23615  29.908  11.224   2.424
58356W        W23616  43.406  42.536  13.098
58357W        W23617  28.581   2.008   3.426
58358W        W23618  16.667  10.394   4.302
58359W        W23619  18.377   1.577  12.059
58360W        W23620  21.747  11.179   2.280
58361W        W23621  42.388  28.440  10.813
58362W        W23622  23.632   5.767  10.648
58363W        W23623  10.716   9.609  14.199
58364W        W23624  22.855  16.714  14.907
58365W        W23625  30.273  41.977  14.876
58366W        W23626  30.440  36.265  12.558
58367W        W23627  19.240  15.271   1.469
58368W        W23628  36.074   0.294   5.327
58369W        W23629  25.838   3.695   0.247
58370W        W23630  14.046  21.041   3.359
58371W        W23631   8.740  20.773  11.717
58372W        W23632  26.796  23.013  12.382
58373W        W23633  15.665  21.142  13.827
58374W        W23634   1.768  44.085  11.164
58375W        W23635  37.882   8.695   3.632
58376W        W23636  17.199  10.308  11.499
58377W        W23637  42.770   7.104   1.452
58378W        W23638  39.658  23.503   0.210
58379W        W23639   5.797  27.485   0.256
58380W        W23640   9.414  21.963  12.531
58381W        W23641   4.750   1.867  11.611
58382W        W23642  44.785   9.413   0.814
58383W        W23643  31.388   9.391  13.051
58384W        W23644  33.939  16.671   3.611
58385W        W23645  13.327  25.977   0.733
58386W        W23646  27.914   2.314  13.938
58387W        W23647  17.746   6.229  13.461
58388W        W23648  18.354  28.009   1.963
58389W        W23649   9.260  16.855  10.726
58390W        W23650  17.901  14.436  12.501
58391W        W23651  13.043  27.929  12.655
58392W        W23652  32.580  35.064  13.199
58393W        W23653  44.014   6.689  10.685
58394W        W23654  20.528  44.246   4.700
58395W        W23655   8.198  39.936  11.549
58396W        W23656  13.694  16.283   3.170
58397W        W23657  29.506   1.041  13.791
58398W        W23658  21.553  20.764   1.739
58399W        W23659  31.432  30.738   3.206
58400W        W23660  10.256  20.646  10.756
58401W        W23661  26.686  37.221   2.408
58402W        W23662  11.881  17.741  14.074
58403W        W23663  41.215   3.821  14.308
58404W        W23664  19.240  23.476   2.982
58405W        W23665  36.545  35.922  14.379
58406W        W23666  36.957  26.466  10.613
58407W        W23667  23.247  26.171   1.430
58408W        W23668  32.537   3.682  14.504
58409W        W23669  29.132  13.448  12.431
58410W        W23670  33.134  31.649   4.599
58411W        W23671  40.662   9.037   3.647
58412W        W23672  21.138   9.749   1.735
58413W        W23673  30.016  39.979  14.066
58414W        W23674  30.681  11.672   2.302
58415W        W23675  11.950  30.872   0.161
58416W        W23676  30.643  26.420  12.050
58417W        W23677   5.483  18.157  12.615
58418W        W23678  32.046  43.905  13.390
58419W        W23679  11.451  44.881   4.057
58420W        W23680  19.741  22.993   2.356
58421W        W23681  17.629  35.949   0.371
58422W        W23682  28.077  35.358  11.549
58423W        W23683  26.971  26.653   0.426
58424W        W23684  11.367  26.148  11.859
58425W        W23685  12.360   3.890   2.290
58426W        W23686  23.138  21.836   4.293
58427W        W23687   6.608  19.067  11.402
58428W        W23688  12.805  13.873  12.489
58429W        W23689  11.375  14.148   4.023
58430W        W23690   3.177  32.354  12.103
58431W        W23691  29.036  36.092   3.216
58432W        W23692  25.044  21.034   4.562
58433W        W23693  29.027  17.200   0.315
58434W        W23694  17.821  37.592   4.456
58435W        W23695  19.009  41.858   3.705
58436W        W23696  34.090  27.066   0.229
58437W        W23697  39.811  12.312   3.222
58438W        W23698   2.798   4.356  13.897
58439W        W23699  35.230  29.199   1.508
58440W        W23700  42.563  19.336   3.747
58441W        W23701  31.135  18.468   0.385
58442W        W23702  13.787  28.517  14.034
58443W        W23703   5.027  13.344  11.965
58444W        W23704   1.417   0.561  12.158
58445W        W23705  35.103  28.341  10.259
58446W        W23706  32.352  35.983  11.719
58447W        W23707  15.263   2.773  13.950
58448W        W23708   6.268  15.788   4.154
58449W        W23709  44.808   1.255  13.094
58450W        W23710  44.754  35.486   2.737
58451W        W23711  11.054   7.766  14.844
58452W        W23712   9.262  30.417   0.255
58453W        W23713   0.741  28.692  13.133
58454W        W23714   7.719   3.374   4.584
58455W        W23715  24.187   1.158   1.450
58456W        W23716  32.166   7.256   4.640
58457W        W23717  34.101   9.126   2.260
58458W        W23718  18.743  11.207  10.677
58459W        W23719   4.719   8.761  13.855
58460W        W23720  20.266   1.822   5.069
58461W        W23721  21.539  18.097   0.295
58462W        W23722   9.143  21.544   1.385
58463W        W23723   4.723  24.440   4.280
58464W        W23724   7.308  36.514   1.328
58465W        W23725  40.364  24.155   4.166
58466W        W23726  18.654  42.312  11.166
58467W        W23727  20.574  11.333   4.053
58468W        W23728  14.235  22.309   0.370
58469W        W23729  15.317  36.490  14.286
58470W        W23730  26.256  32.564  12.360
58471W        W23731   4.164  24.582   2.710
58472W        W23732   4.178  41.322  14.840
58473W        W23733  30.165   4.282  13.445
58474W        W23734  37.848  39.805  12.385
58475W        W23735  22.111  10.258  10.172
58476W        W23736  31.362  23.262   4.095
58477W        W23737  26.634  30.929  11.458
58478W        W23738   8.189  34.845  11.186
58479W        W23739  41.524  21.865   4.521
58480W        W23740  25.179  10.205  12.458
58481W        W23741   4.415  23.453   1.330
58482W        W23742   4.913  35.691   4.038
58483W        W23743  34.012   6.144  10.615
58484W        W23744  21.484  12.197  14.468
58485W        W23745  21.203  34.934   3.116
58486W        W23746  18.206  16.392  13.601
58487W        W23747  19.709   8.369  12.036
58488W        W23748  12.054  10.741  10.658
58489W        W23749  10.245  11.537   5.098
58490W        W23750  41.614  34.530   2.136
58491W        W23751  25.182  21.540   0.190
58492W        W23752  27.164  40.105   0.225
58493W        W23753  16.939  38.502   3.298
58494W        W23754   5.578  42.393  11.751
58495W        W23755   7.656  12.712   1.741
58496W        W23756  32.685  12.271  11.609
58497W        W23757   3.378  28.412  12.960
58498W        W23758   8.340  37.976  11.931
58499W        W23759  30.978  25.064  13.088
58500W        W23760  40.024  14.496   1.885
58501W        W23761   2.820  28.142   9.704
58502W        W23762   9.853  15.608   4.918
58503W        W23763  22.603   3.143   1.843
58504W        W23764  11.694  25.811  11.634
58505W        W23765  30.708  13.847   3.301
58506W        W23766   7.381  44.702   0.929
58507W        W23767  42.945   0.951   2.124
58508W        W23768  10.144  27.994   3.490
58509W        W23769  33.327   4.309   1.777
58510W        W23770  41.393  11.854  10.153
58511W        W23771   6.830  42.940   0.822
58512W        W23772  28.663  43.356  11.644
58513W        W23773  21.538  33.081  11.037
58514W        W23774  19.074  34.758  11.579
58515W        W23775  24.043  36.634   0.457
58516W        W23776  27.099  33.133  14.934
58517W        W23777  30.719  29.153  14.904
58518W        W23778  21.782  18.592   9.802
58519W        W23779  23.750  18.489   1.145
58520W        W23780   7.144  25.466  12.029
58521W        W23781  43.847   9.104  12.607
58522W        W23782   9.644  18.054  12.191
58523W        W23783  41.217  31.400   0.210
58524W        W23784  15.287  32.067  12.847
58525W        W23785  24.444  35.945  14.949
58526W        W23786  18.625  38.824  13.859
58527W        W23787  15.701   7.131  13.249
58528W        W23788  36.612  16.116   0.945
58529W        W23789   1.749  11.818   4.293
58530W        W23790  37.320  33.474   4.437
58531W        W23791   6.306   1.347   4.410
58532W        W23792  13.659  15.358  12.599
58533W        W23793   0.701   5.462  11.512
58534W        W23794  19.532  44.745  12.047
58535W        W23795  44.929   1.273  14.422
58536W        W23796   5.927   3.396   3.692
58537W        W23797  16.653   2.815  14.279
58538W        W23798   3.791  27.178   4.502
58539W        W23799   8.310  43.876   0.544
58540W        W23800   9.504  25.059   2.233
58541W        W23801  21.301  28.236  12.963
58542W        W23802  26.490  26.918   1.731
58543W        W23803  39.813   6.344   1.521
58544W        W23804  16.206  12.870  14.560
58545W        W23805  11.808  23.678  14.777
58546W        W23806  29.836  21.226  14.817
58547W        W23807  39.006   9.941   3.082
58548W        W23808  12.896  13.196  13.262
58549W        W23809   6.723  34.939  13.112
58550W        W23810  36.219   4.205   3.709
58551W        W23811  39.041  35.878   1.473
58552W        W23812   2.651  18.264   4.077
58553W        W23813  27.381   6.750   4.158
58554W        W23814  44.688  34.118  11.634
58555W        W23815  15.818  10.320   3.340
58556W        W23816  13.086  35.118  12.189
58557W        W23817  27.918  31.573   2.364
58558W        W23818  14.455   2.519   0.483
58559W        W23819  13.189  43.251   2.680
58560W        W23820   4.270  10.437   3.735
58561W        W23821  12.213  40.998   4.173
58562W        W23822  30.218  26.557  13.591
58563W        W23823   3.299   7.330   1.371
58564W        W23824  36.024  27.716  13.333
58565W        W23825  15.119  24.940   2.866
58566W        W23826  31.720  18.496  12.190
58567W        W23827  36.168  23.004   4.902
58568W        W23828  15.095  44.188  10.966
58569W        W23829  44.293   3.882   2.222
58570W        W23830  21.957  32.111  14.455
58571W        W23831   8.186  10.178  12.539
58572W        W23832  17.514  40.381   0.313
58573W        W23833  43.665  18.614   4.091
58574W        W23834  42.861  18.066  13.041
58575W        W23835  23.893  15.187  12.284
58576W        W23836  41.396  32.780   1.660
58577W        W23837   6.474  27.448  12.460
58578W        W23838   9.652  18.788  13.844
58579W        W23839  40.230  14.430   3.668
58580W        W23840  33.894  20.185   4.521
58581W        W23841  33.307   9.354   3.306
58582W        W23842  39.706   7.301  12.548
58583W        W23843   0.254  36.864  11.524
58584W        W23844  26.131  17.873   0.267
58585W        W23845  15.309  15.468  12.587
58586W        W23846   0.969  41.896   0.374
58587W        W23847  26.266  34.090  14.242
58588W        W23848  33.887  38.323   0.878
58589W        W23849  21.585  42.529  10.556
58590W        W23850  16.868  35.140   4.127
58591W        W23851  43.019  33.020  12.097
58592W        W23852  28.718   5.344   0.243
58593W        W23853  43.700  33.520  13.687
58594W        W23854  25.699  25.785  10.324
58595W        W23855  20.894   4.472  10.271
58596W        W23856  10.485  11.153   1.257
58597W        W23857  24.976  10.414   1.725
58598W        W23858  26.774   4.321  12.874
58599W        W23859  10.582  18.961   4.734
58600W        W23860  15.848   4.892  11.470
58601W        W23861  11.647   9.380  13.967
58602W        W23862  24.692   1.143   3.156
58603W        W23863  14.304   9.710   0.897
58604W        W23864  37.878   9.612  11.219
58605W        W23865  30.907  20.583  11.987
58606W        W23866  11.994   3.891   1.476
58607W        W23867  40.353  31.566   0.922
58608W        W23868  25.454  12.632  11.246
58609W        W23869  15.953  12.181   3.322
58610W        W23870  40.761  22.671   1.454
58611W        W23871  42.328  42.850   3.679
58612W        W23872  42.250  22.642   1.274
58613W        W23873  42.607  12.224   1.723
58614W        W23874  22.375  23.425   4.918
58615W        W23875  35.388  26.175  13.452
58616W        W23876  13.104   9.813  11.053
58617W        W23877  29.982   2.678  12.458
58618W        W23878  15.539   5.717  14.423
58619W        W23879   1.746  15.866   3.699
58620W        W23880  18.668  44.860  13.829
58621W        W23881  41.283  42.315  12.007
58622W        W23882   7.429   7.920   4.954
58623W        W23883  37.569  31.953  10.650
58624W        W23884   4.014  34.955  13.533
58625W        W23885  38.780  18.283  12.345
58626W        W23886  43.472  31.655  10.855
58627W        W23887   5.120  28.486   4.529
58628W        W23888   7.590   1.882  11.948
58629W        W23889  10.483  11.095   4.993
58630W        W23890  13.059  15.096   1.227
58631W        W23891  13.664  18.467  10.953
58632W        W23892  32.431  15.537   3.123
58633W        W23893  11.799  39.431   0.661
58634W        W23894  30.157   3.693  14.538
58635W        W23895  27.135  22.070  10.351
58636W        W23896  15.901   2.384  12.902
58637W        W23897   6.781  13.930   2.952
58638W        W23898  25.944   3.234  12.889
58639W        W23899   9.907  26.616  10.985
58640W        W23900  10.695  31.086   3.765
58641W        W23901  28.173  22.729  13.772
58642W        W23902  44.258  35.286   0.732
58643W        W23903  15.286   4.631   4.662
58644W        W23904  35.415  35.172  13.632
58645W        W23905   9.614  33.130  13.604
58646W        W23906  13.042   8.772   3.505
58647W        W23907  14.282   2.884  13.571
58648W        W23908  29.772  13.500  10.673
58649W        W23909  14.702  12.833   2.279
58650W        W23910  34.518  36.074  14.055
58651W        W23911  23.695  26.698  10.434
58652W        W23912   5.483  32.127  14.423
58653W        W23913   2.778  43.768  12.828
58654W        W23914  28.813  24.577   1.063
58655W        W23915  40.486  24.628  10.713
58656W        W23916  42.040  36.443  12.432
58657W        W23917  39.278   3.293   4.643
58658W        W23918  15.608  40.027  12.149
58659W        W23919  43.965  35.632   1.890
58660W        W23920  16.281  39.498   0.399
58661W        W23921  29.259   0.579   4.092
58662W        W23922  35.473  21.273  12.551
58663W        W23923  40.620  40.552  13.213
58664W        W23924  38.869   7.524  11.668
58665W        W23925  42.053   5.306   1.832
58666W        W23926  42.296  42.312   3.776
58667W        W23927  25.636  25.599   3.645
58668W        W23928  36.708   0.485  12.119
58669W        W23929  15.329  10.193  10.678
58670W        W23930  44.540  16.606  10.204
58671W        W23931  14.217  27.935   5.028
58672W        W23932  34.474  36.661  11.169
58673W        W23933  41.114   4.303  11.667
58674W        W23934  19.707  43.288  11.544
58675W        W23935  36.531   2.733   0.946
58676W        W23936   2.987  36.571   1.333
58677W        W23937  30.030  30.916  13.904
58678W        W23938  17.210  22.711  14.638
58679W        W23939  15.743  28.308   0.228
58680W        W23940  43.394  38.225   1.496
58681W        W23941  24.297   9.912  12.419
58682W        W23942  12.685  24.707  14.432
58683W        W23943  39.633  33.706  13.895
58684W        W23944  18.481   5.945  14.521
58685W        W23945  12.705   0.744  13.889
58686W        W23946  42.241  39.327   4.116
58687W        W23947  41.940  30.930   0.394
58688W        W23948  35.856  38.547  11.605
58689W        W23949  26.550  23.240  13.967
58690W        W23950  29.755   7.274  14.814
58691W        W23951  31.067   3.519   1.304
58692W        W23952  25.049  35.002   2.880
58693W        W23953  31.089  40.335  12.346
58694W        W23954   5.363   6.154   1.934
58695W        W23955   2.612  38.275   3.658
58696W        W23956  24.074  21.669   2.224
58697W        W23957  34.087  31.781   4.866
58698W        W23958  31.971  20.120   0.095
58699W        W23959   6.295  26.155   1.228
58700W        W23960  40.453  19.351   3.152
58701W        W23961  15.026  26.055  12.184
58702W        W23962  21.933  38.511  11.999
58703W        W23963  33.604  34.868  11.494
58704W        W23964  35.196  35.012  11.896
58705W        W23965   7.237   0.929  13.177
58706W        W23966  11.655  26.602  13.452
58707W        W23967   1.479   0.702   1.741
58708W        W23968  11.777  26.135   0.760
58709W        W23969  17.367  40.188   3.819
58710W        W23970  19.983  43.873  14.908
58711W        W23971  38.315  26.086  12.331
58712W        W23972  22.238   0.410   0.288
58713W        W23973  26.171  36.827  13.485
58714W        W23974  38.112   7.922   0.461
58715W        W23975  42.539  30.602   1.026
58716W        W23976  16.377  44.398   0.755
58717W        W23977  14.557   2.455   4.719
58718W        W23978   9.091   5.466  12.035
58719W        W23979  36.015  34.501   3.761
58720W        W23980  32.193  43.717   0.227
58721W        W23981  39.777  28.365   3.692
58722W        W23982  43.645  10.342  11.623
58723W        W23983  42.440  42.596   1.791
58724W        W23984  31.685   5.943  11.162
58725W        W23985  20.089  32.406   2.315
58726W        W23986  44.383  17.746   3.645
58727W        W23987  35.169  24.955  10.304
58728W        W23988  18.347  32.404   4.995
58729W        W23989   0.038  34.038   3.251
58730W        W23990  37.051  34.015  11.001
58731W        W23991  41.029  22.903   3.940
58732W        W23992   8.869   4.343  12.508
58733W        W23993  23.385  37.094   4.332
58734W        W23994   4.851   0.192   2.819
58735W        W23995  43.914  28.894   2.322
58736W        W23996  15.326  23.649  10.190
58737W        W23997  16.562  34.027   2.663
58738W        W23998  26.811   4.231   0.781
58739W        W23999  24.200  23.432   4.938
58740W        W24000   4.784  43.089   4.732
58741W        W24001   7.403  10.128   4.373
58742W        W24002  43.928  30.880   2.557
58743W        W24003  44.208   5.343  12.575
58744W        W24004  36.192  37.796   0.887
58745W        W24005  35.518  34.243  10.940
58746W        W24006  15.967   2.523  14.044
58747W        W24007   5.768  16.775  12.615
58748W        W24008  34.010  34.556   3.583
58749W        W24009  17.488  13.291   1.819
58750W        W24010  28.863  24.850  14.032
58751W        W24011  15.070  31.378   0.743
58752W        W24012  44.316   3.623   0.864
58753W        W24013  17.184  24.557  13.338
58754W        W24014  42.215  33.164  11.182
58755W        W24015  21.113   6.366  14.082
58756W        W24016  34.678  30.875  13.563
58757W        W24017   0.343  40.018   2.324
58758W        W24018  12.205  10.357   1.621
58759W        W24019  17.315  32.022  11.320
58760W        W24020  22.025  40.375   0.572
58761W        W24021  34.849   1.130  10.252
58762W        W24022  44.326  39.547  13.057
58763W        W24023  20.218  44.221   0.682
58764W        W24024  39.817   4.824  10.192
58765W        W24025  32.513  14.680  11.664
58766W        W24026   6.621  23.470   2.337
58767W        W24027  37.261  26.984   0.401
58768W        W24028  38.310  18.800   0.017
58769W        W24029  42.034  18.171  10.605
58770W        W24030  21.758  27.846  13.871
58771W        W24031  38.381   6.927  13.828
58772W        W24032  44.222   1.367   2.619
58773W        W24033  17.314  32.644   2.922
58774W        W24034  27.447  28.140  11.741
58775W        W24035  27.933   8.324  14.333
58776W        W24036  13.800  15.014   0.916
58777W        W24037  36.404  38.036   1.299
58778W        W24038   2.662   2.416   1.869
58779W        W24039  35.445  11.395   1.218
58780W        W24040  25.647  41.622   3.689
58781W        W24041  18.019  26.197   0.980
58782W        W24042  43.832  15.145   5.530
58783W        W24043  23.734   9.775   1.818
58784W        W24044  12.141  36.523  12.500
58785W        W24045   6.453  37.447   0.684
58786W        W24046  30.691  44.539  13.260
58787W        W24047  27.816  33.555  10.044
58788W        W24048   9.675  38.542  11.526
58789W        W24049  36.916  21.701   3.524
58790W        W24050  23.150   7.455   2.737
58791W        W24051  24.447  12.254  13.353
58792W        W24052  39.737   2.243   2.610
58793W        W24053  28.073  18.798  11.053
58794W        W24054  23.916  14.151  12.545
58795W        W24055  22.278  34.316   5.082
58796W        W24056  24.613   2.015   1.280
58797W        W24057  19.458  13.780   0.515
58798W        W24058  42.042  15.167  13.867
58799W        W24059   3.040  31.812   0.202
58800W        W24060  13.581  37.066   0.322
58801W        W24061  32.567  41.263   3.768
58802W        W24062  39.480   0.367   4.605
58803W        W24063   6.947  34.572   1.195
58804W        W24064   7.310   1.714   3.682
58805W        W24065  36.485  34.132  12.787
58806W        W24066   7.222  38.079  14.467
58807W        W24067  20.912  11.094   1.718
58808W        W24068   9.396  41.064   2.634
58809W        W24069  29.551  37.440   0.748
58810W        W24070   2.303  39.658   2.345
58811W        W24071  21.111  19.105   4.276
58812W        W24072  38.039   5.715   2.203
58813W        W24073  35.506  38.054  11.529
58814W        W24074  38.689  34.419   3.446
58815W        W24075  37.803  17.128   4.665
58816W        W24076  38.587   1.067   0.316
58817W        W24077  39.833  29.011   0.287
58818W        W24078   2.262  23.714   3.025
58819W        W24079   0.232  36.292  14.094
58820W        W24080  25.437  19.958   0.235
58821W        W24081  36.104  27.178   0.812
58822W        W24082  11.401  36.659   1.446
58823W        W24083  11.655   9.347   2.514
58824W        W24084  18.137  37.372   2.894
58825W        W24085   4.394  30.671   1.227
58826W        W24086  30.465  24.849  10.295
58827W        W24087  34.432   9.125  14.484
58828W        W24088  35.464  26.484   4.460
58829W        W24089   4.833   2.539  12.024
58830W        W24090  31.236   2.666   1.707
58831W        W24091  41.257  27.171   3.652
58832W        W24092  12.556   4.628   0.574
58833W        W24093  41.774  36.119   1.215
58834W        W24094  36.485  10.812  12.095
58835W        W24095  33.829   2.348   2.666
58836W        W24096  33.473  37.079  11.102
58837W        W24097  35.373   5.696   2.391
58838W        W24098  44.874   5.408   2.800
58839W        W24099  35.457  29.172  12.842
58840W        W24100  30.996  29.178   0.385
58841W        W24101  12.766  42.754  13.811
58842W        W24102  31.441   1.827   4.250
58843W        W24103  32.451  32.490   1.461
58844W        W24104  37.666   7.651  12.891
58845W        W24105  21.579  18.876  11.120
58846W        W24106  23.021  10.158  12.616
58847W        W24107   0.658  39.129  13.438
58848W        W24108  15.776  38.267   0.367
58849W        W24109   8.288  31.162   0.282
58850W        W24110  28.103  37.260  10.917
58851W        W24111  15.349  29.454  12.108
58852W        W24112   1.467  40.033   1.857
58853W        W24113  26.212  34.570   4.241
58854W        W24114   4.262  25.091   2.596
58855W        W24115  22.589  36.860  12.112
58856W        W24116   4.728  13.684  11.719
58857W        W24117   5.386   8.731   1.963
58858W        W24118  34.581  11.698   0.773
58859W        W24119  21.452  25.413  14.798
58860W        W24120   3.745  43.543   2.195
58861W        W24121   1.016  37.848  13.579
58862W        W24122  20.903  13.789   0.630
58863W        W24123  29.665   6.566   2.531
58864W        W24124  38.783  20.217   2.881
58865W        W24125  39.639   0.356   4.133
58866W        W24126  37.467  15.146  10.597
58867W        W24127  26.214  34.533   1.455
58868W        W24128  28.519  27.931   4.714
58869W        W24129  15.610  24.100   4.529
58870W        W24130  21.894  40.026   3.620
58871W        W24131  16.237  12.716   4.300
58872W        W24132  33.412  42.357  10.427
58873W        W24133  12.754  26.548  13.921
58874W        W24134  31.033  12.602   1.468
58875W        W24135  12.149  10.274  11.062
58876W        W24136  37.182   2.440   4.548
58877W        W24137   7.761   7.097   1.882
58878W        W24138   5.379  19.216  10.476
58879W        W24139  26.538   2.518   1.249
58880W        W24140   0.932   9.648  13.268
58881W        W24141  42.933  40.928  10.628
58882W        W24142  28.715   8.118  12.565
58883W        W24143   4.823  42.066   4.605
58884W        W24144  39.441  21.326  12.468
58885W        W24145  31.142  14.160   5.124
58886W        W24146  41.926  26.156   4.624
58887W        W24147  18.283  17.377   2.924
58888W        W24148  17.378  25.285   0.759
58889W        W24149  15.533  38.413   2.772
58890W        W24150  35.641  21.699  11.082
58891W        W24151  22.701  44.291   5.104
58892W        W24152   0.993  16.606   0.729
58893W        W24153   5.847   1.424   1.581
58894W        W24154  25.107  16.411   4.095
58895W        W24155  16.730  36.105  10.614
58896W        W24156  35.659  43.955   0.265
58897W        W24157  12.642  26.201  14.414
58898W        W24158   4.851  37.573  13.916
58899W        W24159  40.920   2.693  10.649
58900W        W24160  31.839  31.416  13.862
58901W        W24161  11.221  30.084  12.134
58902W        W24162  41.479  35.472   3.702
58903W        W24163  34.223  44.535  12.386
58904W        W24164  28.467  35.089   3.300
58905W        W24165   0.077   7.760   1.179
58906W        W24166  20.090  30.864   0.258
58907W        W24167  31.019  24.386  10.671
58908W        W24168  39.080  13.677  11.020
58909W        W24169  21.965  44.900   1.862
58910W        W24170  17.754   4.324  10.488
58911W        W24171   3.873   6.612  11.135
58912W        W24172   2.685  34.005  13.523
58913W        W24173   7.874  29.495   3.388
58914W        W24174  27.880  20.121   2.818
58915W        W24175  44.986   7.747  13.463
58916W        W24176  37.858   7.426   0.445
58917W        W24177  14.624   3.055   1.247
58918W        W24178  36.329  15.746  14.482
58919W        W24179   7.059  17.356   4.558
58920W        W24180  30.143  14.350   4.136
58921W        W24181  44.435   3.418   3.512
58922W        W24182  39.229  35.432  13.524
58923W        W24183  30.151  16.268  12.034
58924W        W24184  17.628   7.513   4.947
58925W        W24185  29.531   3.843   2.497
58926W        W24186  23.062  38.962   2.165
58927W        W24187  35.604  42.843   4.933
58928W        W24188  22.567  29.079   2.462
58929W        W24189  31.562  34.830   0.386
58930W        W24190  27.457  29.831   1.871
58931W        W24191  35.507  26.195  14.801
58932W        W24192   3.259  39.454  14.377
58933W        W24193   1.552  44.900  10.784
58934W        W24194  38.317  42.364   5.155
58935W        W24195   9.225  19.299   3.680
58936W        W24196  31.875  21.541   1.733
58937W        W24197  33.595  37.274  10.568
58938W        W24198  10.246  19.280   2.242
58939W        W24199  32.591  16.562   0.638
58940W        W24200  26.602   0.560  14.243
58941W        W24201   8.916  19.299   2.712
58942W        W24202  22.195  25.802   3.266
58943W        W24203  41.449  15.487  13.953
58944W        W24204  28.980  12.601  14.656
58945W        W24205  28.644  24.127  14.307
58946W        W24206  26.513  29.182   4.836
58947W        W24207  15.217   4.240   2.671
58948W        W24208  24.753  16.004  14.980
58949W        W24209  15.182  19.038   0.838
58950W        W24210  24.546  14.805   3.775
58951W        W24211  23.177  41.426   1.828
58952W        W24212  15.332  30.214   4.208
58953W        W24213  15.126   4.322  14.399
58954W        W24214  44.119   9.363   4.700
58955W        W24215  15.982  42.807  12.228
58956W        W24216  20.793  15.792  14.206
58957W        W24217  36.378  17.706   3.136
58958W        W24218  15.717  42.226   1.431
58959W        W24219  25.832  36.924   9.717
58960W        W24220  14.843  10.452  14.848
58961W        W24221  36.479   6.201   3.184
58962W        W24222  11.782   0.975  10.882
58963W        W24223  42.980  15.233  11.557
58964W        W24224  40.482  44.534   4.480
58965W        W24225  13.142  37.075   3.370
58966W        W24226   6.869  21.575  11.142
58967W        W24227  13.200  22.770  13.129
58968W        W24228  27.568  43.037   2.695
58969W        W24229  43.458  35.538  13.911
58970W        W24230  42.263  38.001   4.404
58971W        W24231  42.307  10.591   2.813
58972W        W24232   5.167  27.761  12.076
58973W        W24233   9.679  28.694   9.963
58974W        W24234   5.571   5.691   1.981
58975W        W24235   7.437   9.914  12.432
58976W        W24236  33.458  44.298   4.975
58977W        W24237  19.043  14.384   2.751
58978W        W24238  19.136  38.607  10.994
58979W        W24239  37.959  20.541  11.083
58980W        W24240  19.935  13.225   1.290
58981W        W24241   2.848   5.333  14.065
58982W        W24242  26.038  12.426   4.707
58983W        W24243  20.698   9.303  14.395
58984W        W24244   9.844  12.918   4.669
58985W        W24245  16.602  14.203  13.320
58986W        W24246  16.126  17.206  12.348
58987W        W24247  32.572  24.150   5.366
58988W        W24248   4.683  33.905  10.723
58989W        W24249  13.665  39.849   1.802
58990W        W24250  24.634  29.965  13.915
58991W        W24251  43.185  43.582  12.991
58992W        W24252  40.535  16.209   1.971
58993W        W24253  20.600  12.100  14.823
58994W        W24254  44.481  28.559   2.704
58995W        W24255  14.690  16.226   0.248
58996W        W24256  19.212  42.396  13.335
58997W        W24257  12.190  42.689  10.240
58998W        W24258  14.760   9.680  13.035
58999W        W24259   8.715  39.133  12.871
59000W        W24260  23.945  24.464  10.824
59001W        W24261  14.726  33.114   1.437
59002W        W24262  19.319  23.253   5.502
59003W        W24263  14.421  35.348   4.270
59004W        W24264  29.986  38.131   1.679
59005W        W24265  12.899   9.911   5.418
59006W        W24266  40.072  29.417  12.626
59007W        W24267  28.394  12.261  12.970
59008W        W24268  18.549  25.863  13.637
59009W        W24269  10.912  19.678  12.585
59010W        W24270  38.534  25.600  13.546
59011W        W24271  40.167  37.457   4.781
59012W        W24272  10.222  23.659  11.949
59013W        W24273  16.652  26.022   2.212
59014W        W24274  27.559   5.245   2.368
59015W        W24275  22.062  23.766   0.363
59016W        W24276  44.400  37.087  13.987
59017W        W24277   1.824  25.590  11.791
59018W        W24278  38.855  31.959  11.070
59019W        W24279   6.290   4.480   1.432
59020W        W24280  41.593  24.659  12.580
59021W        W24281  42.682   7.000  13.385
59022W        W24282  36.003  10.687   4.134
59023W        W24283  42.484  25.701  11.126
59024W        W24284  11.282  22.759   4.653
59025W        W24285  14.274  15.776   3.547
59026W        W24286  40.068  16.142   1.722
59027W        W24287  15.657  34.890   0.911
59028W        W24288  43.423  35.079  12.996
59029W        W24289  13.088  35.085  10.453
59030W        W24290   5.397  12.618   3.253
59031W        W24291  32.021  14.663   2.951
59032W        W24292  39.327  24.141  11.406
59033W        W24293  30.206  30.673  11.071
59034W        W24294  37.292  28.959  13.423
59035W        W24295   8.720  10.328   2.770
59036W        W24296  34.405  36.414  14.930
59037W        W24297   5.956  31.119   0.286
59038W        W24298  20.027   7.183  12.954
59039W        W24299  18.590  31.029  12.750
59040W        W24300  15.565  28.009  11.035
59041W        W24301  20.172  26.559  10.188
59042W        W24302  34.974  38.899   0.438
59043W        W24303  29.634   3.850  13.532
59044W        W24304  23.399  21.277  11.557
59045W        W24305   0.573   5.249   2.489
59046W        W24306  18.667  27.797  12.352
59047W        W24307  31.007   3.367   4.988
59048W        W24308  17.607  21.740  11.286
59049W        W24309  41.902   4.798   4.048
59050W        W24310  34.617   8.381   4.574
59051W        W24311  41.356  21.650   3.549
59052W        W24312  15.380  31.788  13.282
59053W        W24313  30.819  26.065   0.171
59054W        W24314  35.299  29.713   1.668
59055W        W24315  26.168  22.091   4.962
59056W        W24316   7.405  24.132   2.352
59057W        W24317  42.908  41.572   1.877
59058W        W24318  19.835   7.336  12.055
59059W        W24319  16.105  16.108   0.440
59060W        W24320  42.236  28.604   4.124
59061W        W24321  23.658  17.808   2.252
59062W        W24322   1.553  27.447  12.553
59063W        W24323  18.819  19.999  12.416
59064W        W24324  33.383  23.060  13.988
59065W        W24325  14.261  44.994   2.288
59066W        W24326   7.721  25.242   2.002
59067W        W24327  42.719  38.098  14.542
59068W        W24328  35.612   7.520   2.205
59069W        W24329   4.877  25.596  13.405
59070W        W24330  35.104  16.727  12.657
59071W        W24331  15.069  21.290   0.376
59072W        W24332  42.873  43.944  12.061
59073W        W24333  31.231  39.114   4.994
59074W        W24334  10.837  33.558  10.981
59075W        W24335  25.209  27.965   2.925
59076W        W24336  17.277   9.153   4.305
59077W        W24337   2.817  35.924   3.405
59078W        W24338   4.910  40.079   4.875
59079W        W24339  29.543  36.874  11.432
59080W        W24340  34.901   7.114   5.045
59081W        W24341  42.030  17.459   3.629
59082W        W24342  44.458  12.403   4.139
59083W        W24343  20.525   0.769   4.743
59084W        W24344   4.747   4.533  12.849
59085W        W24345  25.554  25.962   4.157
59086W        W24346  17.249  38.079   4.070
59087W        W24347  22.676  30.708  11.163
59088W        W24348  27.006  31.905  12.113
59089W        W24349   8.147  33.481  13.762
59090W        W24350  32.864   0.961  12.025
59091W        W24351  42.495  11.217   5.310
59092W        W24352   5.255  30.245   2.138
59093W        W24353   6.289   9.347  14.970
59094W        W24354  28.601   5.307  13.810
59095W        W24355  21.687  27.765  12.339
59096W        W24356  14.701  44.320  13.918
59097W        W24357   7.363  23.563  12.180
59098W        W24358  38.942  41.499  14.425
59099W        W24359  26.785   5.929   1.225
59100W        W24360  29.731  15.204  11.332
59101W        W24361   7.713  11.366   4.928
59102W        W24362  14.816  27.098  14.901
59103W        W24363  15.161   6.566   9.848
59104W        W24364  38.097  42.965  14.512
59105W        W24365  39.518  25.771  12.271
59106W        W24366  13.838  29.234  10.739
59107W        W24367   5.732  14.136  14.051
59108W        W24368  15.680  10.930  13.267
59109W        W24369  14.007   2.435   1.640
59110W        W24370  23.188   0.912   2.723
59111W        W24371  12.798  43.801   4.858
59112W        W24372  11.634   6.694   4.590
59113W        W24373  34.108  24.639  13.962
59114W        W24374  23.680  40.446   2.572
59115W        W24375  41.660   2.782  13.753
59116W        W24376  38.767  38.800  10.666
59117W        W24377   1.696   5.110  13.518
59118W        W24378  37.345  35.349  12.037
59119W        W24379   1.883   5.633   1.382
59120W        W24380   9.132  30.943   3.023
59121W        W24381  42.551  42.880   2.235
59122W        W24382   2.252   0.738  12.363
59123W        W24383  34.058  20.144  11.682
59124W        W24384  37.694  31.002  10.733
59125W        W24385  41.008  11.399  11.536
59126W        W24386   2.664  35.993  12.290
59127W        W24387  32.421   5.482   2.743
59128W        W24388  13.185  21.219  10.771
59129W        W24389   2.888  16.639   3.602
59130W        W24390  17.976  25.690  11.490
59131W        W24391  40.853  14.356  10.728
59132W        W24392   8.133  27.110   0.853
59133W        W24393  44.569  19.756  13.215
59134W        W24394  15.811  23.551   0.297
59135W        W24395   1.060  20.944   2.195
59136W        W24396  36.843  17.797  11.826
59137W        W24397   1.742  21.081   1.352
59138W        W24398  39.357  10.168   2.748
59139W        W24399   0.549  11.147   1.779
59140W        W24400  41.076  14.720  14.715
59141W        W24401  19.338  37.592   3.859
59142W        W24402  41.214  36.358   0.771
59143W        W24403  18.022  17.920  11.903
59144W        W24404  40.552   1.187   4.126
59145W        W24405   5.784  32.375  12.355
59146W        W24406  44.416  18.985  12.029
59147W        W24407  32.302  37.396   0.797
59148W        W24408  38.007  12.328  11.572
59149W        W24409  21.517   9.730   3.279
59150W        W24410  39.698   0.875   3.545
59151W        W24411  19.071  14.221   3.364
59152W        W24412  13.736  33.602  10.678
59153W        W24413  17.564  27.741   1.416
59154W        W24414  34.093  31.488   1.071
59155W        W24415  32.110  36.532   0.230
59156W        W24416  27.399  19.183  12.145
59157W        W24417   9.070  28.173  12.463
59158W        W24418   3.268  44.202  12.456
59159W        W24419  27.223  20.270  11.133
59160W        W24420   7.611  16.889   4.194
59161W        W24421  21.517  31.924  13.115
59162W        W24422  25.727  39.024  13.007
59163W        W24423  24.459   1.138  14.508
59164W        W24424  40.364  29.864   4.519
59165W        W24425  20.105  41.487   3.163
59166W        W24426  31.062  42.751   0.706
59167W        W24427  39.560   8.637  12.976
59168W        W24428  12.211  19.894   2.874
59169W        W24429  15.084  21.487   0.839
59170W        W24430  10.261   2.791   2.390
59171W        W24431   5.850  38.328   4.427
59172W        W24432   0.915  28.406   4.097
59173W        W24433  13.516  40.929  12.166
59174W        W24434  30.256   8.453  12.596
59175W        W24435  15.188  14.187  10.892
59176W        W24436  29.594  24.514  14.408
59177W        W24437  21.940  39.822  11.568
59178W        W24438   8.830  42.753   3.720
59179W        W24439  30.654  28.035  11.597
59180W        W24440   3.618  26.729   2.142
59181W        W24441  27.250  11.239   1.705
59182W        W24442  41.347  29.992  12.921
59183W        W24443  32.535  43.255  11.142
59184W        W24444  18.185   2.347   4.666
59185W        W24445  15.214  28.991  10.667
59186W        W24446  14.783  17.442  11.476
59187W        W24447  12.646  15.267  11.642
59188W        W24448  25.824  21.989   4.588
59189W        W24449  10.686  35.241   3.423
59190W        W24450  29.188  39.427  11.573
59191W        W24451  31.166  12.575   0.977
59192W        W24452  25.093   2.807  11.519
59193W        W24453   9.114  37.508   4.178
59194W        W24454  42.735   1.482  11.059
59195W        W24455  11.235   4.228  14.406
59196W        W24456  11.811  44.272  10.203
59197W        W24457  22.551   2.330  12.580
59198W        W24458  34.497  33.618  10.415
59199W        W24459  29.108   9.899   0.077
59200W        W24460   4.096  28.776  14.084
59201W        W24461   8.944  15.077   3.641
59202W        W24462  33.436  11.077   1.301
59203W        W24463  28.735  31.984  11.062
59204W        W24464   4.223  13.776   1.917
59205W        W24465   1.211  10.746   0.642
59206W        W24466   1.953  10.702  11.331
59207W        W24467   5.160   8.643   2.790
59208W        W24468   3.794  12.608   1.903
59209W        W24469  16.054   8.093  11.440
59210W        W24470  38.480   8.295   1.102
59211W        W24471  27.168   3.185   4.776
59212W        W24472  10.139  35.160   2.391
59213W        W24473  43.818  22.042  10.675
59214W        W24474  43.896  30.596  13.587
59215W        W24475  14.802  40.894   3.918
59216W        W24476  38.653  43.724   3.375
59217W        W24477   3.930  41.179   1.857
59218W        W24478  29.529  29.801   2.347
59219W        W24479   5.810   4.291   1.417
59220W        W24480   4.247  30.193   3.937
59221W        W24481  41.413  22.537  14.717
59222W        W24482  21.811  44.470  11.562
59223W        W24483  10.643  37.443   1.338
59224W        W24484  33.837  33.086   3.599
59225W        W24485  43.469  38.901   4.660
59226W        W24486  23.096  34.601   0.499
59227W        W24487   9.362  22.016   1.249
59228W        W24488  13.199  42.082  14.009
59229W        W24489  19.566   0.905   0.263
59230W        W24490   4.352  17.707   3.359
59231W        W24491  27.569  18.173  12.536
59232W        W24492  36.540  29.763   2.688
59233W        W24493  26.139   5.401  11.267
59234W        W24494  23.619  20.912  11.902
59235W        W24495  37.052   0.550  13.009
59236W        W24496  28.480  39.500  11.008
59237W        W24497   8.298  23.231  12.958
59238W        W24498   9.404  37.331  14.010
59239W        W24499  43.040  19.550  13.973
59240W        W24500  41.330  18.627  12.956
59241W        W24501  44.609  41.080  11.607
59242W        W24502   4.211  37.841   4.941
59243W        W24503  39.560   7.348   3.754
59244W        W24504  16.718  10.319  11.679
59245W        W24505  24.084  11.641   4.588
59246W        W24506   9.367  40.563  11.244
59247W        W24507  35.451  41.315  13.985
59248W        W24508  20.242   6.710   4.883
59249W        W24509   9.222  11.532  12.965
59250W        W24510  11.454  39.004  14.820
59251W        W24511  14.190  30.383   3.170
59252W        W24512  21.896  37.440  10.619
59253W        W24513  16.878   1.459  14.718
59254W        W24514   7.208  44.276   2.384
59255W        W24515  17.230  40.927   3.292
59256W        W24516  13.098   8.994   4.486
59257W        W24517  28.430  43.018   0.758
59258W        W24518  20.737  32.994  13.143
59259W        W24519   5.744  30.514  10.608
59260W        W24520  16.049   4.303   0.955
59261W        W24521  12.773  22.889   2.918
59262W        W24522  16.197  15.149   4.596
59263W        W24523  25.890  44.159   2.395
59264W        W24524  14.801  11.353  14.002
59265W        W24525  20.430  36.464  11.346
59266W        W24526  32.520  43.958  10.610
59267W        W24527  44.042   5.389   4.581
59268W        W24528  26.969  21.574   2.826
59269W        W24529  25.265  43.956   3.059
59270W        W24530  15.779   4.638   4.482
59271W        W24531  29.525  42.819  14.741
59272W        W24532  43.807  32.344   2.889
59273W        W24533  37.338  20.583   1.134
59274W        W24534   3.638  40.622  14.508
59275W        W24535   9.325   0.075  12.302
59276W        W24536  43.941  15.129   1.287
59277W        W24537   5.551  22.402   1.645
59278W        W24538  31.585   2.550  13.468
59279W        W24539  36.476  42.950   0.860
59280W        W24540  44.341  19.276  13.052
59281W        W24541   6.221  10.561  11.964
59282W        W24542  33.913  14.892   3.147
59283W        W24543   6.217  15.824  13.805
59284W        W24544  12.672  39.093  14.418
59285W        W24545  36.191  30.006  10.525
59286W        W24546   2.992   1.741  11.156
59287W        W24547  20.257   6.209   0.816
59288W        W24548  14.275  42.918   1.103
59289W        W24549  32.984  33.521  14.230
59290W        W24550  20.148  23.667  11.140
59291W        W24551  34.471  34.445   0.026
59292W        W24552  43.723  38.463  14.788
59293W        W24553  10.653   2.394   1.204
59294W        W24554   1.409   0.777  13.465
59295W        W24555  20.165  10.749  11.399
59296W        W24556  21.674  15.757   1.417
59297W        W24557  31.753   1.723   2.808
59298W        W24558   4.084  43.559  13.191
59299W        W24559  24.091  19.102  12.106
59300W        W24560  23.582  40.778  12.846
59301W        W24561  17.823  20.271  12.591
59302W        W24562   3.756   9.418  13.122
59303W        W24563  41.522  10.589   3.233
59304W        W24564  17.695  38.541   2.229
59305W        W24565  28.392  22.088   0.327
59306W        W24566   5.759  43.101  14.859
59307W        W24567  34.662  40.633  10.573
59308W        W24568  24.654  14.853   2.838
59309W        W24569  28.628  22.474  12.517
59310W        W24570  22.629  13.922   3.214
59311W        W24571  34.570   4.685   0.664
59312W        W24572  33.755  17.352  11.039
59313W        W24573  30.950  41.870  11.485
59314W        W24574   4.990  28.775  13.319
59315W        W24575  43.323  43.193  10.916
59316W        W24576  18.659  34.644  11.937
59317W        W24577  27.900  26.997  12.004
59318W        W24578  34.123  13.960   1.371
59319W        W24579  40.496  32.495  14.593
59320W        W24580  19.070  19.138  14.395
59321W        W24581  25.646   6.448   2.940
59322W        W24582   6.305  40.296   4.163
59323W        W24583  40.253   7.582  10.527
59324W        W24584  11.583  18.132   5.058
59325W        W24585  20.017   0.994  12.906
59326W        W24586   4.858  17.212  14.469
59327W        W24587  34.953  33.328   4.205
59328W        W24588   8.360  41.319  12.072
59329W        W24589  10.262  31.589  12.847
59330W        W24590  24.477  20.362   0.371
59331W        W24591  27.307   4.883   3.917
59332W        W24592   9.587   9.770   1.009
59333W        W24593  27.638   6.914  14.095
59334W        W24594  34.376  13.333  13.972
59335W        W24595  19.573  13.966  14.031
59336W        W24596  33.554  18.327   3.770
59337W        W24597  15.235   9.592  11.639
59338W        W24598  24.126  25.395  11.524
59339W        W24599   5.513  25.252   5.071
59340W        W24600   4.172   3.366  10.600
59341W        W24601   4.035   5.956  13.432
59342W        W24602  34.590  11.882  14.127
59343W        W24603  15.272  38.444  12.380
59344W        W24604  12.262  13.824  11.638
59345W        W24605  20.132  23.775  11.933
59346W        W24606  14.319  15.615   4.591
59347W        W24607  32.150  34.500   3.340
59348W        W24608  14.638  43.365   4.897
59349W        W24609  38.743   2.826   3.690
59350W        W24610  17.464  13.831  11.171
59351W        W24611  36.145  30.448   3.170
59352W        W24612   6.473  14.870  14.989
59353W        W24613   7.153  11.989  11.016
59354W        W24614  21.097   2.855   0.839
59355W        W24615  27.735  18.155   4.702
59356W        W24616  19.213  18.889  10.937
59357W        W24617  13.237  29.918   0.289
59358W        W24618  14.891  18.221  14.363
59359W        W24619  25.133  15.010   1.864
59360W        W24620  31.553  30.307  10.916
59361W        W24621  22.518  34.327  11.972
59362W        W24622  13.036  35.010   4.044
59363W        W24623  36.795  43.828  12.316
59364W        W24624  12.650   2.014   4.646
59365W        W24625  21.555  17.048  12.544
59366W        W24626  14.394  12.846   4.299
59367W        W24627  15.839  13.490   3.675
59368W        W24628   7.262   1.377   2.828
59369W        W24629   4.708  12.697   3.710
59370W        W24630  36.726  35.511  14.111
59371W        W24631   6.655  32.424   0.358
59372W        W24632  20.125  29.124   4.355
59373W        W24633   9.194   5.264  13.014
59374W        W24634  44.138  44.530   4.620
59375W        W24635  24.568  29.362  11.576
59376W        W24636  24.979  12.094   3.679
59377W        W24637  35.811  27.088  10.688
59378W        W24638   6.453  33.122  11.117
59379W        W24639  31.947  15.779   0.269
59380W        W24640  14.336  44.181   2.757
59381W        W24641  29.931  22.098   4.123
59382W        W24642  16.997  43.467   3.378
59383W        W24643  42.775  30.363  14.517
59384W        W24644   3.312  18.797   2.907
59385W        W24645  28.863  30.381   2.748
59386W        W24646  11.737  38.429   2.321
59387W        W24647  20.109  27.703   1.496
59388W        W24648  29.040  44.981  14.779
59389W        W24649  31.434   9.096  11.993
59390W        W24650   6.153  25.234   0.091
59391W        W24651  26.648  40.720  11.959
59392W        W24652  42.201  43.759   1.309
59393W        W24653   0.507  31.970  14.562
59394W        W24654  10.125  10.520   1.330
59395W        W24655  24.435  27.623  11.903
59396W        W24656  44.949  16.100  11.939
59397W        W24657   1.796  38.187  11.610
59398W        W24658   3.198  10.270  13.406
59399W        W24659  29.871   8.969  10.884
59400W        W24660   4.690  17.158  12.976
59401W        W24661  30.969  15.897   1.896
59402W        W24662   8.169  22.471   2.294
59403W        W24663  38.456  19.583  10.747
59404W        W24664  36.007  23.740  10.429
59405W        W24665  31.937  19.649  14.021
59406W        W24666  37.522  29.566   2.416
59407W        W24667   3.519   5.324   0.404
59408W        W24668  24.631   6.320   2.763
59409W        W24669   8.890   0.553   3.638
59410W        W24670   6.835   5.397   0.757
59411W        W24671  33.958  40.044  13.485
59412W        W24672  16.079  24.506  12.144
59413W        W24673  11.731  31.943  13.308
59414W        W24674  20.634   0.747  12.104
59415W        W24675  41.442  35.859  13.515
59416W        W24676  30.624   1.030   2.856
59417W        W24677  32.152  28.395  14.921
59418W        W24678   0.797  40.563  14.382
59419W        W24679  21.498  37.091   0.513
59420W        W24680  42.456  25.063  13.553
59421W        W24681   1.859  43.266  10.741
59422W        W24682  11.310  26.821   3.164
59423W        W24683  39.513  24.758   2.586
59424W        W24684  32.973  35.021   3.380
59425W        W24685  37.425  28.168   2.712
59426W        W24686   7.658   6.204   5.015
59427W        W24687  16.805  15.090   0.273
59428W        W24688  12.131  21.080   4.548
59429W        W24689  20.587  40.815  12.778
59430W        W24690   9.641  25.052  10.184
59431W        W24691   0.972  14.139   4.120
59432W        W24692  22.731  31.080   3.456
59433W        W24693  14.786   7.230   4.208
59434W        W24694  13.797  23.463  10.677
59435W        W24695  12.420   5.168   3.739
59436W        W24696  44.843  17.241   0.930
59437W        W24697  41.129  43.514  12.108
59438W        W24698  27.133  17.210  13.295
59439W        W24699  26.342  17.337   4.984
59440W        W24700  33.788   1.292   2.385
59441W        W24701  29.091  42.987  12.455
59442W        W24702   6.292  24.893  14.267
59443W        W24703   5.455  11.254  14.130
59444W        W24704   5.693   6.847  11.117
59445W        W24705  29.169  26.182  13.934
59446W        W24706  15.468  40.935   4.709
59447W        W24707  15.462   4.689   2.762
59448W        W24708  19.492   6.219  10.721
59449W        W24709  24.660  36.063  13.096
59450W        W24710  16.652  40.506  13.450
59451W        W24711  21.855  13.528  11.651
59452W        W24712  20.608  23.997  11.973
59453W        W24713  42.187  21.259   2.795
59454W        W24714   5.530  41.455   2.312
59455W        W24715  31.517  40.574   0.361
59456W        W24716  18.361  33.464  14.203
59457W        W24717  14.790  38.117   2.729
59458W        W24718  27.927  24.070  11.425
59459W        W24719  34.799  34.763   4.205
59460W        W24720  36.875  39.562   3.902
59461W        W24721  26.925  22.500   2.782
59462W        W24722  38.176  35.412  14.614
59463W        W24723  13.026   3.161   4.941
59464W        W24724  25.947  19.576   1.003
59465W        W24725  15.781  25.996   4.585
59466W        W24726  25.288  11.908   4.935
59467W        W24727  22.815  38.956   3.580
59468W        W24728  39.413  25.154   2.939
59469W        W24729  23.820  36.332   1.232
59470W        W24730   9.890  23.147   1.254
59471W        W24731  44.978  23.757  12.541
59472W        W24732   7.614  44.250   0.859
59473W        W24733  30.130   3.772   4.771
59474W        W24734   1.258  32.607   0.857
59475W        W24735  17.322  33.866   3.287
59476W        W24736  40.545  31.031   2.169
59477W        W24737  42.014  18.046  14.045
59478W        W24738  13.804  21.297   2.391
59479W        W24739  43.718  39.565   3.039
59480W        W24740  38.408  14.687   0.886
59481W        W24741  17.958  14.387  11.651
59482W        W24742  25.639  44.910   2.160
59483W        W24743   1.830  33.531   1.653
59484W        W24744  12.360  44.896   3.845
59485W        W24745  41.873  25.704  12.419
59486W        W24746  43.912  19.274  13.339
59487W        W24747   4.710  25.311  13.886
59488W        W24748  27.402  21.486   2.331
59489W        W24749  33.645  29.873   2.769
59490W        W24750  44.279  44.253   3.290
59491W        W24751   4.046  22.820  10.694
59492W        W24752   2.056  14.760  14.390
59493W        W24753  14.789  21.454  12.878
59494W        W24754   5.841  34.124   3.735
59495W        W24755   6.132  29.575   1.305
59496W        W24756   8.045  31.663   2.707
59497W        W24757  44.843  38.931  14.485
59498W        W24758  25.005  21.006  12.918
59499W        W24759  32.607  25.430  12.949
59500W        W24760  42.498   5.722   4.325
59501W        W24761  38.339  32.612   3.221
59502W        W24762  35.474  16.326  13.807
59503W        W24763  15.597  25.526  13.459
59504W        W24764  44.515  27.927   0.879
59505W        W24765  38.076   6.330  11.655
59506W        W24766   4.879   0.419   4.967
59507W        W24767   5.460  27.460  12.454
59508W        W24768  43.546  28.860  11.016
59509W        W24769  39.980   7.193  13.556
59510W        W24770  21.244  18.893  11.582
59511W        W24771  21.355  19.651   2.634
59512W        W24772  19.216  37.071   1.809
59513W        W24773  14.152  14.415   2.642
59514W        W24774  42.665  17.653  11.118
59515W        W24775  11.903  12.218   1.340
59516W        W24776  13.932  44.032  10.876
59517W        W24777  43.436  30.831   1.182
59518W        W24778  13.431   6.179  12.848
59519W        W24779  22.693  33.197  10.956
59520W        W24780  16.109  43.114   1.384
59521W        W24781  24.534  11.875   4.485
59522W        W24782  40.356  41.274   1.843
59523W        W24783  24.697   1.908   0.367
59524W        W24784  25.024  34.909  10.548
59525W        W24785  10.275  10.851  12.386
59526W        W24786  39.887   0.256  12.463
59527W        W24787  17.247  31.869   0.694
59528W        W24788  38.002  41.111   0.837
59529W        W24789  37.729   6.343  10.730
59530W        W24790  15.735  41.811   4.046
59531W        W24791  32.645  34.136  13.173
59532W        W24792  33.267   0.839   3.686
59533W        W24793  17.574  35.050  12.538
59534W        W24794   2.453   8.583  12.076
59535W        W24795  43.308  24.247   1.304
59536W        W24796   6.773  29.890   0.287
59537W        W24797  22.074  30.914  14.779
59538W        W24798  16.040  27.281   2.758
59539W        W24799  23.815  16.137   0.403
59540W        W24800  40.502   9.992  10.838
59541W        W24801  23.456  24.977  12.534
59542W        W24802  28.188   2.004  11.218
59543W        W24803  23.253  27.496   2.745
59544W        W24804  36.519  16.096   3.239
59545W        W24805  33.038   1.242   2.857
59546W        W24806   6.946  18.325  12.309
59547W        W24807  13.196  14.320   2.807
59548W        W24808  40.790  31.701  11.639
59549W        W24809  26.583  30.043   1.495
59550W        W24810  42.876  20.183  12.884
59551W        W24811  28.663   8.966   0.279
59552W        W24812  17.104  40.741   0.020
59553W        W24813   2.967   6.687   1.450
59554W        W24814  25.644   9.793  13.090
59555W        W24815   4.450  38.322  12.007
59556W        W24816  41.480  16.597   1.333
59557W        W24817  15.843  20.800   0.844
59558W        W24818   7.623   6.354  11.618
59559W        W24819  28.213  20.768  13.775
59560W        W24820   3.934  27.210   1.242
59561W        W24821  26.612  27.961   2.601
59562W        W24822   9.418  35.337   2.832
59563W        W24823  16.562  37.512   4.634
59564W        W24824   5.115  39.581  14.916
59565W        W24825  31.436   1.305  12.042
59566W        W24826   0.477  41.363   4.695
59567W        W24827  30.533  43.041  12.393
59568W        W24828   4.868  44.600  14.149
59569W        W24829  12.277  16.301  14.137
59570W        W24830  20.724  43.249   4.606
59571W        W24831  26.960  22.088  11.855
59572W        W24832   0.581  34.455   0.520
59573W        W24833   2.722  13.388  14.376
59574W        W24834   6.761  29.516  13.887
59575W        W24835  42.465   0.249   1.628
59576W        W24836   9.745  15.597   4.293
59577W        W24837  23.017  31.213  13.451
59578W        W24838  36.584  43.321  13.461
59579W        W24839   1.365  42.604   1.307
59580W        W24840  16.822  11.423  14.968
59581W        W24841  26.576  31.126  11.936
59582W        W24842  13.282  20.721   0.443
59583W        W24843  22.167  31.893   0.698
59584W        W24844  21.104  11.767   0.301
59585W        W24845  16.709  10.831  10.700
59586W        W24846  21.135  15.781   2.679
59587W        W24847  42.581   0.729   3.824
59588W        W24848  40.716   3.175   1.433
59589W        W24849  19.168   4.367   1.494
59590W        W24850   7.894  25.732   1.859
59591W        W24851  28.583  27.899  12.208
59592W        W24852  29.965   9.313  10.486
59593W        W24853  40.490   9.810  11.938
59594W        W24854  36.055  13.206   3.385
59595W        W24855  21.996   0.668  13.154
59596W        W24856  27.611  36.850  10.022
59597W        W24857  16.824  33.367   3.699
59598W        W24858   4.560  16.315   1.554
59599W        W24859  22.055  38.526  14.286
59600W        W24860  14.925  26.013  14.861
59601W        W24861  41.479  11.994  12.990
59602W        W24862  13.072  40.996   3.362
59603W        W24863  13.598  40.171   1.364
59604W        W24864  19.247  15.265  12.009
59605W        W24865  19.206  11.428   3.194
59606W        W24866  42.457  39.356   2.188
59607W        W24867  18.643  35.615   4.080
59608W        W24868  16.757  41.323   1.363
59609W        W24869  13.019   4.702  11.202
59610W        W24870  11.817   7.773  11.523
59611W        W24871  10.910  14.216  12.234
59612W        W24872  17.720  24.972  12.581
59613W        W24873  22.545  26.772  13.802
59614W        W24874   4.122  16.637   0.057
59615W        W24875   3.713  29.822   0.564
59616W        W24876  33.467   4.253  11.609
59617W        W24877  39.570  27.581   3.343
59618W        W24878  23.743  38.716   4.974
59619W        W24879   6.751  30.423  10.550
59620W        W24880  15.831  28.109  11.494
59621W        W24881  42.396  13.259  12.408
59622W        W24882   0.451   8.952  14.537
59623W        W24883   5.306  19.274  11.450
59624W        W24884  21.457  10.205   1.666
59625W        W24885   1.039   0.227  12.142
59626W        W24886  28.995  26.709   2.840
59627W        W24887  31.640   0.444   0.929
59628W        W24888  21.996   4.007   2.173
59629W        W24889  33.911  10.291   1.638
59630W        W24890  40.426  23.431   3.729
59631W        W24891  12.126   3.395   1.369
59632W        W24892  30.116  23.224  10.997
59633W        W24893  25.565  29.601   3.176
59634W        W24894  16.305  28.989   3.247
59635W        W24895  19.309  14.774  11.981
59636W        W24896   9.314   7.859  11.906
59637W        W24897  44.631  40.243  11.981
59638W        W24898   8.998  24.667  14.071
59639W        W24899   0.860  30.154  14.580
59640W        W24900   1.008   0.380  13.169
59641W        W24901   1.465  22.734   0.877
59642W        W24902  20.718  10.332   2.866
59643W        W24903  10.786   7.687   2.205
59644W        W24904  33.179   3.706   2.259
59645W        W24905   9.340  11.140  10.881
59646W        W24906  41.190   7.838   4.211
59647W        W24907   4.899  30.985  11.511
59648W        W24908   4.156  35.971   0.343
59649W        W24909  27.637  16.149  10.391
59650W        W24910  20.810  38.810   0.746
59651W        W24911  24.090   1.918   5.036
59652W        W24912  44.034  33.022   3.217
59653W        W24913   6.006  24.446  12.726
59654W        W24914  33.005  10.178   4.661
59655W        W24915  34.553  13.551  13.529
59656W        W24916  16.687  30.657  13.745
59657W        W24917  19.301  24.037  11.926
59658W        W24918  21.261  34.376  13.203
59659W        W24919  25.233   7.662   0.225
59660W        W24920   9.185  43.082  13.291
59661W        W24921   2.406  24.320  11.997
59662W        W24922  18.872  24.132   0.340
59663W        W24923  40.099  30.537   0.327
59664W        W24924   9.147  30.731  11.141
59665W        W24925  34.839  29.017   4.675
59666W        W24926  42.843   9.302   1.012
59667W        W24927  40.911   6.834   3.340
59668W        W24928  23.643  20.948   2.179
59669W        W24929  10.526   8.751   4.152
59670W        W24930  41.220  42.992   3.684
59671W        W24931  29.276  33.527   0.280
59672W        W24932  21.118  34.467  14.156
59673W        W24933   3.567  15.079  12.320
59674W        W24934  43.034   7.826  14.839
59675W        W24935  22.126  12.362   0.853
59676W        W24936   9.186  35.678  11.704
59677W        W24937  38.404  33.102   4.537
59678W        W24938  23.285  10.973  11.090
59679W        W24939  33.989  34.614  11.715
59680W        W24940  41.683  11.390  13.785
59681W        W24941  38.114   7.553   1.315
59682W        W24942   0.668  15.675  14.349
59683W        W24943  19.859  32.812   1.328
59684W        W24944  14.331  24.085   1.915
59685W        W24945  32.088  12.771  11.198
59686W        W24946  30.005  27.191  11.886
59687W        W24947   7.197  23.623   3.230
59688W        W24948   4.181   2.325  14.365
59689W        W24949  13.246   0.733   3.154
59690W        W24950  39.016  23.816  10.651
59691W        W24951   3.348  36.574   4.137
59692W        W24952  11.601  28.637  14.606
59693W        W24953  37.002   5.747  12.387
59694W        W24954   6.474  12.229   5.200
59695W        W24955  33.961  32.422   2.780
59696W        W24956  21.678  35.084   1.384
59697W        W24957  41.240   5.155   3.129
59698W        W24958  14.265  17.565   1.370
59699W        W24959   4.566   8.888  11.877
59700W        W24960   7.356  10.239   2.960
59701W        W24961  25.515  39.879  12.586
59702W        W24962  38.651   7.383   3.255
59703W        W24963   6.452  15.571  11.136
59704W        W24964   9.857   3.501  13.186
59705W        W24965  17.649  15.776   3.591
59706W        W24966  19.787  17.289   3.594
59707W        W24967  14.484  40.253  10.989
59708W        W24968   7.747   2.701   0.803
59709W        W24969  34.504  34.078  13.414
59710W        W24970  42.343   7.382  13.483
59711W        W24971  35.565  44.819  14.481
59712W        W24972  35.551  39.313   3.622
59713W        W24973  39.904  18.275   1.216
59714W        W24974  25.032  10.274  11.021
59715W        W24975  26.493   2.258  10.660
59716W        W24976  37.524  11.675   2.194
59717W        W24977  44.557  16.820  13.878
59718W        W24978   8.497  21.071   0.391
59719W        W24979  24.550  23.665   0.427
59720W        W24980  29.643  38.719  11.045
59721W        W24981   1.004  17.474   1.178
59722W        W24982  35.490  31.569  14.534
59723W        W24983  35.379  33.610   1.954
59724W        W24984  34.344  28.666   3.317
59725W        W24985  41.976  27.176   0.286
59726W        W24986   1.987  19.708   4.485
59727W        W24987   3.514   5.379   1.278
59728W        W24988  19.511  24.787  14.090
59729W        W24989  19.093   8.682  14.114
59730W        W24990  25.387  41.926  10.631
59731W        W24991  18.102  32.312   2.566
59732W        W24992   0.910  17.598  13.139
59733W        W24993   7.345   6.530  13.298
59734W        W24994  36.754  11.816   4.572
59735W        W24995  40.329  11.399   3.252
59736W        W24996  29.094  42.800   0.444
59737W        W24997  41.938  42.926  11.212
59738W        W24998  23.253  19.388  13.801
59739W        W24999  26.474  40.031   2.762
59740W        W25000  33.533  30.781  10.698
59741W        W25001  15.202  21.373  12.527
59742W        W25002  34.026  28.655  13.358
59743W        W25003  12.617  26.256  13.488
59744W        W25004  43.498  19.354   2.444
59745W        W25005   1.091  24.874   2.327
59746W        W25006  37.992  38.073  12.024
59747W        W25007  39.519  10.935  11.955
59748W        W25008  20.668  15.093   1.698
59749W        W25009  26.558  11.792  14.791
59750W        W25010  23.176   3.218  12.048
59751W        W25011   6.902  16.763   2.698
59752W        W25012  36.258   3.689   3.769
59753W        W25013  36.414   0.453  13.520
59754W        W25014   0.960  29.749  11.496
59755W        W25015  24.520  10.601  14.371
59756W        W25016   9.268  34.446   4.650
59757W        W25017   7.779   3.797  13.473
59758W        W25018  10.843  38.056   3.165
59759W        W25019  36.945  28.607  13.837
59760W        W25020  23.670  36.618  14.890
59761W        W25021  21.000  36.348   2.015
59762W        W25022   6.649  30.456  11.385
59763W        W25023  29.129  17.962  14.762
59764W        W25024  23.651  32.453   1.425
59765W        W25025  31.864   1.190   2.802
59766W        W25026   7.313   8.383   2.128
59767W        W25027  38.556  40.381   2.154
59768W        W25028  15.172  34.956   4.619
59769W        W25029  43.839  41.025  13.635
59770W        W25030  15.758  31.798   1.415
59771W        W25031  38.637  44.750   4.568
59772W        W25032  24.469  42.996  14.415
59773W        W25033  13.662   8.512  10.658
59774W        W25034  42.548  24.766   4.047
59775W        W25035  33.516  38.849  10.281
59776W        W25036  34.566  26.850   0.237
59777W        W25037  10.383   4.438  13.306
59778W        W25038  16.523  27.862  14.305
59779W        W25039  16.269   4.943   3.234
59780W        W25040  22.851  23.898  11.593
59781W        W25041  34.465  21.276  14.955
59782W        W25042  13.722  30.511   4.872
59783W        W25043  18.824   6.454  13.055
59784W        W25044  39.543  13.408  12.127
59785W        W25045  20.135  26.624   1.462
59786W        W25046  15.272  35.902  13.405
59787W        W25047  43.314   2.157  11.450
59788W        W25048   2.665   9.712  14.063
59789W        W25049  40.428  36.331   1.236
59790W        W25050  44.733  38.324   1.687
59791W        W25051  30.356   4.795  12.134
59792W        W25052   8.812   4.678   1.277
59793W        W25053   0.893  19.909  10.835
59794W        W25054  26.550   3.109  14.742
59795W        W25055  34.650  21.158   0.878
59796W        W25056   3.704   0.103  14.849
59797W        W25057  25.870   2.441  11.595
59798W        W25058  37.724   9.854  14.954
59799W        W25059  36.975   8.287   4.619
59800W        W25060  11.399  25.523   4.599
59801W        W25061   5.754   2.371   1.313
59802W        W25062  30.465  33.083   2.643
59803W        W25063   2.412  33.881  13.061
59804W        W25064  26.646  17.007  14.587
59805W        W25065  24.181  34.419  14.795
59806W        W25066  28.143  27.593   4.553
59807W        W25067  16.642   3.737   1.349
59808W        W25068  23.155   9.329   2.426
59809W        W25069  13.184  22.770   4.458
59810W        W25070  37.517  17.682   4.090
59811W        W25071  42.007   1.070   2.594
59812W        W25072  17.028  29.693  11.502
59813W        W25073  13.364   1.757  13.339
59814W        W25074  15.682   2.295   4.204
59815W        W25075  16.170  10.250  13.655
59816W        W25076   9.714  44.765   1.769
59817W        W25077  10.197  43.382  14.808
59818W        W25078  15.246  35.646  14.058
59819W        W25079  12.591   1.289   2.838
59820W        W25080   6.857  37.399   1.592
59821W        W25081  18.004   7.712   4.135
59822W        W25082  41.938  15.609   1.202
59823W        W25083  11.285  10.790  10.256
59824W        W25084  16.218  44.250   0.160
59825W        W25085  21.760  40.907   4.886
59826W        W25086   3.979  26.289  11.582
59827W        W25087  30.534  36.343  10.732
59828W        W25088   3.583  28.117  11.887
59829W        W25089  15.835  43.720  12.125
59830W        W25090  30.866  26.715   5.178
59831W        W25091  40.806  43.508   3.806
59832W        W25092  39.398  36.020   0.706
59833W        W25093  16.970  17.083  12.002
59834W        W25094   0.858   4.332   4.567
59835W        W25095  20.721  12.233  12.017
59836W        W25096  27.793  33.217   1.314
59837W        W25097  40.072  40.045   3.275
59838W        W25098   1.062  35.675  11.170
59839W        W25099  19.266   5.479   4.119
59840W        W25100  27.430  37.023  13.338
59841W        W25101  41.311  40.048  10.716
59842W        W25102  35.004  28.692   0.739
59843W        W25103  13.134   5.286   3.180
59844W        W25104  28.420  29.073   0.379
59845W        W25105  38.896  29.475  12.014
59846W        W25106  22.290  44.732  11.106
59847W        W25107  24.997   6.425   1.246
59848W        W25108  11.316  29.884  12.736
59849W        W25109  34.963  42.836  10.704
59850W        W25110  28.027  16.645  12.028
59851W        W25111  27.698   3.889  14.510
59852W        W25112  22.571  10.203  10.920
59853W        W25113   9.703  33.338  12.014
59854W        W25114  35.060   1.153   2.826
59855W        W25115   8.714  41.327   2.371
59856W        W25116  15.564   1.051   1.800
59857W        W25117  19.602  28.673   3.414
59858W        W25118  16.809  26.199  12.493
59859W        W25119  35.824  31.069   4.555
59860W        W25120   8.663   3.200   4.751
59861W        W25121   2.352  12.188  12.466
59862W        W25122  12.560  20.093   2.548
59863W        W25123  21.750  36.574  14.709
59864W        W25124   7.832  10.584   0.763
59865W        W25125  21.035  41.070   1.842
59866W        W25126   0.253  22.643   2.260
59867W        W25127  14.102  30.782  13.478
59868W        W25128  14.795  40.602   3.505
59869W        W25129  36.456  11.124   0.231
59870W        W25130  19.031  26.854   1.831
59871W        W25131  10.806  29.913   3.372
59872W        W25132  37.475  42.844  10.936
59873W        W25133  20.262  27.057  14.140
59874W        W25134  32.314  35.530   3.271
59875W        W25135  18.610  38.911   2.242
59876W        W25136  40.037   0.829   1.244
59877W        W25137  43.373  39.774   4.453
59878W        W25138  11.532   4.746   0.259
59879W        W25139  25.997   4.870   1.769
59880W        W25140  13.570  28.002  12.563
59881W        W25141  43.240  40.549   2.963
59882W        W25142  24.541  22.480   5.005
59883W        W25143  31.542   9.678  10.745
59884W        W25144   2.769  12.451  12.573
59885W        W25145  35.226  36.637   1.494
59886W        W25146  34.728  17.116  10.791
59887W        W25147   7.957  32.880   3.683
59888W        W25148  32.071  30.844  13.433
59889W        W25149  44.787  39.822   0.365
59890W        W25150  30.174  44.733   3.753
59891W        W25151  10.721  25.178   2.656
59892W        W25152  29.468   2.490  11.539
59893W        W25153  23.564  33.440  10.251
59894W        W25154   7.230  33.486   2.896
59895W        W25155   4.249  11.410   1.443
59896W        W25156  44.799  19.483  14.027
59897W        W25157  18.254  32.126  13.975
59898W        W25158  44.744   4.234  12.588
59899W        W25159  10.621  35.067  13.365
59900W        W25160  24.305   5.845   0.496
59901W        W25161  28.148  42.905  13.535
59902W        W25162   6.180  22.658  10.715
59903W        W25163  25.209  31.590  10.703
59904W        W25164  41.049  41.234   1.113
59905W        W25165   6.651   0.378  14.423
59906W        W25166  24.679  41.043   3.626
59907W        W25167  19.708   2.858   0.575
59908W        W25168  33.896   2.024   3.438
59909W        W25169  38.089  27.512   3.715
59910W        W25170   1.451  24.192   0.689
59911W        W25171  19.693  24.546   1.658
59912W        W25172   7.291  37.412   0.260
59913W        W25173   1.621   3.893  11.618
59914W        W25174  18.711  22.074   4.201
59915W        W25175  19.081   7.665   0.357
59916W        W25176  23.337  15.682  12.547
59917W        W25177  13.765  34.563   4.266
59918W        W25178  11.053  17.322   0.554
59919W        W25179   4.932   8.694   4.127
59920W        W25180   9.140  12.302   3.232
59921W        W25181  23.995   8.716  11.410
59922W        W25182  18.395  35.379  12.436
59923W        W25183  18.289  19.256   2.986
59924W        W25184   9.760  24.776   4.955
59925W        W25185  29.651  10.802  11.961
59926W        W25186  42.468  22.885  14.286
59927W        W25187  40.437  31.566   1.426
59928W        W25188  12.790  29.860   5.038
59929W        W25189  11.677  14.883  14.429
59930W        W25190   0.007  31.845   3.567
59931W        W25191  30.377  20.260   3.190
59932W        W25192  15.277  33.084  13.082
59933W        W25193  43.869   6.297  12.144
59934W        W25194  41.852  17.629   4.071
59935W        W25195  26.462   0.423   2.721
59936W        W25196  25.012  42.661   2.396
59937W        W25197  40.110  43.331  11.103
59938W        W25198  39.591  11.819  13.029
59939W        W25199  13.707  21.524   4.029
59940W        W25200  38.976   3.212   0.945
59941W        W25201  28.604  10.253   1.749
59942W        W25202  37.487  19.509   0.746
59943W        W25203  10.924  20.235  12.578
59944W        W25204  22.284  32.782   1.459
59945W        W25205   1.097   3.848   3.471
59946W        W25206  43.812  19.992   0.258
59947W        W25207  29.008  39.313  14.839
59948W        W25208  27.244  12.172  11.188
59949W        W25209  15.120  20.884  13.402
59950W        W25210  28.272  13.790   0.927
59951W        W25211  11.747   5.946  12.567
59952W        W25212  43.773  31.048  12.931
59953W        W25213  32.399  19.170   3.895
59954W        W25214  41.980  44.580  14.392
59955W        W25215  32.845   8.168   3.179
59956W        W25216   0.870  39.473   3.837
59957W        W25217  37.765  20.961   0.484
59958W        W25218  41.413  19.334  11.049
59959W        W25219   5.245  15.241   2.965
59960W        W25220  24.172   1.934  13.494
59961W        W25221   1.746  40.108  14.218
59962W        W25222   6.615  25.231   4.624
59963W        W25223  42.664  36.549   3.616
59964W        W25224   3.957   0.930   0.936
59965W        W25225  12.595  25.027  11.989
59966W        W25226  14.557   6.269  13.463
59967W        W25227  12.811  23.874   2.638
59968W        W25228  17.794  37.372   5.057
59969W        W25229  13.714  42.232   1.368
59970W        W25230   9.366   4.126   3.211
59971W        W25231  13.334  20.256  13.016
59972W        W25232  13.615   2.261  10.747
59973W        W25233   7.435  35.531  13.606
59974W        W25234  14.813  31.311   3.032
59975W        W25235  27.718   3.326  11.132
59976W        W25236  27.440  33.967   4.169
59977W        W25237  25.594   6.206   4.289
59978W        W25238  29.633  15.727   1.816
59979W        W25239  17.619  29.046  11.736
59980W        W25240  18.825  35.286  12.719
59981W        W25241   9.741  38.109   2.959
59982W        W25242  43.779  30.020   0.284
59983W        W25243  35.870  43.135   4.603
59984W        W25244   6.658  38.047  12.538
59985W        W25245   7.294  37.283   1.890
59986W        W25246  23.280   5.826  13.647
59987W        W25247   3.256  23.465  13.312
59988W        W25248   2.729  41.294  13.736
59989W        W25249  13.400   0.315  10.748
59990W        W25250  34.949  21.738  11.821
59991W        W25251   6.152  34.392  13.395
59992W        W25252  24.678  36.604   0.697
59993W        W25253  24.161  31.994  12.073
59994W        W25254  10.394  38.156  11.867
59995W        W25255  12.286   9.352   3.732
59996W        W25256  34.242  17.816  12.634
59997W        W25257   2.384  28.587  13.040
59998W        W25258   3.681  28.669  12.496
59999W        W25259  17.773  44.541   0.063
60000W        W25260  10.636  23.152   1.911
60001W        W25261   6.132  34.373   2.717
60002W        W25262  10.893  34.911   2.087
60003W        W25263  34.645  21.654   1.806
60004W        W25264  38.860  29.644   2.883
60005W        W25265  44.361  14.627  14.334
60006W        W25266  15.381   8.244   0.805
60007W        W25267   5.245  35.178   0.554
60008W        W25268  30.344  31.647   0.912
60009W        W25269  26.513  32.896   4.544
60010W        W25270   2.310  19.142  10.606
60011W        W25271   3.997  34.415  14.290
60012W        W25272   3.833  30.201  11.637
60013W        W25273  19.263  35.120   3.416
60014W        W25274  32.397   2.924   4.219
60015W        W25275   5.893   7.637  14.512
60016W        W25276  19.206  27.535  11.194
60017W        W25277  42.315  36.174   4.530
60018W        W25278   3.380  11.346   4.356
60019W        W25279  43.258  35.007   2.150
60020W        W25280  38.284   1.308   2.964
60021W        W25281  40.437  12.856  11.152
60022W        W25282   1.413  15.433  11.334
60023W        W25283   0.671  19.033  14.278
60024W        W25284   9.624   1.365  14.465
60025W        W25285  15.562   8.170   0.230
60026W        W25286  21.732  20.899   3.252
60027W        W25287  26.430  43.138  10.337
60028W        W25288   5.715  28.075  10.352
60029W        W25289   7.158  38.552   1.300
60030W        W25290   2.620   7.178  12.084
60031W        W25291   3.785   9.385  10.786
60032W        W25292  36.557  30.954  13.443
60033W        W25293  19.566  34.614  12.102
60034W        W25294  35.614  39.085   1.218
60035W        W25295  17.735  18.236  11.542
60036W        W25296  10.180   8.517  14.220
60037W        W25297   3.359  35.419   3.897
60038W        W25298  32.042  21.470   4.419
60039W        W25299  27.903  25.113  12.003
60040W        W25300  27.678   9.856  11.145
60041W        W25301  44.893  23.230  13.972
60042W        W25302  35.800  28.144  12.959
60043W        W25303  37.515  18.958   0.762
60044W        W25304  38.433  21.314  14.919
60045W        W25305  30.350  20.796   4.588
60046W        W25306   7.877  41.353  13.879
60047W        W25307  44.258  43.239  12.128
60048W        W25308  20.719   4.884   0.914
60049W        W25309   8.383  24.219  13.152
60050W        W25310  16.076   0.529  14.860
60051W        W25311   1.306  40.979   1.792
60052W        W25312  10.730  28.440   1.194
60053W        W25313  28.404  23.893   2.368
60054W        W25314  20.441  36.660  10.097
60055W        W25315  15.890  20.109   2.936
60056W        W25316  30.989  33.439  10.667
60057W        W25317  33.209  32.981   1.445
60058W        W25318  13.206   8.987  12.630
60059W        W25319  37.111  32.491  14.075
60060W        W25320  19.661  38.434   0.934
60061W        W25321  15.323   8.225   1.901
60062W        W25322  13.253  42.319   2.303
60063W        W25323  22.206   0.331   1.707
60064W        W25324   1.253  13.846  13.940
60065W        W25325  15.543  42.300  11.870
60066W        W25326  35.044  37.928  12.365
60067W        W25327   6.796  24.430   2.484
60068W        W25328  36.293   4.249  11.058
60069W        W25329  25.790  10.727   3.079
60070W        W25330  12.900  37.588   4.599
60071W        W25331  22.660  38.866  12.711
60072W        W25332  37.733  14.173   1.635
60073W        W25333  26.487  30.883  12.382
60074W        W25334  30.511  25.504  14.997
60075W        W25335  29.595   0.816  12.949
60076W        W25336  17.517  15.790  13.826
60077W        W25337  11.599  44.894   4.575
60078W        W25338   1.200   0.272   1.832
60079W        W25339  26.088  36.154   0.237
60080W        W25340   3.598  31.604   4.849
60081W        W25341  23.533  36.151  14.045
60082W        W25342  11.351  26.034   3.678
60083W        W25343  18.032   7.320   1.666
60084W        W25344  10.727   3.028   2.292
60085W        W25345  22.886  35.644   3.655
60086W        W25346  37.425  43.791  13.531
60087W        W25347  33.380   8.115   5.239
60088W        W25348  28.079  32.155  11.487
60089W        W25349  34.867  11.086   2.277
60090W        W25350   2.942   2.388  11.482
60091W        W25351   5.703   2.886   2.922
60092W        W25352   3.303   1.498  14.850
60093W        W25353  41.177  30.751  12.480
60094W        W25354  34.302  12.271  14.319
60095W        W25355  28.664   8.759   0.741
60096W        W25356   1.976  44.750   1.775
60097W        W25357  16.860  40.962  11.591
60098W        W25358  22.943  23.552  10.722
60099W        W25359  19.638  21.409  14.739
60100W        W25360  22.023  34.502  12.056
60101W        W25361  29.456  32.028   3.712
60102W        W25362   8.743  25.140   2.795
60103W        W25363  25.052  33.146   4.233
60104W        W25364  23.658  14.747  14.206
60105W        W25365  42.794  37.843   3.595
60106W        W25366  31.366  19.449  14.809
60107W        W25367  30.694   8.275  13.545
60108W        W25368  17.727  20.535  14.313
60109W        W25369  20.528  27.089  11.549
60110W        W25370  35.931  31.742  14.286
60111W        W25371  13.508  43.475   4.801
60112W        W25372  22.241  36.628  14.906
60113W        W25373  40.432   0.066  14.695
60114W        W25374  37.622  21.155   5.052
60115W        W25375  36.180  17.005   0.762
60116W        W25376   3.720  44.302   3.774
60117W        W25377  35.553  34.901   2.594
60118W        W25378   0.464  15.221   4.227
60119W        W25379  25.709  44.703   0.749
60120W        W25380  37.856  29.820  12.527
60121W        W25381  26.083   1.334   5.014
60122W        W25382  22.622  28.650  13.121
60123W        W25383  26.693   3.359   4.961
60124W        W25384  22.613   0.712   1.345
60125W        W25385  42.959   9.629  11.088
60126W        W25386  14.648  20.295   5.153
60127W        W25387  39.351  14.157   1.806
60128W        W25388   0.281  21.697   2.138
60129W        W25389  15.614  35.303   4.621
60130W        W25390  10.616  43.800   1.968
60131W        W25391  13.299  10.230   1.508
60132W        W25392  17.312   1.550   1.011
60133W        W25393  34.106  32.833  13.939
60134W        W25394  10.217  26.116  12.471
60135W        W25395  39.960   0.828   3.103
60136W        W25396  38.445  30.592   3.655
60137W        W25397  36.272  43.961   0.980
60138W        W25398  12.480  42.896   1.723
60139W        W25399  10.870  10.470   1.075
60140W        W25400  11.873  38.481   0.538
60141W        W25401  44.320  18.946  14.470
60142W        W25402  18.287  11.349   2.259
60143W        W25403  14.363  31.051  12.928
60144W        W25404  34.042   6.129  12.353
60145W        W25405  41.285  26.058  13.509
60146W        W25406  28.553   0.025   4.415
60147W        W25407  32.490  30.634   1.867
60148W        W25408   1.990  33.766  10.612
60149W        W25409  25.758  28.565  14.379
60150W        W25410  11.596  28.493   1.258
60151W        W25411  17.126  11.912  14.257
60152W        W25412  32.626   9.308   0.772
60153W        W25413  10.344  30.242  10.455
60154W        W25414  23.254  15.917  13.388
60155W        W25415  36.806  31.144  13.836
60156W        W25416  26.317   4.700  12.896
60157W        W25417  34.134  32.679  13.434
60158W        W25418  30.468  11.580  13.485
60159W        W25419  21.976  17.689  11.556
60160W        W25420  23.461  43.293   1.399
60161W        W25421  13.365  25.942  13.974
60162W        W25422  16.493   6.338  13.270
60163W        W25423  15.744   7.915   1.015
60164W        W25424  15.881   3.676   3.753
60165W        W25425  28.079   9.769   2.586
60166W        W25426  19.700  14.588  14.707
60167W        W25427  14.324  25.564  13.893
60168W        W25428   9.152  41.875   0.631
60169W        W25429  36.398  29.916   3.178
60170W        W25430  34.104  42.942  12.615
60171W        W25431  31.992  43.285   0.005
60172W        W25432  32.767  33.294  12.939
60173W        W25433  31.848  18.311  10.664
60174W        W25434  34.000   2.841  13.797
60175W        W25435   8.567  14.310   0.802
60176W        W25436  14.528  18.240  11.046
60177W        W25437  44.249  17.972  14.323
60178W        W25438  35.734  44.501   1.383
60179W        W25439  16.273   0.396  13.443
60180W        W25440   2.962  17.101  12.614
60181W        W25441   2.139  22.637   4.792
60182W        W25442  25.712  27.734   4.654
60183W        W25443  41.822  43.702  14.039
60184W        W25444  10.790  17.949  12.416
60185W        W25445  30.612  41.752  11.124
60186W        W25446   4.610  26.102   5.602
60187W        W25447  39.506  43.568   4.027
60188W        W25448  18.263   1.967   2.703
60189W        W25449  13.904  29.502   1.333
60190W        W25450  15.700  25.780  12.212
60191W        W25451  11.633   1.784  14.890
60192W        W25452   0.517  19.529  10.804
60193W        W25453  35.085  42.314  13.404
60194W        W25454  15.149  42.906  14.506
60195W        W25455  26.306  23.076  12.506
60196W        W25456  19.719  14.080  14.670
60197W        W25457  43.009  31.609  12.969
60198W        W25458  32.432   7.634  10.941
60199W        W25459  21.980  31.202   3.858
60200W        W25460  26.446  44.698   0.608
60201W        W25461   0.472   1.358   2.483
60202W        W25462  14.190  16.357   0.347
60203W        W25463  33.109  35.030  13.273
60204W        W25464  26.453  42.944  11.612
60205W        W25465  11.663  29.585  10.986
60206W        W25466  18.307   0.196   4.258
60207W        W25467   2.483  44.809   1.669
60208W        W25468  26.607  27.518   3.341
60209W        W25469  22.469  30.005  14.778
60210W        W25470  15.833  10.381  11.530
60211W        W25471  17.737  16.791  13.833
60212W        W25472  20.195  32.199  11.923
60213W        W25473   3.949  38.981  14.177
60214W        W25474  18.130  36.617   4.205
60215W        W25475  35.836   0.774  12.593
60216W        W25476  22.727  24.187  13.107
60217W        W25477  13.113   0.098  12.586
60218W        W25478  30.500  41.849   0.972
60219W        W25479  16.005  20.671  13.340
60220W        W25480  36.824  27.184  14.499
60221W        W25481   5.252  11.562  12.165
60222W        W25482  11.770   8.007   0.367
60223W        W25483   3.411   3.104   1.013
60224W        W25484  32.101  21.658  11.105
60225W        W25485  11.778  30.899  11.804
60226W        W25486  28.188  18.265  12.625
60227W        W25487  16.073   7.834   3.728
60228W        W25488  36.523   8.348   4.371
60229W        W25489  24.772  43.838  12.642
60230W        W25490  34.992  34.614  14.268
60231W        W25491  39.291  19.676   3.655
60232W        W25492  41.375  35.487  10.920
60233W        W25493  10.654  12.881   2.177
60234W        W25494  12.215  34.307   2.662
60235W        W25495   5.643  43.953  11.676
60236W        W25496  32.940  16.608   1.764
60237W        W25497   6.228   4.230  14.942
60238W        W25498   2.524  26.604  13.741
60239W        W25499  33.340  17.052   3.597
60240W        W25500  26.157  36.918  10.436
60241W        W25501   5.251  22.624  12.364
60242W        W25502  35.460  38.810   3.755
60243W        W25503  39.328  11.842   4.564
60244W        W25504  40.397  11.370   2.256
60245W        W25505  37.366  44.784  14.881
60246W        W25506   4.791  39.706  12.956
60247W        W25507  29.912  22.251  10.734
60248W        W25508   7.624   0.965   1.310
60249W        W25509  21.056  14.675   0.412
60250W        W25510  17.219   4.273  13.796
60251W        W25511  12.172  43.437  12.830
60252W        W25512  19.223  43.806  11.191
60253W        W25513  27.914  10.736   2.314
60254W        W25514  33.667  19.550   4.196
60255W        W25515   3.035  23.163  11.619
60256W        W25516  31.104  41.313   3.602
60257W        W25517  21.632  43.792   3.654
60258W        W25518  27.049  23.915  12.397
60259W        W25519   5.069  34.476   2.185
60260W        W25520  14.072  33.571  12.101
60261W        W25521   7.937  11.324  10.992
60262W        W25522  36.853  15.003  11.229
60263W        W25523  29.836  18.934   3.750
60264W        W25524   4.281  13.577  13.890
60265W        W25525  28.190  18.854  13.875
60266W        W25526   8.776  16.195   2.755
60267W        W25527  33.655  27.943  12.503
60268W        W25528   3.886  27.179   2.106
60269W        W25529   7.866  16.594  14.763
60270W        W25530  40.585  39.198   0.879
60271W        W25531  20.605  19.222   3.692
60272W        W25532   3.973   2.524  13.943
60273W        W25533  12.291   3.945   3.146
60274W        W25534  34.535  42.917  11.062
60275W        W25535  20.922  31.320   4.537
60276W        W25536  18.991  30.595   0.840
60277W        W25537  43.011  24.595   1.793
60278W        W25538  33.629  30.039   4.087
60279W        W25539  25.635  10.240   0.188
60280W        W25540  23.548  31.441   1.736
60281W        W25541  34.805  38.446   4.867
60282W        W25542  22.600  27.395  11.979
60283W        W25543  22.246   9.705   2.764
60284W        W25544   0.737  30.642  14.749
60285W        W25545  17.556  29.538  11.556
60286W        W25546  13.688  19.699  13.345
60287W        W25547  15.387   0.294   0.335
60288W        W25548  43.476  41.632   4.799
60289W        W25549  20.448  24.792  10.971
60290W        W25550   9.136   0.432  11.167
60291W        W25551   6.580  19.377  13.310
60292W        W25552  27.110  41.791  10.660
60293W        W25553  15.042  36.594   1.765
60294W        W25554  17.730  37.752  11.465
60295W        W25555  32.486  44.760  12.847
60296W        W25556   8.621  40.092  12.998
60297W        W25557  28.960   9.236   0.711
60298W        W25558  38.797  30.262  11.583
60299W        W25559  19.684   4.697   1.676
60300W        W25560   4.488   3.805  14.326
60301W        W25561   8.792  34.953   2.331
60302W        W25562   7.264   0.534   1.266
60303W        W25563  11.113  44.453   4.149
60304W        W25564  23.451  16.854  11.859
60305W        W25565   1.983  20.548  13.909
60306W        W25566  36.428  43.240  10.621
60307W        W25567  14.428  42.428  12.109
60308W        W25568  28.729  28.207   3.820
60309W        W25569   2.974  29.708   2.460
60310W        W25570  10.380  14.209   4.113
60311W        W25571  18.165   4.517  14.913
60312W        W25572   3.454   1.161  10.581
60313W        W25573  38.378  10.147  12.129
60314W        W25574   0.493  17.098   3.867
60315W        W25575  39.789  37.045  13.076
60316W        W25576   1.467  37.383  12.567
60317W        W25577   6.237  37.888  13.988
60318W        W25578  13.132  44.837   0.016
60319W        W25579   6.603  36.508   1.666
60320W        W25580  16.122  40.818   0.863
60321W        W25581  19.786  29.493   1.155
60322W        W25582   3.174  43.772   1.845
60323W        W25583  10.226   3.806   3.734
60324W        W25584  40.942  39.010   1.360
60325W        W25585  37.067  26.523  11.461
60326W        W25586  16.561  12.604   1.222
60327W        W25587  15.723  36.007   0.209
60328W        W25588   6.446  42.469  10.681
60329W        W25589  38.593   4.142   3.622
60330W        W25590  40.401  20.217  12.589
60331W        W25591  33.839   1.032   0.992
60332W        W25592  14.117  17.064   4.077
60333W        W25593   8.807  31.882  11.550
60334W        W25594  24.987  40.775  13.465
60335W        W25595   3.804  42.016   0.817
60336W        W25596  41.743   0.907  13.170
60337W        W25597  44.806   0.449   4.242
60338W        W25598   8.410  31.500   1.785
60339W        W25599  40.854   3.307   0.940
60340W        W25600  18.668  40.569   3.193
60341W        W25601  40.889   3.197   0.401
60342W        W25602   6.220   0.925  12.338
60343W        W25603   5.955   1.743   3.685
60344W        W25604  37.650  30.671   4.313
60345W        W25605  15.206  10.719   2.299
60346W        W25606  13.169   5.898   0.495
60347W        W25607  34.184  18.462  11.611
60348W        W25608   6.185  13.382   4.600
60349W        W25609  33.563   5.802  13.482
60350W        W25610  33.918  38.335   2.892
60351W        W25611  34.619  28.132   3.339
60352W        W25612  23.108  22.273   3.555
60353W        W25613   5.444   1.689  13.361
60354W        W25614   2.989  37.411   2.899
60355W        W25615  20.745   6.289   0.690
60356W        W25616  22.272  21.072   0.756
60357W        W25617  20.657  24.441   4.528
60358W        W25618  18.527  18.696  14.949
60359W        W25619   6.295   7.426  10.651
60360W        W25620  21.758  29.917  11.130
60361W        W25621  44.917  20.758   2.340
60362W        W25622   5.021  23.335  11.527
60363W        W25623  37.074  17.359  14.795
60364W        W25624  37.053  23.618   0.372
60365W        W25625  39.138  42.948  14.835
60366W        W25626   7.889  13.883   4.882
60367W        W25627  10.678  17.359  14.250
60368W        W25628  31.057  43.318   4.639
60369W        W25629  23.172  25.909  12.811
60370W        W25630  25.559  37.411  12.490
60371W        W25631  15.817  44.849  12.957
60372W        W25632  12.412  36.443   4.237
60373W        W25633   1.886  43.102   0.199
60374W        W25634  25.231  42.447  11.662
60375W        W25635  43.314   0.320  11.953
60376W        W25636  10.194  31.054   0.082
60377W        W25637  16.641  35.141  10.368
60378W        W25638  37.042  23.273   4.597
60379W        W25639  35.097  13.164   3.585
60380W        W25640   8.958   0.235  10.736
60381W        W25641   5.141   0.399  10.769
60382W        W25642  25.077   4.523   2.033
60383W        W25643  16.145  19.226   0.788
60384W        W25644  33.037  10.546  13.135
60385W        W25645  43.439   3.381   2.236
60386W        W25646  18.684  16.168   0.926
60387W        W25647  20.747   2.319   3.638
60388W        W25648  38.363  26.076   2.614
60389W        W25649  29.858  20.548  11.191
60390W        W25650  40.416  18.497   0.501
60391W        W25651  32.575  20.861  12.024
60392W        W25652  22.999   1.374  10.672
60393W        W25653  37.861  12.417  14.949
60394W        W25654  16.560   7.274   0.304
60395W        W25655  30.464  35.547   4.699
60396W        W25656  22.305  26.980  10.484
60397W        W25657  12.722  23.979   1.656
60398W        W25658  37.468  27.974   0.299
60399W        W25659  33.653  16.215   0.058
60400W        W25660  41.597  44.250  11.130
60401W        W25661  10.350   3.071   0.589
60402W        W25662  16.479  36.115   3.368
60403W        W25663   6.820  26.971   1.370
60404W        W25664  37.781  18.125   4.810
60405W        W25665  12.385  35.022   2.340
60406W        W25666  29.150  10.069   4.358
60407W        W25667  29.652  31.691   1.306
60408W        W25668   6.493   3.049  11.882
60409W        W25669  40.162  42.968   4.518
60410W        W25670  21.866  39.825   4.086
60411W        W25671  32.972  36.090   1.859
60412W        W25672  14.850  33.551  10.678
60413W        W25673  25.657  37.357   1.549
60414W        W25674  18.955  16.263   2.348
60415W        W25675  34.788  28.080   4.076
60416W        W25676  34.417  21.653  10.673
60417W        W25677  29.594  16.134  12.287
60418W        W25678  39.509  20.606  14.010
60419W        W25679  16.776  38.537  12.515
60420W        W25680  40.996  36.750   4.504
60421W        W25681  18.761  33.804   5.186
60422W        W25682  22.730  24.178  12.007
60423W        W25683  41.812  20.325   0.436
60424W        W25684  15.346  41.478   4.097
60425W        W25685   9.319  29.993   3.196
60426W        W25686  31.527  14.344  12.900
60427W        W25687  34.889  40.907  14.503
60428W        W25688   8.354  14.392  13.501
60429W        W25689  29.853  30.472  10.751
60430W        W25690   2.736  38.539   4.233
60431W        W25691  25.473  18.649  13.009
60432W        W25692  32.338  42.460   1.833
60433W        W25693  34.127  31.550  10.320
60434W        W25694  11.116  15.894  13.098
60435W        W25695  28.546  43.375  14.526
60436W        W25696  31.493  44.517   4.628
60437W        W25697  29.101  11.570  14.705
60438W        W25698  25.121  27.685  10.700
60439W        W25699  38.963   9.743   4.777
60440W        W25700   0.503  32.095   2.292
60441W        W25701  27.484  21.223   0.330
60442W        W25702  27.703  35.568   3.416
60443W        W25703  36.403   8.939   2.536
60444W        W25704  28.026  10.490  11.658
60445W        W25705  16.238  18.310   1.935
60446W        W25706  13.615  24.235  11.160
60447W        W25707  33.642  28.061   1.572
60448W        W25708  21.775  24.214   0.332
60449W        W25709   0.763  29.223   1.786
60450W        W25710  17.957  37.268  11.059
60451W        W25711   7.485   9.221   1.175
60452W        W25712  27.991   8.458  10.517
60453W        W25713   8.153  44.325  14.275
60454W        W25714  32.640   8.728  11.693
60455W        W25715  35.431  35.651  12.418
60456W        W25716  40.500   2.561   3.774
60457W        W25717   4.877  13.820  11.265
60458W        W25718  24.029  20.612   0.532
60459W        W25719  37.538  43.987  14.493
60460W        W25720   4.980  18.114  12.622
60461W        W25721  10.352  30.098   1.310
60462W        W25722  15.970   7.517  11.150
60463W        W25723  32.357   0.738  13.389
60464W        W25724  30.910   1.317  14.369
60465W        W25725  18.085  35.813  11.338
60466W        W25726   6.040  10.880   4.144
60467W        W25727  28.895  14.613   3.173
60468W        W25728  37.803  13.854  12.166
60469W        W25729  30.944  20.784  14.773
60470W        W25730  37.462  19.340  14.834
60471W        W25731  42.999   6.129  14.554
60472W        W25732  25.803   4.769  14.316
60473W        W25733  38.520  18.247   3.146
60474W        W25734  21.494  43.035  13.976
60475W        W25735  20.050  28.209  14.248
60476W        W25736  21.496  34.017  13.494
60477W        W25737  15.531  36.479  12.442
60478W        W25738  39.601  14.342  13.135
60479W        W25739  22.189  42.736   0.222
60480W        W25740  37.818  26.379  14.083
60481W        W25741   6.893  37.030   4.244
60482W        W25742  23.021  38.113  14.385
60483W        W25743  29.116  37.078  12.686
60484W        W25744  13.581  36.381  13.918
60485W        W25745  31.187  30.890  12.556
60486W        W25746  16.189  18.055  12.475
60487W        W25747   3.246   5.343   2.052
60488W        W25748  40.233  31.091   1.740
60489W        W25749  11.541   5.257   9.694
60490W        W25750  37.384  24.553   1.701
60491W        W25751  34.366  34.956  14.677
60492W        W25752   2.979  38.145  11.205
60493W        W25753  36.064  32.185  13.397
60494W        W25754  22.006  31.436   0.952
60495W        W25755  26.911   0.568  14.685
60496W        W25756  41.369   2.377   3.663
60497W        W25757  30.895  35.618   2.888
60498W        W25758   9.752   1.968  13.447
60499W        W25759  37.289  41.832   3.275
60500W        W25760  19.540  43.508  14.010
60501W        W25761  22.703  39.030  14.304
60502W        W25762  12.059  41.321   1.791
60503W        W25763  15.669  13.959  10.716
60504W        W25764  24.275  32.365  14.080
60505W        W25765  24.734  31.187  12.973
60506W        W25766   5.859   5.486  11.135
60507W        W25767   7.333  14.333  14.310
60508W        W25768  14.139  37.097   0.307
60509W        W25769  11.372  10.870   4.085
60510W        W25770  22.810  29.897   1.481
60511W        W25771  44.562  42.801   2.868
60512W        W25772  29.045  42.206  12.999
60513W        W25773  16.175  41.460   3.098
60514W        W25774  40.856  37.469  14.734
60515W        W25775  37.607  39.994   2.170
60516W        W25776  34.395  21.137  11.536
60517W        W25777  21.167  18.280  10.910
60518W        W25778  12.768  14.588   4.591
60519W        W25779  25.039  36.614   2.130
60520W        W25780  42.012  43.083   4.294
60521W        W25781   2.256  34.338  14.937
60522W        W25782  30.116  15.188   0.217
60523W        W25783  43.074  17.325   3.754
60524W        W25784   3.357  13.074   1.249
60525W        W25785  11.897  38.004  13.405
60526W        W25786  18.668  17.526   1.404
60527W        W25787  43.423   0.228   0.339
60528W        W25788  37.627  25.409   3.566
60529W        W25789  31.660   6.174  14.706
60530W        W25790  43.515  44.438   0.825
60531W        W25791  22.141  43.130   3.745
60532W        W25792   2.466  16.760   0.788
60533W        W25793  39.239  11.888  13.917
60534W        W25794  11.879  31.018  14.021
60535W        W25795   1.359  23.771   2.338
60536W        W25796  24.744  33.001  14.718
60537W        W25797  38.727  33.607   0.810
60538W        W25798  11.642  14.901  11.947
60539W        W25799  10.717   6.211  13.208
60540W        W25800   4.424  11.396   4.555
60541W        W25801  13.662  18.575   4.610
60542W        W25802  19.730  25.767   4.026
60543W        W25803  27.454  18.026  13.410
60544W        W25804  34.020  43.227  10.540
60545W        W25805  43.680   1.312   2.465
60546W        W25806  12.322   4.372  10.869
60547W        W25807  15.679  21.635  12.528
60548W        W25808  28.853  32.568  14.625
60549W        W25809  13.697  36.627   1.240
60550W        W25810   0.374  35.409  12.543
60551W        W25811  19.001  28.403   0.779
60552W        W25812  15.212  21.970  12.104
60553W        W25813  42.089  13.528  13.430
60554W        W25814  25.845  39.036   0.537
60555W        W25815  19.473  12.628   0.675
60556W        W25816  13.383  37.365   0.724
60557W        W25817  37.905  32.712  12.232
60558W        W25818   2.871  37.429  13.886
60559W        W25819  29.662  21.013   4.119
60560W        W25820  34.433  31.436   2.129
60561W        W25821  22.202   8.164  13.018
60562W        W25822  32.885  10.224   4.155
60563W        W25823  25.472  17.077  11.154
60564W        W25824  18.929   5.183   1.216
60565W        W25825   0.221   5.965  12.991
60566W        W25826  42.911  21.600  12.858
60567W        W25827  13.771   3.169   4.461
60568W        W25828   4.734   8.236   2.832
60569W        W25829  36.461   5.328   3.749
60570W        W25830  19.724  27.636   3.656
60571W        W25831   4.004   6.946   1.362
60572W        W25832  40.085  21.725   0.249
60573W        W25833  16.084  12.878   1.886
60574W        W25834  28.412  43.978   0.757
60575W        W25835  18.227  39.375   4.390
60576W        W25836   7.627   4.268   1.427
60577W        W25837  16.123  38.883  11.095
60578W        W25838  31.601  41.487  10.393
60579W        W25839  27.200   4.738   3.212
60580W        W25840  21.506  31.484  11.044
60581W        W25841  29.429  29.986  13.494
60582W        W25842  15.113   1.489   3.075
60583W        W25843  42.381   7.079  12.047
60584W        W25844   0.763  15.758  13.013
60585W        W25845  20.555  31.142  11.876
60586W        W25846  42.968  16.342   0.357
60587W        W25847  41.305  25.910  14.909
60588W        W25848   1.212   3.463   3.785
60589W        W25849  41.500  35.026   0.916
60590W        W25850  41.996  30.860   4.228
60591W        W25851   6.295  11.074  13.471
60592W        W25852  27.123  10.597   1.060
60593W        W25853  28.229  20.256   3.192
60594W        W25854   7.808  17.646   4.841
60595W        W25855  42.727  22.975   3.722
60596W        W25856  20.001  30.519   0.652
60597W        W25857  12.663  29.565   2.769
60598W        W25858  34.387   2.127   3.306
60599W        W25859   3.857   5.330   4.666
60600W        W25860  29.736  35.582  14.436
60601W        W25861  11.472  25.511  13.969
60602W        W25862  19.706  29.092  12.052
60603W        W25863  37.745  39.055  13.046
60604W        W25864  33.821  10.974  11.926
60605W        W25865   5.853   2.748  10.720
60606W        W25866  22.647  25.454  14.401
60607W        W25867   2.894  11.267  11.419
60608W        W25868  32.793  32.389   4.132
60609W        W25869   0.328  42.572   2.517
60610W        W25870  34.480  33.101  10.613
60611W        W25871  22.503  13.749   1.867
60612W        W25872  23.862  38.569   4.079
60613W        W25873  34.079   6.328   0.799
60614W        W25874   5.951   3.942  12.436
60615W        W25875  21.665  17.000   3.591
60616W        W25876  44.954   0.090   2.390
60617W        W25877  13.923  15.361   3.267
60618W        W25878  42.000   9.623   0.410
60619W        W25879  12.841  29.228   3.162
60620W        W25880  27.081  24.462   1.837
60621W        W25881   8.296  41.125   1.311
60622W        W25882  17.515   2.964  14.293
60623W        W25883   7.923  36.645   2.083
60624W        W25884   8.866  14.779   0.872
60625W        W25885  19.048  23.620   0.466
60626W        W25886  13.038  32.777   1.771
60627W        W25887   2.931  13.083   3.213
60628W        W25888  23.780  40.828  11.993
60629W        W25889  24.618  21.775  12.535
60630W        W25890  13.504  25.257  11.103
60631W        W25891  20.159  34.634   0.877
60632W        W25892  33.586  25.170  12.108
60633W        W25893  34.321  23.598  12.063
60634W        W25894  43.616  15.411  10.282
60635W        W25895   5.379   9.849   4.127
60636W        W25896  30.072  16.446   2.628
60637W        W25897  34.430  19.815   2.218
60638W        W25898  44.876   7.952  12.016
60639W        W25899  41.234  29.433  14.957
60640W        W25900  42.804  31.956  11.346
60641W        W25901   8.329  34.893   0.415
60642W        W25902   8.133   2.118  12.863
60643W        W25903  16.916  24.184   4.471
60644W        W25904  40.252   2.261   2.748
60645W        W25905   9.154  11.772   3.320
60646W        W25906  17.055  43.682   2.500
60647W        W25907  39.500  24.384   0.292
60648W        W25908  13.130  34.598   1.454
60649W        W25909  41.250   3.847   2.695
60650W        W25910  25.182  33.108   1.977
60651W        W25911  13.266  42.527   3.271
60652W        W25912  31.057   7.671   4.550
60653W        W25913  40.670  28.083   0.152
60654W        W25914  30.108  11.783  10.456
60655W        W25915  23.205   9.320   1.040
60656W        W25916  39.265   1.513  12.314
60657W        W25917  34.237  29.325  14.428
60658W        W25918  38.037  23.791   1.361
60659W        W25919  18.908  10.814   0.792
60660W        W25920  13.653  42.560  11.459
60661W        W25921  40.651  16.449   4.951
60662W        W25922  12.548  32.482  14.846
60663W        W25923  42.741  33.557   3.329
60664W        W25924  34.776   1.898   1.293
60665W        W25925  28.145  41.621   4.108
60666W        W25926  20.533  10.545   3.710
60667W        W25927  36.003  29.601   2.238
60668W        W25928  32.100  40.345   3.397
60669W        W25929  21.350  22.207  14.826
60670W        W25930  16.769  15.554   1.250
60671W        W25931  26.425  43.859  13.974
60672W        W25932  30.759  10.887  14.021
60673W        W25933  30.046  30.964  10.681
60674W        W25934  12.848  11.322  13.811
60675W        W25935  31.489   1.777   1.189
60676W        W25936  43.503  19.567  10.681
60677W        W25937  43.806  43.332   3.599
60678W        W25938  41.842  20.147  10.752
60679W        W25939  39.148   5.676  10.974
60680W        W25940   7.227  27.009   0.781
60681W        W25941  16.592  19.522   0.894
60682W        W25942  28.851  39.030  14.422
60683W        W25943  44.458  13.554  13.507
60684W        W25944  28.191  44.971  13.891
60685W        W25945  35.594  20.711   3.665
60686W        W25946   0.551  20.742  11.193
60687W        W25947  15.682   9.599  12.974
60688W        W25948  17.614  40.521   2.261
60689W        W25949  23.306  13.422  13.827
60690W        W25950  34.676   4.996   2.710
60691W        W25951   1.378   6.095  13.435
60692W        W25952   7.124  23.014   3.675
60693W        W25953  39.930  33.847   3.178
60694W        W25954  39.350  26.617  10.941
60695W        W25955  16.760   5.965   4.132
60696W        W25956   0.766  39.433  10.716
60697W        W25957   6.946  30.075  11.569
60698W        W25958  21.613  25.429  13.499
60699W        W25959  14.631  12.474  13.479
60700W        W25960  34.028  35.957  11.992
60701W        W25961   6.484   9.787  12.348
60702W        W25962  39.030  16.201  11.427
60703W        W25963  22.128   3.428   0.259
60704W        W25964  25.585   8.620  13.163
60705W        W25965  35.093   4.683   1.789
60706W        W25966   2.994  23.627   1.267
60707W        W25967   5.764  44.550  14.648
60708W        W25968  23.928  43.784   2.806
60709W        W25969  24.597   9.171  13.976
60710W        W25970  31.347   8.316   3.251
60711W        W25971  27.045  40.855  11.141
60712W        W25972  44.034  23.192  14.525
60713W        W25973  44.469  11.391   3.094
60714W        W25974  32.977   7.383   1.940
60715W        W25975  40.327  34.855   1.389
60716W        W25976  21.041   1.556  13.316
60717W        W25977  18.505  31.578   2.188
60718W        W25978   7.886  40.421  13.011
60719W        W25979  25.473  11.383   0.362
60720W        W25980  14.921   2.074   1.151
60721W        W25981   1.833   4.925   2.112
60722W        W25982  27.339  17.954   4.155
60723W        W25983  33.611  38.179   1.698
60724W        W25984  29.442  20.590   0.268
60725W        W25985   2.604  19.555   4.506
60726W        W25986   8.303  40.610   1.239
60727W        W25987  26.278  41.347  13.823
60728W        W25988  25.586  13.304   2.410
60729W        W25989   2.284  33.028  10.777
60730W        W25990   3.509  21.801   0.481
60731W        W25991  24.030  31.224   0.670
60732W        W25992  11.811  32.077  10.809
60733W        W25993  29.020  23.095  14.280
60734W        W25994   7.693  20.139   3.619
60735W        W25995  14.623  26.367  12.065
60736W        W25996  19.650  32.358   0.802
60737W        W25997  39.394  19.426   0.234
60738W        W25998   0.701  37.508  11.993
60739W        W25999   3.341  14.644  12.054
60740W        W26000  25.234  35.373  14.078
60741W        W26001  18.323   2.269   3.703
60742W        W26002  24.083  25.162  11.071
60743W        W26003  11.092  37.600  14.970
60744W        W26004  29.066  34.511   3.927
60745W        W26005   6.221   9.343  12.482
60746W        W26006   4.955  42.296   0.332
60747W        W26007  27.412  24.946   0.870
60748W        W26008   7.593  14.887  13.919
60749W        W26009  28.125  43.370   3.590
60750W        W26010  18.524  31.683  10.930
60751W        W26011  16.099  11.165   1.257
60752W        W26012  38.221  12.339  11.087
60753W        W26013  36.961   7.911  12.488
60754W        W26014  24.593  12.600   1.033
60755W        W26015  12.220  34.676   0.486
60756W        W26016  15.313  11.196   4.673
60757W        W26017   3.263   6.346   3.219
60758W        W26018  40.912  38.857   0.015
60759W        W26019  38.320  38.564   1.456
60760W        W26020  37.108  23.590  11.987
60761W        W26021  38.392  36.951   1.925
60762W        W26022   6.532  29.658  11.867
60763W        W26023  21.729  32.471  11.271
60764W        W26024  36.297  29.989   0.396
60765W        W26025   3.518  14.535   2.589
60766W        W26026  14.407  33.587   1.430
60767W        W26027   4.745  30.951  14.403
60768W        W26028  30.474   0.839  13.393
60769W        W26029  10.146  10.131  13.322
60770W        W26030  31.645   6.788  12.977
60771W        W26031  10.436   0.753  12.421
60772W        W26032  13.475  44.507   3.788
60773W        W26033  44.514   5.766   4.379
60774W        W26034  20.007  30.938  14.380
60775W        W26035  10.865   4.652   2.921
60776W        W26036  39.874  29.710  12.102
60777W        W26037   6.217  15.077   2.815
60778W        W26038  44.206  41.706   0.689
60779W        W26039   6.830  23.299  12.581
60780W        W26040  26.622  16.842  12.655
60781W        W26041  12.256  39.354   1.518
60782W        W26042  13.803  12.749  14.044
60783W        W26043   3.535  36.188   3.362
60784W        W26044   7.773  28.007   3.144
60785W        W26045  16.596   8.666   3.781
60786W        W26046  28.002  44.434  14.451
60787W        W26047  13.213  16.076   0.474
60788W        W26048  43.827  44.011  11.060
60789W        W26049   3.706  23.903  12.984
60790W        W26050  36.579   4.242  11.492
60791W        W26051  22.628  31.955  13.834
60792W        W26052  27.167  14.386  12.794
60793W        W26053  32.653  34.212  13.721
60794W        W26054  20.292  13.696   2.636
60795W        W26055   4.061  40.388   1.418
60796W        W26056  25.394  18.818   3.091
60797W        W26057  23.302  37.355  10.625
60798W        W26058  21.023  15.987   3.345
60799W        W26059  22.741  29.562  13.864
60800W        W26060   3.252  44.298   1.636
60801W        W26061  26.232  25.952   1.712
60802W        W26062  12.132  37.113   5.149
60803W        W26063  43.803  11.281  11.982
60804W        W26064  30.412  41.239   0.429
60805W        W26065  28.837   5.020  12.003
60806W        W26066  18.050  19.828  13.369
60807W        W26067  41.182  17.739   0.736
60808W        W26068  35.510  27.632  11.406
60809W        W26069  11.242  25.201  12.099
60810W        W26070  33.548  20.665   2.757
60811W        W26071  35.659  15.393  14.820
60812W        W26072  39.436  37.120  11.715
60813W        W26073  12.009  10.660   3.294
60814W        W26074  22.562  43.828   3.240
60815W        W26075   8.615  20.754  12.214
60816W        W26076   9.315  25.628  14.862
60817W        W26077   7.730  39.456   0.918
60818W        W26078  22.558  34.882   3.688
60819W        W26079  34.843  33.853  10.725
60820W        W26080  42.565  43.274   4.930
60821W        W26081  40.230   9.692  11.157
60822W        W26082  39.089  29.394   1.043
60823W        W26083  11.787  19.549  10.688
60824W        W26084  19.944  42.670  11.615
60825W        W26085  30.189  12.101  11.751
60826W        W26086   9.400  11.632  14.294
60827W        W26087   5.641   0.789   3.488
60828W        W26088  28.780  11.859   2.802
60829W        W26089  31.036  17.023  12.070
60830W        W26090  39.569  32.302   3.718
60831W        W26091  25.833   3.801   4.664
60832W        W26092  30.474  32.424   4.716
60833W        W26093  13.679   7.962  14.019
60834W        W26094  26.653  15.012  14.439
60835W        W26095  10.707  38.773  11.107
60836W        W26096   9.332   2.320  13.338
60837W        W26097  31.748  14.194   3.345
60838W        W26098  20.098  35.221  11.714
60839W        W26099  27.702  35.535   0.367
60840W        W26100  15.110  22.092   3.307
60841W        W26101  28.628  18.770   2.121
60842W        W26102   0.731  17.586   2.385
60843W        W26103  18.659  27.050  10.631
60844W        W26104  37.361   1.961  14.455
60845W        W26105  42.935   9.895   0.277
60846W        W26106  37.488  28.094  13.018
60847W        W26107   6.403  31.740  12.053
60848W        W26108  13.108  35.777   9.986
60849W        W26109  21.671  15.693  10.295
60850W        W26110  41.359   7.864   2.655
60851W        W26111  35.203  19.019   4.188
60852W        W26112  41.334  23.223   4.341
60853W        W26113  43.398  13.709   1.874
60854W        W26114  14.111   7.654  14.966
60855W        W26115  37.393  26.021   4.125
60856W        W26116   1.325  26.469   2.790
60857W        W26117  32.586  39.455   3.710
60858W        W26118  18.794  12.781  11.248
60859W        W26119  25.170  43.382   4.919
60860W        W26120  34.538  33.737   1.539
60861W        W26121  44.386  20.199   0.905
60862W        W26122  23.514  30.627  11.152
60863W        W26123  17.304  42.763  10.915
60864W        W26124  15.822  23.424  12.736
60865W        W26125  29.007   9.210   3.606
60866W        W26126  18.583   4.265  12.991
60867W        W26127  10.385  41.479   2.919
60868W        W26128   3.222   2.189  11.089
60869W        W26129  41.846  39.267  13.396
60870W        W26130   4.732  33.174   1.863
60871W        W26131  31.927  41.492  11.200
60872W        W26132  35.924   4.918   0.219
60873W        W26133  23.202  38.453   1.736
60874W        W26134  29.858  21.244  10.562
60875W        W26135  35.907  20.072  14.367
60876W        W26136  15.231  22.762  11.587
60877W        W26137  29.434   3.495  10.584
60878W        W26138   0.148  35.451  12.064
60879W        W26139  38.918  37.665   4.710
60880W        W26140  18.380  24.281  11.481
60881W        W26141  44.805  11.171   3.466
60882W        W26142   6.595  15.236  13.846
60883W        W26143  13.926  27.428   4.155
60884W        W26144   8.627   0.982   3.801
60885W        W26145  44.312  14.336  13.917
60886W        W26146  11.878   8.180   1.837
60887W        W26147   4.169  22.208  13.326
60888W        W26148   2.383  20.064   3.743
60889W        W26149  13.984  15.460   0.269
60890W        W26150  36.407  41.464   3.167
60891W        W26151  30.250  14.137  11.633
60892W        W26152  39.351  43.994   4.301
60893W        W26153  27.952  24.529   4.174
60894W        W26154   4.026   1.914  13.409
60895W        W26155  16.760  27.200  13.854
60896W        W26156  41.482  12.780  11.230
60897W        W26157  13.370  29.485   0.585
60898W        W26158  27.580  43.878  14.981
60899W        W26159  36.842  32.224  12.698
60900W        W26160   9.606  14.283   0.873
60901W        W26161   9.633   6.152  11.644
60902W        W26162  37.528  12.504   4.164
60903W        W26163  18.767  37.515   0.251
60904W        W26164  26.561  12.823   3.383
60905W        W26165  30.700  18.216   0.280
60906W        W26166  41.469   2.763  14.286
60907W        W26167  37.249  43.889   4.530
60908W        W26168   9.342  28.255   1.419
60909W        W26169  19.395  37.315  10.840
60910W        W26170   8.338  14.411  14.294
60911W        W26171  20.863  42.141  13.102
60912W        W26172  18.251  22.666   1.798
60913W        W26173  38.894  26.534   4.082
60914W        W26174  39.197   5.312  10.606
60915W        W26175  31.417  43.487   3.776
60916W        W26176   9.287   6.692  13.352
60917W        W26177   7.744  29.476  14.558
60918W        W26178  17.410  44.709  11.517
60919W        W26179  10.039   8.421   1.007
60920W        W26180   5.534  17.329   0.451
60921W        W26181   1.003  10.302   1.892
60922W        W26182  36.290   0.280   0.029
60923W        W26183  21.544   3.693  12.362
60924W        W26184   9.110  20.244   4.357
60925W        W26185  41.554  31.590  13.421
60926W        W26186  41.826  43.012   1.550
60927W        W26187  40.353  27.943   2.913
60928W        W26188  35.865  23.256  10.696
60929W        W26189   1.948   7.809  13.569
60930W        W26190  29.682  17.208   5.116
60931W        W26191   1.441  15.412  11.853
60932W        W26192  41.495   4.645  10.723
60933W        W26193  21.058  31.614   4.146
60934W        W26194   1.663  29.014  14.835
60935W        W26195  30.579  31.071  11.957
60936W        W26196  19.239  26.455  13.588
60937W        W26197  28.695  32.597   0.157
60938W        W26198  17.259   0.391   2.199
60939W        W26199   7.873  23.482  12.025
60940W        W26200  39.140  16.626   0.946
60941W        W26201  32.822   4.454  11.966
60942W        W26202   1.215  37.421  13.058
60943W        W26203   8.357  35.145  10.734
60944W        W26204   2.627   4.370   3.218
60945W        W26205  43.416  34.427   4.171
60946W        W26206  32.140  35.520   1.428
60947W        W26207  37.568  29.477  11.599
60948W        W26208  23.031   2.472  12.467
60949W        W26209  23.338   2.632   5.076
60950W        W26210  43.243  44.373   1.650
60951W        W26211  13.620  39.902   0.864
60952W        W26212  29.602  29.450  14.530
60953W        W26213  24.333   2.541   0.364
60954W        W26214  29.039  38.545  14.371
60955W        W26215   1.919  33.290  13.505
60956W        W26216  30.071  18.253  14.784
60957W        W26217  41.879  29.332  13.485
60958W        W26218  15.834  26.474  11.129
60959W        W26219   6.820  15.726  14.469
60960W        W26220  17.465   5.749   3.683
60961W        W26221  12.966   3.260  11.159
60962W        W26222  39.925  38.526   1.909
60963W        W26223  17.680  16.775   2.220
60964W        W26224  10.812  19.179  12.378
60965W        W26225  38.010  18.989   3.326
60966W        W26226  37.983  26.719   1.396
60967W        W26227  27.421  39.569  13.918
60968W        W26228  12.571  23.046  11.215
60969W        W26229  11.085  13.416   1.096
60970W        W26230   2.688  41.871   0.919
60971W        W26231   7.349   0.015  12.979
60972W        W26232  15.248   1.656  11.200
60973W        W26233  35.048  27.244   3.444
60974W        W26234  40.242   6.201  11.162
60975W        W26235  26.466  27.543  13.779
60976W        W26236  19.114  23.040  13.024
60977W        W26237  36.370  16.569   0.976
60978W        W26238   9.190  42.807  14.241
60979W        W26239  39.235  16.527   3.204
60980W        W26240   4.599   5.326   2.796
60981W        W26241   2.533  15.385  10.913
60982W        W26242  38.369  34.506  10.689
60983W        W26243   5.331  44.424  14.924
60984W        W26244  31.555  27.063  12.094
60985W        W26245  11.641   8.143  13.511
60986W        W26246  26.586  24.625  14.738
60987W        W26247  41.449  11.039  11.741
60988W        W26248  12.186  41.991   4.022
60989W        W26249  44.204  18.258  13.459
60990W        W26250   9.188  16.240   4.675
60991W        W26251  11.720  11.625   0.474
60992W        W26252  18.294  35.579   0.791
60993W        W26253  42.905  21.729   4.807
60994W        W26254   7.596  36.000  13.445
60995W        W26255   7.764   6.106  13.929
60996W        W26256  36.056  27.624   4.288
60997W        W26257  37.003  26.932   2.457
60998W        W26258   7.092   8.922  14.002
60999W        W26259  37.580  10.417  10.671
61000W        W26260  35.463  36.518  11.863
61001W        W26261   8.641  29.178  12.613
61002W        W26262  37.285  30.796  12.103
61003W        W26263  30.135  10.340  10.602
61004W        W26264  26.606  43.583  13.350
61005W        W26265  11.395  23.009  11.887
61006W        W26266  33.970  37.285   4.617
61007W        W26267  23.017  24.507   1.773
61008W        W26268   4.647  42.641   3.545
61009W        W26269  23.517  41.289  12.771
61010W        W26270  17.036  13.634   4.919
61011W        W26271  31.834  21.049  14.215
61012W        W26272  42.329  13.483  11.048
61013W        W26273   0.009  21.140   3.209
61014W        W26274  10.819  14.359   2.355
61015W        W26275  31.225  21.134  12.430
61016W        W26276  14.579  26.113   2.268
61017W        W26277   9.915  18.147  12.627
61018W        W26278   8.283  39.001  12.009
61019W        W26279  24.084   6.049   4.983
61020W        W26280  19.192  31.693   4.644
61021W        W26281  26.692  29.579   1.249
61022W        W26282  38.844  26.276   2.602
61023W        W26283  13.272  40.762   1.771
61024W        W26284  17.289   6.797   1.442
61025W        W26285   7.923  22.950   0.408
61026W        W26286   7.159  34.311   0.652
61027W        W26287   1.289  25.566  12.084
61028W        W26288  32.670  20.116  13.861
61029W        W26289   8.995  32.964   2.858
61030W        W26290  25.240  15.794  13.617
61031W        W26291  21.706  40.912   4.378
61032W        W26292   7.756   2.860   1.312
61033W        W26293  18.070   8.475  14.381
61034W        W26294  15.817  29.353   1.425
61035W        W26295  29.394   4.242   4.551
61036W        W26296  33.432  22.343  14.798
61037W        W26297  40.785  12.756   1.821
61038W        W26298  17.275  31.047  10.677
61039W        W26299  22.764   1.255   4.147
61040W        W26300  24.065  44.396  11.392
61041W        W26301  32.888  18.184  12.591
61042W        W26302   4.251  10.620  14.217
61043W        W26303  42.890  32.922   4.156
61044W        W26304  29.701  15.750   4.610
61045W        W26305  39.703   9.703   3.612
61046W        W26306  16.515  28.099  14.765
61047W        W26307  33.907   2.461   1.847
61048W        W26308  34.867  28.189  11.468
61049W        W26309   0.758  41.539   0.944
61050W        W26310   9.957  24.977   1.356
61051W        W26311  15.426   0.363  10.638
61052W        W26312  13.543  18.124   1.303
61053W        W26313   6.204  35.893  10.328
61054W        W26314  39.847   8.210   1.270
61055W        W26315   5.387   0.719  14.463
61056W        W26316  15.591  30.574   1.859
61057W        W26317  32.598  31.675   4.638
61058W        W26318   1.869   3.679  11.233
61059W        W26319  25.603  22.916   1.196
61060W        W26320  22.512  12.359  12.455
61061W        W26321   8.159  32.972   4.131
61062W        W26322  21.802  37.028  14.036
61063W        W26323   1.535   3.171   0.940
61064W        W26324  43.040   1.400   3.418
61065W        W26325  25.475  34.321   4.247
61066W        W26326  38.909  37.836  11.923
61067W        W26327  20.121   9.859  13.413
61068W        W26328  18.160  41.764   2.663
61069W        W26329  13.104  13.553   1.492
61070W        W26330  27.921  41.383  14.947
61071W        W26331   0.440  32.717  14.957
61072W        W26332  25.386   2.647  14.379
61073W        W26333  19.597  21.172   0.217
61074W        W26334  25.007  18.151   3.790
61075W        W26335  31.790  37.414   3.447
61076W        W26336  44.230   2.112   5.214
61077W        W26337  15.661  15.268   4.650
61078W        W26338  21.734  20.922   2.256
61079W        W26339   4.001  29.095  12.464
61080W        W26340  31.691  19.897   3.619
61081W        W26341  43.039  32.419   4.190
61082W        W26342  14.515  19.256  14.504
61083W        W26343   0.209  18.658   3.199
61084W        W26344   9.167  20.183  14.762
61085W        W26345  44.633   3.658  13.115
61086W        W26346   4.387  39.246  14.213
61087W        W26347  27.796  17.598   2.596
61088W        W26348  40.399  21.559   0.811
61089W        W26349   5.798   7.622  11.681
61090W        W26350  21.192  35.447  12.833
61091W        W26351   3.465  21.829   4.115
61092W        W26352  34.688  23.637  10.221
61093W        W26353  36.733  43.982   9.972
61094W        W26354   1.977   3.184  11.223
61095W        W26355  15.897  34.684  12.570
61096W        W26356  11.725  20.513  13.917
61097W        W26357   3.616   1.817  12.468
61098W        W26358   3.417  38.780   2.427
61099W        W26359  16.023  14.047   4.355
61100W        W26360  34.810  14.342   3.810
61101W        W26361  32.130   7.115   3.349
61102W        W26362   9.799   5.656  11.714
61103W        W26363  22.423  39.752   2.808
61104W        W26364  20.688  40.119  14.548
61105W        W26365   2.195   3.267  11.815
61106W        W26366  24.728   6.760   2.476
61107W        W26367  32.923   7.701  11.550
61108W        W26368   4.429  11.828   2.252
61109W        W26369  42.890  44.961  14.448
61110W        W26370  42.536   4.839   0.455
61111W        W26371  19.142  41.722   0.821
61112W        W26372  14.089  26.808  11.515
61113W        W26373   9.431  38.040  11.028
61114W        W26374  27.186   9.725   1.989
61115W        W26375  15.564  14.276   1.183
61116W        W26376  40.353  42.495   4.766
61117W        W26377   9.398  15.122   0.463
61118W        W26378  25.018  42.556  13.827
61119W        W26379  36.799  18.675  12.123
61120W        W26380  14.180   8.635  10.680
61121W        W26381  23.011  40.315   0.968
61122W        W26382  43.972  33.131   3.707
61123W        W26383  18.807  20.773  11.930
61124W        W26384   6.335  22.348   0.252
61125W        W26385   6.003  18.709   3.133
61126W        W26386  11.849   4.782   5.032
61127W        W26387  41.441  22.729   0.736
61128W        W26388   5.958  43.454   2.798
61129W        W26389  43.509  15.255   4.176
61130W        W26390  44.493  34.335  12.653
61131W        W26391  28.668  44.952   2.288
61132W        W26392  16.806  31.360   1.238
61133W        W26393   1.536  18.531   2.643
61134W        W26394  31.369   4.656  14.413
61135W        W26395  15.859   8.147  13.841
61136W        W26396  43.519   1.298  10.904
61137W        W26397  12.446  19.896   3.929
61138W        W26398  11.160   1.330  11.666
61139W        W26399  18.197  37.199  11.945
61140W        W26400  34.484  35.565  13.877
61141W        W26401  12.872  40.828  11.378
61142W        W26402  25.275  19.301   2.219
61143W        W26403  39.976  35.328  12.594
61144W        W26404  19.004  38.412   3.340
61145W        W26405  21.913  29.345  11.714
61146W        W26406  24.154   5.819   1.008
61147W        W26407  24.449  39.575   4.532
61148W        W26408  17.095  30.531   2.769
61149W        W26409  27.698   9.875  12.025
61150W        W26410  38.654   2.268  10.248
61151W        W26411  29.631  18.617   1.813
61152W        W26412   7.861   0.793   2.314
61153W        W26413  17.996  18.524  11.871
61154W        W26414  25.723  41.031   3.160
61155W        W26415   9.294  33.591   2.881
61156W        W26416  34.563  32.056  11.953
61157W        W26417  17.375   8.846   0.774
61158W        W26418  16.453  37.945   2.811
61159W        W26419   9.259  32.831  13.354
61160W        W26420   9.764   2.833   0.392
61161W        W26421  13.355  28.514  10.635
61162W        W26422   4.901  12.533   4.172
61163W        W26423  36.934  32.193  13.225
61164W        W26424  19.071  10.883   4.547
61165W        W26425   2.937  20.461  14.061
61166W        W26426  42.829  41.963   3.208
61167W        W26427  36.882  26.683   3.698
61168W        W26428  17.005   6.725  13.486
61169W        W26429  40.968  16.646  13.029
61170W        W26430   1.734  38.011   0.814
61171W        W26431  43.145  24.494  11.118
61172W        W26432  18.143  13.790  14.523
61173W        W26433  10.909  18.053   4.619
61174W        W26434   5.194  26.115  10.510
61175W        W26435  29.917  21.590  13.054
61176W        W26436  19.485  32.914  13.667
61177W        W26437  30.684   9.673  11.112
61178W        W26438  34.452   5.200  12.833
61179W        W26439  20.234  30.037   0.721
61180W        W26440   4.323  44.343   4.507
61181W        W26441  24.131   9.367  10.200
61182W        W26442  36.041  40.106  14.951
61183W        W26443   0.441  18.151  12.482
61184W        W26444  25.302  19.211  14.759
61185W        W26445  39.453  43.279  14.442
61186W        W26446  38.870   5.935   1.788
61187W        W26447  25.924  29.328   2.361
61188W        W26448  36.275  20.776  12.449
61189W        W26449   1.203  32.097  11.339
61190W        W26450   7.689  36.290  11.188
61191W        W26451  36.047   9.153   1.660
61192W        W26452  40.964   2.802   3.647
61193W        W26453  13.616  17.689   2.154
61194W        W26454  32.048  13.054   0.857
61195W        W26455   6.660  25.102   3.733
61196W        W26456  38.904  31.434  11.097
61197W        W26457  32.581  35.469  10.922
61198W        W26458  43.964   4.731   0.694
61199W        W26459  25.497  22.751  11.588
61200W        W26460  10.349  35.474   1.703
61201W        W26461   0.305  32.140   3.849
61202W        W26462  37.459  23.050  11.152
61203W        W26463  32.250  24.221   3.861
61204W        W26464  18.960  19.079  13.871
61205W        W26465  20.957  27.987  14.738
61206W        W26466   8.933  35.754  12.938
61207W        W26467  43.514  43.884   3.233
61208W        W26468  11.071   5.420   4.159
61209W        W26469   6.318  38.048  11.455
61210W        W26470  20.609  11.742   2.954
61211W        W26471  31.956  37.918  13.974
61212W        W26472  23.709  21.297   0.908
61213W        W26473  11.619  18.471  13.662
61214W        W26474  19.584  41.500   4.270
61215W        W26475  26.114  15.001   2.922
61216W        W26476  36.444  41.955  14.688
61217W        W26477  41.722   3.340   4.683
61218W        W26478  25.091  30.408  12.947
61219W        W26479  21.696  30.817   4.065
61220W        W26480  13.131  40.386   4.776
61221W        W26481   4.165  35.373  14.731
61222W        W26482  22.660  14.845  10.707
61223W        W26483   1.342  38.408   4.577
61224W        W26484   8.643  20.299   1.875
61225W        W26485  18.954  32.528   1.322
61226W        W26486  41.479  17.628   1.255
61227W        W26487   3.631  27.079  12.414
61228W        W26488  25.188   7.243   3.355
61229W        W26489   5.324  12.184  14.402
61230W        W26490  44.884  23.455   1.574
61231W        W26491  25.088   7.652   3.070
61232W        W26492  18.692  44.385   3.663
61233W        W26493  41.177   3.321   2.775
61234W        W26494  35.953  21.182   0.499
61235W        W26495   0.723  21.240  13.938
61236W        W26496  41.007  15.691  11.203
61237W        W26497  30.634   4.240   2.295
61238W        W26498  17.974  13.651  12.961
61239W        W26499  23.230  20.782  14.012
61240W        W26500  35.307  18.773  12.997
61241W        W26501  37.822  26.168   4.400
61242W        W26502  11.245  36.999   2.754
61243W        W26503  12.259  25.954   0.798
61244W        W26504  33.127  11.599   3.416
61245W        W26505  20.619   0.335   4.345
61246W        W26506  42.858  40.825   3.165
61247W        W26507  27.123  19.025   1.759
61248W        W26508  12.511   0.411  13.018
61249W        W26509  27.583  27.307  13.099
61250W        W26510  32.982  41.945  10.356
61251W        W26511  19.262  30.148   0.832
61252W        W26512  27.337  23.472   0.816
61253W        W26513   3.885  14.207   1.691
61254W        W26514  43.510   9.766   2.109
61255W        W26515  10.967   1.059   3.947
61256W        W26516  22.446  32.178   4.230
61257W        W26517  32.071   1.693  12.073
61258W        W26518  16.689  43.244   4.418
61259W        W26519  12.088   5.803   0.006
61260W        W26520  41.971  21.219   4.707
61261W        W26521  31.533   7.971  11.790
61262W        W26522  38.608  36.376  13.077
61263W        W26523  19.004  20.661   0.748
61264W        W26524  24.475  18.279   2.507
61265W        W26525  41.947  18.528   0.297
61266W        W26526  41.268  38.912   3.964
61267W        W26527  28.939  25.761   4.740
61268W        W26528   1.423  24.577  13.007
61269W        W26529  28.158  22.086  12.824
61270W        W26530  43.020   3.925  11.508
61271W        W26531  35.524  28.695  12.654
61272W        W26532  11.896  29.939   2.690
61273W        W26533  21.171  11.171   4.804
61274W        W26534  36.556  10.238  14.892
61275W        W26535  21.932  21.206  10.287
61276W        W26536  43.352  36.234   4.108
61277W        W26537   1.279  28.735   2.493
61278W        W26538  12.760  12.667   3.665
61279W        W26539  36.364   1.789  13.131
61280W        W26540  44.540   1.727   4.334
61281W        W26541   4.513  39.025  11.536
61282W        W26542   2.867  35.968   1.211
61283W        W26543   8.876  31.158  11.102
61284W        W26544  34.958  43.298  14.751
61285W        W26545  17.227  18.468  13.349
61286W        W26546   6.311  38.531   4.587
61287W        W26547  18.758  38.345  14.830
61288W        W26548  13.072  22.415  12.195
61289W        W26549  15.564   6.440  10.469
61290W        W26550  16.784  22.182   1.341
61291W        W26551  44.263   3.146   2.585
61292W        W26552  34.599  33.415   3.797
61293W        W26553  37.318  38.203   0.098
61294W        W26554   7.385  33.879   0.376
61295W        W26555  27.165  38.319   2.674
61296W        W26556  37.062   1.989   3.094
61297W        W26557  21.757  17.184  11.500
61298W        W26558  33.091  14.086  11.535
61299W        W26559  16.550  44.350  11.142
61300W        W26560  26.536  39.761  11.134
61301W        W26561  12.174   6.085   4.103
61302W        W26562  26.706  29.152   0.659
61303W        W26563  35.878  17.683   4.456
61304W        W26564  14.352   0.799   4.089
61305W        W26565   3.322  13.544  13.042
61306W        W26566  15.128  20.773   4.017
61307W        W26567  12.689   2.301  10.932
61308W        W26568   5.249  43.211   0.624
61309W        W26569  22.383   2.559   9.471
61310W        W26570  14.618  41.257   2.276
61311W        W26571  13.170  40.538   0.180
61312W        W26572   4.663   6.266  13.971
61313W        W26573  17.188  15.618   4.638
61314W        W26574   0.450  42.485   4.205
61315W        W26575  43.815   5.788  13.276
61316W        W26576  21.801  28.102  10.731
61317W        W26577  18.302  19.309   1.029
61318W        W26578   4.850  37.492   2.274
61319W        W26579  43.700  10.004  10.445
61320W        W26580  33.506   7.941   4.403
61321W        W26581  33.021  18.717  12.516
61322W        W26582  16.147  29.385  10.788
61323W        W26583   8.951   3.830   1.491
61324W        W26584  43.578  29.118  13.136
61325W        W26585  17.106  24.689   1.730
61326W        W26586  34.452  11.909  14.819
61327W        W26587   4.351  13.124   3.433
61328W        W26588  38.052  33.652   1.446
61329W        W26589  37.811  22.607  10.387
61330W        W26590   8.772  13.687  14.850
61331W        W26591   6.734  15.273  12.423
61332W        W26592  39.191  22.002  13.782
61333W        W26593   9.238   0.555   2.300
61334W        W26594  23.001  21.347  11.920
61335W        W26595  11.345  35.487   3.131
61336W        W26596  13.903   6.247  14.745
61337W        W26597   9.894  36.524   4.316
61338W        W26598  29.953  34.209   2.351
61339W        W26599   5.439   0.201   1.445
61340W        W26600   2.967  30.466  10.986
61341W        W26601   4.995   0.599  11.464
61342W        W26602  15.215  44.929   2.197
61343W        W26603  34.506  16.975  11.715
61344W        W26604  34.833  20.948  14.701
61345W        W26605   7.430   7.690  12.095
61346W        W26606   0.979   7.027   1.746
61347W        W26607   0.791  21.098   1.389
61348W        W26608  23.645  26.597  11.418
61349W        W26609  29.428  40.919  10.437
61350W        W26610  10.186  12.804   1.992
61351W        W26611  17.822  34.501   4.620
61352W        W26612  26.619   0.792   4.647
61353W        W26613  22.819  22.514   0.945
61354W        W26614  25.071  26.642  10.695
61355W        W26615  42.885  39.959   4.597
61356W        W26616  28.182   8.989   5.056
61357W        W26617  43.370  25.175   1.648
61358W        W26618  21.826  26.695  13.362
61359W        W26619  21.475  37.680   2.898
61360W        W26620  37.918  34.385   3.926
61361W        W26621   9.358  16.343  11.043
61362W        W26622  22.763  39.110   4.989
61363W        W26623  36.858  38.899  12.104
61364W        W26624  38.705  26.430  14.384
61365W        W26625  27.060  12.299  12.105
61366W        W26626  21.098  19.530  10.690
61367W        W26627   4.375   0.682   0.787
61368W        W26628  41.932   8.853  13.350
61369W        W26629  40.828  41.080   0.664
61370W        W26630  37.172  11.735  14.712
61371W        W26631  28.605  33.522   3.204
61372W        W26632  10.231  33.391   2.750
61373W        W26633   4.231  34.411   1.882
61374W        W26634  42.749  27.380  14.937
61375W        W26635   3.242  37.654   3.342
61376W        W26636   4.358  17.695  14.313
61377W        W26637   6.911  22.672   0.229
61378W        W26638  15.733   3.907   3.270
61379W        W26639   1.433  28.249  10.653
61380W        W26640  21.025  39.780   1.984
61381W        W26641  39.306  43.596  11.958
61382W        W26642  11.010  22.097  14.054
61383W        W26643  17.642  44.033  14.954
61384W        W26644  18.353   1.835  11.543
61385W        W26645  12.421  24.466  11.567
61386W        W26646  22.262  17.299  11.420
61387W        W26647  38.556  35.558  11.514
61388W        W26648   5.659  13.818  12.519
61389W        W26649  24.539   2.395  14.032
61390W        W26650  43.261  13.664   3.589
61391W        W26651  27.094  17.484   0.449
61392W        W26652   2.811  38.832  12.435
61393W        W26653  43.440  24.213  10.707
61394W        W26654  13.557  28.898  11.019
61395W        W26655  40.122  19.012  14.729
61396W        W26656  15.614   0.188   1.319
61397W        W26657  38.975  18.446  14.492
61398W        W26658   5.378  33.929   1.701
61399W        W26659  23.561  23.174  14.020
61400W        W26660  26.382  15.156  14.017
61401W        W26661  21.580  37.562   0.748
61402W        W26662  42.931  22.673   1.918
61403W        W26663  33.683  15.706  12.411
61404W        W26664  35.679  21.725  14.066
61405W        W26665   7.006  41.932  13.756
61406W        W26666  39.952  28.997  11.611
61407W        W26667  44.965  17.958  12.434
61408W        W26668   8.129  24.168  14.170
61409W        W26669  14.810  39.029  11.502
61410W        W26670  12.967   6.263   0.037
61411W        W26671   5.199   5.011   0.243
61412W        W26672  15.067  16.674   0.333
61413W        W26673  11.351   8.913  11.159
61414W        W26674  13.319   5.377  11.407
61415W        W26675   0.721   2.845   0.898
61416W        W26676  26.514   5.401   3.282
61417W        W26677   0.815  31.541  14.432
61418W        W26678  35.862  15.569   5.115
61419W        W26679  33.975  34.881   1.492
61420W        W26680   0.288  43.385  12.054
61421W        W26681  43.847  44.923  10.898
61422W        W26682  14.851  28.038  13.078
61423W        W26683  40.382  31.168  13.427
61424W        W26684  30.381  17.269   4.021
61425W        W26685  26.013  21.992  14.945
61426W        W26686  28.476  33.752  14.046
61427W        W26687  21.682  44.794   2.783
61428W        W26688  15.138  44.641   3.822
61429W        W26689  43.960  23.647   3.508
61430W        W26690  29.092  32.402  11.604
61431W        W26691  10.008  26.769   3.214
61432W        W26692   2.731   5.372   2.764
61433W        W26693  37.804  42.312  12.980
61434W        W26694  13.040  18.146   1.187
61435W        W26695   8.456  36.344  12.074
61436W        W26696   4.746  44.797  11.970
61437W        W26697  28.620  27.489  11.359
61438W        W26698   4.973   0.244   0.269
61439W        W26699  19.000  20.622  13.498
61440W        W26700  13.217  41.048   1.336
61441W        W26701  32.414  29.946  13.455
61442W        W26702  20.410  32.965  13.536
61443W        W26703  20.745  38.984   3.501
61444W        W26704  31.843   4.689  11.944
61445W        W26705  33.981  15.265   0.457
61446W        W26706   0.497  35.964  13.800
61447W        W26707  11.144  12.439  13.046
61448W        W26708   2.508  28.912   2.185
61449W        W26709  33.913  28.530  13.844
61450W        W26710  34.521  14.509   0.129
61451W        W26711  33.467  40.149  11.618
61452W        W26712  40.660  23.995   4.733
61453W        W26713  34.992  23.250   5.016
61454W        W26714  19.070  26.957   3.709
61455W        W26715  27.452   3.468  10.415
61456W        W26716  10.605  35.472   0.732
61457W        W26717  34.907  19.781   1.320
61458W        W26718  32.612  40.887  14.143
61459W        W26719  28.095  44.796   4.840
61460W        W26720   5.189  14.122   2.234
61461W        W26721  41.621  24.312  13.439
61462W        W26722  29.533  12.951   3.118
61463W        W26723  43.484  25.507  10.870
61464W        W26724  39.389  44.576   0.005
61465W        W26725  21.262  20.961   4.553
61466W        W26726   1.000  44.057  14.037
61467W        W26727  43.133  22.250  11.248
61468W        W26728  21.742  12.988  14.398
61469W        W26729  26.535  26.108  13.274
61470W        W26730  17.207  42.458  12.854
61471W        W26731  18.374  32.460   0.322
61472W        W26732  37.128  43.853   2.732
61473W        W26733  31.496  14.864  13.492
61474W        W26734  37.786  10.793  11.481
61475W        W26735  37.579  15.571   9.672
61476W        W26736  36.880   5.912   4.352
61477W        W26737  43.373  35.842   2.226
61478W        W26738  33.588  18.190   1.868
61479W        W26739   6.290  13.746   1.662
61480W        W26740  19.933  35.574   2.708
61481W        W26741  29.490  11.223   2.107
61482W        W26742   5.856  34.866  11.025
61483W        W26743  31.422   4.297   2.817
61484W        W26744   4.664  34.944  11.579
61485W        W26745  11.210  12.687  14.336
61486W        W26746   9.415  29.680   4.681
61487W        W26747  32.273  40.015  14.048
61488W        W26748  18.140  30.144   4.171
61489W        W26749  18.838  17.988  12.902
61490W        W26750  39.963   4.901   4.747
61491W        W26751  20.690  22.736   0.394
61492W        W26752  18.601   2.812   2.467
61493W        W26753  36.546  15.348  13.466
61494W        W26754  39.552  10.855   1.728
61495W        W26755  14.190   0.175   2.786
61496W        W26756  32.109  10.913  13.575
61497W        W26757  18.965  30.103  14.539
61498W        W26758  36.129   9.080   5.076
61499W        W26759  25.437  17.585  14.233
61500W        W26760  17.804  40.479  12.831
61501W        W26761   6.362  38.031   0.020
61502W        W26762  36.557  21.962  12.984
61503W        W26763  26.714  17.022   4.056
61504W        W26764   9.885  10.310  12.004
61505W        W26765  13.986  35.167   1.511
61506W        W26766  31.695  20.668  12.585
61507W        W26767  42.805   7.893  12.065
61508W        W26768  16.307  40.867  12.468
61509W        W26769  41.017   4.904   4.759
61510W        W26770  30.732  25.695  13.404
61511W        W26771  33.693  22.179   4.909
61512W        W26772  27.444  11.706   2.963
61513W        W26773   0.951  18.511  10.785
61514W        W26774  23.994   5.574  10.315
61515W        W26775   9.026  25.245   2.316
61516W        W26776  41.532  39.524   1.726
61517W        W26777  29.231   2.021   4.798
61518W        W26778  23.429  40.980   2.003
61519W        W26779  28.938  13.684  11.611
61520W        W26780  26.720   0.313  12.952
61521W        W26781  20.050   0.474  12.937
61522W        W26782  28.715   4.848  10.414
61523W        W26783  13.877  36.927   2.227
61524W        W26784  10.129   1.464  14.422
61525W        W26785  20.725  24.519  14.507
61526W        W26786   7.667   0.464   0.484
61527W        W26787  36.398   2.889  14.453
61528W        W26788   6.752  44.925   2.745
61529W        W26789  17.076  22.794   0.196
61530W        W26790  35.029   5.288   4.441
61531W        W26791  40.143  40.390   2.784
61532W        W26792  22.670  23.542  10.272
61533W        W26793  37.946  26.927  13.789
61534W        W26794  29.697  13.899  13.830
61535W        W26795  19.141  38.329  11.453
61536W        W26796  35.360  41.817  13.539
61537W        W26797  27.461  42.470   4.926
61538W        W26798   1.439  17.368   3.461
61539W        W26799  28.206  31.938  11.054
61540W        W26800  38.326  25.197   4.684
61541W        W26801   5.740   5.966   2.405
61542W        W26802   0.269  41.044   2.306
61543W        W26803  15.545  24.981  14.016
61544W        W26804  27.550  21.488   4.465
61545W        W26805  30.936  20.038  13.626
61546W        W26806  36.211  33.351  14.967
61547W        W26807  21.644   3.383  11.406
61548W        W26808   6.557  20.974   1.312
61549W        W26809  23.954  37.745   2.670
61550W        W26810  22.237  35.994   1.821
61551W        W26811  40.319   3.546   3.861
61552W        W26812  33.425  35.513   0.896
61553W        W26813  11.004  13.142   1.923
61554W        W26814  39.165  36.750  11.940
61555W        W26815  27.090  36.319   0.992
61556W        W26816  21.388  20.661   3.552
61557W        W26817  10.095  30.568   1.586
61558W        W26818   3.495   5.194  12.400
61559W        W26819   3.846  26.491  11.101
61560W        W26820  20.978   9.108  12.618
61561W        W26821  42.047  26.578   3.207
61562W        W26822  26.966  29.145   1.331
61563W        W26823   3.455  29.709   2.788
61564W        W26824  23.085   8.842   2.137
61565W        W26825   3.556   0.748  14.450
61566W        W26826  23.395   7.423  11.145
61567W        W26827  18.090  29.121  12.558
61568W        W26828  28.684  38.171  11.917
61569W        W26829  13.771   2.758  11.674
61570W        W26830  36.413  26.376   0.409
61571W        W26831  39.026  18.769  14.077
61572W        W26832  14.524   3.719  10.464
61573W        W26833  11.160  26.734  13.868
61574W        W26834  40.240   8.612  10.359
61575W        W26835  42.280  34.469  11.155
61576W        W26836  33.594  16.582  13.441
61577W        W26837   0.470   2.324   2.430
61578W        W26838  43.094  25.246  11.407
61579W        W26839  20.710  12.596  14.999
61580W        W26840  25.156  14.796  14.336
61581W        W26841  11.404   9.887   3.232
61582W        W26842  39.664  25.987   2.492
61583W        W26843  38.056  11.344  10.601
61584W        W26844  23.758   9.106   9.895
61585W        W26845  34.919  21.250  14.289
61586W        W26846  15.001   8.035   5.465
61587W        W26847  15.081  40.099  14.488
61588W        W26848  17.642   0.797   0.254
61589W        W26849  20.691  15.401   1.286
61590W        W26850  32.576  29.145   4.103
61591W        W26851  10.732  10.741  13.624
61592W        W26852  30.956  34.249   2.898
61593W        W26853  15.785  17.687   4.199
61594W        W26854  17.580  35.193   2.778
61595W        W26855  25.238  15.237  11.090
61596W        W26856  39.572  15.671   3.722
61597W        W26857  33.705  20.917  11.088
61598W        W26858  38.549   7.642  10.424
61599W        W26859   5.312  40.924  13.508
61600W        W26860  17.827  28.188   2.750
61601W        W26861  27.180  19.652  11.925
61602W        W26862  19.270  17.324  11.627
61603W        W26863  21.055   7.455  10.319
61604W        W26864  33.425   6.331   2.620
61605W        W26865   0.250  18.267  14.357
61606W        W26866  21.118  41.860  11.150
61607W        W26867  18.966  22.934   2.673
61608W        W26868   2.352   6.385  14.342
61609W        W26869  30.411  43.221  11.939
61610W        W26870  27.932   6.328  10.622
61611W        W26871  22.500  37.115   0.024
61612W        W26872  20.120   8.864  10.564
61613W        W26873  41.233  31.064   0.912
61614W        W26874  12.883  17.568   4.635
61615W        W26875  20.103  25.623   0.274
61616W        W26876  12.770  13.345  12.399
61617W        W26877   4.489  43.280  14.283
61618W        W26878  16.491  37.554  13.007
61619W        W26879   9.176  12.443  13.758
61620W        W26880  33.820  34.409   1.923
61621W        W26881  24.841  32.292   1.928
61622W        W26882   6.191  34.970   0.974
61623W        W26883  40.620  43.995  11.606
61624W        W26884  36.573  23.146   0.312
61625W        W26885  44.043  24.749   1.914
61626W        W26886  24.144  16.164   3.611
61627W        W26887  37.636  38.383   0.480
61628W        W26888  33.023   5.887   0.039
61629W        W26889  12.596   0.453  11.200
61630W        W26890  40.940   1.205   4.926
61631W        W26891  30.605  29.134  13.965
61632W        W26892  15.119  12.686   0.977
61633W        W26893  24.539  39.578  14.956
61634W        W26894  39.857  29.696   2.599
61635W        W26895   1.311  15.790  14.953
61636W        W26896  31.733  25.562   3.065
61637W        W26897  39.131   0.508  11.143
61638W        W26898  35.903   0.665   1.751
61639W        W26899  17.626   4.218  10.968
61640W        W26900  42.090   8.739  10.712
61641W        W26901  38.936   5.451   4.930
61642W        W26902  31.149  32.491  12.114
61643W        W26903  15.268  19.214   1.310
61644W        W26904   0.422   3.245  11.556
61645W        W26905  41.687  41.811   0.399
61646W        W26906  27.906  20.191  12.411
61647W        W26907  24.537  37.127  14.829
61648W        W26908  32.896   2.682   0.302
61649W        W26909  19.693  44.061   3.621
61650W        W26910  15.678   2.810   4.602
61651W        W26911  35.517   5.970  13.291
61652W        W26912  26.513  21.661  14.204
61653W        W26913  23.379  11.806  12.542
61654W        W26914  12.884  37.086   2.539
61655W        W26915  43.036  14.796   3.703
61656W        W26916  30.926  43.809  12.640
61657W        W26917  31.122  24.110  13.440
61658W        W26918   4.406  15.646  11.222
61659W        W26919  37.960  13.340  14.877
61660W        W26920  29.087  42.893  11.446
61661W        W26921  40.960   1.909  11.040
61662W        W26922  10.032  35.351  14.920
61663W        W26923  31.922  17.123   0.315
61664W        W26924   4.940  33.812  11.181
61665W        W26925  42.914   4.785   5.110
61666W        W26926  19.349   8.683   3.246
61667W        W26927  27.187  18.099   1.741
61668W        W26928  12.785  30.509   1.219
61669W        W26929  14.690  31.618   2.054
61670W        W26930  24.257   7.883   1.143
61671W        W26931   2.235   2.423  14.254
61672W        W26932  33.587   6.531   1.339
61673W        W26933  40.395  27.927   0.850
61674W        W26934  21.227  29.124  14.833
61675W        W26935  23.550  28.629  12.679
61676W        W26936  39.827  12.639   3.620
61677W        W26937  27.747   2.280  11.040
61678W        W26938  16.073  16.239  12.793
61679W        W26939  16.743  14.545   1.321
61680W        W26940  31.815  12.958   1.852
61681W        W26941  15.149   3.040  12.400
61682W        W26942   6.242  27.736   1.371
61683W        W26943  29.045  34.377  14.920
61684W        W26944  27.972  34.614   2.302
61685W        W26945  39.577  31.691   0.838
61686W        W26946   0.369  23.203  14.710
61687W        W26947  26.253   2.308  11.967
61688W        W26948  35.941  36.336  10.478
61689W        W26949  42.005  29.981   3.707
61690W        W26950  15.945  37.969   4.589
61691W        W26951  11.524  37.385  14.745
61692W        W26952  34.023  13.509   1.169
61693W        W26953  26.230  30.281   3.362
61694W        W26954  32.072  15.070  13.998
61695W        W26955  26.812  12.873  10.280
61696W        W26956  18.670  11.406   1.787
61697W        W26957  41.309   3.376   1.180
61698W        W26958  37.275  17.262  12.491
61699W        W26959   1.407   2.235  11.512
61700W        W26960  24.343   2.914   3.714
61701W        W26961  26.937  43.779  12.188
61702W        W26962   1.329  24.056  10.782
61703W        W26963  31.085   9.207   4.342
61704W        W26964  35.306  35.929   0.859
61705W        W26965  10.618  24.095   3.555
61706W        W26966   8.697  43.723  13.904
61707W        W26967   1.786  21.222   4.536
61708W        W26968  35.398  37.387  14.863
61709W        W26969  43.341  41.637  12.641
61710W        W26970  43.986   5.420  14.079
61711W        W26971   2.859  44.496   3.699
61712W        W26972  40.081  33.108  13.456
61713W        W26973  18.300  27.603  10.806
61714W        W26974  39.010  25.602  12.319
61715W        W26975   1.179  16.860   1.125
61716W        W26976  36.802   9.865   1.853
61717W        W26977  26.641   0.025   0.232
61718W        W26978  41.300  39.515  11.385
61719W        W26979  26.957   3.163  14.330
61720W        W26980  32.920  36.601   1.998
61721W        W26981   0.450   0.725  12.580
61722W        W26982   8.323  13.117   0.449
61723W        W26983  34.583  38.051   4.385
61724W        W26984   9.765  31.334   4.251
61725W        W26985  40.056  40.400   4.509
61726W        W26986  27.743  33.328  12.909
61727W        W26987  21.418  40.019   2.215
61728W        W26988  39.214  31.299   3.672
61729W        W26989  23.899  24.703  12.467
61730W        W26990  19.143  16.134   4.548
61731W        W26991  27.151  40.853   3.099
61732W        W26992  39.513  16.616  14.824
61733W        W26993  37.467  22.816  13.933
61734W        W26994  21.649  25.724  12.943
61735W        W26995   4.924   0.423   3.932
61736W        W26996   4.410   2.390  12.999
61737W        W26997  28.118  11.197  14.264
61738W        W26998  21.367  44.295   5.054
61739W        W26999  11.467   2.882   4.129
61740W        W27000  35.245  11.334   1.729
61741W        W27001  28.450  17.187  10.224
61742W        W27002  13.627  19.838  14.408
61743W        W27003   5.268   2.210   1.335
61744W        W27004   2.479   1.876   2.338
61745W        W27005  30.451   6.920   4.127
61746W        W27006  23.687  25.629  11.654
61747W        W27007  39.320  23.945   2.228
61748W        W27008  17.594  41.845   4.990
61749W        W27009  14.626  18.437  10.571
61750W        W27010  20.297  24.060  11.483
61751W        W27011  20.005  24.608  13.915
61752W        W27012  37.508  42.519  14.870
61753W        W27013   0.234  16.516  12.029
61754W        W27014  30.157  17.621  12.025
61755W        W27015  28.356   3.243   3.343
61756W        W27016  24.713  43.159  12.467
61757W        W27017  10.118  39.495  11.642
61758W        W27018   9.463  29.993  10.685
61759W        W27019  34.436   1.872   4.636
61760W        W27020  14.669   3.973   0.937
61761W        W27021  18.063  27.060   0.743
61762W        W27022  40.933  33.996   2.220
61763W        W27023  26.752  41.150  13.819
61764W        W27024  17.352  38.540  10.605
61765W        W27025  23.059  37.390   4.065
61766W        W27026  15.148  19.613   2.520
61767W        W27027   5.350  34.939   2.861
61768W        W27028  41.801  38.954   0.251
61769W        W27029  41.750  20.707   1.148
61770W        W27030  34.480  32.540  11.559
61771W        W27031  11.272  32.153   1.449
61772W        W27032   3.192  23.618  12.375
61773W        W27033  27.966  15.528   2.894
61774W        W27034  27.667  10.877  10.922
61775W        W27035  10.423  36.018   2.349
61776W        W27036  40.500  34.875   2.857
61777W        W27037   0.592  34.592  12.933
61778W        W27038  32.070  16.486  11.902
61779W        W27039  10.743   2.786   3.245
61780W        W27040  38.080  14.234  11.402
61781W        W27041  32.875  32.251  12.121
61782W        W27042  42.315   2.907   4.622
61783W        W27043  38.818  12.653  13.767
61784W        W27044  25.614  22.380   2.776
61785W        W27045  20.165  21.436  14.562
61786W        W27046  38.823  36.004  14.959
61787W        W27047  18.234   6.923  12.411
61788W        W27048  24.572   6.411  13.023
61789W        W27049  18.690  23.805   4.303
61790W        W27050  29.574  20.520   4.000
61791W        W27051  21.881  26.006  11.988
61792W        W27052  41.127   5.793  13.645
61793W        W27053  44.610   9.667  11.953
61794W        W27054  24.844  17.688   4.012
61795W        W27055  37.506  44.448  11.366
61796W        W27056   1.030  30.489  11.157
61797W        W27057   3.670  20.632   1.683
61798W        W27058   1.455  41.370  13.370
61799W        W27059  34.007   5.885  13.166
61800W        W27060   2.814  24.058   4.534
61801W        W27061  14.494  40.879  12.032
61802W        W27062  25.265  29.979   0.672
61803W        W27063  23.156  21.501   3.878
61804W        W27064  26.679  24.968   3.089
61805W        W27065  42.374  21.235  12.144
61806W        W27066  30.624  26.220   0.629
61807W        W27067  32.355  25.703  12.581
61808W        W27068  42.448  44.390  14.492
61809W        W27069  29.690  20.659  11.664
61810W        W27070  23.090  21.174  13.701
61811W        W27071  19.605   7.846  11.168
61812W        W27072  36.898  37.378  10.934
61813W        W27073   4.764   5.680  14.006
61814W        W27074  33.170   1.946   2.335
61815W        W27075  41.454  39.588  12.633
61816W        W27076  21.763  44.479  13.362
61817W        W27077   7.640  12.126   2.844
61818W        W27078  21.988  30.417   3.229
61819W        W27079  21.090   9.029   4.213
61820W        W27080   9.840   4.725   1.299
61821W        W27081  15.990  31.623  11.925
61822W        W27082   1.473  32.201   1.788
61823W        W27083  30.130  35.160  13.551
61824W        W27084  29.958   3.262   4.683
61825W        W27085  12.594  32.272   3.311
61826W        W27086   8.928  32.991   3.775
61827W        W27087  44.360  26.577   0.866
61828W        W27088  26.685  33.501   2.881
61829W        W27089   8.168   4.183  13.408
61830W        W27090  15.960  38.301   4.998
61831W        W27091  13.337  14.139   5.024
61832W        W27092  35.075  11.547   0.865
61833W        W27093  34.075  12.386   3.816
61834W        W27094   9.200  10.301   1.008
61835W        W27095   6.571  26.073  12.454
61836W        W27096  23.201  36.921   0.015
61837W        W27097  32.921  21.150   3.698
61838W        W27098  10.766  10.801  13.109
61839W        W27099  39.056  31.499  12.939
61840W        W27100  38.039  41.377   4.431
61841W        W27101  21.667  10.563  13.921
61842W        W27102  22.281  10.899  14.429
61843W        W27103   9.564  38.380  12.439
61844W        W27104  25.538  34.618   4.677
61845W        W27105  34.087  25.126   0.220
61846W        W27106   9.364  19.694   4.997
61847W        W27107  43.971   0.100   2.331
61848W        W27108  16.169  35.387  13.024
61849W        W27109   5.447   2.899   4.194
61850W        W27110  41.985   3.654  12.137
61851W        W27111  16.611  35.758  12.409
61852W        W27112  43.727  40.929   1.800
61853W        W27113  42.402   5.767   0.306
61854W        W27114   9.595   7.776  14.949
61855W        W27115  29.979  30.360   4.137
61856W        W27116   1.644  14.686  11.714
61857W        W27117  12.817  37.491  14.418
61858W        W27118  34.670  33.946  13.863
61859W        W27119   8.732  32.880  10.389
61860W        W27120  22.782  20.072  14.487
61861W        W27121  27.002   8.378   3.818
61862W        W27122  29.202  21.649   2.374
61863W        W27123  41.029  26.538  13.485
61864W        W27124  33.056  20.585   0.890
61865W        W27125   5.736  29.905   4.227
61866W        W27126  22.259  16.341   2.328
61867W        W27127  21.824  13.797  13.987
61868W        W27128  40.056   5.857  11.966
61869W        W27129  33.387   2.009   0.320
61870W        W27130  23.071   8.896   2.689
61871W        W27131  20.469  32.942   3.086
61872W        W27132   1.792  22.782   3.069
61873W        W27133   8.144  17.335   3.147
61874W        W27134  21.497  28.073   0.268
61875W        W27135  20.963  16.636  13.830
61876W        W27136  22.145  24.295  13.732
61877W        W27137   3.525   1.960  14.843
61878W        W27138  28.840  20.562   1.253
61879W        W27139  21.758   4.092  13.883
61880W        W27140  19.055   8.473   5.075
61881W        W27141  23.497  19.102   0.344
61882W        W27142  14.335  27.499   2.266
61883W        W27143  13.154  24.509  14.278
61884W        W27144  24.001  30.476   0.297
61885W        W27145   7.198  33.408  10.706
61886W        W27146  32.570  15.616   2.193
61887W        W27147  37.066  34.311  14.506
61888W        W27148  39.486   2.732   2.613
61889W        W27149  29.369   4.481   5.023
61890W        W27150  31.083  34.567  12.908
61891W        W27151  29.161  29.893  12.357
61892W        W27152  44.222  17.131  12.439
61893W        W27153  22.478  17.586   2.748
61894W        W27154  37.553   0.363  11.623
61895W        W27155  22.511   8.828   4.620
61896W        W27156  21.193   7.376  12.125
61897W        W27157  22.785  17.497  11.092
61898W        W27158  30.628   9.192  12.659
61899W        W27159  37.057  19.388   4.768
61900W        W27160   6.362  32.399  14.052
61901W        W27161   9.190  20.560  11.624
61902W        W27162  35.537   4.376   2.380
61903W        W27163   9.439  24.954   5.350
61904W        W27164  44.010  33.524   0.904
61905W        W27165  12.040  40.217   1.282
61906W        W27166  23.016  42.014   1.675
61907W        W27167  11.804  25.767  13.069
61908W        W27168  25.563  14.098   4.056
61909W        W27169  27.482  31.606  12.146
61910W        W27170  39.209  42.780  10.797
61911W        W27171   8.372  21.418  11.080
61912W        W27172  22.497  16.701   0.748
61913W        W27173  38.249  44.961  14.708
61914W        W27174  42.927  17.237  14.285
61915W        W27175  35.873  36.112   3.627
61916W        W27176  41.823  15.775  11.606
61917W        W27177  43.583   4.261  14.326
61918W        W27178  31.020  22.234   1.132
61919W        W27179  29.529  24.249   3.595
61920W        W27180  41.653  41.893  11.799
61921W        W27181  38.759  33.903   0.334
61922W        W27182  44.941  23.590   2.080
61923W        W27183  40.357   0.716  12.073
61924W        W27184  14.269  13.662  12.905
61925W        W27185  35.408  42.549   1.277
61926W        W27186   7.775  22.489  14.511
61927W        W27187  25.219   1.677  11.555
61928W        W27188  39.512  33.422   1.805
61929W        W27189  29.845  13.328   0.323
61930W        W27190  34.194   5.304  11.377
61931W        W27191  37.734  15.284  10.099
61932W        W27192  23.008  42.590   2.563
61933W        W27193  24.647   6.180   1.838
61934W        W27194  11.152  33.639   2.593
61935W        W27195  24.053  36.356   3.621
61936W        W27196  35.266  43.855  11.659
61937W        W27197   9.617  34.591  12.053
61938W        W27198   9.600   4.533   2.485
61939W        W27199  22.464  32.668  14.376
61940W        W27200  32.600  43.935  11.479
61941W        W27201  36.764  26.667  11.068
61942W        W27202  42.352  33.605  11.441
61943W        W27203   9.592  32.598  10.586
61944W        W27204  27.606  16.786  14.016
61945W        W27205  40.369   5.495   1.078
61946W        W27206   4.903  33.793  10.273
61947W        W27207   3.419  23.512  12.831
61948W        W27208  38.687  36.149  10.338
61949W        W27209  26.180  36.781  11.509
61950W        W27210  27.020  41.334   0.078
61951W        W27211  32.201  38.429  12.627
61952W        W27212   9.944  25.407   3.590
61953W        W27213   2.235   8.424  14.392
61954W        W27214   9.803   4.113  13.953
61955W        W27215  21.525  30.189  14.758
61956W        W27216   1.714  18.651  14.684
61957W        W27217  22.575  41.445  11.214
61958W        W27218  19.300  23.475   3.793
61959W        W27219   5.855  20.302   1.905
61960W        W27220  13.442  22.745   3.599
61961W        W27221  23.887   9.514   1.192
61962W        W27222  24.547  29.653   2.950
61963W        W27223   8.417  28.182  13.878
61964W        W27224  38.429  10.158  14.919
61965W        W27225   7.412  24.098  10.765
61966W        W27226  25.640  22.900  12.063
61967W        W27227   5.311  14.820   0.109
61968W        W27228   5.529  34.669   2.122
61969W        W27229  28.334   7.458   0.301
61970W        W27230  29.070   6.245   4.488
61971W        W27231  19.365  41.467   3.796
61972W        W27232  25.557  30.977  10.444
61973W        W27233  11.240   0.261   2.893
61974W        W27234  31.184  26.603  13.237
61975W        W27235  44.341  10.425  10.672
61976W        W27236  22.993   1.501  13.993
61977W        W27237  36.552   0.255  13.008
61978W        W27238  43.077   9.434  12.929
61979W        W27239   4.178  10.527  11.446
61980W        W27240  31.101  42.551   2.484
61981W        W27241  22.942  18.980  13.904
61982W        W27242  11.708  33.279  11.493
61983W        W27243  33.147  32.672   0.739
61984W        W27244  23.026  32.404  10.420
61985W        W27245   3.903  22.149   2.552
61986W        W27246   3.316  10.649  10.936
61987W        W27247  41.537  40.428   0.494
61988W        W27248  10.221  39.500   3.843
61989W        W27249   8.979  26.516  14.411
61990W        W27250  18.169  16.834   2.915
61991W        W27251  24.120   2.398  13.263
61992W        W27252   6.015  33.511   0.606
61993W        W27253  44.777  42.837  12.780
61994W        W27254  20.516  27.995   0.022
61995W        W27255  23.613  34.331   0.700
61996W        W27256  19.995  32.485  14.554
61997W        W27257   9.104  15.107  13.281
61998W        W27258   5.931  42.876   0.306
61999W        W27259  30.926  16.012  14.458
62000W        W27260  32.405  19.968   1.011
62001W        W27261  17.059  16.699  12.891
62002W        W27262  40.841  17.594   4.059
62003W        W27263  29.675   1.878  12.169
62004W        W27264   6.405   3.385  13.526
62005W        W27265  44.423   2.606   1.745
62006W        W27266  22.875  28.922   4.960
62007W        W27267  42.162  30.940   3.754
62008W        W27268  35.131   2.327  14.505
62009W        W27269  21.849  24.186  12.942
62010W        W27270  29.460   5.560   0.230
62011W        W27271   8.812  21.980   0.708
62012W        W27272  32.567  36.366   1.658
62013W        W27273  30.018  18.685   2.825
62014W        W27274  13.099   0.082  14.149
62015W        W27275   1.510  11.817  11.570
62016W        W27276  41.089  23.735  10.619
62017W        W27277  38.195  34.631   2.168
62018W        W27278  38.321  25.970  11.447
62019W        W27279   7.274  42.197  14.819
62020W        W27280   7.887  38.217   2.509
62021W        W27281  17.296   0.062   3.729
62022W        W27282  11.215   4.596  11.061
62023W        W27283  30.495  21.869   2.653
62024W        W27284  42.573  11.494   3.626
62025W        W27285  21.436  23.750   5.004
62026W        W27286  41.480  25.696   3.594
62027W        W27287  32.592  42.387  12.513
62028W        W27288  40.226  15.074  14.947
62029W        W27289  12.245  25.539  12.927
62030W        W27290  27.674  29.466  12.904
62031W        W27291  25.541  28.027  12.270
62032W        W27292  41.316  40.955   3.329
62033W        W27293  14.854  31.470  14.020
62034W        W27294   4.601  44.040  14.748
62035W        W27295  27.762  41.991   4.172
62036W        W27296  43.733  33.991   0.876
62037W        W27297  44.555  34.013   1.257
62038W        W27298  17.279  12.675  13.950
62039W        W27299  42.464  31.529   0.864
62040W        W27300   6.631   1.580  11.355
62041W        W27301  32.551  44.211  11.910
62042W        W27302  25.003  25.476  11.065
62043W        W27303  37.922  37.810   1.637
62044W        W27304  10.918  39.858   3.885
62045W        W27305  12.088   4.820   4.582
62046W        W27306  17.562  26.205  14.724
62047W        W27307  38.857  21.593   3.696
62048W        W27308  17.586  44.948  12.373
62049W        W27309  20.268  25.505   3.324
62050W        W27310  23.365  25.174   2.288
62051W        W27311  39.782  14.170   3.571
62052W        W27312  27.439  31.996   2.609
62053W        W27313  31.896  10.227  14.029
62054W        W27314  27.067  28.919   1.842
62055W        W27315  33.973  35.967   0.488
62056W        W27316  17.831  20.635  14.825
62057W        W27317  38.121  42.392  13.363
62058W        W27318  27.441  26.080   3.462
62059W        W27319   5.482  29.429  14.832
62060W        W27320  27.044  31.417  11.928
62061W        W27321  40.494  41.242  12.981
62062W        W27322  43.383  30.659  11.908
62063W        W27323  38.857   4.907  14.923
62064W        W27324  26.445   4.994   1.251
62065W        W27325   4.475  26.056   0.841
62066W        W27326   1.700  27.766   1.783
62067W        W27327  24.649   8.902  13.484
62068W        W27328   7.407  29.811   3.303
62069W        W27329  35.132   4.861  12.401
62070W        W27330  19.911  27.168   0.875
62071W        W27331  22.491  24.438   1.692
62072W        W27332   2.523  23.662  14.405
62073W        W27333   4.765  16.016   2.840
62074W        W27334  28.919  18.267  14.417
62075W        W27335   5.414  25.945   3.729
62076W        W27336   2.020  34.437   1.665
62077W        W27337  40.471   7.471   0.793
62078W        W27338   9.167  21.347   3.227
62079W        W27339   5.798  19.803   1.975
62080W        W27340  33.057  13.600   4.723
62081W        W27341   3.709  13.866   2.025
62082W        W27342  33.360   7.782   2.006
62083W        W27343  10.277   3.762  10.584
62084W        W27344  10.734  43.922  12.030
62085W        W27345  22.730   7.902  13.827
62086W        W27346  39.950  36.967  10.624
62087W        W27347  13.200   4.666  14.394
62088W        W27348   9.183  34.365   1.287
62089W        W27349  16.664  40.535   1.738
62090W        W27350  27.684  16.828  12.369
62091W        W27351  39.330  21.185  10.036
62092W        W27352  38.324   3.303   4.517
62093W        W27353   5.675   7.203  12.020
62094W        W27354   4.450  19.800  11.946
62095W        W27355  35.953   9.201   4.610
62096W        W27356  27.925  12.901   5.015
62097W        W27357  22.652  30.897  11.647
62098W        W27358  22.822  15.005  12.173
62099W        W27359  23.616   4.477   3.207
62100W        W27360  10.198  42.201   2.009
62101W        W27361  18.133  16.153   4.641
62102W        W27362  25.414  11.924  14.821
62103W        W27363   4.847  22.314   2.273
62104W        W27364  10.303  29.078   2.643
62105W        W27365  14.535  27.993  11.073
62106W        W27366  16.544  21.231  13.598
62107W        W27367  27.253  32.718  11.546
62108W        W27368  35.181  16.804  11.487
62109W        W27369   0.032   0.362   3.699
62110W        W27370   4.410  43.249   0.797
62111W        W27371  34.106  25.965   3.101
62112W        W27372  37.641  41.115  11.161
62113W        W27373  22.377  39.035  11.458
62114W        W27374  22.124  25.145   0.050
62115W        W27375  33.166  35.801   4.667
62116W        W27376  27.238  35.545  10.616
62117W        W27377  16.599  43.799   1.841
62118W        W27378  18.196  36.676  11.847
62119W        W27379  40.340   5.788  11.474
62120W        W27380  10.092   0.815   1.241
62121W        W27381  26.522  11.314   1.307
62122W        W27382   8.883  12.099   2.359
62123W        W27383  31.448  14.184  10.696
62124W        W27384   0.386  37.291  13.831
62125W        W27385  35.480  11.272  10.751
62126W        W27386  26.042  32.351  10.435
62127W        W27387  27.476  35.580  12.371
62128W        W27388  29.974  10.098  13.509
62129W        W27389  44.981  34.614   2.701
62130W        W27390  30.926  32.629  13.142
62131W        W27391  23.001  19.247   3.395
62132W        W27392  30.718  39.938   0.788
62133W        W27393  12.413   5.818   3.174
62134W        W27394   3.735  13.332   2.081
62135W        W27395  32.244   5.987  13.752
62136W        W27396  28.596  26.363  13.081
62137W        W27397  38.121  20.770  13.983
62138W        W27398   7.068   8.377  12.438
62139W        W27399  40.249  43.279  12.963
62140W        W27400  39.030  37.536  12.328
62141W        W27401  33.569   9.845  13.996
62142W        W27402  13.244  37.951   1.960
62143W        W27403  28.155   3.938  12.515
62144W        W27404  30.019  42.743   2.888
62145W        W27405   9.196  13.203  13.397
62146W        W27406  12.225  35.925   3.839
62147W        W27407  18.454   6.907  13.552
62148W        W27408  25.967  14.083   0.025
62149W        W27409   9.200  28.695  11.156
62150W        W27410  41.337  22.709   3.569
62151W        W27411  17.957  25.350   0.702
62152W        W27412  19.696  31.139  13.953
62153W        W27413  37.580  17.150   0.499
62154W        W27414   3.554  19.611  11.188
62155W        W27415   2.285  24.682   2.733
62156W        W27416  42.239  43.913  14.799
62157W        W27417  21.799  16.760   1.500
62158W        W27418  13.521  14.846  12.539
62159W        W27419  23.527  43.081   0.906
62160W        W27420  32.091  35.201  14.714
62161W        W27421  28.619  32.590   0.693
62162W        W27422  11.326   4.677   2.693
62163W        W27423  17.016  42.815   2.419
62164W        W27424  24.221  29.995   3.138
62165W        W27425  29.626   4.795   2.144
62166W        W27426  30.870  22.833   3.229
62167W        W27427  25.999   8.625  11.126
62168W        W27428  36.182  29.747  11.198
62169W        W27429  11.727  15.027   3.897
62170W        W27430  26.803  27.166   0.608
62171W        W27431  41.262  11.308   1.425
62172W        W27432  10.376  19.471  11.538
62173W        W27433  42.707  44.974  11.709
62174W        W27434  30.976  19.617  10.227
62175W        W27435  40.460  10.342  11.216
62176W        W27436  30.171  39.879   2.319
62177W        W27437   6.402  27.482  14.986
62178W        W27438  30.329  19.707  10.710
62179W        W27439  39.819  20.969  12.567
62180W        W27440   2.963  35.317   1.745
62181W        W27441  24.691  18.220  13.024
62182W        W27442  28.458  15.509   2.208
62183W        W27443  17.030  34.244  12.965
62184W        W27444  41.866  28.286   5.059
62185W        W27445  39.571  16.748  10.881
62186W        W27446  42.020  42.409   1.017
62187W        W27447  39.574  32.021  13.773
62188W        W27448  27.928  34.556  13.445
62189W        W27449  15.752   9.129   1.745
62190W        W27450  22.760  25.742  10.666
62191W        W27451   3.413   3.492   4.517
62192W        W27452   6.412  28.465  13.059
62193W        W27453  11.908   0.528  10.626
62194W        W27454  36.919  35.352  11.191
62195W        W27455   8.825  21.854   2.361
62196W        W27456  15.004  34.002  14.432
62197W        W27457  38.980  22.039   4.941
62198W        W27458  40.021  15.692  10.710
62199W        W27459   2.845   5.632   2.304
62200W        W27460   7.918  43.539   1.454
62201W        W27461  27.498   2.325   2.122
62202W        W27462  34.717  29.992   0.352
62203W        W27463  39.337   5.757  12.838
62204W        W27464  29.662   6.926  11.298
62205W        W27465  27.954  34.853  11.525
62206W        W27466  30.261  13.470   1.149
62207W        W27467  34.108  32.736  11.240
62208W        W27468  12.690   6.826  12.981
62209W        W27469  28.091  32.645  14.026
62210W        W27470  36.189  33.692  12.881
62211W        W27471  29.538  25.056   3.204
62212W        W27472   6.799  42.000  14.832
62213W        W27473  23.204   2.513   3.289
62214W        W27474  23.010  40.403   1.496
62215W        W27475  14.564  30.687  14.459
62216W        W27476   4.551  34.444   2.304
62217W        W27477  43.894  40.408   1.886
62218W        W27478  43.771  17.124  13.501
62219W        W27479  30.937  29.998  14.399
62220W        W27480  21.599  16.014  13.893
62221W        W27481  12.356  39.508  10.724
62222W        W27482   3.295  41.663   3.769
62223W        W27483  40.027  40.823   1.009
62224W        W27484   6.697  26.158   1.845
62225W        W27485   3.440  38.953  14.248
62226W        W27486  36.836   5.566   0.934
62227W        W27487  36.430   1.960   0.431
62228W        W27488  22.810   0.909  11.241
62229W        W27489  34.199   2.919  10.183
62230W        W27490  27.199  34.802  11.143
62231W        W27491   7.384  24.245   1.592
62232W        W27492  33.670   5.371  11.179
62233W        W27493  28.655   6.267  14.194
62234W        W27494  21.751  37.109  11.611
62235W        W27495  22.984  38.396  14.839
62236W        W27496   6.843  32.489   4.134
62237W        W27497  11.315  20.722   3.618
62238W        W27498  29.651  12.855  14.953
62239W        W27499  44.791  28.375  14.829
62240W        W27500   0.302  36.311  14.857
62241W        W27501  33.212  28.580  12.752
62242W        W27502   8.337  18.329  13.449
62243W        W27503  28.262   5.988  14.410
62244W        W27504  23.887   9.269   5.589
62245W        W27505  25.592  16.101  14.759
62246W        W27506   5.267  36.235   3.123
62247W        W27507  20.804  30.703   2.640
62248W        W27508  25.133  14.434  10.156
62249W        W27509  40.904  19.166   2.952
62250W        W27510  44.083  39.548   0.792
62251W        W27511  26.001  21.738   0.470
62252W        W27512   7.743  18.080  10.700
62253W        W27513   7.966  10.350   2.304
62254W        W27514  26.759  32.442   4.596
62255W        W27515  42.706  26.584  14.385
62256W        W27516  24.436  31.905   1.215
62257W        W27517  15.895   1.995   4.718
62258W        W27518  30.128   6.794  11.190
62259W        W27519  37.593  32.896   1.068
62260W        W27520  18.337  32.830  12.535
62261W        W27521   3.392  22.753   2.535
62262W        W27522  13.678  30.479   4.333
62263W        W27523  37.540  41.511  10.811
62264W        W27524  31.974  13.134  12.216
62265W        W27525   1.933  16.563   1.666
62266W        W27526  35.014  32.808   4.170
62267W        W27527   3.898  37.515   1.216
62268W        W27528  44.434  22.976   9.885
62269W        W27529  35.339  17.848   3.770
62270W        W27530  40.427  26.449   4.805
62271W        W27531  40.460   0.020   4.630
62272W        W27532  34.046  37.441   3.827
62273W        W27533  42.754   8.303  13.459
62274W        W27534  26.181  13.834  10.930
62275W        W27535  18.747  14.551   3.152
62276W        W27536   5.901  29.982  10.650
62277W        W27537  11.321  32.587   4.157
62278W        W27538  15.996   4.328  14.971
62279W        W27539   3.422  34.113   3.779
62280W        W27540   3.902  35.890  10.688
62281W        W27541  31.269  39.322  14.809
62282W        W27542   0.785  22.029   0.631
62283W        W27543  15.293   3.378   2.277
62284W        W27544  43.988  42.987   1.740
62285W        W27545  10.806  36.797   0.069
62286W        W27546  13.762  20.252  11.073
62287W        W27547  16.566  15.587  11.544
62288W        W27548   2.881  20.292   0.356
62289W        W27549  31.287  22.369  14.371
62290W        W27550   4.215  18.624   3.828
62291W        W27551  27.456   6.406  11.555
62292W        W27552  16.266  33.661   4.561
62293W        W27553   2.395  40.267  13.983
62294W        W27554  23.699   0.828  10.690
62295W        W27555  15.794  10.491   1.757
62296W        W27556   4.283  21.914   2.868
62297W        W27557   0.153   2.768  14.697
62298W        W27558  30.540   3.169  13.884
62299W        W27559  41.433  22.769   4.599
62300W        W27560  27.076   6.464   0.629
62301W        W27561  10.631  17.459  12.528
62302W        W27562   9.748   1.003   2.179
62303W        W27563  40.910  30.991  10.456
62304W        W27564   0.432  36.317  11.974
62305W        W27565  15.614  26.562   3.491
62306W        W27566  37.432  13.727  13.989
62307W        W27567  36.254   6.738   0.743
62308W        W27568   9.899  37.928   4.183
62309W        W27569  43.971  36.945   4.519
62310W        W27570  40.870   7.028  13.732
62311W        W27571   2.822  40.806   4.114
62312W        W27572  25.665  44.745   3.594
62313W        W27573   7.774   5.622   1.687
62314W        W27574  41.574   3.968  11.585
62315W        W27575  34.583  32.498   2.811
62316W        W27576  13.548   0.714  14.496
62317W        W27577  19.789   3.208  11.961
62318W        W27578  36.357  40.395   3.135
62319W        W27579  29.465  17.659  14.516
62320W        W27580  35.991  13.299  12.108
62321W        W27581  36.823  18.699   4.699
62322W        W27582  25.035  24.188  12.667
62323W        W27583   3.258   6.591   0.987
62324W        W27584  15.392  34.949  14.354
62325W        W27585  36.221  15.081   2.001
62326W        W27586  22.983  25.709  12.370
62327W        W27587  27.145   0.709   3.594
62328W        W27588   1.410  23.284  13.812
62329W        W27589  20.523   8.979  12.113
62330W        W27590  11.895   1.798   3.034
62331W        W27591  27.909   0.934   5.125
62332W        W27592  11.313  23.198   1.763
62333W        W27593  32.485  10.966  14.880
62334W        W27594   6.668  20.599  14.044
62335W        W27595  19.739  19.075   4.034
62336W        W27596  41.781   1.744  12.488
62337W        W27597  14.896  25.063  14.999
62338W        W27598  28.542  11.549  12.464
62339W        W27599  42.656  22.414   3.719
62340W        W27600  14.604  21.033  11.452
62341W        W27601   1.058  33.108   0.840
62342W        W27602  32.445  21.744   0.461
62343W        W27603  41.951  28.176  10.705
62344W        W27604  13.936  42.255  12.096
62345W        W27605  14.171  14.876   3.104
62346W        W27606  27.896  16.358  13.351
62347W        W27607  25.551  21.069   2.220
62348W        W27608  43.768  30.502  14.589
62349W        W27609  17.204   5.248  10.266
62350W        W27610  35.294  24.402  13.363
62351W        W27611  34.874   9.358   1.194
62352W        W27612  40.721  13.681   3.744
62353W        W27613   2.341   5.342  10.848
62354W        W27614   0.679  27.250   4.454
62355W        W27615  37.876  16.016   2.889
62356W        W27616  19.832  26.227  12.849
62357W        W27617  18.352  13.312  14.363
62358W        W27618  22.582  25.201   5.396
62359W        W27619  38.291  33.106  12.378
62360W        W27620  27.044  38.469  10.995
62361W        W27621  11.618   8.047  14.113
62362W        W27622   6.271   2.916  13.341
62363W        W27623   7.386  29.881   3.822
62364W        W27624  19.519   7.306   3.229
62365W        W27625  20.814  41.935  10.725
62366W        W27626  38.487  21.048  11.453
62367W        W27627  25.592  32.132   2.149
62368W        W27628  24.095  31.968   3.890
62369W        W27629  12.158  33.014   1.435
62370W        W27630   8.393  39.387  14.010
62371W        W27631   2.375  23.465  10.276
62372W        W27632   2.959   0.785  14.469
62373W        W27633   5.219  27.573  11.600
62374W        W27634  41.913  29.019   0.893
62375W        W27635  14.370  18.550   2.348
62376W        W27636   3.510   5.919  12.605
62377W        W27637  10.665  21.234   3.133
62378W        W27638  42.639  12.882   5.138
62379W        W27639  25.238  23.711  12.571
62380W        W27640  10.854  10.569  14.084
62381W        W27641  12.347  41.709   0.523
62382W        W27642  34.128  33.249  11.146
62383W        W27643   2.371  37.020   1.249
62384W        W27644   1.409  17.105   1.909
62385W        W27645   7.218  37.046   3.153
62386W        W27646  32.912  22.128   2.333
62387W        W27647  28.746  15.837  14.834
62388W        W27648  43.568   7.852  13.164
62389W        W27649   5.497  13.947  13.447
62390W        W27650  12.317  29.956  14.903
62391W        W27651   4.761  41.015   4.509
62392W        W27652  11.053  27.226  13.748
62393W        W27653  27.133  12.084   0.076
62394W        W27654  35.361  26.905   1.781
62395W        W27655  43.971   4.090  13.972
62396W        W27656  24.401  31.490   1.929
62397W        W27657  14.451   4.611   4.595
62398W        W27658   5.184   3.153  11.096
62399W        W27659   5.574   1.073   1.304
62400W        W27660   8.838  28.651  12.496
62401W        W27661  36.523  15.105   0.117
62402W        W27662  32.548  44.835   0.214
62403W        W27663  20.808  41.619  12.259
62404W        W27664  29.220  32.509  12.114
62405W        W27665  24.109  39.864  14.943
62406W        W27666  37.311  35.513   4.168
62407W        W27667   5.512  37.875   2.244
62408W        W27668  26.891   9.392  13.954
62409W        W27669   9.244   9.406   2.877
62410W        W27670  17.025  31.962  10.335
62411W        W27671   3.315  21.286  14.722
62412W        W27672  12.813  12.090  11.907
62413W        W27673  17.338  43.797  13.464
62414W        W27674  26.232   4.888  11.074
62415W        W27675  28.885  39.386  13.705
62416W        W27676  34.081  11.529   4.264
62417W        W27677  33.014  18.622   2.436
62418W        W27678  33.048  30.675   1.260
62419W        W27679  43.454  30.070   4.571
62420W        W27680  30.844  24.461  13.922
62421W        W27681  22.064  34.941  13.925
62422W        W27682  23.209   8.929  12.248
62423W        W27683   6.515  30.648   2.218
62424W        W27684  26.137  40.366  14.794
62425W        W27685  27.017  23.089   3.617
62426W        W27686  29.478  42.797  11.116
62427W        W27687  22.547  24.705   3.138
62428W        W27688  21.763  21.030   0.910
62429W        W27689  42.399   9.725   3.775
62430W        W27690  21.685   1.699   2.358
62431W        W27691   5.201  13.862   1.216
62432W        W27692  35.917  38.863  12.943
62433W        W27693  22.267   4.034   3.153
62434W        W27694  24.031  24.577   0.769
62435W        W27695   5.811  37.094  13.014
62436W        W27696  14.833  28.918   0.910
62437W        W27697  28.435  42.047  13.865
62438W        W27698  15.110  25.130  12.045
62439W        W27699  25.709  21.100  12.044
62440W        W27700  43.434  25.598  14.867
62441W        W27701  25.519  41.540  14.784
62442W        W27702  33.913   0.385   3.285
62443W        W27703  15.823  28.367  13.391
62444W        W27704  37.499   3.746  11.754
62445W        W27705  19.086   0.548   4.751
62446W        W27706   3.724  30.087   3.916
62447W        W27707   8.956  27.647   2.885
62448W        W27708  42.928  16.860   0.404
62449W        W27709  16.641  20.808  13.919
62450W        W27710  24.634   8.990   4.642
62451W        W27711   2.589  29.028  12.063
62452W        W27712  36.468  26.168   4.564
62453W        W27713   4.820  36.046  11.226
62454W        W27714  31.904   0.445  10.747
62455W        W27715  35.936  22.271  11.617
62456W        W27716  10.237   8.605   0.576
62457W        W27717   0.539  33.404   2.996
62458W        W27718  35.011  13.419   4.109
62459W        W27719  43.167  39.547   3.719
62460W        W27720  43.739  13.404  12.106
62461W        W27721  35.020  15.219   1.446
62462W        W27722  42.973  11.706   0.233
62463W        W27723  41.990  27.731  13.975
62464W        W27724  12.387  11.572   4.115
62465W        W27725  19.793  37.374  13.007
62466W        W27726  15.159  18.124   3.561
62467W        W27727  26.621   2.234   1.707
62468W        W27728  10.216  20.065  10.946
62469W        W27729  42.075   9.278  10.665
62470W        W27730   2.435  14.583  11.066
62471W        W27731  41.018  19.634   0.466
62472W        W27732  26.172  27.522  11.509
62473W        W27733   8.869  21.175  12.010
62474W        W27734  42.548  26.635  11.495
62475W        W27735  10.707  40.330   4.105
62476W        W27736  29.092  13.804   0.431
62477W        W27737  20.342  34.287   2.636
62478W        W27738  41.743  44.843  10.508
62479W        W27739  22.864  31.447   0.486
62480W        W27740  21.486  11.636  14.885
62481W        W27741  30.315  25.137   9.862
62482W        W27742  15.606   9.370  12.511
62483W        W27743  41.339   2.699  13.349
62484W        W27744  24.988   5.959   1.454
62485W        W27745  40.570  39.966  11.465
62486W        W27746  11.102   2.668   2.290
62487W        W27747  42.693   2.321   4.014
62488W        W27748  17.104  25.753  11.465
62489W        W27749  24.949  35.862  14.086
62490W        W27750  43.317  40.068  11.009
62491W        W27751  10.917  42.713  12.932
62492W        W27752  35.436  23.025   3.571
62493W        W27753  14.165   8.633   2.052
62494W        W27754  39.523   6.670   1.259
62495W        W27755  30.622  12.159   2.497
62496W        W27756   5.129  43.256  14.346
62497W        W27757  17.033  26.008  12.067
62498W        W27758  37.532   7.715  13.401
62499W        W27759  17.046  38.528  12.979
62500W        W27760  22.208   6.978   0.506
62501W        W27761  30.426  22.096  14.293
62502W        W27762   5.746  29.402   4.173
62503W        W27763  21.628  41.962  11.178
62504W        W27764  29.142  15.137  14.307
62505W        W27765  42.266   1.678  14.052
62506W        W27766  15.247  43.595   4.052
62507W        W27767  16.618  29.045  13.510
62508W        W27768  36.312  25.806  12.462
62509W        W27769  36.486  25.482  13.063
62510W        W27770  29.101  23.084  14.802
62511W        W27771   1.843  16.613   0.275
62512W        W27772  27.717  28.987  14.862
62513W        W27773   9.242  17.601   1.459
62514W        W27774  21.055  11.784  12.097
62515W        W27775  22.284  24.448  12.914
62516W        W27776  17.632  12.486   4.034
62517W        W27777  29.142  37.502  11.761
62518W        W27778  42.812  16.610  13.296
62519W        W27779   5.474  19.472   1.751
62520W        W27780   1.174  13.702   3.925
62521W        W27781  15.105   3.623  11.559
62522W        W27782  25.425  10.177   3.637
62523W        W27783  29.471   2.848  11.150
62524W        W27784  44.764  13.890   1.405
62525W        W27785   0.687   8.570   5.315
62526W        W27786  22.660  11.665   1.767
62527W        W27787   3.540  15.106  10.963
62528W        W27788  27.364   3.473  11.641
62529W        W27789  19.172  21.246  14.909
62530W        W27790  40.418   0.352  13.062
62531W        W27791  19.446  23.504   0.140
62532W        W27792  15.277  23.212   4.854
62533W        W27793  38.477  18.804  13.062
62534W        W27794  35.884   3.778  14.224
62535W        W27795  17.767  39.940  12.507
62536W        W27796  35.655  15.539  11.279
62537W        W27797  17.642  18.446  13.030
62538W        W27798  40.503  31.091   2.768
62539W        W27799  10.857  25.774   3.565
62540W        W27800   1.063  34.405  14.403
62541W        W27801  37.777  13.668  10.767
62542W        W27802  43.271  39.416  12.561
62543W        W27803   3.253  34.828  10.871
62544W        W27804  29.085  10.270   0.465
62545W        W27805  27.039  10.227  11.110
62546W        W27806  31.353  40.119  11.854
62547W        W27807   2.774  31.469   4.716
62548W        W27808  41.252  10.092   4.202
62549W        W27809  33.115  28.697  13.277
62550W        W27810  23.547  23.806   1.868
62551W        W27811  44.071  31.601  12.575
62552W        W27812  17.830  22.350   0.384
62553W        W27813  41.838  23.997   0.728
62554W        W27814   3.928  25.032  10.434
62555W        W27815  19.943  38.528   3.301
62556W        W27816   9.736  24.095  13.034
62557W        W27817   4.237   1.237   3.161
62558W        W27818  31.755  22.769   0.445
62559W        W27819  21.271  22.811  13.785
62560W        W27820   4.902  21.799   0.150
62561W        W27821  22.194  25.566  11.991
62562W        W27822  36.840   9.184   4.703
62563W        W27823  41.393  36.904  12.508
62564W        W27824  31.595  14.886  14.281
62565W        W27825  29.057  43.678   2.381
62566W        W27826   6.176  25.577  11.451
62567W        W27827  23.451  27.894   4.090
62568W        W27828   2.335  41.713  12.856
62569W        W27829   8.202  28.450  13.026
62570W        W27830  16.208  25.616  14.322
62571W        W27831  17.675  18.263   3.891
62572W        W27832  21.823  15.607  14.092
62573W        W27833  23.138  22.970  12.860
62574W        W27834  31.871  41.865   1.350
62575W        W27835  18.540  41.011   3.426
62576W        W27836  39.811  41.279   4.588
62577W        W27837  17.957  33.529  11.549
62578W        W27838   1.303   7.336  14.464
62579W        W27839   4.221  27.577  10.749
62580W        W27840  18.915  26.196   5.061
62581W        W27841  24.188  42.444   4.182
62582W        W27842  40.305  20.186   4.376
62583W        W27843  23.512  25.707   0.803
62584W        W27844  40.340  13.061  10.685
62585W        W27845  15.064  30.295  12.029
62586W        W27846   1.242   1.936  12.326
62587W        W27847  42.412  36.076  12.560
62588W        W27848   9.661  42.888  12.026
62589W        W27849  33.413  12.852  11.253
62590W        W27850  30.058   5.460  13.980
62591W        W27851   0.295  15.888  10.720
62592W        W27852  30.016   5.365  12.016
62593W        W27853  26.750  15.136   3.380
62594W        W27854   6.294   9.033   3.121
62595W        W27855   8.682  13.032  13.372
62596W        W27856  24.895  36.836   2.809
62597W        W27857  35.142  25.395  13.839
62598W        W27858  16.665  40.804   2.218
62599W        W27859   4.844  41.555  12.392
62600W        W27860  22.114  40.013  11.105
62601W        W27861   9.161  36.413  11.030
62602W        W27862  21.150  15.491   3.301
62603W        W27863   3.549  21.280   4.153
62604W        W27864  11.667  13.514  11.440
62605W        W27865  26.924  28.792   0.004
62606W        W27866  32.459   2.406   0.245
62607W        W27867  27.196  18.495   1.299
62608W        W27868  16.407  20.189   3.078
62609W        W27869  29.701  29.989  10.866
62610W        W27870  42.994   3.784  12.005
62611W        W27871   1.335   1.020  12.440
62612W        W27872   7.223  29.119   0.769
62613W        W27873  15.798  30.467   3.293
62614W        W27874   9.663  34.901   3.285
62615W        W27875  22.523  18.549   0.786
62616W        W27876  39.523   3.177   4.212
62617W        W27877  33.759   9.711   1.635
62618W        W27878  43.643  22.088   1.724
62619W        W27879  26.001  42.072   0.445
62620W        W27880  22.506  21.571  12.498
62621W        W27881  31.725   9.712   0.810
62622W        W27882  13.191  24.131  10.673
62623W        W27883  10.659   0.489   9.885
62624W        W27884  28.991  29.898   1.471
62625W        W27885  30.524  10.394  13.908
62626W        W27886  42.506  37.466   4.610
62627W        W27887  29.423   7.939   3.253
62628W        W27888  27.656  25.518   3.670
62629W        W27889  32.488  44.813   0.740
62630W        W27890  29.594  23.599   2.632
62631W        W27891  29.141   2.485   1.143
62632W        W27892   4.234  42.307  14.804
62633W        W27893   2.228  12.576   3.702
62634W        W27894   9.904  24.988  13.787
62635W        W27895  18.282  37.435   1.007
62636W        W27896  35.616  19.747   1.809
62637W        W27897  18.098  31.630   4.514
62638W        W27898  18.522  12.869  11.674
62639W        W27899  26.968   4.594   0.398
62640W        W27900  31.980   8.490  10.710
62641W        W27901   6.759  39.160  13.966
62642W        W27902  26.170  25.899  10.545
62643W        W27903  23.072  26.591  13.873
62644W        W27904   9.357   5.185   2.697
62645W        W27905  38.248  32.459  11.886
62646W        W27906  15.328  18.299   0.190
62647W        W27907  32.099  44.266  14.614
62648W        W27908  43.173  12.118  14.945
62649W        W27909  41.361   0.760  12.810
62650W        W27910  13.727  39.249  10.724
62651W        W27911   6.228  32.424   1.823
62652W        W27912  39.057  21.140  12.937
62653W        W27913  33.898  31.941   0.890
62654W        W27914  35.736  33.487   5.050
62655W        W27915  18.537  28.923  14.898
62656W        W27916   8.790  38.374   3.319
62657W        W27917  22.588   0.720  14.976
62658W        W27918  34.149   5.286   1.371
62659W        W27919   4.131  31.936   3.197
62660W        W27920  23.224  29.418  14.816
62661W        W27921  16.279  27.291  13.958
62662W        W27922  30.681  44.822   3.721
62663W        W27923  21.407  23.190  11.212
62664W        W27924   1.879  43.818  10.724
62665W        W27925  21.736   1.661   4.587
62666W        W27926   9.589  31.805  12.477
62667W        W27927  36.933  38.649   0.674
62668W        W27928  33.768  29.063  11.811
62669W        W27929  32.610   1.320   3.126
62670W        W27930  30.472   8.948   0.837
62671W        W27931  43.875  19.280   1.625
62672W        W27932  24.572  28.694   0.410
62673W        W27933   5.402  10.238   0.219
62674W        W27934  38.340  44.541  14.999
62675W        W27935   3.232  17.040  11.153
62676W        W27936  24.138   7.400   2.162
62677W        W27937   9.450  15.117   2.794
62678W        W27938  37.670   1.013  13.974
62679W        W27939   2.423   1.065  11.980
62680W        W27940  26.039   9.424  14.051
62681W        W27941  33.507  40.231   4.360
62682W        W27942  22.779  32.565   3.139
62683W        W27943  10.221  10.853   2.888
62684W        W27944  16.407  43.551   0.646
62685W        W27945  18.027   2.339   1.443
62686W        W27946   8.829  38.090   2.843
62687W        W27947   1.908   5.114  13.048
62688W        W27948   8.347  28.615   3.310
62689W        W27949  32.896  39.618   2.402
62690W        W27950  19.204  30.624  13.010
62691W        W27951  15.117  44.901  13.465
62692W        W27952  28.138  32.500   0.906
62693W        W27953  12.536  13.385  14.694
62694W        W27954  31.691  27.103   2.353
62695W        W27955  31.710  43.092   2.831
62696W        W27956  34.974  41.775  11.171
62697W        W27957  32.484  33.836   3.461
62698W        W27958  37.269  32.905  12.836
62699W        W27959  11.288  24.941  11.664
62700W        W27960   4.960  26.575  10.427
62701W        W27961  13.626  40.375  14.944
62702W        W27962   1.792  33.923  13.570
62703W        W27963  22.546   3.647   1.862
62704W        W27964   6.338  42.908   0.947
62705W        W27965   8.666  25.140  13.252
62706W        W27966  32.703  35.601   2.619
62707W        W27967  15.204  13.225   4.399
62708W        W27968  25.690   9.442  12.661
62709W        W27969  43.370  33.973  11.428
62710W        W27970  39.394  23.646  11.273
62711W        W27971   7.314   7.873  13.096
62712W        W27972  44.891   5.314   4.240
62713W        W27973  37.889   4.918   4.803
62714W        W27974  30.120  39.757   2.844
62715W        W27975  34.632  20.856  12.051
62716W        W27976  29.307  37.872   3.971
62717W        W27977   6.244  24.575  11.463
62718W        W27978  21.152  14.049  14.775
62719W        W27979  44.483  21.684   2.755
62720W        W27980  23.662   4.206   3.664
62721W        W27981  31.600  16.164   4.642
62722W        W27982  37.796  35.620   4.155
62723W        W27983  44.249   0.563   2.383
62724W        W27984   4.361   7.367   1.308
62725W        W27985  29.617  10.638  14.779
62726W        W27986  38.971  40.685   2.290
62727W        W27987  20.305  37.346  13.024
62728W        W27988  20.096  23.347   1.941
62729W        W27989  36.103   9.628   4.342
62730W        W27990  27.443  12.763   3.857
62731W        W27991  11.715   3.696  10.928
62732W        W27992  16.125   7.779   2.693
62733W        W27993  41.361  35.046  11.998
62734W        W27994  42.640  32.621   1.185
62735W        W27995  44.241   0.206  14.937
62736W        W27996  26.919   7.704  10.242
62737W        W27997   6.327  39.628   1.194
62738W        W27998  19.611  33.637   0.417
62739W        W27999   2.466  41.469  13.288
62740W        W28000  36.088   9.725   1.413
62741W        W28001  13.485   8.446  14.043
62742W        W28002  20.108  38.813   2.468
62743W        W28003  33.135  14.277   2.382
62744W        W28004   1.806  11.205  10.644
62745W        W28005  37.510   5.305   3.791
62746W        W28006  38.552   4.865   3.198
62747W        W28007  34.321  18.650   1.759
62748W        W28008  22.590  25.259  10.539
62749W        W28009  25.249   1.390   0.875
62750W        W28010   7.615  23.072   1.260
62751W        W28011  34.833   0.830   1.895
62752W        W28012   4.721   1.078   3.697
62753W        W28013   3.794   1.777   0.387
62754W        W28014  30.483  24.947  12.950
62755W        W28015  23.270  37.350  12.598
62756W        W28016  32.044   0.851   2.348
62757W        W28017  37.803  20.487  13.533
62758W        W28018  33.443   9.729  12.012
62759W        W28019  11.885  13.052   2.491
62760W        W28020  25.971  24.713   1.387
62761W        W28021  26.122   5.230  12.592
62762W        W28022  38.834   2.712   0.998
62763W        W28023  35.899   7.936   1.316
62764W        W28024   1.315   1.954  14.528
62765W        W28025  41.989  28.780   1.420
62766W        W28026  33.129  31.903   4.143
62767W        W28027  39.610  43.413  10.981
62768W        W28028   0.818  23.418  14.582
62769W        W28029  42.993  18.890  13.387
62770W        W28030   1.310   3.324  13.897
62771W        W28031  28.768  33.927   0.960
62772W        W28032   0.361   9.621  11.513
62773W        W28033   7.870  23.304   3.416
62774W        W28034  16.240  12.149   1.181
62775W        W28035  17.835  38.342   0.722
62776W        W28036  27.595  40.633   3.009
62777W        W28037  21.829  42.359   0.053
62778W        W28038  26.773   1.018  14.463
62779W        W28039  42.419  29.678   2.721
62780W        W28040  25.557  39.547   3.748
62781W        W28041  39.580  10.300   4.881
62782W        W28042  15.813  12.989   5.055
62783W        W28043  10.801  26.473   1.330
62784W        W28044   3.946  14.237  14.967
62785W        W28045  12.391   1.949   3.961
62786W        W28046  44.965   8.154   9.833
62787W        W28047  39.585  23.733  14.738
62788W        W28048  21.280  41.461  12.411
62789W        W28049  12.258  40.434  12.045
62790W        W28050  16.056  10.108   1.535
62791W        W28051  27.612  23.961  10.650
62792W        W28052  39.833  30.409  14.446
62793W        W28053  22.684  21.580   3.153
62794W        W28054  38.370  44.184   4.100
62795W        W28055  22.052   0.929   2.106
62796W        W28056  38.220  17.748  14.353
62797W        W28057  21.212   9.306  14.354
62798W        W28058   7.315  40.215   4.832
62799W        W28059  37.720   4.297  11.094
62800W        W28060  38.714  38.297  14.609
62801W        W28061  26.656  37.569   2.845
62802W        W28062  14.852   2.030  13.473
62803W        W28063  15.187  38.131  12.799
62804W        W28064  24.518  15.316  10.631
62805W        W28065  26.144   8.697   4.637
62806W        W28066  24.726   8.930  11.006
62807W        W28067   6.828   8.705  13.052
62808W        W28068  36.453  15.609   1.782
62809W        W28069   4.742  38.058  13.661
62810W        W28070  40.444  10.556   5.183
62811W        W28071  28.027  39.566   1.801
62812W        W28072  13.277  20.684  11.555
62813W        W28073   0.443  28.231   3.828
62814W        W28074  40.726  44.437  11.335
62815W        W28075  30.607  38.975  13.864
62816W        W28076   3.809  26.207   0.891
62817W        W28077  22.882  12.578  11.302
62818W        W28078  42.561  11.561   2.832
62819W        W28079  31.497  18.211   4.389
62820W        W28080  44.478  43.807   3.425
62821W        W28081  23.475   8.692   0.876
62822W        W28082   0.500  15.816  13.861
62823W        W28083   2.289  21.302  10.738
62824W        W28084   3.488  36.593  11.105
62825W        W28085   0.555   6.691  12.039
62826W        W28086  27.261   4.580   5.784
62827W        W28087  37.446  25.503  12.331
62828W        W28088  41.746  37.985   0.549
62829W        W28089   3.665   0.483   3.143
62830W        W28090  12.263   3.631   4.113
62831W        W28091  10.880  32.899   4.168
62832W        W28092   3.898  38.511   3.666
62833W        W28093  38.529   2.968   2.268
62834W        W28094  17.834  25.233  13.590
62835W        W28095   5.860  26.480   0.354
62836W        W28096  28.596  37.343   0.009
62837W        W28097  29.572   6.137  14.359
62838W        W28098  11.926   6.337  13.880
62839W        W28099  19.514   8.080  12.413
62840W        W28100  27.846   5.178  13.332
62841W        W28101  12.828  33.109   3.446
62842W        W28102  21.045  25.556   4.128
62843W        W28103   2.259   4.490   2.874
62844W        W28104  13.183   9.266  11.162
62845W        W28105  10.362  41.944   4.726
62846W        W28106  32.530  32.044  14.241
62847W        W28107  37.410  31.607  13.316
62848W        W28108   6.556   0.715  13.044
62849W        W28109  14.414  22.106   1.344
62850W        W28110   9.732  35.963  10.430
62851W        W28111  28.677   5.809  13.944
62852W        W28112   0.945  35.835   2.282
62853W        W28113  22.991   2.763  12.910
62854W        W28114  41.176  11.830   3.302
62855W        W28115  29.495  39.843   1.410
62856W        W28116  18.816   7.288  13.491
62857W        W28117  40.377  16.802  11.109
62858W        W28118  14.847  39.220   0.351
62859W        W28119  39.873  15.016   4.198
62860W        W28120  26.799  37.481  10.987
62861W        W28121   3.382  28.626   1.268
62862W        W28122  24.564   9.116   0.913
62863W        W28123  27.675  16.965  11.050
62864W        W28124  21.260  37.333   2.551
62865W        W28125  19.775  16.235  13.493
62866W        W28126  22.607  42.757  12.996
62867W        W28127  24.168  11.149   0.298
62868W        W28128  15.368  20.578   0.878
62869W        W28129   4.102   2.204   4.483
62870W        W28130  44.024  34.385   4.302
62871W        W28131  32.100  38.571  13.856
62872W        W28132  38.542  16.258  13.322
62873W        W28133  36.402  14.718  10.759
62874W        W28134  30.718  18.204   1.687
62875W        W28135   0.182  22.651   4.464
62876W        W28136  42.555  43.560  14.102
62877W        W28137  18.035  33.964  12.729
62878W        W28138  39.356  13.844  12.921
62879W        W28139  24.162   0.750  14.319
62880W        W28140   1.138  37.010  10.984
62881W        W28141  13.742   2.406   0.993
62882W        W28142  23.517  21.771   3.050
62883W        W28143  40.374  25.452   4.402
62884W        W28144  33.116  27.408   1.345
62885W        W28145  27.547  39.123  12.061
62886W        W28146  25.012  13.151  13.840
62887W        W28147  35.026  30.439   1.734
62888W        W28148   2.825  24.242   0.269
62889W        W28149  40.010  25.007   0.878
62890W        W28150   1.031  26.583  13.979
62891W        W28151  42.819  39.266   0.425
62892W        W28152  22.738  38.981   1.168
62893W        W28153  35.892  14.117   3.914
62894W        W28154   8.796  13.839   3.866
62895W        W28155  36.862  33.415  13.438
62896W        W28156  37.191  37.814  10.885
62897W        W28157  43.221  35.511   1.444
62898W        W28158  26.709  38.612   2.794
62899W        W28159  14.548  44.624  14.350
62900W        W28160  35.321  31.163   4.597
62901W        W28161  19.721  20.320  13.916
62902W        W28162   1.319  43.842   4.862
62903W        W28163  20.382  17.483   3.955
62904W        W28164  23.678  20.324   3.869
62905W        W28165   0.573  31.065  14.389
62906W        W28166  21.043   4.947   5.048
62907W        W28167  41.372  31.933   1.460
62908W        W28168  43.494  44.589  14.966
62909W        W28169  38.933  26.359   0.282
62910W        W28170  33.274  19.543  12.824
62911W        W28171  43.565   7.508   4.912
62912W        W28172   7.441  29.441  13.019
62913W        W28173  16.076  22.626  13.539
62914W        W28174   4.253   4.598  10.677
62915W        W28175  21.586  19.806   5.032
62916W        W28176  11.884  42.977   4.552
62917W        W28177  24.026  33.018   2.763
62918W        W28178  27.685  42.952   1.376
62919W        W28179  42.253   1.287  10.986
62920W        W28180  37.627  25.658  11.868
62921W        W28181  31.166  20.811  11.607
62922W        W28182  35.796  40.864  11.444
62923W        W28183  28.889  16.140  11.542
62924W        W28184  12.280  31.994   1.664
62925W        W28185   2.385  10.628   4.643
62926W        W28186  36.875   3.120  12.376
62927W        W28187   1.942  28.745   1.318
62928W        W28188  37.625  33.137  14.465
62929W        W28189  32.971  30.334  14.463
62930W        W28190  44.768  12.167  11.559
62931W        W28191  12.224  31.624   4.823
62932W        W28192   2.818  43.908   0.824
62933W        W28193  36.675  23.227  14.392
62934W        W28194  14.352  42.970   4.622
62935W        W28195  37.771  18.688   5.045
62936W        W28196  27.463  43.583   3.044
62937W        W28197   8.168  29.763  11.128
62938W        W28198   4.885  10.147  12.081
62939W        W28199  21.325  25.234   5.004
62940W        W28200  13.251  42.334  12.329
62941W        W28201   8.095  36.595  14.065
62942W        W28202  17.132  17.579   0.538
62943W        W28203  20.564  25.811  11.121
62944W        W28204   1.305  21.098  12.552
62945W        W28205  42.328  16.123   3.441
62946W        W28206  24.324  38.560  10.661
62947W        W28207  11.537  14.515  13.618
62948W        W28208  38.899  10.403   2.856
62949W        W28209   2.922  16.243   4.957
62950W        W28210  17.614  35.093   1.912
62951W        W28211   7.893  34.641   3.264
62952W        W28212  27.891  19.193  11.942
62953W        W28213  11.379  42.575   4.119
62954W        W28214  43.390   2.390   3.356
62955W        W28215  12.270  14.789   1.951
62956W        W28216  29.562  19.051  13.492
62957W        W28217   8.777  18.252  10.568
62958W        W28218  30.943  22.033  14.186
62959W        W28219  26.612  19.096   1.055
62960W        W28220   8.865  33.802  12.096
62961W        W28221   0.694  10.226  11.111
62962W        W28222  22.663  15.255   0.855
62963W        W28223  37.643  18.029  14.319
62964W        W28224  26.536   8.356   0.290
62965W        W28225  11.594  30.629  13.818
62966W        W28226  32.672  26.261   0.259
62967W        W28227  11.651  22.110   4.652
62968W        W28228   8.977  32.441  12.615
62969W        W28229   5.103  30.114  11.065
62970W        W28230  12.397  30.798   2.434
62971W        W28231  19.738  36.917  14.938
62972W        W28232  41.535  32.227  10.701
62973W        W28233   0.919  43.209   3.714
62974W        W28234  35.032  38.035   1.924
62975W        W28235   2.532  12.184  12.953
62976W        W28236   1.851   8.149  10.740
62977W        W28237  26.129  13.760  11.432
62978W        W28238  44.807  37.270  11.080
62979W        W28239  35.441  24.781   5.497
62980W        W28240  15.075  37.984  13.697
62981W        W28241  36.268  22.663   1.304
62982W        W28242  13.582  39.266   1.127
62983W        W28243   4.148  44.856  13.920
62984W        W28244  25.472  29.041  11.626
62985W        W28245   0.870   2.385  12.819
62986W        W28246  40.966  36.180  14.910
62987W        W28247  18.666  30.160   2.348
62988W        W28248  38.884  30.444  10.177
62989W        W28249  20.272  29.286  10.335
62990W        W28250  24.878  15.053   1.016
62991W        W28251  40.513  44.760  13.042
62992W        W28252  10.377  42.299   3.233
62993W        W28253   3.087   4.260   2.327
62994W        W28254   5.436  11.729  12.621
62995W        W28255  24.663  34.025   3.772
62996W        W28256  32.374   9.637   0.457
62997W        W28257  17.796   9.768   1.821
62998W        W28258  15.340  24.227   1.855
62999W        W28259   4.972   5.450  11.360
63000W        W28260  29.537  20.205   1.433
63001W        W28261   0.844  26.875   4.119
63002W        W28262  27.038   0.919   0.647
63003W        W28263  23.930  29.633   1.353
63004W        W28264  33.286  15.171  13.042
63005W        W28265  21.241  19.669   2.117
63006W        W28266  22.853   9.800   4.567
63007W        W28267  14.201  15.546   1.242
63008W        W28268  15.630  15.807  13.388
63009W        W28269   9.805   0.882   0.810
63010W        W28270  30.567  41.942   4.303
63011W        W28271   4.673  15.771  10.753
63012W        W28272  10.955  24.733   0.006
63013W        W28273  13.824  31.867  14.333
63014W        W28274   3.380  10.364   2.744
63015W        W28275  38.003  35.089  13.996
63016W        W28276   4.207  42.869   3.832
63017W        W28277  32.378  39.290  12.035
63018W        W28278  24.130  23.612  11.314
63019W        W28279  29.596  40.342  12.761
63020W        W28280  22.629  27.018   3.824
63021W        W28281  37.753  19.571  11.322
63022W        W28282  26.034  32.747   1.021
63023W        W28283   3.458  27.653  11.196
63024W        W28284  12.560  21.633  10.879
63025W        W28285   9.687  43.478   1.533
63026W        W28286  36.093   9.595  13.593
63027W        W28287  27.202  17.626  12.074
63028W        W28288  39.962  43.374  10.601
63029W        W28289  37.829  17.626   4.494
63030W        W28290  39.348  21.337   0.960
63031W        W28291   4.110   5.481   2.733
63032W        W28292   0.237   1.007  10.867
63033W        W28293  23.439  14.382  11.202
63034W        W28294  25.909  11.563  11.920
63035W        W28295  14.742  23.616   2.422
63036W        W28296   2.411  26.627   0.246
63037W        W28297  13.651  26.979  11.324
63038W        W28298  28.712  17.650  10.307
63039W        W28299  38.617  14.276   4.135
63040W        W28300  41.404   4.623  12.524
63041W        W28301  11.603  22.506   2.446
63042W        W28302  24.692  31.856   2.165
63043W        W28303  11.076  28.957  13.980
63044W        W28304  31.001  32.029  14.902
63045W        W28305  13.470  38.873  12.066
63046W        W28306  44.748  43.971   2.134
63047W        W28307  27.376  23.077  14.525
63048W        W28308  18.242   7.478   3.724
63049W        W28309   8.596  36.872   3.258
63050W        W28310   3.519  39.672   1.824
63051W        W28311  34.525  16.682   1.007
63052W        W28312  36.959   9.325   3.667
63053W        W28313  27.490   9.395  12.063
63054W        W28314  30.792  40.546  14.229
63055W        W28315   2.121  39.567   4.078
63056W        W28316  35.611  25.142  14.003
63057W        W28317  37.616  10.782  13.344
63058W        W28318   3.863   5.230   0.037
63059W        W28319  25.213  30.946  14.382
63060W        W28320  37.351  20.521  14.319
63061W        W28321  33.749   0.691   3.663
63062W        W28322  32.866  34.403   2.813
63063W        W28323  25.902  26.059   3.752
63064W        W28324  16.300   0.446  11.140
63065W        W28325  22.790  14.222   3.680
63066W        W28326  13.799   9.773  12.896
63067W        W28327   4.052  31.148   2.489
63068W        W28328  38.017  34.754   2.640
63069W        W28329  41.694  44.630   1.803
63070W        W28330   9.859   5.918  12.940
63071W        W28331  41.742  26.945   3.499
63072W        W28332  25.558  15.640   9.658
63073W        W28333   2.328  38.116   0.019
63074W        W28334  19.056  42.306  13.824
63075W        W28335  29.939  22.576   0.862
63076W        W28336  14.234  20.016  11.970
63077W        W28337  33.651  30.135  11.965
63078W        W28338   1.653  24.080   2.665
63079W        W28339  44.411  17.453   1.793
63080W        W28340   7.098   6.838   2.773
63081W        W28341  40.368  14.227   3.206
63082W        W28342  27.476  23.972  13.508
63083W        W28343  24.082  42.260   0.949
63084W        W28344  24.578  17.760   2.445
63085W        W28345  25.657  39.099   4.801
63086W        W28346  32.600  28.545   2.254
63087W        W28347  41.554  21.554   1.229
63088W        W28348  31.131  37.603   4.177
63089W        W28349   8.120  42.941   3.222
63090W        W28350   1.166  41.705   5.001
63091W        W28351  26.419  25.035   1.405
63092W        W28352  21.291   7.793  10.631
63093W        W28353  27.734  33.115   3.623
63094W        W28354  33.647   8.415  13.417
63095W        W28355  31.812   9.384  13.417
63096W        W28356  12.050  24.973   3.288
63097W        W28357  33.007  23.143   1.908
63098W        W28358  28.103   5.217  12.894
63099W        W28359   2.931  44.265  14.988
63100W        W28360   7.700  20.731  13.937
63101W        W28361  29.159  37.485   3.163
63102W        W28362  24.614  21.023   3.293
63103W        W28363   0.386   2.193   0.886
63104W        W28364   0.775  16.736   2.367
63105W        W28365  37.281  43.885  12.146
63106W        W28366  13.760  41.726   3.411
63107W        W28367   3.796  27.753  13.569
63108W        W28368  14.275  30.479   0.438
63109W        W28369   7.868  31.606  12.177
63110W        W28370  44.955  31.361   3.762
63111W        W28371  14.023  44.896   4.549
63112W        W28372   4.283  20.699   0.832
63113W        W28373  28.567  22.119   4.075
63114W        W28374  38.968  15.195   2.071
63115W        W28375  19.734  43.311  10.650
63116W        W28376  35.945  35.432   1.818
63117W        W28377  42.186   8.343  13.432
63118W        W28378  38.521  39.541   0.342
63119W        W28379   1.426  17.697   4.455
63120W        W28380  32.464   5.396   4.581
63121W        W28381   3.879  39.887  13.403
63122W        W28382  11.376  42.939   0.886
63123W        W28383  20.544  34.976  10.696
63124W        W28384  30.751  27.211  11.493
63125W        W28385   0.948  23.143   0.024
63126W        W28386   9.026  44.480  13.362
63127W        W28387  13.210  11.894   4.614
63128W        W28388  42.555   3.682  11.591
63129W        W28389  42.718  40.700   2.349
63130W        W28390   8.200  20.220   3.615
63131W        W28391  29.887   8.917   4.060
63132W        W28392  34.545  14.075  13.479
63133W        W28393  21.993  36.446   1.699
63134W        W28394  18.052  14.683  12.068
63135W        W28395  28.558  38.440   4.291
63136W        W28396   4.353   9.399   0.365
63137W        W28397  29.200  22.531   1.377
63138W        W28398  31.249  22.412  10.336
63139W        W28399  25.456   9.114   3.819
63140W        W28400  32.089  39.351  12.457
63141W        W28401  22.485  43.300  11.207
63142W        W28402  43.562  23.724  10.510
63143W        W28403  42.354  32.407  13.202
63144W        W28404  21.604   6.356   2.230
63145W        W28405  30.492  12.043   3.931
63146W        W28406  30.399  16.813  12.548
63147W        W28407  30.479  10.821   1.225
63148W        W28408  20.165  27.583   1.012
63149W        W28409   8.052  31.169  13.785
63150W        W28410   3.825   2.849  10.592
63151W        W28411  24.195  12.766   3.416
63152W        W28412  21.498  20.063   2.340
63153W        W28413  18.249  17.087   2.484
63154W        W28414  24.392  19.157  12.555
63155W        W28415   1.121  19.270  14.079
63156W        W28416   0.759   9.307  11.603
63157W        W28417   4.595  11.674   4.129
63158W        W28418  18.227  17.576  12.885
63159W        W28419  17.728  34.376  13.316
63160W        W28420  33.568  21.758  10.761
63161W        W28421  37.375  15.768   0.316
63162W        W28422  14.651  41.854   2.637
63163W        W28423  41.673  40.379  10.889
63164W        W28424  39.521  22.201   2.675
63165W        W28425  32.948  22.988  13.260
63166W        W28426  31.570   3.156   3.119
63167W        W28427  32.443  22.598  11.606
63168W        W28428  21.801  28.788  12.409
63169W        W28429  33.560  26.676   0.895
63170W        W28430   2.771   8.310   4.685
63171W        W28431  37.756   5.975  11.130
63172W        W28432   1.407  44.822   0.040
63173W        W28433  39.258  20.636  11.999
63174W        W28434  27.910   7.677   4.319
63175W        W28435  17.850  30.545  10.707
63176W        W28436  39.019  20.020   4.585
63177W        W28437   9.366  30.518  10.680
63178W        W28438   0.945  27.993  11.521
63179W        W28439   6.179  23.200   0.846
63180W        W28440  42.885  35.595  14.498
63181W        W28441   6.217   7.143  11.882
63182W        W28442  18.549  15.841  12.714
63183W        W28443  31.018  16.095   0.879
63184W        W28444  38.280  42.016  14.928
63185W        W28445   9.721  24.757   0.426
63186W        W28446  44.410   5.121  12.111
63187W        W28447  43.460  31.096  11.348
63188W        W28448   0.352  29.597  13.491
63189W        W28449  32.852  11.589   4.599
63190W        W28450  43.508  37.599   4.359
63191W        W28451  38.114  27.715  14.520
63192W        W28452   5.899  31.365   3.267
63193W        W28453  38.894   7.782  14.086
63194W        W28454  20.683   7.335   0.897
63195W        W28455  34.696  22.400   3.759
63196W        W28456  16.966  44.987   4.179
63197W        W28457  24.682   2.513   2.202
63198W        W28458   1.424  42.565  12.113
63199W        W28459  38.727  22.728   1.720
63200W        W28460  10.665  14.853  13.248
63201W        W28461  17.971  34.330  14.894
63202W        W28462  15.124  39.835   2.851
63203W        W28463  32.611  24.492  11.188
63204W        W28464  18.016  21.783   4.687
63205W        W28465   1.532   9.742  11.575
63206W        W28466  13.655  23.943   1.397
63207W        W28467   1.017  24.456  13.321
63208W        W28468  42.870   3.332  11.788
63209W        W28469   3.290  35.297   4.404
63210W        W28470  10.596  38.455   2.533
63211W        W28471  31.661  39.520  11.532
63212W        W28472  43.099   6.796   2.878
63213W        W28473  17.598  14.815  12.328
63214W        W28474  28.506  23.639  11.080
63215W        W28475   4.214  33.325  12.468
63216W        W28476  19.466   9.148   3.847
63217W        W28477   0.929   9.019  14.745
63218W        W28478   6.784   7.408   0.963
63219W        W28479  28.889   6.570   3.622
63220W        W28480   5.565  39.437  11.490
63221W        W28481  26.538  14.739   2.734
63222W        W28482  41.013   7.856   0.413
63223W        W28483  26.056  23.046  13.893
63224W        W28484  18.219  14.318  13.372
63225W        W28485  24.659   6.847  14.323
63226W        W28486  21.235  19.084   5.178
63227W        W28487  30.556  34.049   2.232
63228W        W28488  33.010  38.578   2.446
63229W        W28489   3.306  41.372  12.830
63230W        W28490  14.273  27.405  14.896
63231W        W28491  11.883   4.889  12.044
63232W        W28492  32.435   4.159  12.197
63233W        W28493  16.476  30.574   4.598
63234W        W28494   8.251  12.264   3.153
63235W        W28495  42.974  10.672  11.072
63236W        W28496   9.711  28.043  13.462
63237W        W28497  40.636   5.953   4.194
63238W        W28498  17.320  18.254  13.793
63239W        W28499   5.350  32.643   3.418
63240W        W28500  20.791   1.515  14.717
63241W        W28501  19.335  23.083  13.488
63242W        W28502   7.843   5.597  13.861
63243W        W28503  18.177   6.482   2.624
63244W        W28504  27.756  25.534   1.238
63245W        W28505   0.829  40.548   4.982
63246W        W28506   1.071  36.524  12.584
63247W        W28507  41.501  20.719   3.224
63248W        W28508  16.316  18.831   1.945
63249W        W28509  30.140  33.476   4.290
63250W        W28510   9.480  13.687  10.596
63251W        W28511  40.252   4.857  14.441
63252W        W28512  43.514   2.641   2.779
63253W        W28513  17.993  40.738  14.036
63254W        W28514  30.042  15.002   2.504
63255W        W28515  41.886  17.413   4.975
63256W        W28516  43.054  12.287  13.595
63257W        W28517   8.364   4.227   3.132
63258W        W28518  43.364   8.173   2.813
63259W        W28519  32.336  25.100  12.008
63260W        W28520  42.086  14.810  14.979
63261W        W28521  42.571  44.412   2.713
63262W        W28522  32.118  30.239   1.915
63263W        W28523  25.292   4.185   4.107
63264W        W28524   5.328  29.112  10.735
63265W        W28525  24.151  36.716  10.360
63266W        W28526  44.865  31.846   5.075
63267W        W28527   3.101  28.155  12.044
63268W        W28528  16.618  18.927   0.083
63269W        W28529  32.966   0.640   4.461
63270W        W28530   4.515   3.892  11.219
63271W        W28531  28.211  44.374   2.612
63272W        W28532  15.816   8.692  14.905
63273W        W28533  32.446  28.953  11.599
63274W        W28534  13.693  39.294  13.317
63275W        W28535  36.043  43.391  12.562
63276W        W28536   8.350  36.366   2.930
63277W        W28537  14.208  19.501  11.981
63278W        W28538  42.745  42.324  12.719
63279W        W28539  31.852  23.048  12.037
63280W        W28540  31.836  36.584  13.822
63281W        W28541  21.364  38.379   1.506
63282W        W28542  13.571  29.966   2.696
63283W        W28543  29.538  10.202   0.221
63284W        W28544  20.772   0.420   1.943
63285W        W28545  11.180   3.660  14.003
63286W        W28546  15.672  40.829   3.610
63287W        W28547  14.842   6.473  12.570
63288W        W28548  41.606   8.298   1.793
63289W        W28549   2.510  13.602  13.126
63290W        W28550  24.649  41.755   2.315
63291W        W28551  26.574  35.853   5.436
63292W        W28552  37.877   6.717  13.828
63293W        W28553  13.534  22.662  10.916
63294W        W28554  14.661  39.398   1.272
63295W        W28555  36.470  25.642   4.941
63296W        W28556   7.349  24.712  14.777
63297W        W28557  31.426  16.866  13.868
63298W        W28558  32.895  21.272  10.767
63299W        W28559  22.183   4.465   0.928
63300W        W28560   9.154   0.949  11.139
63301W        W28561  16.289  39.355  13.915
63302W        W28562  12.542  30.423  10.557
63303W        W28563  12.769  31.880   1.838
63304W        W28564   4.244  22.501   0.291
63305W        W28565   8.449  21.140  11.504
63306W        W28566  36.351  17.256   1.219
63307W        W28567   6.644  27.064   5.009
63308W        W28568  36.910  26.669  11.936
63309W        W28569  10.711   7.175   2.196
63310W        W28570  25.806  21.537  10.436
63311W        W28571  18.025  36.765  10.999
63312W        W28572  44.064  28.609   4.516
63313W        W28573  41.126  17.767  14.321
63314W        W28574  26.288  38.111   4.342
63315W        W28575  12.862  31.399  12.546
63316W        W28576   9.203  42.396   0.755
63317W        W28577  34.693  32.929   4.574
63318W        W28578  34.545  40.782  14.112
63319W        W28579   2.332  32.139  14.462
63320W        W28580  32.960  31.008   0.821
63321W        W28581   9.191   7.241  10.405
63322W        W28582  40.848  34.301   0.958
63323W        W28583  12.357  35.642  12.712
63324W        W28584  10.334  32.396  13.382
63325W        W28585   7.003  26.962  12.933
63326W        W28586  33.229   1.766  12.328
63327W        W28587   3.673   2.445   4.376
63328W        W28588  32.699   8.219  13.463
63329W        W28589  41.304  23.293   2.385
63330W        W28590  35.703  17.170   3.300
63331W        W28591  41.291  13.816  14.564
63332W        W28592  15.716   2.896   3.291
63333W        W28593   4.762  38.787   3.129
63334W        W28594  28.103  18.578   4.891
63335W        W28595  31.511  24.809   1.384
63336W        W28596  14.891  17.549  13.741
63337W        W28597  21.940  40.312   4.256
63338W        W28598   9.493  42.820   0.905
63339W        W28599  33.777  17.930  12.435
63340W        W28600  25.578  17.587   2.807
63341W        W28601   6.694  20.244   1.657
63342W        W28602  40.392  43.602   2.577
63343W        W28603  38.677   1.473  12.962
63344W        W28604  19.132  10.928   3.279
63345W        W28605  27.005  21.085  13.033
63346W        W28606  10.418   1.260   5.138
63347W        W28607  12.142   5.641  12.398
63348W        W28608   9.193  26.602  11.646
63349W        W28609  27.020  15.138  12.096
63350W        W28610  19.358  42.506  14.204
63351W        W28611   3.417  43.095  13.059
63352W        W28612  39.753  18.625   2.441
63353W        W28613  44.266  38.065   3.676
63354W        W28614  20.559  33.379   2.822
63355W        W28615   7.347  40.356  12.987
63356W        W28616  18.814  21.530   1.151
63357W        W28617  14.262   8.970  13.671
63358W        W28618  38.893   7.455   1.586
63359W        W28619  16.262  21.749  11.489
63360W        W28620   7.865  32.972  11.135
63361W        W28621  36.023  29.208   0.770
63362W        W28622   5.354  43.385  11.043
63363W        W28623  21.088   5.753   1.903
63364W        W28624  24.925  13.923  11.053
63365W        W28625  24.793  10.884  14.017
63366W        W28626  33.206   1.277   1.993
63367W        W28627   7.489  28.174  12.503
63368W        W28628   5.265  40.720   1.488
63369W        W28629  36.496  33.764   2.715
63370W        W28630  23.727   8.921  14.022
63371W        W28631  12.958  31.030   0.473
63372W        W28632  43.521  29.584   0.408
63373W        W28633  33.448   2.819   4.407
63374W        W28634  15.437  21.107  14.468
63375W        W28635   4.963   4.620   3.870
63376W        W28636  24.232  34.496  13.299
63377W        W28637   5.249  35.933  12.451
63378W        W28638  38.585  44.204  13.972
63379W        W28639  14.981  30.327  13.376
63380W        W28640  22.699   6.460  13.317
63381W        W28641  35.412  42.491  11.407
63382W        W28642  36.967   5.454   3.708
63383W        W28643  36.272   1.033  12.505
63384W        W28644   2.079  25.909   0.490
63385W        W28645  12.207  31.413  12.872
63386W        W28646  39.080   2.933   2.876
63387W        W28647   1.509   6.459  11.780
63388W        W28648  25.217  41.230  13.429
63389W        W28649  13.196  30.456  13.471
63390W        W28650  40.680  34.697   1.722
63391W        W28651  26.961  18.007  14.065
63392W        W28652  18.155  18.595   5.594
63393W        W28653  33.300   7.660  11.185
63394W        W28654  16.240  38.384   4.488
63395W        W28655  32.195  16.881  10.151
63396W        W28656  28.354  38.179  14.761
63397W        W28657  44.931   4.490  11.563
63398W        W28658  22.958   5.749  14.842
63399W        W28659   3.037  43.463  13.194
63400W        W28660  31.728  43.419   0.432
63401W        W28661  36.433   9.207   4.395
63402W        W28662  39.415   8.131  14.939
63403W        W28663   7.746  14.765   3.744
63404W        W28664  40.481   9.751  12.876
63405W        W28665  25.589  40.090   2.259
63406W        W28666  44.802  10.955  11.180
63407W        W28667  35.469  31.976  14.211
63408W        W28668  17.088  18.236   2.813
63409W        W28669  43.844  11.719  13.440
63410W        W28670  10.759  40.591  13.304
63411W        W28671   5.555  44.805  11.312
63412W        W28672  31.525   4.476  11.171
63413W        W28673  19.621  37.917  14.184
63414W        W28674   8.441  40.752  13.659
63415W        W28675  27.872  22.504  12.796
63416W        W28676  39.303  16.481  10.533
63417W        W28677  21.249  23.154  12.455
63418W        W28678  34.856  11.829   1.757
63419W        W28679  20.803   4.098  12.446
63420W        W28680  44.209  36.409  14.413
63421W        W28681  12.613  26.720  14.396
63422W        W28682  13.144  18.075  14.682
63423W        W28683  28.721  34.018   3.326
63424W        W28684  30.555  14.444  11.105
63425W        W28685  24.678  10.131  12.066
63426W        W28686  37.910  11.136  11.092
63427W        W28687  26.836  11.341  14.432
63428W        W28688  22.193  39.448   0.596
63429W        W28689  42.759  30.520   0.015
63430W        W28690  21.068  12.773  11.152
63431W        W28691   7.815   6.179   0.380
63432W        W28692  41.449  39.964   0.773
63433W        W28693  44.142  15.339  14.758
63434W        W28694  36.813  13.248   2.885
63435W        W28695   9.788  15.624   1.462
63436W        W28696  24.275  29.397   3.774
63437W        W28697  37.902   9.241   0.834
63438W        W28698  13.532  25.016   4.239
63439W        W28699  23.190  20.749   3.422
63440W        W28700  42.764  23.168   1.371
63441W        W28701  40.511  20.856  10.982
63442W        W28702   9.405  14.636   1.760
63443W        W28703  30.993  36.608  11.620
63444W        W28704  40.960  31.572   3.551
63445W        W28705  44.237  26.533  12.448
63446W        W28706  27.412  22.702  10.627
63447W        W28707  25.032  16.982   9.494
63448W        W28708  11.765   8.636  13.350
63449W        W28709  44.799  43.936  11.908
63450W        W28710   2.706  37.074   4.844
63451W        W28711  28.671  20.476   4.409
63452W        W28712  11.785   0.041  11.377
63453W        W28713  19.678   3.351  13.468
63454W        W28714  17.833   9.625  12.404
63455W        W28715  13.305  30.699   4.578
63456W        W28716   3.879  11.562  12.384
63457W        W28717  25.513  19.703   2.441
63458W        W28718  37.445  35.235  13.445
63459W        W28719  10.789  24.555   3.860
63460W        W28720  42.974   3.418  13.092
63461W        W28721  31.388   9.733  13.434
63462W        W28722  15.505  21.186   0.768
63463W        W28723  18.637  27.055   3.979
63464W        W28724  19.232  29.075   3.983
63465W        W28725  44.297   7.783  14.929
63466W        W28726  42.888  43.303  10.646
63467W        W28727  22.136  16.156   2.802
63468W        W28728  18.839  39.591   2.706
63469W        W28729  24.647  13.684   1.897
63470W        W28730  29.904  33.867   2.811
63471W        W28731  14.643  44.424  11.649
63472W        W28732  14.180  23.575   0.224
63473W        W28733   9.961  44.258  10.520
63474W        W28734  15.681  12.163   3.781
63475W        W28735   0.438  31.042   3.304
63476W        W28736  35.989  19.815  11.642
63477W        W28737  43.053  16.905   4.973
63478W        W28738   4.782  10.948  12.943
63479W        W28739  13.651  22.773  12.859
63480W        W28740  21.312  29.739   2.269
63481W        W28741  18.416  42.807   4.339
63482W        W28742  21.162  42.501  13.332
63483W        W28743   1.559  26.966   3.630
63484W        W28744  34.509   0.249   3.877
63485W        W28745   8.228  36.946  14.883
63486W        W28746  22.218  27.241   1.876
63487W        W28747  36.098  14.623   2.253
63488W        W28748  29.625  22.990   0.961
63489W        W28749  37.151  37.143  13.570
63490W        W28750   0.873   3.464   4.198
63491W        W28751  11.216   5.209  13.846
63492W        W28752  36.433   7.880  11.561
63493W        W28753   3.859  21.001   0.940
63494W        W28754  36.661  34.468   2.277
63495W        W28755   3.524  37.792  10.633
63496W        W28756   0.060   4.373   1.775
63497W        W28757  17.326  39.630  11.589
63498W        W28758  34.596   1.330   2.749
63499W        W28759  35.108  24.661  14.942
63500W        W28760  20.380  22.642  12.608
63501W        W28761  24.700  16.658  12.860
63502W        W28762  29.252  11.751  12.005
63503W        W28763  41.441   7.862   0.710
63504W        W28764  31.821   2.890  11.465
63505W        W28765   2.465  30.688   4.154
63506W        W28766  23.241  22.051  13.478
63507W        W28767  25.208  32.909   1.017
63508W        W28768  26.191   3.436   4.765
63509W        W28769  43.369  42.259  13.520
63510W        W28770  10.155  37.075  10.584
63511W        W28771  13.864  35.594  10.684
63512W        W28772  39.514  29.910  14.901
63513W        W28773  14.944  38.862  14.645
63514W        W28774  32.088   3.660  11.132
63515W        W28775  14.321  39.800   1.411
63516W        W28776  33.136  43.254  14.383
63517W        W28777  13.157  18.605   1.444
63518W        W28778  24.631  34.042   2.837
63519W        W28779  37.811  29.511   0.823
63520W        W28780  14.652  27.935  11.912
63521W        W28781  22.269  29.470   5.067
63522W        W28782  35.489  12.392   3.527
63523W        W28783  31.285  16.706  11.137
63524W        W28784  17.661  42.976   3.118
63525W        W28785   9.916  37.518  14.972
63526W        W28786  15.290   4.644   1.864
63527W        W28787  43.047  36.072  10.016
63528W        W28788  27.664  18.667   2.831
63529W        W28789  16.064  44.261  14.678
63530W        W28790  16.226  36.065   4.680
63531W        W28791  11.371   9.389   3.263
63532W        W28792   5.960  28.770  12.791
63533W        W28793   9.851  22.266   2.976
63534W        W28794  35.465   7.666   1.494
63535W        W28795  16.157  35.018   4.548
63536W        W28796  18.669  24.642  11.699
63537W        W28797   8.820  17.839   1.669
63538W        W28798  21.299   2.582   1.234
63539W        W28799  17.817  35.424   3.263
63540W        W28800  12.451  37.547  12.894
63541W        W28801  43.686  35.833   4.124
63542W        W28802   6.705  22.983   1.416
63543W        W28803   5.774  16.068   1.721
63544W        W28804  11.397  14.771  14.850
63545W        W28805  21.188  25.644  10.724
63546W        W28806   2.164  34.452  11.972
63547W        W28807  14.902   8.301  12.187
63548W        W28808  34.674  26.688   2.295
63549W        W28809   9.675  14.674  12.976
63550W        W28810  10.385  39.702  11.220
63551W        W28811   1.563  35.294   2.455
63552W        W28812  18.635  37.064  10.599
63553W        W28813  41.921   7.378   3.183
63554W        W28814  34.962  33.546   0.173
63555W        W28815  14.699  14.797  11.227
63556W        W28816  11.681  23.532  10.316
63557W        W28817  36.392   7.853   1.855
63558W        W28818  18.351   9.359  13.457
63559W        W28819   5.849  18.571  11.408
63560W        W28820  14.642  15.148   2.863
63561W        W28821  20.543  16.702  13.289
63562W        W28822  25.022   8.763   3.817
63563W        W28823  37.337  20.064  11.960
63564W        W28824   6.771  22.538  12.973
63565W        W28825  19.616  17.016   3.129
63566W        W28826  39.023  40.383   4.167
63567W        W28827  42.921  17.759   3.974
63568W        W28828  13.038  17.492  11.641
63569W        W28829  11.654  31.498   3.580
63570W        W28830  44.270  34.447  10.639
63571W        W28831  14.171  13.416  11.409
63572W        W28832  44.228  43.065   3.802
63573W        W28833  34.983  42.239   4.356
63574W        W28834   8.745  38.826  13.269
63575W        W28835  20.040  34.163   4.792
63576W        W28836   2.731  22.463  13.904
63577W        W28837  13.154  37.466   1.794
63578W        W28838  29.554  43.892  12.103
63579W        W28839  30.339   3.339  13.421
63580W        W28840  14.755  34.348  13.086
63581W        W28841  41.037   8.789   2.255
63582W        W28842   8.843  32.403   0.209
63583W        W28843   9.209  30.893  13.392
63584W        W28844  38.468  40.523  10.411
63585W        W28845   4.964  17.201  10.602
63586W        W28846   7.827   3.959  12.515
63587W        W28847  22.281   2.456   5.402
63588W        W28848  35.308  17.133  12.978
63589W        W28849  32.011  26.047   0.935
63590W        W28850  27.434   4.895   4.550
63591W        W28851  38.755  31.057  13.007
63592W        W28852  42.007  24.675  13.386
63593W        W28853  41.899   4.502  13.765
63594W        W28854  21.321  17.915  11.273
63595W        W28855  16.754  18.308  11.510
63596W        W28856  32.578  40.870   0.546
63597W        W28857  44.832   1.324  10.694
63598W        W28858   0.632   6.285   3.757
63599W        W28859  22.252  36.863   2.213
63600W        W28860  26.953  28.037   0.412
63601W        W28861  17.351  21.563  12.467
63602W        W28862  39.545  36.568  12.210
63603W        W28863  25.070   6.917  11.886
63604W        W28864  22.190  31.890   3.347
63605W        W28865  27.941   7.636  12.849
63606W        W28866  10.295  31.599   0.809
63607W        W28867  24.589  33.156   2.700
63608W        W28868  35.468  38.782   0.258
63609W        W28869  43.473  41.274   4.401
63610W        W28870  23.891  36.437  14.396
63611W        W28871  29.929   3.939   0.823
63612W        W28872   8.335  33.175  14.492
63613W        W28873  14.287   1.188  14.895
63614W        W28874  34.178  41.867   2.427
63615W        W28875  17.891  26.516   4.263
63616W        W28876  16.541  17.652   0.288
63617W        W28877   1.052  22.404  10.200
63618W        W28878  29.052  33.524  12.581
63619W        W28879   6.959  38.007  13.393
63620W        W28880  35.931   0.359  12.029
63621W        W28881  17.984  19.575   2.707
63622W        W28882  15.279   5.376   3.153
63623W        W28883  21.965  15.663  12.817
63624W        W28884  33.134  28.944  11.912
63625W        W28885  42.823  18.922   3.565
63626W        W28886  34.460  12.745   0.470
63627W        W28887  30.984  15.570   1.014
63628W        W28888  17.740  23.273  11.907
63629W        W28889  37.882  35.381  13.114
63630W        W28890  17.150  35.794   1.326
63631W        W28891  17.931  34.820   4.219
63632W        W28892  13.629  22.602   1.872
63633W        W28893  16.070  28.068  11.047
63634W        W28894  25.163  31.520  12.418
63635W        W28895  41.771  11.514   0.415
63636W        W28896  28.768  23.957  11.559
63637W        W28897  26.013  23.401  14.417
63638W        W28898   5.211  28.472  12.493
63639W        W28899  23.031   7.225   2.206
63640W        W28900  34.510  18.742  13.924
63641W        W28901   5.950  26.706   0.840
63642W        W28902  37.586   3.268  13.583
63643W        W28903  19.987  23.756   3.339
63644W        W28904  42.296  34.049   4.881
63645W        W28905  27.963  43.463   2.255
63646W        W28906   4.767  27.418  12.034
63647W        W28907  13.337  11.801  10.671
63648W        W28908  20.849  14.355   2.166
63649W        W28909  39.135  14.485   0.417
63650W        W28910   2.219  36.129   1.681
63651W        W28911   2.381  31.180  12.577
63652W        W28912   5.372  32.942   4.049
63653W        W28913  11.826  30.635   2.242
63654W        W28914   7.564  37.973  10.766
63655W        W28915  40.688  22.683   1.965
63656W        W28916  41.117  35.158   1.833
63657W        W28917   1.437  39.908   0.924
63658W        W28918  16.187  34.784   0.839
63659W        W28919  27.132  27.242   2.229
63660W        W28920  24.037  34.744  10.174
63661W        W28921  39.456  18.286   4.835
63662W        W28922   0.449  13.003   2.248
63663W        W28923  24.726   6.442   4.633
63664W        W28924  10.619  26.017   0.017
63665W        W28925   3.742  36.893   2.429
63666W        W28926  25.581  31.417   1.271
63667W        W28927  12.297   9.582   4.699
63668W        W28928  38.401   1.678  13.891
63669W        W28929  32.727   4.859  12.900
63670W        W28930  40.397  14.365  14.212
63671W        W28931   0.480   5.725  12.206
63672W        W28932  14.279  19.169   0.347
63673W        W28933  23.993  25.386   4.322
63674W        W28934  32.602   7.433  14.435
63675W        W28935  42.821   9.873  12.868
63676W        W28936  30.180  44.433  14.709
63677W        W28937  14.325  19.118   5.140
63678W        W28938  43.089  22.997   0.952
63679W        W28939  12.318  32.933   2.827
63680W        W28940   5.707  13.427  13.436
63681W        W28941  23.819  33.366   0.975
63682W        W28942  12.169  31.188  11.602
63683W        W28943   8.394   9.728  12.587
63684W        W28944  43.249  33.572  14.847
63685W        W28945  15.955  37.343   3.316
63686W        W28946   2.951  44.654   0.786
63687W        W28947  11.833  28.543   0.719
63688W        W28948  43.735  24.335   4.579
63689W        W28949   6.901  17.216  10.846
63690W        W28950  24.550  24.438  13.980
63691W        W28951  30.180  23.899  14.378
63692W        W28952  10.219  24.750   3.236
63693W        W28953  12.717  12.705  10.694
63694W        W28954  42.056  16.601  11.177
63695W        W28955  32.278   2.426   1.137
63696W        W28956  36.290  25.340   0.883
63697W        W28957  38.884  43.775  12.257
63698W        W28958  15.140  24.076   4.281
63699W        W28959  19.176  37.014  12.116
63700W        W28960  11.739   4.194  10.962
63701W        W28961  33.854  28.671  14.351
63702W        W28962  38.352  12.441  13.892
63703W        W28963  41.167  36.986  12.978
63704W        W28964  28.265  23.257  12.144
63705W        W28965  31.780   5.254  10.925
63706W        W28966  32.062  36.907   0.917
63707W        W28967  40.148  16.382   4.856
63708W        W28968  30.582   3.326   2.653
63709W        W28969   7.452  13.392  10.953
63710W        W28970  18.811  40.101   2.788
63711W        W28971  40.497  39.956   2.322
63712W        W28972  16.789  29.905  13.719
63713W        W28973   1.543   5.347  11.288
63714W        W28974  15.540  34.054  14.451
63715W        W28975  12.648   1.235  13.680
63716W        W28976  25.942  35.349   0.816
63717W        W28977  28.948  37.644  10.779
63718W        W28978  37.445  29.617   2.937
63719W        W28979  15.885  41.434  12.375
63720W        W28980  34.215  24.631  12.143
63721W        W28981  42.973  33.680   2.181
63722W        W28982  12.691  22.713  13.122
63723W        W28983   4.526  40.585   1.435
63724W        W28984   1.595  10.876   1.009
63725W        W28985  15.444   1.187  12.415
63726W        W28986  30.558  41.826  14.271
63727W        W28987  13.379  31.893  11.889
63728W        W28988  38.780  16.139  10.977
63729W        W28989  12.583  25.580   2.114
63730W        W28990  41.495  17.614  11.635
63731W        W28991  43.279  35.598  12.175
63732W        W28992   2.270  10.354   1.243
63733W        W28993  38.963  18.681   4.131
63734W        W28994  42.957  31.857   3.219
63735W        W28995  38.373  21.088   0.476
63736W        W28996  11.473  31.433  13.897
63737W        W28997  20.297  14.571   2.452
63738W        W28998   3.040  16.722   3.120
63739W        W28999   8.553   3.899   5.010
63740W        W29000  44.384  17.442   4.524
63741W        W29001  19.008  12.140   4.057
63742W        W29002  41.225  26.042   4.318
63743W        W29003   9.850  33.760   1.753
63744W        W29004  11.454  11.653  10.826
63745W        W29005  20.822   9.323   0.452
63746W        W29006  39.820  27.567  13.115
63747W        W29007  11.323  10.630   0.864
63748W        W29008   0.507  33.104  10.746
63749W        W29009  23.115  26.594   2.658
63750W        W29010   9.178  35.535   3.795
63751W        W29011  10.704  32.261  13.739
63752W        W29012   4.586   2.895   1.282
63753W        W29013   7.847  36.371   2.708
63754W        W29014  41.412  28.451  14.791
63755W        W29015   8.959  39.357  10.763
63756W        W29016  35.478  33.379  10.936
63757W        W29017  18.782  11.982  13.171
63758W        W29018  25.056  38.264   2.331
63759W        W29019  21.722  15.748   1.943
63760W        W29020  41.959   5.671   2.693
63761W        W29021  33.280  14.759  12.491
63762W        W29022  31.903  38.277  13.469
63763W        W29023  41.852   5.184  13.298
63764W        W29024  30.647  20.513   0.940
63765W        W29025  42.449  33.831  12.883
63766W        W29026   7.860  24.417   4.083
63767W        W29027  15.003  13.587   4.068
63768W        W29028   9.118  25.160   4.993
63769W        W29029  40.062  42.453  11.623
63770W        W29030   8.340  32.578  13.763
63771W        W29031  34.151  17.875  13.612
63772W        W29032  18.285  21.593   3.288
63773W        W29033  24.505  23.592  10.609
63774W        W29034  44.945   1.766   3.865
63775W        W29035  34.276  27.242  12.961
63776W        W29036  27.002   8.143   2.206
63777W        W29037  28.478  44.454  13.494
63778W        W29038  13.207  39.729  12.079
63779W        W29039   2.620  29.064   9.763
63780W        W29040  20.401  12.194   2.650
63781W        W29041  15.735  11.812   2.217
63782W        W29042   9.128   6.239  13.111
63783W        W29043  40.956  34.954   2.651
63784W        W29044  43.621  37.321   0.550
63785W        W29045  31.138   6.459   2.860
63786W        W29046  36.024  38.059  11.494
63787W        W29047  27.579  15.981  13.544
63788W        W29048   4.812  40.687  12.082
63789W        W29049  26.318  37.952   0.825
63790W        W29050  27.467  39.919  11.550
63791W        W29051  15.330   8.415  11.068
63792W        W29052  21.005  38.086  13.850
63793W        W29053  29.102   7.283  10.726
63794W        W29054   6.665   4.198   1.084
63795W        W29055  28.303  10.261   9.833
63796W        W29056  12.816   5.468  11.525
63797W        W29057  13.452   4.939  14.010
63798W        W29058  31.190  13.908  12.558
63799W        W29059  12.139  15.247  12.517
63800W        W29060  41.464  23.684  11.925
63801W        W29061   7.806  41.802   3.935
63802W        W29062  29.694   5.871   3.783
63803W        W29063  11.523  44.534  14.325
63804W        W29064  31.993  19.809  12.495
63805W        W29065   2.518  27.052  13.470
63806W        W29066  13.232  17.413   0.822
63807W        W29067  40.655  23.013  10.901
63808W        W29068  27.535  36.792   3.371
63809W        W29069   7.890  37.525  10.477
63810W        W29070  39.550  13.887   2.306
63811W        W29071   6.657  20.669   2.880
63812W        W29072  11.787   2.794  10.697
63813W        W29073  16.703   6.760   3.001
63814W        W29074  39.045  35.978   4.402
63815W        W29075  33.365  37.416   0.743
63816W        W29076   2.474  31.911  14.010
63817W        W29077  29.699  31.801   3.254
63818W        W29078  13.258   7.224   1.691
63819W        W29079  24.996  13.745   4.193
63820W        W29080  38.797  28.108   1.413
63821W        W29081  39.356   9.182   1.775
63822W        W29082   4.857  31.870   2.542
63823W        W29083  44.793  30.681  14.223
63824W        W29084  23.076   4.449   0.688
63825W        W29085  15.580   7.858   3.671
63826W        W29086  19.739  37.072   0.530
63827W        W29087  40.014  24.465   0.309
63828W        W29088   5.166  38.660  14.955
63829W        W29089  41.013  38.819  12.952
63830W        W29090   9.296  24.680   1.729
63831W        W29091  14.332  43.383  11.992
63832W        W29092   4.997   8.788  10.941
63833W        W29093  43.319  30.543   3.359
63834W        W29094  38.240  19.156   1.647
63835W        W29095  33.039   8.187  14.966
63836W        W29096  35.602  39.797   4.949
63837W        W29097   7.013  34.104   0.125
63838W        W29098   7.727   8.728  10.710
63839W        W29099   7.767  25.440  10.832
63840W        W29100   9.307  44.643   1.021
63841W        W29101  35.925  42.370   1.339
63842W        W29102  22.802  37.113  12.523
63843W        W29103  33.624   1.329   1.670
63844W        W29104  22.912  42.337  12.972
63845W        W29105  33.515   8.454   4.286
63846W        W29106  24.241  39.972  11.085
63847W        W29107   8.384  17.172   1.372
63848W        W29108  42.759  24.622   2.272
63849W        W29109  22.633  18.454  13.165
63850W        W29110  41.382  26.156   2.889
63851W        W29111  22.711  42.859  11.035
63852W        W29112  25.822   4.289   4.967
63853W        W29113  44.563  40.989   4.963
63854W        W29114   0.285  36.088   0.860
63855W        W29115  29.403  43.420  11.969
63856W        W29116   8.187  16.602   0.508
63857W        W29117   4.315  28.119  10.714
63858W        W29118   3.475   6.114   1.856
63859W        W29119  36.912  29.720   3.155
63860W        W29120   4.883  42.059  12.297
63861W        W29121   1.368  17.261   0.856
63862W        W29122  41.093   2.102   5.367
63863W        W29123   3.376  33.641   0.337
63864W        W29124  22.906  17.592   1.943
63865W        W29125  23.041  18.213   3.621
63866W        W29126  20.710  23.044   4.773
63867W        W29127  24.805   2.698  13.280
63868W        W29128  34.930  30.819  12.191
63869W        W29129  18.763  36.925  14.329
63870W        W29130  13.267  28.138   9.795
63871W        W29131  39.028   9.020   3.204
63872W        W29132   4.651  30.413   4.244
63873W        W29133   8.237  12.779  11.258
63874W        W29134   2.724   3.384   1.734
63875W        W29135   0.519   9.200   2.294
63876W        W29136  43.454  39.062  10.654
63877W        W29137   3.787  39.861  10.739
63878W        W29138  36.878  20.238   3.117
63879W        W29139  26.028   8.600   1.240
63880W        W29140  20.421   2.017  11.180
63881W        W29141   7.666   3.757   1.295
63882W        W29142  16.316   1.727   3.132
63883W        W29143   4.924   1.827   2.776
63884W        W29144  11.105  13.924   4.470
63885W        W29145  13.285   1.561   0.835
63886W        W29146  29.153  34.192   1.223
63887W        W29147  40.045  32.289  11.654
63888W        W29148  18.504  29.027   1.191
63889W        W29149  12.570  36.553  11.507
63890W        W29150  10.235   3.513  14.613
63891W        W29151   9.404  36.252   0.924
63892W        W29152  26.787   1.798  13.401
63893W        W29153   2.589  27.925   4.599
63894W        W29154  42.573   9.827  12.433
63895W        W29155   5.182  17.252  13.082
63896W        W29156  17.729  17.284   0.350
63897W        W29157  32.527  16.305  12.091
63898W        W29158   4.678  15.600  11.670
63899W        W29159  30.032  30.192   3.639
63900W        W29160  26.924  37.417  14.946
63901W        W29161  12.431   2.650   2.764
63902W        W29162  25.619  27.660   2.964
63903W        W29163   4.830  20.822  10.647
63904W        W29164  39.864   3.017  14.373
63905W        W29165  28.684  32.797   4.417
63906W        W29166  42.768  26.663   2.711
63907W        W29167  30.908  33.145   0.242
63908W        W29168  34.532  20.110   4.035
63909W        W29169  22.629  44.480  10.794
63910W        W29170   4.660  27.087  12.423
63911W        W29171  30.540   1.328  13.560
63912W        W29172  18.333  35.957  13.047
63913W        W29173   9.956  25.144  11.957
63914W        W29174  28.872  38.515  10.893
63915W        W29175   8.288  39.322  13.066
63916W        W29176  12.860  29.620   0.490
63917W        W29177  23.653  10.867  12.646
63918W        W29178  29.747  32.184   1.371
63919W        W29179  30.522  23.242   2.954
63920W        W29180  10.965  30.940   2.386
63921W        W29181  42.342  18.253   4.667
63922W        W29182  14.028  28.810  12.369
63923W        W29183  39.024  33.044  14.012
63924W        W29184  27.060  22.023   2.567
63925W        W29185  38.833  26.644   3.577
63926W        W29186  21.547   9.108   2.769
63927W        W29187  21.592  31.616  11.910
63928W        W29188  19.815  14.734   2.348
63929W        W29189  35.686  18.192   0.446
63930W        W29190  13.696  29.849  12.052
63931W        W29191  23.767   0.859   3.680
63932W        W29192  12.323   9.918  10.320
63933W        W29193  15.653  13.752  12.430
63934W        W29194  39.072  33.176   1.688
63935W        W29195  40.464  29.961   0.834
63936W        W29196  24.140  40.726  10.735
63937W        W29197  22.934  33.893   5.440
63938W        W29198   5.879  28.499  13.732
63939W        W29199  24.140  28.138  12.211
63940W        W29200  37.499  20.257   2.503
63941W        W29201  17.320  29.732   4.530
63942W        W29202  24.629  12.808   4.065
63943W        W29203  41.460  27.661   3.679
63944W        W29204  11.008  11.780   3.328
63945W        W29205  26.988  35.882   4.175
63946W        W29206  25.665   1.313  10.893
63947W        W29207  18.675  28.155  11.552
63948W        W29208  40.024  38.855  12.860
63949W        W29209  25.674  35.605  12.981
63950W        W29210  44.522  28.631  10.739
63951W        W29211   4.850  44.446   4.530
63952W        W29212  35.092  27.323   1.569
63953W        W29213   9.576  28.369   0.864
63954W        W29214  22.776  11.013   3.995
63955W        W29215   7.904  24.269   2.289
63956W        W29216   4.259  23.670  14.900
63957W        W29217  31.585  11.248   3.322
63958W        W29218  34.924  30.150   0.881
63959W        W29219  39.591  38.916   4.437
63960W        W29220  32.710  41.550   3.362
63961W        W29221   2.980  28.132   3.322
63962W        W29222  24.971  36.585  12.454
63963W        W29223  21.829  36.427   0.201
63964W        W29224  10.600  14.087   4.548
63965W        W29225  31.779   7.602   2.387
63966W        W29226  31.940  40.292  13.376
63967W        W29227  35.785   4.375   1.935
63968W        W29228  13.686  14.747  14.545
63969W        W29229  25.276  33.536   4.540
63970W        W29230   1.919  22.258   3.075
63971W        W29231  41.838  25.042   3.340
63972W        W29232  44.303  25.824  13.858
63973W        W29233   7.865  17.991  11.187
63974W        W29234  42.076  38.693  14.259
63975W        W29235  36.842  18.272  11.597
63976W        W29236   5.303  16.796  13.378
63977W        W29237  44.233  27.023   4.616
63978W        W29238  26.575   0.997   0.383
63979W        W29239  31.892  26.246  11.474
63980W        W29240  11.376  41.380  13.683
63981W        W29241  18.251   9.923  13.025
63982W        W29242  17.080  26.231   3.384
63983W        W29243  24.692   0.854  10.505
63984W        W29244  15.998  33.101   3.731
63985W        W29245  19.948  35.037  14.878
63986W        W29246  28.396  21.151   4.566
63987W        W29247   8.279  22.294   4.900
63988W        W29248   7.373  41.455  12.553
63989W        W29249  36.944   5.705   2.380
63990W        W29250  15.393   2.384   0.305
63991W        W29251  17.131  36.647  12.812
63992W        W29252  41.429  24.948  14.687
63993W        W29253   3.734  42.574  13.843
63994W        W29254  25.995  20.223   4.842
63995W        W29255  30.153  37.295  14.843
63996W        W29256  21.545  21.488   1.025
63997W        W29257   4.480  22.680   0.873
63998W        W29258  21.959  11.736   1.292
63999W        W29259  32.492  44.681   1.641
64000W        W29260  35.068  43.613   1.842
64001W        W29261  16.784  27.529   4.907
64002W        W29262  22.083   2.505   3.202
64003W        W29263  25.122  33.556   1.628
64004W        W29264   3.631  14.466  10.771
64005W        W29265  13.730  21.946  12.892
64006W        W29266  13.970  33.529   1.182
64007W        W29267  25.113  12.254  14.425
64008W        W29268   8.573  37.295  12.980
64009W        W29269  42.360  19.429   1.383
64010W        W29270  37.926   9.921   2.388
64011W        W29271  34.947  43.800   4.494
64012W        W29272  36.516  40.779   4.775
64013W        W29273  34.500  38.504  10.387
64014W        W29274  21.634  29.328  10.187
64015W        W29275  21.525  10.878  11.207
64016W        W29276  43.813  28.516   1.315
64017W        W29277  26.265   4.505   4.925
64018W        W29278  10.807  28.055   2.764
64019W        W29279  22.777  25.253  11.442
64020W        W29280  27.435  42.015  12.421
64021W        W29281  36.253   6.376  11.433
64022W        W29282  17.951   2.872   4.682
64023W        W29283  19.759  29.930   1.981
64024W        W29284   7.778  13.355  14.784
64025W        W29285  21.043   6.839   1.540
64026W        W29286  22.759  11.784  14.678
64027W        W29287   6.352   2.939   2.263
64028W        W29288  14.057  31.462  14.931
64029W        W29289  17.357  36.938   5.018
64030W        W29290  16.712   7.463  13.121
64031W        W29291  14.873   0.748   0.343
64032W        W29292  28.422  36.844   3.042
64033W        W29293   9.160  25.233  10.234
64034W        W29294  14.042  40.372  11.213
64035W        W29295  24.944  18.705  14.576
64036W        W29296  18.211  12.495  13.822
64037W        W29297  17.946   3.289   2.466
64038W        W29298  18.068   7.039  11.045
64039W        W29299   6.544  26.717  14.492
64040W        W29300  27.572  18.820  11.623
64041W        W29301  17.514   4.131   2.202
64042W        W29302  40.238  42.506  14.053
64043W        W29303  25.458  22.472  10.671
64044W        W29304   9.524  22.651  14.970
64045W        W29305   7.780  17.752  13.792
64046W        W29306   9.320  25.996  13.428
64047W        W29307  43.000  23.101  10.977
64048W        W29308   7.830   9.721   1.846
64049W        W29309  25.223   9.669  12.384
64050W        W29310   0.867   5.839   3.582
64051W        W29311  18.533  39.334   3.636
64052W        W29312  20.682   4.883  10.680
64053W        W29313  35.336  24.487   4.667
64054W        W29314  38.410  23.318  14.036
64055W        W29315  24.271  22.824   9.735
64056W        W29316  29.055  10.243  13.822
64057W        W29317  16.777  18.333  13.726
64058W        W29318  25.576   0.704   0.800
64059W        W29319  32.439  33.441   1.865
64060W        W29320   5.629  44.229  11.019
64061W        W29321  44.241  34.128   2.813
64062W        W29322   3.772  36.592  13.448
64063W        W29323  30.998  40.324   3.845
64064W        W29324   7.875  11.412   1.773
64065W        W29325  16.664   8.154  12.672
64066W        W29326  34.975  13.052  10.612
64067W        W29327  34.616  23.560  13.024
64068W        W29328   3.225   1.512  11.965
64069W        W29329   6.171  42.099   1.915
64070W        W29330  23.223  37.149  13.561
64071W        W29331  41.590   7.795   1.654
64072W        W29332   0.050  42.363  14.299
64073W        W29333  43.419  27.326  13.165
64074W        W29334  13.789   2.162   3.431
64075W        W29335  40.314  29.032  14.891
64076W        W29336   1.349  23.747   0.349
64077W        W29337  25.477   9.833   0.490
64078W        W29338   4.019  28.781   3.789
64079W        W29339  24.004  10.746   3.928
64080W        W29340  21.059   2.002  11.964
64081W        W29341  30.430  13.856  14.470
64082W        W29342  30.697  19.183   1.470
64083W        W29343  39.913  37.428   0.971
64084W        W29344  39.903  16.981  14.874
64085W        W29345   0.765  34.572  13.988
64086W        W29346  33.300   6.486  12.025
64087W        W29347   9.848  25.950   2.124
64088W        W29348  24.606  10.645  11.940
64089W        W29349  28.009  12.405   2.318
64090W        W29350  17.335   0.225   1.722
64091W        W29351  12.170  13.210  10.528
64092W        W29352   8.389  30.650   0.200
64093W        W29353  42.412  11.192  14.445
64094W        W29354  20.974  10.113   3.270
64095W        W29355  29.743  40.493   3.565
64096W        W29356  31.312  16.215  13.510
64097W        W29357  37.429  21.551   2.215
64098W        W29358  24.444  35.969   0.888
64099W        W29359  12.094   0.659  14.906
64100W        W29360  36.170  20.493  12.037
64101W        W29361  26.605  17.678   0.392
64102W        W29362  32.564   1.491   0.757
64103W        W29363  31.386  20.732   0.494
64104W        W29364  16.283  37.730  14.895
64105W        W29365  42.326  26.631  14.941
64106W        W29366  32.495  44.808   3.695
64107W        W29367   5.286   1.166   3.607
64108W        W29368  29.458  34.015  12.998
64109W        W29369  11.689  30.815  12.314
64110W        W29370  43.155  23.004  14.652
64111W        W29371  37.593  42.479  12.045
64112W        W29372   3.778  35.899   2.398
64113W        W29373  34.310  27.809   0.344
64114W        W29374  21.255  22.017   0.280
64115W        W29375  10.384  38.028   1.483
64116W        W29376  30.340   3.631   3.853
64117W        W29377  39.880  44.460   3.210
64118W        W29378   6.755  33.101  10.702
64119W        W29379   8.581  20.829  14.930
64120W        W29380  41.828  21.103   3.419
64121W        W29381  29.193  34.432  13.152
64122W        W29382  39.588  10.739   4.023
64123W        W29383   4.293  21.213   0.717
64124W        W29384  11.855  16.006   3.197
64125W        W29385   2.170  22.586   2.215
64126W        W29386  36.772  34.053  11.990
64127W        W29387  37.487  42.207  12.577
64128W        W29388  31.616  34.476  12.795
64129W        W29389  29.036  12.249   4.125
64130W        W29390  17.800  19.557  11.203
64131W        W29391  13.260  40.598   3.082
64132W        W29392   7.241  29.752  13.385
64133W        W29393   9.619  43.066  11.137
64134W        W29394  38.546   3.828  14.725
64135W        W29395  35.080   7.717   3.810
64136W        W29396  15.169  40.073   4.614
64137W        W29397   6.961  17.408   3.709
64138W        W29398   0.996  10.601  12.375
64139W        W29399  12.422  18.653  14.372
64140W        W29400   3.081  14.508   0.155
64141W        W29401   9.738  23.352   2.279
64142W        W29402   1.029  34.486   2.760
64143W        W29403  11.304  29.956   3.253
64144W        W29404  26.987   5.270  12.860
64145W        W29405   9.836   5.662   1.313
64146W        W29406  20.951  37.800  14.908
64147W        W29407  27.084  35.519   1.641
64148W        W29408  12.769  10.709  10.217
64149W        W29409  10.619  44.033  14.799
64150W        W29410  26.969  15.879   0.245
64151W        W29411   3.030  29.023  10.151
64152W        W29412  43.774  43.031  12.472
64153W        W29413  39.556   0.331   1.825
64154W        W29414  39.922   8.348  13.175
64155W        W29415  30.423   8.285   0.346
64156W        W29416  37.622  43.729   3.355
64157W        W29417   4.898  34.037   2.350
64158W        W29418  40.000  18.769  12.504
64159W        W29419  39.938  14.922   1.146
64160W        W29420  44.373  26.055  13.397
64161W        W29421  37.343   3.453  13.179
64162W        W29422  35.341  30.011  12.483
64163W        W29423  32.190   9.862  11.181
64164W        W29424   5.815   1.517  14.521
64165W        W29425  33.694  18.609  11.473
64166W        W29426  38.123  36.863  12.388
64167W        W29427  15.894   9.813  12.414
64168W        W29428  29.997   9.291  11.851
64169W        W29429  27.683   7.859  11.040
64170W        W29430  32.388   6.463  13.964
64171W        W29431  29.244   4.286   1.283
64172W        W29432  44.263   3.360  13.335
64173W        W29433  38.563  39.893   4.294
64174W        W29434  44.438  37.359  11.455
64175W        W29435  31.908  11.085   1.249
64176W        W29436  19.471  28.389   4.377
64177W        W29437  19.166  16.660   1.678
64178W        W29438  25.493  35.658  13.484
64179W        W29439  27.502  42.804   4.169
64180W        W29440  13.713  17.197   2.348
64181W        W29441  25.072   7.245   4.330
64182W        W29442  29.020  17.308  11.081
64183W        W29443  29.163  34.656   2.071
64184W        W29444  42.390  37.945   1.801
64185W        W29445  37.598  19.829  14.793
64186W        W29446  23.787  44.018  10.895
64187W        W29447  25.761  25.155   4.737
64188W        W29448   8.414  17.726   4.603
64189W        W29449  16.359   6.421   0.079
64190W        W29450  41.921  25.430  12.004
64191W        W29451  23.241  13.065  13.417
64192W        W29452  14.075  21.742   2.256
64193W        W29453  19.654  19.519  12.814
64194W        W29454  20.346   1.696  14.439
64195W        W29455  27.449  22.956  13.594
64196W        W29456  38.729  10.656  11.534
64197W        W29457   5.037  18.126  11.648
64198W        W29458  42.097   3.961  11.685
64199W        W29459  40.267  41.926   0.382
64200W        W29460   8.287  14.091  13.057
64201W        W29461  12.671  10.890   2.575
64202W        W29462  18.592   6.466  14.485
64203W        W29463   4.432  26.943  11.132
64204W        W29464  29.038   4.211   1.768
64205W        W29465  12.125  14.359  13.008
64206W        W29466   3.957   2.779   4.656
64207W        W29467  35.973  43.070  13.094
64208W        W29468  19.503  15.288  14.127
64209W        W29469   6.082  23.851  11.945
64210W        W29470  36.995  18.502   2.400
64211W        W29471  12.084  33.547   1.333
64212W        W29472  37.419  36.238  13.516
64213W        W29473  31.063  35.408   4.853
64214W        W29474   3.836  42.385  10.656
64215W        W29475  18.455  43.860   0.439
64216W        W29476  42.758  18.542   2.562
64217W        W29477  24.530   7.697   3.854
64218W        W29478  22.198  27.633   0.116
64219W        W29479  22.758   2.908  14.842
64220W        W29480  43.697  21.637   3.235
64221W        W29481  12.364  19.791  10.748
64222W        W29482  28.180  35.252   1.304
64223W        W29483  23.692  43.724  13.968
64224W        W29484  18.687  13.792  13.400
64225W        W29485  41.002  23.053  11.283
64226W        W29486  19.440   3.427   1.286
64227W        W29487  14.084  38.181  12.472
64228W        W29488  35.860  30.621   2.744
64229W        W29489  38.567  37.587   1.430
64230W        W29490  24.562  11.392   0.517
64231W        W29491  44.137   5.473  13.552
64232W        W29492  36.926  24.514  14.210
64233W        W29493   8.937  38.891   4.188
64234W        W29494  22.344   7.627   1.290
64235W        W29495  39.523   1.511  13.540
64236W        W29496  10.997  39.867  13.028
64237W        W29497   0.163   6.700  14.923
64238W        W29498   0.956   3.354   3.279
64239W        W29499  37.830  40.321  14.795
64240W        W29500  16.327  21.704  13.366
64241W        W29501   3.540  37.542   4.379
64242W        W29502   8.272  21.026   2.277
64243W        W29503  22.252  17.351   0.503
64244W        W29504  37.943  22.937  14.882
64245W        W29505   3.984  14.232  12.889
64246W        W29506  17.154   7.371  12.818
64247W        W29507  36.259   7.362   1.905
64248W        W29508  24.035  27.488   1.351
64249W        W29509  42.373  29.020   0.683
64250W        W29510  14.325  15.718  10.973
64251W        W29511   4.844  15.519   2.780
64252W        W29512   9.704  35.967  12.333
64253W        W29513  33.225  33.482  10.309
64254W        W29514  18.360  36.651  13.432
64255W        W29515   2.940  18.663  11.044
64256W        W29516  27.874  17.596  10.717
64257W        W29517  17.759  22.971   2.718
64258W        W29518  43.324  11.852   0.646
64259W        W29519  35.123  16.712   0.362
64260W        W29520   8.485  15.216  14.765
64261W        W29521  33.863  34.801   2.782
64262W        W29522  15.714  11.321  13.610
64263W        W29523  34.137  24.039   1.354
64264W        W29524  22.157   1.484  11.811
64265W        W29525  33.510  34.492   0.049
64266W        W29526  20.366  24.838   4.792
64267W        W29527   8.712  42.293  14.908
64268W        W29528  19.012  44.962   2.350
64269W        W29529  20.068   1.448   4.487
64270W        W29530   4.625  23.133   2.710
64271W        W29531  22.802  17.639   1.424
64272W        W29532  16.855  16.759  14.266
64273W        W29533   9.303  12.023  12.893
64274W        W29534  17.039  22.628   2.777
64275W        W29535  41.537  43.252  14.378
64276W        W29536   4.566  23.200  13.328
64277W        W29537   4.972  35.595  12.085
64278W        W29538  43.995   4.545   3.627
64279W        W29539  17.741  26.587  11.885
64280W        W29540  26.008  20.552  11.224
64281W        W29541  23.254   5.237  11.922
64282W        W29542  26.061  37.749  11.463
64283W        W29543  14.209  37.809   3.694
64284W        W29544  34.495  18.400  12.027
64285W        W29545   7.401  26.944   1.274
64286W        W29546   1.772   6.121   1.273
64287W        W29547  39.629  32.905   4.324
64288W        W29548  22.512  19.349   3.241
64289W        W29549  44.251   4.205   0.916
64290W        W29550  16.340   2.198  11.253
64291W        W29551   2.243   2.451   4.436
64292W        W29552  36.570  27.313  10.042
64293W        W29553  44.732  20.975  13.039
64294W        W29554   9.828  11.062  10.696
64295W        W29555   4.684  28.562  11.601
64296W        W29556  18.946  33.932   4.155
64297W        W29557  25.783  40.353  13.399
64298W        W29558   9.654   1.638   1.349
64299W        W29559   5.263  14.008  10.552
64300W        W29560  35.308  19.091  14.340
64301W        W29561  14.243  17.520   3.920
64302W        W29562   4.422  11.910  11.129
64303W        W29563  26.131  30.778   3.337
64304W        W29564  13.192  41.880   2.783
64305W        W29565  19.047  22.171   2.643
64306W        W29566  15.437   3.590   1.404
64307W        W29567  18.183  18.974  11.978
64308W        W29568  10.773   9.181   1.304
64309W        W29569  10.113  41.395  14.040
64310W        W29570   6.214   6.311  12.912
64311W        W29571  36.297  20.998  14.878
64312W        W29572   5.763   4.885   3.853
64313W        W29573  27.615  24.149  13.037
64314W        W29574  13.241  11.660  14.513
64315W        W29575  31.979  33.592   3.812
64316W        W29576   6.156   5.460  14.370
64317W        W29577   3.762  35.378  10.693
64318W        W29578  32.665  43.778  14.414
64319W        W29579  13.145  42.394  14.412
64320W        W29580  38.193  42.528  14.271
64321W        W29581  12.544  27.451  10.666
64322W        W29582  35.017  10.956  12.448
64323W        W29583  32.295  43.237  13.498
64324W        W29584  26.892   5.357  13.925
64325W        W29585  11.910   5.947   3.186
64326W        W29586   7.856  37.328  11.443
64327W        W29587  34.444   5.698  12.976
64328W        W29588  25.027  34.920  13.861
64329W        W29589  38.686  43.240  13.366
64330W        W29590  26.228  15.674  13.969
64331W        W29591  32.848  37.404   0.801
64332W        W29592   3.387   7.243  13.412
64333W        W29593  42.218  23.161   1.289
64334W        W29594  12.814  41.386  12.558
64335W        W29595  20.582  11.984  11.024
64336W        W29596  25.335  26.129   2.764
64337W        W29597  33.497  42.404   0.355
64338W        W29598   5.802  32.915  14.301
64339W        W29599  26.971  19.269  11.621
64340W        W29600  24.887  39.790  12.419
64341W        W29601   3.191  23.520  10.852
64342W        W29602  35.078  41.573  10.721
64343W        W29603  21.185   5.826  12.856
64344W        W29604  40.012  24.164   1.679
64345W        W29605  43.213  18.779   1.017
64346W        W29606  29.290  24.718   4.578
64347W        W29607  31.494  34.013  11.812
64348W        W29608  41.365  26.488   1.331
64349W        W29609   2.353  11.197   2.181
64350W        W29610  28.612  13.078  11.171
64351W        W29611   6.521  36.040   4.494
64352W        W29612   5.398  27.689  13.763
64353W        W29613   8.503  24.552  14.056
64354W        W29614  10.220  23.261   3.617
64355W        W29615  22.686  20.756   0.429
64356W        W29616   9.132   7.825   3.181
64357W        W29617  40.604  11.069   5.358
64358W        W29618  31.934  22.457   4.124
64359W        W29619  35.656  15.350   4.267
64360W        W29620   5.416  35.976  11.967
64361W        W29621  26.114   2.991   2.827
64362W        W29622  26.646  36.582  13.520
64363W        W29623  23.468  37.878   0.336
64364W        W29624  17.625  33.537  13.853
64365W        W29625   0.662  30.731  11.661
64366W        W29626  16.529  22.622  13.837
64367W        W29627  31.036  33.525  13.469
64368W        W29628  39.937  10.349  13.984
64369W        W29629   3.782   7.402  10.747
64370W        W29630   4.831  19.816  12.980
64371W        W29631  34.409  16.192   2.458
64372W        W29632  34.598  29.511   0.464
64373W        W29633  42.867  23.696  13.566
64374W        W29634  43.350  20.272  11.126
64375W        W29635  28.251  23.294  10.767
64376W        W29636  13.163  28.162   0.075
64377W        W29637  23.051  38.627  14.355
64378W        W29638  39.047  20.578   0.637
64379W        W29639  41.824  14.476   4.567
64380W        W29640  23.536  14.029   4.092
64381W        W29641  12.808  11.914  14.354
64382W        W29642  32.747   8.799   0.939
64383W        W29643  24.772  26.979   2.177
64384W        W29644   0.664  29.138   4.920
64385W        W29645  12.065  42.560  12.364
64386W        W29646   0.492  23.532   2.307
64387W        W29647  43.749  26.228   2.665
64388W        W29648  37.397  43.994   2.309
64389W        W29649  16.410  10.599  13.942
64390W        W29650  40.100  20.000   1.630
64391W        W29651   0.370   1.669   0.878
64392W        W29652  10.360  41.574  10.339
64393W        W29653  26.140  37.193   4.031
64394W        W29654  34.999  19.027  12.042
64395W        W29655  38.025  28.542   3.184
64396W        W29656  40.094  41.733  12.479
64397W        W29657  12.829   7.326  12.885
64398W        W29658  17.191   8.422   3.002
64399W        W29659  15.229  34.462  14.344
64400W        W29660  28.876  17.596  14.480
64401W        W29661  30.392  23.149  11.412
64402W        W29662  27.109  10.424  10.646
64403W        W29663  21.036  42.318   1.430
64404W        W29664   5.137  23.317  14.874
64405W        W29665  10.886  29.703  12.487
64406W        W29666  13.690  29.282   3.629
64407W        W29667  18.712  33.631   0.022
64408W        W29668   7.155  43.925  13.726
64409W        W29669  42.319  14.483   4.267
64410W        W29670  43.575  17.633   4.542
64411W        W29671  44.053  12.133  12.881
64412W        W29672  17.112  19.254  12.094
64413W        W29673  23.923  34.659   2.242
64414W        W29674   1.673   3.954   0.752
64415W        W29675   7.225   3.991  11.812
64416W        W29676  44.427  36.629  13.033
64417W        W29677  33.583  31.390   0.726
64418W        W29678  40.878  16.698   4.216
64419W        W29679  24.391  34.648   3.566
64420W        W29680  29.379  30.683  11.612
64421W        W29681  13.091  21.232  14.499
64422W        W29682  37.045  10.346   3.738
64423W        W29683   6.977  10.611   3.266
64424W        W29684  32.668   4.359   4.490
64425W        W29685  15.024  35.765  11.602
64426W        W29686  41.466  17.618   0.293
64427W        W29687  29.735   3.467   0.787
64428W        W29688  26.032  43.481   3.632
64429W        W29689  37.367   4.800   3.694
64430W        W29690   4.288   1.190  12.813
64431W        W29691  24.745  30.604   3.689
64432W        W29692   0.729   4.300   2.789
64433W        W29693   4.152  43.437  12.692
64434W        W29694  34.051  11.903   2.939
64435W        W29695   9.593   6.267  12.200
64436W        W29696  25.517   2.354  11.211
64437W        W29697  40.860  16.461   1.293
64438W        W29698  12.311  44.736   0.971
64439W        W29699  21.661  41.411  13.060
64440W        W29700  32.461  21.275   4.177
64441W        W29701   0.195  42.082   4.417
64442W        W29702  18.010  14.212   4.381
64443W        W29703   3.378  16.111   3.842
64444W        W29704  43.208  43.987  14.280
64445W        W29705   1.290  40.027   3.265
64446W        W29706  26.984  36.342  11.031
64447W        W29707  34.583  39.459   4.755
64448W        W29708  27.603  30.531  14.369
64449W        W29709  13.742  22.073   0.252
64450W        W29710  26.174  36.935   4.994
64451W        W29711   9.274  34.908   0.025
64452W        W29712  36.106  19.063  13.932
64453W        W29713  15.269  13.664   0.060
64454W        W29714   4.677   5.429  10.920
64455W        W29715   4.500  42.420   2.683
64456W        W29716  42.275   5.138   1.400
64457W        W29717  31.561   3.510   0.752
64458W        W29718  30.141  31.589   2.531
64459W        W29719   5.210  13.517   1.609
64460W        W29720  25.229  44.922   3.847
64461W        W29721   3.950   6.469  13.290
64462W        W29722  30.227  34.306  12.862
64463W        W29723   8.036   0.429  13.395
64464W        W29724  22.241  40.327  14.609
64465W        W29725  41.031  20.843  12.224
64466W        W29726  24.454  41.928   4.780
64467W        W29727  10.486   1.043  12.014
64468W        W29728  20.423  38.056  11.783
64469W        W29729  42.966   9.200  14.006
64470W        W29730  42.752  32.405  10.994
64471W        W29731  15.343  29.058   2.286
64472W        W29732  15.135  31.882   0.852
64473W        W29733  29.743  42.562   4.145
64474W        W29734  22.188   4.023  13.475
64475W        W29735   1.408  28.247  11.510
64476W        W29736  42.826  19.737   4.746
64477W        W29737   3.406  15.033   2.613
64478W        W29738  11.330  32.968  12.125
64479W        W29739  37.802  21.167   2.352
64480W        W29740  22.709  15.830  11.743
64481W        W29741  26.556  29.222  14.839
64482W        W29742  12.525  14.051  12.900
64483W        W29743  27.004  41.608   3.656
64484W        W29744  12.831  23.099  12.810
64485W        W29745  12.674  31.206   2.277
64486W        W29746  32.308  41.333  11.493
64487W        W29747  22.036  17.512   4.988
64488W        W29748  29.604  16.189   3.766
64489W        W29749   1.523   8.189  11.179
64490W        W29750  43.510   7.652  14.746
64491W        W29751  21.476   0.864  11.049
64492W        W29752   2.946   6.031  12.641
64493W        W29753  20.444  20.734  14.141
64494W        W29754  10.304  15.574  14.409
64495W        W29755  28.050   3.389   0.290
64496W        W29756  26.650  21.798  14.866
64497W        W29757   1.008  33.994   0.448
64498W        W29758  42.354  44.089  12.072
64499W        W29759  22.528  31.716  12.090
64500W        W29760  30.953  23.810   2.864
64501W        W29761  44.985  35.647   0.280
64502W        W29762  19.760  16.189  14.977
64503W        W29763  33.560  22.928   3.624
64504W        W29764  20.807  36.223  12.122
64505W        W29765   3.475  33.075   3.600
64506W        W29766  34.511  42.210   0.031
64507W        W29767  43.275  40.016   2.119
64508W        W29768  12.350  33.049  12.199
64509W        W29769  37.441   3.314   0.880
64510W        W29770   7.285  35.567   2.113
64511W        W29771  14.827  14.308  13.780
64512W        W29772  14.428  11.727  14.007
64513W        W29773  20.844  15.449  11.913
64514W        W29774  20.130  13.774   4.874
64515W        W29775  38.397   8.829  11.687
64516W        W29776  16.304  29.280   1.632
64517W        W29777  20.922  14.737  11.278
64518W        W29778  14.743  35.758   4.249
64519W        W29779   6.689   7.402   4.265
64520W        W29780   7.678  42.986  14.177
64521W        W29781  19.712  39.045   4.320
64522W        W29782  22.576  25.956  14.421
64523W        W29783  12.259  24.720   3.697
64524W        W29784  30.927   8.215   4.628
64525W        W29785  25.426   1.391   0.352
64526W        W29786   8.634  26.737  13.434
64527W        W29787  23.227  41.069  14.101
64528W        W29788  35.739  20.805  10.858
64529W        W29789   0.300  24.693   0.751
64530W        W29790   6.283  19.833   2.726
64531W        W29791  43.364   3.995  11.090
64532W        W29792   8.180  30.389  13.809
64533W        W29793  12.592  17.522  12.524
64534W        W29794  18.043  33.134   2.733
64535W        W29795  20.704  10.636   1.804
64536W        W29796   2.280  36.419  10.574
64537W        W29797  31.765  39.357  14.954
64538W        W29798  17.373  17.164   2.321
64539W        W29799  40.780  23.780   3.876
64540W        W29800  42.388  11.863   0.885
64541W        W29801   2.501  21.090   4.206
64542W        W29802  16.671   7.618   0.823
64543W        W29803  24.492  44.678  10.644
64544W        W29804  43.209   8.703  11.057
64545W        W29805   3.843   2.879   0.784
64546W        W29806  32.388  37.003  13.067
64547W        W29807  20.851  15.757  10.595
64548W        W29808   1.324  44.227  14.421
64549W        W29809   5.242   2.087   0.459
64550W        W29810  42.144  39.238  14.286
64551W        W29811  11.830   0.033  13.712
64552W        W29812  30.981  30.069   3.657
64553W        W29813   9.933  35.648   0.363
64554W        W29814  37.468   4.260   3.202
64555W        W29815  36.853   6.919  13.683
64556W        W29816  33.594   2.369  12.114
64557W        W29817  34.516   6.039   1.455
64558W        W29818  27.449  11.130   3.657
64559W        W29819  41.276  15.101   2.102
64560W        W29820  11.778  42.469  11.113
64561W        W29821  24.184  33.874  14.829
64562W        W29822  11.259   5.840   4.571
64563W        W29823  32.482  29.479   4.499
64564W        W29824  17.090  15.579  10.647
64565W        W29825  43.533   5.939   4.075
64566W        W29826  43.116   1.040   1.655
64567W        W29827  16.673   7.107   0.812
64568W        W29828  11.424  17.632   0.339
64569W        W29829  25.537  19.031  11.525
64570W        W29830  33.464  36.493  10.007
64571W        W29831   3.979   4.806   0.866
64572W        W29832  42.530  15.042   0.147
64573W        W29833   7.201  28.495   0.186
64574W        W29834  44.025  33.316  12.774
64575W        W29835  28.293   1.505   1.696
64576W        W29836  12.365  39.937  11.898
64577W        W29837  14.132   5.745  12.670
64578W        W29838  17.644  34.152  11.042
64579W        W29839  36.423  20.092   1.242
64580W        W29840  37.089  30.254  13.468
64581W        W29841  19.782  19.445  11.119
64582W        W29842  38.279   4.173   2.743
64583W        W29843  23.275  38.977   1.135
64584W        W29844  38.213   8.330   4.992
64585W        W29845  12.401  35.960   2.408
64586W        W29846  11.395  41.615   4.200
64587W        W29847  22.315  24.616  11.984
64588W        W29848  44.665  24.589  10.740
64589W        W29849   3.881   5.839   3.379
64590W        W29850  20.127  20.513  13.361
64591W        W29851   5.627  28.858   5.813
64592W        W29852  19.672  31.921   4.610
64593W        W29853   7.290   4.544   2.247
64594W        W29854   1.454  25.037   3.285
64595W        W29855  28.949  14.963  14.755
64596W        W29856  28.194  29.726  13.919
64597W        W29857  41.926  20.700   4.694
64598W        W29858  18.793   2.645  13.814
64599W        W29859   1.245  32.874  11.781
64600W        W29860  10.646   3.296   2.738
64601W        W29861  28.462   8.576  10.790
64602W        W29862  41.035  19.211   0.753
64603W        W29863  39.901  15.908  12.575
64604W        W29864  32.352  39.903   3.558
64605W        W29865  10.205   1.464   1.918
64606W        W29866  41.240  17.593  10.490
64607W        W29867  18.144  18.282   4.162
64608W        W29868  41.415  21.228  11.328
64609W        W29869  44.716  33.840  11.202
64610W        W29870  41.539  40.953  10.614
64611W        W29871   3.983  23.452   3.711
64612W        W29872  20.254   1.964   4.524
64613W        W29873  34.453   5.798  14.729
64614W        W29874  27.375  32.230   2.152
64615W        W29875  12.854  27.196   4.427
64616W        W29876  27.925   1.399   0.381
64617W        W29877  42.042  39.385  14.989
64618W        W29878  26.876  39.994  10.835
64619W        W29879  43.474  40.273   4.697
64620W        W29880  17.925   7.166   4.646
64621W        W29881  25.556  44.270   3.392
64622W        W29882  31.952  37.460   1.637
64623W        W29883  34.985   6.473  10.772
64624W        W29884  26.394  26.572  12.086
64625W        W29885  36.529  26.847  10.281
64626W        W29886  24.694  13.668  11.930
64627W        W29887  40.788  21.520  12.963
64628W        W29888  19.642   6.900   2.313
64629W        W29889  35.555  34.054  13.805
64630W        W29890  13.618  11.949  13.409
64631W        W29891  27.492  42.498   1.186
64632W        W29892  22.681  24.547   1.229
64633W        W29893  23.984  36.167   0.719
64634W        W29894  26.280  19.228   2.271
64635W        W29895  28.961  34.515   4.937
64636W        W29896  15.240  42.894   0.989
64637W        W29897  36.932  39.859  11.289
64638W        W29898  27.459   6.010  13.371
64639W        W29899  32.174  22.722   3.743
64640W        W29900   9.541   4.328  11.563
64641W        W29901   7.772  42.924   2.816
64642W        W29902  44.560  18.139  11.190
64643W        W29903  25.071  33.013  13.483
64644W        W29904  31.613  12.304  11.457
64645W        W29905  18.394  33.514  10.586
64646W        W29906  21.177   3.508  11.181
64647W        W29907  31.707   5.273   4.151
64648W        W29908  32.162  14.162  14.845
64649W        W29909  38.474  44.788  12.023
64650W        W29910  34.156   3.503   4.687
64651W        W29911  39.025   6.381  11.193
64652W        W29912   2.752   3.108   3.016
64653W        W29913  17.929  44.871  13.421
64654W        W29914  41.479  19.548  12.336
64655W        W29915   9.882  30.953  10.749
64656W        W29916  33.951   7.377   3.659
64657W        W29917  15.321  16.780  10.739
64658W        W29918   1.775  12.293   0.706
64659W        W29919  13.727  30.401   2.380
64660W        W29920  23.080   4.743   3.458
64661W        W29921  44.059   4.562   1.736
64662W        W29922  25.633  31.410   3.058
64663W        W29923   6.892  37.844   3.219
64664W        W29924  16.691  28.415   3.637
64665W        W29925  26.557  28.202   0.709
64666W        W29926  42.531  24.530  13.407
64667W        W29927   4.714  40.196  12.220
64668W        W29928  33.915  15.211  10.600
64669W        W29929  18.179  34.552   0.804
64670W        W29930  18.138   6.333  14.239
64671W        W29931  23.988  12.658  13.797
64672W        W29932  32.315  28.011   4.797
64673W        W29933  41.458  32.614   3.948
64674W        W29934   2.671  44.466   5.108
64675W        W29935  19.742  35.132  12.076
64676W        W29936  11.875  12.791   1.733
64677W        W29937  15.746  39.727   0.305
64678W        W29938  39.100  19.255   3.918
64679W        W29939   8.568   0.880  14.739
64680W        W29940  41.725  37.358  12.032
64681W        W29941  37.614  41.380   1.274
64682W        W29942   1.178  26.053   0.849
64683W        W29943  15.677  44.286   0.014
64684W        W29944   6.750   0.648   0.349
64685W        W29945  28.928  42.526  12.193
64686W        W29946  35.889   9.233   3.608
64687W        W29947  20.702  24.522  13.142
64688W        W29948  44.768  10.485   5.140
64689W        W29949  31.891  31.319  13.334
64690W        W29950   8.074   9.616   3.233
64691W        W29951   9.278  11.406  10.452
64692W        W29952   9.905  39.297   4.422
64693W        W29953   4.806  31.440  14.032
64694W        W29954   5.603  42.057   2.788
64695W        W29955   8.910  28.252  13.862
64696W        W29956  27.498  21.652  12.441
64697W        W29957  41.619  25.706   4.491
64698W        W29958  23.664  17.117  11.200
64699W        W29959  35.951  32.413   0.233
64700W        W29960  26.569  12.167  13.345
64701W        W29961   9.963  36.852  13.868
64702W        W29962  11.645   9.194  10.219
64703W        W29963   9.586   7.412  13.268
64704W        W29964  16.296  32.339  12.376
64705W        W29965   9.360  23.029  12.528
64706W        W29966  26.047  35.505  11.575
64707W        W29967  10.863   8.126   1.289
64708W        W29968  31.071   8.376  11.082
64709W        W29969  11.813  38.073   4.612
64710W        W29970  30.927  41.925  12.886
64711W        W29971  44.484  37.886  13.437
64712W        W29972   9.163  23.196   0.219
64713W        W29973   4.853  21.254   0.003
64714W        W29974   2.185  23.681   0.748
64715W        W29975  28.950  21.744   4.325
64716W        W29976   0.653  34.698  11.968
64717W        W29977   1.153  28.582  13.570
64718W        W29978  13.439  15.938   4.924
64719W        W29979  21.622  35.691  13.658
64720W        W29980  13.308  24.525   1.241
64721W        W29981  20.423  28.142   0.555
64722W        W29982   3.256  37.803   0.694
64723W        W29983  15.381  27.014   3.256
64724W        W29984  11.261  40.894   4.629
64725W        W29985  33.161  10.471  12.371
64726W        W29986  17.235  25.132  14.056
64727W        W29987  26.525  14.575   1.852
64728W        W29988  27.608  33.042  12.489
64729W        W29989  15.549  31.523  11.003
64730W        W29990  41.790  38.443   3.313
64731W        W29991   9.171   6.404  14.014
64732W        W29992  14.534  18.365  13.365
64733W        W29993  21.577  30.441   1.786
64734W        W29994  42.308  44.305   3.165
64735W        W29995  33.790  36.961  14.459
64736W        W29996  28.603   4.858   1.958
64737W        W29997  22.190   1.883   4.568
64738W        W29998  22.282  12.655  14.598
64739W        W29999   5.970   8.750  13.388
64740W        W30000  27.584  30.642  10.730
64741W        W30001  19.680  13.410  10.516
64742W        W30002  34.939  33.911  12.445
64743W        W30003   5.271   7.798   4.778
64744W        W30004  22.056  27.169   3.156
64745W        W30005  15.560   8.665   0.371
64746W        W30006  28.704  42.724   2.740
64747W        W30007  19.915  32.554  12.921
64748W        W30008  44.010   2.437   4.558
64749W        W30009  18.299  31.496  12.685
64750W        W30010  37.359   8.328  14.394
64751W        W30011  41.349  22.203  10.685
64752W        W30012   8.048  27.839   4.507
64753W        W30013  15.865   8.574   4.644
64754W        W30014  34.022  27.536   0.910
64755W        W30015  13.702  18.471   2.696
64756W        W30016  18.188  41.502  11.930
64757W        W30017  12.350  33.657  14.611
64758W        W30018  44.723   3.889  10.625
64759W        W30019   1.755  40.000  11.418
64760W        W30020   5.413  29.522  11.847
64761W        W30021  44.899  18.879   0.764
64762W        W30022   7.190  25.188  14.940
64763W        W30023   0.097   3.802   3.299
64764W        W30024  28.945  23.442   1.427
64765W        W30025  21.785  10.928  14.563
64766W        W30026   3.717   0.506  12.556
64767W        W30027   3.244   4.482  11.995
64768W        W30028   4.015  10.129  12.637
64769W        W30029   5.265  28.701   1.366
64770W        W30030  33.923  17.028   1.710
64771W        W30031  40.531  35.435   0.332
64772W        W30032  24.854   8.310  13.553
64773W        W30033  23.816  30.903   5.155
64774W        W30034  19.516   2.259   3.153
64775W        W30035  40.093   5.773  14.388
64776W        W30036  39.936  36.068  10.586
64777W        W30037  26.064   8.345   1.692
64778W        W30038  44.465  27.592  12.769
64779W        W30039  37.272  28.641  13.000
64780W        W30040  28.564  29.698   4.118
64781W        W30041  36.544   2.015   3.100
64782W        W30042  15.525  15.658   1.744
64783W        W30043  40.541   2.475  10.231
64784W        W30044   9.920   1.375  12.910
64785W        W30045  31.982   4.326  11.015
64786W        W30046  34.984  30.956   1.849
64787W        W30047   9.335   5.216  12.456
64788W        W30048  40.491  24.646   0.383
64789W        W30049  14.597  35.325   3.009
64790W        W30050  38.473  13.049  10.569
64791W        W30051   9.346  20.759   0.906
64792W        W30052  18.404  12.064  14.734
64793W        W30053  26.115  13.687  12.457
64794W        W30054   8.479   2.947  12.952
64795W        W30055  21.589  27.701   3.580
64796W        W30056  31.268  38.027   2.676
64797W        W30057   9.125  33.870   0.596
64798W        W30058   4.705  31.685  11.034
64799W        W30059  39.423  27.465  13.446
64800W        W30060   5.688   7.954  13.839
64801W        W30061  26.572  15.344  11.543
64802W        W30062  25.222  16.715  14.126
64803W        W30063   2.327   0.346  10.344
64804W        W30064  43.432  40.545  12.463
64805W        W30065  40.859   8.382  12.355
64806W        W30066   7.853  17.115   2.657
64807W        W30067   9.599  35.067  10.929
64808W        W30068  32.076  22.629  11.151
64809W        W30069   2.991   1.192  12.293
64810W        W30070   6.186  24.187   3.710
64811W        W30071   5.720   8.729   3.664
64812W        W30072  44.956  12.859   2.361
64813W        W30073  14.905   5.414  12.441
64814W        W30074  38.931  11.272  10.700
64815W        W30075  23.145  33.360   3.879
64816W        W30076  19.691  19.190   0.612
64817W        W30077   1.440  20.732   2.523
64818W        W30078   7.368   2.392  11.636
64819W        W30079   6.877  13.302   0.611
64820W        W30080   0.879   5.185  10.698
64821W        W30081  17.849   1.957   4.564
64822W        W30082  28.096  10.203   0.351
64823W        W30083  13.521   8.617   3.648
64824W        W30084  18.575   1.970   1.398
64825W        W30085   6.844  41.891   2.341
64826W        W30086  44.874  41.739  13.384
64827W        W30087  20.264  14.461   3.694
64828W        W30088   8.632  14.733   3.859
64829W        W30089  35.079   0.785  14.017
64830W        W30090  13.504   0.219   1.275
64831W        W30091  38.193  29.896   0.204
64832W        W30092  13.188  16.266  12.626
64833W        W30093  22.177   0.040   4.189
64834W        W30094  44.207  44.970  13.751
64835W        W30095  33.666   1.343   3.401
64836W        W30096  37.864  40.921   4.624
64837W        W30097   4.378  21.052   0.174
64838W        W30098  23.614  13.908  14.105
64839W        W30099  32.351  25.876   2.075
64840W        W30100  15.548   5.716  11.812
64841W        W30101  29.985  16.423  10.799
64842W        W30102  30.397  37.509   2.443
64843W        W30103  42.493  23.482   0.998
64844W        W30104  27.669  34.424   4.023
64845W        W30105  42.224  19.171  12.107
64846W        W30106  12.385  35.583  11.686
64847W        W30107  29.819   3.354  13.419
64848W        W30108   7.851   6.366   2.655
64849W        W30109  43.281  13.682  12.969
64850W        W30110  29.363  21.116   4.517
64851W        W30111  19.883  21.809   1.823
64852W        W30112   4.763   2.821   3.432
64853W        W30113  20.309   0.830   2.652
64854W        W30114  20.240  17.817   3.033
64855W        W30115  42.920   2.967   0.516
64856W        W30116  23.342  20.212   3.506
64857W        W30117  22.084  33.511  12.024
64858W        W30118  10.811  36.473  14.317
64859W        W30119   1.217  20.489  11.820
64860W        W30120  13.130  18.596   1.978
64861W        W30121  17.878  21.699  11.725
64862W        W30122  36.868  12.716  11.017
64863W        W30123  44.463  12.078  13.631
64864W        W30124   0.961   9.725   0.440
64865W        W30125   3.309   7.011   3.752
64866W        W30126  11.368  18.290  11.570
64867W        W30127  27.579  42.555  14.096
64868W        W30128  22.281  22.841   0.322
64869W        W30129   4.212  33.715   0.105
64870W        W30130  33.163   4.904   2.726
64871W        W30131   8.159  25.151  13.888
64872W        W30132  31.601  13.380  11.957
64873W        W30133  44.025  17.997   1.373
64874W        W30134  21.437  26.409   1.144
64875W        W30135  28.920   1.414   3.171
64876W        W30136  34.972  25.969  10.097
64877W        W30137  44.892  33.388   1.833
64878W        W30138  31.188  17.349   1.407
64879W        W30139  21.319  38.886  11.506
64880W        W30140  29.293  23.185  11.897
64881W        W30141  41.124  10.798   1.484
64882W        W30142  33.292  11.155  13.052
64883W        W30143  20.968   3.182   4.610
64884W        W30144  30.946  25.410  11.751
64885W        W30145  43.815  43.954   0.705
64886W        W30146  37.349   3.820   2.750
64887W        W30147  29.927  12.728  13.012
64888W        W30148  31.206  34.520  13.784
64889W        W30149  44.504  42.610  10.817
64890W        W30150  44.049  31.926   1.756
64891W        W30151   6.314   6.947  13.416
64892W        W30152   1.973   0.920   0.918
64893W        W30153   4.941   0.969   1.703
64894W        W30154  40.828  27.394   1.393
64895W        W30155  17.083  15.338  13.022
64896W        W30156  34.861  15.259   0.921
64897W        W30157  13.350   4.473  13.321
64898W        W30158   4.608  26.800  14.947
64899W        W30159   7.737  19.191   1.306
64900W        W30160  16.694  42.017  12.482
64901W        W30161  36.314  11.362  13.384
64902W        W30162  28.964   6.683  11.624
64903W        W30163   2.734  22.797  13.517
64904W        W30164   1.449  14.843  13.833
64905W        W30165  41.564  40.492   3.263
64906W        W30166   3.238   5.957  12.194
64907W        W30167  43.979  26.549   4.307
64908W        W30168  14.288   9.242   4.552
64909W        W30169  36.373  26.931  14.485
64910W        W30170  34.036  26.659   0.565
64911W        W30171  33.563  11.639   3.673
64912W        W30172  31.926  27.487   3.987
64913W        W30173  39.945   3.640  10.634
64914W        W30174  12.855   6.905   0.777
64915W        W30175  25.042  26.644   1.852
64916W        W30176  15.341  21.205   3.852
64917W        W30177   1.448  10.687  11.451
64918W        W30178  33.846  27.096  13.895
64919W        W30179   0.949   2.366   1.360
64920W        W30180  32.957  13.624  12.152
64921W        W30181  11.750   1.932  13.337
64922W        W30182   3.714  24.110   2.116
64923W        W30183  14.856  22.947  10.686
64924W        W30184  20.207  10.915  14.777
64925W        W30185  32.170  14.356   4.225
64926W        W30186  43.495   7.152  13.962
64927W        W30187  10.137  35.048  13.513
64928W        W30188  31.212  43.032   2.643
64929W        W30189  26.427   3.775   2.365
64930W        W30190  21.766  28.430  12.017
64931W        W30191  22.143  20.702  12.814
64932W        W30192   1.529  15.324  13.471
64933W        W30193  14.367  29.902   2.223
64934W        W30194  29.608  44.221   1.594
64935W        W30195  29.840  19.180  11.488
64936W        W30196  41.467  33.541   2.767
64937W        W30197  20.844  10.330   0.882
64938W        W30198   4.216  38.484  10.679
64939W        W30199   6.610   1.577   3.300
64940W        W30200  42.868  35.302   4.121
64941W        W30201  32.629  42.205   1.447
64942W        W30202  30.203  20.748  12.568
64943W        W30203   1.480  10.469   1.754
64944W        W30204  23.206  17.793  11.098
64945W        W30205  20.002  34.139  13.518
64946W        W30206  10.690   4.937  11.170
64947W        W30207  31.092  18.699  13.344
64948W        W30208  35.563  29.441   2.440
64949W        W30209  34.069   1.720  11.974
64950W        W30210   3.420  11.737  12.532
64951W        W30211  34.047  11.595  13.524
64952W        W30212  43.221  12.271   3.546
64953W        W30213  26.621  27.895  14.328
64954W        W30214  35.664  29.959  13.113
64955W        W30215   7.875  31.115   4.098
64956W        W30216  20.981  23.481   2.523
64957W        W30217  20.654   1.031  13.880
64958W        W30218   8.576  29.946   2.667
64959W        W30219  11.331  29.642   2.421
64960W        W30220  41.065   3.379  14.526
64961W        W30221  13.711  14.011   0.817
64962W        W30222   3.712  42.840  14.314
64963W        W30223  41.129  32.007  13.934
64964W        W30224  24.279   5.454   1.371
64965W        W30225  25.066  17.797   1.116
64966W        W30226  20.584   4.308  11.518
64967W        W30227  32.097  32.180   2.456
64968W        W30228  27.480  12.358  13.893
64969W        W30229  24.097  12.335   1.009
64970W        W30230   1.725   7.371   3.288
64971W        W30231  26.051  30.797  12.659
64972W        W30232  36.474  17.052  11.450
64973W        W30233   4.008  34.941   3.257
64974W        W30234  13.157  28.001   1.133
64975W        W30235  44.403  34.392  12.141
64976W        W30236  18.627  34.083  11.969
64977W        W30237  41.318  39.092  12.538
64978W        W30238  32.034  26.133   3.801
64979W        W30239  28.819  13.828   0.891
64980W        W30240  29.103   0.192  12.929
64981W        W30241  32.149  21.067   0.771
64982W        W30242  41.617   9.669  10.719
64983W        W30243  23.268  16.072   4.021
64984W        W30244  19.749  16.479  12.874
64985W        W30245  32.437  17.621   4.251
64986W        W30246  34.822  34.611   3.660
64987W        W30247   1.813  32.611   0.247
64988W        W30248  15.890  41.985  13.313
64989W        W30249   0.529  31.840   0.858
64990W        W30250  21.550  37.613  12.694
64991W        W30251  28.160  28.927   0.832
64992W        W30252  14.284   7.246   2.679
64993W        W30253  12.572  44.872   2.882
64994W        W30254  37.923   9.926  12.056
64995W        W30255  10.844  24.198   3.067
64996W        W30256  16.251  25.630   2.884
64997W        W30257  44.205  18.647   2.110
64998W        W30258  30.941  14.208  10.818
64999W        W30259   3.987   5.398  11.572
65000W        W30260  37.735  36.028  10.686
65001W        W30261  10.958   0.433  12.867
65002W        W30262   7.698  29.999  13.352
65003W        W30263  36.448   3.914   3.320
65004W        W30264  44.811  32.575  11.033
65005W        W30265   2.255  19.280  14.845
65006W        W30266  40.506  42.041  12.497
65007W        W30267  17.656  37.862   3.471
65008W        W30268  44.023  13.950  10.284
65009W        W30269  27.534  30.707   3.144
65010W        W30270   8.337   8.126  11.958
65011W        W30271   1.265  30.029   2.683
65012W        W30272  27.984  15.307  11.855
65013W        W30273  38.025  17.656   3.975
65014W        W30274  41.427  42.235   0.222
65015W        W30275  20.056  28.214   1.379
65016W        W30276  37.112  41.448   3.618
65017W        W30277  11.205  38.585  12.556
65018W        W30278  44.474  16.234   3.780
65019W        W30279  33.347  19.137  10.770
65020W        W30280  16.800  42.218  11.981
65021W        W30281  15.557  23.773  12.003
65022W        W30282  36.365   7.387  13.092
65023W        W30283  17.627  17.618   3.239
65024W        W30284  43.087  15.033  11.096
65025W        W30285   9.940  40.843  10.647
65026W        W30286  15.625  18.399  12.852
65027W        W30287  18.530   1.467   2.760
65028W        W30288   0.289  36.423  13.595
65029W        W30289  12.549  14.625   1.147
65030W        W30290   5.586  31.285   3.677
65031W        W30291  17.003   3.455   2.696
65032W        W30292  36.691  42.502  11.011
65033W        W30293  12.444  25.432  11.711
65034W        W30294  31.541  22.051   2.725
65035W        W30295  16.823   8.703   2.782
65036W        W30296  22.999  26.690   1.600
65037W        W30297  19.147  33.830   2.739
65038W        W30298  40.210  39.353  12.956
65039W        W30299  15.378   4.386  11.125
65040W        W30300   8.663   3.285  11.178
65041W        W30301  24.623  14.006   1.154
65042W        W30302  38.760  25.094  11.543
65043W        W30303   5.793   1.994  14.756
65044W        W30304  28.753  15.329   4.832
65045W        W30305  21.582   5.333  14.450
65046W        W30306  40.845  22.052  11.530
65047W        W30307  27.695  30.318  12.600
65048W        W30308  32.977  31.578   3.726
65049W        W30309   3.265   7.724   1.752
65050W        W30310   8.839  34.510   1.917
65051W        W30311  22.588  16.126  13.035
65052W        W30312  17.993  39.981  12.046
65053W        W30313  11.572  44.374  13.431
65054W        W30314  19.694  13.772   2.388
65055W        W30315  37.529   4.648   4.166
65056W        W30316  21.189   1.741  11.471
65057W        W30317  19.875  34.335   2.407
65058W        W30318  20.920   3.834  11.595
65059W        W30319  32.403  30.701  14.968
65060W        W30320   0.550   1.851   3.147
65061W        W30321  22.446  35.836   3.281
65062W        W30322  19.535  43.848   2.380
65063W        W30323   6.781  16.887  13.617
65064W        W30324  10.224   1.299   1.164
65065W        W30325  23.187  36.403  14.987
65066W        W30326  36.910   9.230   4.179
65067W        W30327  30.742  11.830   4.662
65068W        W30328  40.963   0.268  14.347
65069W        W30329  44.916  33.116  10.613
65070W        W30330  33.227   8.133   4.019
65071W        W30331  37.872  31.833  12.510
65072W        W30332   8.448  27.581   0.980
65073W        W30333  32.975   5.845   0.907
65074W        W30334  12.148  33.492  12.329
65075W        W30335   0.321  36.794  13.970
65076W        W30336  30.235  13.728  12.324
65077W        W30337  17.064   4.416  14.862
65078W        W30338  32.199  27.533   3.564
65079W        W30339  37.399  17.305   3.734
65080W        W30340  37.831  11.963   1.899
65081W        W30341  44.896  40.399  14.519
65082W        W30342  42.870   2.796  13.481
65083W        W30343   9.029  35.414   4.877
65084W        W30344  30.864  12.652   3.669
65085W        W30345  25.712   1.703   0.699
65086W        W30346  20.105  28.415  12.512
65087W        W30347  24.449  16.705   2.792
65088W        W30348  28.789  37.496  12.683
65089W        W30349  17.504   5.685  14.352
65090W        W30350  31.565  29.979   3.753
65091W        W30351   5.686  22.481  11.939
65092W        W30352  40.479   1.793   0.333
65093W        W30353   9.250  24.079   2.415
65094W        W30354  16.574  29.500  10.532
65095W        W30355  17.106  10.641  11.084
65096W        W30356   6.872  24.021  11.676
65097W        W30357  25.180  35.344  13.141
65098W        W30358  26.568  43.372   0.665
65099W        W30359  26.876   7.884   2.678
65100W        W30360  22.761  14.868  14.097
65101W        W30361   8.313   2.803  13.951
65102W        W30362  40.998  10.763   0.990
65103W        W30363  18.070   1.839   1.238
65104W        W30364  10.367  31.892  11.573
65105W        W30365   4.924  15.593  11.214
65106W        W30366   7.601  32.226  11.638
65107W        W30367  25.024  40.898   0.800
65108W        W30368  44.753  36.314   4.269
65109W        W30369  22.959  42.757   0.295
65110W        W30370  33.060  35.275   4.692
65111W        W30371   9.849  26.475  15.000
65112W        W30372  33.747  25.593  12.524
65113W        W30373  44.166  42.470  11.660
65114W        W30374  28.056  10.727  14.594
65115W        W30375   1.844  25.018   5.113
65116W        W30376   6.790   1.044   2.929
65117W        W30377   5.224  27.009  14.326
65118W        W30378   1.032  37.797   3.075
65119W        W30379  14.872  15.768  14.508
65120W        W30380  19.304  34.108   4.548
65121W        W30381  32.476  33.518  11.221
65122W        W30382  12.953  12.151   0.388
65123W        W30383  33.569   1.437  11.361
65124W        W30384  31.469  19.939   0.015
65125W        W30385  29.775   0.592   4.079
65126W        W30386  24.563   0.554  10.898
65127W        W30387  37.216  35.925  10.762
65128W        W30388  18.191  31.656  11.643
65129W        W30389  32.030   3.962   4.507
65130W        W30390  16.511  41.341   3.847
65131W        W30391  28.234  11.739  12.086
65132W        W30392  26.455  40.677   3.498
65133W        W30393  27.729  31.525  12.587
65134W        W30394  39.746  30.441   1.232
65135W        W30395  24.409   0.852   4.876
65136W        W30396   7.377  38.469   4.224
65137W        W30397  37.452  41.327   3.253
65138W        W30398  10.102  17.948  13.080
65139W        W30399  26.283  35.429   9.816
65140W        W30400  30.043  10.857   4.488
65141W        W30401  18.020  36.201  12.146
65142W        W30402  15.838  20.113   1.943
65143W        W30403  25.583  44.956  14.332
65144W        W30404  37.959  15.287  10.576
65145W        W30405  24.742  37.343   2.906
65146W        W30406  26.447   1.821  14.400
65147W        W30407  24.651  32.817  11.505
65148W        W30408  17.628  26.922   3.120
65149W        W30409   6.659   2.008  11.624
65150W        W30410  22.593  40.443   4.596
65151W        W30411   5.898  43.979   0.931
65152W        W30412   6.556  24.080   0.911
65153W        W30413   6.440  25.944  13.736
65154W        W30414  27.050  17.974   0.395
65155W        W30415  19.565  38.396  13.022
65156W        W30416  25.811  31.214   0.240
65157W        W30417  28.550   5.372   4.232
65158W        W30418  34.028  42.416  12.644
65159W        W30419  22.626   3.388   5.111
65160W        W30420   0.425  24.885  13.457
65161W        W30421  41.949  36.190   1.694
65162W        W30422  35.918  16.656   4.644
65163W        W30423  38.484  23.008   0.894
65164W        W30424  44.981   9.799   0.483
65165W        W30425   7.370  36.478  12.639
65166W        W30426  14.744  29.647  10.603
65167W        W30427   8.669   2.045  13.984
65168W        W30428  22.861  35.303  10.740
65169W        W30429  31.030  44.742   1.771
65170W        W30430   7.113  10.828   1.019
65171W        W30431  13.164   5.784   0.001
65172W        W30432  34.629  26.254  10.360
65173W        W30433  20.235  17.177  14.633
65174W        W30434  16.294  10.889  14.347
65175W        W30435  19.363   4.494   2.456
65176W        W30436   2.425   7.109   2.341
65177W        W30437  20.340  24.114   3.187
65178W        W30438  20.189  20.907  14.614
65179W        W30439  32.635   8.320   2.688
65180W        W30440  36.144   3.328  14.354
65181W        W30441  11.102   2.351   2.725
65182W        W30442  10.301   0.514   4.124
65183W        W30443  17.967   6.244  10.649
65184W        W30444  18.579   4.518  12.067
65185W        W30445  34.315  23.617  14.350
65186W        W30446  22.649  44.844  13.949
65187W        W30447  39.654   7.048  14.887
65188W        W30448  10.801   2.813   1.742
65189W        W30449  36.153   4.923   4.951
65190W        W30450  39.836  12.885  10.716
65191W        W30451  35.006  40.266   2.357
65192W        W30452  26.503   2.451  13.919
65193W        W30453  28.535  30.505   0.899
65194W        W30454  26.066   0.552   3.302
65195W        W30455  18.128  33.892   3.006
65196W        W30456  37.128  14.734  14.485
65197W        W30457   8.684  42.401   0.760
65198W        W30458  20.375   9.221  14.791
65199W        W30459  43.027  29.549  10.487
65200W        W30460   7.595   7.961  14.069
65201W        W30461  35.944   7.980  10.703
65202W        W30462   6.934   3.359   2.782
65203W        W30463  24.971  33.228  13.000
65204W        W30464  15.160  15.161   2.631
65205W        W30465  35.761  21.481   4.234
65206W        W30466  12.297  23.663   1.769
65207W        W30467  29.050  34.472   1.622
65208W        W30468  43.462  22.758  12.446
65209W        W30469  27.928  29.057  13.100
65210W        W30470  21.719   3.851  13.359
65211W        W30471   6.317   4.330   4.100
65212W        W30472  37.445  11.407   3.176
65213W        W30473  26.618  31.129  14.466
65214W        W30474  36.440  15.988   1.413
65215W        W30475   1.788  39.026   1.688
65216W        W30476  43.516  13.280   0.337
65217W        W30477  15.825  14.800   4.458
65218W        W30478   5.682  31.435  14.217
65219W        W30479  27.423  24.188   3.739
65220W        W30480  14.384  13.174   0.921
65221W        W30481  42.705  24.616  10.446
65222W        W30482  38.965  21.731  14.141
65223W        W30483  29.536   3.763  11.012
65224W        W30484  20.141  39.308   2.640
65225W        W30485   6.444  41.072   4.594
65226W        W30486  21.806  22.799   2.815
65227W        W30487   1.643   4.136  12.888
65228W        W30488  12.372  11.029   3.280
65229W        W30489   6.979  12.862  11.561
65230W        W30490  16.610  27.110  12.362
65231W        W30491  41.397  27.242  10.695
65232W        W30492  40.460  18.814   0.078
65233W        W30493   9.309  14.140  14.055
65234W        W30494  24.231  42.727  11.956
65235W        W30495  40.471  15.730   2.756
65236W        W30496   1.728  42.978   4.394
65237W        W30497  31.605  43.010  11.661
65238W        W30498  28.025  22.925  13.052
65239W        W30499  24.158  34.114   0.733
65240W        W30500   7.522   5.830  11.612
65241W        W30501  32.962  39.301   0.541
65242W        W30502  16.767   8.434   1.208
65243W        W30503   6.253  15.307   1.863
65244W        W30504  35.105  10.336  13.916
65245W        W30505  18.184  12.193   3.353
65246W        W30506  41.300  40.424   0.041
65247W        W30507   5.446  19.386  14.299
65248W        W30508  40.830   0.912  12.083
65249W        W30509   9.165  24.205   1.915
65250W        W30510  29.155  31.563   1.291
65251W        W30511  33.546  37.017   4.787
65252W        W30512   6.121  42.058   2.725
65253W        W30513   9.513   0.297  13.617
65254W        W30514  22.119   0.144  14.824
65255W        W30515  35.508  18.313  13.943
65256W        W30516  15.080  30.343   2.790
65257W        W30517  20.595  20.161   3.079
65258W        W30518   0.513  29.808   2.706
65259W        W30519  21.564   0.294  11.957
65260W        W30520   4.888  16.270  10.712
65261W        W30521   7.907  10.586  14.758
65262W        W30522  31.475   7.461   0.344
65263W        W30523  44.927  22.841   3.497
65264W        W30524  37.085  25.150   0.734
65265W        W30525  23.965  29.207   0.750
65266W        W30526  12.864  44.793  11.532
65267W        W30527  26.570   4.700   0.740
65268W        W30528  43.546  26.672   2.833
65269W        W30529  12.917   7.914   2.443
65270W        W30530  17.237  34.474   4.710
65271W        W30531  19.408   5.977   3.579
65272W        W30532  17.527   7.967  11.399
65273W        W30533  15.777   4.931  14.777
65274W        W30534  20.152  22.710   3.924
65275W        W30535  13.138   1.297   1.885
65276W        W30536  35.950  26.585  10.824
65277W        W30537  31.176   8.164   2.310
65278W        W30538  15.403  37.505   0.836
65279W        W30539  40.370  34.888  13.894
65280W        W30540  40.076  12.773   3.189
65281W        W30541  42.593   0.446  11.465
65282W        W30542   1.745  17.324   4.627
65283W        W30543   3.959  32.890   1.375
65284W        W30544  20.069   2.165   4.084
65285W        W30545  26.985  13.218   0.865
65286W        W30546  42.522   0.392   0.290
65287W        W30547  43.653  11.011   4.185
65288W        W30548  34.252  26.702  14.695
65289W        W30549  28.890  29.919  13.275
65290W        W30550  22.819  20.017   0.843
65291W        W30551  18.745  35.126  12.096
65292W        W30552  13.839  41.624   4.014
65293W        W30553  13.780  33.490  13.898
65294W        W30554   8.703  14.101  12.426
65295W        W30555  41.525   5.639  13.347
65296W        W30556  33.415  11.895  11.134
65297W        W30557  41.076  24.490   1.931
65298W        W30558   9.870   3.058   2.183
65299W        W30559  33.136  41.305  11.694
65300W        W30560   2.441  23.303  10.763
65301W        W30561  12.653   2.524  10.480
65302W        W30562  36.156   9.420  12.396
65303W        W30563  30.503  16.030  12.834
65304W        W30564   3.791  25.965   2.099
65305W        W30565  20.513  40.582   0.897
65306W        W30566  28.009  30.065   1.424
65307W        W30567  44.013  37.327   2.940
65308W        W30568  18.443  25.252   0.880
65309W        W30569  15.309  36.141   1.865
65310W        W30570  16.984   3.819  13.862
65311W        W30571  22.260  27.180   4.162
65312W        W30572  36.981   3.505  14.880
65313W        W30573  28.678  25.410   3.613
65314W        W30574  20.133  26.228   0.995
65315W        W30575  32.096  29.726   4.786
65316W        W30576  10.675  31.461   1.364
65317W        W30577  37.724  24.776   2.757
65318W        W30578  37.890  11.267   2.161
65319W        W30579  17.099  28.178   1.445
65320W        W30580  39.360  40.568  13.363
65321W        W30581  44.967  29.391  14.845
65322W        W30582  23.271  32.645  13.982
65323W        W30583  24.169  37.862  12.125
65324W        W30584  32.709  16.207   4.704
65325W        W30585   1.019  11.250  10.219
65326W        W30586  31.718  11.163   0.371
65327W        W30587  15.815  32.400   2.371
65328W        W30588  24.905  31.065   2.636
65329W        W30589  28.604  42.470  10.640
65330W        W30590  32.244  20.496   4.948
65331W        W30591  40.668  16.605   0.814
65332W        W30592  12.605   4.823   4.544
65333W        W30593  21.048   2.010   3.941
65334W        W30594  28.217  44.773   3.697
65335W        W30595  18.252  17.336  10.756
65336W        W30596   4.224  36.865   3.163
65337W        W30597  14.150  22.633  14.970
65338W        W30598  32.434  40.976   1.051
65339W        W30599  29.068  37.010  11.603
65340W        W30600  39.068  10.068   0.716
65341W        W30601  36.973   7.402  11.128
65342W        W30602   2.147  28.278   1.290
65343W        W30603   2.737  43.975   2.746
65344W        W30604  18.197  13.661  12.069
65345W        W30605  19.645  33.141   2.700
65346W        W30606  42.874  25.015   1.460
65347W        W30607  27.971  16.762  10.478
65348W        W30608  20.108  37.918   0.520
65349W        W30609   0.947  38.497  14.050
65350W        W30610  38.374   4.596  14.367
65351W        W30611   7.815  37.399   0.374
65352W        W30612  23.411  26.127  12.095
65353W        W30613   5.009  25.695  12.906
65354W        W30614  35.604  24.692  10.674
65355W        W30615   0.885  39.438  13.092
65356W        W30616  35.061  16.015  13.860
65357W        W30617  18.345  31.531  14.882
65358W        W30618  27.696   5.907  10.814
65359W        W30619  12.324   5.875  11.971
65360W        W30620   3.013  19.732  11.091
65361W        W30621   3.153  28.170   1.372
65362W        W30622  35.440  10.871  12.723
65363W        W30623   6.692  36.029   1.869
65364W        W30624  17.871  27.975   1.791
65365W        W30625  42.065   2.930   0.043
65366W        W30626  41.593  31.672  11.949
65367W        W30627  19.203  30.618   3.165
65368W        W30628  26.617   2.743  10.484
65369W        W30629  12.819  18.129   1.925
65370W        W30630  14.059   3.505  10.465
65371W        W30631  34.899  23.069   3.807
65372W        W30632   9.853   4.747   0.445
65373W        W30633  24.635  13.929  12.871
65374W        W30634  27.513  19.583  10.937
65375W        W30635   2.653  19.302   0.811
65376W        W30636  32.597  13.867   4.490
65377W        W30637  11.646   1.114   4.736
65378W        W30638  44.059  37.591   3.737
65379W        W30639  40.787  17.795   3.201
65380W        W30640  40.512  34.415   3.643
65381W        W30641  35.206  26.778   9.912
65382W        W30642  36.527  18.320  10.959
65383W        W30643   9.264  19.680  14.910
65384W        W30644   5.645  16.581  11.079
65385W        W30645  32.479  13.846  12.960
65386W        W30646   0.541  37.267   1.233
65387W        W30647  36.116  16.690   1.414
65388W        W30648   3.233  29.931   0.313
65389W        W30649   3.139   5.870  14.323
65390W        W30650  37.353   2.836   3.821
65391W        W30651  21.414  10.632  14.373
65392W        W30652  33.210  17.218   0.147
65393W        W30653   3.997  41.560   2.734
65394W        W30654  37.180  41.506   2.260
65395W        W30655  32.638  29.544  14.425
65396W        W30656  22.715  23.859   0.439
65397W        W30657  41.442  41.208  11.093
65398W        W30658  18.077   9.425  13.050
65399W        W30659  12.867  10.409  12.594
65400W        W30660  32.734  21.861  11.928
65401W        W30661  23.181  10.378   1.344
65402W        W30662   2.321  36.409  13.003
65403W        W30663   4.045  22.091   4.065
65404W        W30664  35.638  20.252   2.730
65405W        W30665   7.255  15.759   0.420
65406W        W30666  42.859  37.372  12.542
65407W        W30667   9.284   5.179  11.532
65408W        W30668  29.074  36.373  14.432
65409W        W30669  20.737   3.190   4.107
65410W        W30670   9.885  24.011  14.899
65411W        W30671  15.723  28.482  11.149
65412W        W30672  39.237  34.449   2.109
65413W        W30673   1.783  15.281   0.456
65414W        W30674  44.999   2.299   1.215
65415W        W30675  10.590   7.508   3.025
65416W        W30676  23.551  17.064   1.675
65417W        W30677  44.949  43.928  10.419
65418W        W30678  15.529  19.099  12.198
65419W        W30679   4.092  26.652  14.945
65420W        W30680  28.670   2.737  14.424
65421W        W30681  35.594   5.008  11.635
65422W        W30682  30.688  30.125  14.840
65423W        W30683  34.041  19.667  12.369
65424W        W30684  27.635  28.563  13.672
65425W        W30685  18.559   5.250   2.156
65426W        W30686  10.320  11.716   2.536
65427W        W30687  41.953  17.894  11.441
65428W        W30688   9.080   0.851  14.735
65429W        W30689  22.266   6.815  14.217
65430W        W30690  38.049  38.961   2.741
65431W        W30691  22.241  28.479   3.907
65432W        W30692  40.785  32.052   2.914
65433W        W30693  21.562  29.943   1.868
65434W        W30694  11.373  10.405   3.258
65435W        W30695  31.876  26.084  14.884
65436W        W30696   1.886  21.567   1.345
65437W        W30697  34.873   2.947  14.330
65438W        W30698  25.143  39.951   1.006
65439W        W30699  19.169   0.961  10.981
65440W        W30700  16.149   0.316   4.582
65441W        W30701   6.320  14.788   0.939
65442W        W30702  24.269  15.791   4.155
65443W        W30703  29.599  31.467  13.022
65444W        W30704  11.756  29.350  12.564
65445W        W30705  18.813  23.726  14.080
65446W        W30706  23.129  13.748  12.991
65447W        W30707   9.493  32.477  11.923
65448W        W30708   6.699  23.011  10.635
65449W        W30709  33.162   0.539   5.474
65450W        W30710  17.697  44.073   4.542
65451W        W30711   5.146  39.981  14.543
65452W        W30712   7.675  33.173   4.078
65453W        W30713   2.769   3.393  10.589
65454W        W30714  22.613  16.688  11.254
65455W        W30715   9.725  40.674   2.775
65456W        W30716  23.441  39.943   3.727
65457W        W30717  31.848  23.933  14.857
65458W        W30718  30.494  16.786   1.919
65459W        W30719  14.966  14.629  11.646
65460W        W30720   6.314  18.131  12.067
65461W        W30721   8.871  16.120  14.355
65462W        W30722   0.494  39.731  14.341
65463W        W30723  31.386  13.755  13.376
65464W        W30724  15.621  17.593  10.673
65465W        W30725  11.509  44.674   3.579
65466W        W30726  29.078  24.495   3.552
65467W        W30727   9.818  22.628   3.345
65468W        W30728  26.375  40.297   1.364
65469W        W30729  21.998   1.749  14.008
65470W        W30730   3.315   9.372  12.009
65471W        W30731  19.595  42.442   1.915
65472W        W30732   6.911  33.372  11.126
65473W        W30733  44.804   0.816   0.744
65474W        W30734  40.324  44.524   1.089
65475W        W30735  33.103  15.272   0.878
65476W        W30736  29.379  17.714   3.267
65477W        W30737  26.052   2.248   2.389
65478W        W30738  15.843  40.908  11.572
65479W        W30739  25.582  37.816  14.760
65480W        W30740  35.059   9.956  11.115
65481W        W30741  30.660   7.924   3.636
65482W        W30742  25.554  32.499   3.208
65483W        W30743   7.684  21.421  11.486
65484W        W30744  23.212   9.283   0.520
65485W        W30745  21.040  24.971   4.050
65486W        W30746  41.928  24.282   1.166
65487W        W30747   5.956   7.810  11.226
65488W        W30748  40.825   8.595  14.863
65489W        W30749  18.107  29.940   3.257
65490W        W30750  37.358  19.600  14.383
65491W        W30751  42.912  11.986  13.969
65492W        W30752  37.368  20.069  10.586
65493W        W30753   6.251   4.715   3.758
65494W        W30754  26.515  32.076  13.999
65495W        W30755  13.267   7.317  12.529
65496W        W30756   7.669  35.671  12.965
65497W        W30757  18.121  37.918   3.683
65498W        W30758  31.451  28.521  12.497
65499W        W30759  28.691  21.096  13.557
65500W        W30760  43.770  44.432   4.237
65501W        W30761   9.345   9.162  12.845
65502W        W30762  31.146  14.298   2.904
65503W        W30763  22.749  22.054  12.544
65504W        W30764  43.831  25.018  13.932
65505W        W30765  39.433  36.920  12.688
65506W        W30766  11.730  42.547   2.725
65507W        W30767   6.300   3.501  12.002
65508W        W30768  20.721  21.001   0.795
65509W        W30769  26.156  21.848  10.687
65510W        W30770   0.714   9.498  14.842
65511W        W30771   3.029  16.691  14.070
65512W        W30772  14.756  28.899   2.993
65513W        W30773  27.085  15.551   2.016
65514W        W30774  30.724  20.218   4.059
65515W        W30775   3.763  36.437   0.256
65516W        W30776  37.843  28.058   9.936
65517W        W30777   8.708  14.647  12.544
65518W        W30778  28.988  43.767   0.054
65519W        W30779   5.428  23.969  11.075
65520W        W30780  27.936   5.297  14.238
65521W        W30781  30.150  37.931  14.314
65522W        W30782  34.112   1.143   3.640
65523W        W30783  12.358  21.052  13.582
65524W        W30784  34.880  34.507  12.786
65525W        W30785  22.509  37.926   2.844
65526W        W30786  41.212  23.705   3.569
65527W        W30787  14.501  31.708   1.533
65528W        W30788  39.239  19.316  13.302
65529W        W30789   6.390  21.189   4.548
65530W        W30790   5.402  41.930  14.908
65531W        W30791  24.984  30.544   0.719
65532W        W30792  39.948   5.283   1.304
65533W        W30793  41.910  18.773   4.026
65534W        W30794  42.815  23.011   2.351
65535W        W30795  13.347  13.218  13.519
65536W        W30796  35.362  40.944  13.291
65537W        W30797  34.597  28.213  10.180
65538W        W30798  23.538  16.723   0.737
65539W        W30799  42.083  23.812  12.229
65540W        W30800  18.220  19.655  11.492
65541W        W30801  18.742  43.549  11.623
65542W        W30802  41.994  17.157  13.366
65543W        W30803   7.753  37.368   4.817
65544W        W30804   5.892  32.152  12.878
65545W        W30805  11.106   5.517  11.872
65546W        W30806  30.812  27.733   4.074
65547W        W30807  25.168  44.209   1.297
65548W        W30808   3.246  42.404  12.329
65549W        W30809  35.931  17.198   1.653
65550W        W30810  18.548  26.143   0.982
65551W        W30811  18.816   2.409   1.637
65552W        W30812   9.782  13.828   4.908
65553W        W30813  11.377   2.187   0.588
65554W        W30814  30.530  22.548   4.175
65555W        W30815  42.868  38.379  10.539
65556W        W30816   7.373  11.316   1.836
65557W        W30817  24.920  37.509   4.446
65558W        W30818  17.789  13.326  12.064
65559W        W30819   5.879  30.965   1.842
65560W        W30820  43.368  18.373   4.834
65561W        W30821  35.058  37.228  12.895
65562W        W30822   4.472  14.467   3.727
65563W        W30823   9.086  14.092   4.768
65564W        W30824  44.490  43.931   0.302
65565W        W30825  16.085  43.554   3.779
65566W        W30826  11.926  18.044  10.747
65567W        W30827   6.170  31.144  13.395
65568W        W30828  41.377  31.392  14.388
65569W        W30829  10.869  42.475   4.125
65570W        W30830  37.038  29.523  12.908
65571W        W30831   8.268  22.280   3.843
65572W        W30832  12.785  27.002   2.088
65573W        W30833  21.826  11.157   0.581
65574W        W30834  20.035  26.179   4.119
65575W        W30835  25.730  15.184   2.640
65576W        W30836  26.743  31.616   4.218
65577W        W30837  44.192  12.315   3.699
65578W        W30838  12.803   7.189   0.281
65579W        W30839  33.107  37.831  12.811
65580W        W30840  35.218  19.666  11.278
65581W        W30841   7.231  22.180   4.112
65582W        W30842  33.281  17.083  14.287
65583W        W30843  26.104  42.845  13.454
65584W        W30844  40.994  42.130  14.962
65585W        W30845   8.099  18.721  13.006
65586W        W30846  20.194  22.516   0.364
65587W        W30847  33.096   3.121   0.166
65588W        W30848  16.361  21.208   2.653
65589W        W30849  38.976  25.662  14.746
65590W        W30850   9.066   5.894  12.393
65591W        W30851  25.167  14.048  11.514
65592W        W30852   9.353  22.036  14.416
65593W        W30853  44.346  25.272   4.516
65594W        W30854  27.452  43.471   0.307
65595W        W30855   0.790  40.843   3.594
65596W        W30856  22.334  44.019  14.326
65597W        W30857  31.544  14.218   0.723
65598W        W30858  33.897  16.295   2.353
65599W        W30859  15.801  43.729  11.067
65600W        W30860  43.873  42.814  10.573
65601W        W30861  35.755   5.304   0.978
65602W        W30862  37.868  28.590   1.177
65603W        W30863  18.153   7.828   0.594
65604W        W30864  18.742   9.221  10.637
65605W        W30865   3.027   6.118   4.097
65606W        W30866  10.616  33.990  14.256
65607W        W30867  40.935  34.422  11.651
65608W        W30868  19.954  11.692   0.966
65609W        W30869  17.382  16.597  12.515
65610W        W30870  44.542  29.315  13.243
65611W        W30871  19.858  13.521  13.000
65612W        W30872   4.903  19.598  12.103
65613W        W30873  19.314  44.104   2.775
65614W        W30874   7.229  13.050  11.966
65615W        W30875  23.254   6.864   3.107
65616W        W30876   3.352   1.346   3.027
65617W        W30877  13.351  42.490  11.015
65618W        W30878   6.216   6.286  12.074
65619W        W30879  33.948  21.420  10.692
65620W        W30880  34.373  42.799  13.776
65621W        W30881  15.230  12.457   3.798
65622W        W30882  12.605  18.828  11.970
65623W        W30883  23.187   5.263  12.425
65624W        W30884   2.834  28.171   0.023
65625W        W30885  16.838  10.120  12.983
65626W        W30886  28.008  10.168  13.034
65627W        W30887   3.042  14.136   4.254
65628W        W30888  18.265  29.538   1.137
65629W        W30889  37.835   5.211   1.629
65630W        W30890  23.806  30.111   1.498
65631W        W30891  27.218  39.064  11.209
65632W        W30892   7.429  33.284  11.151
65633W        W30893  40.856  41.378  12.069
65634W        W30894   2.279  37.932   1.804
65635W        W30895  14.421  31.306   4.182
65636W        W30896  31.391  26.952   1.862
65637W        W30897  28.471  16.257   1.771
65638W        W30898  28.310  43.408   1.831
65639W        W30899  27.079  28.108  14.396
65640W        W30900   9.373  35.784  14.225
65641W        W30901  32.703  27.813   1.291
65642W        W30902   5.170   8.760   4.576
65643W        W30903  39.117  19.044  14.949
65644W        W30904   9.273  18.338   2.725
65645W        W30905  17.307  26.556  11.159
65646W        W30906   9.488  31.926   4.983
65647W        W30907   7.829  17.319  14.237
65648W        W30908  16.796   6.994  11.939
65649W        W30909  26.269  42.243  14.413
65650W        W30910  25.170  42.060  12.979
65651W        W30911   9.742  32.855  12.173
65652W        W30912   6.311  44.369   9.902
65653W        W30913   9.266  27.702  12.659
65654W        W30914   9.781  16.726  14.787
65655W        W30915   1.786  13.524   4.488
65656W        W30916  18.650  12.035  10.227
65657W        W30917   7.204  25.576  14.046
65658W        W30918   4.228  17.765  11.236
65659W        W30919   6.853  24.455  14.830
65660W        W30920  27.783   3.236  13.904
65661W        W30921  27.637  28.487  14.530
65662W        W30922  40.011  43.384   4.207
65663W        W30923  21.335  36.533   0.082
65664W        W30924  12.763   4.247  11.116
65665W        W30925  25.799  11.697   4.199
65666W        W30926  22.902  23.782   2.308
65667W        W30927   6.652  11.337  11.579
65668W        W30928   9.763   3.855   4.271
65669W        W30929   3.817   3.250   0.253
65670W        W30930  12.376  41.708   3.634
65671W        W30931   2.905  20.951  13.893
65672W        W30932  23.533   9.167  14.969
65673W        W30933   4.310  33.970  11.979
65674W        W30934   1.420   3.249  14.852
65675W        W30935  26.072   0.902   0.470
65676W        W30936  23.260   2.946  12.485
65677W        W30937  14.841  30.775  12.025
65678W        W30938   8.381   9.696  10.924
65679W        W30939  36.976  44.309  12.196
65680W        W30940  37.666  24.514  10.528
65681W        W30941  10.827  43.755   3.659
65682W        W30942  31.854  31.904   2.852
65683W        W30943  25.793  33.991  13.076
65684W        W30944   0.234  36.045   3.306
65685W        W30945  27.975  13.150  14.306
65686W        W30946  44.458  19.750   4.014
65687W        W30947  23.939  43.593  11.156
65688W        W30948   8.697  14.943  12.968
65689W        W30949  35.451  11.257   4.472
65690W        W30950  34.358  12.214   2.294
65691W        W30951   3.426   7.301  12.524
65692W        W30952  21.819  35.532  14.111
65693W        W30953  15.653  16.997  13.050
65694W        W30954  15.996  30.676   4.783
65695W        W30955  22.038   3.625  12.145
65696W        W30956   4.680  11.341   2.353
65697W        W30957  10.073  14.486   2.866
65698W        W30958  33.225  44.312   0.456
65699W        W30959  35.788   4.403  11.078
65700W        W30960  44.560  29.153   0.037
65701W        W30961  10.854   1.456  10.735
65702W        W30962  28.578  15.650  13.030
65703W        W30963  12.671   0.009   0.292
65704W        W30964  21.143  27.637  12.133
65705W        W30965   0.252   2.795   0.196
65706W        W30966  18.760  12.171   1.252
65707W        W30967  18.051  36.663   2.198
65708W        W30968  36.140  32.381  11.568
65709W        W30969  15.723  32.992   3.273
65710W        W30970  18.767   4.368   1.818
65711W        W30971   1.278  18.786  13.958
65712W        W30972  39.580  11.841  14.864
65713W        W30973  24.132  23.081  13.010
65714W        W30974  11.228   5.326   5.443
65715W        W30975   7.243   5.123   0.947
65716W        W30976  41.302  31.917  14.421
65717W        W30977   5.396   4.366  13.710
65718W        W30978   5.823  42.072  11.041
65719W        W30979  18.389  23.452   1.417
65720W        W30980  34.270   0.780   0.222
65721W        W30981   5.417  34.403  12.574
65722W        W30982  20.785   2.322  14.904
65723W        W30983  38.635  33.113  11.139
65724W        W30984  26.439   0.567  12.603
65725W        W30985  31.027  37.469  11.101
65726W        W30986   4.297  43.442  11.756
65727W        W30987  19.472  28.606   3.900
65728W        W30988  15.826  43.022  11.465
65729W        W30989  25.644  42.707  10.808
65730W        W30990  37.377  28.976   4.532
65731W        W30991  16.637  14.543  12.433
65732W        W30992  35.589  25.611  14.841
65733W        W30993   5.369  35.554  13.252
65734W        W30994  17.210   0.004  13.714
65735W        W30995  30.383  44.039  11.504
65736W        W30996  19.216   9.086   1.852
65737W        W30997  36.964  27.403   4.911
65738W        W30998  15.687  37.922   2.177
65739W        W30999  27.633  14.282   0.364
65740W        W31000  13.809   6.342  11.885
65741W        W31001   9.784   7.567  12.399
65742W        W31002  31.017  34.900   2.127
65743W        W31003  37.392  18.323  11.054
65744W        W31004  38.927  30.875  14.337
65745W        W31005  36.680  36.466  12.527
65746W        W31006  11.392  29.131   3.239
65747W        W31007   6.496  40.530  10.869
65748W        W31008  22.953  16.076   3.542
65749W        W31009  15.663  32.418  12.849
65750W        W31010  20.458  39.236  14.885
65751W        W31011  26.277  10.589  12.869
65752W        W31012  39.496  11.294   2.875
65753W        W31013  19.292   4.851   1.374
65754W        W31014  17.030   3.135  14.449
65755W        W31015  43.514  21.604   0.983
65756W        W31016  40.025  16.536  10.870
65757W        W31017  31.568  23.449  11.940
65758W        W31018   7.588  11.634  12.102
65759W        W31019   3.843  41.589  12.115
65760W        W31020  41.488   0.431  14.524
65761W        W31021   5.647   8.132  14.958
65762W        W31022   2.497   9.967  11.366
65763W        W31023  12.856  13.780  10.710
65764W        W31024  26.600   7.493   4.717
65765W        W31025  42.708  18.199  11.644
65766W        W31026  31.526  27.492  11.544
65767W        W31027  43.872   8.281   2.895
65768W        W31028  16.080   9.651  11.922
65769W        W31029   6.178   1.333  12.010
65770W        W31030  22.962  21.965  13.010
65771W        W31031  32.696   6.896  12.947
65772W        W31032   4.344   0.406   3.649
65773W        W31033  27.888  39.409  14.021
65774W        W31034  17.900  33.062   0.958
65775W        W31035  22.751  36.695   2.187
65776W        W31036  23.721  39.388   2.304
65777W        W31037  30.415  29.972  14.409
65778W        W31038   9.384  36.441  13.520
65779W        W31039  34.988  26.255   3.699
65780W        W31040  30.188  37.348   4.065
65781W        W31041  16.771  22.704  11.202
65782W        W31042   3.863  13.602  10.888
65783W        W31043  29.370  32.437  13.523
65784W        W31044   3.998  39.419  13.891
65785W        W31045  44.846   5.762  11.537
65786W        W31046   3.454  12.787   3.213
65787W        W31047  36.482  43.486   0.903
65788W        W31048   7.511   4.312   0.738
65789W        W31049  11.857  10.268  10.630
65790W        W31050  31.417   9.392   4.696
65791W        W31051   9.278  19.533  10.794
65792W        W31052   6.762   1.553  13.521
65793W        W31053   4.196  43.483  13.888
65794W        W31054   2.032  37.742   4.130
65795W        W31055  28.189  39.538   2.710
65796W        W31056  25.726  17.182   4.134
65797W        W31057  34.811  13.801  11.925
65798W        W31058  20.798  27.033   0.385
65799W        W31059  40.797  26.002  10.386
65800W        W31060  44.483  27.978  11.321
65801W        W31061  31.729  38.805   1.152
65802W        W31062  32.008  21.082   4.058
65803W        W31063   7.688  26.393  11.763
65804W        W31064   6.494  10.454   3.100
65805W        W31065  27.029  12.948  11.474
65806W        W31066   9.256   1.358   2.773
65807W        W31067   2.902  39.443  11.197
65808W        W31068  16.743   4.853  11.366
65809W        W31069  30.131  22.765   1.672
65810W        W31070  23.128  11.554  14.368
65811W        W31071  38.129  33.974  12.959
65812W        W31072  38.870  38.491  10.267
65813W        W31073  39.676  19.689   1.463
65814W        W31074  15.612  10.609  14.877
65815W        W31075  18.602  42.882   3.837
65816W        W31076   7.879  32.941   1.400
65817W        W31077  27.983  30.440   0.286
65818W        W31078  30.271   7.187  10.866
65819W        W31079  40.502  18.325  10.023
65820W        W31080   9.078   1.990   2.083
65821W        W31081   7.765   8.406  14.297
65822W        W31082  31.173  16.207  11.108
65823W        W31083   2.752   2.495  14.323
65824W        W31084  27.038  14.584   1.905
65825W        W31085   9.662  10.896   4.606
65826W        W31086  13.619  10.080   2.734
65827W        W31087  16.257  14.005   4.842
65828W        W31088  10.814  26.773  14.872
65829W        W31089  32.897  38.496  12.088
65830W        W31090  17.756  31.136  14.336
65831W        W31091  10.594  27.156  12.066
65832W        W31092   6.831  43.577  11.138
65833W        W31093   7.805  38.720  11.995
65834W        W31094  22.770  23.605  14.938
65835W        W31095  15.040  35.855   2.210
65836W        W31096  32.943  19.037  12.933
65837W        W31097   4.706  27.485  12.977
65838W        W31098  32.554   1.970  13.015
65839W        W31099  44.968   9.664   3.585
65840W        W31100  21.727   7.901  13.111
65841W        W31101   3.215  30.607   4.131
65842W        W31102  16.835  43.741   1.362
65843W        W31103  23.383  35.320  14.356
65844W        W31104  15.196  44.308   3.422
65845W        W31105  24.443  39.974  12.600
65846W        W31106  29.641   2.240   0.192
65847W        W31107  29.223  31.471   2.626
65848W        W31108  18.536  21.781   4.605
65849W        W31109  17.179   6.170   0.617
65850W        W31110  27.835   7.120  12.152
65851W        W31111   4.513  36.653  14.042
65852W        W31112   8.846  19.074   4.561
65853W        W31113  40.003  33.713   3.802
65854W        W31114  14.612   4.190   2.189
65855W        W31115  35.034  28.518   4.028
65856W        W31116  25.971  42.348  13.434
65857W        W31117   9.013  25.580   3.632
65858W        W31118  36.079   1.821   3.195
65859W        W31119  17.637  21.414   1.773
65860W        W31120   6.320  14.993  12.581
65861W        W31121  35.969  12.268   2.265
65862W        W31122   4.465  26.919  12.866
65863W        W31123  34.980  14.985   0.466
65864W        W31124   9.384  43.357  12.873
65865W        W31125   3.490  14.097   1.206
65866W        W31126   3.456  42.014  10.767
65867W        W31127  17.711  41.994   2.835
65868W        W31128  34.991  43.937   3.142
65869W        W31129   2.990  23.989   2.612
65870W        W31130  42.988  19.616  10.758
65871W        W31131  10.249  33.474   1.895
65872W        W31132  44.893  22.487  14.330
65873W        W31133  28.173  39.338  11.504
65874W        W31134  21.069  32.438  14.070
65875W        W31135   1.473   1.254   3.375
65876W        W31136   6.553  43.049  14.628
65877W        W31137  21.579  18.072  10.676
65878W        W31138  16.761  35.570   0.271
65879W        W31139  16.109   5.963   1.663
65880W        W31140  42.045  14.564  13.418
65881W        W31141   2.173  34.224  12.683
65882W        W31142   6.211  18.541   3.607
65883W        W31143  37.533   5.211  13.920
65884W        W31144   7.385   7.374   2.763
65885W        W31145  31.068  34.864  12.125
65886W        W31146  42.500  10.426  14.883
65887W        W31147  17.475  30.399  12.059
65888W        W31148  35.971   4.180   3.271
65889W        W31149  15.565  27.915   4.531
65890W        W31150  27.094   7.882   0.782
65891W        W31151  41.337  34.378  11.217
65892W        W31152  31.531  35.354  11.553
65893W        W31153  11.374  26.620  13.014
65894W        W31154  15.932  42.469  10.642
65895W        W31155  40.085  14.930   3.728
65896W        W31156  10.732  38.968   3.867
65897W        W31157  38.486  34.040  13.334
65898W        W31158  18.583  18.121  14.358
65899W        W31159  44.225  43.574   3.823
65900W        W31160  17.986  26.139  11.157
65901W        W31161  21.001  14.282  12.480
65902W        W31162  21.459   9.728  14.494
65903W        W31163   1.810  33.525  11.595
65904W        W31164  41.404  11.873  12.090
65905W        W31165  33.478  38.083  11.074
65906W        W31166  32.487  21.079  11.552
65907W        W31167  19.369  24.700   1.262
65908W        W31168  27.283  16.803  12.720
65909W        W31169  37.182  14.523   0.398
65910W        W31170   1.735   3.481   3.761
65911W        W31171  35.331  22.766  12.542
65912W        W31172  27.087  38.306  14.905
65913W        W31173  40.597  29.126  14.444
65914W        W31174  13.896  36.635   0.308
65915W        W31175  27.537  27.540  13.978
65916W        W31176  18.801  25.042  14.846
65917W        W31177  24.628  13.142  11.961
65918W        W31178  31.060   4.713  14.817
65919W        W31179   2.354  25.276   2.148
65920W        W31180  20.749   0.365  10.659
65921W        W31181   7.666  40.241   3.730
65922W        W31182  25.537  12.380   4.866
65923W        W31183  42.105  30.026  11.031
65924W        W31184   6.972   5.903   2.216
65925W        W31185  30.078  18.797   0.027
65926W        W31186  15.687  26.906   2.812
65927W        W31187   3.671   8.014   1.660
65928W        W31188  14.775  39.307  12.511
65929W        W31189  19.332  31.811  12.016
65930W        W31190  18.200   3.234  12.937
65931W        W31191   1.929  35.557   0.040
65932W        W31192   2.972  24.424  10.289
65933W        W31193  38.608  41.511  13.315
65934W        W31194   4.326  35.496  13.250
65935W        W31195  29.537  27.416  11.788
65936W        W31196  30.206  28.338  13.802
65937W        W31197   1.953  17.215   3.129
65938W        W31198   4.423  19.853   3.276
65939W        W31199  19.157  29.486   2.530
65940W        W31200  16.586   1.763  11.983
65941W        W31201   1.714  19.944  12.552
65942W        W31202  44.517  35.378   3.231
65943W        W31203  41.037   0.688   4.953
65944W        W31204  43.292   4.413  13.920
65945W        W31205  37.303  13.127   1.542
65946W        W31206  15.049  32.648  11.187
65947W        W31207  12.446  28.339   0.710
65948W        W31208   6.282  17.326  12.424
65949W        W31209  13.695   7.206  13.325
65950W        W31210  42.848  34.155  13.047
65951W        W31211  15.142  10.807   3.663
65952W        W31212  35.880  19.345  10.787
65953W        W31213  32.107  16.649  13.420
65954W        W31214  21.952   4.668   1.392
65955W        W31215  32.832  43.861   3.156
65956W        W31216  12.815  33.380  13.546
65957W        W31217  33.939  33.540  12.080
65958W        W31218  23.629  41.971   3.624
65959W        W31219  18.592  21.472   2.902
65960W        W31220  14.721  34.133  13.553
65961W        W31221   4.459   3.058   2.832
65962W        W31222   6.975   5.698  10.735
65963W        W31223  15.713  23.479   1.220
65964W        W31224  11.163  40.312   3.840
65965W        W31225  44.010  12.864   2.174
65966W        W31226  19.024  18.573   2.782
65967W        W31227   7.935  13.212   1.752
65968W        W31228  39.295  18.692   1.305
65969W        W31229   6.200  28.255   1.390
65970W        W31230   5.369  22.063   4.462
65971W        W31231   3.914  17.360  12.483
65972W        W31232  39.585  27.110  13.779
65973W        W31233  24.928  41.816   0.535
65974W        W31234  27.713  18.898   4.203
65975W        W31235  44.726  10.815  11.952
65976W        W31236   7.774  30.931   4.558
65977W        W31237  28.570  29.755   1.871
65978W        W31238  15.360  28.096   3.259
65979W        W31239  42.962  29.940   3.175
65980W        W31240  29.997  16.048   2.260
65981W        W31241  11.877  26.290   4.390
65982W        W31242  19.881   4.634   5.415
65983W        W31243  24.152   9.355   3.512
65984W        W31244  12.647  14.359  12.463
65985W        W31245  36.369  27.967  10.592
65986W        W31246  16.843  26.929   1.275
65987W        W31247  20.732  10.391  12.880
65988W        W31248  11.341  12.584  13.503
65989W        W31249   9.776  31.706   3.255
65990W        W31250   4.816  44.266  11.940
65991W        W31251  30.466  35.826  11.640
65992W        W31252  36.318   8.849  14.035
65993W        W31253  17.274  31.759   4.076
65994W        W31254  20.120  26.915  14.621
65995W        W31255   9.104  26.180   1.877
65996W        W31256  41.874  21.544   4.251
65997W        W31257  15.686  26.903  11.363
65998W        W31258  11.576  29.736  13.450
65999W        W31259   7.334  28.651  13.595
66000W        W31260  28.923  21.995  10.772
66001W        W31261  40.877  44.466   2.822
66002W        W31262  40.872   2.366   1.879
66003W        W31263  41.005  16.554  12.058
66004W        W31264  15.141  27.765  12.004
66005W        W31265  23.521   5.204  13.934
66006W        W31266  44.575  24.774   3.282
66007W        W31267  26.196  33.336  10.665
66008W        W31268   8.755  31.343   3.350
66009W        W31269  31.870  27.280   0.756
66010W        W31270  30.352  27.222  10.418
66011W        W31271  15.769   5.755   0.217
66012W        W31272  44.211  32.408  10.819
66013W        W31273  16.691  40.603  11.052
66014W        W31274  19.525  26.190   2.719
66015W        W31275  14.899  19.253   1.755
66016W        W31276  28.890  14.187   1.390
66017W        W31277  39.814   7.092  11.641
66018W        W31278   2.217  42.937   4.181
66019W        W31279  10.305  36.259   4.117
66020W        W31280  32.099  41.456   2.023
66021W        W31281   9.650  29.185   0.185
66022W        W31282   8.050  14.310   0.842
66023W        W31283  43.910   9.678   2.514
66024W        W31284  35.028   9.262   2.545
66025W        W31285  10.671   6.956   0.360
66026W        W31286  19.285  26.266  11.473
66027W        W31287  24.395  42.986   0.594
66028W        W31288  16.847  36.530  11.673
66029W        W31289   1.823  44.272  14.520
66030W        W31290  37.050   6.665  11.295
66031W        W31291  40.435  42.507  14.558
66032W        W31292  44.964  25.024  14.362
66033W        W31293  12.649  32.659   0.368
66034W        W31294  37.013  39.848  12.305
66035W        W31295   8.357  35.076  11.652
66036W        W31296  20.169   9.326  14.311
66037W        W31297  14.977  35.973   3.345
66038W        W31298   1.290  16.143   0.410
66039W        W31299  11.135   3.780  13.501
66040W        W31300  31.298  15.359   3.956
66041W        W31301  31.023  23.072   4.549
66042W        W31302   1.959  23.721   4.543
66043W        W31303  30.683   5.198  13.393
66044W        W31304  11.536  22.552  12.079
66045W        W31305   1.663  29.175  13.354
66046W        W31306   3.826  31.198  14.493
66047W        W31307   2.327   9.151   2.170
66048W        W31308  10.879   5.350   1.807
66049W        W31309  44.269  38.386   2.883
66050W        W31310  24.569  32.573  10.989
66051W        W31311  30.549   5.718  13.232
66052W        W31312  17.224  11.308  12.597
66053W        W31313  26.049  23.897  14.557
66054W        W31314  15.669  28.691  14.861
66055W        W31315  19.972  34.260   1.345
66056W        W31316  31.854  37.002  14.533
66057W        W31317  16.505  28.204  13.878
66058W        W31318  30.103  41.599  11.229
66059W        W31319  19.610   4.167   3.282
66060W        W31320  23.440  27.361   4.110
66061W        W31321  26.279  37.416  14.046
66062W        W31322   4.784   9.758  13.174
66063W        W31323  37.437  15.721   1.680
66064W        W31324  16.014   2.482   3.268
66065W        W31325   7.269  29.616   5.011
66066W        W31326   2.344  35.888   1.238
66067W        W31327   2.325  20.548   4.012
66068W        W31328  35.621  37.820   3.521
66069W        W31329  36.222   6.149  14.494
66070W        W31330  42.878  27.840  13.512
66071W        W31331  37.578   5.212   4.303
66072W        W31332  38.792  35.485   0.782
66073W        W31333  19.265  39.466  14.280
66074W        W31334  15.969  15.366   2.267
66075W        W31335  17.847   4.869  14.058
66076W        W31336  11.429  29.473  13.011
66077W        W31337  26.230  29.637   1.505
66078W        W31338   6.536  20.190  12.852
66079W        W31339  33.994  10.447   3.748
66080W        W31340  20.055  42.233  12.074
66081W        W31341  31.301  42.970   1.321
66082W        W31342  43.382  23.779  12.362
66083W        W31343  16.584   5.772  10.886
66084W        W31344  15.602  27.408   1.682
66085W        W31345  25.083  32.621  12.101
66086W        W31346  15.735  26.169  14.775
66087W        W31347  23.008  44.252   1.348
66088W        W31348  14.319  17.200  12.501
66089W        W31349  43.944  30.843   1.852
66090W        W31350  14.906  40.894   2.497
66091W        W31351   7.972   8.838  12.314
66092W        W31352  10.661   7.816  12.589
66093W        W31353   4.790  21.094   0.518
66094W        W31354  44.966  28.346   0.362
66095W        W31355  27.571  37.793   1.999
66096W        W31356  40.779  13.162  13.934
66097W        W31357  34.806  43.974  11.794
66098W        W31358  14.170  12.412   4.499
66099W        W31359   2.924  30.904  11.504
66100W        W31360  28.228  35.190   4.612
66101W        W31361  44.789  32.916  11.474
66102W        W31362   7.909  42.825  12.675
66103W        W31363   0.143  28.086   4.226
66104W        W31364  31.021  36.925  11.204
66105W        W31365  27.464  15.738  14.302
66106W        W31366   7.295   3.671   4.564
66107W        W31367  34.446  19.843  10.431
66108W        W31368  38.093  19.772  13.893
66109W        W31369  12.082  13.807  13.041
66110W        W31370   6.616  12.710   3.533
66111W        W31371  30.839  18.105  10.756
66112W        W31372  18.118   2.820   2.294
66113W        W31373  14.260  41.121   0.946
66114W        W31374  28.080  11.321  10.318
66115W        W31375  27.946  11.587  12.486
66116W        W31376  16.906  37.315   3.859
66117W        W31377  23.830  15.690  14.059
66118W        W31378  20.792   1.590  11.116
66119W        W31379  23.740  39.769   1.269
66120W        W31380  27.162   8.812   0.721
66121W        W31381  11.377  27.200  12.492
66122W        W31382  40.319   2.992   2.412
66123W        W31383   9.762  27.994   1.192
66124W        W31384  28.550  28.594  11.172
66125W        W31385  37.969  34.406  11.497
66126W        W31386  21.665  17.838  10.244
66127W        W31387  20.546  20.652   3.773
66128W        W31388  38.566  27.126   3.311
66129W        W31389   4.382  44.419  14.067
66130W        W31390   9.915  40.371  13.572
66131W        W31391   5.150  31.813  12.349
66132W        W31392  33.887  20.974  11.577
66133W        W31393  26.460  33.658  11.046
66134W        W31394   1.511  14.163  12.414
66135W        W31395  29.108  29.112  13.875
66136W        W31396  17.184  21.175   1.986
66137W        W31397  38.586  42.003   2.648
66138W        W31398  37.426  41.483   1.778
66139W        W31399  11.075   8.969  10.717
66140W        W31400  34.817  32.836  14.427
66141W        W31401  30.876  10.348   2.411
66142W        W31402  13.349  24.784  13.299
66143W        W31403  23.432  39.004   0.637
66144W        W31404   0.846   0.333   3.316
66145W        W31405  35.583  25.279   4.304
66146W        W31406  44.505   2.285   1.349
66147W        W31407  10.106  42.907  11.110
66148W        W31408  35.335  20.179   1.879
66149W        W31409   4.731  28.190  13.337
66150W        W31410  28.912  44.881   0.975
66151W        W31411  37.493  44.311   0.831
66152W        W31412  27.883  13.637  11.624
66153W        W31413  44.118  32.541  12.521
66154W        W31414  11.781   1.355  12.514
66155W        W31415  22.782  28.051  12.478
66156W        W31416  19.836   3.030  11.478
66157W        W31417  38.197   3.916  13.846
66158W        W31418  32.353  30.925   4.105
66159W        W31419  37.934  15.614  13.839
66160W        W31420   0.230   8.122   4.274
66161W        W31421  34.842  24.116  10.384
66162W        W31422  42.293  19.728   4.664
66163W        W31423  32.979  14.717   3.893
66164W        W31424  42.912  42.251   4.277
66165W        W31425  10.684  41.245  11.239
66166W        W31426   4.523  18.086  11.631
66167W        W31427  27.611  34.053   3.662
66168W        W31428  26.785  18.168   2.088
66169W        W31429  44.486  29.816   2.093
66170W        W31430  15.614  39.860   4.431
66171W        W31431  11.370  25.413  11.438
66172W        W31432  10.195  14.614   0.462
66173W        W31433   7.888  23.599  10.345
66174W        W31434  28.684  37.189  14.505
66175W        W31435  39.048   5.187  12.334
66176W        W31436   1.832  14.308   2.178
66177W        W31437  11.304  25.712  12.912
66178W        W31438  15.739  36.321  14.510
66179W        W31439  19.279  28.527  14.514
66180W        W31440  27.982  33.156   0.399
66181W        W31441  19.618  41.280   2.429
66182W        W31442  19.691  12.623  13.615
66183W        W31443  24.456  13.741  10.984
66184W        W31444  32.128  31.674   1.692
66185W        W31445   0.362  26.211   3.100
66186W        W31446   5.338  22.426  10.184
66187W        W31447  33.000  18.028  13.066
66188W        W31448   2.447  37.892   2.793
66189W        W31449  12.382  10.163   0.350
66190W        W31450  36.454  10.929  14.341
66191W        W31451  25.284   9.232  10.686
66192W        W31452  32.197  27.981   1.324
66193W        W31453  38.863   5.374   1.833
66194W        W31454  39.022   4.166   2.273
66195W        W31455  17.213   7.457   3.314
66196W        W31456  22.518   0.822  12.513
66197W        W31457  33.069  19.226   4.632
66198W        W31458  30.744  35.506   0.370
66199W        W31459  22.686   3.056  11.148
66200W        W31460  22.087  13.992  11.547
66201W        W31461  23.574  39.085   0.141
66202W        W31462  43.129   7.524  13.919
66203W        W31463  17.175  18.623  11.531
66204W        W31464  23.592  19.784   2.304
66205W        W31465  10.833  42.297   0.811
66206W        W31466  14.745  43.415  14.884
66207W        W31467   0.365   7.757   3.856
66208W        W31468  29.372  14.625  14.908
66209W        W31469  35.833   8.731   4.858
66210W        W31470  11.537  13.283   4.973
66211W        W31471  20.762   4.154   3.527
66212W        W31472  40.528  34.385   4.749
66213W        W31473  11.337  23.895   2.772
66214W        W31474  18.702  39.377  13.457
66215W        W31475   7.372  13.930  12.754
66216W        W31476  25.036  16.923   4.033
66217W        W31477  31.605   1.949  11.098
66218W        W31478  19.188   8.273  12.044
66219W        W31479   5.673   9.345   2.345
66220W        W31480  39.076  33.622   1.976
66221W        W31481  36.152  11.682  14.923
66222W        W31482  36.153   7.381  14.018
66223W        W31483  28.590   7.615  12.559
66224W        W31484  20.065  17.264  13.417
66225W        W31485   7.826  17.580   1.151
66226W        W31486  16.720   9.938   2.820
66227W        W31487  11.329  16.318   4.562
66228W        W31488  23.742  21.156  12.456
66229W        W31489  22.240  16.872   2.289
66230W        W31490  40.237  26.500  11.105
66231W        W31491   4.942   8.411   2.357
66232W        W31492   4.085   5.346   0.483
66233W        W31493  25.598  34.135   2.473
66234W        W31494  27.941  24.098  12.031
66235W        W31495  29.397  21.520  10.649
66236W        W31496  41.995  15.743   4.179
66237W        W31497  28.443  28.162   1.333
66238W        W31498  39.796   6.970   1.671
66239W        W31499   0.910   8.843  12.844
66240W        W31500  15.599  30.860  14.454
66241W        W31501  21.299  24.270  13.747
66242W        W31502  26.502  44.953  14.735
66243W        W31503  44.569   3.238  12.031
66244W        W31504   4.595  15.970   0.787
66245W        W31505  18.999  36.521  12.105
66246W        W31506   3.834  24.622   4.758
66247W        W31507   6.891  33.716   0.454
66248W        W31508   4.536   1.851   3.687
66249W        W31509   6.696  33.274   1.348
66250W        W31510  17.993  13.214  13.935
66251W        W31511  40.834  25.802   0.243
66252W        W31512   6.011  43.653  13.514
66253W        W31513  13.998  37.508  10.942
66254W        W31514  24.835   4.916   2.259
66255W        W31515   1.383  11.359  12.289
66256W        W31516   3.654  23.639  11.465
66257W        W31517  15.393  16.267  13.340
66258W        W31518   1.096  10.948  14.314
66259W        W31519  10.846   8.257  14.879
66260W        W31520  10.878   1.348  14.951
66261W        W31521   7.210   8.898  11.575
66262W        W31522   9.757  42.418  12.207
66263W        W31523   5.770  10.355   0.545
66264W        W31524  13.059  22.657  14.430
66265W        W31525  23.989   6.701  11.542
66266W        W31526   5.236  10.817  10.979
66267W        W31527  24.392  16.670  11.555
66268W        W31528  24.179  33.423  10.707
66269W        W31529  15.600  28.303   3.713
66270W        W31530  23.266  39.499  12.970
66271W        W31531   7.379  25.989  14.790
66272W        W31532  13.575  40.273  13.038
66273W        W31533  10.312  19.350   2.767
66274W        W31534  22.129  12.147  11.494
66275W        W31535  22.642  32.567   4.517
66276W        W31536  43.923  12.919  12.191
66277W        W31537  34.032  30.123  14.763
66278W        W31538  43.354  24.783  13.841
66279W        W31539  30.359   6.825   3.303
66280W        W31540  38.563  34.883  11.951
66281W        W31541  23.595  14.702   2.618
66282W        W31542  30.590   7.288   3.284
66283W        W31543  20.235  28.917  10.716
66284W        W31544  32.411  43.705  11.976
66285W        W31545  43.746   1.478   3.471
66286W        W31546  44.472   2.252  12.012
66287W        W31547  39.033   8.291  13.662
66288W        W31548  13.181  36.055   4.231
66289W        W31549  31.600   7.267  11.051
66290W        W31550   8.778   5.954   4.189
66291W        W31551   3.891  33.381  11.472
66292W        W31552  14.298  27.746   2.740
66293W        W31553  43.147   2.895  11.900
66294W        W31554  43.538  16.041   3.725
66295W        W31555   2.945  22.755  11.317
66296W        W31556  20.678  35.637  12.930
66297W        W31557  37.517   0.315   0.724
66298W        W31558  13.592  32.120  10.290
66299W        W31559   8.426  42.833   1.933
66300W        W31560  39.053   4.676   2.430
66301W        W31561  41.992  24.538  14.298
66302W        W31562  36.109   8.329   4.072
66303W        W31563  19.723  19.602   0.267
66304W        W31564   7.895  10.641  10.609
66305W        W31565  25.479   6.654   1.465
66306W        W31566  31.405  11.785   3.663
66307W        W31567  30.991  16.634  14.894
66308W        W31568  22.328  26.966  11.020
66309W        W31569   8.291   3.720   1.142
66310W        W31570  41.562   0.817   2.399
66311W        W31571   8.682  27.270  13.476
66312W        W31572  41.741  35.222   1.354
66313W        W31573   3.827  11.623  14.802
66314W        W31574  11.325  43.009  10.507
66315W        W31575  26.500  14.787  10.778
66316W        W31576  31.565  26.387  14.618
66317W        W31577   5.234  31.948  10.660
66318W        W31578  37.954  31.694  13.460
66319W        W31579   2.435  38.108   4.111
66320W        W31580   0.897  37.589  14.868
66321W        W31581   1.754   4.333   2.853
66322W        W31582  33.615  24.524  12.931
66323W        W31583  17.268  38.349  11.079
66324W        W31584   2.831  31.278  12.993
66325W        W31585   5.465   5.801  10.582
66326W        W31586  15.075  10.767   4.527
66327W        W31587   0.277   4.929   4.718
66328W        W31588  37.040   8.404   4.110
66329W        W31589  29.135  11.787  13.325
66330W        W31590  41.896  40.337  12.613
66331W        W31591  17.770  21.128  13.170
66332W        W31592   3.705  21.672   0.012
66333W        W31593  33.960   5.162   3.636
66334W        W31594   8.671  26.229   1.226
66335W        W31595  15.743  37.535  12.462
66336W        W31596  19.352  14.315  12.176
66337W        W31597  42.353  10.628   3.685
66338W        W31598  43.453   6.675  14.153
66339W        W31599  20.141  35.440   4.586
66340W        W31600  10.534   0.535  14.524
66341W        W31601  43.713  18.683   3.566
66342W        W31602  19.191  17.507  11.150
66343W        W31603  33.569  23.050   0.353
66344W        W31604  26.798  41.145   5.110
66345W        W31605  36.063  40.203  10.993
66346W        W31606  32.329   3.859   0.427
66347W        W31607  14.771  19.045   1.219
66348W        W31608  11.606   0.258   0.366
66349W        W31609  37.108   1.486  12.992
66350W        W31610   1.918   8.855   2.242
66351W        W31611  34.854   0.785  10.639
66352W        W31612  21.718  25.738  10.724
66353W        W31613   6.468  18.253   0.807
66354W        W31614  18.156  39.560   1.793
66355W        W31615  42.551  30.459   1.931
66356W        W31616  23.356  40.959   3.436
66357W        W31617  34.440  13.642  14.383
66358W        W31618  13.669  20.432   1.867
66359W        W31619   9.972  27.440   4.977
66360W        W31620   4.777  13.838   1.992
66361W        W31621  21.090  35.095  14.718
66362W        W31622  10.223  31.648  14.387
66363W        W31623   5.672  14.231  11.107
66364W        W31624  29.397  15.021   4.119
66365W        W31625   0.089   6.691   0.841
66366W        W31626  36.522   9.153   1.452
66367W        W31627   7.775  28.727  12.891
66368W        W31628   9.421  20.231   2.322
66369W        W31629   6.656  13.381  14.823
66370W        W31630  10.506   4.970   5.084
66371W        W31631  34.837  23.102   0.868
66372W        W31632  32.602  19.904  14.779
66373W        W31633  34.172  43.361  14.395
66374W        W31634  33.452  10.629  10.817
66375W        W31635  27.705  23.022   4.239
66376W        W31636   2.278  28.147  10.573
66377W        W31637  28.641   5.335  11.458
66378W        W31638  29.383  26.060   3.425
66379W        W31639  42.818  39.241   3.491
66380W        W31640  32.359  37.435  12.764
66381W        W31641  38.547  35.554   3.695
66382W        W31642   5.568  39.348  13.088
66383W        W31643   0.057  43.022   3.297
66384W        W31644  12.839   0.258   0.715
66385W        W31645  15.279  26.383  14.070
66386W        W31646  41.517  26.511  13.316
66387W        W31647   7.741  27.394   2.300
66388W        W31648  15.593   3.469   0.918
66389W        W31649   7.393  33.946   0.930
66390W        W31650   6.185   1.778   4.140
66391W        W31651   9.576   8.333   5.123
66392W        W31652  41.988  26.079   4.125
66393W        W31653  34.910   4.925  12.858
66394W        W31654  29.113   9.902  13.017
66395W        W31655  27.567  28.461   2.809
66396W        W31656  21.183  31.993  13.789
66397W        W31657  24.026  36.128   0.212
66398W        W31658  14.200  29.341   3.431
66399W        W31659  40.046   1.797   2.337
66400W        W31660  13.016   8.441  11.295
66401W        W31661  15.618  26.651   4.033
66402W        W31662   5.798  16.060   3.514
66403W        W31663   3.947  35.876   3.311
66404W        W31664  44.350  17.160   0.292
66405W        W31665  41.292  20.398   3.615
66406W        W31666  12.668   8.617  13.440
66407W        W31667   6.113  22.147  14.346
66408W        W31668   5.135  29.258  11.189
66409W        W31669   6.545  14.151   4.399
66410W        W31670  36.431  38.792  12.369
66411W        W31671  36.022  22.482   4.219
66412W        W31672  18.592  39.148   2.789
66413W        W31673   3.855  14.756  11.161
66414W        W31674   2.677  39.933  11.891
66415W        W31675   5.463  17.996  14.922
66416W        W31676  12.930  32.663   3.226
66417W        W31677  36.052   7.252   2.623
66418W        W31678   7.328  10.535  14.668
66419W        W31679   7.198  26.911   1.743
66420W        W31680  42.502  21.652   2.895
66421W        W31681   4.350  11.750  14.823
66422W        W31682  32.586  25.764   4.214
66423W        W31683  16.206  22.139   2.533
66424W        W31684  11.598  14.291  14.837
66425W        W31685  12.710  23.779  13.932
66426W        W31686   1.212  26.982  13.165
66427W        W31687  19.914  25.113  10.781
66428W        W31688  26.183  43.866   0.446
66429W        W31689  20.193   3.866   4.462
66430W        W31690  10.279  35.325  11.149
66431W        W31691  21.241   7.511  11.617
66432W        W31692  15.808  22.599  12.460
66433W        W31693  12.628  31.246  11.903
66434W        W31694   3.134  17.472   3.104
66435W        W31695   7.222   2.842   4.212
66436W        W31696  24.063   4.020   1.818
66437W        W31697  16.200  28.477  11.342
66438W        W31698  15.137  16.350  11.054
66439W        W31699  33.477  41.849  10.532
66440W        W31700  25.177  16.522  12.103
66441W        W31701   4.186  11.651  10.743
66442W        W31702   9.650  19.057   3.866
66443W        W31703  39.880   0.724   1.714
66444W        W31704  10.404  10.114   2.323
66445W        W31705   7.673   7.372  13.331
66446W        W31706  27.102  27.981   0.923
66447W        W31707  10.799  22.679  10.734
66448W        W31708  18.615  23.004   1.229
66449W        W31709  13.721  13.650  13.820
66450W        W31710  23.259  28.912   2.584
66451W        W31711  12.351  37.866   1.452
66452W        W31712  30.053   7.929  14.373
66453W        W31713  19.480  31.480   0.932
66454W        W31714  30.576  33.965   3.647
66455W        W31715  10.865   6.483   3.180
66456W        W31716  15.522   9.510   2.029
66457W        W31717  35.611  18.486  10.776
66458W        W31718   0.266   6.975   3.267
66459W        W31719  43.424  31.012   2.602
66460W        W31720   4.361   2.201   4.021
66461W        W31721  12.924  10.365   3.770
66462W        W31722  10.615  11.174   0.375
66463W        W31723  41.592  16.382  11.122
66464W        W31724  41.181   9.201   2.533
66465W        W31725  21.017  30.013  10.713
66466W        W31726  18.710   9.814   2.923
66467W        W31727  23.273  11.753  14.803
66468W        W31728  14.938  21.019  14.686
66469W        W31729   1.197  20.701   4.897
66470W        W31730  40.930   5.325  13.565
66471W        W31731  32.883  30.346   1.634
66472W        W31732  32.589  10.098   1.441
66473W        W31733  12.391  14.826  11.617
66474W        W31734  31.965  37.871   1.952
66475W        W31735  12.942  32.634   0.830
66476W        W31736  40.368   0.037   1.160
66477W        W31737   6.456   0.185  12.994
66478W        W31738  27.178  43.782  12.644
66479W        W31739  40.817  44.489   0.327
66480W        W31740   8.480  14.753  12.102
66481W        W31741   0.372  40.807   3.287
66482W        W31742  43.557  24.169   0.846
66483W        W31743  31.847  14.192   1.138
66484W        W31744   8.414  25.988  11.808
66485W        W31745  37.777  29.696  14.428
66486W        W31746  26.447  33.903  12.628
66487W        W31747  20.083  44.294   0.195
66488W        W31748  32.747  37.904  14.292
66489W        W31749   5.291   6.833  14.707
66490W        W31750  28.568  36.539  12.434
66491W        W31751  36.128  15.678  11.394
66492W        W31752  25.613  30.569   0.921
66493W        W31753  24.712  31.907   3.218
66494W        W31754  38.384  31.169  12.663
66495W        W31755  21.986   8.210  11.580
66496W        W31756   2.868  22.967  14.940
66497W        W31757  18.832  38.368   2.289
66498W        W31758  44.827  22.598  13.810
66499W        W31759  27.520  24.669   2.761
66500W        W31760  41.366  21.050   1.237
66501W        W31761   7.051  37.270   1.125
66502W        W31762   5.422   7.230   3.526
66503W        W31763  15.124  20.477   3.581
66504W        W31764  16.102  16.779  14.919
66505W        W31765   1.505  43.941  14.020
66506W        W31766  40.355  34.579  11.189
66507W        W31767  19.240  29.017   3.430
66508W        W31768  10.360  24.971  11.166
66509W        W31769  36.572  12.479   1.945
66510W        W31770   5.247  21.553   3.260
66511W        W31771  38.150   4.618   2.983
66512W        W31772  20.034   2.977  13.857
66513W        W31773  20.136  21.745  12.715
66514W        W31774  36.863  22.214   4.337
66515W        W31775  13.459  26.688   5.140
66516W        W31776  12.607  17.119   0.868
66517W        W31777   8.322  11.648  13.017
66518W        W31778  31.679  11.850   0.478
66519W        W31779  35.620   2.927  10.635
66520W        W31780  10.879  15.751  13.548
66521W        W31781   0.446  26.062  12.880
66522W        W31782  28.427  21.987   2.114
66523W        W31783  42.782  31.195  12.100
66524W        W31784  10.600  25.506  14.407
66525W        W31785   6.263  25.371   1.664
66526W        W31786  25.092  40.513  10.299
66527W        W31787  15.609   5.430  14.852
66528W        W31788   8.331  42.973   0.495
66529W        W31789  31.549  21.124   3.817
66530W        W31790  12.355   5.204  11.545
66531W        W31791   3.485  35.760  13.524
66532W        W31792   7.424   4.162  14.405
66533W        W31793  13.853  19.014   0.875
66534W        W31794  14.678  12.524  14.428
66535W        W31795  35.993  19.279  11.623
66536W        W31796  36.881  27.445   2.210
66537W        W31797  22.102  17.172  10.538
66538W        W31798  20.589  24.707   2.652
66539W        W31799  18.511   5.783   4.600
66540W        W31800   4.829  15.289   3.304
66541W        W31801  19.419   7.286   0.404
66542W        W31802  41.458  16.084  10.690
66543W        W31803  42.878   1.486   2.935
66544W        W31804  15.219  10.567   0.558
66545W        W31805   7.133   5.198  11.046
66546W        W31806   3.184   8.164   3.092
66547W        W31807   0.261   7.289   1.243
66548W        W31808   9.003  29.188  11.908
66549W        W31809   2.776  26.219  10.296
66550W        W31810   9.894   4.319  12.528
66551W        W31811  18.122  25.678  14.326
66552W        W31812  42.912  33.037   0.503
66553W        W31813  19.521  31.848  12.560
66554W        W31814  29.033  40.300  12.928
66555W        W31815  23.793   7.698   0.957
66556W        W31816   7.438  22.608   3.569
66557W        W31817  21.950  10.642   0.364
66558W        W31818  44.301  22.319   0.261
66559W        W31819  42.311  12.277   2.272
66560W        W31820  37.435  12.272   4.652
66561W        W31821  33.951  38.564   3.357
66562W        W31822  43.080   4.916   2.229
66563W        W31823  22.272  18.365   9.711
66564W        W31824  26.535  42.698   2.802
66565W        W31825  41.509  33.899  12.771
66566W        W31826  24.900  14.382  12.438
66567W        W31827  33.400   3.699   3.709
66568W        W31828  23.517  21.978   4.694
66569W        W31829  14.614  16.622  11.958
66570W        W31830  42.870  23.901  13.078
66571W        W31831  37.009  14.321   3.372
66572W        W31832  44.841  32.217  12.026
66573W        W31833  37.925  20.230   4.083
66574W        W31834  41.735  39.863  14.420
66575W        W31835  42.306   4.389   4.579
66576W        W31836  39.831  24.083  13.469
66577W        W31837  36.034  35.954   4.096
66578W        W31838  29.704  21.503  14.045
66579W        W31839  22.521  36.769   0.436
66580W        W31840  40.464   9.133  14.347
66581W        W31841  30.690  20.666  11.522
66582W        W31842  24.892  10.265  12.903
66583W        W31843  23.565   3.847   1.810
66584W        W31844  15.812  18.472   1.689
66585W        W31845  34.315   5.295  12.319
66586W        W31846  16.960  10.282  14.288
66587W        W31847   4.532  39.881  14.690
66588W        W31848  32.129  39.084  11.614
66589W        W31849  44.332  22.749   3.749
66590W        W31850   6.897  28.532  13.918
66591W        W31851  11.754  42.971  10.046
66592W        W31852  42.775   8.070  11.048
66593W        W31853  44.414  23.431   3.327
66594W        W31854  43.479  34.603   2.966
66595W        W31855  11.882  38.108  11.254
66596W        W31856   5.134  33.541  12.854
66597W        W31857  27.314  33.544  10.704
66598W        W31858  20.645  44.040   1.436
66599W        W31859  42.561   4.430  13.474
66600W        W31860  17.640  17.080   4.398
66601W        W31861  23.805  24.034  11.063
66602W        W31862  26.163  39.555   1.566
66603W        W31863  29.925  29.027  14.393
66604W        W31864  11.897  13.117   1.256
66605W        W31865  36.442  18.375   4.811
66606W        W31866   5.075  32.163  14.113
66607W        W31867   6.705  26.142   2.760
66608W        W31868  34.511  40.832  13.109
66609W        W31869   1.560   0.717  10.921
66610W        W31870  21.144  44.368   3.971
66611W        W31871   6.397  19.033   4.368
66612W        W31872  33.379  42.764  11.940
66613W        W31873  34.389  24.562   4.433
66614W        W31874  22.651  41.807  13.067
66615W        W31875  44.424  34.440  11.135
66616W        W31876  42.204  18.857   2.423
66617W        W31877  28.474   2.243   0.335
66618W        W31878  21.599  27.435   3.123
66619W        W31879  16.755  32.757   0.802
66620W        W31880  39.371  13.697   0.440
66621W        W31881  20.940  34.116  14.503
66622W        W31882  30.074   7.989  12.533
66623W        W31883  41.833  41.526  12.136
66624W        W31884   4.268  16.082  14.034
66625W        W31885  21.983   1.406  10.291
66626W        W31886  37.442  12.197   3.746
66627W        W31887  15.302  41.098   3.276
66628W        W31888  15.726   3.820  11.955
66629W        W31889  14.816  35.784  14.310
66630W        W31890  22.656  32.916  12.310
66631W        W31891   9.225   0.549   3.219
66632W        W31892  42.035  35.912   0.752
66633W        W31893  29.758  17.586   1.434
66634W        W31894  16.153  25.141   1.360
66635W        W31895   6.510  36.256  11.911
66636W        W31896  10.803  34.203   3.698
66637W        W31897  27.711  33.987  14.958
66638W        W31898  38.900   4.720  12.091
66639W        W31899  16.072   4.141   3.645
66640W        W31900  32.093  32.633  11.169
66641W        W31901   2.346   3.427   3.110
66642W        W31902  29.450   7.105   2.881
66643W        W31903   7.437   1.726  14.924
66644W        W31904  41.232  43.987  14.847
66645W        W31905  37.472  20.524   3.957
66646W        W31906  18.426  25.003  10.226
66647W        W31907  32.875  29.689   0.987
66648W        W31908   8.213  20.937  11.055
66649W        W31909   4.835   7.156   4.397
66650W        W31910  14.036  37.931  10.574
66651W        W31911  24.132  18.582   0.772
66652W        W31912  19.896  32.927  13.311
66653W        W31913  19.870  36.154  14.368
66654W        W31914  24.989  28.141   3.725
66655W        W31915  41.539  19.057   1.487
66656W        W31916  37.426  38.730  13.330
66657W        W31917   7.574  34.668   0.678
66658W        W31918   6.322  15.860   0.919
66659W        W31919  27.478   9.688  13.359
66660W        W31920   5.299  32.042   0.470
66661W        W31921  22.799  39.969  14.807
66662W        W31922  37.579  33.867   1.382
66663W        W31923   0.449  18.066  11.533
66664W        W31924  13.286  29.262  13.752
66665W        W31925  39.439   0.989   2.236
66666W        W31926  17.052   2.363  14.853
66667W        W31927   5.752   7.143   4.433
66668W        W31928   5.252  20.058  10.675
66669W        W31929   0.806  37.045  13.987
66670W        W31930  39.568  12.202   3.693
66671W        W31931  21.259  33.978   0.738
66672W        W31932   0.872  13.949   3.604
66673W        W31933  42.409  25.650   3.610
66674W        W31934  35.119  12.295   1.742
66675W        W31935  30.030  19.202  13.312
66676W        W31936   9.326  41.926  13.989
66677W        W31937  23.244  21.175   2.488
66678W        W31938  29.182  21.545  14.070
66679W        W31939   2.200  27.883   0.286
66680W        W31940   6.771  15.688   0.683
66681W        W31941  20.760  20.994  11.058
66682W        W31942  15.228  19.996   3.454
66683W        W31943  40.542  39.763  13.059
66684W        W31944  28.927   0.754   0.421
66685W        W31945  19.008   3.913  12.942
66686W        W31946  13.666  13.129   4.369
66687W        W31947  34.884  24.236   3.803
66688W        W31948  10.894  23.151   0.985
66689W        W31949   9.465  37.787  13.704
66690W        W31950  22.616  27.459  14.824
66691W        W31951   5.198  38.539  10.472
66692W        W31952  16.109  27.009   1.771
66693W        W31953  42.954  30.165   3.885
66694W        W31954  34.148  38.130  13.987
66695W        W31955  13.252  21.880  13.086
66696W        W31956  40.787  38.833   3.723
66697W        W31957  12.745   1.303  11.077
66698W        W31958   4.984  13.689   2.437
66699W        W31959   1.840  19.068   1.011
66700W        W31960  18.991  16.737   2.593
66701W        W31961  35.292  10.179  14.369
66702W        W31962  30.230  43.470  11.544
66703W        W31963  42.033  23.160  13.543
66704W        W31964  37.976  28.635   3.709
66705W        W31965   8.464   6.836   4.605
66706W        W31966  33.869  20.327   1.561
66707W        W31967   0.262   6.874  14.344
66708W        W31968   5.262  32.472   4.298
66709W        W31969  16.665  14.216   4.293
66710W        W31970  43.881  37.608  13.449
66711W        W31971  41.687  35.998  13.968
66712W        W31972  10.943  24.064   3.954
66713W        W31973  33.690   6.767   2.816
66714W        W31974  31.238  22.545  13.483
66715W        W31975  43.898  18.268  14.553
66716W        W31976  11.636  35.016  11.946
66717W        W31977   3.287   1.775   0.298
66718W        W31978  22.028   2.509   2.178
66719W        W31979   1.062  33.909   1.406
66720W        W31980   9.917  19.010  12.980
66721W        W31981   0.746  12.104   3.160
66722W        W31982   4.800  22.235   1.781
66723W        W31983  10.869  40.993   1.966
66724W        W31984  12.904  38.418   3.835
66725W        W31985  29.007  26.527  11.665
66726W        W31986  39.325   6.922  12.596
66727W        W31987  35.808  42.799  12.170
66728W        W31988   6.939  10.104   4.577
66729W        W31989  14.057  27.313  11.506
66730W        W31990  30.976  34.288   9.965
66731W        W31991  10.458   0.907   3.848
66732W        W31992   2.897  32.036   2.445
66733W        W31993  17.277  13.367  13.341
66734W        W31994  41.238  31.359  10.736
66735W        W31995  21.145  31.915  11.905
66736W        W31996   9.925  15.102   4.189
66737W        W31997  34.848  36.516   0.567
66738W        W31998  20.575  23.588  12.912
66739W        W31999  33.158  17.541   2.818
66740W        W32000  30.621  15.826   1.456
66741W        W32001  13.390  19.543   4.098
66742W        W32002   7.971  34.113   2.790
66743W        W32003   4.162  30.211   1.289
66744W        W32004   7.279   8.578  14.380
66745W        W32005  40.012   5.378  11.099
66746W        W32006  16.871  13.416  13.640
66747W        W32007  44.032   1.541   2.178
66748W        W32008  11.075   8.937  11.604
66749W        W32009  36.438  24.640   2.298
66750W        W32010   5.696   2.194   1.803
66751W        W32011  39.543  23.269  11.622
66752W        W32012  21.168  29.436   1.291
66753W        W32013  34.971  10.094   3.740
66754W        W32014  10.363  35.780   4.275
66755W        W32015  33.427  13.782   3.831
66756W        W32016   6.137  13.305  14.853
66757W        W32017  37.105  33.937  10.468
66758W        W32018  16.797  13.732  11.963
66759W        W32019  20.714   2.846   0.481
66760W        W32020  13.811  36.351  14.410
66761W        W32021  39.068   0.659   2.149
66762W        W32022  15.778   8.198  14.767
66763W        W32023   2.324  17.283  13.913
66764W        W32024  40.026  12.743   2.317
66765W        W32025  31.153  21.228   0.729
66766W        W32026  37.056   4.936  13.819
66767W        W32027  10.664  36.981  12.214
66768W        W32028  44.748  14.449  10.689
66769W        W32029  28.894   8.633  11.137
66770W        W32030   0.772  22.747   4.506
66771W        W32031  16.670   8.541   5.193
66772W        W32032  27.458  42.506  14.740
66773W        W32033   3.512  40.009   2.918
66774W        W32034  29.481  11.275   2.703
66775W        W32035  37.555  12.581  12.422
66776W        W32036  23.125  32.448   4.404
66777W        W32037  44.335  37.179  11.925
66778W        W32038  38.362  34.318   4.158
66779W        W32039  27.614  34.500  11.884
66780W        W32040  26.534  44.426   4.633
66781W        W32041   6.806  24.131  13.039
66782W        W32042  17.290  17.180  12.982
66783W        W32043   5.440  42.304  13.511
66784W        W32044  17.897  23.728  13.271
66785W        W32045  39.988   8.626   0.571
66786W        W32046  42.881  15.324   0.414
66787W        W32047  26.196  11.418  14.884
66788W        W32048  38.573  22.497  14.417
66789W        W32049   3.966  41.170   5.457
66790W        W32050  18.129   5.307   4.244
66791W        W32051  21.588  25.999   1.407
66792W        W32052   4.669  12.907  11.121
66793W        W32053  24.635  38.957  11.877
66794W        W32054  33.524   8.905  14.487
66795W        W32055  11.716  39.554   3.593
66796W        W32056  15.805  25.813   0.330
66797W        W32057  37.529  35.017  11.131
66798W        W32058  18.186  10.841  12.545
66799W        W32059  11.793  41.398  14.221
66800W        W32060  10.376   6.091  10.629
66801W        W32061  44.763  14.645  13.970
66802W        W32062  38.264  24.447   1.740
66803W        W32063   6.396  32.239   2.294
66804W        W32064  27.781   6.246  13.030
66805W        W32065  16.494  43.264   3.449
66806W        W32066  23.283  26.964  14.904
66807W        W32067  10.887   9.771   3.206
66808W        W32068   2.072  26.648  10.637
66809W        W32069  26.579  12.629  13.071
66810W        W32070  43.357   9.457  13.370
66811W        W32071  43.836  27.927   3.248
66812W        W32072  29.055  34.862  12.847
66813W        W32073  22.543  40.797   2.373
66814W        W32074  44.053  22.064   2.104
66815W        W32075  41.816  19.474  11.324
66816W        W32076  42.142  21.473  14.421
66817W        W32077   9.042  44.322   4.010
66818W        W32078  28.025  42.214   0.591
66819W        W32079   8.969   6.739   3.224
66820W        W32080  32.083  43.014  12.308
66821W        W32081  32.733  33.193  13.435
66822W        W32082   4.751  42.401  13.943
66823W        W32083  42.415  12.698   0.188
66824W        W32084  16.889  27.217   0.034
66825W        W32085  23.508   3.101   2.413
66826W        W32086  35.641   6.389   3.693
66827W        W32087  36.929  16.837  12.357
66828W        W32088   1.792   1.105   2.998
66829W        W32089  39.742  17.287  10.395
66830W        W32090   4.732  12.296   2.374
66831W        W32091  13.761  35.039   3.264
66832W        W32092  22.442  20.739  13.243
66833W        W32093  33.559  40.306   2.032
66834W        W32094  37.347  18.204  12.902
66835W        W32095   5.915   0.494  11.798
66836W        W32096  33.093  34.364   1.439
66837W        W32097  23.342  42.613   1.620
66838W        W32098  11.587  25.227   0.102
66839W        W32099  21.216  18.297   2.909
66840W        W32100  23.752  27.391   2.748
66841W        W32101  31.465  42.419   0.258
66842W        W32102  34.873  25.219  11.991
66843W        W32103   2.272  22.229   0.941
66844W        W32104  10.442  38.976  13.215
66845W        W32105   4.480   7.274  11.216
66846W        W32106  23.785  12.877   4.359
66847W        W32107  20.165   8.726   3.856
66848W        W32108  28.248  43.587  12.496
66849W        W32109  28.283  14.508  13.451
66850W        W32110  18.660   3.806   4.581
66851W        W32111  13.088  13.174  12.779
66852W        W32112   0.472  26.712   3.315
66853W        W32113  11.300   1.457   4.531
66854W        W32114  32.282  15.772   1.764
66855W        W32115  24.041  21.132  14.964
66856W        W32116  25.953  25.752   2.380
66857W        W32117  18.967  34.071  13.180
66858W        W32118  21.533   3.779   2.365
66859W        W32119  25.052  21.296  10.774
66860W        W32120   5.918  24.188  11.089
66861W        W32121  18.113   7.329  11.472
66862W        W32122   8.629  27.410  12.027
66863W        W32123  32.588  37.742  13.120
66864W        W32124   3.531  20.285   4.570
66865W        W32125   3.863  34.478  14.893
66866W        W32126  24.121  39.088   4.113
66867W        W32127  44.795  20.076   2.667
66868W        W32128   9.389   3.729  11.549
66869W        W32129  34.429   1.248  13.505
66870W        W32130  29.439  25.392  11.029
66871W        W32131  33.645   1.954  11.048
66872W        W32132   8.912  18.516  11.027
66873W        W32133  28.216   6.401   4.123
66874W        W32134   4.724   5.993   3.156
66875W        W32135  19.763  14.325   1.418
66876W        W32136  31.526  29.612   3.368
66877W        W32137  14.405   0.501   0.358
66878W        W32138  18.619   0.231   4.678
66879W        W32139   4.902  13.533   4.157
66880W        W32140  25.251  26.924   1.375
66881W        W32141  24.487  23.687   1.451
66882W        W32142  11.673  29.864  11.990
66883W        W32143   7.143  31.092   0.746
66884W        W32144  10.824   8.662   1.256
66885W        W32145  21.527  20.574  14.848
66886W        W32146  43.165  41.938   5.070
66887W        W32147  21.436   6.198  14.893
66888W        W32148  18.579  16.091   4.155
66889W        W32149  14.029  43.851  13.421
66890W        W32150   9.611  16.763   2.760
66891W        W32151  20.818   9.862  12.166
66892W        W32152  24.157  15.756   4.988
66893W        W32153  29.379  44.319   4.631
66894W        W32154  40.901  18.284  11.650
66895W        W32155  38.598  19.978  13.438
66896W        W32156  19.116   0.727   0.123
66897W        W32157  22.675  19.283   2.668
66898W        W32158  31.694  25.414  11.891
66899W        W32159  23.075  16.928   0.341
66900W        W32160  20.448  28.014   1.118
66901W        W32161  28.974  40.321  13.961
66902W        W32162  18.282  15.518  14.727
66903W        W32163  14.855  26.091   4.134
66904W        W32164  13.174  26.770   0.011
66905W        W32165  18.992   6.110  14.460
66906W        W32166   8.556   9.913   4.099
66907W        W32167   5.531   4.841   1.953
66908W        W32168  23.820  32.944   0.672
66909W        W32169   9.898  13.341   5.088
66910W        W32170  14.291  26.049   1.429
66911W        W32171   0.761   2.239  11.821
66912W        W32172  15.438  35.058   4.180
66913W        W32173  36.096  39.256  14.005
66914W        W32174  17.828   9.256  10.549
66915W        W32175  26.276  24.988   4.706
66916W        W32176  10.168  31.491   1.308
66917W        W32177  28.163   2.925  12.904
66918W        W32178  39.477  22.647  10.999
66919W        W32179  27.078  40.382   4.719
66920W        W32180  33.742  41.564  11.180
66921W        W32181  39.234   8.052   5.068
66922W        W32182  41.825  18.804   4.522
66923W        W32183  40.118  42.350   2.844
66924W        W32184  12.863  17.283  11.154
66925W        W32185   0.095  14.218  12.034
66926W        W32186  33.075  13.891   2.706
66927W        W32187   4.703  18.826   1.747
66928W        W32188   2.217  29.032   3.045
66929W        W32189  11.795  15.269  12.933
66930W        W32190  19.228   2.258   1.328
66931W        W32191  38.942  34.414  13.061
66932W        W32192  13.060  25.157  13.054
66933W        W32193  36.967  18.578  12.998
66934W        W32194  16.735  35.336  14.806
66935W        W32195   4.230  10.442   4.742
66936W        W32196  40.307  36.393   1.752
66937W        W32197  15.394   3.871   2.314
66938W        W32198  23.127  32.037   3.753
66939W        W32199   3.917   1.426  13.365
66940W        W32200  13.039  43.820  14.773
66941W        W32201   7.815  18.756   4.085
66942W        W32202  43.833  12.702   1.215
66943W        W32203  28.345  14.746   1.727
66944W        W32204  22.554  10.650   0.289
66945W        W32205  30.160   6.842   0.938
66946W        W32206   2.511  20.594   1.125
66947W        W32207  17.794   3.208  11.859
66948W        W32208  22.632   4.698   0.859
66949W        W32209  22.645  28.570   2.657
66950W        W32210  15.752  14.183   0.684
66951W        W32211  10.438  19.550  12.280
66952W        W32212  25.535  35.095   2.723
66953W        W32213  28.511  35.029   0.366
66954W        W32214  23.055  30.152   0.497
66955W        W32215  10.806  15.426   3.718
66956W        W32216  24.325  12.764  14.925
66957W        W32217  22.596  15.818   1.683
66958W        W32218  40.050   1.287   2.833
66959W        W32219  14.642  43.489   0.813
66960W        W32220  10.288   0.464   1.660
66961W        W32221  23.208  26.494   0.186
66962W        W32222  25.222  41.804   1.498
66963W        W32223   6.411   2.212   1.907
66964W        W32224  27.143  11.781   1.840
66965W        W32225  34.277  38.089  10.612
66966W        W32226  20.826  24.429   2.265
66967W        W32227  36.371   7.829  12.464
66968W        W32228  40.377  12.803  11.991
66969W        W32229  40.162  41.439   4.985
66970W        W32230  30.877  17.520  14.453
66971W        W32231   3.026  13.810  14.456
66972W        W32232   0.785  15.622   4.364
66973W        W32233   3.018   5.841   1.838
66974W        W32234  26.982  30.897  12.170
66975W        W32235   9.074   6.258  12.034
66976W        W32236  32.936  44.393   4.989
66977W        W32237  12.901  13.213  11.922
66978W        W32238  25.228  19.660  12.596
66979W        W32239  36.902  40.923  13.358
66980W        W32240   1.218   8.162  13.513
66981W        W32241  21.103  18.593   0.720
66982W        W32242  13.703   3.177  12.087
66983W        W32243   6.727   6.258  12.017
66984W        W32244  18.268  15.873  13.558
66985W        W32245  42.798  18.339  12.136
66986W        W32246  31.841  22.139   9.799
66987W        W32247  44.959  11.289  14.984
66988W        W32248  22.533  27.454  10.537
66989W        W32249  38.804  41.254   1.083
66990W        W32250   5.489  11.715   0.704
66991W        W32251  28.141  10.815   1.023
66992W        W32252  33.877  25.906  11.759
66993W        W32253  42.223  23.060  10.506
66994W        W32254  11.870  16.976   2.489
66995W        W32255   8.731  43.059   4.509
66996W        W32256  36.515  19.621  12.361
66997W        W32257   2.857  28.047  14.098
66998W        W32258  11.743  39.586   1.869
66999W        W32259  44.692   0.522  14.942
67000W        W32260   5.755  40.986   2.553
67001W        W32261  37.833   2.236  14.462
67002W        W32262  17.760  37.641   2.275
67003W        W32263  38.121   2.070  10.257
67004W        W32264   0.600  15.402  10.681
67005W        W32265   8.447  41.397   0.883
67006W        W32266  35.138  28.031   2.226
67007W        W32267  18.595  36.893  11.076
67008W        W32268  23.618  26.408   2.819
67009W        W32269  29.461  40.140  14.530
67010W        W32270  33.441  15.251  13.555
67011W        W32271   4.051  16.088   4.659
67012W        W32272   5.495  30.716   2.127
67013W        W32273  22.023   6.540   1.989
67014W        W32274  25.168  37.499   0.493
67015W        W32275   9.551  23.732   3.269
67016W        W32276  33.550   1.320  13.460
67017W        W32277  42.548   7.115   0.970
67018W        W32278  25.719  17.277  13.032
67019W        W32279  16.941  13.808   4.114
67020W        W32280   1.762  23.646   3.167
67021W        W32281  17.850  27.493   2.446
67022W        W32282  14.621  25.573  14.825
67023W        W32283  16.824   2.311  11.285
67024W        W32284  22.232  24.448  10.691
67025W        W32285  35.506   3.884  12.344
67026W        W32286  25.983  29.932  12.865
67027W        W32287  40.984  18.985  13.890
67028W        W32288   1.410  17.235   1.402
67029W        W32289   6.665  34.382   2.791
67030W        W32290  39.874   1.738   3.782
67031W        W32291  34.560  16.654   0.451
67032W        W32292   6.577  23.961  12.072
67033W        W32293  25.218   0.825  10.401
67034W        W32294  38.272  43.864   3.699
67035W        W32295  38.339  42.480   2.643
67036W        W32296  38.851  18.527  11.104
67037W        W32297  11.154  19.871   0.782
67038W        W32298  15.600   1.167  11.121
67039W        W32299  23.150  16.322  13.000
67040W        W32300  14.391  25.182   1.199
67041W        W32301  38.966  42.872   2.802
67042W        W32302  30.454  10.718   2.151
67043W        W32303  10.677  22.822   0.643
67044W        W32304  38.890  13.038  12.835
67045W        W32305  28.218  28.160   5.074
67046W        W32306   5.669   8.678  12.952
67047W        W32307   5.140  42.823  13.544
67048W        W32308   8.888  17.200   1.466
67049W        W32309   1.450   6.330  13.925
67050W        W32310  37.395   4.396  10.660
67051W        W32311   2.658   7.880   4.936
67052W        W32312  32.656  12.839  14.378
67053W        W32313  23.072  40.832  13.293
67054W        W32314  40.606  43.079  11.616
67055W        W32315  23.050  26.878   0.971
67056W        W32316  30.061   0.731   1.094
67057W        W32317  23.647  28.590  10.671
67058W        W32318   3.774   7.047   2.751
67059W        W32319  38.952  40.185   2.454
67060W        W32320  12.254  42.547   3.300
67061W        W32321  27.472  36.088   2.313
67062W        W32322  21.123  41.269  14.843
67063W        W32323  20.602  38.383  11.430
67064W        W32324  42.313  43.957   2.663
67065W        W32325  24.067  34.904  13.569
67066W        W32326   6.747   1.153   0.570
67067W        W32327  44.809  34.517   3.184
67068W        W32328   6.771  10.818  10.696
67069W        W32329  37.401  42.478   2.675
67070W        W32330  12.915   2.794  14.441
67071W        W32331   9.931  31.050  11.983
67072W        W32332  10.816   1.098  13.337
67073W        W32333  34.969   6.274   0.275
67074W        W32334  42.946   7.677   4.128
67075W        W32335   4.902  28.784  14.441
67076W        W32336  11.553   5.248  11.887
67077W        W32337   7.223  23.744  14.495
67078W        W32338  20.352  15.309  12.588
67079W        W32339  38.436   2.099  10.685
67080W        W32340  14.175  17.648   4.432
67081W        W32341  32.090   3.176  11.932
67082W        W32342   8.898   4.970   4.139
67083W        W32343  20.271  34.149   3.771
67084W        W32344   9.648   4.008   2.486
67085W        W32345   3.434  41.399   4.246
67086W        W32346  23.484  40.583   4.864
67087W        W32347   7.030   6.904  10.883
67088W        W32348  15.608  42.263   2.305
67089W        W32349  15.513  10.725  13.708
67090W        W32350  36.163  42.891  10.355
67091W        W32351   8.226  19.161  14.545
67092W        W32352  23.895   1.763   2.356
67093W        W32353   5.698  34.922   0.744
67094W        W32354   1.737   1.731   0.395
67095W        W32355  20.197  12.337   0.700
67096W        W32356  32.203  13.687  10.650
67097W        W32357  25.443  17.840  12.356
67098W        W32358  42.275  35.095   2.225
67099W        W32359  43.039   7.691   2.122
67100W        W32360  31.890  19.529  12.040
67101W        W32361   6.677  30.734   2.988
67102W        W32362   9.318   8.276   3.382
67103W        W32363  14.449  10.939   4.901
67104W        W32364  30.417  44.093   2.714
67105W        W32365   0.566  13.304  12.025
67106W        W32366  20.848  11.510   3.390
67107W        W32367  20.159  14.310   4.938
67108W        W32368  21.720   9.164   4.070
67109W        W32369  21.064   0.290   0.140
67110W        W32370  16.417  38.532  11.350
67111W        W32371  33.823  37.650   1.699
67112W        W32372  40.947  40.998   1.573
67113W        W32373   9.149  11.185  14.288
67114W        W32374  21.607  38.644   1.907
67115W        W32375  16.276  14.296   2.953
67116W        W32376  23.503  24.231   2.535
67117W        W32377  28.375  15.190  12.672
67118W        W32378  32.707   1.677  14.488
67119W        W32379  36.138  10.884  10.680
67120W        W32380  31.410   4.948   1.859
67121W        W32381  18.740  15.232   0.692
67122W        W32382  10.563  33.465  10.290
67123W        W32383  33.019  36.658  10.234
67124W        W32384  13.325  10.292  12.095
67125W        W32385  13.646  14.592  12.038
67126W        W32386   7.086  14.866  12.421
67127W        W32387  22.685   1.233   1.344
67128W        W32388  33.881  22.761  11.146
67129W        W32389  42.965  20.727  14.860
67130W        W32390  37.382   4.451  12.924
67131W        W32391   5.878  41.070   3.576
67132W        W32392  35.602  10.545   0.410
67133W        W32393  34.834   1.886   0.340
67134W        W32394  44.484  25.515  14.775
67135W        W32395   5.904  25.168   3.367
67136W        W32396  14.343  36.839  11.675
67137W        W32397  31.878  26.663  14.300
67138W        W32398  42.876  23.994   1.118
67139W        W32399  11.933   7.197   2.731
67140W        W32400  31.073  25.898   2.550
67141W        W32401  26.806  31.393  12.376
67142W        W32402  33.336  37.953  10.583
67143W        W32403  41.042  18.691  14.306
67144W        W32404  11.014  12.168   2.635
67145W        W32405  28.692  30.170  12.201
67146W        W32406   3.489  43.208   0.795
67147W        W32407  34.144  16.590   2.701
67148W        W32408   9.663  37.989  10.564
67149W        W32409  28.414  18.919   0.373
67150W        W32410  40.341  12.324   2.345
67151W        W32411  11.902  23.865   3.969
67152W        W32412  33.639  26.421  12.365
67153W        W32413  41.937  14.015   2.669
67154W        W32414  21.255   9.697  11.387
67155W        W32415  13.760  33.093   2.411
67156W        W32416  21.612  23.039  10.756
67157W        W32417  30.184   2.963   1.404
67158W        W32418  37.834  33.585  11.223
67159W        W32419  42.093   6.339  11.614
67160W        W32420  27.942  35.375   0.818
67161W        W32421  23.641   2.267  14.562
67162W        W32422  23.309  26.715  12.627
67163W        W32423  16.509  32.011   0.313
67164W        W32424   3.121  42.337   3.187
67165W        W32425  24.166  40.317   1.832
67166W        W32426  16.059  38.743  14.878
67167W        W32427  35.060  12.707   2.828
67168W        W32428  23.313  20.278   0.840
67169W        W32429  13.262  15.245  14.793
67170W        W32430   7.733  21.049  14.406
67171W        W32431  10.606  42.993  11.125
67172W        W32432  42.823   9.306  12.481
67173W        W32433  40.269  16.753   3.311
67174W        W32434  36.911   7.362   4.245
67175W        W32435  37.360  29.480  12.064
67176W        W32436  42.078  21.616   1.287
67177W        W32437  41.277  31.609   4.813
67178W        W32438   1.348  25.514  11.585
67179W        W32439  30.896  44.776   0.937
67180W        W32440  34.784  36.331   3.228
67181W        W32441  30.391  11.177  14.950
67182W        W32442   0.322   3.871   1.887
67183W        W32443  25.157  14.996   2.662
67184W        W32444  37.153  25.158   1.269
67185W        W32445  12.239  44.125  12.537
67186W        W32446  23.307  42.992  12.916
67187W        W32447  32.068  42.217  11.847
67188W        W32448  13.201  24.076  14.563
67189W        W32449  35.474  29.101  12.352
67190W        W32450  33.434  44.783   4.039
67191W        W32451  36.098  36.569   3.587
67192W        W32452  41.773  31.019  14.497
67193W        W32453   5.296  36.187  11.118
67194W        W32454   7.507  43.376   2.518
67195W        W32455  23.748  40.304   4.071
67196W        W32456   2.774  23.771   3.035
67197W        W32457  23.202  18.123   3.126
67198W        W32458  20.198   5.198   1.268
67199W        W32459  20.680  29.328  10.655
67200W        W32460  16.188  44.959  14.034
67201W        W32461  30.615  39.902  13.471
67202W        W32462  21.608  16.765   1.983
67203W        W32463  17.757  39.337  13.267
67204W        W32464   3.333  39.065   0.253
67205W        W32465   5.978   6.294   2.944
67206W        W32466   3.242  27.703   2.584
67207W        W32467   7.696  35.793   2.523
67208W        W32468   8.662  30.011  11.262
67209W        W32469  18.582  23.068  14.785
67210W        W32470  26.581  35.955   1.359
67211W        W32471   5.452  22.015   1.307
67212W        W32472  26.726  29.068  13.943
67213W        W32473   4.773  21.137  12.033
67214W        W32474   0.954  32.511  11.515
67215W        W32475   0.235  26.694  12.490
67216W        W32476   8.189  39.833   3.100
67217W        W32477  15.432  12.847   2.676
67218W        W32478  34.578  12.369   3.672
67219W        W32479  12.109  34.141   4.614
67220W        W32480   1.328  31.409   4.160
67221W        W32481  29.538  34.529   1.401
67222W        W32482  30.972  24.769  11.555
67223W        W32483   1.636   5.213   2.702
67224W        W32484  12.522   2.228   3.550
67225W        W32485   0.263  30.839   2.856
67226W        W32486  21.489  23.695  11.085
67227W        W32487  21.321  12.475   3.216
67228W        W32488  27.424  20.113  12.091
67229W        W32489  28.502  10.839   0.466
67230W        W32490   7.482   7.138  10.985
67231W        W32491  30.589   0.368   1.737
67232W        W32492   2.347   5.661   2.423
67233W        W32493   2.668  26.185  13.024
67234W        W32494  41.742  18.290  11.661
67235W        W32495  43.794  42.288   0.272
67236W        W32496  37.337  25.862  12.677
67237W        W32497  32.045  42.624   3.118
67238W        W32498   7.894  42.646  10.548
67239W        W32499   9.633  39.302  13.114
67240W        W32500  17.690   1.365  13.209
67241W        W32501  41.486  37.166   0.370
67242W        W32502  25.006  15.118  11.536
67243W        W32503  17.582  35.074  10.870
67244W        W32504  25.743  28.608   2.630
67245W        W32505  41.827  34.403  11.408
67246W        W32506   3.762  42.322   4.412
67247W        W32507  12.884  30.236  12.419
67248W        W32508   6.878  44.888  12.375
67249W        W32509  20.675  38.439   0.412
67250W        W32510  37.932  39.322   1.692
67251W        W32511  40.473  35.316  10.545
67252W        W32512  40.011  29.639  13.997
67253W        W32513  20.646   6.695  10.949
67254W        W32514  18.330   8.758   4.665
67255W        W32515   9.839  41.013   2.337
67256W        W32516  43.413   5.970  12.965
67257W        W32517   5.881  29.150   3.748
67258W        W32518  28.939   4.223   3.640
67259W        W32519  22.323  24.209   0.401
67260W        W32520  24.740  41.083   0.057
67261W        W32521  44.515   5.003   1.308
67262W        W32522  44.791  13.895   4.552
67263W        W32523  40.125  15.703  13.047
67264W        W32524  27.614   0.341   0.893
67265W        W32525  20.596   6.004   1.186
67266W        W32526  21.134   6.415  12.293
67267W        W32527  16.237  19.824   1.715
67268W        W32528  20.562  10.321   2.211
67269W        W32529  40.521   7.605  12.341
67270W        W32530  35.940  31.985   4.632
67271W        W32531   0.247   8.202  13.287
67272W        W32532  20.849  22.251   0.497
67273W        W32533  30.380  32.891  12.473
67274W        W32534  43.295  36.017   0.281
67275W        W32535  18.201  42.293   2.194
67276W        W32536   5.970  41.872   3.197
67277W        W32537  15.520  10.976  14.168
67278W        W32538  21.991   7.411   0.879
67279W        W32539  20.302  17.411  13.849
67280W        W32540  36.742  31.998   0.991
67281W        W32541  28.542   1.053  11.898
67282W        W32542   3.792  24.132  10.766
67283W        W32543  14.081  26.746   0.911
67284W        W32544  31.660  44.437  12.309
67285W        W32545  15.323  13.093  12.520
67286W        W32546  36.403  38.082  13.032
67287W        W32547   0.237  10.919   0.989
67288W        W32548  18.803  11.746   3.050
67289W        W32549  10.717  41.969   4.224
67290W        W32550  41.274  35.444  12.380
67291W        W32551  31.405  30.176   5.130
67292W        W32552   4.419  37.820  11.993
67293W        W32553  29.211  44.412   1.851
67294W        W32554  10.420   3.933   0.960
67295W        W32555   1.455   4.423  10.899
67296W        W32556  32.343  36.535   0.696
67297W        W32557  36.011  26.750  10.348
67298W        W32558  32.837  22.193  13.936
67299W        W32559  20.171  36.969   2.402
67300W        W32560   0.363  14.053  13.418
67301W        W32561  37.974  30.742  14.433
67302W        W32562  29.535  12.742   1.387
67303W        W32563   2.799  24.760   0.288
67304W        W32564  36.990  14.273  10.325
67305W        W32565  30.363  27.372   4.089
67306W        W32566   8.380  42.859  10.720
67307W        W32567  23.267  44.733   1.316
67308W        W32568  20.409  40.366   4.585
67309W        W32569  19.787   4.959   0.225
67310W        W32570  13.559  20.278  14.107
67311W        W32571   1.910   3.647   0.382
67312W        W32572   9.106   5.034  14.328
67313W        W32573  18.428  22.403  10.284
67314W        W32574  23.004  18.053  10.183
67315W        W32575  16.156  21.672  14.223
67316W        W32576  36.943  15.131   4.639
67317W        W32577   5.074  12.292   1.419
67318W        W32578  26.810  35.479   9.828
67319W        W32579  16.848  38.293  11.508
67320W        W32580  24.420  17.365   2.749
67321W        W32581  29.946  23.564  12.077
67322W        W32582   7.703   6.886   3.339
67323W        W32583  14.108  31.090  14.328
67324W        W32584  36.357  34.514   1.836
67325W        W32585  14.321  29.609   1.033
67326W        W32586  32.129   8.710  13.883
67327W        W32587  14.164  35.102  14.070
67328W        W32588  27.431  15.853  12.372
67329W        W32589  21.325  18.141   9.826
67330W        W32590  15.575  17.746   2.318
67331W        W32591   7.557   7.345   2.279
67332W        W32592  42.457  39.156  10.688
67333W        W32593   8.249  27.467   2.285
67334W        W32594  30.480  27.654  11.257
67335W        W32595   9.125  26.059   0.053
67336W        W32596  38.048   5.329   4.536
67337W        W32597   5.370  21.574   0.911
67338W        W32598  28.901   4.920  13.278
67339W        W32599   5.001  17.198  12.529
67340W        W32600  23.538  22.457   3.800
67341W        W32601  41.461  11.822   2.875
67342W        W32602  14.178  32.976   2.655
67343W        W32603  10.846  35.325  12.018
67344W        W32604  14.571  20.148   9.781
67345W        W32605  36.624   8.695  11.018
67346W        W32606   2.707  27.074   0.289
67347W        W32607  37.158  34.577   0.912
67348W        W32608  29.494   6.218  10.676
67349W        W32609  39.655  43.556  14.852
67350W        W32610  43.799   5.028   3.602
67351W        W32611  41.550   0.296  10.755
67352W        W32612  39.014  28.696   2.690
67353W        W32613  33.025  27.898   3.767
67354W        W32614  17.127  39.790  11.133
67355W        W32615  36.934  38.112   2.344
67356W        W32616  38.728   3.460   0.247
67357W        W32617   9.162  28.498   2.505
67358W        W32618  21.828   5.314  12.262
67359W        W32619   9.820   9.398   1.728
67360W        W32620  42.847  15.028   2.333
67361W        W32621  16.387  13.194  13.594
67362W        W32622  41.066  24.548   4.125
67363W        W32623   7.417  18.265  12.533
67364W        W32624  30.082  34.846  14.419
67365W        W32625   6.756  13.214   2.653
67366W        W32626  19.057  13.604   4.142
67367W        W32627  26.708  11.081   2.771
67368W        W32628   2.040  16.086   2.629
67369W        W32629  43.981  39.460  11.745
67370W        W32630   1.725  37.872   1.744
67371W        W32631   6.974  10.098  11.188
67372W        W32632   1.311  25.696   1.204
67373W        W32633  27.199  20.574  11.891
67374W        W32634  38.039  23.053   1.173
67375W        W32635  18.547  36.819   4.731
67376W        W32636  28.033  12.279   1.572
67377W        W32637   4.239   9.383  11.025
67378W        W32638  25.871  20.235   1.178
67379W        W32639  35.940  18.308  12.492
67380W        W32640  30.955  32.007   2.842
67381W        W32641  14.048  41.857   4.468
67382W        W32642  35.291  32.003  13.705
67383W        W32643  23.767  27.561   0.850
67384W        W32644  16.148  15.695  12.669
67385W        W32645  18.294  19.952   2.885
67386W        W32646  42.755  43.724   4.584
67387W        W32647  27.455  24.443  10.744
67388W        W32648  33.744  12.607  10.398
67389W        W32649  41.042  39.345  14.915
67390W        W32650  23.450  13.609   3.787
67391W        W32651  22.425   4.249   2.691
67392W        W32652  33.510  34.606   4.560
67393W        W32653   3.972  14.081  10.657
67394W        W32654   0.925   5.028  10.213
67395W        W32655   0.090  13.812   4.955
67396W        W32656  38.040  14.172   1.179
67397W        W32657  23.797   6.283   3.646
67398W        W32658   8.041  12.678   4.542
67399W        W32659  32.618  38.644   1.407
67400W        W32660  38.361  11.745  12.975
67401W        W32661  34.728  39.800  13.861
67402W        W32662  29.437  13.446   0.590
67403W        W32663  18.144  19.428   3.710
67404W        W32664  22.672  26.123  11.021
67405W        W32665  23.703   0.933   2.829
67406W        W32666  31.926  43.317   0.922
67407W        W32667  39.074  10.786   4.038
67408W        W32668  16.449  20.969   5.056
67409W        W32669  20.698  18.446  11.055
67410W        W32670   8.445  22.921   2.324
67411W        W32671   6.348  16.278  13.103
67412W        W32672  24.005  28.911   3.785
67413W        W32673   1.369  24.766  11.536
67414W        W32674  41.241   6.898   2.746
67415W        W32675  26.511  26.628   5.002
67416W        W32676  11.411   7.265   2.662
67417W        W32677   9.413  12.274  13.334
67418W        W32678  29.230  23.290   0.804
67419W        W32679  42.230   9.248   3.626
67420W        W32680  15.675  19.139   0.431
67421W        W32681  23.203  19.354  10.730
67422W        W32682  22.265  31.958  10.623
67423W        W32683  42.643   2.497   4.491
67424W        W32684   4.334   8.038  10.734
67425W        W32685  42.313  12.605  12.965
67426W        W32686  32.498  33.662  10.732
67427W        W32687  14.242  34.563  11.979
67428W        W32688   7.889  44.744   2.155
67429W        W32689   0.305   3.199   1.905
67430W        W32690   3.032  31.698  13.217
67431W        W32691  19.057  14.102   0.303
67432W        W32692   8.191  26.962  13.336
67433W        W32693  42.813  26.141   0.861
67434W        W32694  12.728  34.141   2.751
67435W        W32695  18.353  39.837   2.762
67436W        W32696   2.615  12.013  12.073
67437W        W32697  39.260  28.422  11.588
67438W        W32698  21.606  35.251   2.427
67439W        W32699   0.925  24.751   3.655
67440W        W32700  33.989  19.588  10.523
67441W        W32701  12.517  33.138   3.859
67442W        W32702  42.828  19.305  14.878
67443W        W32703   2.880  42.086  13.790
67444W        W32704   4.494  42.494  12.051
67445W        W32705   1.683   4.802  10.598
67446W        W32706  34.745   4.199  11.178
67447W        W32707   6.654  25.653  14.868
67448W        W32708  37.493  13.740   1.414
67449W        W32709   0.616  22.373   2.496
67450W        W32710  36.139  33.686   3.665
67451W        W32711  38.825  11.832   4.505
67452W        W32712  19.096   7.677   2.282
67453W        W32713   1.585  40.579  12.939
67454W        W32714  26.149   6.733   4.603
67455W        W32715  15.332   3.308  11.949
67456W        W32716  13.053  23.641   2.226
67457W        W32717  16.822  38.989  14.836
67458W        W32718  21.969  26.972  11.361
67459W        W32719   0.816  41.724   3.368
67460W        W32720  33.509   9.903   0.901
67461W        W32721  32.407  36.349   3.042
67462W        W32722  31.592  36.131   2.340
67463W        W32723  39.078  39.580   4.748
67464W        W32724  23.061  20.581   2.752
67465W        W32725  16.555  33.049   2.804
67466W        W32726  42.558  19.262   4.699
67467W        W32727   6.398   7.091   2.817
67468W        W32728   4.641   6.324  11.554
67469W        W32729  39.385   1.016  13.438
67470W        W32730  33.529   4.975   0.332
67471W        W32731   8.683   1.200  13.617
67472W        W32732  34.178  12.380   0.236
67473W        W32733   1.047  23.718   3.667
67474W        W32734  35.563  25.959  13.017
67475W        W32735   3.246  26.722   5.111
67476W        W32736  25.924   1.847   2.719
67477W        W32737  36.698  13.376  13.630
67478W        W32738  36.266   4.184   2.824
67479W        W32739   9.798  44.948  12.460
67480W        W32740  38.509  43.016   1.464
67481W        W32741  10.429  26.862  14.477
67482W        W32742  29.071  15.660   3.296
67483W        W32743   8.259  13.640  10.753
67484W        W32744  18.428   6.317   5.211
67485W        W32745  38.652  18.602  13.744
67486W        W32746  39.356   5.350   3.630
67487W        W32747  17.545  28.607   2.610
67488W        W32748   0.255  30.776   1.230
67489W        W32749  26.959  27.745   2.229
67490W        W32750  43.793  36.114  13.500
67491W        W32751  12.340  13.658  10.704
67492W        W32752  18.134  17.968  12.534
67493W        W32753  26.052  28.400  12.839
67494W        W32754   8.718  11.782   3.708
67495W        W32755  27.166   1.761   2.250
67496W        W32756  15.638   6.827  14.506
67497W        W32757  44.858  37.376  14.750
67498W        W32758  32.650  25.583  11.047
67499W        W32759  19.078   6.936   3.792
67500W        W32760  35.950   8.754   3.839
67501W        W32761  21.862   5.239   0.693
67502W        W32762  29.151  41.038   1.838
67503W        W32763  30.369   1.952  14.835
67504W        W32764  25.745   9.468  10.800
67505W        W32765  36.913  14.238  13.396
67506W        W32766  10.202  11.908  11.796
67507W        W32767  34.951  22.966   3.310
67508W        W32768  29.611   4.443  12.155
67509W        W32769  17.503  40.978   3.777
67510W        W32770  36.071  21.064  11.197
67511W        W32771  14.561  32.155   0.398
67512W        W32772  19.615  37.460   0.876
67513W        W32773  27.818   5.237   0.912
67514W        W32774  38.592   4.982   3.699
67515W        W32775  21.020  36.233   0.597
67516W        W32776  33.077  37.480  10.588
67517W        W32777  43.861  38.479   4.786
67518W        W32778  16.711  21.251  10.837
67519W        W32779  13.862  35.477  13.112
67520W        W32780  17.159  32.178   4.438
67521W        W32781  34.594   4.183  14.020
67522W        W32782  10.955  39.624  13.496
67523W        W32783   7.584  21.782  14.052
67524W        W32784  44.627   8.846  10.212
67525W        W32785  33.509  39.438  13.834
67526W        W32786  20.750  29.939  11.140
67527W        W32787  31.113  42.932   2.129
67528W        W32788  30.644  32.998  13.367
67529W        W32789   0.330  34.845  14.740
67530W        W32790  23.956  11.145  12.942
67531W        W32791  32.296  40.916  12.029
67532W        W32792  17.036  14.996  14.402
67533W        W32793  19.802  18.175   1.286
67534W        W32794  10.479  34.278  10.363
67535W        W32795  30.015  14.777  12.914
67536W        W32796  31.590   8.921  13.784
67537W        W32797  18.554  41.962  14.440
67538W        W32798  32.673  32.005  12.774
67539W        W32799  19.545  25.292   3.213
67540W        W32800  40.375  44.761  11.958
67541W        W32801  22.760  28.072  10.789
67542W        W32802  26.121  16.208   3.976
67543W        W32803  18.614   7.425   0.057
67544W        W32804  31.049   0.151  11.090
67545W        W32805  41.935  37.396  13.738
67546W        W32806  38.997   6.440  14.339
67547W        W32807  31.670  42.576  13.490
67548W        W32808  27.642  18.176   1.969
67549W        W32809   8.933  40.802   2.399
67550W        W32810  22.276  10.686   4.234
67551W        W32811   4.282  34.071   4.146
67552W        W32812  39.748  27.505   2.165
67553W        W32813  17.225  31.538   9.809
67554W        W32814  23.662  30.128   2.743
67555W        W32815  43.473  17.998   1.383
67556W        W32816  29.198   3.951  13.273
67557W        W32817  37.135  13.242  12.124
67558W        W32818  41.572   2.523   0.777
67559W        W32819  25.562  43.312   3.230
67560W        W32820  37.471   2.322  10.334
67561W        W32821   1.488  30.600  14.682
67562W        W32822   7.624  44.220   3.669
67563W        W32823   7.883  28.522   3.095
67564W        W32824  31.966  32.569   3.759
67565W        W32825  16.490   7.938  13.123
67566W        W32826  19.351  29.761  14.573
67567W        W32827  16.070  26.930  13.632
67568W        W32828  24.328  20.165   2.799
67569W        W32829  37.320  24.487   0.785
67570W        W32830  15.212  38.445  13.201
67571W        W32831  15.398  43.321  14.262
67572W        W32832  44.105  41.063   4.715
67573W        W32833  30.504   5.332   2.339
67574W        W32834  29.619  25.671  13.916
67575W        W32835  28.177  27.128   1.483
67576W        W32836  43.254  25.759  13.992
67577W        W32837  23.267  30.678   4.627
67578W        W32838  24.695  33.399   3.139
67579W        W32839  36.604   0.200  14.590
67580W        W32840  34.859   7.297   4.045
67581W        W32841  25.434   9.305  13.095
67582W        W32842   7.672   3.182   3.204
67583W        W32843  27.494  42.036   0.431
67584W        W32844  10.761   6.695  12.980
67585W        W32845   3.280  22.138  13.577
67586W        W32846  23.237  33.793   3.571
67587W        W32847   1.754  31.891   5.198
67588W        W32848  41.836  25.853   0.011
67589W        W32849  32.513   0.922   0.717
67590W        W32850  21.566   3.257   2.406
67591W        W32851  11.900  40.632  11.489
67592W        W32852  10.851  38.544   2.076
67593W        W32853   6.470  23.662  12.684
67594W        W32854  35.037  13.380   0.750
67595W        W32855  14.184  33.136   3.638
67596W        W32856  32.495   8.917   0.496
67597W        W32857  44.165  33.392   4.104
67598W        W32858  16.753  23.154  12.058
67599W        W32859  16.880   4.790   0.787
67600W        W32860  12.669  18.829   1.375
67601W        W32861  41.866  41.830   1.913
67602W        W32862  31.048  38.436   3.867
67603W        W32863  23.295  39.864   0.910
67604W        W32864   6.877  43.808   0.378
67605W        W32865  18.030   3.032   3.319
67606W        W32866  37.995   4.188   3.222
67607W        W32867   2.319  24.843  11.988
67608W        W32868  12.128  19.125  10.720
67609W        W32869   3.226   8.749   1.288
67610W        W32870  23.138   7.586  11.947
67611W        W32871   2.774  39.888  12.949
67612W        W32872   8.677   4.905  13.568
67613W        W32873  44.722   6.442  14.972
67614W        W32874  18.356  41.960  11.432
67615W        W32875  36.186  17.231   3.111
67616W        W32876  10.315  38.387   0.747
67617W        W32877  43.991  19.863  10.601
67618W        W32878  37.345  34.160   1.785
67619W        W32879  25.487  25.467  13.223
67620W        W32880  36.837   5.168  14.498
67621W        W32881  22.543   6.579   0.308
67622W        W32882   6.820  41.841  14.253
67623W        W32883  16.568   1.542   0.520
67624W        W32884   2.167  43.003   1.551
67625W        W32885   2.379   9.331   1.245
67626W        W32886  30.948  11.565  12.916
67627W        W32887  33.135  34.348  11.409
67628W        W32888   9.352  32.708  13.924
67629W        W32889  20.007   7.501  10.290
67630W        W32890  32.679  37.312   4.893
67631W        W32891  17.976  44.774   2.300
67632W        W32892  18.265   2.719   1.147
67633W        W32893  27.955  38.036  13.429
67634W        W32894  12.816  37.351  13.246
67635W        W32895  31.407  39.967   2.785
67636W        W32896  37.521  34.030  14.455
67637W        W32897  33.652  38.834  14.971
67638W        W32898   1.410  41.005   2.922
67639W        W32899  22.652  10.209  13.441
67640W        W32900   4.947  40.973  14.680
67641W        W32901  12.847  22.857  12.021
67642W        W32902   1.846   9.898   0.896
67643W        W32903  25.182  19.071   4.039
67644W        W32904  15.611  43.246   1.283
67645W        W32905   1.577   5.828  11.016
67646W        W32906  37.028  27.084  14.956
67647W        W32907  32.290  22.132  12.102
67648W        W32908   0.194  37.334  12.006
67649W        W32909  29.221   9.268  12.500
67650W        W32910  23.127  17.595  13.531
67651W        W32911  11.245  12.123   0.759
67652W        W32912   1.897  37.323   3.246
67653W        W32913   5.324  14.915  12.157
67654W        W32914   1.933  33.015   4.443
67655W        W32915  24.163  38.246  13.223
67656W        W32916  28.426  34.150   2.419
67657W        W32917  11.291  38.655  10.468
67658W        W32918  43.537  33.011  12.979
67659W        W32919  28.098  18.394   1.457
67660W        W32920  18.572  15.574  11.121
67661W        W32921  12.193  27.327  11.040
67662W        W32922  38.085  11.404  12.078
67663W        W32923  14.950  41.824   0.619
67664W        W32924   5.943  23.527   3.827
67665W        W32925  35.487  18.994  10.778
67666W        W32926   0.766  17.234   0.021
67667W        W32927  34.431  33.917  11.649
67668W        W32928  35.375   0.999  14.471
67669W        W32929   3.080   5.538  12.589
67670W        W32930  23.960  15.354  13.227
67671W        W32931  29.004  39.140   0.766
67672W        W32932  10.221  28.478   3.173
67673W        W32933   8.270  42.883  13.059
67674W        W32934   1.140  22.511  12.424
67675W        W32935  28.749  44.257  14.957
67676W        W32936  28.244  11.125  12.470
67677W        W32937  25.457  28.231   1.119
67678W        W32938  41.614  40.398   2.750
67679W        W32939  32.352   9.158  13.164
67680W        W32940  43.381  37.504   0.098
67681W        W32941  10.667  37.768   0.264
67682W        W32942  36.946  17.636  13.889
67683W        W32943  14.329   9.320  10.744
67684W        W32944   1.358  27.264   2.320
67685W        W32945  42.015   7.396   2.661
67686W        W32946  17.098  39.421  14.854
67687W        W32947  25.207  25.152   2.743
67688W        W32948  34.561  19.359   3.418
67689W        W32949  14.253  16.266  12.480
67690W        W32950  19.215  27.628   0.028
67691W        W32951  15.735  28.604  12.211
67692W        W32952   2.942  15.418   2.953
67693W        W32953  43.058  20.169   4.548
67694W        W32954   9.257  15.533   1.744
67695W        W32955  39.582  38.800  14.878
67696W        W32956  16.549  43.349  12.413
67697W        W32957  17.325  10.244  12.090
67698W        W32958  43.966  19.783  11.820
67699W        W32959  33.920  40.055   4.620
67700W        W32960  42.539  38.116   1.324
67701W        W32961  40.965   6.272   0.341
67702W        W32962  19.196  27.504   4.607
67703W        W32963  35.855  21.846  14.839
67704W        W32964  19.719  15.356   3.715
67705W        W32965   5.249  12.204  12.656
67706W        W32966  31.147  42.903   4.370
67707W        W32967  26.972  30.077   3.628
67708W        W32968  27.595  41.617   3.283
67709W        W32969  35.380  36.904   0.051
67710W        W32970   7.235  15.909   1.906
67711W        W32971  11.347  21.933   2.964
67712W        W32972  32.587  19.628   1.996
67713W        W32973  34.802  20.161   1.878
67714W        W32974  34.076  41.590  11.585
67715W        W32975  35.052  31.945  12.840
67716W        W32976  37.476  26.025  12.178
67717W        W32977  31.208  25.494  13.292
67718W        W32978  23.646  33.554   2.336
67719W        W32979  18.507  22.795   4.644
67720W        W32980  43.274   7.201   1.411
67721W        W32981  21.063   7.638  11.082
67722W        W32982  36.833  29.035  11.440
67723W        W32983  32.660   6.189   3.276
67724W        W32984   6.673   8.842  11.633
67725W        W32985  43.280  38.707  10.269
67726W        W32986  26.459  26.270  11.315
67727W        W32987  12.890  22.990   2.418
67728W        W32988  24.165   9.360   4.011
67729W        W32989   4.936  11.805   2.360
67730W        W32990  15.890  22.186  13.352
67731W        W32991   0.121  32.633  10.634
67732W        W32992  39.470  23.841   3.865
67733W        W32993   0.223   9.934   1.958
67734W        W32994   1.290  22.039   0.738
67735W        W32995  36.400  11.104  13.836
67736W        W32996  44.035  29.933   4.105
67737W        W32997   5.954  44.489  13.286
67738W        W32998  12.186  22.212   3.208
67739W        W32999   1.485  43.831  14.778
67740W        W33000   9.257  15.599   0.660
67741W        W33001  35.598  14.596   1.173
67742W        W33002   4.746  21.331  10.676
67743W        W33003  36.063   5.415   1.356
67744W        W33004  14.251  12.290   0.915
67745W        W33005   2.468  42.196  12.979
67746W        W33006   4.978   1.005   0.821
67747W        W33007  36.591  13.708   2.763
67748W        W33008   9.315  19.515  13.410
67749W        W33009  37.429   9.873   4.552
67750W        W33010  44.381  42.817   3.362
67751W        W33011   3.079  41.053  12.503
67752W        W33012  18.101   5.244   0.352
67753W        W33013  30.056  23.026  14.199
67754W        W33014  28.106  23.774   4.366
67755W        W33015  12.277  29.865  11.283
67756W        W33016  33.268  14.673   2.038
67757W        W33017   7.773  32.731   3.228
67758W        W33018  30.110  31.336   4.451
67759W        W33019   1.189  43.728  14.368
67760W        W33020   6.932  43.960  14.193
67761W        W33021  36.898   6.651  12.774
67762W        W33022  15.567  37.976  10.603
67763W        W33023  43.443  19.118  13.460
67764W        W33024   1.246  18.646  11.226
67765W        W33025   9.191  19.787   3.496
67766W        W33026   3.229   0.369  14.310
67767W        W33027  36.543  14.562  10.247
67768W        W33028  34.492   9.786   3.753
67769W        W33029   1.357  27.784   1.365
67770W        W33030   6.570  39.825   4.331
67771W        W33031  37.235  34.763  13.469
67772W        W33032  38.631  27.353   0.349
67773W        W33033  13.747  40.335  13.958
67774W        W33034  44.925  28.765  13.389
67775W        W33035  14.562  38.597  13.922
67776W        W33036   1.453  19.058  11.555
67777W        W33037  24.051  43.216  13.078
67778W        W33038  38.836  15.093   4.622
67779W        W33039  32.981  34.154  10.961
67780W        W33040   6.800  20.269  14.818
67781W        W33041   1.016  27.191  11.289
67782W        W33042  44.983  31.698  11.957
67783W        W33043  34.410   3.100   1.456
67784W        W33044  11.258  32.489  12.354
67785W        W33045  39.114  10.419   2.374
67786W        W33046   0.270   1.458  12.832
67787W        W33047  41.938   1.003   2.090
67788W        W33048  23.177  30.616  12.384
67789W        W33049  44.857  41.909   2.626
67790W        W33050  18.357   6.328   3.073
67791W        W33051  38.438  15.491  10.590
67792W        W33052  17.690  37.329  13.892
67793W        W33053  15.737   5.409  11.425
67794W        W33054  20.557   4.841  12.107
67795W        W33055  23.206  41.405  12.069
67796W        W33056  20.991  20.259  11.717
67797W        W33057  12.179   9.438   4.230
67798W        W33058  38.353   3.360  14.869
67799W        W33059  42.187  24.730   3.119
67800W        W33060  10.460  20.945   4.078
67801W        W33061  16.860  35.563  10.635
67802W        W33062  16.947   9.199  12.467
67803W        W33063   4.988  16.472  13.621
67804W        W33064   0.472  42.511   1.196
67805W        W33065  15.815   2.941   0.411
67806W        W33066   4.795  15.129   0.834
67807W        W33067  39.445  42.336  10.788
67808W        W33068  21.615  18.100   3.189
67809W        W33069  44.525  16.451   1.948
67810W        W33070   3.895  31.693  12.876
67811W        W33071   0.030  21.718  11.280
67812W        W33072  14.882  32.627   3.248
67813W        W33073  39.871  12.173  14.580
67814W        W33074  43.833   7.724   1.661
67815W        W33075  34.564  13.857   4.636
67816W        W33076  13.567  37.737  10.717
67817W        W33077   2.731  42.413  12.552
67818W        W33078   8.086  27.514   1.334
67819W        W33079  21.843  30.574  10.759
67820W        W33080  29.405   2.243   3.187
67821W        W33081  27.016  35.008   4.422
67822W        W33082  20.644  23.855   1.254
67823W        W33083  24.115  25.694  11.927
67824W        W33084   1.317  32.876   0.398
67825W        W33085  40.725  39.819  11.949
67826W        W33086  28.822  43.430   1.989
67827W        W33087  21.320  41.513   2.743
67828W        W33088  37.560  16.026   4.128
67829W        W33089  19.595   5.687   1.730
67830W        W33090  17.325  20.738  14.805
67831W        W33091  16.318  39.298   2.848
67832W        W33092  44.869  32.439   1.682
67833W        W33093  24.757  39.099   9.987
67834W        W33094  24.575  38.252   2.511
67835W        W33095   7.115  14.302   0.721
67836W        W33096  31.199   6.971   2.812
67837W        W33097  30.594  25.202  12.496
67838W        W33098  27.354  28.446  14.090
67839W        W33099  27.219   9.748  13.813
67840W        W33100   6.243   5.184   0.301
67841W        W33101  20.762   4.719  14.355
67842W        W33102  19.008  12.491   1.811
67843W        W33103  36.816  32.416   1.840
67844W        W33104   2.184  24.147  13.978
67845W        W33105  32.790  36.462   3.383
67846W        W33106   4.230  30.856  14.438
67847W        W33107  33.553  31.239   2.316
67848W        W33108  42.501   1.299   4.230
67849W        W33109   0.881  32.354   4.919
67850W        W33110   2.295  37.487   1.477
67851W        W33111  33.056   1.508   0.990
67852W        W33112  19.582   2.953   1.393
67853W        W33113  11.108  17.516  14.456
67854W        W33114  44.510  43.544   2.345
67855W        W33115   2.810  32.293  14.325
67856W        W33116  12.604  17.224  14.024
67857W        W33117  15.280   4.729   0.937
67858W        W33118  41.753  31.269  10.716
67859W        W33119  40.982  23.954  13.880
67860W        W33120   4.165  40.245  12.439
67861W        W33121  41.414  44.470  13.595
67862W        W33122  14.223   6.469  12.218
67863W        W33123  25.450   1.663   2.689
67864W        W33124  29.663  27.934   2.715
67865W        W33125  43.908  27.455  11.208
67866W        W33126  30.992  38.318  13.999
67867W        W33127   1.266  12.756  13.622
67868W        W33128   2.930   7.272  12.479
67869W        W33129  36.887  35.757   3.711
67870W        W33130  32.718  39.986   1.412
67871W        W33131  11.187  11.071  12.006
67872W        W33132  18.106   9.050   3.716
67873W        W33133   0.265  18.925  12.609
67874W        W33134   2.427   3.713  13.779
67875W        W33135  19.325  33.445   2.351
67876W        W33136  29.344  38.432  10.738
67877W        W33137  16.339   8.202   0.357
67878W        W33138  36.828   0.294   9.926
67879W        W33139  27.016  21.714  13.445
67880W        W33140  23.650  25.731  14.425
67881W        W33141  17.085   1.066   0.980
67882W        W33142  19.790  38.970  10.249
67883W        W33143   5.407  25.923   1.949
67884W        W33144  23.031   8.487   1.731
67885W        W33145   2.139   3.994  11.554
67886W        W33146  13.312   2.449   3.320
67887W        W33147  22.933  15.109  14.526
67888W        W33148  14.851  36.226  11.506
67889W        W33149  38.016  39.016  11.113
67890W        W33150  18.958  16.237   1.442
67891W        W33151  37.644  44.853  12.574
67892W        W33152  12.868  31.540  10.769
67893W        W33153  10.967   9.419  11.972
67894W        W33154  26.700  25.136  13.456
67895W        W33155   8.594  44.735  12.116
67896W        W33156  14.535   5.868   1.783
67897W        W33157  15.113   3.778  13.538
67898W        W33158  32.712   9.717  14.427
67899W        W33159  31.241  29.536  11.050
67900W        W33160  18.167  21.332   4.546
67901W        W33161  32.997  37.841  11.005
67902W        W33162  30.654   7.925  14.034
67903W        W33163  29.751   7.126  10.827
67904W        W33164  13.228  41.992   0.470
67905W        W33165   8.845  16.387   3.732
67906W        W33166  22.555   1.252   3.289
67907W        W33167  44.039  15.677   0.955
67908W        W33168  11.880  42.692   4.117
67909W        W33169  36.615   3.528   1.399
67910W        W33170  12.387   8.154   1.791
67911W        W33171  13.786  35.456  12.051
67912W        W33172   7.640  27.249  10.282
67913W        W33173  10.710  31.827   0.975
67914W        W33174  37.978  37.787  10.468
67915W        W33175  10.631  42.586  12.061
67916W        W33176   6.765  34.099   0.987
67917W        W33177  42.879  10.139   2.587
67918W        W33178  38.338  34.525   3.086
67919W        W33179  30.632  44.986   2.871
67920W        W33180  31.859  10.237  11.103
67921W        W33181  39.943  35.211  13.095
67922W        W33182  35.482  13.604  11.241
67923W        W33183  28.639  39.553   4.551
67924W        W33184   6.191  17.730  10.275
67925W        W33185  40.420   3.258  13.295
67926W        W33186  13.875  14.098   2.306
67927W        W33187  24.500  16.652  14.484
67928W        W33188  13.381   8.939  13.967
67929W        W33189  25.256  28.513  13.419
67930W        W33190   8.881  35.353  12.147
67931W        W33191  26.269   1.251  14.096
67932W        W33192  43.531  37.122  14.287
67933W        W33193  20.267  25.055  13.862
67934W        W33194   6.617  31.754  11.196
67935W        W33195  11.305   1.078  12.521
67936W        W33196  42.731   7.779   0.748
67937W        W33197  30.927  36.051   4.196
67938W        W33198  31.671  44.551   1.778
67939W        W33199  24.447   0.349   2.346
67940W        W33200   5.949  38.337   0.219
67941W        W33201  16.340  31.889   4.116
67942W        W33202   7.232  39.053   1.265
67943W        W33203  22.990  38.428  11.108
67944W        W33204  14.756  25.012  10.625
67945W        W33205   9.844  11.886  14.388
67946W        W33206  11.683  10.177   4.465
67947W        W33207  11.727  11.235   0.825
67948W        W33208   2.790  43.545  10.497
67949W        W33209  10.525  13.165   2.567
67950W        W33210  38.942   9.246  12.902
67951W        W33211   0.180  36.916  11.028
67952W        W33212   6.927  39.705  12.738
67953W        W33213  13.051  16.687  12.334
67954W        W33214  32.550  10.672  11.523
67955W        W33215   6.801   1.892  10.536
67956W        W33216  39.474  34.587   0.519
67957W        W33217  36.594  35.050  13.894
67958W        W33218   4.430  20.271   5.133
67959W        W33219  11.834  20.536  14.431
67960W        W33220  32.102  43.765  12.403
67961W        W33221  12.676  22.747   4.279
67962W        W33222  32.165  29.449   2.256
67963W        W33223  41.575  15.550   2.039
67964W        W33224  40.021   0.421   3.816
67965W        W33225  37.065   0.052   3.256
67966W        W33226  23.057  10.023  11.617
67967W        W33227  12.911  26.886  12.963
67968W        W33228  29.519  32.602  13.993
67969W        W33229  14.632  14.177   0.032
67970W        W33230  12.846   7.896  10.571
67971W        W33231  41.737  18.907   5.026
67972W        W33232  33.603   1.842   2.604
67973W        W33233   4.267   5.744  11.002
67974W        W33234  28.684  43.886   3.341
67975W        W33235  30.463  40.570   1.751
67976W        W33236  34.569  32.429   3.332
67977W        W33237  36.943  14.628   2.770
67978W        W33238  41.311  25.647   1.468
67979W        W33239  25.641  38.868  10.834
67980W        W33240   7.403  14.585  14.800
67981W        W33241  29.667   1.744   4.785
67982W        W33242  31.472   2.866  12.458
67983W        W33243  25.444   1.860   4.111
67984W        W33244  21.694  18.136  11.650
67985W        W33245  13.004  38.299   2.697
67986W        W33246  30.675  42.363   0.789
67987W        W33247   7.436  22.257   0.805
67988W        W33248  10.846  30.377   3.080
67989W        W33249   5.830  12.083   0.901
67990W        W33250  25.771  21.564  14.834
67991W        W33251  13.074  27.920  13.696
67992W        W33252  25.802  24.821  14.347
67993W        W33253   5.109  30.415   1.665
67994W        W33254  31.860  24.599   0.810
67995W        W33255  40.815   8.090  14.765
67996W        W33256  32.504  23.496   2.730
67997W        W33257  33.846  19.125  10.671
67998W        W33258  36.800  25.244  14.836
67999W        W33259  39.250  15.289   4.864
68000W        W33260  19.607  24.442   3.719
68001W        W33261  38.783  31.644  11.575
68002W        W33262   0.295   2.563  14.241
68003W        W33263   3.909  38.784   1.424
68004W        W33264   6.343  11.083   0.489
68005W        W33265  26.975  12.655  12.474
68006W        W33266  28.702  43.796  12.364
68007W        W33267  34.902  18.080  12.005
68008W        W33268  27.739   0.692  14.848
68009W        W33269   6.345  32.166  14.515
68010W        W33270  37.804  26.550  10.991
68011W        W33271  37.145   9.696   1.526
68012W        W33272  10.671   3.527  13.561
68013W        W33273   3.267  29.679   4.574
68014W        W33274  26.601  10.638   2.007
68015W        W33275   6.436  39.951   3.770
68016W        W33276   5.407  20.185  11.623
68017W        W33277  25.584  38.140  10.668
68018W        W33278  25.160  18.699  11.649
68019W        W33279  27.670  39.135   2.755
68020W        W33280   1.031  38.853   0.414
68021W        W33281   1.007  10.750   4.904
68022W        W33282   7.966  24.035  12.838
68023W        W33283  34.587  14.561   4.464
68024W        W33284  42.489  44.755  14.881
68025W        W33285   7.416   5.916   1.940
68026W        W33286  37.488  19.616   4.116
68027W        W33287  26.917  23.194   0.321
68028W        W33288  12.832  30.574   4.472
68029W        W33289  31.868  43.430  10.596
68030W        W33290  21.522   0.535   0.394
68031W        W33291   9.905   9.331   4.125
68032W        W33292  20.115  23.851   4.592
68033W        W33293   1.765   4.332  13.965
68034W        W33294  40.468   9.858   2.245
68035W        W33295  19.697  34.960  13.889
68036W        W33296  40.151   6.649  11.473
68037W        W33297   4.125  28.128   2.632
68038W        W33298  15.305  14.160   2.288
68039W        W33299  23.666  28.107  12.005
68040W        W33300   6.955  38.497  14.336
68041W        W33301   4.078  16.759   4.188
68042W        W33302  26.697  44.056  13.544
68043W        W33303   0.776  40.970   1.837
68044W        W33304   5.673  27.673  12.033
68045W        W33305  37.832  33.935   3.670
68046W        W33306  31.122  10.800  13.376
68047W        W33307  19.672  20.531   2.282
68048W        W33308   5.957  25.713  10.132
68049W        W33309  11.306  31.855   1.877
68050W        W33310  40.267  22.366  12.089
68051W        W33311  43.128  38.922   2.703
68052W        W33312  33.022  33.643  13.250
68053W        W33313  41.496  36.477  14.080
68054W        W33314  40.444   1.950   4.609
68055W        W33315   0.993  36.541  11.156
68056W        W33316  15.724  41.314   4.406
68057W        W33317  30.972  38.914  14.928
68058W        W33318  42.644   9.121   5.106
68059W        W33319  25.454   4.722  14.741
68060W        W33320  19.037  42.865  14.425
68061W        W33321   4.670  20.307   3.138
68062W        W33322  22.099  44.525  12.965
68063W        W33323  41.337  15.219   2.585
68064W        W33324  13.330  20.088  13.515
68065W        W33325  11.119  14.403   3.660
68066W        W33326   6.102  37.010   2.349
68067W        W33327  10.108  14.629   4.167
68068W        W33328  40.536  26.962  14.553
68069W        W33329  12.900  36.845  13.924
68070W        W33330  19.068  10.908  13.403
68071W        W33331   4.125  14.313  11.111
68072W        W33332  37.883  44.394  13.476
68073W        W33333  21.020  10.187   2.475
68074W        W33334  15.992  15.239   3.611
68075W        W33335  41.348  19.988   1.187
68076W        W33336   6.938  31.949   3.858
68077W        W33337  11.803  28.833  12.377
68078W        W33338  18.286  41.297   2.897
68079W        W33339  25.965  26.614   4.314
68080W        W33340  21.084  30.540   4.534
68081W        W33341  12.163  10.418  13.398
68082W        W33342  44.345  10.163   0.224
68083W        W33343  20.596  17.102   1.737
68084W        W33344  27.417  10.748   1.470
68085W        W33345   0.701  39.417   2.892
68086W        W33346  39.467  17.606  12.992
68087W        W33347  12.425   3.052  11.933
68088W        W33348  42.713  43.934  14.523
68089W        W33349  29.490  22.741  14.976
68090W        W33350  10.744  43.472  11.199
68091W        W33351  18.198  34.462  12.528
68092W        W33352  16.469  28.487   1.095
68093W        W33353  11.724   3.518  11.413
68094W        W33354  15.712  17.666  11.186
68095W        W33355  12.383   4.769  11.866
68096W        W33356  36.865  19.760   3.320
68097W        W33357  13.050  22.204  13.456
68098W        W33358  15.774   4.849   0.756
68099W        W33359   8.981  25.912   2.303
68100W        W33360  22.827  24.487   4.452
68101W        W33361  42.945   7.440   1.074
68102W        W33362  33.545   4.332   0.785
68103W        W33363   3.982  32.150  13.117
68104W        W33364   1.912  30.576  12.136
68105W        W33365  28.077  37.003  11.561
68106W        W33366  37.190  32.991   0.768
68107W        W33367  19.605  22.609   1.019
68108W        W33368  16.658  15.130   2.721
68109W        W33369   4.833  44.308   1.381
68110W        W33370  24.498  26.598   1.919
68111W        W33371  26.503   9.386  14.314
68112W        W33372  28.378  20.761   3.217
68113W        W33373  19.455   6.721  12.004
68114W        W33374  26.489  21.802   3.836
68115W        W33375  41.569  34.487   0.860
68116W        W33376  25.618   4.448  13.947
68117W        W33377   2.329  24.780   2.015
68118W        W33378  25.253   5.878   3.295
68119W        W33379  29.559  13.658   4.416
68120W        W33380   5.784   1.266   3.658
68121W        W33381  19.912  35.167  13.478
68122W        W33382  27.053  31.205   4.156
68123W        W33383  31.456  22.263   4.050
68124W        W33384  40.760  31.102   3.692
68125W        W33385  38.777   7.207  10.269
68126W        W33386  29.057   5.793   2.854
68127W        W33387   9.822  28.950   3.846
68128W        W33388  29.954  11.665  11.467
68129W        W33389  19.214  15.835   2.750
68130W        W33390  27.634  12.781  10.782
68131W        W33391  12.141  33.082  11.728
68132W        W33392  11.287  19.299  12.564
68133W        W33393  20.229   6.298  13.918
68134W        W33394  28.735   3.817  11.525
68135W        W33395   5.431   7.363   0.430
68136W        W33396  28.207  29.587  14.674
68137W        W33397  16.783   9.970   1.193
68138W        W33398  10.294  44.443   4.315
68139W        W33399  36.282  41.303   1.353
68140W        W33400   3.723  11.097   4.008
68141W        W33401  17.976  10.559   0.904
68142W        W33402  23.647  27.164  13.080
68143W        W33403  44.236  33.873  12.796
68144W        W33404  17.683  42.880   0.216
68145W        W33405  34.563  37.838   1.843
68146W        W33406  17.934  44.320  14.075
68147W        W33407  36.621  33.176   4.666
68148W        W33408  33.928  22.551  14.499
68149W        W33409  21.686  38.043  14.472
68150W        W33410  20.328  15.846   4.543
68151W        W33411   5.772  31.389  12.615
68152W        W33412   2.022   8.091   1.259
68153W        W33413  31.433  16.866   1.349
68154W        W33414  42.689  24.820   9.923
68155W        W33415  18.583  31.258   1.294
68156W        W33416  29.677  32.465   2.766
68157W        W33417  31.294   9.755   1.753
68158W        W33418  30.530  39.929  10.699
68159W        W33419  20.839   3.229   1.765
68160W        W33420  28.214  17.668   2.242
68161W        W33421  27.051  25.924   3.150
68162W        W33422  42.492  30.060   2.280
68163W        W33423  24.522  28.983  14.909
68164W        W33424  38.063  23.531  10.431
68165W        W33425  39.782  22.109   4.592
68166W        W33426   0.749   5.850   3.092
68167W        W33427  37.537  43.730  12.567
68168W        W33428  30.015  43.066   0.893
68169W        W33429  41.972  14.073   3.628
68170W        W33430  18.681  38.603  14.370
68171W        W33431  14.310  34.533   3.583
68172W        W33432   8.554  24.420  11.156
68173W        W33433  20.554  42.307   1.621
68174W        W33434  41.011  23.504  13.604
68175W        W33435   4.371  35.082   0.493
68176W        W33436  29.371  15.213  12.347
68177W        W33437  22.024   4.170  14.809
68178W        W33438  23.118  28.541   2.912
68179W        W33439   4.311  44.357   2.577
68180W        W33440  32.548   8.486   3.685
68181W        W33441  28.627  31.938  13.472
68182W        W33442  23.562   7.245   2.944
68183W        W33443  15.067  22.621   2.787
68184W        W33444  31.850   2.705  10.691
68185W        W33445  27.033  27.444   4.533
68186W        W33446  26.449  32.016   4.995
68187W        W33447   0.743  10.637  11.913
68188W        W33448  19.487  43.420   1.324
68189W        W33449  19.227  30.696   4.370
68190W        W33450  11.360  28.140  12.714
68191W        W33451  17.297  14.612  13.474
68192W        W33452  42.229  15.636   2.768
68193W        W33453  18.766  39.957   3.988
68194W        W33454  39.163  21.127  11.940
68195W        W33455  35.931  23.529   1.724
68196W        W33456  36.109  13.516  13.455
68197W        W33457  39.520  42.396  11.658
68198W        W33458  25.588   5.994   0.133
68199W        W33459  18.966  19.173   2.251
68200W        W33460   9.965  30.547   2.104
68201W        W33461  42.110   7.134   1.269
68202W        W33462  33.804  14.150   3.534
68203W        W33463  43.003  33.000  14.167
68204W        W33464  31.072   1.905   0.243
68205W        W33465  11.482  33.460  12.224
68206W        W33466  17.798   8.301   1.854
68207W        W33467  37.841  16.776  11.555
68208W        W33468  28.197  35.475   4.146
68209W        W33469  31.501  42.246  12.821
68210W        W33470  26.904   7.457  12.679
68211W        W33471  41.949  16.057   4.581
68212W        W33472  19.803   3.126   2.615
68213W        W33473   2.822   5.798   0.513
68214W        W33474   9.893  20.039  12.585
68215W        W33475  44.812  35.402   2.188
68216W        W33476   3.701  20.989  14.519
68217W        W33477  37.549   3.969   1.330
68218W        W33478  19.678   2.469   1.518
68219W        W33479  13.328   1.114  14.226
68220W        W33480   4.086  14.605  14.367
68221W        W33481  18.213  21.435   5.487
68222W        W33482  33.398  24.078  11.143
68223W        W33483  38.048  19.337   3.798
68224W        W33484  17.910  22.803  11.725
68225W        W33485  26.696  21.605   4.250
68226W        W33486  16.692  37.704  10.875
68227W        W33487  10.624  16.068  13.037
68228W        W33488  44.506   9.146   0.439
68229W        W33489  25.767  36.024  14.346
68230W        W33490   3.748  25.097   1.205
68231W        W33491  17.188   2.456  10.470
68232W        W33492  37.433  12.112   0.915
68233W        W33493  16.289  41.561  10.465
68234W        W33494  34.129   7.696   4.677
68235W        W33495  12.155  20.769   3.158
68236W        W33496  24.936  28.503   2.372
68237W        W33497  27.186  26.171   2.197
68238W        W33498   0.442  19.033  14.859
68239W        W33499  40.429  35.269   1.093
68240W        W33500   4.731  40.671  13.923
68241W        W33501  22.176  37.511  14.934
68242W        W33502  22.544  13.247   2.743
68243W        W33503  16.050  30.688  11.870
68244W        W33504  43.213  39.090   5.077
68245W        W33505  43.912   1.811  10.412
68246W        W33506  33.306  36.540  11.013
68247W        W33507  13.224  21.135   1.812
68248W        W33508  44.487  13.802   4.128
68249W        W33509  39.058   6.253  13.851
68250W        W33510  30.475  19.007  12.120
68251W        W33511  13.792  38.996  11.686
68252W        W33512  10.119   7.883  12.639
68253W        W33513   2.565  12.224   3.116
68254W        W33514   8.120  11.067   0.379
68255W        W33515  25.125  36.975  14.365
68256W        W33516  16.741  31.496   4.383
68257W        W33517  16.680  21.688  11.139
68258W        W33518  25.523  30.302   0.070
68259W        W33519  23.913   2.713   2.433
68260W        W33520  20.275  12.321   0.190
68261W        W33521  12.276  38.088   0.960
68262W        W33522  30.625  34.509   0.475
68263W        W33523  42.149  20.292   0.851
68264W        W33524  33.182  33.561   0.235
68265W        W33525  30.438  13.271   3.302
68266W        W33526  32.452  14.578  14.731
68267W        W33527   6.919  13.326  14.355
68268W        W33528  41.801  14.763  11.095
68269W        W33529  17.517   2.240   3.252
68270W        W33530  20.993  31.953   2.358
68271W        W33531  33.509  14.787   3.977
68272W        W33532  22.322  36.365   2.155
68273W        W33533  13.200  16.254  13.524
68274W        W33534  10.136  12.765   0.431
68275W        W33535  10.360  10.554  11.907
68276W        W33536  35.327   9.248  12.036
68277W        W33537  41.041  16.401   4.637
68278W        W33538  35.427  42.604  11.901
68279W        W33539  12.857  18.460   3.762
68280W        W33540  39.096  29.363   3.920
68281W        W33541  42.984  28.039   2.700
68282W        W33542   3.715   0.276  12.092
68283W        W33543   8.391  24.081   0.894
68284W        W33544  12.672  17.210  14.981
68285W        W33545   4.938  17.623  13.308
68286W        W33546   6.241  42.711  14.923
68287W        W33547  16.316  28.859  11.666
68288W        W33548  24.439   8.056  13.657
68289W        W33549   3.744  38.334  12.418
68290W        W33550  10.247  30.581   4.128
68291W        W33551  16.629  11.459  11.528
68292W        W33552  35.771  17.154   2.145
68293W        W33553  10.824  43.759   4.687
68294W        W33554  33.019  28.786  10.352
68295W        W33555  34.281  22.845   1.715
68296W        W33556  34.478  39.358   3.345
68297W        W33557  27.703  22.088  13.061
68298W        W33558  40.300  23.258   2.259
68299W        W33559   4.877  26.047   2.057
68300W        W33560  33.584  13.372   0.933
68301W        W33561  25.584  30.629  13.173
68302W        W33562  21.992  30.041  12.846
68303W        W33563  18.586  24.536   0.600
68304W        W33564  18.175  19.210  14.573
68305W        W33565  31.514  24.229  10.669
68306W        W33566   3.351  27.471  13.349
68307W        W33567  40.751  36.240   2.046
68308W        W33568  41.026   9.260  13.614
68309W        W33569  43.002  32.085   2.759
68310W        W33570  42.836  20.642   2.780
68311W        W33571  40.586  27.129  12.529
68312W        W33572  14.657  13.813  13.829
68313W        W33573  32.400  28.993   2.434
68314W        W33574  36.988  22.801   1.042
68315W        W33575  24.959  27.979  14.980
68316W        W33576  25.123  34.103   2.694
68317W        W33577   5.497  28.164  12.109
68318W        W33578   3.908  29.158  10.786
68319W        W33579   8.407  43.774   4.665
68320W        W33580  18.116  18.285   1.221
68321W        W33581   3.461   8.184   0.257
68322W        W33582  30.495  34.516  11.862
68323W        W33583  13.668   4.873   4.092
68324W        W33584  43.352  41.041   3.132
68325W        W33585   2.501  16.423  11.980
68326W        W33586   2.188  39.818  14.141
68327W        W33587  42.911   6.617   3.389
68328W        W33588   0.271   2.683   0.690
68329W        W33589  44.413  25.474   9.866
68330W        W33590  34.641  12.610  11.496
68331W        W33591  27.910  16.689   2.240
68332W        W33592  11.456  29.891   4.207
68333W        W33593  26.662  10.296  12.689
68334W        W33594  34.315   5.912   0.207
68335W        W33595  28.972  44.811   3.146
68336W        W33596   6.361  16.500  12.055
68337W        W33597  38.083  39.993   4.502
68338W        W33598  37.887  14.808   0.902
68339W        W33599   8.905  21.038   0.719
68340W        W33600  34.656  43.890   1.982
68341W        W33601  17.270  22.544   2.320
68342W        W33602   0.943  42.379  11.994
68343W        W33603  41.471  33.086   0.712
68344W        W33604  26.622  34.149  11.100
68345W        W33605   7.822  26.213   4.513
68346W        W33606  25.102  39.463  11.929
68347W        W33607  10.156  35.799   1.314
68348W        W33608  15.066  43.001   1.977
68349W        W33609   2.829  18.062   2.684
68350W        W33610  34.380  18.374   3.765
68351W        W33611   8.937  29.567  12.464
68352W        W33612  18.917  28.520   2.707
68353W        W33613  34.035  17.874   3.063
68354W        W33614  13.210  44.033   2.132
68355W        W33615  38.778  12.863   1.920
68356W        W33616  11.919   5.700   9.739
68357W        W33617  37.994   8.018  12.122
68358W        W33618  11.223  17.288   2.788
68359W        W33619  23.458  11.065   3.109
68360W        W33620  17.295  43.487  12.855
68361W        W33621  42.616   6.305  11.604
68362W        W33622  12.229  26.371  11.246
68363W        W33623   2.201  17.781  14.051
68364W        W33624   1.350  17.070   4.389
68365W        W33625   6.720  30.365   2.619
68366W        W33626   1.317  28.750   3.203
68367W        W33627   4.672   4.916   2.278
68368W        W33628  44.097  32.807   0.383
68369W        W33629   6.652   1.991   2.531
68370W        W33630  36.285  41.916   2.263
68371W        W33631  32.458  42.861  14.571
68372W        W33632  43.056  13.511  14.977
68373W        W33633  31.595  38.376   0.256
68374W        W33634  35.675  33.709  12.572
68375W        W33635   9.898  42.057  10.979
68376W        W33636  40.029   2.800  13.094
68377W        W33637  25.166  35.383   2.540
68378W        W33638  16.733  31.168   0.306
68379W        W33639  43.904  23.509   1.351
68380W        W33640   9.775  23.150  12.127
68381W        W33641  23.642  35.570  12.181
68382W        W33642  25.244  33.119  11.241
68383W        W33643  34.692  17.818  10.578
68384W        W33644  26.729  22.183  13.410
68385W        W33645  40.126  37.575  11.508
68386W        W33646  36.151  24.573  10.606
68387W        W33647  42.951  10.395  10.619
68388W        W33648  19.024  17.683   3.489
68389W        W33649   1.031  20.883  10.887
68390W        W33650  22.642   9.498   4.174
68391W        W33651   2.266   2.254  13.423
68392W        W33652  28.920  40.820  12.993
68393W        W33653  34.934  28.527   2.161
68394W        W33654  11.541  18.965   4.188
68395W        W33655   5.589   5.532   3.200
68396W        W33656  24.049  10.432  14.076
68397W        W33657   3.885  26.408   1.814
68398W        W33658  11.900   5.211   3.747
68399W        W33659  19.036  28.650   4.291
68400W        W33660  15.261  25.317  10.589
68401W        W33661  41.276  43.463   2.953
68402W        W33662   5.155  27.022  11.554
68403W        W33663  37.249  19.653  13.525
68404W        W33664  43.345  36.257  11.149
68405W        W33665   7.785  33.269  11.535
68406W        W33666   4.738  11.364   0.184
68407W        W33667  34.568  25.142  11.582
68408W        W33668  18.653  23.362  10.152
68409W        W33669   5.274   5.011   3.787
68410W        W33670  28.995  16.923   4.141
68411W        W33671  41.841   3.464   3.295
68412W        W33672  17.233  22.400  11.312
68413W        W33673  26.106  29.039  12.840
68414W        W33674  27.142   5.781   9.679
68415W        W33675  37.039  19.197   0.762
68416W        W33676  40.992  13.356  11.592
68417W        W33677   0.210  36.987  12.465
68418W        W33678  41.800  19.918   0.916
68419W        W33679  11.674  24.052  10.414
68420W        W33680  29.154   6.684   2.712
68421W        W33681  19.050  40.037   2.347
68422W        W33682   3.728  16.679   2.666
68423W        W33683  33.686  20.969  12.534
68424W        W33684  11.063   4.819  13.553
68425W        W33685  21.156  21.598   2.172
68426W        W33686  44.919  28.952  13.981
68427W        W33687  30.161   0.174   2.929
68428W        W33688  24.525  42.694  13.943
68429W        W33689  21.296   3.388   2.881
68430W        W33690  18.096  44.455   1.282
68431W        W33691  34.772  25.915  12.594
68432W        W33692  43.308  16.075   1.292
68433W        W33693  14.783  40.391   4.017
68434W        W33694  32.950  44.731  12.562
68435W        W33695  11.720  34.287   0.349
68436W        W33696  27.614  23.287  14.950
68437W        W33697  15.501  25.238  13.047
68438W        W33698  31.030  40.244  13.877
68439W        W33699   5.768  15.242   1.231
68440W        W33700  26.710  30.612  10.508
68441W        W33701   8.508   0.058   4.135
68442W        W33702  13.125   9.490  12.507
68443W        W33703  25.510  17.616  14.754
68444W        W33704  30.405  39.792   0.381
68445W        W33705  27.507   1.490  12.128
68446W        W33706  21.569  14.980   2.087
68447W        W33707   7.625  15.100   1.946
68448W        W33708   0.811  33.771  13.648
68449W        W33709   3.695  12.335   2.345
68450W        W33710  16.203  16.109  10.484
68451W        W33711  16.767  39.545  13.986
68452W        W33712  22.261  19.547   3.857
68453W        W33713   4.603   0.531  14.444
68454W        W33714  20.973   9.480  13.893
68455W        W33715  35.956  28.420  12.544
68456W        W33716  26.443  39.553  13.467
68457W        W33717  37.110  24.908  11.576
68458W        W33718  21.673   1.688  10.915
68459W        W33719  17.080   5.228  11.106
68460W        W33720  38.799   3.310   1.963
68461W        W33721  27.236  31.463   3.729
68462W        W33722  36.990  37.949  11.864
68463W        W33723  36.298  38.519   3.116
68464W        W33724   9.595  20.114   3.686
68465W        W33725   6.653   1.247   4.782
68466W        W33726  30.548  34.900  12.195
68467W        W33727  40.047   6.160   3.416
68468W        W33728  26.054  43.630   4.598
68469W        W33729  25.622  33.899  11.413
68470W        W33730  42.292  35.339   2.695
68471W        W33731  42.766  37.055   0.400
68472W        W33732   7.074  23.471  14.933
68473W        W33733  44.405  37.370   0.733
68474W        W33734  35.129  31.758   4.980
68475W        W33735  14.094  30.334  14.955
68476W        W33736  10.385   5.806   2.306
68477W        W33737  19.905  16.993   0.835
68478W        W33738  28.699   1.918   0.862
68479W        W33739   3.091  27.731  14.887
68480W        W33740  31.173  24.667   2.196
68481W        W33741  12.147  35.424  14.923
68482W        W33742  19.309  34.510  13.009
68483W        W33743  11.230  40.894  13.547
68484W        W33744  22.814  12.815   1.226
68485W        W33745  23.308   1.493  10.262
68486W        W33746  36.522  30.077   0.871
68487W        W33747  43.835  37.580  14.297
68488W        W33748  13.688  31.855   1.337
68489W        W33749   1.966   9.638   1.358
68490W        W33750  16.835  10.301  14.806
68491W        W33751  24.151  39.312   3.652
68492W        W33752  41.970  43.204  14.790
68493W        W33753  44.291  14.695   0.298
68494W        W33754  18.295  26.696  14.475
68495W        W33755  14.365   3.653  14.304
68496W        W33756   6.856  10.420  14.428
68497W        W33757  21.800  23.897  14.926
68498W        W33758  23.280   7.758   0.769
68499W        W33759  36.525  14.818   4.653
68500W        W33760  29.980   6.820  14.944
68501W        W33761  22.614  31.869   3.836
68502W        W33762  23.671  20.203   0.471
68503W        W33763  30.686  35.135   1.269
68504W        W33764  31.981   6.934  11.004
68505W        W33765  33.640  41.212   1.505
68506W        W33766  14.079  38.560  11.590
68507W        W33767   6.652  38.423  14.795
68508W        W33768  14.738  36.825  12.962
68509W        W33769  40.952  30.994  10.976
68510W        W33770  15.230  35.055  11.142
68511W        W33771  34.634   4.403   4.564
68512W        W33772   2.324  21.554   2.630
68513W        W33773  10.976   7.151  13.083
68514W        W33774   8.407   5.415  11.004
68515W        W33775  10.290  17.018   0.463
68516W        W33776   4.409  43.960   4.156
68517W        W33777  41.237  22.779   2.206
68518W        W33778  44.276  30.945  14.934
68519W        W33779   2.655  30.014  12.138
68520W        W33780  29.083  28.954  12.579
68521W        W33781  14.051  41.218  12.964
68522W        W33782   2.395  12.664  11.281
68523W        W33783  29.190  35.527  10.708
68524W        W33784  34.807  18.756   2.757
68525W        W33785  39.485   9.453  13.539
68526W        W33786  31.475   5.741   4.343
68527W        W33787   9.341  16.361  14.387
68528W        W33788   2.842  27.391  14.271
68529W        W33789  12.341  16.241   2.291
68530W        W33790  33.550  21.096   0.332
68531W        W33791  32.975  30.754  11.909
68532W        W33792   3.217   5.772   1.365
68533W        W33793  34.929  22.556   4.609
68534W        W33794  15.045  11.630   4.737
68535W        W33795  41.523   4.476  11.412
68536W        W33796  30.471  19.861  12.881
68537W        W33797  28.300  11.990  12.552
68538W        W33798  34.759  32.950  13.924
68539W        W33799  44.533   9.895  12.493
68540W        W33800  19.939  40.912  13.383
68541W        W33801   0.368  28.995   0.012
68542W        W33802  18.321  34.041   0.887
68543W        W33803  33.032   5.200   3.698
68544W        W33804  36.086  10.599   2.935
68545W        W33805   9.425  18.606  12.350
68546W        W33806  12.796  38.773  13.510
68547W        W33807  29.843  30.703   2.621
68548W        W33808  19.135  14.982  14.947
68549W        W33809  21.759   5.364   1.801
68550W        W33810  30.126  13.593  13.899
68551W        W33811   1.833  43.920   4.133
68552W        W33812   2.607   6.807  13.448
68553W        W33813  10.257  44.550   3.803
68554W        W33814  31.602   4.948   4.563
68555W        W33815  36.895  33.639   4.705
68556W        W33816  18.739  40.358  10.577
68557W        W33817  37.137  39.427   0.411
68558W        W33818  40.014  18.021   3.630
68559W        W33819  29.081  43.691   0.600
68560W        W33820  17.703   5.418  13.941
68561W        W33821  14.742  34.658  13.510
68562W        W33822   8.684  37.826   2.392
68563W        W33823  39.464  28.361  13.726
68564W        W33824  21.517  39.734  13.695
68565W        W33825  17.189   9.406   4.739
68566W        W33826  16.177  19.083  13.827
68567W        W33827  22.740  27.122  13.103
68568W        W33828  38.335   4.865  14.808
68569W        W33829  32.409  34.495   1.387
68570W        W33830  35.612  10.717  13.540
68571W        W33831  21.762  27.272   0.873
68572W        W33832  27.797   6.033   1.234
68573W        W33833  15.238  36.648  12.843
68574W        W33834   8.773  40.849   1.428
68575W        W33835   1.683  20.308   2.363
68576W        W33836  29.874  24.830   1.875
68577W        W33837   4.807  34.830  10.693
68578W        W33838   2.278  42.469   0.062
68579W        W33839   2.801  41.417   3.427
68580W        W33840   7.647  10.137  14.558
68581W        W33841   7.555   8.843  11.996
68582W        W33842  40.835  40.230  10.797
68583W        W33843   4.423   4.864   1.344
68584W        W33844   5.295  41.059   4.380
68585W        W33845  25.941  25.200   3.767
68586W        W33846  19.058   9.743   4.185
68587W        W33847  15.573   6.719  10.946
68588W        W33848  19.429  17.295  14.297
68589W        W33849   4.601   6.748   4.671
68590W        W33850  28.333  28.523   3.682
68591W        W33851  16.037  36.335   2.815
68592W        W33852  42.766  22.460   2.870
68593W        W33853  27.967  10.270  11.198
68594W        W33854  17.144  41.903  12.743
68595W        W33855  29.721   9.200   4.588
68596W        W33856  19.501  40.494  13.392
68597W        W33857  29.896  14.842  14.017
68598W        W33858  40.983   8.177  14.272
68599W        W33859  16.304  19.148   4.988
68600W        W33860  26.483  16.972   4.606
68601W        W33861  29.174  36.066   0.341
68602W        W33862  34.516   4.006  13.531
68603W        W33863  13.127  35.780   0.831
68604W        W33864  10.956   8.787  12.566
68605W        W33865  11.228  33.390   3.621
68606W        W33866   9.745  39.299   1.008
68607W        W33867  39.290   4.072  14.496
68608W        W33868  43.072  25.434   4.255
68609W        W33869  23.911  41.351  11.330
68610W        W33870  12.801  35.714  12.430
68611W        W33871  11.013  38.827   0.371
68612W        W33872   9.868  42.832   2.788
68613W        W33873  23.108  21.557  10.499
68614W        W33874   1.759   7.900   4.336
68615W        W33875  10.889  17.435  10.170
68616W        W33876  34.928   2.558  13.469
68617W        W33877  13.756  42.279   2.185
68618W        W33878  20.566  22.203  11.064
68619W        W33879  41.467  28.049   3.345
68620W        W33880  14.722  29.465   4.779
68621W        W33881   9.937  41.804   0.856
68622W        W33882  35.274  43.725   0.635
68623W        W33883  17.605  33.661  11.178
68624W        W33884  14.337  36.993  14.832
68625W        W33885  35.176  21.691  13.909
68626W        W33886  20.611  21.834  11.490
68627W        W33887   1.712  37.829  12.525
68628W        W33888  39.695  20.678   5.002
68629W        W33889  40.672  15.403   3.111
68630W        W33890  16.195   6.024   0.371
68631W        W33891  38.090   9.507   4.086
68632W        W33892  26.818   0.868  12.441
68633W        W33893  30.199  19.143   1.338
68634W        W33894  21.508   0.900  12.006
68635W        W33895  23.608  15.573   4.914
68636W        W33896  21.555   1.865   0.088
68637W        W33897  25.305  18.211   4.507
68638W        W33898  25.011  31.477   0.007
68639W        W33899  14.372  41.752  14.989
68640W        W33900  43.692  39.362  12.178
68641W        W33901   7.449  21.313   3.664
68642W        W33902  16.826  23.609   3.825
68643W        W33903  10.534  42.860   4.109
68644W        W33904  19.231  12.506  14.416
68645W        W33905  14.304  31.534   0.445
68646W        W33906  24.130  17.150   1.222
68647W        W33907  15.564  31.540   0.769
68648W        W33908  18.640   0.230  11.989
68649W        W33909  10.092   8.754  10.496
68650W        W33910  36.575   5.836  12.073
68651W        W33911  22.897  10.185  14.553
68652W        W33912  34.666   7.136  11.987
68653W        W33913  20.273  20.769  11.962
68654W        W33914  26.994  24.303   1.293
68655W        W33915  25.004  15.544  11.848
68656W        W33916  10.404  31.886  13.482
68657W        W33917   3.931  17.233  13.339
68658W        W33918   0.816  29.890  12.000
68659W        W33919  27.495   7.735   0.509
68660W        W33920   6.640  35.640   0.411
68661W        W33921  34.900   3.857   1.276
68662W        W33922  18.199  20.696  14.473
68663W        W33923  36.539   8.036  10.952
68664W        W33924  19.512   7.336  12.907
68665W        W33925   7.891  42.775   1.918
68666W        W33926  14.228  40.501  13.749
68667W        W33927   7.386   0.232   3.624
68668W        W33928   4.540   8.727  10.663
68669W        W33929  29.287  25.015   5.570
68670W        W33930  43.492  42.561  14.445
68671W        W33931  19.715  14.989  12.887
68672W        W33932  10.670  24.565   3.379
68673W        W33933  40.279  44.091   1.757
68674W        W33934  13.836  18.360  11.932
68675W        W33935   1.758  30.166   4.751
68676W        W33936  22.447  38.531   4.171
68677W        W33937  18.204  33.562   4.050
68678W        W33938  26.055  17.782   3.464
68679W        W33939  32.816  32.536   2.923
68680W        W33940  24.142  16.678   4.419
68681W        W33941   0.202  43.328  11.096
68682W        W33942  19.855   2.383  13.120
68683W        W33943  30.560   7.832   0.550
68684W        W33944  21.094  43.069   1.745
68685W        W33945  31.367  21.597   1.865
68686W        W33946  35.751  40.798  13.015
68687W        W33947  32.995   0.069   2.493
68688W        W33948  40.010   7.349  12.098
68689W        W33949  44.804  34.067  14.336
68690W        W33950  13.632  20.260  12.526
68691W        W33951  39.985   1.931   1.730
68692W        W33952  10.722   3.487  11.683
68693W        W33953  16.628  24.217  11.106
68694W        W33954   8.786  16.868   3.585
68695W        W33955  11.737  36.347  14.858
68696W        W33956  24.503   8.958  12.572
68697W        W33957  28.332  21.601  12.843
68698W        W33958  11.915  18.094  12.410
68699W        W33959  23.422  39.997  10.686
68700W        W33960  35.117  37.891  11.047
68701W        W33961  11.405  34.628   3.156
68702W        W33962   9.244  14.576  11.679
68703W        W33963  19.085  37.306  10.428
68704W        W33964  26.517  19.064   0.539
68705W        W33965  22.810  15.422   0.001
68706W        W33966  26.054  14.337  14.187
68707W        W33967  26.583  29.989   0.457
68708W        W33968  19.526  29.109   2.633
68709W        W33969   1.344   1.453   4.764
68710W        W33970  20.704  20.121   0.800
68711W        W33971  26.778  19.690  13.394
68712W        W33972   2.795  25.139  13.295
68713W        W33973   9.893  34.286   1.780
68714W        W33974  21.035  30.430   1.640
68715W        W33975  16.413   7.750  11.300
68716W        W33976  25.138  17.552   3.148
68717W        W33977   2.180   3.704  12.441
68718W        W33978  43.987  18.723  13.291
68719W        W33979   0.772  32.978  11.636
68720W        W33980  19.721  22.642  11.567
68721W        W33981  13.098   7.852   1.174
68722W        W33982   7.307  43.616  11.481
68723W        W33983  38.759  12.156   3.266
68724W        W33984   2.130  44.011   3.285
68725W        W33985  15.215  44.491   4.310
68726W        W33986  26.502  27.525   2.843
68727W        W33987   5.673  41.072  12.333
68728W        W33988   3.704   6.868   3.225
68729W        W33989  31.174  36.423   1.162
68730W        W33990  22.703   8.824  13.818
68731W        W33991  25.650  25.013   4.226
68732W        W33992   5.297  11.319  11.151
68733W        W33993  20.629  18.598  10.567
68734W        W33994  30.540  17.976  14.784
68735W        W33995  20.985  22.564  13.421
68736W        W33996  12.624  33.573   3.588
68737W        W33997   1.304  29.063  11.066
68738W        W33998  42.884  25.296   3.252
68739W        W33999   0.553  25.610   0.070
68740W        W34000  43.863  15.028   0.413
68741W        W34001  34.067  38.035  13.125
68742W        W34002  20.016  41.474  14.055
68743W        W34003   4.914  43.026  12.792
68744W        W34004   5.206  10.660  12.901
68745W        W34005   0.239  39.036   1.634
68746W        W34006  32.683  10.805   1.998
68747W        W34007  31.238  42.502   4.063
68748W        W34008  31.792  42.064  14.352
68749W        W34009  18.590   2.662   3.926
68750W        W34010  16.168  30.103   0.425
68751W        W34011  19.492  38.540   1.785
68752W        W34012  23.447  37.324   3.283
68753W        W34013  10.185  26.924   3.757
68754W        W34014   2.933  39.363  13.912
68755W        W34015   0.826  30.968   4.062
68756W        W34016   9.933   4.620  13.885
68757W        W34017  19.758  42.985   3.945
68758W        W34018  40.060  26.141   1.188
68759W        W34019  36.929  16.424   3.165
68760W        W34020   2.782  26.511  14.414
68761W        W34021  38.476  12.046  10.750
68762W        W34022  28.972  13.890   4.770
68763W        W34023  39.454  40.812  10.957
68764W        W34024  42.916  36.912   0.885
68765W        W34025  23.692  11.818   2.449
68766W        W34026   3.062  37.006   0.219
68767W        W34027  23.647  23.148  14.539
68768W        W34028   3.313  19.709   3.886
68769W        W34029  35.495  33.464   0.486
68770W        W34030  27.529   3.213  13.447
68771W        W34031  30.741  11.668   9.774
68772W        W34032  11.776  22.208  14.859
68773W        W34033  18.794   2.909   4.320
68774W        W34034  11.638  43.733  13.933
68775W        W34035  11.659  41.760  13.889
68776W        W34036   1.960  38.507  14.945
68777W        W34037  11.358  37.204   2.303
68778W        W34038  37.971  11.297   3.735
68779W        W34039  15.752  27.643   2.151
68780W        W34040  42.420   6.056  12.017
68781W        W34041  39.031  23.518   2.365
68782W        W34042  29.684  22.750   1.411
68783W        W34043  35.338  19.042  12.550
68784W        W34044  17.656   2.876   2.572
68785W        W34045  38.348  11.538  12.501
68786W        W34046  19.864  24.898   3.679
68787W        W34047  43.476  38.357  11.723
68788W        W34048   0.787  20.492   2.122
68789W        W34049  10.481  10.167   1.220
68790W        W34050  27.532  40.290  13.516
68791W        W34051  18.132  10.743  13.574
68792W        W34052  43.225  40.059   3.645
68793W        W34053  17.286  34.052  13.363
68794W        W34054  22.646  35.116  14.736
68795W        W34055  30.141   2.303  13.761
68796W        W34056  20.203  19.056  13.296
68797W        W34057  25.124  10.898   1.611
68798W        W34058  37.109  10.713  13.419
68799W        W34059  16.569  37.805   0.365
68800W        W34060   3.217  11.902   5.152
68801W        W34061   6.106  31.599  11.149
68802W        W34062  29.438  43.864  14.806
68803W        W34063  25.812  36.546  14.957
68804W        W34064   6.738  14.114   3.447
68805W        W34065  41.524   5.960  10.827
68806W        W34066  19.134  26.584   4.531
68807W        W34067  26.282  28.591   1.246
68808W        W34068  24.158   5.599  10.797
68809W        W34069  14.742   3.171   3.041
68810W        W34070   8.585  17.746   2.238
68811W        W34071   7.453  29.024   4.062
68812W        W34072  10.422  24.735   2.395
68813W        W34073  29.864  20.168   1.822
68814W        W34074  31.913  24.683   5.454
68815W        W34075  43.329   2.828   2.307
68816W        W34076  28.291  17.676   4.115
68817W        W34077  31.432  18.337  14.033
68818W        W34078  38.054   4.943  11.670
68819W        W34079  37.908   5.839  11.657
68820W        W34080   3.956   2.958   2.821
68821W        W34081   4.971  26.178   3.010
68822W        W34082  44.822  19.623   1.756
68823W        W34083  30.418   8.156  13.133
68824W        W34084  33.159  30.193   5.001
68825W        W34085   4.930  40.311  14.228
68826W        W34086   7.924   6.752   2.318
68827W        W34087   2.178   2.614  10.542
68828W        W34088  40.448  33.505   4.018
68829W        W34089  13.145  39.068   3.330
68830W        W34090  30.179   4.452   2.272
68831W        W34091  23.265  40.411  13.032
68832W        W34092  39.461  14.261   2.726
68833W        W34093   7.678  14.265  10.897
68834W        W34094   3.926  30.182  14.006
68835W        W34095   2.690  27.939   0.490
68836W        W34096   8.368  34.941  13.350
68837W        W34097  25.441  38.254   4.464
68838W        W34098  32.598  37.836   0.886
68839W        W34099  11.399  31.084   4.533
68840W        W34100  40.632   9.432  13.924
68841W        W34101  22.456  13.370  13.511
68842W        W34102  20.171  29.581  14.735
68843W        W34103  39.036  27.480   4.202
68844W        W34104  44.397   8.217  11.175
68845W        W34105  14.123  34.998   4.879
68846W        W34106  14.905  27.719   3.705
68847W        W34107  23.920  22.174   2.368
68848W        W34108   8.438   4.641   1.637
68849W        W34109   5.440  36.563  14.431
68850W        W34110  38.512  15.926   4.959
68851W        W34111   2.863  16.549  13.582
68852W        W34112   3.953   6.792   0.768
68853W        W34113  43.748  25.933   3.100
68854W        W34114  38.298  25.238   3.711
68855W        W34115   2.305   7.157  14.795
68856W        W34116  22.144   8.125   5.182
68857W        W34117  39.031  26.224  14.013
68858W        W34118   9.142   8.530   0.935
68859W        W34119   8.386  18.591  11.306
68860W        W34120  34.646  24.707  12.442
68861W        W34121  22.315   1.952  14.352
68862W        W34122  15.507   6.213   0.341
68863W        W34123   9.783  33.635  12.447
68864W        W34124  21.197  20.465   0.411
68865W        W34125   8.194  29.618  14.851
68866W        W34126   3.832  27.250  14.916
68867W        W34127  40.387   8.868   0.779
68868W        W34128  15.516  26.858   4.493
68869W        W34129  33.116  22.197  13.501
68870W        W34130  19.747   8.397  13.579
68871W        W34131   4.660  30.875  12.257
68872W        W34132  38.024  23.619   2.722
68873W        W34133   2.982  29.432   5.105
68874W        W34134  11.599  13.881  11.073
68875W        W34135  28.646  29.423   0.849
68876W        W34136  30.329  39.532  14.966
68877W        W34137  33.305   0.731  14.357
68878W        W34138   9.236   2.782  13.813
68879W        W34139  37.387  12.106  14.056
68880W        W34140   5.907  35.550  11.990
68881W        W34141   5.731   1.418  12.979
68882W        W34142  13.852   5.304  11.484
68883W        W34143  15.295   1.823  13.695
68884W        W34144  25.979   3.544  12.439
68885W        W34145  19.886  19.091   4.967
68886W        W34146  43.093   9.058   2.338
68887W        W34147  37.440  41.072  12.211
68888W        W34148  10.730  36.318  10.417
68889W        W34149  19.050  37.107   4.337
68890W        W34150  35.026  11.652  14.289
68891W        W34151   7.915  38.370   0.454
68892W        W34152  26.205  26.480  13.467
68893W        W34153  12.215  17.604   4.060
68894W        W34154  41.591  18.338  14.932
68895W        W34155  28.554  40.487  12.858
68896W        W34156  44.531   5.255   4.614
68897W        W34157  14.893  39.802  12.600
68898W        W34158  39.418  26.184  10.662
68899W        W34159  22.989  15.096   2.118
68900W        W34160  34.310  11.887   4.574
68901W        W34161   6.955  42.203  12.951
68902W        W34162  15.713  22.976  11.586
68903W        W34163  43.541  15.727   0.388
68904W        W34164  20.876  40.236  12.925
68905W        W34165   3.431  30.057   2.256
68906W        W34166  44.766  18.629  14.572
68907W        W34167  36.619  39.019   1.451
68908W        W34168  34.909  13.626   1.183
68909W        W34169  32.603  40.567  14.775
68910W        W34170  13.391  18.618  13.121
68911W        W34171  43.621  28.195   0.449
68912W        W34172  11.615  12.667  13.043
68913W        W34173   1.397  24.118  10.273
68914W        W34174  15.210  34.023   1.302
68915W        W34175  31.579  10.142  10.505
68916W        W34176  37.532  24.018  12.119
68917W        W34177  26.536  35.893  12.153
68918W        W34178  15.196  15.201  13.013
68919W        W34179  43.395   7.104  11.072
68920W        W34180  35.787  38.131  11.960
68921W        W34181  32.925  17.780   2.413
68922W        W34182  32.425  12.313   1.397
68923W        W34183   8.863  18.714  13.390
68924W        W34184  41.990  38.400  10.420
68925W        W34185  32.685  27.772  14.888
68926W        W34186   0.273  43.891  12.172
68927W        W34187  15.034   7.624  10.150
68928W        W34188  28.272  28.767  10.766
68929W        W34189  15.543  39.430   3.642
68930W        W34190  30.898  15.839   2.777
68931W        W34191  31.586  12.216   2.882
68932W        W34192   9.636  35.563   1.150
68933W        W34193  14.637   5.231  13.384
68934W        W34194   9.036  24.546  11.204
68935W        W34195  15.536   0.887   2.647
68936W        W34196  31.981   8.186   1.461
68937W        W34197  14.236  25.456   3.537
68938W        W34198  39.471  38.343   1.698
68939W        W34199  32.897  13.991   3.168
68940W        W34200   2.050   9.670   4.554
68941W        W34201  24.518   0.054   1.764
68942W        W34202  22.601   8.095   2.583
68943W        W34203  38.705   2.151   2.599
68944W        W34204  10.589  34.726  12.929
68945W        W34205  39.443  30.711  10.646
68946W        W34206  27.120   4.347  11.938
68947W        W34207   6.165   2.017   2.358
68948W        W34208  22.548  43.271  12.950
68949W        W34209  14.588   4.872  12.427
68950W        W34210  27.557  30.229   0.510
68951W        W34211  14.576  42.839   4.179
68952W        W34212  31.081   3.227   0.328
68953W        W34213  22.422  21.169  10.170
68954W        W34214   4.823  43.502  11.023
68955W        W34215  18.651  17.034   2.818
68956W        W34216  16.321  22.553   4.099
68957W        W34217  33.924  27.648   1.871
68958W        W34218  15.674  35.306  12.974
68959W        W34219   2.217  11.088   0.353
68960W        W34220  35.543  20.703  13.268
68961W        W34221   2.940   3.479  13.413
68962W        W34222   1.970  32.979   2.621
68963W        W34223  11.382  34.110   3.113
68964W        W34224  24.654  18.640  13.336
68965W        W34225  14.125  31.864   4.982
68966W        W34226  44.497   0.404  14.478
68967W        W34227  26.521  25.445   9.649
68968W        W34228  23.140  41.832  12.895
68969W        W34229   1.310  42.736  13.351
68970W        W34230  35.489  28.905  14.769
68971W        W34231  16.614  18.076  14.809
68972W        W34232  31.433  28.911   0.303
68973W        W34233  27.425  15.606   0.176
68974W        W34234  32.588  42.274  13.492
68975W        W34235   3.203  16.658   2.594
68976W        W34236   0.969  34.018  10.695
68977W        W34237  26.035  26.477  14.976
68978W        W34238  23.081  16.439  11.151
68979W        W34239  42.079   1.374  12.302
68980W        W34240  41.963  32.453  12.469
68981W        W34241  29.548   7.319   4.853
68982W        W34242  15.017   6.317   2.314
68983W        W34243   6.606  42.769  13.787
68984W        W34244  14.063   8.909   4.213
68985W        W34245  39.618  43.382   2.114
68986W        W34246  44.492  16.559  12.616
68987W        W34247  20.029  12.174   4.362
68988W        W34248  15.216  42.916   1.504
68989W        W34249  34.133   4.893  13.635
68990W        W34250  22.154  35.445   2.513
68991W        W34251  23.344  11.015  13.568
68992W        W34252   5.730  34.271  14.895
68993W        W34253  14.360  26.184  13.144
68994W        W34254  36.293  20.299  12.983
68995W        W34255  40.524  29.490  14.799
68996W        W34256  15.222  38.153   1.409
68997W        W34257  32.156  35.755  12.127
68998W        W34258   7.927  43.663   3.225
68999W        W34259  42.480   3.870  14.764
69000W        W34260  23.045  29.237   0.785
69001W        W34261  11.200   7.395   2.204
69002W        W34262  37.387  21.616   3.217
69003W        W34263   8.686  28.589   4.575
69004W        W34264   2.303  43.508  10.677
69005W        W34265  22.991  39.036  10.576
69006W        W34266  25.133  44.582  13.030
69007W        W34267  40.941  13.570   2.292
69008W        W34268  29.082  20.646  10.409
69009W        W34269  36.495  12.309   2.939
69010W        W34270  25.162   2.281   3.949
69011W        W34271  33.530  43.612  11.006
69012W        W34272  15.242  41.638  10.578
69013W        W34273   9.215  28.053   0.474
69014W        W34274   1.426  28.962  14.310
69015W        W34275  33.056  42.984   1.954
69016W        W34276   2.186  18.689  12.511
69017W        W34277   0.959  29.747  14.925
69018W        W34278   8.044  17.798   2.230
69019W        W34279  27.128  20.651   2.585
69020W        W34280   3.183   8.840  14.452
69021W        W34281  30.607  15.021  12.893
69022W        W34282  20.546  41.740   3.276
69023W        W34283   1.461  11.229   3.188
69024W        W34284   2.747  18.852   0.539
69025W        W34285  26.671  14.278   3.293
69026W        W34286  32.074  22.310   3.371
69027W        W34287  10.698  37.975  11.504
69028W        W34288  28.568  12.764   1.620
69029W        W34289   7.151  38.836   3.188
69030W        W34290  11.842  21.323  11.211
69031W        W34291  37.100  30.492   0.271
69032W        W34292  44.366  23.550   0.855
69033W        W34293  29.975   9.811   3.790
69034W        W34294  26.158  17.382   0.384
69035W        W34295  19.777  43.969   0.849
69036W        W34296  37.445  31.320  12.016
69037W        W34297  34.953  27.722   0.299
69038W        W34298  42.687  32.175   4.733
69039W        W34299  22.803   1.486  10.110
69040W        W34300   5.318  22.278   3.989
69041W        W34301  11.435   2.205  11.730
69042W        W34302   4.411  34.052   3.632
69043W        W34303  37.805  35.104  12.121
69044W        W34304  18.386  18.911   4.729
69045W        W34305  35.529  26.647  11.086
69046W        W34306  37.936  11.778  11.447
69047W        W34307  20.214  21.773   0.001
69048W        W34308  21.205  35.388  13.521
69049W        W34309   8.696  39.388  11.194
69050W        W34310  29.036   7.972   4.016
69051W        W34311  39.356  12.287  14.708
69052W        W34312  18.116  25.600   1.668
69053W        W34313  39.497   7.696  13.895
69054W        W34314  37.046   2.494  14.853
69055W        W34315   1.238  34.456  10.739
69056W        W34316  12.577  34.529   0.092
69057W        W34317  40.669  32.412   1.360
69058W        W34318  12.714  16.803  11.963
69059W        W34319  25.387  34.553   2.185
69060W        W34320   9.320  38.527  11.143
69061W        W34321  21.353   5.264  13.045
69062W        W34322   6.559  12.616   0.999
69063W        W34323   2.620  11.381   5.026
69064W        W34324  31.068  13.538   2.403
69065W        W34325  21.546   1.110  10.214
69066W        W34326  22.601  37.823  14.256
69067W        W34327  21.853   2.006   4.184
69068W        W34328  15.909  28.803  12.644
69069W        W34329  37.253  32.671   2.046
69070W        W34330   4.707   5.175   0.357
69071W        W34331  42.898  39.618   2.009
69072W        W34332  16.062   0.734   3.422
69073W        W34333  10.832  11.603   0.241
69074W        W34334  16.800   0.807  10.698
69075W        W34335  38.100  32.356  12.556
69076W        W34336  12.956  43.888   0.999
69077W        W34337   9.163   0.510  12.078
69078W        W34338  38.724  19.554   1.299
69079W        W34339  19.218  10.939  10.557
69080W        W34340  23.514  39.094   1.885
69081W        W34341  42.557  44.716   3.853
69082W        W34342  10.900   2.026   0.824
69083W        W34343  23.729  31.119  13.074
69084W        W34344  25.456  41.842  11.152
69085W        W34345   2.984   9.167   0.283
69086W        W34346  34.251  20.354  11.188
69087W        W34347  37.289   9.293   3.254
69088W        W34348  32.458  37.278   1.706
69089W        W34349   2.649   9.081   1.777
69090W        W34350   7.325  15.331  13.153
69091W        W34351  42.881   2.936  11.472
69092W        W34352  37.514   0.762   3.767
69093W        W34353  23.176  27.263  11.045
69094W        W34354  44.217  23.166  11.488
69095W        W34355  16.530   8.684   2.353
69096W        W34356  29.450  40.039   3.273
69097W        W34357  25.297   0.469   0.357
69098W        W34358  29.578  16.555   1.907
69099W        W34359   4.256  13.659  12.551
69100W        W34360   5.425  14.692  11.183
69101W        W34361  40.103  14.792   0.345
69102W        W34362  26.212  42.878   2.415
69103W        W34363  32.469  32.091  11.851
69104W        W34364  39.437   2.493   3.122
69105W        W34365  42.986   8.484   4.570
69106W        W34366  38.532  34.942   1.899
69107W        W34367  28.670   3.868   1.838
69108W        W34368  24.353  19.135   0.019
69109W        W34369  27.140  34.519  12.892
69110W        W34370  32.182  24.704   3.706
69111W        W34371  18.628  10.390  10.030
69112W        W34372  36.411  28.951  13.382
69113W        W34373  23.534  33.027   0.214
69114W        W34374  27.135   3.848   2.863
69115W        W34375  28.976  23.055  11.538
69116W        W34376   5.174  15.680   3.219
69117W        W34377   6.161  12.253  10.045
69118W        W34378  21.907   4.879   1.904
69119W        W34379  18.844  18.115  10.706
69120W        W34380  25.107  39.566  14.306
69121W        W34381   0.416  39.631   1.979
69122W        W34382  18.448   5.832   0.823
69123W        W34383  15.099  24.040  11.982
69124W        W34384  21.972   0.360  11.657
69125W        W34385   0.932   9.823  10.862
69126W        W34386  29.755  11.899   3.262
69127W        W34387  24.655   3.248   2.836
69128W        W34388  17.454  16.671   3.618
69129W        W34389  18.299   8.865   2.404
69130W        W34390  14.121  16.968  12.047
69131W        W34391  27.395   1.983  10.718
69132W        W34392  24.959  30.618  12.345
69133W        W34393  29.775   2.537   1.939
69134W        W34394  37.814  33.901   1.855
69135W        W34395  35.855  18.573   1.712
69136W        W34396  42.256  19.305  13.580
69137W        W34397   7.659  10.139   0.535
69138W        W34398  28.517  29.046   2.708
69139W        W34399  12.259   1.439   3.225
69140W        W34400  11.150  23.404  13.448
69141W        W34401  21.573  12.722   0.268
69142W        W34402  17.338   0.829   4.903
69143W        W34403   8.823  32.026  12.047
69144W        W34404  28.734  34.820   3.672
69145W        W34405   7.721  39.983   3.280
69146W        W34406   9.916  20.785  13.428
69147W        W34407  27.124  28.507   4.607
69148W        W34408  18.036  17.203  13.806
69149W        W34409  27.014  34.184  13.478
69150W        W34410  35.092  41.889  14.495
69151W        W34411   8.281   5.875   0.477
69152W        W34412  21.161   3.354  11.672
69153W        W34413  33.407  43.498  13.400
69154W        W34414  26.030  35.598  12.524
69155W        W34415   8.110   7.257   4.659
69156W        W34416   7.681  34.591   1.932
69157W        W34417   8.710  10.374   0.227
69158W        W34418   8.282  34.345  13.462
69159W        W34419  14.799  16.895  10.731
69160W        W34420  19.950  31.086   1.356
69161W        W34421  19.012  26.672  11.705
69162W        W34422  44.719  35.468   4.680
69163W        W34423  41.487   3.754  13.878
69164W        W34424  18.623  40.516   4.661
69165W        W34425   2.622  35.169   0.545
69166W        W34426  29.459  39.332   2.088
69167W        W34427   7.911  17.163  13.719
69168W        W34428  24.149  33.022   1.447
69169W        W34429  21.257  21.467   4.535
69170W        W34430  10.601   4.771   0.008
69171W        W34431  28.413  10.938   1.445
69172W        W34432  42.363  22.368  10.967
69173W        W34433  44.873  36.929   2.307
69174W        W34434   8.764  24.289  10.334
69175W        W34435  15.217  42.104  10.356
69176W        W34436   7.282  33.692   4.685
69177W        W34437   5.329  23.461  11.102
69178W        W34438   5.214  23.078  13.915
69179W        W34439   4.702   2.415  13.471
69180W        W34440  19.510  33.451  11.570
69181W        W34441  16.630  30.577   1.832
69182W        W34442  19.522   7.590  11.644
69183W        W34443  14.659  33.363  11.118
69184W        W34444   2.313  14.516  12.935
69185W        W34445  24.681  24.159   0.258
69186W        W34446  36.395   9.745   3.726
69187W        W34447  23.277  33.823  10.480
69188W        W34448  42.473  13.465  12.916
69189W        W34449   3.626  10.002   0.519
69190W        W34450  16.184  31.990  14.875
69191W        W34451   2.214  37.492  12.066
69192W        W34452   8.835  44.530   1.595
69193W        W34453  17.188  42.069   4.546
69194W        W34454  41.454  15.691   4.327
69195W        W34455   3.129   7.248  12.958
69196W        W34456   9.356  38.059   0.153
69197W        W34457  44.812  21.292   2.745
69198W        W34458  25.702  43.043  11.188
69199W        W34459  23.722  21.764   2.589
69200W        W34460   8.362   9.170  11.002
69201W        W34461  18.452   6.109   1.249
69202W        W34462  42.768  11.029  11.408
69203W        W34463  37.829   0.789  13.466
69204W        W34464  34.580  44.839  12.157
69205W        W34465  25.168  16.021  11.991
69206W        W34466  20.917  22.221   2.541
69207W        W34467  16.568  10.725   2.166
69208W        W34468   3.689   0.183  11.190
69209W        W34469   5.688  30.902   3.297
69210W        W34470  19.719  19.809   3.780
69211W        W34471  14.886   1.693  10.258
69212W        W34472  44.359  28.056   2.555
69213W        W34473   7.102  26.937   5.189
69214W        W34474   3.245   5.336   3.052
69215W        W34475  28.121  19.124   4.974
69216W        W34476   3.448  41.294   1.693
69217W        W34477  32.998   4.182  10.425
69218W        W34478  28.822  40.107  10.123
69219W        W34479  14.366  25.645   2.400
69220W        W34480   2.056   5.141   1.276
69221W        W34481  27.482  31.441  11.147
69222W        W34482  44.467  15.712   0.310
69223W        W34483   8.745  38.346   2.352
69224W        W34484  18.705  23.039  11.051
69225W        W34485  38.506   1.450  14.357
69226W        W34486  37.243   7.270  11.587
69227W        W34487  30.118  41.914  13.580
69228W        W34488  16.215  14.817  13.915
69229W        W34489   1.901  25.539   4.991
69230W        W34490  39.195  42.064   0.853
69231W        W34491  23.290   2.265  12.038
69232W        W34492   4.916  10.686   4.195
69233W        W34493  34.691  13.845   3.746
69234W        W34494  15.387  22.088  13.431
69235W        W34495  19.476  29.545   4.673
69236W        W34496   5.820   4.670   1.081
69237W        W34497  35.349  14.669   0.688
69238W        W34498  14.165  20.590  11.812
69239W        W34499  40.230  43.233   1.485
69240W        W34500  27.392  32.962  13.785
69241W        W34501   7.767  21.487   0.407
69242W        W34502  13.888  40.691  12.976
69243W        W34503   4.710   1.004  11.403
69244W        W34504  28.070   1.981   5.087
69245W        W34505  38.902  19.309   0.353
69246W        W34506   6.104  25.821  13.336
69247W        W34507  24.753  37.572   1.906
69248W        W34508   8.461  18.611  10.790
69249W        W34509   3.262  31.313   2.896
69250W        W34510  19.869   1.282   0.084
69251W        W34511  28.831   9.829   1.969
69252W        W34512  13.360  17.379   4.586
69253W        W34513  22.353  44.444   3.491
69254W        W34514  14.506  15.525  11.923
69255W        W34515   3.593   6.360  11.511
69256W        W34516   6.388  35.605   1.926
69257W        W34517  17.190  11.623   0.948
69258W        W34518  22.509  22.543   1.386
69259W        W34519   5.346   8.263  14.063
69260W        W34520  28.685  15.316  11.644
69261W        W34521  33.064   4.071   3.603
69262W        W34522   9.658  21.810   0.337
69263W        W34523  39.799  23.980   2.870
69264W        W34524  43.281   0.784   4.597
69265W        W34525  43.770   1.922   3.214
69266W        W34526  31.232  26.598  14.287
69267W        W34527   2.501  26.089   1.714
69268W        W34528  36.455  32.515   0.390
69269W        W34529  33.952   6.934  12.598
69270W        W34530  19.006  28.620   4.838
69271W        W34531   0.461  32.111  10.793
69272W        W34532   6.345  12.132   2.893
69273W        W34533  10.892  12.418   3.656
69274W        W34534  39.770  40.543   4.096
69275W        W34535  16.856  24.681   4.511
69276W        W34536  36.593  40.259  11.134
69277W        W34537  26.085  36.024   1.304
69278W        W34538  30.566  20.734  14.331
69279W        W34539  18.540  36.565   3.888
69280W        W34540  40.086  29.492   3.593
69281W        W34541   2.217  35.456   3.325
69282W        W34542  29.836  12.082  14.105
69283W        W34543  37.563  34.044  11.167
69284W        W34544  35.506  36.027  14.561
69285W        W34545  40.642   8.161   2.780
69286W        W34546  30.840  44.125  11.254
69287W        W34547   1.520  37.153  10.685
69288W        W34548  39.910  40.033   4.129
69289W        W34549   9.112  11.024  12.927
69290W        W34550  26.982  11.545   1.378
69291W        W34551  31.191  19.579   0.284
69292W        W34552  16.841  21.051   2.819
69293W        W34553  42.578  21.240   1.824
69294W        W34554   0.601   3.733   3.401
69295W        W34555  41.944  22.650  12.831
69296W        W34556  18.271   2.647  13.604
69297W        W34557  10.393  30.797   1.954
69298W        W34558  25.796  42.851   4.990
69299W        W34559  36.623   8.659   1.226
69300W        W34560  41.094  31.793   2.573
69301W        W34561  20.489  20.987  12.438
69302W        W34562   9.102  29.931   0.338
69303W        W34563  42.593   7.111   4.294
69304W        W34564  33.985  11.786   3.423
69305W        W34565   2.383  28.405   4.087
69306W        W34566  14.681  12.871   3.196
69307W        W34567  39.774  14.798  12.928
69308W        W34568  27.166  35.139  13.487
69309W        W34569  35.569  12.661  12.526
69310W        W34570  41.427  26.795   0.923
69311W        W34571  37.175  10.217   1.373
69312W        W34572  30.064   1.459  13.396
69313W        W34573   0.936  13.820   2.307
69314W        W34574   5.300   8.678  12.576
69315W        W34575  16.500  41.480  14.654
69316W        W34576  27.900   3.310  10.212
69317W        W34577  26.546  31.119   3.360
69318W        W34578  11.165  15.367  12.501
69319W        W34579  41.951  25.708  11.111
69320W        W34580  42.219  29.654  11.719
69321W        W34581  30.150   5.963  14.885
69322W        W34582   1.405   4.253  13.597
69323W        W34583  43.938  34.864  14.828
69324W        W34584   6.708  39.292   4.777
69325W        W34585  27.044  25.409   1.783
69326W        W34586  19.037  33.884   1.370
69327W        W34587  31.884  39.782   1.699
69328W        W34588  40.967   0.187   2.118
69329W        W34589   6.772   3.846   2.911
69330W        W34590  29.130   0.958   1.918
69331W        W34591  40.539  21.338   1.336
69332W        W34592  12.450   0.399   3.041
69333W        W34593  21.457  11.231   2.694
69334W        W34594  16.696  12.295   4.590
69335W        W34595  38.493  23.063   1.423
69336W        W34596  28.156  16.147  12.103
69337W        W34597  21.310  40.032  11.141
69338W        W34598  10.686  33.634   2.839
69339W        W34599   2.021  29.115   2.176
69340W        W34600   6.403  32.595  11.119
69341W        W34601  44.204  28.752  10.342
69342W        W34602   8.022   0.909   0.801
69343W        W34603  27.555  29.436  13.910
69344W        W34604  40.675  43.652  13.018
69345W        W34605  39.126   4.913   3.746
69346W        W34606  40.070  21.391  11.578
69347W        W34607   7.652  40.667   2.849
69348W        W34608  24.246  17.610   1.439
69349W        W34609  32.539  13.058   2.352
69350W        W34610  26.107  13.695  13.483
69351W        W34611  24.992   2.230  13.786
69352W        W34612  15.187   0.580  14.932
69353W        W34613  16.332  31.399  14.236
69354W        W34614  25.582  25.162   0.495
69355W        W34615  23.903  35.784  12.756
69356W        W34616  29.530   4.258  11.213
69357W        W34617  37.980  25.777   2.701
69358W        W34618   9.675   1.648   2.836
69359W        W34619  35.980  11.387  10.670
69360W        W34620  32.076  35.561  14.362
69361W        W34621  22.495  14.337  13.596
69362W        W34622  23.670  40.081  11.137
69363W        W34623  15.500  16.592   4.235
69364W        W34624   4.188  24.793   0.394
69365W        W34625  20.665  14.137  13.436
69366W        W34626  19.365   6.886  11.016
69367W        W34627  11.691  16.243  12.886
69368W        W34628  38.988  12.198   1.954
69369W        W34629  10.236  43.240   3.246
69370W        W34630  38.886  23.779   0.632
69371W        W34631  36.757  13.674  10.608
69372W        W34632  24.628  36.439   2.400
69373W        W34633  44.294  25.891   1.242
69374W        W34634  40.160  30.430  11.627
69375W        W34635  18.217  11.278  13.132
69376W        W34636   6.147  14.192   1.884
69377W        W34637  21.511  10.741  13.463
69378W        W34638  41.381  31.875   0.335
69379W        W34639  12.018   9.128   0.973
69380W        W34640  41.283  42.010   0.672
69381W        W34641  12.025  28.567  11.995
69382W        W34642   0.677  38.352  14.495
69383W        W34643  22.509  38.979  10.414
69384W        W34644  35.375   9.929   2.619
69385W        W34645  12.140  43.746   1.351
69386W        W34646   4.992  25.794   1.648
69387W        W34647  33.186  30.079  13.061
69388W        W34648  37.401  14.573  14.934
69389W        W34649   6.649  11.607  12.049
69390W        W34650  20.795  39.928  12.520
69391W        W34651   9.902  33.691   3.576
69392W        W34652  22.524  44.244   4.228
69393W        W34653  17.590  13.556  12.530
69394W        W34654  20.708  23.502  13.424
69395W        W34655  42.734  31.050  10.787
69396W        W34656  22.852  42.166   2.280
69397W        W34657  20.118  36.569   1.771
69398W        W34658   2.479  18.815  12.046
69399W        W34659  20.235  33.444  10.083
69400W        W34660   6.652  29.848  10.148
69401W        W34661  13.075   1.446  13.927
69402W        W34662  18.031  40.061   0.843
69403W        W34663  13.573  19.543   9.947
69404W        W34664  41.750  17.708  10.645
69405W        W34665  14.092  30.110   2.681
69406W        W34666  25.959  41.512   4.802
69407W        W34667  12.731  40.869   1.354
69408W        W34668  38.526  39.920   1.258
69409W        W34669  22.483   2.081  11.169
69410W        W34670  43.616   3.853   1.415
69411W        W34671  41.375  33.485   4.769
69412W        W34672  36.955  27.932   4.616
69413W        W34673  42.971  34.592   1.866
69414W        W34674   9.725   8.418   1.865
69415W        W34675  17.838  31.899   2.393
69416W        W34676  39.277  37.337  14.013
69417W        W34677  32.982  34.970   0.174
69418W        W34678  29.548  10.407   1.734
69419W        W34679  14.891  13.127   0.777
69420W        W34680  24.651  13.411  12.406
69421W        W34681  40.095  39.051  11.583
69422W        W34682  14.070  41.627  11.676
69423W        W34683  41.297   6.824   1.789
69424W        W34684  27.526  44.213  14.576
69425W        W34685  23.585  16.779  14.310
69426W        W34686  21.523  16.316   0.329
69427W        W34687  27.269  31.929   1.182
69428W        W34688   5.537  20.561   3.265
69429W        W34689  35.338   8.711  11.621
69430W        W34690  33.601  15.542   3.608
69431W        W34691  11.382  37.127   1.194
69432W        W34692  31.134  15.200  12.027
69433W        W34693   5.233  36.975   1.685
69434W        W34694  34.841  26.157   2.368
69435W        W34695  22.072  24.763   2.066
69436W        W34696  33.706  31.437  12.354
69437W        W34697   5.806  41.490  12.605
69438W        W34698  24.689  17.123  14.359
69439W        W34699  15.807   6.166  14.510
69440W        W34700  13.818   7.919   0.853
69441W        W34701  29.553   6.815   4.044
69442W        W34702   2.359  39.353   3.676
69443W        W34703  19.317  40.178   4.046
69444W        W34704   2.335   0.244   4.426
69445W        W34705  17.654  13.087  13.533
69446W        W34706  22.585  33.570   4.596
69447W        W34707  31.978   3.025  12.422
69448W        W34708  23.749  25.015   2.856
69449W        W34709   0.684  25.591   1.860
69450W        W34710  21.276  28.506  13.441
69451W        W34711  24.211  37.320  13.873
69452W        W34712  35.905  26.236  13.504
69453W        W34713   7.228   3.845   4.082
69454W        W34714  11.133  38.963   0.851
69455W        W34715  14.255  21.788   5.052
69456W        W34716  39.011   1.017   3.047
69457W        W34717  24.303  24.720  11.065
69458W        W34718  15.070  22.699  10.296
69459W        W34719  26.781  16.709  14.986
69460W        W34720  42.437   6.974  14.859
69461W        W34721  12.241  29.927   2.293
69462W        W34722  34.931   2.438  10.827
69463W        W34723  20.558  39.300  14.056
69464W        W34724  15.756  17.879  12.748
69465W        W34725  31.045   2.727  11.098
69466W        W34726   3.879  26.107  10.248
69467W        W34727  26.641  36.187  14.999
69468W        W34728  43.786  22.445   1.323
69469W        W34729  38.536   2.795   3.180
69470W        W34730  34.101   4.936  13.138
69471W        W34731  16.042  14.252  14.661
69472W        W34732   5.152  18.521   1.844
69473W        W34733  33.059   2.940  12.761
69474W        W34734   2.965  25.531  12.050
69475W        W34735  29.427  43.081  13.071
69476W        W34736  15.381   7.418   3.859
69477W        W34737  17.284   8.110  13.775
69478W        W34738  12.742   8.067  11.046
69479W        W34739   6.656  12.273   4.594
69480W        W34740   0.275  29.199   1.365
69481W        W34741  33.361  15.698   1.732
69482W        W34742   1.513  37.141  14.436
69483W        W34743  28.226  35.886  10.600
69484W        W34744  43.083   3.424   0.364
69485W        W34745  31.512   4.309  11.650
69486W        W34746  20.299  40.627   5.011
69487W        W34747  22.213  22.109   2.127
69488W        W34748  44.432  21.709  14.394
69489W        W34749  21.957   8.711   3.984
69490W        W34750  34.446  12.120   3.234
69491W        W34751  40.289  23.681  11.394
69492W        W34752   5.321   2.159   2.656
69493W        W34753   5.673  23.687   0.299
69494W        W34754  14.609  25.941  11.764
69495W        W34755  42.043  42.321  14.085
69496W        W34756   7.871   4.666   2.246
69497W        W34757  19.333  17.300  12.948
69498W        W34758  13.684   7.983  14.518
69499W        W34759   6.320  11.051  14.226
69500W        W34760  38.541  42.836   4.679
69501W        W34761  23.046  44.926   4.014
69502W        W34762  31.959  11.172  12.076
69503W        W34763   5.584  38.884  10.516
69504W        W34764  40.567  30.230  10.743
69505W        W34765   4.718  44.355   3.180
69506W        W34766  24.557   6.540   1.468
69507W        W34767  44.482  28.802  12.013
69508W        W34768  39.352  32.125   2.373
69509W        W34769   9.009  44.073  11.712
69510W        W34770  36.901  39.882   2.687
69511W        W34771   9.177   9.998   4.623
69512W        W34772  31.035   3.932   2.202
69513W        W34773  13.043  42.862  13.379
69514W        W34774  35.078  30.079  14.914
69515W        W34775   7.595   9.727  14.872
69516W        W34776  17.490   0.846   2.384
69517W        W34777  36.207  33.504   2.312
69518W        W34778  10.897   5.746   2.175
69519W        W34779  22.040  19.291   0.337
69520W        W34780  27.076  14.396   3.648
69521W        W34781  33.908   0.716   2.363
69522W        W34782  32.487   0.489   4.685
69523W        W34783  21.293  20.173  11.281
69524W        W34784  41.924  37.068   1.128
69525W        W34785  10.026  13.646   1.298
69526W        W34786   6.862  19.258  13.742
69527W        W34787  12.900  40.054  11.062
69528W        W34788  41.857  10.181   3.310
69529W        W34789  39.574   0.872  14.039
69530W        W34790  24.884  35.086  14.351
69531W        W34791  16.716  37.208   2.189
69532W        W34792  21.089  14.915   2.308
69533W        W34793  10.713   7.866   0.811
69534W        W34794  37.712  35.540  14.466
69535W        W34795  34.711  28.884  14.296
69536W        W34796  41.035  18.277   2.322
69537W        W34797   5.689  13.938   0.991
69538W        W34798  32.367  31.323  11.486
69539W        W34799   7.257  40.558   3.870
69540W        W34800  37.094  25.473  13.044
69541W        W34801  14.368  26.234   2.764
69542W        W34802  16.696  13.352  11.517
69543W        W34803  15.199  27.308  12.581
69544W        W34804  33.492  40.345   0.054
69545W        W34805  28.467  29.575  11.135
69546W        W34806   5.952  11.258  10.400
69547W        W34807  19.539   7.329  11.190
69548W        W34808  23.517  21.598   0.524
69549W        W34809  42.402  10.076  13.087
69550W        W34810   2.759  32.533  13.029
69551W        W34811  41.352  10.852   2.767
69552W        W34812  19.028  28.072   0.365
69553W        W34813   4.346  28.735   1.242
69554W        W34814  12.226  39.535   0.012
69555W        W34815  35.632  38.867   2.318
69556W        W34816  30.713  17.601  11.097
69557W        W34817  21.452  37.152  10.680
69558W        W34818  34.822  38.611  14.526
69559W        W34819  23.695  19.577   1.283
69560W        W34820  30.601   4.516   0.863
69561W        W34821  20.849  25.876  14.064
69562W        W34822  41.408  16.116  11.594
69563W        W34823  22.281  11.780  14.473
69564W        W34824  30.174  37.386  13.332
69565W        W34825  31.427   5.296  12.351
69566W        W34826  26.498  24.740   2.648
69567W        W34827  44.526  26.527  10.476
69568W        W34828  30.819  22.597   4.594
69569W        W34829  36.405   9.927   4.626
69570W        W34830  35.069  17.189  14.916
69571W        W34831  13.261  17.257   2.130
69572W        W34832  38.372  35.283  13.313
69573W        W34833  13.067  29.065   0.424
69574W        W34834  43.670  27.199   1.388
69575W        W34835   2.442  10.070  13.756
69576W        W34836  27.086  18.239  13.114
69577W        W34837  14.865   2.326  10.666
69578W        W34838  17.513  35.854  13.963
69579W        W34839  33.828   1.697   0.381
69580W        W34840  37.918  25.488   2.281
69581W        W34841  42.850   8.785   1.007
69582W        W34842  21.049  39.804   2.533
69583W        W34843  29.703  13.689  12.481
69584W        W34844   8.447  41.012   4.394
69585W        W34845  39.506  39.837   1.752
69586W        W34846  39.952   4.187   2.321
69587W        W34847  34.462  12.191  11.208
69588W        W34848  27.769   1.557   2.782
69589W        W34849  32.460  36.750  11.058
69590W        W34850  15.063   8.922  14.722
69591W        W34851   6.906  33.503  13.300
69592W        W34852  29.902   4.257  11.595
69593W        W34853  20.617   1.472   0.829
69594W        W34854  39.956  43.932   3.305
69595W        W34855  22.767  21.066   3.212
69596W        W34856   0.665  10.712   2.092
69597W        W34857  14.133  32.269   3.538
69598W        W34858   3.140  30.953  14.935
69599W        W34859  33.368  26.021  12.538
69600W        W34860  21.492   9.582  13.069
69601W        W34861  16.156  24.516  11.203
69602W        W34862  38.028  30.825  12.597
69603W        W34863  26.823  15.662  10.442
69604W        W34864   1.190  43.863   3.402
69605W        W34865  26.196  10.909   0.017
69606W        W34866  26.288  31.687  12.414
69607W        W34867  35.234   5.736  11.873
69608W        W34868  31.407  37.161   4.222
69609W        W34869  32.028   0.734   4.720
69610W        W34870  12.393  35.531   4.117
69611W        W34871  17.055  12.161   4.219
69612W        W34872  15.026  44.873  12.549
69613W        W34873   4.400  43.379   1.764
69614W        W34874   0.175  23.509  14.311
69615W        W34875  20.060   2.174  14.297
69616W        W34876  34.572   4.702   1.854
69617W        W34877  15.111  44.729  10.955
69618W        W34878  35.696  23.568  10.006
69619W        W34879  44.231  35.843  14.338
69620W        W34880  40.395  19.634  11.680
69621W        W34881   3.692  36.965   2.942
69622W        W34882  42.010  26.467  12.810
69623W        W34883   7.135  35.328   3.186
69624W        W34884   0.676   4.185  12.479
69625W        W34885  42.842  11.781  12.469
69626W        W34886  30.103  11.618  14.973
69627W        W34887  19.631   2.393  14.520
69628W        W34888  26.706   9.376   4.667
69629W        W34889  16.035   8.655   2.301
69630W        W34890  15.173  10.052   4.062
69631W        W34891  37.549  25.263  13.328
69632W        W34892  24.988  39.436   2.139
69633W        W34893  43.445  15.518   4.635
69634W        W34894  36.560  25.002  13.431
69635W        W34895  14.223  37.981  11.040
69636W        W34896  34.409  44.075  12.473
69637W        W34897  44.569  34.020   4.130
69638W        W34898  18.671  37.749   0.703
69639W        W34899  43.708   7.146  13.497
69640W        W34900  31.181   0.194   0.856
69641W        W34901  15.974   7.142   2.054
69642W        W34902  44.438   6.966   3.913
69643W        W34903   7.879   0.729   5.059
69644W        W34904  31.161   6.351  14.548
69645W        W34905   8.839  23.592  13.903
69646W        W34906  35.721  23.518  12.514
69647W        W34907  24.559  40.341   3.195
69648W        W34908  11.277   9.884   4.026
69649W        W34909   7.317  10.621   1.457
69650W        W34910  31.692  33.999  13.163
69651W        W34911  37.309   5.834  12.799
69652W        W34912  11.885  17.231  12.344
69653W        W34913  20.243   8.377   2.388
69654W        W34914  40.080  14.309   0.491
69655W        W34915  41.597  23.200   0.878
69656W        W34916  42.085  29.526  10.703
69657W        W34917   3.068   9.331  10.987
69658W        W34918  16.329  27.052   1.272
69659W        W34919   1.060   6.619  12.048
69660W        W34920  34.185  15.847   3.240
69661W        W34921   8.185   0.025  11.959
69662W        W34922  27.924  18.182   0.461
69663W        W34923  43.390  32.066  12.094
69664W        W34924  34.872  15.248   3.703
69665W        W34925  41.555  12.804   4.279
69666W        W34926  19.457  29.614   1.716
69667W        W34927  43.980  31.675   3.706
69668W        W34928  44.067  19.755  13.416
69669W        W34929  44.492   0.700   1.852
69670W        W34930   3.477   7.745  13.350
69671W        W34931  42.444  30.834   0.299
69672W        W34932   3.318  16.700  13.415
69673W        W34933   0.415   1.402   0.329
69674W        W34934  38.347  44.725   1.730
69675W        W34935   4.459  42.249  11.258
69676W        W34936  13.207  41.840  12.190
69677W        W34937   2.404  10.965   2.660
69678W        W34938   6.383  37.044   4.415
69679W        W34939  14.232  23.234   1.954
69680W        W34940  28.484   5.770   0.473
69681W        W34941  34.571  11.640   4.157
69682W        W34942  38.344  43.290   4.801
69683W        W34943  38.008  27.226   1.275
69684W        W34944  19.742  21.605   2.296
69685W        W34945  27.058  41.330  10.869
69686W        W34946   9.221  20.228  12.855
69687W        W34947  14.841  10.394  12.439
69688W        W34948  11.925   3.886  14.393
69689W        W34949  35.814  14.769  11.946
69690W        W34950  36.126  12.349  11.677
69691W        W34951  20.577  41.361   1.397
69692W        W34952  10.684  23.447  11.171
69693W        W34953   9.519   3.245  10.648
69694W        W34954  35.869   0.197   1.901
69695W        W34955  10.332  17.632  11.716
69696W        W34956  44.048  24.078   3.773
69697W        W34957  42.871  27.915   1.355
69698W        W34958  18.663  31.549   4.561
69699W        W34959  40.578  43.368   2.134
69700W        W34960  24.153  11.122  10.570
69701W        W34961  35.523  27.065   2.273
69702W        W34962  16.987  37.042  11.943
69703W        W34963  13.245  25.004   2.326
69704W        W34964  37.557  28.335   3.778
69705W        W34965  26.723  15.782  14.014
69706W        W34966  36.370  11.260  10.973
69707W        W34967  15.263  29.023  14.888
69708W        W34968  25.057  41.767  14.266
69709W        W34969  36.911  11.636  12.444
69710W        W34970  39.550  28.176   4.620
69711W        W34971   3.302  43.187  14.969
69712W        W34972  33.833  31.165  10.578
69713W        W34973  44.406  30.274   1.342
69714W        W34974   1.565  40.519  12.069
69715W        W34975  21.769  44.432   4.713
69716W        W34976  22.968   1.248  13.542
69717W        W34977  42.523  32.741  14.262
69718W        W34978  44.971   6.787   4.116
69719W        W34979  12.528  21.536  12.075
69720W        W34980  24.747  39.827   0.347
69721W        W34981   9.777   2.005  11.515
69722W        W34982  26.141   7.483   2.138
69723W        W34983  30.605  34.613   2.851
69724W        W34984  30.155  33.297   4.834
69725W        W34985  26.064   2.494   9.904
69726W        W34986  37.461   9.144  12.941
69727W        W34987  26.237   8.758   0.312
69728W        W34988  41.494  16.042   1.880
69729W        W34989   2.964  10.652  14.267
69730W        W34990  33.661  31.667  10.585
69731W        W34991  39.190  13.820   2.684
69732W        W34992  43.780  42.262  13.850
69733W        W34993  19.073  13.709  11.599
69734W        W34994   2.901   0.516   1.863
69735W        W34995  31.065   7.163   1.895
69736W        W34996  28.426  21.256  10.704
69737W        W34997  23.209  26.433  11.669
69738W        W34998   8.250  13.295   2.321
69739W        W34999  22.956   0.895  12.251
69740W        W35000   5.071  36.780  10.716
69741W        W35001   8.081   1.402  14.492
69742W        W35002  42.481  20.761  11.906
69743W        W35003   9.840  25.660  11.931
69744W        W35004  32.686  26.639  13.483
69745W        W35005  23.148   2.782   5.544
69746W        W35006  22.777   0.972  10.211
69747W        W35007  30.720   0.651  11.957
69748W        W35008  32.409  18.125   4.072
69749W        W35009  18.089  36.988  13.729
69750W        W35010  23.541  10.399  12.821
69751W        W35011  16.499  37.334  11.228
69752W        W35012   8.348  13.235   3.226
69753W        W35013   3.172   2.261  13.571
69754W        W35014   8.305   6.213   2.873
69755W        W35015   4.809  21.581  11.108
69756W        W35016  39.773  40.776   2.934
69757W        W35017   9.190  26.047  14.508
69758W        W35018   3.665  41.996  14.353
69759W        W35019  35.126  27.881   2.724
69760W        W35020  24.709  12.657  11.441
69761W        W35021  34.787  25.386  11.160
69762W        W35022  22.914  18.116   1.213
69763W        W35023  44.729   3.519  11.602
69764W        W35024  15.716   3.013  13.929
69765W        W35025  38.503  18.170  11.916
69766W        W35026  23.578  29.452   1.012
69767W        W35027  19.459  23.007   2.782
69768W        W35028  14.781  34.013   4.168
69769W        W35029  35.918  36.900   3.188
69770W        W35030  37.402   2.943  12.416
69771W        W35031  38.981  39.902   3.284
69772W        W35032   3.948   6.206   0.135
69773W        W35033  11.728  13.660  12.595
69774W        W35034  38.477  41.593   4.632
69775W        W35035  13.722  44.442   1.865
69776W        W35036  12.215   3.123   2.749
69777W        W35037  40.095  13.236  13.385
69778W        W35038  16.167  42.070  10.426
69779W        W35039  23.544  29.449   4.298
69780W        W35040  27.299  24.976   4.827
69781W        W35041  34.345   5.940  11.136
69782W        W35042  13.984  27.412   1.289
69783W        W35043  10.605  39.884   0.826
69784W        W35044  23.181   8.770   3.211
69785W        W35045  40.269  16.972  11.594
69786W        W35046  22.080   7.634  14.937
69787W        W35047  19.240  23.969   5.014
69788W        W35048  42.893  18.646  12.952
69789W        W35049  19.173  18.576   5.165
69790W        W35050  14.126  43.316   2.610
69791W        W35051  26.218  41.883   1.457
69792W        W35052  28.714  42.075  14.344
69793W        W35053  11.784  20.531  10.575
69794W        W35054  25.544  38.890  11.343
69795W        W35055   5.676  22.156   3.166
69796W        W35056   5.651   9.869  14.422
69797W        W35057  22.697  39.525   4.061
69798W        W35058   4.228  41.205  12.306
69799W        W35059  32.594  22.504  11.134
69800W        W35060  29.005  24.731  10.398
69801W        W35061  41.976  16.799  12.970
69802W        W35062  31.263  18.611   0.877
69803W        W35063   9.371  10.285  12.004
69804W        W35064  44.697  31.826   2.308
69805W        W35065   3.716   6.362   4.543
69806W        W35066  17.061  41.497   0.382
69807W        W35067   1.098  32.975   3.327
69808W        W35068  41.763   4.033   0.294
69809W        W35069   4.324  33.237   0.300
69810W        W35070  21.971  18.418   5.505
69811W        W35071   5.952   5.580  13.349
69812W        W35072  37.073   2.751   1.312
69813W        W35073   1.053  20.604  11.314
69814W        W35074  21.574  14.662   4.032
69815W        W35075  17.752  35.856   2.382
69816W        W35076  25.397  42.304   1.289
69817W        W35077  12.064  40.450   4.916
69818W        W35078  40.105   2.778  10.531
69819W        W35079  37.458   6.323  13.029
69820W        W35080   6.850  12.848  13.644
69821W        W35081  10.755  11.686   5.084
69822W        W35082  10.592  31.183   4.656
69823W        W35083  23.958   9.414   5.100
69824W        W35084  24.990   6.736  13.031
69825W        W35085  23.081  23.558   2.748
69826W        W35086  17.739  12.265  11.440
69827W        W35087  32.360   7.852  12.789
69828W        W35088  25.930  17.239  12.069
69829W        W35089  19.740  38.939   0.801
69830W        W35090  25.255   6.865  10.865
69831W        W35091  18.023  10.931   4.532
69832W        W35092  31.984  11.718  14.748
69833W        W35093  29.952  35.075  10.727
69834W        W35094   3.412  28.228  12.454
69835W        W35095  11.687  26.714   9.856
69836W        W35096  14.206  22.227  10.282
69837W        W35097   2.272  15.889   1.755
69838W        W35098  35.944  38.055   3.146
69839W        W35099  31.031  19.284  12.464
69840W        W35100  23.710  32.911   1.186
69841W        W35101  43.269  37.114  14.740
69842W        W35102  21.956  40.267   0.038
69843W        W35103  42.791  22.730   4.578
69844W        W35104  16.151   7.327   4.535
69845W        W35105  13.687  41.335   2.580
69846W        W35106  15.882  36.621  11.551
69847W        W35107  38.450   6.771   1.992
69848W        W35108  26.435  36.100   4.996
69849W        W35109  24.525  22.336   2.822
69850W        W35110  13.110  43.830  11.504
69851W        W35111  43.068  27.608  11.123
69852W        W35112  19.055  25.674   2.734
69853W        W35113  38.759  35.369  11.935
69854W        W35114  40.834  22.568   4.737
69855W        W35115   1.989  13.837  14.412
69856W        W35116  12.176   9.694   0.274
69857W        W35117  24.063  30.812  14.830
69858W        W35118  20.173  38.768   4.178
69859W        W35119  13.187   0.632  12.455
69860W        W35120  36.310   4.863  12.144
69861W        W35121  20.727   9.498   3.850
69862W        W35122  38.544  41.866   3.828
69863W        W35123  25.047  24.943  11.650
69864W        W35124   0.923   0.476   1.424
69865W        W35125  22.595  35.145   2.610
69866W        W35126  10.043  42.932   4.210
69867W        W35127  19.782   8.172  10.701
69868W        W35128  14.321  35.437   1.229
69869W        W35129  18.847  19.957   3.472
69870W        W35130  41.583  28.580  10.544
69871W        W35131   4.400  32.523  10.731
69872W        W35132  29.109   2.467  12.642
69873W        W35133  14.488  28.972   3.820
69874W        W35134  18.491  16.936   0.885
69875W        W35135  14.031  28.380   3.305
69876W        W35136  27.596  36.449  12.083
69877W        W35137  33.873  34.951   3.851
69878W        W35138  32.866  13.644   0.686
69879W        W35139  38.210  28.464   4.809
69880W        W35140   2.820   1.913   1.817
69881W        W35141   0.862  11.403  13.961
69882W        W35142  32.515  30.812  11.500
69883W        W35143   5.303   1.098  11.912
69884W        W35144  44.836   4.266   0.383
69885W        W35145   3.686  42.215   4.918
69886W        W35146  15.306  25.166   1.468
69887W        W35147  40.098  33.417  13.868
69888W        W35148  37.662  34.676   2.275
69889W        W35149  33.376   4.339  12.152
69890W        W35150  14.044  33.087  11.541
69891W        W35151  36.981  12.393   3.747
69892W        W35152  43.401  32.337  13.437
69893W        W35153  33.379  15.498   4.472
69894W        W35154  12.924  13.834   3.665
69895W        W35155  43.966  44.349  14.869
69896W        W35156  42.615   0.703  13.949
69897W        W35157  15.724  40.040  14.863
69898W        W35158  22.525  25.452  12.370
69899W        W35159   8.735  18.554  14.741
69900W        W35160  30.469  38.251  10.528
69901W        W35161  13.623  40.549  10.954
69902W        W35162  12.797  40.341   3.795
69903W        W35163  39.981  39.837   2.409
69904W        W35164  11.639  18.451   4.108
69905W        W35165  13.881  12.301   3.251
69906W        W35166  27.696  15.209   3.323
69907W        W35167  32.140   3.814  14.947
69908W        W35168  35.950  26.049  10.913
69909W        W35169  40.952   2.054   0.362
69910W        W35170   3.023  38.992  11.590
69911W        W35171   6.065  29.255  12.637
69912W        W35172  22.261  33.577  14.320
69913W        W35173  11.558  30.353   4.414
69914W        W35174  34.848  28.685  12.147
69915W        W35175   5.367   1.938  10.708
69916W        W35176  17.858  17.662   1.886
69917W        W35177  13.730   4.429   1.220
69918W        W35178  25.068  13.423   1.782
69919W        W35179  21.521  25.663   4.542
69920W        W35180  44.723  28.424  11.176
69921W        W35181  21.948  35.541   1.424
69922W        W35182   9.711  11.918  11.039
69923W        W35183  42.913  34.997  12.986
69924W        W35184  12.155  12.377  11.585
69925W        W35185  20.867  36.089   4.889
69926W        W35186  25.746  35.512  12.052
69927W        W35187  24.388  25.660   5.073
69928W        W35188  14.492  17.105   3.659
69929W        W35189  10.074  15.846  12.059
69930W        W35190  30.018  10.736  12.315
69931W        W35191  39.617  38.373  12.160
69932W        W35192  22.533  31.576   2.178
69933W        W35193  21.208  34.497   3.756
69934W        W35194  44.514  20.617  13.812
69935W        W35195   9.698  35.980   4.926
69936W        W35196  38.040  10.169  10.663
69937W        W35197  17.704  30.238  14.813
69938W        W35198  34.954  36.038   0.402
69939W        W35199   9.423   9.803  12.461
69940W        W35200  22.912  44.071   2.883
69941W        W35201  22.038   1.872  10.565
69942W        W35202   8.631  26.234  13.284
69943W        W35203  32.207  10.853   1.775
69944W        W35204  18.529  43.965  10.483
69945W        W35205  33.677  18.103  13.600
69946W        W35206  31.444   2.295   2.462
69947W        W35207   9.320   9.940   3.713
69948W        W35208  43.634  11.095   0.725
69949W        W35209   6.506   2.445   3.240
69950W        W35210  14.698   3.469   1.902
69951W        W35211  30.092  36.588   2.878
69952W        W35212  26.142  13.414   0.659
69953W        W35213   0.198   8.580  11.033
69954W        W35214  26.453  12.657   0.851
69955W        W35215   3.710   1.766   5.275
69956W        W35216  22.468  41.191   0.018
69957W        W35217  10.476  41.291  12.038
69958W        W35218   9.287  41.460  13.073
69959W        W35219  44.197  28.296   4.109
69960W        W35220  29.988  36.270  13.936
69961W        W35221  17.684  41.786  12.008
69962W        W35222  15.121  41.099   0.770
69963W        W35223  32.846  24.593   0.877
69964W        W35224  17.193  13.255  11.568
69965W        W35225   3.381  34.341  12.111
69966W        W35226  18.940  41.575   1.285
69967W        W35227  27.613   4.254  13.199
69968W        W35228  35.912  17.672   2.240
69969W        W35229  18.671   2.852   1.427
69970W        W35230  40.875  11.655   1.084
69971W        W35231  16.647  39.867   0.316
69972W        W35232  39.850   3.507   3.614
69973W        W35233   5.929  24.780  10.274
69974W        W35234  39.707   6.127  13.761
69975W        W35235  19.378  42.537   3.104
69976W        W35236   3.000  20.156  13.576
69977W        W35237  27.608  34.463  10.380
69978W        W35238  31.978  27.185  10.849
69979W        W35239  18.083  26.485  13.166
69980W        W35240  38.199  11.268  13.894
69981W        W35241   5.132   0.385   2.407
69982W        W35242  42.783  16.734   3.114
69983W        W35243  11.854  14.037   2.246
69984W        W35244  42.199  36.354  12.923
69985W        W35245  44.184  43.083   0.460
69986W        W35246  27.832   7.811   2.291
69987W        W35247  34.614  42.470  10.784
69988W        W35248  29.178  42.749   2.454
69989W        W35249  39.524  16.118   1.569
69990W        W35250  13.588   9.142   4.310
69991W        W35251  20.001  17.761  13.614
69992W        W35252  14.558  42.313   4.089
69993W        W35253  28.973  26.226   3.765
69994W        W35254   2.661  38.802   1.220
69995W        W35255  16.196  16.162  14.391
69996W        W35256  42.235   6.152  12.901
69997W        W35257  14.172   0.388  11.635
69998W        W35258  28.536  16.588   4.068
69999W        W35259  35.450  39.401   3.126
70000W        W35260  37.468  29.234   3.289
70001W        W35261  13.015  44.779  12.065
70002W        W35262  21.047   8.815  13.477
70003W        W35263  30.891  35.041  13.114
70004W        W35264  38.854  10.329  10.384
70005W        W35265  22.704  28.963   1.737
70006W        W35266  12.112  30.503  11.920
70007W        W35267  41.952   6.429   4.040
70008W        W35268  13.894   7.232  11.755
70009W        W35269  15.758  34.542  14.435
70010W        W35270  25.788  18.665  12.597
70011W        W35271  35.522  16.184  13.303
70012W        W35272  31.546   4.663   2.295
70013W        W35273  20.854  15.784   2.223
70014W        W35274  23.768  26.214   4.698
70015W        W35275   6.149   8.844  14.866
70016W        W35276  28.521  24.459   4.688
70017W        W35277  43.492  14.638   3.386
70018W        W35278  22.237  42.512  14.249
70019W        W35279   4.230  28.121   2.129
70020W        W35280  17.575  19.843   1.851
70021W        W35281   2.934  31.974   4.573
70022W        W35282  26.710  38.358   0.299
70023W        W35283   1.839   2.840   2.885
70024W        W35284   8.348  16.376  14.805
70025W        W35285  42.697  32.873   1.957
70026W        W35286  10.097  31.429  11.622
70027W        W35287  36.411  17.752   3.682
70028W        W35288  27.574  15.762   2.649
70029W        W35289   5.545  23.969  11.978
70030W        W35290  20.102  32.990  14.333
70031W        W35291   6.153  41.984  11.567
70032W        W35292   0.890  20.324   0.785
70033W        W35293   3.769  36.011   3.802
70034W        W35294  22.577  14.115   4.125
70035W        W35295  41.454  28.902  10.929
70036W        W35296  36.815  41.536   0.863
70037W        W35297  42.832  16.147   4.686
70038W        W35298  10.304  29.871  14.404
70039W        W35299  43.797  29.164   0.512
70040W        W35300  11.654  17.615  13.634
70041W        W35301  17.886  28.158   1.282
70042W        W35302  26.695   1.357   0.019
70043W        W35303  28.603  43.340   1.130
70044W        W35304  25.016  36.872  12.929
70045W        W35305  41.283  32.374   0.223
70046W        W35306  25.671  27.112   1.892
70047W        W35307  11.600  18.823  13.276
70048W        W35308  28.247   4.431   1.189
70049W        W35309  36.465  43.715  10.763
70050W        W35310  21.993  25.270   1.382
70051W        W35311  16.790  34.648  14.518
70052W        W35312  30.056  32.195  14.682
70053W        W35313  11.788  17.237  12.866
70054W        W35314  14.587  13.312   4.232
70055W        W35315  13.243  29.961  13.364
70056W        W35316   7.014  27.128   2.595
70057W        W35317  39.587  44.031  11.667
70058W        W35318  13.304  20.907  12.249
70059W        W35319  37.352  33.110   4.043
70060W        W35320  36.030  13.695   3.653
70061W        W35321  25.184  37.351  13.876
70062W        W35322  20.027  17.677  11.501
70063W        W35323   7.975   2.628   4.665
70064W        W35324  43.840   3.482  11.939
70065W        W35325  31.872  39.221   0.875
70066W        W35326  30.045  25.026   1.442
70067W        W35327  36.962  41.942  14.530
70068W        W35328  18.985   3.910   0.596
70069W        W35329  27.605  19.219   3.799
70070W        W35330  29.937  11.844   0.405
70071W        W35331   1.712   9.675  14.893
70072W        W35332  41.631  33.393   2.285
70073W        W35333  18.885  30.967   2.622
70074W        W35334  22.689  10.619  14.306
70075W        W35335  17.281  14.897  11.132
70076W        W35336  25.628  37.819  11.930
70077W        W35337  17.545  12.003  14.566
70078W        W35338  36.913   9.346  13.649
70079W        W35339  27.551  25.206   0.455
70080W        W35340   4.899  30.623   3.331
70081W        W35341  37.539  32.475   2.894
70082W        W35342  11.224  10.150   2.815
70083W        W35343  21.606  19.477   1.742
70084W        W35344  23.632  30.731  11.651
70085W        W35345  13.290   4.425   1.492
70086W        W35346  39.122  20.709   5.012
70087W        W35347  39.074  37.416  11.449
70088W        W35348   7.667  37.744   4.485
70089W        W35349  37.078  43.340   2.766
70090W        W35350  35.433  25.187   5.124
70091W        W35351   2.023   4.222  14.442
70092W        W35352  42.146  40.259  13.487
70093W        W35353  42.911   2.338   1.789
70094W        W35354  34.085   9.336   1.769
70095W        W35355  18.891  25.092   4.577
70096W        W35356  15.217  12.127   3.392
70097W        W35357  22.736  19.338  12.019
70098W        W35358  36.527  31.976  10.121
70099W        W35359  20.813  27.395  13.855
70100W        W35360  10.793  22.492   4.770
70101W        W35361  28.970  23.009   3.661
70102W        W35362  15.438  37.368   0.242
70103W        W35363  18.765  38.486  13.454
70104W        W35364  25.283  17.678  13.259
70105W        W35365   0.865   4.244   1.303
70106W        W35366  33.787   9.230  13.174
70107W        W35367  37.811   0.821   1.722
70108W        W35368   7.806   4.800  13.425
70109W        W35369  17.644  44.821   0.487
70110W        W35370  32.600  17.279  13.289
70111W        W35371  30.831  36.423  11.182
70112W        W35372  27.872  24.036  13.844
70113W        W35373  35.879  22.158  13.835
70114W        W35374  37.254  43.900   3.693
70115W        W35375  28.945  12.220   1.034
70116W        W35376   6.615  43.400   0.626
70117W        W35377  14.281  41.075  10.797
70118W        W35378  14.111   2.203   4.534
70119W        W35379   1.361  20.427   2.912
70120W        W35380  41.055  15.060  13.966
70121W        W35381  41.835  43.488  10.662
70122W        W35382  18.580  44.493   2.686
70123W        W35383  18.161  22.990   4.160
70124W        W35384  32.025   0.223   4.622
70125W        W35385  18.951  17.157   0.912
70126W        W35386   5.918  42.495  10.694
70127W        W35387  24.101  19.329   1.474
70128W        W35388  24.553  44.064   0.403
70129W        W35389  10.564  24.091  12.454
70130W        W35390  16.796  25.727  13.932
70131W        W35391   1.237  11.019   9.799
70132W        W35392  42.293   7.857  12.454
70133W        W35393  30.389   5.334  14.781
70134W        W35394  15.465  38.485   0.806
70135W        W35395   1.818  11.659   2.911
70136W        W35396  41.595  42.716   0.276
70137W        W35397  34.506  35.189   2.414
70138W        W35398  32.803  39.896   0.477
70139W        W35399  31.517  14.681   2.844
70140W        W35400  16.062   6.739   2.385
70141W        W35401  28.409   3.364  14.902
70142W        W35402  40.293   0.214  12.171
70143W        W35403  24.748  38.497  11.637
70144W        W35404  37.100  19.220  11.469
70145W        W35405  39.970  17.069  14.368
70146W        W35406   7.009  44.353  12.448
70147W        W35407   2.727  15.156   0.809
70148W        W35408  29.809  35.019  12.679
70149W        W35409  36.363  10.094   1.689
70150W        W35410  32.365  18.572  14.714
70151W        W35411  11.826  36.974  13.424
70152W        W35412  35.638  41.341  13.495
70153W        W35413  33.525  24.605  10.248
70154W        W35414  14.213  19.382   4.661
70155W        W35415  16.958  33.548  12.550
70156W        W35416  27.742  44.551   2.699
70157W        W35417   0.041  10.215  12.508
70158W        W35418   8.835  10.390   1.377
70159W        W35419   9.188  14.705   3.117
70160W        W35420  25.371   1.311  14.562
70161W        W35421  18.589  24.660   2.962
70162W        W35422  21.273   0.826   3.228
70163W        W35423   6.242  12.918  12.011
70164W        W35424  12.552  15.391  13.469
70165W        W35425  12.899   9.908   9.775
70166W        W35426  42.200  25.085   4.286
70167W        W35427   1.995  27.077  10.316
70168W        W35428  28.451  36.130  14.316
70169W        W35429  33.396   1.028   1.262
70170W        W35430  14.928  36.924  12.496
70171W        W35431   9.871  15.305  14.283
70172W        W35432  11.581   1.472   0.468
70173W        W35433   7.232  21.026  14.617
70174W        W35434  39.391  44.968  10.842
70175W        W35435   6.958  44.904  11.419
70176W        W35436   7.294   1.847  13.754
70177W        W35437   8.294   7.723   4.464
70178W        W35438  43.339  41.281   1.851
70179W        W35439  12.079  12.441   0.479
70180W        W35440  10.590  11.277  13.015
70181W        W35441   0.861  15.758   3.867
70182W        W35442  36.308  42.745  12.168
70183W        W35443  29.881   4.721  13.510
70184W        W35444   3.711  22.247   0.740
70185W        W35445  34.441  44.096   3.755
70186W        W35446   7.743  25.941  14.007
70187W        W35447  41.826  25.205  11.212
70188W        W35448  41.014  17.528  12.969
70189W        W35449  42.769   1.382   0.537
70190W        W35450  18.278   5.692  12.856
70191W        W35451  31.934  12.248   0.693
70192W        W35452  25.257  19.545  14.040
70193W        W35453   2.136  43.450  14.236
70194W        W35454  14.374  38.727   3.798
70195W        W35455  33.433  16.801  11.979
70196W        W35456  27.225  18.406   2.188
70197W        W35457   7.617  42.918   2.320
70198W        W35458  27.111  26.747  14.899
70199W        W35459  23.986  24.330   4.537
70200W        W35460  44.956  43.034  11.889
70201W        W35461  14.167   0.371   4.853
70202W        W35462  32.829   3.246  13.545
70203W        W35463  30.883  27.108   1.863
70204W        W35464   8.262  18.538  12.561
70205W        W35465  20.438  17.810  12.871
70206W        W35466  37.934  12.206  10.674
70207W        W35467  26.257  12.306  14.072
70208W        W35468  10.246  27.423  11.714
70209W        W35469  12.296  18.139  14.315
70210W        W35470   0.382  24.490  12.554
70211W        W35471  24.246  23.622   3.281
70212W        W35472  35.466  38.568   4.225
70213W        W35473  24.595  44.046  13.576
70214W        W35474   4.744  23.575   4.993
70215W        W35475  43.064  35.959   0.743
70216W        W35476  13.134   8.391   2.428
70217W        W35477   1.226  13.266   2.804
70218W        W35478  37.465  32.741  10.755
70219W        W35479  28.464   8.638   1.211
70220W        W35480  18.623   7.228  14.563
70221W        W35481  38.955  12.671   0.149
70222W        W35482  42.395  23.799   2.893
70223W        W35483  24.506  40.952  12.547
70224W        W35484   6.935   0.887   4.519
70225W        W35485  34.413  19.691   1.219
70226W        W35486  29.433  15.706   1.322
70227W        W35487  37.655  30.167  12.867
70228W        W35488  20.030  35.615   9.758
70229W        W35489  28.905  21.197   3.692
70230W        W35490  14.691  12.282  12.524
70231W        W35491  32.496  27.178  12.593
70232W        W35492   6.555  33.345   0.308
70233W        W35493  26.018  36.548  12.505
70234W        W35494  21.250  28.214   2.320
70235W        W35495  27.578  19.449   5.027
70236W        W35496  43.875  40.266  12.421
70237W        W35497  33.054  30.237   2.691
70238W        W35498   3.835  13.745  14.841
70239W        W35499  18.038   7.252   3.143
70240W        W35500  21.577   5.953   3.091
70241W        W35501  39.416  27.992   3.669
70242W        W35502   7.461  30.622  11.149
70243W        W35503   2.753  17.143  12.116
70244W        W35504  39.485   5.147  14.872
70245W        W35505  23.233  35.877  11.655
70246W        W35506   9.731   8.977  13.885
70247W        W35507  41.357  12.496  12.922
70248W        W35508  33.650  10.874  13.286
70249W        W35509  20.422   6.635  12.007
70250W        W35510  30.485  34.873   3.288
70251W        W35511  29.953  39.657  11.175
70252W        W35512   1.893  30.460   2.053
70253W        W35513  39.829  37.727  14.086
70254W        W35514  15.477  33.480   3.261
70255W        W35515  39.515  14.145   1.242
70256W        W35516   8.875  30.611   4.159
70257W        W35517  29.147  13.662  13.823
70258W        W35518  36.955  29.143   3.243
70259W        W35519  38.074  43.445   0.812
70260W        W35520  12.560   3.947  12.016
70261W        W35521  10.244  11.604   1.110
70262W        W35522  43.401   9.230   4.651
70263W        W35523   0.757  17.731  14.004
70264W        W35524  19.270  22.114   2.182
70265W        W35525  21.167   2.498   2.282
70266W        W35526  39.992  43.777  13.547
70267W        W35527  21.884  33.099   3.642
70268W        W35528  34.650   9.891  13.032
70269W        W35529  36.065   6.407   3.388
70270W        W35530  25.741  11.756   0.704
70271W        W35531  41.391  35.245   2.656
70272W        W35532   0.831  12.118   0.975
70273W        W35533   7.598  23.090  12.929
70274W        W35534  31.030  29.513   0.802
70275W        W35535  23.801  35.005   3.116
70276W        W35536   0.517   9.866   1.179
70277W        W35537  18.151  20.548  13.972
70278W        W35538   2.816  13.342   2.771
70279W        W35539  17.729  34.831   2.377
70280W        W35540   1.455  39.893  14.587
70281W        W35541  40.207   3.603   2.739
70282W        W35542  26.231  38.772   1.913
70283W        W35543  17.508  27.089   0.681
70284W        W35544  41.514  35.201   3.177
70285W        W35545  21.749  33.351   0.713
70286W        W35546  28.562  22.994   3.111
70287W        W35547  40.354   3.895   1.418
70288W        W35548  10.447  20.598   3.169
70289W        W35549  14.312  28.334  10.744
70290W        W35550  21.653  31.544   3.606
70291W        W35551  34.135  11.489  12.742
70292W        W35552  21.217   0.546  13.267
70293W        W35553  37.273  34.062   0.328
70294W        W35554  28.517  12.361  14.627
70295W        W35555  27.058  12.040  13.464
70296W        W35556  32.042   9.638  13.861
70297W        W35557  21.062  37.962   1.349
70298W        W35558  29.195  31.021   4.034
70299W        W35559  22.603   2.935   4.860
70300W        W35560  24.664  42.476   3.956
70301W        W35561  16.696  21.587   2.713
70302W        W35562  38.189   5.410  10.666
70303W        W35563  32.730  40.036  12.139
70304W        W35564  11.800  37.433  10.744
70305W        W35565  34.337  38.531  11.917
70306W        W35566   0.639   6.888  14.986
70307W        W35567  41.304  19.043   4.218
70308W        W35568  10.010  29.795   3.518
70309W        W35569   0.445  14.011   0.461
70310W        W35570  17.853  12.790  12.107
70311W        W35571  14.362   8.223   2.341
70312W        W35572  39.490  36.031   0.197
70313W        W35573  38.559  37.625  13.511
70314W        W35574  31.712  28.592   3.139
70315W        W35575  20.578  17.688   0.870
70316W        W35576  34.846  17.324   3.096
70317W        W35577   6.211  44.073  13.778
70318W        W35578  25.412  24.104   2.024
70319W        W35579  31.049  29.572  12.856
70320W        W35580  23.010  19.682  12.284
70321W        W35581  13.230  29.340  10.103
70322W        W35582  43.004  23.718   0.189
70323W        W35583  35.068  36.457  13.350
70324W        W35584  34.545   8.630  12.267
70325W        W35585  22.627  24.050  10.709
70326W        W35586  27.087  13.652   4.138
70327W        W35587   7.834  34.810   0.257
70328W        W35588  31.042  18.449   4.125
70329W        W35589   8.963  18.681  12.073
70330W        W35590  38.318  22.605  13.424
70331W        W35591   7.442  42.758   1.222
70332W        W35592  30.170   7.211   1.653
70333W        W35593  44.045  42.799   4.202
70334W        W35594  34.109  44.832   4.107
70335W        W35595  35.156  33.398   3.729
70336W        W35596  41.015  25.212  14.128
70337W        W35597   9.858  28.443   3.577
70338W        W35598   1.144  34.976  12.490
70339W        W35599  15.715  24.558  10.439
70340W        W35600   0.077  41.579   0.168
70341W        W35601  30.473  23.758  14.778
70342W        W35602  22.298  33.421   1.183
70343W        W35603   7.214  26.614  13.332
70344W        W35604  23.982  27.712  13.984
70345W        W35605  14.158  41.364  13.466
70346W        W35606  22.996  15.316  14.022
70347W        W35607  32.411  43.759   1.911
70348W        W35608  40.741   2.406   9.753
70349W        W35609  43.231  26.115  12.975
70350W        W35610  35.658  12.546  11.615
70351W        W35611  14.775   1.763   3.366
70352W        W35612  43.209  30.401  12.351
70353W        W35613  28.991  30.615   1.604
70354W        W35614   4.911  23.149  10.297
70355W        W35615  44.428  10.154  12.048
70356W        W35616  32.610   8.811   5.037
70357W        W35617  13.804   9.346   2.401
70358W        W35618  23.606  36.609   4.262
70359W        W35619  22.469   8.910   5.137
70360W        W35620  27.105  17.366   2.314
70361W        W35621  22.040   9.342  12.328
70362W        W35622  43.055   9.689   0.755
70363W        W35623  25.697  20.739  10.324
70364W        W35624  14.372  26.052   4.345
70365W        W35625  32.644  38.544   0.418
70366W        W35626  44.947  40.713   2.615
70367W        W35627  40.053   1.805   2.850
70368W        W35628  23.479  25.195  12.054
70369W        W35629  10.297  36.574   4.650
70370W        W35630  27.702  34.064  13.531
70371W        W35631  14.769  19.864   5.413
70372W        W35632   5.250   0.225   4.624
70373W        W35633  17.713  42.958  14.050
70374W        W35634   8.837   3.477   2.930
70375W        W35635  15.105  23.518  11.984
70376W        W35636  13.659  10.835  12.354
70377W        W35637  40.535  16.064   0.805
70378W        W35638  39.964  37.053  13.572
70379W        W35639  13.996   8.168  10.849
70380W        W35640  43.876  37.299   4.122
70381W        W35641   3.683  12.684  12.960
70382W        W35642  11.927  35.761  12.437
70383W        W35643  26.666   2.289  13.453
70384W        W35644  32.478  42.982   2.660
70385W        W35645  28.728   5.516  12.513
70386W        W35646  37.771  38.835  12.562
70387W        W35647   3.684  39.019   0.661
70388W        W35648  29.510  17.768   4.702
70389W        W35649  41.454  22.046  12.484
70390W        W35650  12.598  38.813   3.672
70391W        W35651  44.716  25.056  14.843
70392W        W35652  35.137  40.879   2.707
70393W        W35653  37.053  42.774  11.229
70394W        W35654   5.743  27.949   4.020
70395W        W35655  11.604  33.247   2.163
70396W        W35656  27.680  21.302   4.937
70397W        W35657   4.252  23.439   5.114
70398W        W35658   3.716   1.383   1.732
70399W        W35659  14.724  29.413   0.770
70400W        W35660  25.479  22.253  14.912
70401W        W35661   1.232  27.661  13.468
70402W        W35662  44.408  43.899  10.328
70403W        W35663  13.292  43.328   4.348
70404W        W35664  25.775   4.648   2.168
70405W        W35665  33.579  36.421  11.435
70406W        W35666  43.300   7.355  11.499
70407W        W35667  40.386   5.694   3.411
70408W        W35668  36.427  17.895   4.587
70409W        W35669  16.646  42.483  14.796
70410W        W35670   5.805  30.802  13.553
70411W        W35671  14.244  29.916  12.951
70412W        W35672  12.471  34.489   3.480
70413W        W35673  28.610  21.229   3.260
70414W        W35674   5.785  44.572  10.669
70415W        W35675   2.983  17.383   1.380
70416W        W35676  25.880   8.928   4.255
70417W        W35677  20.870  16.193  12.504
70418W        W35678   9.169  14.289   2.750
70419W        W35679   4.494  42.794   0.518
70420W        W35680  21.140  28.885  14.342
70421W        W35681   2.289  12.063   3.620
70422W        W35682  18.126  34.527   1.702
70423W        W35683  36.104  34.430   3.218
70424W        W35684  42.314  44.850  12.602
70425W        W35685  42.774  35.025   3.052
70426W        W35686  13.631  19.977   1.359
70427W        W35687  33.150  44.632  10.343
70428W        W35688  31.219   2.203   0.984
70429W        W35689  19.280  29.451   1.261
70430W        W35690  11.780  38.513  13.366
70431W        W35691  32.395   5.263  12.904
70432W        W35692  40.411  23.216   0.767
70433W        W35693  24.112  38.453   0.746
70434W        W35694  18.643  41.786  14.917
70435W        W35695  36.412  25.964   1.905
70436W        W35696  14.801  35.345  11.091
70437W        W35697  33.124  35.866   2.789
70438W        W35698  25.845  27.513  12.401
70439W        W35699  21.522  26.904  13.740
70440W        W35700  28.518  10.344  13.821
70441W        W35701  29.113  25.116   2.907
70442W        W35702  23.568  40.949   2.517
70443W        W35703  17.728  26.265   4.666
70444W        W35704  27.450  12.348  13.389
70445W        W35705  10.715   5.209  11.620
70446W        W35706  33.811  14.681   2.668
70447W        W35707  12.121  19.619  13.035
70448W        W35708   4.226  31.063  10.779
70449ION    NA+35709  32.426  12.725  11.594
70450ION    NA+35710  18.530  28.960  13.960
70451ION    NA+35711  25.079  38.505   0.766
70452ION    NA+35712   9.773  11.325   0.174
70453ION    NA+35713  21.396   1.729   4.210
70454ION    NA+35714  27.655  28.564   0.428
70455ION    NA+35715   3.925  29.031   3.289
70456ION    NA+35716  44.180   1.493   3.789
70457ION    NA+35717  39.883   3.390  11.093
70458ION    NA+35718  35.620  14.546   4.116
70459ION    NA+35719  13.293  17.670  12.084
70460ION    NA+35720  38.176   7.534  12.352
70461ION    NA+35721  19.644   5.847   4.032
70462ION    NA+35722  10.286  12.143  10.269
70463ION    NA+35723  43.079   7.188   0.611
70464ION    NA+35724  22.034  30.354   2.357
70465ION    NA+35725  33.243  24.164  10.302
70466ION    NA+35726  25.349  43.589   0.208
70467ION    NA+35727  40.069  22.822   4.399
70468ION    NA+35728   2.651   1.401   1.566
70469ION    NA+35729  42.964  43.842  10.788
70470ION    NA+35730  11.325  38.255   3.246
70471ION    NA+35731   4.865   8.167   4.188
70472ION    NA+35732   5.660  36.294  13.734
70473ION    NA+35733  29.550  17.026   1.714
70474ION    NA+35734  27.643  20.581   3.722
70475ION    NA+35735  34.870  30.366  11.269
70476ION    NA+35736   7.644  39.292   0.072
70477ION    NA+35737  14.392   4.436   2.912
70478ION    NA+35738  16.203  23.063   2.325
70479ION    NA+35739   0.246  22.615  10.599
70480ION    NA+35740  12.599  41.231  11.194
70481ION    NA+35741  11.577   9.590   3.712
70482ION    NA+35742  40.062  34.352   2.383
70483ION    NA+35743  22.156  30.844  11.179
70484ION    NA+35744  15.557   6.380   2.240
70485ION    NA+35745   6.317  14.471   1.389
70486ION    NA+35746   3.475   1.011   0.771
70487ION    NA+35747  27.366  14.990  12.763
70488ION    NA+35748  31.591   0.294  13.815
70489ION    NA+35749  40.828  43.817  10.603
70490ION    NA+35750  27.942  11.946  11.551
70491ION    NA+35751  17.720  43.918  10.923
70492ION    NA+35752  33.930  19.267  14.304
70493ION    NA+35753  12.254  14.339   0.749
70494ION    NA+35754  14.733   2.895  14.770
70495ION    NA+35755  19.714  29.723  13.993
70496ION    NA+35756   0.452  17.152   2.397
70497ION    NA+35757  42.636  15.075  12.396
70498ION    NA+35758  13.675  41.860  13.846
70499ION    NA+35759  39.981   0.278   1.454
70500ION    NA+35760  19.356  43.341   3.944
70501ION    NA+35761  21.412   1.299  11.668
70502ION    NA+35762  36.620   9.601  12.129
70503ION    NA+35763  21.994  16.491   4.201
70504ION    NA+35764  32.938  11.246  14.882
70505ION    NA+35765   1.257  22.558  14.274
70506ION    NA+35766  27.725  13.807  10.732
70507ION    NA+35767  10.144   1.719   1.456
70508ION    NA+35768  17.349  25.681   3.780
70509ION    NA+35769   8.236  30.110  11.559
70510ION    NA+35770   5.729  40.102  12.330
70511ION    NA+35771  16.360  21.622  10.722
70512ION    NA+35772   2.264  19.653   2.309
70513ION    NA+35773  13.152  16.356   4.736
70514ION    NA+35774  42.938  25.063  13.763
70515ION    NA+35775  38.541   5.848  12.031
70516ION    NA+35776  22.136   3.720  13.054
70517ION    NA+35777  21.242  30.048  11.733
70518ION    NA+35778  31.626  23.984  11.095
70519ION    NA+35779  43.471  40.026   3.184
70520ION    NA+35780  43.409  22.724   2.867
70521ION    NA+35781  31.605  32.480  11.387
70522ION    NA+35782  30.118  43.683  12.640
70523ION    NA+35783  26.730  31.423  13.439
70524ION    NA+35784   3.226  18.704  12.555
70525ION    NA+35785  22.356   2.318  13.065
70526ION    NA+35786  25.274  38.886  12.639
70527ION    NA+35787  26.155  10.895   2.185
70528ION    NA+35788   7.403  16.965  12.757
70529ION    NA+35789  38.939   1.129   2.320
70530ION    NA+35790   5.620  25.533   3.134
70531ION    NA+35791  30.298  18.080   1.994
70532ION    NA+35792  14.587  21.284  12.426
70533ION    NA+35793   3.257  39.111  12.476
70534ION    NA+35794  24.202  37.271  12.865
70535ION    NA+35795   7.858  19.811  10.270
70536ION    NA+35796  11.731  17.093   0.786
70537ION    NA+35797   5.743  34.626   0.284
70538ION    NA+35798  10.625  24.561  13.293
70539ION    NA+35799  41.359   8.364   5.054
70540ION    NA+35800  20.758  20.388   5.766
70541ION    NA+35801  33.386  29.117   2.462
70542ION    NA+35802  39.623  19.089  14.853
70543ION    NA+35803   2.668  15.821  10.669
70544ION    NA+35804   5.214   0.764  12.887
70545ION    NA+35805  28.252  41.276  14.546
70546ION    NA+35806  22.726   0.075   4.657
70547ION    NA+35807  16.505  32.315   3.805
70548ION    NA+35808  35.085   6.774   0.285
70549ION    NA+35809  34.434  43.247   1.489
70550ION    NA+35810  14.910  41.648   4.254
70551ION    NA+35811  32.952  28.990   0.384
70552ION    NA+35812  20.163  40.068  11.948
70553ION    NA+35813  39.332  30.794   1.239
70554ION    NA+35814   4.478  32.888  12.530
70555ION    NA+35815   6.241  10.967  14.983
70556ION    NA+35816  38.606   6.048   4.435
70557ION    NA+35817  21.926   6.463   3.020
70558ION    NA+35818  33.191  32.216   1.608
70559ION    NA+35819  36.043   4.049  12.719
70560ION    NA+35820   8.383   4.924  14.981
70561ION    NA+35821   0.086  18.528   1.622
70562ION    NA+35822  43.375  33.329  14.370
70563ION    NA+35823  17.817  35.198  12.107
70564ION    NA+35824  25.223   4.228  14.870
70565ION    NA+35825  42.919  31.282  13.959
70566ION    NA+35826  31.881  10.782  12.781
70567ION    NA+35827  29.919  32.850  10.808
70568ION    NA+35828  12.544   3.506   0.394
70569ION    NA+35829   7.813  34.058  10.975
70570ION    NA+35830  32.166  21.919  12.596
70571ION    NA+35831   0.313  43.497  13.025
70572ION    NA+35832  15.025  33.701   3.078
70573ION    NA+35833  23.816  29.684   2.990
70574ION    NA+35834   4.564   5.959   4.854
70575ION    NA+35835  28.157  39.507   5.309
70576ION    NA+35836  28.427  26.190   1.267
70577ION    NA+35837  35.030   5.290  13.623
70578ION    NA+35838  28.231   5.533  13.415
70579ION    NA+35839  25.514   0.335  10.562
70580ION    NA+35840  35.633  23.919  12.162
70581ION    NA+35841  18.023  40.867   4.613
70582ION    NA+35842  30.756  41.897   0.043
70583ION    NA+35843  13.389   7.239   2.539
70584ION    NA+35844  10.745  10.818   2.858
70585ION    NA+35845  39.213  30.128  13.009
70586ION    NA+35846  37.483  16.807   2.797
70587ION    NA+35847   2.323  44.201  13.250
70588ION    NA+35848  40.233  41.305   1.153
70589ION    NA+35849  28.843  37.139  13.116
70590ION    NA+35850  36.444  43.259   0.425
70591ION    NA+35851  18.659   3.424  14.058
70592ION    NA+35852  10.051  34.511   9.728
70593ION    NA+35853  38.801  21.512  13.425
70594ION    NA+35854  39.131  25.210  14.928
70595ION    NA+35855  23.235  31.393   2.599
70596ION    NA+35856  43.454  14.330  14.746
70597ION    NA+35857  16.819   6.504   3.441
70598ION    NA+35858   1.127   9.717  13.944
70599ION    NA+35859  19.479   2.673   4.518
70600ION    NA+35860  37.114  11.038  10.725
70601ION    NA+35861  26.882   6.410  10.738
70602ION    NA+35862  14.346  11.831   3.759
70603ION    NA+35863  27.665  25.670   0.266
70604ION    NA+35864  35.891  10.788  11.922
70605ION    NA+35865  17.617  36.388  12.811
70606ION    NA+35866  37.413   3.488   2.355
70607ION    NA+35867  15.583   3.669   4.613
70608ION    NA+35868  13.716  16.790  13.449
70609ION    NA+35869  22.089  24.930   3.069
70610ION    NA+35870  23.940  25.354   5.113
70611ION    NA+35871  19.809  13.499  13.888
70612ION    NA+35872  22.432  37.679  11.808
70613ION    NA+35873  24.795   8.603   0.379
70614ION    NA+35874  38.666  17.405   3.396
70615ION    NA+35875  33.976  31.200  14.787
70616ION    NA+35876  44.428  24.868   4.174
70617ION    NA+35877  43.700  41.467   3.981
70618ION    NA+35878   0.842  38.603   3.209
70619ION    NA+35879  10.633  23.294   3.289
70620ION    NA+35880  19.910  14.081   5.331
70621ION    NA+35881  31.599   3.372  13.078
70622ION    NA+35882  26.930  29.033  13.461
70623ION    NA+35883  20.517  37.950   0.199
70624ION    NA+35884  39.042  20.641   2.051
70625ION    NA+35885   9.907  21.707   1.740
70626ION    NA+35886   9.133  42.407   2.972
70627ION    NA+35887  25.457  38.193  14.402
70628ION    NA+35888  43.318  23.211  13.895
70629ION    NA+35889  25.235   9.696  13.399
70630ION    NA+35890   2.767   4.475   2.726
70631ION    NA+35891  12.607  13.079  11.512
70632ION    NA+35892  15.703  33.840   1.272
70633ION    NA+35893  10.035  32.926  14.922
70634ION    NA+35894  28.865  32.153   0.423
70635ION    NA+35895  10.264  14.763   2.432
70636ION    NA+35896  31.060  21.247   2.403
70637ION    NA+35897  28.878  26.197  12.075
70638ION    NA+35898  16.647  33.807  11.471
70639ION    NA+35899  44.503  15.844  10.893
70640ION    NA+35900   5.596  12.740   2.012
70641ION    NA+35901   7.906  43.162   5.390
70642ION    NA+35902  40.550   0.937   1.369
70643ION    NA+35903  27.291   0.511   0.049
70644ION    NA+35904  29.197  20.480  11.793
70645ION    NA+35905  22.942   0.354  13.367
70646ION    NA+35906  37.448   9.062   3.676
70647ION    NA+35907  14.028   5.241  10.640
70648ION    NA+35908  17.416  12.733   1.767
70649ION    NA+35909  26.686  14.789  13.532
70650ION    NA+35910  32.416  25.612   1.626
70651ION    NA+35911  18.822  24.067  12.296
70652ION    NA+35912   0.230  10.476  10.479
70653ION    NA+35913  29.117  34.388  14.035
70654ION    NA+35914  11.123  16.318   3.634
70655ION    NA+35915   9.214   0.684  10.689
70656ION    NA+35916  25.018  41.764   1.965
70657ION    NA+35917  29.193  41.245   5.051
70658ION    NA+35918  28.582  27.147  13.608
70659ION    NA+35919   7.976  40.806  12.608
70660ION    NA+35920  11.706  29.474   4.006
70661ION    NA+35921  23.161  42.023   0.764
70662ION    NA+35922   3.998   5.745  12.680
70663ION    NA+35923  32.259  37.187   3.631
70664ION    NA+35924  13.349  19.079   0.270
70665ION    NA+35925  40.231  28.450   1.013
70666ION    NA+35926   9.878  21.847   4.404
70667ION    NA+35927  16.844  20.599  13.076
70668ION    NA+35928  22.070  16.357  14.576
70669ION    NA+35929  33.565  40.794   1.818
70670ION    NA+35930  22.242   9.265   0.572
70671ION    NA+35931  27.594  37.133   1.941
70672ION    NA+35932   8.169  40.691  10.995
70673ION    NA+35933   1.504   0.318   4.733
70674ION    NA+35934   7.001   5.950   2.722
70675ION    NA+35935   8.772  20.981   4.608
70676ION    NA+35936  30.511  41.581   1.887
70677ION    NA+35937  19.809  16.610   2.327
70678ION    NA+35938  32.439  25.378  14.992
70679ION    NA+35939  33.436   9.883  14.911
70680ION    NA+35940   5.418  26.531  12.356
70681ION    NA+35941  42.026  35.766   2.015
70682ION    NA+35942  26.919   9.036  11.663
70683ION    NA+35943   7.087  36.356  13.987
70684ION    NA+35944  11.201  32.560  11.840
70685ION    NA+35945  20.546  22.457   3.194
70686ION    NA+35946  10.215   3.599  11.613
70687ION    NA+35947   9.421  42.294   2.021
70688ION    NA+35948   5.211  34.380   2.710
70689ION    NA+35949  15.796  33.554  14.400
70690ION    NA+35950  31.362  37.525   0.951
70691ION    NA+35951  28.103  25.646  14.367
70692ION    NA+35952  32.631  11.169  12.642
70693ION    NA+35953  33.496  36.043   1.953
70694ION    NA+35954  22.095   3.857   1.670
70695ION    NA+35955  40.862   4.253   2.218
70696ION    NA+35956  36.397  11.945   2.572
70697ION    NA+35957  32.390  35.522  11.401
70698ION    NA+35958  42.098  39.748   2.979
70699ION    NA+35959  39.381   0.270   2.810
70700ION    NA+35960  30.668  32.678   0.912
70701ION    NA+35961  31.050  12.788  14.989
70702ION    NA+35962  21.898   3.767   4.805
70703ION    NA+35963  42.561  43.109  12.319
70704ION    NA+35964  27.710  33.039  11.510
70705ION    NA+35965  34.514  15.170  13.361
70706ION    NA+35966  41.214   6.436  13.050
70707ION    NA+35967   7.789  43.341   4.098
70708ION    NA+35968  18.762  27.983  10.685
70709ION    NA+35969  21.713  23.406  14.779
70710ION    NA+35970   7.401  18.868   2.754
70711ION    NA+35971  42.163   6.390  13.361
70712ION    NA+35972  29.800  16.915   2.558
70713ION    NA+35973  40.607  28.631  10.755
70714ION    NA+35974  42.476  10.567  13.156
70715ION    NA+35975  17.335   9.110  12.095
70716ION    NA+35976  17.890  20.847  10.478
70717ION    NA+35977  32.435  11.205   4.410
70718ION    NA+35978  29.691   5.186  13.707
70719ION    NA+35979  42.459   2.668   1.770
70720ION    NA+35980  13.658  12.475  13.414
70721ION    NA+35981  33.402   7.987   0.272
70722ION    NA+35982  39.139  32.825   2.851
70723ION    NA+35983  23.468   5.689  14.916
70724ION    NA+35984   4.855   1.447  11.901
70725ION    NA+35985  22.679  30.467  10.064
70726ION    NA+35986  39.573  11.714   3.186
70727ION    NA+35987  41.919   1.911   3.725
70728ION    NA+35988  32.682  18.708   3.383
70729ION    NA+35989  32.566  42.927  11.637
70730ION    NA+35990  17.771  27.541  14.285
70731ION    NA+35991  26.863  18.722   0.777
70732ION    NA+35992  22.801  16.677  13.910
70733ION    NA+35993  23.399   3.443   5.294
70734ION    NA+35994   6.379  38.099  10.081
70735ION    NA+35995  43.452  19.735  12.035
70736ION    NA+35996   7.590  34.992  14.845
70737ION    NA+35997  23.965  13.729   0.883
70738ION    NA+35998  27.760  15.989   3.119
70739ION    NA+35999  32.651  19.368   0.097
70740ION    NA+36000   9.828  35.101   4.553
70741ION    NA+36001  36.834  11.123  12.416
70742ION    NA+36002   7.394  13.938  12.225
70743ION    NA+36003  31.588  35.384  14.341
70744ION    NA+36004  36.274  38.683  13.675
70745ION    NA+36005  17.078  24.544   0.536
70746ION    NA+36006  11.617  31.086   0.568
70747ION    NA+36007  18.965   2.056   3.862
70748ION    NA+36008  29.732  25.833   4.961
70749ION    NA+36009  25.589  27.161  14.928
70750ION    NA+36010  26.955  20.812   3.034
70751ION    NA+36011  34.442  33.794   2.086
70752ION    NA+36012  33.596  30.114  14.439
70753ION    NA+36013  32.989  10.848   1.167
70754ION    NA+36014  23.485  15.890   1.870
70755ION    NA+36015  22.390   3.235   4.116
70756ION    NA+36016  29.703  11.979  11.114
70757ION    NA+36017  14.417   8.444  11.992
70758ION    NA+36018  27.498   0.191  10.532
70759ION    NA+36019  32.817  40.931  12.318
70760ION    NA+36020  24.869  21.776  10.883
70761ION    NA+36021  14.222  42.684  11.231
70762ION    NA+36022  14.553   0.578  13.728
70763ION    NA+36023   1.283  11.086  13.867
70764ION    NA+36024  44.354  43.990   0.806
70765ION    NA+36025  17.164  42.871   1.435
70766ION    NA+36026   6.262  24.082  12.450
70767ION    NA+36027  27.967  21.725  13.759
70768ION    NA+36028   5.864  20.590  10.994
70769ION    NA+36029  20.478  42.287  11.800
70770ION    NA+36030  26.440  34.912  12.611
70771ION    NA+36031  17.519  40.238  10.777
70772ION    NA+36032  42.286  18.424   2.722
70773ION    NA+36033   2.695   4.774   0.283
70774ION    NA+36034   4.126  21.550   4.648
70775ION    NA+36035  24.537  26.690  10.862
70776ION    NA+36036  30.668  16.258  11.189
70777ION    NA+36037  31.989   6.002  10.684
70778ION    NA+36038  34.582   1.718   3.080
70779ION    NA+36039  36.569  32.015   2.293
70780ION    NA+36040   7.776  23.523  13.586
70781ION    NA+36041  19.336  32.412  13.599
70782ION    NA+36042   3.704  20.798   4.323
70783ION    NA+36043  17.687   3.013   2.063
70784ION    NA+36044  43.302  28.326  14.094
70785ION    NA+36045  37.475  23.286   2.407
70786ION    NA+36046  22.481  15.306  14.154
70787ION    NA+36047   8.582  15.006   1.850
70788ION    NA+36048  39.664  21.391  13.241
70789ION    NA+36049  39.896  13.966   2.714
70790ION    NA+36050  22.197   1.830   3.620
70791ION    NA+36051  10.808  44.896   0.703
70792ION    NA+36052  19.713  13.082  14.735
70793ION    NA+36053  31.039  40.058   1.239
70794ION    NA+36054  13.316  27.682   5.444
70795ION    NA+36055  34.562  14.299   0.610
70796ION    NA+36056  17.572  23.815   1.882
70797ION    NA+36057  23.960  18.657  13.022
70798ION    NA+36058  11.149  24.138  10.808
70799ION    NA+36059  17.951  10.275   2.965
70800ION    NA+36060  25.714  21.213   0.820
70801ION    NA+36061  39.163   8.776  12.697
70802ION    NA+36062  24.323  14.166  14.178
70803ION    NA+36063  44.498  13.315   3.964
70804ION    NA+36064  26.419  16.738   1.348
70805ION    NA+36065   6.612  36.430   2.914
70806ION    NA+36066  16.736  33.354   2.202
70807ION    NA+36067  12.798  44.883   2.419
70808ION    NA+36068  39.108  39.396   0.796
70809ION    NA+36069  44.507  29.833  12.006
70810ION    NA+36070  10.100  18.981  14.038
70811ION    NA+36071   7.019  13.627  11.160
70812ION    NA+36072  34.549  18.733  12.619
70813ION    NA+36073   0.693  33.160  14.861
70814ION    NA+36074   1.278  37.993  10.371
70815ION    NA+36075  20.341   3.755   0.189
70816ION    NA+36076  11.243  13.062  13.972
70817ION    NA+36077  23.617  11.054   4.103
70818ION    NA+36078  19.329   6.954  10.503
70819ION    NA+36079  24.492  38.542  12.112
70820ION    NA+36080  29.257  29.870   1.919
70821ION    NA+36081  32.493  21.679  11.491
70822ION    NA+36082  30.086  40.863   2.446
70823ION    NA+36083  16.577   9.743  11.687
70824ION    NA+36084  29.944  31.989   0.937
70825ION    NA+36085  39.601  13.666  11.000
70826ION    NA+36086  13.527  25.656  13.317
70827ION    NA+36087  36.245  32.405   1.386
70828ION    NA+36088  26.397   5.212  13.836
70829ION    NA+36089  19.843  20.994   2.547
70830ION    NA+36090  28.654   9.728  10.806
70831ION    NA+36091  35.447  38.246   4.954
70832ION    NA+36092  30.644   4.760   2.221
70833ION    NA+36093   5.432  20.270   4.196
70834ION    NA+36094  22.104  31.720   3.828
70835ION    NA+36095  35.426  12.650  11.165
70836ION    NA+36096  28.666   4.433  10.108
70837ION    NA+36097  31.591  34.160  12.362
70838ION    NA+36098  11.881  33.534  11.896
70839ION    NA+36099  38.044  23.747   0.498
70840ION    NA+36100  30.016   1.315  13.887
70841ION    NA+36101  37.086   2.449  11.803
70842ION    NA+36102   5.357  23.046   0.332
70843ION    NA+36103   2.761  26.468  11.872
70844ION    NA+36104   1.026   2.891   4.813
70845ION    NA+36105  12.067  29.857  13.502
70846ION    NA+36106  18.610   4.637   3.334
70847ION    NA+36107  42.965  29.626  12.892
70848ION    NA+36108  44.868   5.918  11.033
70849ION    NA+36109   7.554  42.551   3.901
70850ION    NA+36110  23.616  23.936  14.649
70851ION    NA+36111  12.537   8.410  11.923
70852ION    NA+36112  44.927  28.872   0.286
70853ION    NA+36113   5.835  36.112   0.047
70854ION    NA+36114   0.729  42.800  14.467
70855ION    NA+36115   4.995  30.952  13.885
70856ION    NA+36116  44.957  17.597  13.341
70857ION    NA+36117  16.408  39.038   0.165
70858ION    NA+36118  19.758   5.854   2.224
70859ION    NA+36119   1.444  17.274   2.397
70860ION    NA+36120  31.165  42.691  13.512
70861ION    NA+36121  26.155   3.822   1.585
70862ION    NA+36122  41.339  11.813   0.388
70863ION    NA+36123  22.601  30.625   5.321
70864ION    NA+36124  16.446  16.340   4.484
70865ION    NA+36125   5.331   4.437   2.623
70866ION    NA+36126  38.427  20.505   1.225
70867ION    NA+36127   6.405   9.136  14.496
70868ION    NA+36128  24.884  20.865  12.083
70869ION    NA+36129   3.703   9.390   2.321
70870ION    NA+36130  42.219  30.525  13.836
70871ION    NA+36131  20.166  10.131   3.745
70872ION    NA+36132  40.337  23.635   4.176
70873ION    NA+36133  14.105  41.783  12.187
70874ION    NA+36134  22.483   8.633  12.025
70875ION    NA+36135  24.658   3.605  12.101
70876ION    NA+36136  16.870  13.600   1.234
70877ION    NA+36137  12.160   1.221   3.692
70878ION    NA+36138  25.091   6.457   4.198
70879ION    NA+36139  30.160  38.685   1.714
70880ION    NA+36140  33.148  40.158   4.709
70881ION    NA+36141  27.310  41.107   1.308
70882ION    NA+36142  12.577  22.217  13.261
70883ION    NA+36143  31.164  41.344   3.100
70884ION    NA+36144   6.692  43.502  14.304
70885ION    NA+36145  33.078   4.632  10.691
70886ION    NA+36146  15.049  44.875   1.720
70887ION    NA+36147  12.603  24.679   2.657
70888ION    NA+36148  13.155  19.850   3.695
70889ION    NA+36149  33.713   5.583   2.173
70890ION    NA+36150   6.503  14.314  11.704
70891ION    NA+36151  32.865  14.816   2.853
70892ION    NA+36152  14.508  44.917  10.415
70893ION    NA+36153   2.917  28.500   1.024
70894ION    NA+36154  25.431  26.749  11.883
70895ION    NA+36155  15.832  31.474   0.331
70896ION    NA+36156   0.322   5.003   0.632
70897ION    NA+36157  17.944  38.232  13.310
70898ION    NA+36158   8.698  23.139   1.864
70899ION    NA+36159  34.967  35.961  13.820
70900ION    NA+36160  12.193   5.426   0.399
70901ION    NA+36161  31.568   9.874  13.880
70902ION    NA+36162   5.778  19.625   0.981
70903ION    NA+36163  40.424  13.719  12.101
70904ION    NA+36164  22.244  25.799   4.328
70905ION    NA+36165  37.967  30.553  13.030
70906ION    NA+36166  35.806   8.280   2.113
70907ION    NA+36167   1.002  19.408  10.989
70908ION    NA+36168  25.028  44.073  13.053
70909ION    NA+36169  19.946  13.550   0.407
70910ION    NA+36170  18.029  15.977  14.752
70911ION    NA+36171  37.342   1.978  13.085
70912ION    NA+36172   6.530  25.931  10.864
70913ION    NA+36173  41.349   2.001   4.720
70914ION    NA+36174   0.078  42.747   0.946
70915ION    NA+36175  42.855  15.358  10.705
70916ION    NA+36176  37.501  32.119  11.468
70917ION    NA+36177  16.877   3.265   1.340
70918ION    NA+36178  12.328  10.099  12.099
70919ION    NA+36179   1.971  13.025  14.820
70920ION    NA+36180  16.659  27.933   3.778
70921ION    NA+36181  28.962   1.519  13.057
70922ION    NA+36182  44.358  23.297  10.986
70923ION    NA+36183  40.731  13.345   4.131
70924ION    NA+36184  41.966  43.544   3.594
70925ION    NA+36185  26.175  37.376   1.738
70926ION    NA+36186  43.924   2.903   3.772
70927ION    NA+36187  34.640  15.094   1.881
70928ION    NA+36188   3.850   8.752   3.080
70929ION    NA+36189  29.724  37.609  12.986
70930ION    NA+36190  27.624  27.505  11.197
70931ION    NA+36191  18.698  37.758   2.084
70932ION    NA+36192  27.860   8.690   3.466
70933ION    NA+36193  22.954  40.023  14.153
70934ION    NA+36194  31.237  10.055   4.950
70935ION    NA+36195   0.969  28.059   3.075
70936ION    NA+36196  36.876  31.842   4.659
70937ION    NA+36197   6.347  24.245  14.881
70938ION    NA+36198   3.045   2.741   1.188
70939ION    NA+36199  13.608  38.880   2.101
70940ION    NA+36200  17.619  37.419   1.030
70941ION    NA+36201  31.203   3.351   3.422
70942ION    NA+36202  13.270   6.181   1.747
70943ION    NA+36203  29.100  24.923  13.099
70944ION    NA+36204  14.782  22.152  11.116
70945ION    NA+36205  42.118  26.203  11.124
70946ION    NA+36206  14.950   0.936  12.872
70947ION    NA+36207  24.585  12.868  10.676
70948ION    NA+36208  18.310  10.314  13.818
70949ION    NA+36209  21.168  21.193   4.114
70950ION    NA+36210  22.836  37.536  10.787
70951ION    NA+36211  40.074  39.108   1.020
70952ION    NA+36212  11.398   1.482  12.873
70953ION    NA+36213  20.857  33.832   4.507
70954ION    NA+36214   7.283  37.522  13.123
70955ION    NA+36215  39.104  24.453   3.283
70956ION    NA+36216  14.077   5.656  13.486
70957ION    NA+36217  30.430  41.330  14.407
70958ION    NA+36218  25.998  32.108  12.275
70959ION    NA+36219  36.691  23.657  14.691
70960ION    NA+36220  40.559  20.741  12.657
70961ION    NA+36221  36.311  25.043   2.673
70962ION    NA+36222   6.889  12.493   4.981
70963ION    NA+36223  26.343  23.963   1.743
70964ION    NA+36224  32.958  23.631  11.098
70965ION    NA+36225  11.279   9.856   2.334
70966ION    NA+36226  28.091  24.219   1.077
70967ION    NA+36227  31.863  11.809  10.894
70968ION    NA+36228  16.463  44.738   1.900
70969ION    NA+36229   5.076   9.867   3.301
70970ION    NA+36230  39.359  15.527  12.001
70971ION    NA+36231  40.096  44.302   4.711
70972ION    NA+36232  16.082  13.561   1.433
70973ION    NA+36233  12.731  21.811   1.060
70974ION    NA+36234  22.067  21.781   0.302
70975ION    NA+36235  41.123  36.628   2.052
70976ION    NA+36236  19.887   6.614   4.463
70977ION    NA+36237  34.402  39.811   2.761
70978ION    NA+36238  34.691   6.531   1.866
70979ION    NA+36239   0.444   7.383  11.561
70980ION    NA+36240  32.130   8.927   0.957
70981ION    NA+36241  42.931  19.746   1.321
70982ION    NA+36242  25.443  34.612   1.682
70983ION    NA+36243  19.516   4.748  10.898
70984ION    NA+36244   5.444  25.890  13.124
70985ION    NA+36245  38.716   1.874   5.198
70986ION    NA+36246  38.754  33.248   2.122
70987ION    NA+36247  18.360  20.152  11.556
70988ION    NA+36248  43.497  18.178   1.886
70989ION    NA+36249  31.783   2.219   1.058
70990ION    NA+36250  21.972  33.121   2.907
70991ION    NA+36251   9.687  32.455  11.453
70992ION    NA+36252   1.317  31.533   3.163
70993ION    NA+36253  44.263  21.571   4.616
70994ION    NA+36254  28.469  36.503  11.401
70995ION    NA+36255  16.008  33.092   2.835
70996ION    NA+36256   1.947  26.922   0.897
70997ION    NA+36257  20.267   4.244  12.803
70998ION    NA+36258  28.817  16.970  13.053
70999ION    NA+36259  42.690  18.132   3.729
71000ION    NA+36260  35.282  33.505  13.415
71001ION    NA+36261   9.624   2.417  12.928
71002ION    NA+36262  42.612  43.655  11.483
71003ION    NA+36263   7.238   3.213  14.538
71004ION    NA+36264  30.074  28.975   4.143
71005ION    NA+36265  31.343  41.602   4.583
71006ION    NA+36266  10.598  24.215   0.673
71007ION    NA+36267  17.700  30.553  12.498
71008ION    NA+36268   0.718  37.882  12.639
71009ION    NA+36269  16.119  14.486  12.430
71010ION    NA+36270  38.374  24.954   1.744
71011ION    NA+36271  36.043  25.592   1.882
71012ION    NA+36272  30.527  22.097  11.736
71013ION    NA+36273  41.810  44.528   2.290
71014ION    NA+36274  13.124  34.561  14.891
71015ION    NA+36275  12.992  44.206   3.767
71016ION    NA+36276  13.717  25.235   4.650
71017ION    NA+36277  21.726  16.864   2.490
71018ION    NA+36278  22.930  26.212   1.839
71019ION    NA+36279   7.016  28.965   0.297
71020ION    NA+36280   1.046  10.484   2.365
71021ION    NA+36281  17.676  30.361   2.422
71022ION    NA+36282  38.370   9.338   1.033
71023ION    NA+36283   9.169  22.847   3.083
71024ION    NA+36284  20.833   7.289  11.366
71025ION    NA+36285  21.396  25.765   2.801
71026ION    NA+36286  42.865  44.613  11.356
71027ION    NA+36287   2.290  10.139   0.775
71028ION    NA+36288  42.370  27.123   2.199
71029ION    NA+36289   0.638  36.842  13.555
71030ION    NA+36290   7.172   3.264   3.250
71031ION    NA+36291  29.703  44.426   0.611
71032ION    NA+36292  14.879  26.422   3.714
71033ION    NA+36293  35.709  34.450  14.156
71034ION    NA+36294  35.345   8.153   3.257
71035ION    NA+36295  23.074  32.613  12.310
71036ION    NA+36296  22.748  38.360  14.003
71037ION    NA+36297   1.655   1.173   1.860
71038ION    NA+36298  41.374  37.936  10.661
71039ION    NA+36299   1.657   7.250  11.974
71040ION    NA+36300   1.799  11.379  14.548
71041ION    NA+36301  41.419  36.249   2.792
71042ION    NA+36302  38.210   8.726   0.230
71043ION    NA+36303  16.992   5.070   1.549
71044ION    NA+36304   9.459   2.412  10.636
71045ION    NA+36305  19.052  25.488   3.227
71046ION    NA+36306  34.285  33.866  13.004
71047ION    NA+36307   8.130  33.319  12.372
71048ION    NA+36308   1.692   2.813  14.997
71049ION    NA+36309  25.854  12.763   9.618
71050ION    NA+36310  11.697  20.429   4.746
71051ION    NA+36311  37.434  40.357   4.111
71052ION    NA+36312  18.788  41.434   2.161
71053ION    NA+36313   5.288  38.298   3.605
71054ION    NA+36314   1.038  42.465  13.041
71055ION    NA+36315  37.989  22.832   3.267
71056ION    NA+36316  21.568  10.147   4.383
71057ION    NA+36317  16.255  13.665   0.672
71058ION    NA+36318  42.001   8.497   1.196
71059ION    NA+36319  25.302  22.378  13.717
71060ION    NA+36320   0.410   5.662  14.879
71061ION    NA+36321  26.512   6.622  11.838
71062ION    NA+36322  20.661  20.512  12.212
71063ION    NA+36323   2.187  18.736  14.907
71064ION    NA+36324  17.075  29.438   4.187
71065ION    NA+36325  41.255  22.218  12.927
71066ION    NA+36326  36.655  43.509  10.214
71067ION    NA+36327  32.370  18.291  12.989
71068ION    NA+36328  27.601   6.840   0.516
71069ION    NA+36329  42.206  22.652  11.951
71070ION    NA+36330  13.398  29.462   2.688
71071ION    NA+36331   7.342  14.897  11.948
71072ION    NA+36332  42.524  33.598   1.108
71073ION    NA+36333  44.975  13.213  14.093
71074ION    NA+36334   7.252  22.989  14.951
71075ION    NA+36335  43.130  15.785   3.923
71076ION    NA+36336  29.045  41.684  14.732
71077ION    NA+36337  36.399  21.293  14.032
71078ION    NA+36338  35.372  44.624  12.383
71079ION    NA+36339   9.826   1.473  10.750
71080ION    NA+36340   9.853  13.643   2.670
71081ION    NA+36341   7.168  26.596   3.263
71082ION    NA+36342  43.513   6.250  14.461
71083ION    NA+36343  33.582   9.202   1.644
71084ION    NA+36344  21.528  29.109   3.688
71085ION    NA+36345  13.313  10.004   1.004
71086ION    NA+36346  41.057  28.181   0.502
71087ION    NA+36347  43.193   2.841  12.398
71088ION    NA+36348  40.063  24.565  13.389
71089ION    NA+36349   2.438  14.241   1.657
71090ION    NA+36350  14.855  10.362   4.381
71091ION    NA+36351  16.114   2.107   3.989
71092ION    NA+36352   1.116  26.860   0.344
71093ION    NA+36353  42.273  43.858  13.786
71094ION    NA+36354  22.611   8.374   0.016
71095ION    NA+36355  38.661  30.114   0.274
71096ION    NA+36356  18.767   1.888   2.896
71097ION    NA+36357   4.462  31.405  11.542
71098ION    NA+36358  36.064   3.492   0.795
71099ION    NA+36359  26.943  30.592   0.974
71100ION    NA+36360   1.927   8.153   2.894
71101ION    NA+36361  19.632  42.986   3.157
71102ION    NA+36362  27.437   6.384  14.189
71103ION    NA+36363  20.532  17.399   2.183
71104ION    NA+36364   5.377  29.232   2.198
71105ION    NA+36365  38.603  14.422  14.402
71106ION    NA+36366  35.941  32.598  11.126
71107ION    NA+36367  32.375  40.459   4.150
71108ION    NA+36368   2.178   7.136   3.193
71109ION    NA+36369  23.486  22.721  13.365
71110ION    NA+36370   0.258  10.255   3.193
71111ION    NA+36371  36.281   9.899  11.440
71112ION    NA+36372   7.267  39.593   2.187
71113ION    NA+36373  43.526  41.105  12.789
71114ION    NA+36374  15.350  21.149  14.975
71115ION    NA+36375  19.909  15.170  12.402
71116ION    NA+36376  43.541   1.734  11.659
71117ION    NA+36377  16.663  25.890  14.410
71118ION    NA+36378   0.090   1.605   3.388
71119ION    NA+36379  18.537  33.104   2.874
71120ION    NA+36380  31.006  44.229  13.565
71121ION    NA+36381  44.124  42.691  12.157
71122ION    NA+36382  19.104  16.331  14.334
71123ION    NA+36383  15.480  34.315  11.715
71124ION    NA+36384  43.205  38.509   0.553
71125ION    NA+36385  25.189  12.293   4.122
71126ION    NA+36386  24.756   6.675   1.975
71127ION    NA+36387  33.354  33.874  11.445
71128ION    NA+36388   7.789  12.675   3.513
71129ION    NA+36389  21.865  24.014  14.083
71130ION    NA+36390  28.865  12.153   1.929
71131ION    NA+36391   1.439  19.372   2.172
71132ION    NA+36392   8.712  29.428   1.457
71133ION    NA+36393  39.126   9.210  13.860
71134ION    NA+36394  43.847  41.638  12.126
71135ION    NA+36395  42.707  20.379  11.402
71136ION    NA+36396  31.187   3.390   9.687
71137ION    NA+36397   2.661  25.218   0.100
71138ION    NA+36398  29.423  15.823   0.367
71139ION    NA+36399  31.512  11.919   1.451
71140ION    NA+36400  44.287  12.312  11.724
71141ION    NA+36401  40.672  36.455  10.805
71142ION    NA+36402  36.363  28.050   3.415
71143ION    NA+36403  30.123  26.993   3.202
71144ION    NA+36404  35.028   1.737   1.726
71145ION    NA+36405  13.084  44.155  12.840
71146ION    NA+36406  11.849   3.110  11.991
71147ION    NA+36407  21.346  18.440   3.769
71148ION    NA+36408  43.840   1.426  14.979
71149ION    NA+36409  27.020  18.198  13.602
71150ION    NA+36410  23.505  13.794  10.674
71151ION    NA+36411   4.027   2.896   1.297
71152ION    NA+36412  17.293  10.716  14.369
71153ION    NA+36413  13.920  18.442  14.593
71154ION    NA+36414  16.574   2.719  13.777
71155ION    NA+36415  21.375   3.838   0.450
71156ION    NA+36416  27.866  33.104  13.898
71157ION    NA+36417  18.677  11.207  14.415
71158ION    NA+36418  26.932  35.931   3.111
71159ION    NA+36419  20.537  38.987   2.750
71160ION    NA+36420  16.319  16.051  13.658
71161ION    NA+36421  29.910  35.789  14.890
71162ION    NA+36422   2.894   2.971   0.213
71163ION    NA+36423   6.627   3.772  11.164
71164ION    NA+36424  33.650   0.167  10.595
71165ION    NA+36425  41.271  28.809   4.021
71166ION    NA+36426  21.699  12.086   2.090
71167ION    NA+36427  20.419  19.411   1.525
71168ION    NA+36428  21.259  28.150  10.716
71169ION    NA+36429  34.453  43.327   4.300
71170ION    NA+36430  18.513  14.146  14.990
71171ION    NA+36431  11.632  37.786  13.795
71172ION    NA+36432  38.514  19.476   2.504
71173ION    NA+36433  14.973  15.869  12.618
71174ION    NA+36434  17.800  19.514  12.110
71175ION    NA+36435   7.274  30.000   5.349
71176ION    NA+36436  44.765  32.003   9.691
71177ION    NA+36437   7.090   0.399   4.638
71178ION    NA+36438  20.421  30.329  11.415
71179ION    NA+36439  29.370  13.202   4.143
71180ION    NA+36440  26.120  22.317   9.811
71181ION    NA+36441  39.411  30.316   4.014
71182ION    NA+36442  13.250   2.037  12.914
71183ION    NA+36443   0.145  27.095   0.387
71184ION    NA+36444  10.243  24.095   1.775
71185ION    NA+36445  17.749  42.532  14.841
71186ION    NA+36446  15.060  27.538  10.677
71187ION    NA+36447   8.956  17.139  14.567
71188ION    NA+36448  13.118  14.940   4.372
71189ION    NA+36449  35.579  16.635  12.969
71190ION    NA+36450  38.750  29.087  10.885
71191ION    NA+36451  33.050  39.365  14.513
71192ION    NA+36452  29.865  32.554  14.372
71193ION    NA+36453  24.718  13.695   0.226
71194ION    NA+36454  36.275  31.915  13.903
71195ION    NA+36455  39.835  43.679  11.379
71196ION    NA+36456   6.664  20.680  10.399
71197ION    NA+36457   2.849  22.276  11.137
71198ION    NA+36458  14.578  41.209  14.183
71199ION    NA+36459  35.891  31.425   1.854
71200ION    NA+36460  24.850  28.184  13.432
71201ION    NA+36461  25.994   5.554   2.854
71202ION    NA+36462  40.954   9.756   1.386
71203ION    NA+36463  28.082  30.580  12.391
71204ION    NA+36464  26.991  26.916   1.832
71205ION    NA+36465   3.352   8.199  11.306
71206ION    NA+36466   1.293  12.993   1.129
71207ION    NA+36467   8.510  17.434   1.814
71208ION    NA+36468   7.236  27.264  10.658
71209ION    NA+36469  11.814  44.736   0.818
71210ION    NA+36470   9.346  28.543   3.504
71211ION    NA+36471  15.644   7.278  11.806
71212ION    NA+36472  27.452  31.970  13.947
71213ION    NA+36473  24.265  42.228  13.267
71214ION    NA+36474  35.510  15.823  13.680
71215ION    NA+36475   0.093  10.101   1.418
71216ION    NA+36476  27.076  13.522   0.115
71217ION    NA+36477  24.573  24.078  12.456
71218ION    NA+36478  13.178  26.424   4.130
71219ION    NA+36479  39.879  35.825  12.459
71220ION    NA+36480  38.928  13.706  13.964
71221ION    NA+36481  32.094  23.046   0.843
71222ION    NA+36482  38.753  19.518  11.167
71223ION    NA+36483  41.567   3.865   4.146
71224ION    NA+36484  12.449  30.114   0.585
71225ION    NA+36485   7.135  13.949   5.374
71226ION    NA+36486  30.837  44.921  11.984
71227ION    NA+36487   4.917   6.732  12.033
71228ION    NA+36488  18.693   8.430   3.622
71229ION    NA+36489  36.284  44.085  13.744
71230ION    NA+36490   2.323   8.379  10.785
71231ION    NA+36491  33.533  28.153  13.863
71232ION    NA+36492  42.539  38.678   1.030
71233ION    NA+36493   1.206   5.893  12.865
71234ION    NA+36494   8.301   5.851   0.993
71235ION    NA+36495  42.009   8.423   2.084
71236ION    NA+36496   8.100  35.410   2.528
71237ION    NA+36497  39.251   0.773   0.829
71238ION    NA+36498  44.880   1.828   2.436
71239ION    NA+36499  38.147  16.983  11.919
71240ION    NA+36500  41.468   9.563  13.550
71241ION    NA+36501  28.674  24.963  10.075
71242ION    NA+36502  23.543  20.706  11.010
71243ION    NA+36503  44.768  24.093   3.831
71244ION    NA+36504  38.505  11.540  10.776
71245ION    NA+36505  33.484  32.319   3.671
71246ION    NA+36506  22.902  11.496  12.563
71247ION    NA+36507  19.661   8.702  10.780
71248ION    NA+36508  20.436  32.798   2.307
71249ION    NA+36509  11.594  23.110   3.892
71250ION    NA+36510  16.449  26.793  13.948
71251ION    NA+36511  27.225  36.534  12.544
71252ION    NA+36512  22.837  13.663   2.828
71253ION    NA+36513  22.056   2.091  11.667
71254ION    NA+36514  16.723  14.689  11.413
71255ION    NA+36515  24.637  28.222   9.883
71256ION    NA+36516  37.921  18.744   0.985
71257ION    NA+36517  28.203  32.889   1.244
71258ION    NA+36518  39.141  17.978  14.334
71259ION    NA+36519  21.853  19.265  10.176
71260ION    NA+36520  17.332  15.417  11.098
71261ION    NA+36521  33.324   2.954   9.775
71262ION    NA+36522   2.279  26.561   1.628
71263ION    NA+36523  33.198  36.748   3.702
71264ION    NA+36524   0.605  14.492   1.302
71265ION    NA+36525  30.479  33.422  12.384
71266ION    NA+36526  38.814   0.634   9.851
71267ION    NA+36527   8.237  28.108  14.371
71268ION    NA+36528   9.197  15.512  11.603
71269ION    NA+36529  37.565  28.977   1.638
71270ION    NA+36530  35.482  43.298   1.956
71271ION    NA+36531  37.223  28.620   2.507
71272ION    NA+36532  38.174   1.466  12.872
71273ION    NA+36533  18.939  25.974  12.586
71274ION    NA+36534  16.655  18.265  12.351
71275ION    NA+36535  30.499  33.620  10.540
71276ION    NA+36536  30.046  10.247  14.034
71277ION    NA+36537  38.735  23.718   4.328
71278ION    NA+36538  30.259   6.595   3.756
71279ION    NA+36539  29.055  15.335   1.412
71280ION    NA+36540  44.070  14.134   1.377
71281ION    NA+36541  17.163  32.137   1.130
71282ION    NA+36542   6.175  36.525  11.622
71283ION    NA+36543   0.369  21.082   4.515
71284ION    NA+36544  16.222  13.488  12.623
71285ION    NA+36545  29.924  34.714   4.826
71286ION    NA+36546  15.074  14.745  13.933
71287ION    NA+36547  40.007  25.226   3.326
71288ION    NA+36548   1.214  23.613   9.593
71289ION    NA+36549  10.644  22.728   1.167
71290ION    NA+36550  15.101   3.160   1.858
71291ION    NA+36551   2.477  11.681   2.301
71292ION    NA+36552  27.690  35.815  10.568
71293ION    NA+36553  26.566  16.954  10.696
71294ION    NA+36554  31.341   1.618   0.574
71295ION    NA+36555   1.055  27.436  13.912
71296ION    NA+36556  28.642  36.024   0.267
71297ION    NA+36557  39.482   9.421   2.256
71298ION    NA+36558  44.873  11.020   1.923
71299ION    NA+36559   3.928  20.831  14.087
71300ION    NA+36560  34.333   9.742  11.528
71301ION    NA+36561  35.170  12.889   4.172
71302ION    NA+36562   8.700  31.675  13.489
71303ION    NA+36563  14.455  36.247   0.836
71304ION    NA+36564  21.222  21.422   2.780
71305ION    NA+36565  22.268   9.145  13.992
71306ION    NA+36566  24.885  23.811   1.781
71307ION    NA+36567   8.128  37.956   4.591
71308ION    NA+36568   1.847   9.583  10.877
71309ION    NA+36569  16.337  21.970   1.493
71310ION    NA+36570  24.236  25.217  12.019
71311ION    NA+36571  12.382  22.967   2.602
71312ION    NA+36572  33.698  20.415   1.051
71313ION    NA+36573  24.245  39.298   2.813
71314ION    NA+36574   6.449  43.818  10.879
71315ION    NA+36575  11.588   5.481  10.540
71316ION    NA+36576  33.779  14.037   0.983
71317ION    NA+36577   0.980  38.596   4.208
71318ION    NA+36578  24.209   8.123  10.895
71319ION    NA+36579  17.922  42.724  13.087
71320ION    NA+36580  26.028  21.218  11.665
71321ION    NA+36581  38.993  28.392  12.965
71322ION    NA+36582  35.694  27.499  13.701
71323ION    NA+36583  20.184  12.786  13.296
71324ION    NA+36584  38.667  15.491   2.367
71325ION    NA+36585   4.556   3.531   1.860
71326ION    NA+36586  17.488   8.510   2.197
71327ION    NA+36587  34.894   7.812   0.957
71328ION    NA+36588  34.981  40.421   3.373
71329ION    NA+36589  38.825   8.340   5.254
71330ION    NA+36590  15.656   1.760  12.128
71331ION    NA+36591  20.578  19.624  14.700
71332ION    NA+36592  29.483   5.242  14.789
71333ION    NA+36593  38.900   7.896  12.667
71334ION    NA+36594  33.834   5.345   0.928
71335ION    NA+36595  29.925  14.092   3.069
71336ION    NA+36596  28.666   0.315   0.254
71337ION    NA+36597   0.841  28.240  13.357
71338ION    NA+36598  32.532  39.329   2.148
71339ION    NA+36599   5.872   7.036   4.899
71340ION    NA+36600  21.625  28.339  13.807
71341ION    NA+36601   1.517  36.695  13.718
71342ION    NA+36602  24.367  25.670   4.509
71343ION    NA+36603   3.538   9.828   3.614
71344ION    NA+36604   8.346  14.108   1.301
71345ION    NA+36605  26.410   3.273  12.388
71346ION    NA+36606  42.864  10.797   1.829
71347ION    NA+36607  37.383  35.890   0.115
71348ION    NA+36608  30.148  35.501  11.877
71349ION    NA+36609  36.573  22.348   3.487
71350ION    NA+36610  29.870  22.496  12.060
71351ION    NA+36611   5.999  39.658  13.065
71352ION    NA+36612  37.743  32.484   4.584
71353ION    NA+36613  36.046  16.774   2.927
71354ION    NA+36614  43.925  38.762   2.176
71355ION    NA+36615  11.830  18.004   0.386
71356ION    NA+36616  43.766  21.663  11.027
71357ION    NA+36617   8.681   8.430  11.709
71358ION    NA+36618  22.090   3.013   3.182
71359ION    NA+36619  12.674  28.087   0.291
71360ION    NA+36620   2.705  17.731  10.912
71361ION    NA+36621  42.030  16.319  12.635
71362ION    NA+36622  33.656  11.647   2.725
71363ION    NA+36623  23.850  35.363   2.477
71364ION    NA+36624  21.677   5.676  13.032
71365ION    NA+36625  16.009  12.205   0.155
71366ION    NA+36626  19.843  10.449  11.679
71367ION    NA+36627  21.122  10.011  10.033
71368ION    NA+36628  12.543  23.157  12.383
71369ION    NA+36629  36.799   1.744   3.465
71370ION    NA+36630  40.501  42.352   0.567
71371ION    NA+36631   6.290  29.362  14.074
71372ION    NA+36632  20.805  16.233   0.985
71373ION    NA+36633  21.469  38.119  11.871
71374ION    NA+36634  39.261   1.763   3.565
71375ION    NA+36635  10.431  30.089   5.350
71376ION    NA+36636  18.977   0.601   1.481
71377ION    NA+36637  15.999  20.993   3.782
71378ION    NA+36638  14.173  42.928   0.209
71379ION    NA+36639  12.679   9.839   4.471
71380ION    NA+36640  24.967  16.969  11.060
71381ION    NA+36641  40.782   0.746  10.722
71382ION    NA+36642  28.215  44.315   1.735
71383ION    NA+36643  16.365  13.225   4.247
71384ION    NA+36644  19.822   1.967  13.517
71385ION    NA+36645   9.704  23.842  10.695
71386ION    NA+36646  10.592  18.630   2.921
71387ION    NA+36647  36.328  36.824   1.702
71388ION    NA+36648  40.367  22.247  10.332
71389ION    NA+36649  23.583   7.419  13.097
71390ION    NA+36650  44.471  34.603   2.769
71391ION    NA+36651   8.473  34.456  14.799
71392ION    NA+36652   7.882  25.303  12.936
71393ION    NA+36653  25.185  33.718  10.700
71394ION    NA+36654  43.167  20.552   1.365
71395ION    NA+36655  31.159  34.610   4.149
71396ION    NA+36656  28.421  36.231  13.125
71397ION    NA+36657  10.636  17.667  10.601
71398ION    NA+36658  30.663  10.180   1.281
71399ION    NA+36659  20.404   4.125  11.069
71400ION    NA+36660   9.509  20.974   0.083
71401ION    NA+36661   2.428  38.615   0.113
71402ION    NA+36662  29.329  11.781   2.829
71403ION    NA+36663  32.613   3.829   1.981
71404ION    NA+36664  12.329  30.130   3.412
71405ION    NA+36665  18.662  30.368  11.537
71406ION    NA+36666   1.293   5.264   0.046
71407ION    NA+36667  14.176   0.883  10.731
71408ION    NA+36668  10.698  34.803  14.617
71409ION    NA+36669  44.888  30.473   2.744
71410ION    NA+36670  21.085  26.993   3.108
71411ION    NA+36671   5.106  43.892   1.581
71412ION    NA+36672   6.495  26.974  14.959
71413ION    NA+36673   2.841  29.019  10.658
71414ION    NA+36674  11.201  30.297  13.839
71415ION    NA+36675   1.304  15.663   4.152
71416ION    NA+36676  31.890  29.026   2.352
71417ION    NA+36677  10.932  33.065   0.140
71418ION    NA+36678  38.484   8.569  14.281
71419ION    NA+36679  31.405   6.754  14.277
71420ION    NA+36680  36.729  19.976  14.586
71421ION    NA+36681  38.963  42.526  14.248
71422ION    NA+36682  11.907  39.281  13.503
71423ION    NA+36683  21.369  24.272  11.541
71424ION    NA+36684  11.270  41.369  14.274
71425ION    NA+36685  17.157  23.647  14.729
71426ION    NA+36686  29.895  28.037   4.441
71427ION    NA+36687   6.464  30.711  14.383
71428ION    NA+36688   1.057  36.678   3.481
71429ION    NA+36689  27.919   0.394  14.036
71430ION    NA+36690   8.914  38.200  11.289
71431ION    NA+36691  35.292  32.706   1.436
71432ION    NA+36692  28.563  24.214   1.853
71433ION    NA+36693  41.785  19.665   4.533
71434ION    NA+36694  19.425  25.251  10.339
71435ION    NA+36695   6.047  30.288   4.366
71436ION    NA+36696  11.766  14.098  13.867
71437ION    NA+36697  12.784  17.429   3.831
71438ION    NA+36698  24.266  30.646   1.880
71439ION    NA+36699   8.143  18.566   2.898
71440ION    NA+36700   9.918  42.127  14.530
71441ION    NA+36701  19.825   7.354   2.791
71442ION    NA+36702  33.438   3.715  14.455
71443ION    NA+36703  26.209  15.872   1.803
71444ION    NA+36704  42.074   5.373  10.687
71445ION    NA+36705  28.619  22.995  12.473
71446ION    NA+36706   1.221   4.853   4.386
71447ION    NA+36707   7.722  31.416   0.406
71448ION    NA+36708  37.960  15.389   3.551
71449ION    NA+36709  24.804  34.270  11.466
71450ION    NA+36710   2.037   5.521  13.396
71451ION    NA+36711  25.968   8.887  13.397
71452ION    NA+36712  29.244   6.389   4.022
71453ION    NA+36713  39.786   6.791   0.830
71454ION    NA+36714   4.417  16.812  11.949
71455ION    NA+36715   6.952  10.416   4.148
71456ION    NA+36716  14.850  43.933  14.868
71457ION    NA+36717  12.887  38.739  14.802
71458ION    NA+36718  11.220  36.491   0.554
71459ION    NA+36719  42.016   1.874  13.408
71460ION    NA+36720  19.135   3.827  12.137
71461ION    NA+36721  15.801  28.210  10.624
71462ION    NA+36722   0.259  23.835  11.096
71463ION    NA+36723  42.041  19.350   0.275
71464ION    NA+36724  14.327  26.680   4.541
71465ION    NA+36725   7.615  18.088   4.612
71466ION    NA+36726   0.974  13.272   5.041
71467ION    NA+36727   2.659   3.803   0.520
71468ION    NA+36728  22.040  39.001   3.894
71469ION    NA+36729  35.576  32.622   4.748
71470ION    NA+36730   1.701  21.645  11.820
71471ION    NA+36731  43.135   2.479   4.216
71472ION    NA+36732   4.155  25.761  14.476
71473ION    NA+36733  21.808  29.177  12.790
71474ION    NA+36734  40.197  42.979   3.438
71475ION    NA+36735  23.521   6.857  11.696
71476ION    NA+36736  33.474  20.274  10.484
71477ION    NA+36737  27.424   5.050   1.201
71478ION    NA+36738  25.558   5.111  13.301
71479ION    NA+36739  34.552  14.251   2.561
71480ION    NA+36740  16.960  29.834  14.304
71481ION    NA+36741  27.585  39.301   1.832
71482ION    NA+36742  22.337  32.727   2.146
71483ION    NA+36743  26.504   0.205   1.813
71484ION    NA+36744  34.474  21.688  11.582
71485ION    NA+36745  37.011  40.375  11.443
71486ION    NA+36746  39.793  27.315   0.406
71487ION    NA+36747  21.608   1.378   0.816
71488ION    NA+36748  34.342  43.438   0.512
71489ION    NA+36749  26.680   9.703   1.864
71490ION    NA+36750  29.920  19.270   4.611
71491ION    NA+36751  17.620   6.362  14.911
71492ION    NA+36752  20.033  19.567  10.150
71493ION    NA+36753   9.700  43.770   2.857
71494ION    NA+36754  43.945   2.237  12.662
71495ION    NA+36755  13.663   2.240   1.970
71496ION    NA+36756   2.218  19.300  12.047
71497ION    NA+36757  41.308  40.463   4.197
71498ION    NA+36758  19.623  37.985   3.635
71499ION    NA+36759   5.015  24.879  13.986
71500ION    NA+36760   0.951  42.771   3.221
71501ION    NA+36761  26.677  27.679   0.684
71502ION    NA+36762  19.340  14.269   3.837
71503ION    NA+36763   9.261  36.055   4.569
71504ION    NA+36764  41.541  29.674   1.889
71505ION    NA+36765  34.146  21.368   1.827
71506ION    NA+36766  41.909  22.691   4.431
71507ION    NA+36767  17.909  28.268   0.766
71508ION    NA+36768  23.117  42.992  14.426
71509ION    NA+36769  16.624  20.147  14.539
71510ION    NA+36770  43.073  27.321   3.730
71511ION    NA+36771   6.500  25.397   0.831
71512ION    NA+36772  13.487   8.114  12.155
71513ION    NA+36773   3.465  31.631  14.307
71514ION    NA+36774  15.763  37.263   1.133
71515ION    NA+36775   4.050   8.488  10.799
71516ION    NA+36776  13.971  26.690  10.278
71517ION    NA+36777  10.204  38.006  10.561
71518ION    NA+36778  41.954  12.537  12.093
71519ION    NA+36779  32.358  19.203  13.521
71520ION    NA+36780   3.094   3.467   2.630
71521ION    NA+36781  23.795  38.918   4.497
71522ION    NA+36782  27.462  15.495   4.800
71523ION    NA+36783  20.676  29.463  13.741
71524ION    NA+36784   8.624   2.382  14.972
71525ION    NA+36785  17.137   5.755   0.953
71526ION    NA+36786   1.614  39.369   4.200
71527ION    NA+36787  34.171   7.323  11.117
71528ION    NA+36788   6.622  24.372  11.017
71529ION    NA+36789  16.548  27.383   0.369
71530ION    NA+36790  11.084  25.491  12.501
71531ION    NA+36791  26.441  32.031   1.059
71532ION    NA+36792  38.975  22.447  12.034
71533ION    NA+36793  41.530  38.960  11.721
71534ION    NA+36794   7.259   9.011   1.617
71535ION    NA+36795  40.292   7.801  11.928
71536ION    NA+36796  44.969   5.226   2.332
71537ION    NA+36797  25.163  37.916  11.715
71538ION    NA+36798   7.282  40.038  14.020
71539ION    NA+36799   4.905  12.235   0.217
71540ION    NA+36800  16.959  16.329   0.074
71541ION    NA+36801  31.266  24.244  12.950
71542ION    NA+36802  18.819  15.536  11.824
71543ION    NA+36803  10.955  11.577  10.752
71544ION    NA+36804   1.358   4.077   1.302
71545ION    NA+36805  10.436  18.183   3.685
71546ION    NA+36806  28.177  39.762   0.790
71547ION    NA+36807  38.122  33.971   3.216
71548ION    NA+36808   3.270  15.732   3.276
71549ION    NA+36809  37.469  15.831  13.805
71550ION    NA+36810  29.880   5.031   4.191
71551ION    NA+36811  40.771  32.353  12.125
71552ION    NA+36812   6.467  12.864  11.554
71553ION    NA+36813  39.460  28.446   2.902
71554ION    NA+36814  15.254  27.346   3.637
71555ION    NA+36815  11.351   7.990  11.485
71556ION    NA+36816  30.894   8.648   2.169
71557ION    NA+36817  38.117  31.810  14.923
71558ION    NA+36818  15.847  36.989   2.158
71559ION    NA+36819  28.238   9.092   2.007
71560ION    NA+36820  21.107  42.284   4.205
71561ION    NA+36821  30.380  21.011   1.574
71562ION    NA+36822  40.713  24.941   2.840
71563ION    NA+36823  17.951  17.378   4.129
71564ION    NA+36824  39.444  15.807   4.618
71565ION    NA+36825   0.778   4.791  14.577
71566ION    NA+36826  34.685  43.318  14.313
71567ION    NA+36827  42.949  34.093   2.496
71568ION    NA+36828   9.971   3.460  13.724
71569ION    NA+36829   0.000  44.187   2.610
71570ION    NA+36830  13.874  22.762   3.891
71571ION    NA+36831   4.874  44.100   0.631
71572ION    NA+36832  13.339  19.073   4.432
71573ION    NA+36833   4.687  15.272  14.102
71574ION    NA+36834  41.031  37.212   1.719
71575ION    NA+36835  36.850  34.888   4.633
71576ION    NA+36836   1.697  39.151  11.786
71577ION    NA+36837   2.124  20.467   4.512
71578ION    NA+36838  14.812  44.818  13.025
71579ION    NA+36839   4.401  44.371   3.589
71580ION    NA+36840  18.427  24.759   1.573
71581ION    NA+36841  38.381  15.341  11.900
71582ION    NA+36842   1.237   1.926   0.406
71583ION    NA+36843  29.394  14.064   1.416
71584ION    NA+36844  35.701  24.785   1.924
71585ION    NA+36845   4.129  19.124   0.074
71586ION    NA+36846  29.900  11.578  14.085
71587ION    NA+36847  21.545   1.536  13.437
71588ION    NA+36848  28.196  40.530  11.931
71589ION    NA+36849   7.161   1.780   3.154
71590ION    NA+36850  14.701  11.993   4.822
71591ION    NA+36851  34.214  23.926  13.014
71592ION    NA+36852  34.390  38.295  14.464
71593ION    NA+36853   6.300   6.515   3.999
71594ION    NA+36854  16.032  20.397  12.245
71595ION    NA+36855  37.500  44.637  10.874
71596ION    NA+36856  32.458  29.730  11.965
71597ION    NA+36857  40.456  19.002   2.722
71598ION    NA+36858  31.663  37.360  14.861
71599ION    NA+36859  37.926  22.737  11.740
71600ION    NA+36860  28.813  17.621   1.394
71601ION    NA+36861  15.364  19.713  14.588
71602ION    NA+36862  44.390   1.895  14.289
71603ION    NA+36863  20.778  20.189  11.236
71604ION    NA+36864  38.142  42.630   0.295
71605ION    NA+36865  15.576  22.407   0.898
71606ION    NA+36866  24.651  30.238  14.523
71607ION    NA+36867   7.448  43.723   0.341
71608ION    NA+36868   8.799  31.109   0.208
71609ION    NA+36869  26.544  41.758  12.903
71610ION    NA+36870  15.971   8.520  10.515
71611ION    NA+36871  44.272  24.033  13.412
71612ION    NA+36872  33.207  34.477   0.938
71613ION    NA+36873  35.176  10.453  12.536
71614ION    NA+36874  12.960  27.911   5.081
71615ION    NA+36875  41.474  10.133   2.152
71616ION    NA+36876  22.237   9.354   2.342
71617ION    NA+36877  17.180  28.981  12.613
71618ION    NA+36878  28.391  34.775  11.242
71619ION    NA+36879  17.124  28.886   0.717
71620ION    NA+36880   6.805  14.076   0.349
71621ION    NA+36881  11.966   2.400   1.349
71622ION    NA+36882  14.469  17.653  12.903
71623ION    NA+36883  11.151   0.202   3.786
71624ION    NA+36884  11.739  10.661  14.997
71625ION    NA+36885  28.656  33.576  13.105
71626ION    NA+36886  22.133  41.164  11.052
71627ION    NA+36887  16.281  23.926   1.702
71628ION    NA+36888  10.301  27.354   1.403
71629ION    NA+36889   3.278  40.010  11.880
71630ION    NA+36890   6.737  14.886   2.876
71631ION    NA+36891  43.088  39.246   0.891
71632ION    NA+36892  34.380  44.253   1.736
71633ION    NA+36893  11.862   8.776  11.137
71634ION    NA+36894  13.525   9.836  14.060
71635ION    NA+36895   7.265   3.153   4.711
71636ION    NA+36896  39.593  10.086  11.657
71637ION    NA+36897  21.159  18.324  14.340
71638ION    NA+36898  44.587  19.983  12.368
71639ION    NA+36899  33.199  38.679   9.909
71640ION    NA+36900  39.717  19.669  10.949
71641ION    NA+36901  13.880  34.554  10.747
71642ION    NA+36902  34.350  19.584  10.876
71643ION    NA+36903   1.662  16.423   3.609
71644ION    NA+36904   7.608  38.011  11.712
71645ION    NA+36905  12.863   0.012  13.071
71646ION    NA+36906  34.042  13.939   4.704
71647ION    NA+36907  16.028  16.764  12.643
71648ION    NA+36908   7.625  23.470   2.477
71649ION    NA+36909  19.143  12.109   5.084
71650ION    NA+36910  27.824  38.130  12.250
71651ION    NA+36911   6.182  37.366   5.448
71652ION    NA+36912  35.531  11.738  12.139
71653ION    NA+36913   1.797  15.244  10.659
71654ION    NA+36914   3.462   7.234  14.327
71655ION    NA+36915  18.276   9.511   1.687
71656ION    NA+36916   2.919  44.189   3.220
71657ION    NA+36917   7.625  19.484  13.283
71658ION    NA+36918  27.429  31.700   3.303
71659ION    NA+36919  43.349  23.456  11.917
71660ION    NA+36920  41.528  33.983  11.487
71661ION    NA+36921  16.172   8.128  14.454
71662ION    NA+36922  11.882   3.662   3.322
71663ION    NA+36923   4.761  35.069   1.445
71664ION    NA+36924   4.172  40.845   2.322
71665ION    NA+36925  41.050   5.879   1.895
71666ION    NA+36926   8.347  37.337  11.679
71667ION    NA+36927   2.552  39.051   4.056
71668ION    NA+36928  10.948  11.656   5.576
71669ION    NA+36929  26.644  20.340  12.848
71670ION    NA+36930  30.437  28.934  11.340
71671ION    NA+36931  22.082  24.075   2.715
71672ION    NA+36932  43.465  36.633  13.949
71673ION    NA+36933  35.064  43.990   1.055
71674ION    NA+36934  23.889  20.782   4.060
71675ION    NA+36935  15.467  21.423  11.126
71676ION    NA+36936  44.889  12.771   0.243
71677ION    NA+36937   9.743  38.009  11.490
71678ION    NA+36938  37.992  20.379  11.640
71679ION    NA+36939   0.050  30.431   4.057
71680ION    NA+36940  37.307  30.343   4.493
71681ION    NA+36941  24.791  18.658  12.359
71682ION    NA+36942  19.999   7.806  11.560
71683ION    NA+36943   7.443  31.759   1.683
71684ION    NA+36944   7.758  13.182   2.255
71685ION    NA+36945   1.381   3.006   3.152
71686ION    NA+36946  35.927  22.943   2.373
71687ION    NA+36947  41.994  15.156   1.436
71688ION    NA+36948  22.309  28.136   3.284
71689ION    NA+36949  13.071  26.948  14.027
71690ION    NA+36950  15.361   6.249  14.356
71691ION    NA+36951  23.993   3.361   2.610
71692ION    NA+36952  25.913  42.968  13.923
71693ION    NA+36953  16.287  14.306   3.963
71694ION    NA+36954  31.492  38.483  10.617
71695ION    NA+36955  33.664  35.271   1.339
71696ION    NA+36956  36.724  28.688   1.643
71697ION    NA+36957  29.754  37.226  11.099
71698ION    NA+36958  32.377  41.141   3.307
71699ION    NA+36959  15.001   2.441   3.074
71700ION    NA+36960  16.132   6.397  12.908
71701ION    NA+36961  34.327   7.462   1.891
71702ION    NA+36962   6.216  23.805  13.531
71703ION    NA+36963  24.024  32.475  12.028
71704ION    NA+36964   7.071  41.677   1.142
71705ION    NA+36965  29.100   6.564  14.047
71706ION    NA+36966  17.058  12.772   0.427
71707ION    NA+36967   6.257  28.455  12.532
71708ION    NA+36968  30.479  25.225  13.410
71709ION    NA+36969  11.154  33.515  13.488
71710ION    NA+36970   6.948  34.389   5.167
71711ION    NA+36971  14.721  22.146   2.944
71712ION    NA+36972   6.961  22.255  13.390
71713ION    NA+36973  31.098  15.549  10.630
71714ION    NA+36974  21.127   2.086   1.335
71715ION    NA+36975  11.623  10.182  11.091
71716ION    NA+36976  28.733  19.525   3.862
71717ION    NA+36977  22.683  27.545  12.810
71718ION    NA+36978  11.925  39.810  14.687
71719ION    NA+36979  34.504  11.837  13.624
71720ION    NA+36980  32.169  17.046  13.102
71721ION    NA+36981  12.949  32.493  13.091
71722ION    NA+36982  41.335  41.419  10.574
71723ION    NA+36983   6.807  31.031   1.943
71724ION    NA+36984  16.062  38.395   1.849
71725ION    NA+36985   1.927  38.245   4.150
71726ION    NA+36986   8.513  10.818  11.935
71727ION    NA+36987  36.797   8.368  10.665
71728ION    NA+36988  30.569  15.870   0.941
71729ION    NA+36989  13.223  13.804   2.817
71730ION    NA+36990   9.218   1.431  12.534
71731ION    NA+36991  17.813  18.086   3.436
71732ION    NA+36992  42.850  26.411  12.434
71733ION    NA+36993  32.170  19.641   3.709
71734ION    NA+36994  27.920   4.379  12.326
71735ION    NA+36995   6.148  39.839  14.384
71736ION    NA+36996   1.461  31.678   1.883
71737ION    NA+36997  28.184  17.000   1.895
71738ION    NA+36998  23.500  37.242   3.812
71739ION    NA+36999  21.080  15.978   4.207
71740ION    NA+37000  26.341  33.929   0.258
71741ION    NA+37001   2.768  36.447   0.505
71742ION    NA+37002  42.998  20.143   2.035
71743ION    NA+37003  17.418  16.618   4.505
71744ION    NA+37004  26.730  23.116  10.791
71745ION    NA+37005  28.522  16.030   2.235
71746ION    NA+37006  26.836  14.397  10.672
71747ION    NA+37007  18.217  38.997  12.956
71748ION    NA+37008  44.807   9.619   2.073
71749ION    NA+37009   3.257  38.505  14.520
71750ION    NA+37010  20.012  21.933  13.187
71751ION    NA+37011  29.074  34.780   2.557
71752ION    NA+37012  14.077  16.555  14.201
71753ION    NA+37013   0.342  23.595  11.936
71754ION    NA+37014   6.308  10.090   2.064
71755ION    NA+37015  28.083  23.692   4.868
71756ION    NA+37016  35.554   0.340   4.098
71757ION    NA+37017  12.446   7.235  12.120
71758ION    NA+37018  36.079  10.232  12.907
71759ION    NA+37019  13.978  40.801  11.992
71760ION    NA+37020  17.411  41.434  12.592
71761ION    NA+37021  35.551  32.415  13.427
71762ION    NA+37022  23.799  39.329  11.539
71763ION    NA+37023   5.225  42.204  12.694
71764ION    NA+37024  20.504   4.780   4.150
71765ION    NA+37025  13.618  24.911  13.779
71766ION    NA+37026  40.119  32.898   0.298
71767ION    NA+37027  35.363  37.039   2.092
71768ION    NA+37028  35.423  19.991   0.392
71769ION    NA+37029  18.248  23.869   1.147
71770ION    NA+37030  15.578  15.675  10.705
71771ION    NA+37031  22.791  19.587   3.739
71772ION    NA+37032  27.845  36.767  10.826
71773ION    NA+37033  36.141  36.830  11.207
71774ION    NA+37034  14.468   4.102  12.575
71775ION    NA+37035  16.759  25.164   4.401
71776ION    NA+37036  44.598  42.891   4.167
71777ION    NA+37037   2.509  23.086  11.616
71778ION    NA+37038  34.647  25.591  13.929
71779ION    NA+37039  22.746  30.225  14.379
71780ION    NA+37040  10.210  30.710  14.100
71781ION    NA+37041   0.699  11.897  13.909
71782ION    NA+37042  10.900  42.822  10.743
71783ION    NA+37043  26.373   4.685  12.033
71784ION    NA+37044  35.676   4.805   2.874
71785ION    NA+37045  32.861  36.670   4.845
71786ION    NA+37046  42.768   7.877  13.808
71787ION    NA+37047  28.450  13.272   1.593
71788ION    NA+37048  33.069  20.084   0.464
71789ION    NA+37049  29.549  13.092   0.964
71790ION    NA+37050  11.813   6.243   2.324
71791ION    NA+37051  20.118  36.016  11.333
71792ION    NA+37052  32.094   9.773   9.973
71793ION    NA+37053   1.453   4.718  13.273
71794ION    NA+37054  17.639  14.357  12.057
71795ION    NA+37055  42.287  22.294  12.983
71796ION    NA+37056   4.662   9.147   4.125
71797ION    NA+37057  32.979  37.679   4.622
71798ION    NA+37058   3.934  10.868   4.863
71799ION    NA+37059  31.322  12.725  13.330
71800ION    NA+37060  13.903   0.897  13.037
71801ION    NA+37061  27.884   7.383  14.827
71802ION    NA+37062  32.413  24.780  11.568
71803ION    NA+37063  28.703  22.680  14.486
71804ION    NA+37064  11.591  29.219  12.080
71805ION    NA+37065  17.337  29.435   3.222
71806ION    NA+37066   9.395  26.656   0.944
71807ION    NA+37067  34.582  14.057   1.579
71808ION    NA+37068  24.373   2.315   1.805
71809ION    NA+37069  40.164   2.974   0.711
71810ION    NA+37070  42.785  37.366  13.913
71811ION    NA+37071  18.697  42.026  10.686
71812ION    NA+37072   7.482  12.234   0.538
71813ION    NA+37073   3.310  31.989   2.172
71814ION    NA+37074  38.540  33.630   1.294
71815ION    NA+37075   8.071  24.107   3.727
71816ION    NA+37076  11.864   7.926  10.609
71817ION    NA+37077  19.289  39.809   1.975
71818ION    NA+37078  12.087  37.086   3.220
71819ION    NA+37079   0.272  13.143  12.450
71820ION    NA+37080   9.125  32.731  14.853
71821ION    NA+37081  27.129  41.787   0.738
71822ION    NA+37082  25.208  22.898   2.032
71823ION    NA+37083  43.603   8.071  12.674
71824ION    NA+37084  28.761  43.059   2.341
71825ION    NA+37085  40.199  41.653   2.670
71826ION    NA+37086  18.683  16.072  10.957
71827ION    NA+37087  21.542  43.101   1.997
71828ION    NA+37088  16.080  22.162  12.462
71829ION    NA+37089  35.468  28.211  14.008
71830ION    NA+37090  44.833  28.710  11.579
71831ION    NA+37091   7.137  13.265   4.054
71832ION    NA+37092  44.016  26.447  10.498
71833ION    NA+37093   0.925  14.328   2.235
71834ION    NA+37094  22.203  12.340  13.972
71835ION    NA+37095  13.648  43.776  13.746
71836ION    NA+37096  21.903  36.917  10.672
71837ION    NA+37097  13.326  25.530   0.386
71838ION    NA+37098  11.740  40.191  10.706
71839ION    NA+37099  43.196  44.203   0.275
71840ION    NA+37100   9.393  14.762   0.869
71841ION    NA+37101  33.715  21.164   4.385
71842ION    NA+37102  18.549   4.401  11.150
71843ION    NA+37103  33.715  35.366   3.581
71844ION    NA+37104  32.849  20.454  11.111
71845ION    NA+37105  43.308  17.153   1.670
71846ION    NA+37106  36.535  25.683  13.950
71847ION    NA+37107  39.454   3.825  11.886
71848ION    NA+37108  24.710  44.557   4.477
71849ION    NA+37109  22.135   9.294   4.627
71850ION    NA+37110   1.985  16.364  12.741
71851ION    NA+37111  12.077  35.354   2.093
71852ION    NA+37112  23.765  27.091   2.240
71853ION    NA+37113  44.939  44.586  14.151
71854ION    NA+37114  32.303  39.017   3.719
71855ION    NA+37115  40.414   1.208  11.900
71856ION    NA+37116  28.498  12.360  13.706
71857ION    NA+37117  22.661  31.810   9.980
71858ION    NA+37118  40.614  35.309  11.789
71859ION    NA+37119  13.813  15.211   2.380
71860ION    NA+37120  32.089   3.367   4.671
71861ION    NA+37121   1.601  10.447  11.024
71862ION    NA+37122   3.033   7.500   4.690
71863ION    NA+37123  39.808   5.371  14.551
71864ION    NA+37124  38.180  41.109   1.937
71865ION    NA+37125  41.934  27.846  12.103
71866ION    NA+37126  39.729  25.491   1.762
71867ION    NA+37127  35.924  20.752   1.480
71868ION    NA+37128  20.163  16.336   4.688
71869ION    NA+37129  26.738  13.003  13.384
71870ION    NA+37130  40.824  30.146  14.322
71871ION    NA+37131  17.402  35.079   3.247
71872ION    NA+37132  19.320  13.846  14.481
71873ION    NA+37133   0.655   2.776  14.842
71874ION    NA+37134   3.379  27.129   1.925
71875ION    NA+37135  42.828  26.317   3.474
71876ION    NA+37136  38.073   0.639  12.296
71877ION    NA+37137  37.783   2.555   2.650
71878ION    NA+37138  19.798  16.798   1.323
71879ION    NA+37139   5.201  34.353  13.536
71880ION    NA+37140  43.517   3.924  14.745
71881ION    NA+37141  38.563  19.258  14.923
71882ION    NA+37142  42.155  32.770   1.269
71883ION    NA+37143  37.986  12.930   1.993
71884ION    NA+37144  13.987  25.979   3.624
71885ION    NA+37145  42.747  34.106   3.485
71886ION    NA+37146  39.477  26.200  12.579
71887ION    NA+37147  34.093  24.929  12.978
71888ION    NA+37148  37.423   2.391   4.097
71889ION    NA+37149   6.243  44.792  10.782
71890ION    NA+37150   4.941   0.051  13.431
71891ION    NA+37151  21.076  41.929  12.612
71892ION    NA+37152  30.572   8.052   2.774
71893ION    NA+37153  35.572  17.644   0.466
71894ION    NA+37154   1.721  39.452   2.768
71895ION    NA+37155  29.338   0.171   0.981
71896ION    NA+37156  19.801  30.620   1.137
71897ION    NA+37157  20.439  43.963   4.217
71898ION    NA+37158  32.204  33.809  12.954
71899ION    NA+37159  32.358  18.157  10.766
71900ION    NA+37160  27.769   9.961   2.169
71901ION    NA+37161  32.406   5.122  14.877
71902ION    NA+37162   4.043   3.974   2.639
71903ION    NA+37163  42.736   0.751   5.411
71904ION    NA+37164  27.638  35.576   2.409
71905ION    NA+37165  37.508   8.261   0.790
71906ION    NA+37166   5.690  42.310   3.261
71907ION    NA+37167  11.404  35.842  12.427
71908ION    NA+37168  22.423  33.653  11.041
71909ION    NA+37169  14.886   7.272  14.485
71910ION    NA+37170  20.698  10.053  14.892
71911ION    NA+37171  33.166   6.640  11.547
71912ION    NA+37172  34.221  37.474  12.614
71913ION    NA+37173  31.402  32.126   0.259
71914ION    NA+37174  11.735  35.584   4.426
71915ION    NA+37175   7.916  32.146   2.647
71916ION    NA+37176  16.752  42.283  14.319
71917ION    NA+37177  23.171  22.187  11.543
71918ION    NA+37178  16.596  32.267  13.108
71919ION    NA+37179  17.302  37.819   3.095
71920ION    NA+37180  26.110  15.691   3.755
71921ION    NA+37181  39.565  38.286  14.929
71922ION    NA+37182  12.842  42.066  11.370
71923ION    NA+37183  17.108  23.722  11.536
71924ION    NA+37184  14.934  21.179   3.087
71925ION    NA+37185  36.753   6.218  11.222
71926ION    NA+37186  15.029  19.018  12.324
71927ION    NA+37187  42.023  42.651   4.042
71928ION    NA+37188  41.517   7.318   4.043
71929ION    NA+37189  24.325  14.508   4.799
71930ION    NA+37190  20.273  19.354  11.017
71931ION    NA+37191  33.160  10.632   2.135
71932ION    NA+37192   5.189  43.741  12.524
71933ION    NA+37193  20.523  44.580   0.349
71934ION    NA+37194  29.299  38.478   1.466
71935ION    NA+37195   7.339  18.656   0.142
71936ION    NA+37196  42.401  43.062   0.712
71937ION    NA+37197  41.982  38.646  12.953
71938ION    NA+37198  14.837  40.397   2.679
71939ION    NA+37199  23.362  11.466  11.772
71940ION    NA+37200  11.515   1.567   5.004
71941ION    NA+37201  26.580  36.978  13.869
71942ION    NA+37202  23.025  30.089   1.027
71943ION    NA+37203  33.887  27.975   0.641
71944ION    NA+37204  42.513  23.700   0.089
71945ION    NA+37205  16.320  23.931  13.828
71946ION    NA+37206   4.819  30.534   5.057
71947ION    NA+37207   3.563  13.537   0.265
71948ION    NA+37208  16.405   4.266   2.916
71949ION    NA+37209  28.522   5.350   1.198
71950ION    NA+37210   5.331   8.764  14.416
71951ION    NA+37211   5.191   6.029  11.377
71952ION    NA+37212  22.527  23.938  14.602
71953ION    NA+37213  32.402  31.572  11.040
71954ION    NA+37214  27.515  44.010  13.509
71955ION    NA+37215   3.554   8.891  12.063
71956ION    NA+37216   1.944  12.253   1.678
71957ION    NA+37217  30.872   4.967   4.072
71958ION    NA+37218   5.757  43.808  13.962
71959ION    NA+37219  35.133  19.644   3.581
71960ION    NA+37220  39.590  32.843  12.124
71961ION    NA+37221   8.510  40.748   3.944
71962ION    NA+37222  28.490   8.351  11.256
71963ION    NA+37223  13.270  24.036   1.895
71964ION    NA+37224   4.136  35.956   4.184
71965ION    NA+37225  18.505   7.441   1.503
71966ION    NA+37226   6.741   1.726  14.428
71967ION    NA+37227  36.289  41.407   2.624
71968ION    NA+37228  13.575   7.721  14.934
71969ION    NA+37229  28.345  39.977   4.446
71970ION    NA+37230   0.292  27.577  11.828
71971ION    NA+37231  36.235   6.264  12.765
71972ION    NA+37232  29.567  40.671  11.788
71973ION    NA+37233  14.584   5.886   2.809
71974ION    NA+37234  44.021  40.375   0.269
71975ION    NA+37235   9.437  15.826  12.522
71976ION    NA+37236  41.523  15.677   3.372
71977ION    NA+37237  42.371  42.721  11.003
71978ION    NA+37238  44.060  27.962  13.941
71979ION    NA+37239  32.051  42.356   4.728
71980ION    NA+37240  30.867  28.152   9.763
71981ION    NA+37241  30.442   1.480   2.568
71982ION    NA+37242  42.869  44.396   1.266
71983ION    NA+37243   9.498   8.315   0.166
71984ION    NA+37244  14.072  19.886  14.718
71985ION    NA+37245  17.480  24.576  11.175
71986ION    NA+37246  19.410  27.040   0.844
71987ION    NA+37247   0.419  31.059  13.480
71988ION    NA+37248  42.874  15.413  13.764
71989ION    NA+37249  40.590  17.127   4.325
71990ION    NA+37250   1.602  30.452   5.166
71991ION    NA+37251   8.219  27.735  11.970
71992ION    NA+37252   9.066   0.444  12.595
71993ION    NA+37253  34.523  19.137   1.914
71994ION    NA+37254   3.044   1.968   3.687
71995ION    NA+37255  29.507  42.590  14.251
71996ION    NA+37256  18.550  35.964   5.264
71997ION    NA+37257  17.058   4.396   2.170
71998ION    NA+37258  22.111  35.130   1.713
71999ION    NA+37259   5.198  18.099   1.237
72000ION    NA+37260  42.485  13.839  13.289
72001ION    NA+37261  23.014  35.127   3.600
72002ION    NA+37262  22.857  40.254  12.761
72003ION    NA+37263  15.836  20.228   2.442
72004ION    NA+37264  42.292  27.874   2.947
72005ION    NA+37265  11.836  21.112  11.794
72006ION    NA+37266   7.895  11.684   3.149
72007ION    NA+37267  28.840  20.043  12.510
72008ION    NA+37268   2.701  15.497  13.593
72009ION    NA+37269  36.766  31.016   2.799
72010ION    NA+37270  41.294  29.486   5.399
72011ION    NA+37271  39.247  32.372   1.139
72012ION    NA+37272   2.743  16.089   1.377
72013ION    NA+37273  22.286  19.521  11.680
72014ION    NA+37274   0.344  17.597  14.556
72015ION    NA+37275  33.596  39.868  11.196
72016ION    NA+37276   4.897  14.051   4.303
72017ION    NA+37277  32.215  21.977  14.527
72018ION    NA+37278   2.248  20.743  11.947
72019ION    NA+37279  31.510   8.887   3.103
72020ION    NA+37280   7.661  32.566  10.839
72021ION    NA+37281  23.461  15.065  14.545
72022ION    NA+37282   9.245   8.411   3.870
72023ION    NA+37283  38.394  18.296  13.012
72024ION    NA+37284  15.841  26.929  10.873
72025ION    NA+37285  16.455   1.485   0.008
72026ION    NA+37286  26.050  10.354   4.323
72027ION    NA+37287   3.381  12.631  13.850
72028ION    NA+37288  18.750   5.414   2.882
72029ION    NA+37289  25.831  36.990  12.285
72030ION    NA+37290  22.950  22.477   5.082
72031ION    NA+37291  34.889  27.654  13.817
72032ION    NA+37292  42.887   6.699   4.207
72033ION    NA+37293  28.157  18.982   4.472
72034ION    NA+37294  25.038  22.079   1.436
72035ION    NA+37295  39.345  20.820   0.982
72036ION    NA+37296  41.436  12.397   9.668
72037ION    NA+37297  26.481  27.762   1.661
72038ION    NA+37298  32.097  32.191   5.107
72039ION    NA+37299  44.009  28.956  13.851
72040ION    NA+37300   2.479  40.887   1.802
72041ION    NA+37301  15.077  29.030  12.427
72042ION    NA+37302   6.284   9.695   0.397
72043ION    NA+37303  44.700  43.113  11.457
72044ION    NA+37304   9.156  22.990  10.656
72045ION    NA+37305  37.452  19.175  12.120
72046ION    NA+37306  19.002  25.116  13.407
72047ION    NA+37307  29.411  25.100   1.779
72048ION    NA+37308  23.531  44.050   0.100
72049ION    NA+37309  12.261  22.422  12.438
72050ION    NA+37310  22.797   7.787   1.012
72051ION    NA+37311  17.118  43.867  11.784
72052ION    NA+37312  40.810  19.039  11.189
72053ION    NA+37313   1.502  43.037  11.897
72054ION    NA+37314   4.486  16.463   0.927
72055ION    NA+37315  41.155  16.213  12.446
72056ION    NA+37316  38.937   4.240  11.271
72057ION    NA+37317   5.413   3.382   4.657
72058ION    NA+37318  43.094  30.044  13.793
72059ION    NA+37319  20.927   7.995  14.427
72060ION    NA+37320   6.399  25.969   3.139
72061ION    NA+37321  14.074  39.183   0.576
72062ION    NA+37322   0.121  18.876   4.360
72063ION    NA+37323  21.158  20.146   5.084
72064ION    NA+37324  39.034  14.808   1.734
72065ION    NA+37325  43.022  40.958   2.686
72066ION    NA+37326  12.525  38.956   2.141
72067ION    NA+37327   5.926   7.337  12.603
72068ION    NA+37328  12.983  25.432   2.410
72069ION    NA+37329   0.563  10.302   4.144
72070ION    NA+37330  18.287  38.129  12.783
72071ION    NA+37331   7.981  41.617  11.917
72072ION    NA+37332   7.833  32.391   3.613
72073ION    NA+37333   7.963   3.337   1.264
72074ION    NA+37334   0.623  27.778  14.834
72075ION    NA+37335  23.126   5.668  10.654
72076ION    NA+37336  14.334  37.584   4.303
72077ION    NA+37337   0.565  23.029   1.436
72078ION    NA+37338  38.655   0.152  10.748
72079ION    NA+37339  44.066  24.279  11.986
72080ION    NA+37340   3.340  34.640   2.326
72081ION    NA+37341  28.179  10.698   2.773
72082ION    NA+37342  25.208   2.278   1.255
72083ION    NA+37343  19.969  20.449  14.760
72084ION    NA+37344  35.563  41.387   4.936
72085ION    NA+37345   7.444   6.839  10.558
72086ION    NA+37346  32.961  17.644  12.507
72087ION    NA+37347   9.315  23.103  11.636
72088ION    NA+37348  16.398   1.881   4.833
72089ION    NA+37349   2.785   7.637  12.831
72090ION    NA+37350  10.809  10.800  11.720
72091ION    NA+37351  26.249  11.934  12.083
72092ION    NA+37352  18.787   5.863  11.187
72093ION    NA+37353  12.717  36.594   2.617
72094ION    NA+37354  35.519  24.572   3.360
72095ION    NA+37355  19.007   7.146   3.329
72096ION    NA+37356  38.321  34.925  14.948
72097ION    NA+37357  29.140   8.469   4.088
72098ION    NA+37358  25.466  16.427   2.178
72099ION    NA+37359  27.203  10.705   3.818
72100ION    NA+37360  23.564   7.568   0.048
72101ION    NA+37361  13.288   1.640   3.579
72102ION    NA+37362  10.177   4.494   0.130
72103ION    NA+37363  39.287  17.233  11.517
72104ION    NA+37364  39.760  21.176   4.367
72105ION    NA+37365  43.847   9.633  13.628
72106ION    NA+37366   9.629  28.024  14.412
72107ION    NA+37367  40.556  23.626   1.873
72108ION    NA+37368  33.461  43.648   1.483
72109ION    NA+37369  16.094   1.130   3.764
72110ION    NA+37370  37.823  25.439  14.624
72111ION    NA+37371   4.494  15.705   1.904
72112ION    NA+37372   3.796  13.081   4.568
72113ION    NA+37373  19.607  31.236  12.632
72114ION    NA+37374  44.463  18.493   9.848
72115ION    NA+37375  32.440  43.017   0.067
72116ION    NA+37376  12.809  33.688  11.556
72117ION    NA+37377  12.611   8.921   3.258
72118ION    NA+37378  27.497  22.605   0.924
72119ION    NA+37379  35.630  27.888   1.916
72120ION    NA+37380  29.072  25.336   5.234
72121ION    NA+37381  32.196   1.709  13.326
72122ION    NA+37382  17.642  39.393   3.704
72123ION    NA+37383  17.126  43.259   0.184
72124ION    NA+37384  25.336   5.726   0.513
72125ION    NA+37385   2.480  11.927  11.389
72126ION    NA+37386   7.220  10.423   0.412
72127ION    NA+37387  13.857   4.712  12.814
72128ION    NA+37388  17.653   8.630   3.065
72129ION    NA+37389  33.967  31.556  11.931
72130ION    NA+37390  34.271  28.980  11.944
72131ION    NA+37391   6.726  41.256   0.303
72132ION    NA+37392  34.982  11.144   3.579
72133ION    NA+37393  43.559  16.106  10.622
72134ION    NA+37394  33.212  14.503   4.293
72135ION    NA+37395  15.648  20.195   5.829
72136ION    NA+37396  34.930  39.642  10.812
72137ION    NA+37397  15.821  36.035   1.844
72138ION    NA+37398  21.795  39.321   4.810
72139ION    NA+37399  22.484   1.197  11.539
72140ION    NA+37400   3.497  31.306   5.286
72141ION    NA+37401   2.711  39.161   1.619
72142ION    NA+37402   2.401  39.464   0.641
72143ION    NA+37403  13.016  35.686   2.322
72144ION    NA+37404  17.504  27.222   2.725
72145ION    NA+37405  16.428  18.445  13.308
72146ION    NA+37406  32.937  39.199  10.854
72147ION    NA+37407  19.329  36.058  14.504
72148ION    NA+37408   3.397   6.458  11.044
72149ION    NA+37409  10.248   3.205   1.389
72150ION    NA+37410  35.069  16.695  14.420
72151ION    NA+37411  18.627  23.189  12.856
72152ION    NA+37412  44.302  14.212   2.895
72153ION    NA+37413   7.849  15.689  10.339
72154ION    NA+37414  15.080  36.720   2.740
72155ION    NA+37415   2.789  13.737   0.867
72156ION    NA+37416  15.820  33.960   5.278
72157ION    NA+37417   9.144  21.889   0.298
72158ION    NA+37418   8.240  11.162  12.724
72159ION    NA+37419  12.412  31.234   0.263
72160ION    NA+37420  36.550  26.562  11.557
72161ION    NA+37421   1.747   8.217  14.469
72162ION    NA+37422  12.317  18.606  10.743
72163ION    NA+37423  29.612  42.893   5.084
72164ION    NA+37424  34.545  27.191   2.228
72165ION    NA+37425  25.839  37.805  10.986
72166ION    NA+37426  40.019  15.520  14.784
72167ION    NA+37427   9.694   6.612  12.596
72168ION    NA+37428  40.229   9.465   3.711
72169ION    NA+37429  11.376   4.286  11.965
72170ION    NA+37430  15.890  11.520  14.580
72171ION    NA+37431  29.071  31.327   4.417
72172ION    NA+37432   3.618  39.197   1.642
72173ION    NA+37433   7.043  11.648   1.538
72174ION    NA+37434  19.549  36.292   2.398
72175ION    NA+37435  34.159  37.889   3.049
72176ION    NA+37436  21.159   3.594  13.633
72177ION    NA+37437  12.004  25.115  12.612
72178ION    NA+37438  26.459  20.678   3.892
72179ION    NA+37439  42.731   0.022  13.137
72180ION    NA+37440  18.453   7.433  11.088
72181ION    NA+37441   4.854  30.663   2.822
72182ION    NA+37442  44.069   7.866  10.930
72183ION    NA+37443  29.085  18.615   1.754
72184ION    NA+37444  17.625  40.462  14.290
72185ION    NA+37445  38.986  16.463  12.081
72186ION    NA+37446  20.783   6.460   1.302
72187ION    NA+37447  22.984  10.771   3.095
72188ION    NA+37448  11.304  39.455  12.383
72189ION    NA+37449  32.054  21.036  12.786
72190ION    NA+37450  24.085  18.314  14.928
72191ION    NA+37451  19.798   7.839   0.211
72192ION    NA+37452  10.442  11.724   0.620
72193ION    NA+37453  32.080  20.511   1.844
72194ION    NA+37454  35.609   4.688   4.237
72195ION    NA+37455  34.513   6.852  14.424
72196ION    NA+37456  14.628  20.521   0.473
72197ION    NA+37457  31.002  30.466  13.255
72198ION    NA+37458   3.841  21.764  13.532
72199ION    NA+37459  22.208   6.891   2.317
72200ION    NA+37460  27.676  15.326   1.267
72201ION    NA+37461   2.237   1.499   2.605
72202ION    NA+37462  29.418  39.114  13.308
72203ION    NA+37463  27.106  13.788  13.407
72204ION    NA+37464   7.803   9.011  13.147
72205ION    NA+37465  24.574  30.562  13.569
72206ION    NA+37466  44.655  32.132   0.319
72207ION    NA+37467  34.885   4.792   2.262
72208ION    NA+37468  12.326  29.598   1.433
72209ION    NA+37469   1.695  41.833  14.808
72210ION    NA+37470  34.675  17.643   3.453
72211ION    NA+37471  19.599   7.571  12.446
72212ION    NA+37472   6.197   6.845  11.206
72213ION    NA+37473  12.582  41.534   0.092
72214ION    NA+37474   4.718   4.989  12.042
72215ION    NA+37475  36.346   5.377  12.960
72216ION    NA+37476  22.831  10.905  11.546
72217ION    NA+37477  14.719  42.374   3.593
72218ION    NA+37478  10.006  44.565  13.615
72219ION    NA+37479   6.032  10.343   2.859
72220ION    NA+37480  28.731   9.928  11.893
72221ION    NA+37481   7.345   7.664  14.426
72222ION    NA+37482  21.842  16.872  13.698
72223ION    NA+37483  39.141  42.010   2.701
72224ION    NA+37484  26.075  22.992   1.410
72225ION    NA+37485  44.764  31.550  14.444
72226ION    NA+37486   6.649  12.409  13.851
72227ION    NA+37487   8.090  23.304   1.213
72228ION    NA+37488  36.284   7.157   3.546
72229ION    NA+37489   7.294  27.493   2.838
72230ION    NA+37490  26.626   8.320  12.901
72231ION    NA+37491   9.316   1.180  11.571
72232ION    NA+37492  36.602  25.920   3.150
72233ION    NA+37493  27.104  36.436  11.557
72234ION    NA+37494  13.265  20.978   0.911
72235ION    NA+37495  21.961  21.146   5.630
72236ION    NA+37496  44.023  21.701  12.866
72237ION    NA+37497   5.686  18.088  13.075
72238ION    NA+37498   3.670   8.788  14.318
72239ION    NA+37499   9.866  44.467  11.400
72240ION    NA+37500  33.069  34.378   4.387
72241ION    NA+37501  12.735   7.849  13.954
72242ION    NA+37502  40.818  12.348   4.107
72243ION    NA+37503  36.814  17.356  12.211
72244ION    NA+37504  44.242  12.391   1.305
72245ION    NA+37505   2.984  32.831   0.435
72246ION    NA+37506  36.826  22.766   0.552
72247ION    NA+37507  25.034  30.009   1.950
72248ION    NA+37508   8.595  33.084   9.859
72249ION    NA+37509  42.416   6.821  12.495
72250ION    NA+37510  28.671  41.075  13.427
72251ION    NA+37511  10.737  19.168  10.907
72252ION    NA+37512  14.830  21.385  10.476
72253ION    NA+37513  22.847  34.159   1.655
72254ION    NA+37514   6.379  34.898   3.744
72255ION    NA+37515   2.258  11.796   4.108
72256ION    NA+37516  41.350   6.412   3.562
72257ION    NA+37517  29.571  36.468  12.557
72258ION    NA+37518   7.470  40.935   1.226
72259ION    NA+37519   2.843  11.138  14.444
72260ION    NA+37520  11.637  32.385  14.059
72261ION    NA+37521  42.535  11.381  12.579
72262ION    NA+37522  43.463   9.894   0.126
72263ION    NA+37523   7.617  18.135   2.419
72264ION    NA+37524  21.866  31.145   4.991
72265ION    NA+37525  35.871  26.914   1.683
72266ION    CL-37526  20.451  42.719  11.702
72267ION    CL-37527  17.655   8.799  14.320
72268ION    CL-37528   4.264  14.240   0.619
72269ION    CL-37529  42.848  43.961  11.222
72270ION    CL-37530  34.943  17.859  11.042
72271ION    CL-37531  14.685   3.299  14.567
72272ION    CL-37532  13.222  37.936   5.050
72273ION    CL-37533  39.208  40.248  13.746
72274ION    CL-37534  22.444  30.388   2.186
72275ION    CL-37535  15.909  35.021  14.363
72276ION    CL-37536  23.344  36.829   3.889
72277ION    CL-37537  12.322  29.993   2.986
72278ION    CL-37538  17.871  18.939   9.825
72279ION    CL-37539  28.211  22.832  12.554
72280ION    CL-37540  18.864   4.297   3.493
72281ION    CL-37541  43.533  33.063   3.408
72282ION    CL-37542  39.415  13.511  11.375
72283ION    CL-37543  11.560   1.404   3.937
72284ION    CL-37544   3.197   0.018   0.523
72285ION    CL-37545   9.222  12.151  11.112
72286ION    CL-37546   7.809  13.071  13.428
72287ION    CL-37547  30.328  33.479  14.573
72288ION    CL-37548   7.791   4.940  11.571
72289ION    CL-37549   4.411  10.808   0.451
72290ION    CL-37550  25.605   0.006   3.130
72291ION    CL-37551   9.075  20.754   4.372
72292ION    CL-37552  18.892  14.270   3.825
72293ION    CL-37553   1.956  29.437  14.941
72294ION    CL-37554  16.604  36.733  12.091
72295ION    CL-37555  28.795  20.480   3.110
72296ION    CL-37556  39.353  30.268   3.573
72297ION    CL-37557  14.095  28.089  12.535
72298ION    CL-37558  11.950  29.510  13.760
72299ION    CL-37559   2.199  12.418   2.010
72300ION    CL-37560  27.117  38.042   3.174
72301ION    CL-37561  39.209   4.065  11.590
72302ION    CL-37562  25.468  20.073  14.362
72303ION    CL-37563   1.664   8.360   4.541
72304ION    CL-37564  40.620  41.539   2.781
72305ION    CL-37565  32.593  41.326  12.344
72306ION    CL-37566  32.675  21.824  11.106
72307ION    CL-37567  15.053  34.044   2.788
72308ION    CL-37568  44.936  43.739   2.590
72309ION    CL-37569  26.748  24.442   2.987
72310ION    CL-37570  18.210  15.833   0.134
72311ION    CL-37571   5.808   7.747   1.339
72312ION    CL-37572  28.073   6.220  12.547
72313ION    CL-37573  29.219  38.530  11.261
72314ION    CL-37574  16.307  39.409  10.658
72315ION    CL-37575  26.450  10.738   2.484
72316ION    CL-37576  23.655  15.121  11.845
72317ION    CL-37577  36.965  18.783  10.705
72318ION    CL-37578  29.491   1.636  11.249
72319ION    CL-37579  41.412  16.527  13.784
72320ION    CL-37580  35.779  14.935   3.966
72321ION    CL-37581  37.081  37.668  13.494
72322ION    CL-37582   5.060   0.431  13.160
72323ION    CL-37583  42.195  32.317   1.249
72324ION    CL-37584   9.353  32.151   2.528
72325ION    CL-37585  15.011  18.106  11.168
72326ION    CL-37586   6.917  30.678  14.414
72327ION    CL-37587  38.005  43.939  12.562
72328ION    CL-37588  39.274  25.040   0.316
72329ION    CL-37589  34.538  28.654   4.169
72330ION    CL-37590   7.697  30.709  12.651
72331ION    CL-37591  36.790  20.799   5.062
72332ION    CL-37592  35.341  38.554   2.823
72333ION    CL-37593   2.739  12.972  12.567
72334ION    CL-37594  38.041  11.804  13.384
72335ION    CL-37595   3.383   0.250   1.482
72336ION    CL-37596   1.685  10.003  10.955
72337ION    CL-37597  28.186  38.497  13.362
72338ION    CL-37598  38.048  41.187   1.513
72339ION    CL-37599  10.819   0.491   3.867
72340ION    CL-37600  16.886  17.255  14.487
72341ION    CL-37601  17.570  10.494   2.883
72342ION    CL-37602  37.040   2.404  13.992
72343ION    CL-37603  38.307  12.141  14.830
72344ION    CL-37604  12.167   0.759   3.709
72345ION    CL-37605  25.394  26.992  13.381
72346ION    CL-37606   9.146   1.822  13.908
72347ION    CL-37607  20.343   3.074   2.639
72348ION    CL-37608  23.916   5.079   1.013
72349ION    CL-37609   5.405   3.858  14.597
72350ION    CL-37610  17.386  22.705  14.155
72351ION    CL-37611   1.775   2.630  12.557
72352ION    CL-37612   7.677  23.744   4.778
72353ION    CL-37613  20.373   4.049  14.854
72354ION    CL-37614  27.647  37.000   0.330
72355ION    CL-37615  12.672  32.129   1.362
72356ION    CL-37616  42.356   6.482  11.196
72357ION    CL-37617  33.142   7.121  13.482
72358ION    CL-37618   1.900  35.381   1.999
72359ION    CL-37619  36.067   7.978  14.425
72360ION    CL-37620  44.998  44.654  14.590
72361ION    CL-37621  27.556   2.807   2.294
72362ION    CL-37622  23.886  38.875  13.620
72363ION    CL-37623  36.094   4.709   2.745
72364ION    CL-37624  25.780  36.889  11.852
72365ION    CL-37625  14.311  23.572   1.126
72366ION    CL-37626  31.273  22.936  12.797
72367ION    CL-37627  24.176  16.278  12.338
72368ION    CL-37628  24.056   5.981  13.780
72369ION    CL-37629  32.073   3.902   1.528
72370ION    CL-37630  39.092  24.580  11.283
72371ION    CL-37631  13.932  38.450   4.757
72372ION    CL-37632  34.550  15.569  13.159
72373ION    CL-37633  40.727  35.607   0.817
72374ION    CL-37634  26.643  40.123  13.552
72375ION    CL-37635  38.839  14.078  14.217
72376ION    CL-37636  33.609  19.474  14.070
72377ION    CL-37637  26.200  42.424   3.188
72378ION    CL-37638   1.541   5.005   4.104
72379ION    CL-37639  43.418   8.358   1.880
72380ION    CL-37640  42.841  41.754  14.120
72381ION    CL-37641  40.838  22.063  12.892
72382ION    CL-37642  13.424  32.020   5.036
72383ION    CL-37643  13.763  34.939  13.789
72384ION    CL-37644  40.443   7.967   3.634
72385ION    CL-37645   6.889  10.851  11.551
72386ION    CL-37646   2.364  32.651  11.478
72387ION    CL-37647  33.309   7.739  14.910
72388ION    CL-37648   1.509   6.871   0.518
72389ION    CL-37649  19.984  30.448  11.463
72390ION    CL-37650  36.409  37.487   5.199
72391ION    CL-37651  15.524  17.727   4.686
72392ION    CL-37652  35.874   3.660  12.862
72393ION    CL-37653  28.242  42.564   0.924
72394ION    CL-37654  18.644  14.403   0.330
72395ION    CL-37655  32.589  30.918   1.171
72396ION    CL-37656  40.950  11.591  11.026
72397ION    CL-37657   3.691  24.441  12.084
72398ION    CL-37658  13.066  21.219   3.132
72399ION    CL-37659  24.236   1.049   0.755
72400ION    CL-37660  11.768   4.908   1.889
72401ION    CL-37661   4.946  24.448   1.764
72402ION    CL-37662  27.931  28.199   2.547
72403ION    CL-37663  10.182   3.223  11.852
72404ION    CL-37664  10.067  26.563  13.560
72405ION    CL-37665  26.270  16.037   3.522
72406ION    CL-37666  25.684  25.038   2.854
72407ION    CL-37667  30.212  13.320   5.031
72408ION    CL-37668  29.536  44.810   0.790
72409ION    CL-37669  19.484  31.985  10.748
72410ION    CL-37670   7.390  37.511  12.691
72411ION    CL-37671  34.027   0.295  10.809
72412ION    CL-37672  27.457  12.057  14.320
72413ION    CL-37673   9.312  38.156  11.504
72414ION    CL-37674  34.383   4.301   4.103
72415ION    CL-37675   4.169  16.249   0.691
72416ION    CL-37676  29.992  19.291  14.929
72417ION    CL-37677  16.515   6.603  12.779
72418ION    CL-37678  22.619  40.602   1.770
72419ION    CL-37679  37.795   0.770   0.699
72420ION    CL-37680  40.899  22.489   3.363
72421ION    CL-37681  44.707   8.569   4.971
72422ION    CL-37682   2.193  35.897   3.072
72423ION    CL-37683  40.260   8.374   0.948
72424ION    CL-37684  33.237   0.904   4.788
72425ION    CL-37685  23.002  31.534  14.974
72426ION    CL-37686  39.536   2.829   4.636
72427ION    CL-37687  10.981   4.508   2.360
72428ION    CL-37688   0.342  18.837   1.834
72429ION    CL-37689  22.891  38.769  13.884
72430ION    CL-37690   2.809   2.036   4.058
72431ION    CL-37691   4.840  33.010  11.536
72432ION    CL-37692  25.589  16.842  12.045
72433ION    CL-37693  15.301   5.074   0.550
72434ION    CL-37694  35.341  13.350  13.917
72435ION    CL-37695  30.201  22.426  11.729
72436ION    CL-37696  29.579  16.996   2.167
72437ION    CL-37697  24.920  28.830   2.833
72438ION    CL-37698  10.177  18.753   9.848
72439ION    CL-37699  30.972  10.296  14.741
72440ION    CL-37700   1.212  13.208   1.512
72441ION    CL-37701  28.238  36.772  11.117
72442ION    CL-37702  41.091   1.081   2.417
72443ION    CL-37703  14.769  30.688   0.461
72444ION    CL-37704  25.145  32.434   0.211
72445ION    CL-37705  42.795  26.220   3.036
72446ION    CL-37706   6.047  25.685   3.137
72447ION    CL-37707  17.932  27.059   2.709
72448ION    CL-37708   6.745  42.162   4.496
72449ION    CL-37709  23.317  15.283   4.587
72450ION    CL-37710  33.538  37.369  13.394
72451ION    CL-37711  34.403  17.479  11.793
72452ION    CL-37712   1.791  39.192  12.219
72453ION    CL-37713  31.269  28.758   3.448
72454ION    CL-37714  40.292  21.871   1.905
72455ION    CL-37715   8.947  31.105  12.012
72456ION    CL-37716  26.550  24.240  11.002
72457ION    CL-37717  36.981   0.586   0.148
72458ION    CL-37718  19.139  35.577  13.010
72459ION    CL-37719  22.014  36.816  12.740
72460ION    CL-37720   2.353  23.122  14.909
72461ION    CL-37721   0.033  42.991   4.121
72462ION    CL-37722  13.602  22.848   0.710
72463ION    CL-37723  43.271  34.001  11.921
72464ION    CL-37724  36.395  33.847   0.735
72465ION    CL-37725  33.221  29.892  14.533
72466ION    CL-37726   8.571  19.726  11.511
72467ION    CL-37727  22.165  39.465  11.252
72468ION    CL-37728   2.164  26.657   1.196
72469ION    CL-37729  29.597   7.914   0.495
72470ION    CL-37730   9.643  37.486   4.087
72471ION    CL-37731  42.373   1.539   0.969
72472ION    CL-37732  38.876   5.618   0.845
72473ION    CL-37733  38.038  23.076   3.638
72474ION    CL-37734  11.758  21.962   3.338
72475ION    CL-37735   1.890  19.435   2.159
72476ION    CL-37736  34.998   9.846   1.279
72477ION    CL-37737  44.949   5.919   4.636
72478ION    CL-37738  31.082  13.184  11.508
72479ION    CL-37739  11.100  43.151  10.971
72480ION    CL-37740  26.523   4.329   0.355
72481ION    CL-37741  18.701  10.842   1.764
72482ION    CL-37742   2.651  22.462   1.945
72483ION    CL-37743  21.606  38.245  12.282
72484ION    CL-37744  24.549  25.532  12.101
72485ION    CL-37745  33.407  16.543   2.329
72486ION    CL-37746  10.220   4.051   0.081
72487ION    CL-37747   9.729  41.951   4.344
72488ION    CL-37748  17.175  23.262  14.958
72489ION    CL-37749  28.890  24.765   4.965
72490ION    CL-37750  23.519   0.400   1.012
72491ION    CL-37751  40.422   8.253  13.931
72492ION    CL-37752   8.391  29.476  12.960
72493ION    CL-37753  42.478   9.780   2.401
72494ION    CL-37754   0.024  44.636   2.658
72495ION    CL-37755  10.592  12.014   0.935
72496ION    CL-37756  19.537  13.499  14.265
72497ION    CL-37757  25.837  24.201  13.224
72498ION    CL-37758   5.937  30.281   4.816
72499ION    CL-37759  17.712  38.950   1.841
72500ION    CL-37760  41.341   8.376  11.060
72501ION    CL-37761  35.345  27.786  13.840
72502ION    CL-37762  35.348  38.787  14.613
72503ION    CL-37763  28.577  28.213   3.311
72504ION    CL-37764  11.418   9.799  11.198
72505ION    CL-37765  32.389  31.444  13.185
72506ION    CL-37766  28.430   2.885   0.726
72507ION    CL-37767  43.800  14.134  14.543
72508ION    CL-37768  37.848  15.195  12.952
72509ION    CL-37769   5.678  28.820  14.658
72510ION    CL-37770   7.546  43.371   0.593
72511ION    CL-37771  21.226  43.458  13.085
72512ION    CL-37772   8.262  37.310   1.774
72513ION    CL-37773  24.489  31.000   1.722
72514ION    CL-37774  24.116  12.638   2.903
72515ION    CL-37775  31.510  30.723  14.825
72516ION    CL-37776  10.160  11.478   0.344
72517ION    CL-37777   1.824   0.473  11.524
72518ION    CL-37778  10.488  18.761  14.017
72519ION    CL-37779  35.120  34.961   1.713
72520ION    CL-37780  13.083  32.073  13.164
72521ION    CL-37781  40.982  28.560   3.789
72522ION    CL-37782  43.517   7.145   2.876
72523ION    CL-37783   1.139  28.409   2.857
72524ION    CL-37784  23.731  25.725   0.295
72525ION    CL-37785  33.675   1.036  10.077
72526ION    CL-37786  25.662  26.524   3.750
72527ION    CL-37787   1.924  16.230  13.164
72528ION    CL-37788   4.660   7.182   1.714
72529ION    CL-37789   3.107   1.677  12.439
72530ION    CL-37790  12.473   2.607   5.061
72531ION    CL-37791  17.095  22.114   2.725
72532ION    CL-37792  44.694  24.001  13.559
72533ION    CL-37793  24.103  36.875  14.218
72534ION    CL-37794   0.452  34.997   4.061
72535ION    CL-37795   2.226  11.710  12.708
72536ION    CL-37796  37.893  22.934  13.412
72537ION    CL-37797  20.642  42.515   1.152
72538ION    CL-37798  32.428  43.173  11.982
72539ION    CL-37799  30.012  36.217  14.983
72540ION    CL-37800  32.784  25.099   0.036
72541ION    CL-37801  23.044  11.107   2.807
72542ION    CL-37802  33.178  24.005   4.216
72543ION    CL-37803  32.203  12.883   2.703
72544ION    CL-37804  41.554  21.396  11.778
72545ION    CL-37805   5.421  16.179   0.469
72546ION    CL-37806  18.201  40.835   1.191
72547ION    CL-37807   8.361  17.991  11.072
72548ION    CL-37808  18.820   0.187   1.410
72549ION    CL-37809   7.649  21.723  10.753
72550ION    CL-37810   1.640   4.081   1.661
72551ION    CL-37811  35.824  17.284   0.378
72552ION    CL-37812  23.930  34.224  10.220
72553ION    CL-37813   2.870   3.395   0.374
72554ION    CL-37814  40.352   0.539   1.474
72555ION    CL-37815  26.642  14.579   0.407
72556ION    CL-37816  33.183  13.928  10.094
72557ION    CL-37817  39.111   2.196   3.552
72558ION    CL-37818   3.987  40.220   3.371
72559ION    CL-37819  20.560   5.407   0.312
72560ION    CL-37820  28.556  40.102  14.448
72561ION    CL-37821  26.243  33.615   4.129
72562ION    CL-37822  14.388  26.498  14.371
72563ION    CL-37823   9.334   7.972   3.849
72564ION    CL-37824  26.552  23.119   4.162
72565ION    CL-37825  27.471  14.012  13.576
72566ION    CL-37826   6.140  27.155   4.861
72567ION    CL-37827  27.996  35.923   3.726
72568ION    CL-37828  28.750  31.256   4.105
72569ION    CL-37829  40.886  36.265  12.840
72570ION    CL-37830  18.847   9.402  13.502
72571ION    CL-37831  11.411  13.184  13.566
72572ION    CL-37832   0.380   9.884  14.699
72573ION    CL-37833  10.047   3.354  14.151
72574ION    CL-37834  23.513   1.433  14.084
72575ION    CL-37835  20.712  34.255   4.507
72576ION    CL-37836  12.658  40.882  10.908
72577ION    CL-37837  28.038  20.001   1.039
72578ION    CL-37838  30.596  44.081  13.459
72579ION    CL-37839  18.721  34.677  11.197
72580ION    CL-37840  38.918  38.294  11.555
72581ION    CL-37841  15.113   7.251   4.807
72582ION    CL-37842   5.489  13.728   0.272
72583ION    CL-37843  11.361  21.490   4.125
72584ION    CL-37844   6.465  25.986  11.302
72585ION    CL-37845   3.796  37.532  11.462
72586ION    CL-37846  19.887  41.466  10.824
72587ION    CL-37847  43.544  34.820  12.560
72588ION    CL-37848   6.184  32.471   0.938
72589ION    CL-37849  36.501  19.715   0.895
72590ION    CL-37850   2.638  10.326   0.566
72591ION    CL-37851   3.385   7.291   4.904
72592ION    CL-37852   6.214  10.114   2.509
72593ION    CL-37853  13.135  10.278   1.986
72594ION    CL-37854   0.152  26.513  11.132
72595ION    CL-37855  30.613  41.602  14.727
72596ION    CL-37856   6.891   4.244  14.349
72597ION    CL-37857  28.361  32.073  12.157
72598ION    CL-37858  17.367  40.310  10.349
72599ION    CL-37859  36.153  42.921   0.451
72600ION    CL-37860  13.525  29.639  10.396
72601ION    CL-37861  34.481  41.057  12.563
72602ION    CL-37862  30.160   3.032  12.118
72603ION    CL-37863   8.383  41.830  11.919
72604ION    CL-37864   9.625  40.387  14.991
72605ION    CL-37865  35.396  33.774  11.725
72606ION    CL-37866  42.800  33.954   1.175
72607ION    CL-37867  36.149   7.205   3.124
72608ION    CL-37868   4.248  25.641   3.449
72609ION    CL-37869  13.116  27.387  13.957
72610ION    CL-37870  20.120  28.934  12.579
72611ION    CL-37871  17.024   4.682   1.813
72612ION    CL-37872  17.779  12.478   1.820
72613ION    CL-37873  38.814  20.812   3.318
72614ION    CL-37874  34.682   6.953  14.025
72615ION    CL-37875   9.393   8.478   1.457
72616ION    CL-37876   9.561  25.444   5.453
72617ION    CL-37877  24.147  41.330  12.163
72618ION    CL-37878  14.493  41.957  12.320
72619ION    CL-37879  25.713  28.843   2.153
72620ION    CL-37880  32.049  23.952  13.987
72621ION    CL-37881  13.680  29.116   2.724
72622ION    CL-37882  28.341  24.260   1.457
72623ION    CL-37883  41.812  44.108   2.442
72624ION    CL-37884  16.643  23.495  12.873
72625ION    CL-37885  17.156   0.903  14.090
72626ION    CL-37886  35.023  26.736   4.584
72627ION    CL-37887  15.320  32.232  11.073
72628ION    CL-37888  17.570  36.493  12.382
72629ION    CL-37889  15.278  22.595   1.172
72630ION    CL-37890  29.122  38.252   3.228
72631ION    CL-37891  20.169  30.627   1.403
72632ION    CL-37892  30.498  10.952   9.867
72633ION    CL-37893  23.063  25.904  10.242
72634ION    CL-37894  31.235  32.483   0.046
72635ION    CL-37895  24.471  14.706  11.184
72636ION    CL-37896   8.361  25.584   0.937
72637ION    CL-37897  37.941  12.815   2.430
72638ION    CL-37898   6.669  41.998  11.948
72639ION    CL-37899  42.051  23.404  10.833
72640ION    CL-37900  14.986  24.047  13.479
72641ION    CL-37901   9.374  18.869   1.002
72642ION    CL-37902   0.210  18.551   4.065
72643ION    CL-37903  43.784   1.283   5.092
72644ION    CL-37904   3.289  35.624  11.537
72645ION    CL-37905  39.505  35.529  14.543
72646ION    CL-37906   8.211  20.117  14.421
72647ION    CL-37907  39.231  21.344  13.380
72648ION    CL-37908  38.609   7.549  12.552
72649ION    CL-37909  13.918  15.277   9.860
72650ION    CL-37910  37.442  32.507   0.735
72651ION    CL-37911  29.576  22.567   1.890
72652ION    CL-37912  24.639  37.635  14.774
72653ION    CL-37913  18.475   8.049   3.714
72654ION    CL-37914  32.558  12.676   3.617
72655ION    CL-37915   7.501   8.359   4.574
72656ION    CL-37916  35.799  30.619  11.783
72657ION    CL-37917  36.881  11.803  14.269
72658ION    CL-37918  42.954  41.862  10.396
72659ION    CL-37919   2.314  20.782  10.752
72660ION    CL-37920  20.016  35.903   4.789
72661ION    CL-37921  38.198  25.569   0.949
72662ION    CL-37922   1.505   6.863  10.839
72663ION    CL-37923  28.930  20.287  12.121
72664ION    CL-37924   1.819  36.161   1.369
72665ION    CL-37925  22.760  21.071   2.121
72666ION    CL-37926  17.483  42.322  11.496
72667ION    CL-37927  24.198   2.502   3.415
72668ION    CL-37928  38.931   0.053  11.085
72669ION    CL-37929  31.527  41.011  12.264
72670ION    CL-37930  32.342  29.953  11.596
72671ION    CL-37931  40.691  30.500  10.301
72672ION    CL-37932  35.484  18.613   1.267
72673ION    CL-37933  17.310   0.386   4.133
72674ION    CL-37934  41.722  38.101   1.865
72675ION    CL-37935  37.574   1.413   1.432
72676ION    CL-37936  38.809  23.787   1.821
72677ION    CL-37937  22.696   3.020   4.355
72678ION    CL-37938  39.172  22.055  11.931
72679ION    CL-37939  31.047  31.125   3.838
72680ION    CL-37940  36.579  21.711  12.510
72681ION    CL-37941  31.403  41.571  11.445
72682ION    CL-37942  38.021   9.440   1.297
72683ION    CL-37943  21.270  23.424  14.852
72684ION    CL-37944   6.569   8.264  11.020
72685ION    CL-37945  34.091  29.336  12.147
72686ION    CL-37946  20.071  19.474  10.627
72687ION    CL-37947  19.056  24.978  10.403
72688ION    CL-37948  29.570  22.188   2.815
72689ION    CL-37949  28.081   8.992   1.600
72690ION    CL-37950  24.974   8.955   0.167
72691ION    CL-37951  28.765  42.252   4.084
72692ION    CL-37952  27.775  44.429  14.999
72693ION    CL-37953  43.402  18.752  13.867
72694ION    CL-37954   9.288  16.842  14.606
72695ION    CL-37955  32.790  43.011   0.344
72696ION    CL-37956   0.777  12.796   9.889
72697ION    CL-37957   8.385  27.971  14.772
72698ION    CL-37958  38.339  42.243   0.405
72699ION    CL-37959  32.712  26.565  11.439
72700ION    CL-37960  21.732  21.903   0.030
72701ION    CL-37961  15.132   5.914  11.539
72702ION    CL-37962  29.935  39.034   0.735
72703ION    CL-37963  15.862  13.559  12.876
72704ION    CL-37964  44.473  26.108  14.285
72705ION    CL-37965  28.381   2.177   3.886
72706ION    CL-37966  34.244  19.242  11.144
72707ION    CL-37967  32.270  23.564   4.149
72708ION    CL-37968  27.171  13.584   0.547
72709ION    CL-37969  22.345  16.861  11.684
72710ION    CL-37970  13.198  15.147   3.984
72711ION    CL-37971   1.511   7.344  12.385
72712ION    CL-37972  38.054  37.442  13.445
72713ION    CL-37973  31.020  19.035  12.938
72714ION    CL-37974  44.745   8.222  13.415
72715ION    CL-37975  11.781  23.158   1.557
72716ION    CL-37976  13.322  41.869  13.575
72717ION    CL-37977  25.734   5.554   0.399
72718ION    CL-37978  20.009  34.569  12.654
72719ION    CL-37979  11.701  39.668   0.049
72720ION    CL-37980  28.447  27.213   4.019
72721ION    CL-37981  43.731  41.351  12.462
72722ION    CL-37982  22.766  31.525  12.527
72723ION    CL-37983  13.745  16.212   2.253
72724ION    CL-37984   2.912  29.206   2.335
72725ION    CL-37985  23.757  23.991  14.227
72726ION    CL-37986  33.444   4.157  14.403
72727ION    CL-37987   2.278  11.375   1.228
72728ION    CL-37988  10.269  17.602  14.502
72729ION    CL-37989  21.848   3.778   5.248
72730ION    CL-37990  32.182   8.703  12.955
72731ION    CL-37991   0.101  23.780   3.923
72732ION    CL-37992  44.599  31.974   1.824
72733ION    CL-37993  28.380   5.116  13.351
72734ION    CL-37994  41.898  33.374   3.710
72735ION    CL-37995  26.475  30.721  14.772
72736ION    CL-37996  43.356  13.462  10.786
72737ION    CL-37997  44.003  35.222   0.262
72738ION    CL-37998  40.399  23.138  13.499
72739ION    CL-37999  44.372  15.997   0.724
72740ION    CL-38000  35.291   2.325  13.149
72741ION    CL-38001  25.814  32.364  12.592
72742ION    CL-38002  40.444  32.984  13.837
72743ION    CL-38003  24.773   6.675  13.849
72744ION    CL-38004  44.237  42.050  14.403
72745ION    CL-38005  30.397  26.866   2.872
72746ION    CL-38006  14.737  43.714   3.944
72747ION    CL-38007  23.198  11.424  12.204
72748ION    CL-38008  36.838  11.387  10.763
72749ION    CL-38009  40.598  23.187   1.804
72750ION    CL-38010   0.966  33.415   9.919
72751ION    CL-38011  39.513   1.385   3.585
72752ION    CL-38012  32.213   5.826   2.360
72753ION    CL-38013   1.867   8.721  13.286
72754ION    CL-38014  14.215  33.195   4.639
72755ION    CL-38015  17.704   8.753   4.506
72756ION    CL-38016  32.157  25.614   1.263
72757ION    CL-38017  42.971  28.392  14.396
72758ION    CL-38018  31.966  28.016   1.845
72759ION    CL-38019   2.734  23.780  12.535
72760ION    CL-38020  11.192  27.906   4.719
72761ION    CL-38021  19.476  40.458   0.831
72762ION    CL-38022   6.685  19.324   9.874
72763ION    CL-38023  35.740  39.631   2.749
72764ION    CL-38024  24.728  11.637  11.184
72765ION    CL-38025   8.809  24.454   4.983
72766ION    CL-38026  15.273   5.935  14.046
72767ION    CL-38027  40.989  37.073   2.151
72768ION    CL-38028   0.018  28.484   2.589
72769ION    CL-38029  18.069  33.919  11.225
72770ION    CL-38030  11.008  41.166  13.972
72771ION    CL-38031  28.404  30.601  11.107
72772ION    CL-38032  37.503  40.285  14.382
72773ION    CL-38033  37.368  24.274   5.021
72774ION    CL-38034  30.004   3.246  10.490
72775ION    CL-38035  23.500  38.000  10.017
72776ION    CL-38036  27.144  36.273  14.863
72777ION    CL-38037  10.494  32.990   0.026
72778ION    CL-38038  35.937   9.192  13.917
72779ION    CL-38039  35.009   7.797  13.070
72780ION    CL-38040   7.955  25.620   3.684
72781ION    CL-38041   4.850  35.679   2.678
72782ION    CL-38042   7.469  11.776   1.643
72783ION    CL-38043   4.421  39.333  12.951
72784ION    CL-38044  20.354  20.070   2.602
72785ION    CL-38045  37.618  10.145   0.480
72786ION    CL-38046  37.717  41.464   2.414
72787ION    CL-38047  29.727  38.575   1.599
72788ION    CL-38048  11.456  20.220   0.379
72789ION    CL-38049  25.896  19.978  12.038
72790ION    CL-38050  35.406   1.977   1.721
72791ION    CL-38051   9.105  43.782  12.875
72792ION    CL-38052  38.047  42.954  13.994
72793ION    CL-38053  39.642  22.680   0.672
72794ION    CL-38054  15.530  42.788   9.805
72795ION    CL-38055  41.968  35.697   1.563
72796ION    CL-38056  25.326  27.113   0.289
72797ION    CL-38057  27.198  41.403   0.975
72798ION    CL-38058  41.423  24.388   3.781
72799ION    CL-38059   5.468  38.101   4.728
72800ION    CL-38060  27.191  20.498   0.781
72801ION    CL-38061  22.129  32.931   2.518
72802ION    CL-38062  15.566   6.833   2.212
72803ION    CL-38063   0.592  21.281   4.861
72804ION    CL-38064   4.277  44.760  10.813
72805ION    CL-38065  13.840  29.970  14.068
72806ION    CL-38066  23.528  14.710  14.807
72807ION    CL-38067  21.356  21.586   4.023
72808ION    CL-38068   7.745  42.959   3.838
72809ION    CL-38069  30.690  30.185  13.092
72810ION    CL-38070  19.590  20.695   2.765
72811ION    CL-38071   1.064  36.713  13.660
72812ION    CL-38072  38.027  42.074  14.470
72813ION    CL-38073   8.854  12.701   1.376
72814ION    CL-38074  21.812  43.957  14.235
72815ION    CL-38075   2.495  44.418  12.238
72816ION    CL-38076  37.078   8.379   0.829
72817ION    CL-38077  12.751  37.821  13.593
72818ION    CL-38078  10.924  15.922   3.667
72819ION    CL-38079   4.519  32.048  14.852
72820ION    CL-38080  15.709  44.409  14.344
72821ION    CL-38081  41.981  34.122  12.781
72822ION    CL-38082   1.428   1.521  14.123
72823ION    CL-38083   1.891  10.957   3.367
72824ION    CL-38084  31.591  42.852   2.346
72825ION    CL-38085  28.904   3.903   1.318
72826ION    CL-38086  43.899  21.312  10.768
72827ION    CL-38087  15.540  39.840  13.052
72828ION    CL-38088  34.127  20.087  13.135
72829ION    CL-38089  35.831   1.198   2.622
72830ION    CL-38090  32.833  31.470   4.217
72831ION    CL-38091  20.043   7.511   0.032
72832ION    CL-38092  34.788  18.881  12.968
72833ION    CL-38093  14.416  38.902   0.507
72834ION    CL-38094  42.088  19.241  10.709
72835ION    CL-38095  38.706  29.467  11.113
72836ION    CL-38096  38.295   7.172  11.680
72837ION    CL-38097  12.510  27.453   9.810
72838ION    CL-38098  35.960   2.946  13.557
72839ION    CL-38099  29.227  16.641  14.327
72840ION    CL-38100  16.643  44.868   1.503
72841ION    CL-38101  16.816   7.193   5.107
72842ION    CL-38102   1.735  43.284  12.190
72843ION    CL-38103  38.602   5.680  11.623
72844ION    CL-38104  25.097  26.567   2.927
72845ION    CL-38105  27.759  37.723  12.070
72846ION    CL-38106  19.804  36.390  12.582
72847ION    CL-38107  15.599  33.353  14.051
72848ION    CL-38108  37.885  25.398  14.182
72849ION    CL-38109  32.852  15.083   1.309
72850ION    CL-38110   0.675  36.711  10.431
72851ION    CL-38111  19.579  31.571   4.217
72852ION    CL-38112   3.640  24.125   1.616
72853ION    CL-38113  37.042  14.077  11.812
72854ION    CL-38114   6.421  13.593   2.781
72855ION    CL-38115  17.357  15.344   4.220
72856ION    CL-38116  37.044   9.440  12.179
72857ION    CL-38117  20.989  10.630  13.534
72858ION    CL-38118  18.677  44.455  12.524
72859ION    CL-38119  15.746  24.931   4.590
72860ION    CL-38120   7.922  12.315   0.601
72861ION    CL-38121  36.912   1.313   3.496
72862ION    CL-38122  19.649  21.996  13.439
72863ION    CL-38123   3.381  11.093  11.266
72864ION    CL-38124  43.818  13.953   1.698
72865ION    CL-38125  40.134   1.482  12.112
72866ION    CL-38126  32.327  10.878  12.819
72867ION    CL-38127  25.904   1.555   0.250
72868ION    CL-38128  17.592  11.628   1.323
72869ION    CL-38129  12.721  24.313   2.903
72870ION    CL-38130  41.225   6.354  11.017
72871ION    CL-38131  32.249  29.413   3.531
72872ION    CL-38132  15.425   8.073   5.169
72873ION    CL-38133  12.104   6.854  14.081
72874ION    CL-38134  15.757  44.307  12.973
72875ION    CL-38135   9.940  20.904  14.984
72876ION    CL-38136   4.912  21.953   4.061
72877ION    CL-38137  22.181  28.903   2.180
72878ION    CL-38138  13.207  16.658  11.832
72879ION    CL-38139  15.712   5.977   2.387
72880ION    CL-38140   4.331  24.170  10.819
72881ION    CL-38141  34.053  12.204  10.906
72882ION    CL-38142  10.176  37.742  12.631
72883ION    CL-38143   7.698  24.936  13.112
72884ION    CL-38144  19.495  31.062  13.026
72885ION    CL-38145  39.953  22.216  14.396
72886ION    CL-38146  28.013  28.299  13.385
72887ION    CL-38147  27.297  23.779   4.061
72888ION    CL-38148  14.293  25.078   3.145
72889ION    CL-38149  22.171  41.869   0.499
72890ION    CL-38150  41.502  26.031   1.167
72891ION    CL-38151  16.291   1.990   4.390
72892ION    CL-38152  15.274   5.215   1.866
72893ION    CL-38153  42.266  33.222   1.206
72894ION    CL-38154   5.951  19.220   0.902
72895ION    CL-38155  44.122   7.767   3.374
72896ION    CL-38156   0.930   4.841   4.745
72897ION    CL-38157  38.468  12.862  11.947
72898ION    CL-38158  10.576  13.245  12.916
72899ION    CL-38159  17.204  18.879   1.962
72900ION    CL-38160  14.182   9.894   0.198
72901ION    CL-38161  32.396  20.353  12.053
72902ION    CL-38162   0.569  35.952  11.560
72903ION    CL-38163  10.834  41.343  10.391
72904ION    CL-38164  36.926  23.672  14.298
72905ION    CL-38165  38.434  35.368   1.622
72906ION    CL-38166  41.246  28.582   0.553
72907ION    CL-38167  41.409  16.410   4.303
72908ION    CL-38168  31.141   0.086   4.901
72909ION    CL-38169   2.952  23.442   3.788
72910ION    CL-38170   5.808  25.142   1.923
72911ION    CL-38171  29.007  13.075   3.220
72912ION    CL-38172   6.737  41.716   0.283
72913ION    CL-38173  36.393  27.713   3.113
72914ION    CL-38174  39.357  20.996   0.569
72915ION    CL-38175  29.663   5.115  13.264
72916ION    CL-38176  14.529   8.201  10.711
72917ION    CL-38177   7.188   8.075  14.349
72918ION    CL-38178   1.491  28.678   1.536
72919ION    CL-38179  19.135  12.134  14.069
72920ION    CL-38180   7.389  10.792   0.597
72921ION    CL-38181  20.103  13.494   0.846
72922ION    CL-38182  36.224  38.734  14.116
72923ION    CL-38183  12.110   6.204  11.543
72924ION    CL-38184  43.295   4.759   3.511
72925ION    CL-38185  26.955   7.952   5.052
72926ION    CL-38186  14.695  36.008   0.546
72927ION    CL-38187  14.748  35.422   2.509
72928ION    CL-38188  12.825  29.429  11.417
72929ION    CL-38189  18.568  43.560   0.009
72930ION    CL-38190  30.107  43.241  12.593
72931ION    CL-38191  21.593  10.285  12.809
72932ION    CL-38192  16.648  32.647  12.126
72933ION    CL-38193  20.526  16.189   0.639
72934ION    CL-38194  37.327   6.880  14.390
72935ION    CL-38195  33.528  25.689  12.072
72936ION    CL-38196   7.208  41.937   1.492
72937ION    CL-38197   6.396  15.582   3.708
72938ION    CL-38198  33.540  32.955  11.959
72939ION    CL-38199   8.974  20.575  12.559
72940ION    CL-38200  10.634  44.842   2.100
72941ION    CL-38201  43.369  11.449   0.969
72942ION    CL-38202  38.567  33.945   3.237
72943ION    CL-38203   8.203  12.748   3.359
72944ION    CL-38204  15.225  40.478  11.339
72945ION    CL-38205  13.662  34.462   2.824
72946ION    CL-38206  38.919  24.222  10.365
72947ION    CL-38207  34.475  40.006  12.507
72948ION    CL-38208  26.412  22.708   1.491
72949ION    CL-38209  40.694   4.017  10.278
72950ION    CL-38210  35.830  25.122  14.965
72951ION    CL-38211  34.375  34.202   2.263
72952ION    CL-38212  13.465  35.400   0.879
72953ION    CL-38213  12.314  27.187   2.190
72954ION    CL-38214  40.298  23.180   4.198
72955ION    CL-38215   2.373   3.765   0.883
72956ION    CL-38216  29.981  35.801   1.300
72957ION    CL-38217  22.007   6.584   2.586
72958ION    CL-38218  29.081   4.501  10.324
72959ION    CL-38219  29.793  35.110   5.026
72960ION    CL-38220   9.261  29.053  13.391
72961ION    CL-38221   7.404  18.634  14.691
72962ION    CL-38222   3.698  25.663  12.509
72963ION    CL-38223   6.891   9.125   3.254
72964ION    CL-38224  41.003  39.811   2.350
72965ION    CL-38225  24.329  14.720  12.955
72966ION    CL-38226  25.435  43.901   3.727
72967ION    CL-38227   2.817  43.371   0.068
72968ION    CL-38228  25.933   4.633  11.944
72969ION    CL-38229  36.972   2.384  11.377
72970ION    CL-38230  29.694   2.138  10.391
72971ION    CL-38231   4.007  19.111   3.777
72972ION    CL-38232   9.071  28.213   3.621
72973ION    CL-38233  40.079  41.942  11.096
72974ION    CL-38234   8.288  29.340   1.314
72975ION    CL-38235  13.168  10.374   0.800
72976ION    CL-38236   6.547  40.842   0.219
72977ION    CL-38237   8.110  33.601   2.006
72978ION    CL-38238  26.216  12.698   1.347
72979ION    CL-38239   0.371  12.831  12.135
72980ION    CL-38240  35.546  18.472   3.153
72981ION    CL-38241   3.627  27.559  14.038
72982ION    CL-38242  12.446  24.730  14.896
72983ION    CL-38243  24.693  13.547   3.534
72984ION    CL-38244  31.113   1.186  10.980
72985ION    CL-38245   5.752  42.565  11.184
72986ION    CL-38246  26.498  33.588   0.017
72987ION    CL-38247  29.909  41.457  13.503
72988ION    CL-38248  30.232  29.921  10.128
72989ION    CL-38249  24.913  24.254  13.655
72990ION    CL-38250  39.508   5.374  11.182
72991ION    CL-38251   4.649  15.316  14.556
72992ION    CL-38252  43.058  18.242   3.968
72993ION    CL-38253   5.582   4.918   4.508
72994ION    CL-38254  37.088  25.060   0.220
72995ION    CL-38255   2.691  19.121  13.846
72996ION    CL-38256  24.295  33.488   0.426
72997ION    CL-38257  12.875  17.034   3.650
72998ION    CL-38258  21.083  29.011  12.022
72999ION    CL-38259  35.527  20.877   1.299
73000ION    CL-38260  44.729  24.262   3.219
73001ION    CL-38261  28.750  40.148   4.359
73002ION    CL-38262  23.461  44.539   2.231
73003ION    CL-38263  42.383  22.530   0.760
73004ION    CL-38264  20.802  37.537  13.085
73005ION    CL-38265  30.966  43.928   4.255
73006ION    CL-38266  42.008  34.041  13.778
73007ION    CL-38267  43.857  30.569   4.878
73008ION    CL-38268  22.589  32.556   1.806
73009ION    CL-38269  38.705  29.711   0.464
73010ION    CL-38270  22.081  23.871  14.473
73011ION    CL-38271  18.329  29.294  14.176
73012ION    CL-38272  20.736  44.652   2.359
73013ION    CL-38273  14.803  25.516  10.705
73014ION    CL-38274  43.120   2.265   4.617
73015ION    CL-38275  44.018  20.809  14.789
73016ION    CL-38276  40.934  33.344   4.221
73017ION    CL-38277   4.753  20.943  13.598
73018ION    CL-38278  24.977  18.417   0.853
73019ION    CL-38279  28.692  20.878   0.831
73020ION    CL-38280  32.017  10.635  11.378
73021ION    CL-38281  41.519  14.226  14.299
73022ION    CL-38282  31.016   4.538  11.028
73023ION    CL-38283   1.370  29.621  11.171
73024ION    CL-38284  13.942  16.799  13.843
73025ION    CL-38285  18.931  36.182   4.112
73026ION    CL-38286  20.925  17.082   3.283
73027ION    CL-38287  18.856   3.712  12.467
73028ION    CL-38288   0.695  39.640  14.855
73029ION    CL-38289   9.673  36.570   1.966
73030ION    CL-38290   8.485   0.593   0.518
73031ION    CL-38291  32.812   6.700  11.811
73032ION    CL-38292  14.004  12.851  11.485
73033ION    CL-38293   3.737  25.380   5.526
73034ION    CL-38294  22.605  37.103   2.493
73035ION    CL-38295  15.364  20.693   4.922
73036ION    CL-38296  24.767  43.615  11.484
73037ION    CL-38297  35.658  32.941  11.160
73038ION    CL-38298   2.388  15.346  13.873
73039ION    CL-38299   5.621  40.122  11.889
73040ION    CL-38300  44.351  40.491  12.360
73041ION    CL-38301   3.550  16.798   2.185
73042ION    CL-38302  19.542  17.059  10.717
73043ION    CL-38303  10.967  20.961  14.719
73044ION    CL-38304   3.188  35.979   3.022
73045ION    CL-38305  14.879  40.294   3.112
73046ION    CL-38306  43.338  26.044  11.580
73047ION    CL-38307  19.724   3.335   1.749
73048ION    CL-38308  40.673  28.855  10.368
73049ION    CL-38309   2.693   4.324   0.245
73050ION    CL-38310  22.568  34.860  11.901
73051ION    CL-38311  39.657  22.838   4.608
73052ION    CL-38312  22.512  11.399  12.774
73053ION    CL-38313   9.116  39.804  11.042
73054ION    CL-38314   6.415  36.087   3.123
73055ION    CL-38315  12.319  17.295  11.052
73056ION    CL-38316  17.056  27.301   2.715
73057ION    CL-38317   0.905   5.171  14.812
73058ION    CL-38318   9.759   8.407   0.529
73059ION    CL-38319  24.500   7.644  13.951
73060ION    CL-38320  33.100  24.701   1.314
73061ION    CL-38321  11.817  40.637   0.270
73062ION    CL-38322  44.854   7.896   2.631
73063ION    CL-38323  15.431  33.605   1.007
73064ION    CL-38324  18.991  18.792  13.206
73065ION    CL-38325   0.911  23.474   0.441
73066ION    CL-38326  34.855  40.935  11.583
73067ION    CL-38327  24.864  16.666  11.369
73068ION    CL-38328  36.865  30.593   9.925
73069ION    CL-38329  16.271  17.238   4.774
73070ION    CL-38330  32.756  19.798   0.252
73071ION    CL-38331   0.977  36.533   3.061
73072ION    CL-38332  23.654  11.873   0.111
73073ION    CL-38333  17.503  41.619  12.988
73074ION    CL-38334  44.087  33.160   4.742
73075ION    CL-38335  36.208  21.317  13.627
73076ION    CL-38336  10.262  22.203  13.491
73077ION    CL-38337  44.184  39.720  11.300
73078ION    CL-38338  29.272  31.194   4.820
73079ION    CL-38339  17.345  29.605  14.303
73080ION    CL-38340  12.003  23.216   4.035
73081ION    CL-38341  26.924  20.374   2.971
73082ION    CL-38342  32.264  44.269   0.702
73083ION    CL-38343  16.934   9.087   0.366
73084ION    CL-38344  14.837  12.346  12.014
73085ION    CL-38345   1.334   1.294  10.632
73086ION    CL-38346   8.558  41.182   3.861
73087ION    CL-38347  31.544  25.761  13.943
73088ION    CL-38348  21.397  33.689   1.432
73089ION    CL-38349  21.545   2.171   1.466
73090ION    CL-38350  33.203   9.682  12.947
73091ION    CL-38351  19.486  21.969  12.048
73092ION    CL-38352  29.213   3.478   2.234
73093ION    CL-38353  38.892  29.375   1.515
73094ION    CL-38354  32.899  25.934   3.789
73095ION    CL-38355  31.121  21.676   9.782
73096ION    CL-38356   0.239  10.458  10.926
73097ION    CL-38357   6.216  11.402   0.089
73098ION    CL-38358  24.016  29.365   2.747
73099ION    CL-38359   7.161  41.220   1.042
73100ION    CL-38360  36.549  23.632   0.122
73101ION    CL-38361  27.671   7.091   0.122
73102ION    CL-38362   2.939  22.904  14.118
73103ION    CL-38363   2.405  40.449   1.901
73104ION    CL-38364  24.795  28.422  12.453
73105ION    CL-38365  40.359  40.366  11.716
73106ION    CL-38366  20.931  17.583   2.269
73107ION    CL-38367  39.032  37.273  12.773
73108ION    CL-38368  38.257  31.493   0.208
73109ION    CL-38369  35.738  24.191  13.546
73110ION    CL-38370   8.093   8.674  13.187
73111ION    CL-38371  36.892  17.222   1.732
73112ION    CL-38372  16.923  37.461   1.792
73113ION    CL-38373  20.753   7.724   1.708
73114ION    CL-38374   2.926  32.400   4.199
73115ION    CL-38375  22.099  34.128   0.492
73116ION    CL-38376  11.894  28.429  13.720
73117ION    CL-38377  24.220   2.023  14.564
73118ION    CL-38378  10.733  40.697   2.863
73119ION    CL-38379   7.540  17.043  13.177
73120ION    CL-38380  25.615  24.695  12.103
73121ION    CL-38381   3.119  28.213   2.592
73122ION    CL-38382  16.022  21.436   3.733
73123ION    CL-38383  39.268  21.211  11.023
73124ION    CL-38384  12.543  35.836  11.203
73125ION    CL-38385  39.451   6.332  11.464
73126ION    CL-38386  18.971  34.508  10.243
73127ION    CL-38387  25.172  27.961   2.405
73128ION    CL-38388   1.825  43.258   3.693
73129ION    CL-38389   0.440  16.624   0.018
73130ION    CL-38390  10.368   5.687   1.371
73131ION    CL-38391  21.871  17.242   2.278
73132ION    CL-38392  40.394  37.807   4.028
73133ION    CL-38393  16.377   6.475   3.376
73134ION    CL-38394  22.645  13.353  12.614
73135ION    CL-38395   2.441  21.626  13.431
73136ION    CL-38396  43.975  26.914   3.022
73137ION    CL-38397   2.443  37.403  13.519
73138ION    CL-38398  35.176  41.566  13.089
73139ION    CL-38399  30.399   8.030   3.195
73140ION    CL-38400  26.027  18.780   2.248
73141ION    CL-38401   9.190   8.248  14.836
73142ION    CL-38402  13.792  43.978  14.118
73143ION    CL-38403  16.946  25.792   3.620
73144ION    CL-38404  31.721  30.426   1.231
73145ION    CL-38405  39.988   0.225  13.826
73146ION    CL-38406  42.281  20.421  11.267
73147ION    CL-38407  32.404  38.723   3.398
73148ION    CL-38408   3.890  41.067   0.566
73149ION    CL-38409   7.591  41.663  12.143
73150ION    CL-38410  12.999  28.524  11.969
73151ION    CL-38411  15.931  14.558  12.831
73152ION    CL-38412  13.051  27.455   5.100
73153ION    CL-38413  25.387  40.580  11.557
73154ION    CL-38414   6.119  44.811  11.210
73155ION    CL-38415  29.641  22.382  12.438
73156ION    CL-38416  44.246  20.765   1.666
73157ION    CL-38417   7.951  41.030  10.800
73158ION    CL-38418  13.687  25.307  13.563
73159ION    CL-38419   1.311  42.106  13.053
73160ION    CL-38420  26.344  31.211  13.514
73161ION    CL-38421  18.045  27.583  13.934
73162ION    CL-38422  26.098   0.920   0.999
73163ION    CL-38423  31.135  11.909   4.962
73164ION    CL-38424  23.975  22.178   3.930
73165ION    CL-38425  34.964  35.007  12.856
73166ION    CL-38426  11.186   5.832  11.450
73167ION    CL-38427  23.197   5.228  10.622
73168ION    CL-38428   9.596  37.385   1.392
73169ION    CL-38429  22.374  37.606  12.245
73170ION    CL-38430  14.487   0.567  14.168
73171ION    CL-38431  31.185  23.171  11.766
73172ION    CL-38432   5.732  36.535   4.148
73173ION    CL-38433   9.330  27.915  10.764
73174ION    CL-38434  21.432   1.884  13.163
73175ION    CL-38435  25.579  12.810  14.734
73176ION    CL-38436   5.021   3.996  13.684
73177ION    CL-38437   5.463   3.108  13.921
73178ION    CL-38438  32.573  24.302   3.094
73179ION    CL-38439  25.494   2.940   3.257
73180ION    CL-38440  15.511   3.369   4.972
73181ION    CL-38441  34.013  23.686   3.718
73182ION    CL-38442  30.131  29.255  11.268
73183ION    CL-38443  20.248  14.928  12.232
73184ION    CL-38444   5.870   1.484  11.394
73185ION    CL-38445  39.060  18.017   0.822
73186ION    CL-38446  13.260  19.111   4.880
73187ION    CL-38447   0.916  22.797   1.586
73188ION    CL-38448  44.345  33.642   1.911
73189ION    CL-38449  31.137  33.550  13.991
73190ION    CL-38450  29.502  37.458   0.197
73191ION    CL-38451  11.435  19.715  13.464
73192ION    CL-38452   8.163   5.394   2.348
73193ION    CL-38453  36.191  40.051  12.877
73194ION    CL-38454  12.752   4.640   1.454
73195ION    CL-38455  12.586   3.668  14.977
73196ION    CL-38456   1.960   0.382   4.760
73197ION    CL-38457   6.818  26.138  13.065
73198ION    CL-38458  39.490  17.196  11.123
73199ION    CL-38459  23.456  15.892  11.241
73200ION    CL-38460  16.943   1.386  12.459
73201ION    CL-38461  26.792  21.872  12.971
73202ION    CL-38462  25.050  22.739   4.553
73203ION    CL-38463  42.049  30.371  13.452
73204ION    CL-38464  22.177  33.921  13.913
73205ION    CL-38465  11.416   2.257   0.054
73206ION    CL-38466  40.906  18.590   4.973
73207ION    CL-38467  15.070  21.740  13.745
73208ION    CL-38468   5.484   4.982   1.352
73209ION    CL-38469  29.065  27.703  12.079
73210ION    CL-38470   6.666  11.659   1.284
73211ION    CL-38471  23.875  14.535   4.889
73212ION    CL-38472  13.474  32.538  14.969
73213ION    CL-38473  35.677  40.378  14.717
73214ION    CL-38474   5.434  15.424  12.085
73215ION    CL-38475   8.924   8.400  12.699
73216ION    CL-38476  28.050   4.292  14.790
73217ION    CL-38477  15.854  43.408  14.517
73218ION    CL-38478  35.631  17.557  11.701
73219ION    CL-38479  31.427  40.414  13.060
73220ION    CL-38480  40.832  21.093  12.650
73221ION    CL-38481  31.358  10.199   2.450
73222ION    CL-38482  37.220  41.434  11.197
73223ION    CL-38483   3.345  24.073   4.457
73224ION    CL-38484  13.396  18.127   4.765
73225ION    CL-38485  15.447   6.990  12.086
73226ION    CL-38486  36.272   5.808  12.826
73227ION    CL-38487  30.531  24.782  13.433
73228ION    CL-38488  36.377  28.691  12.564
73229ION    CL-38489   9.644  42.280  14.848
73230ION    CL-38490  24.144  26.422  13.109
73231ION    CL-38491  16.851   4.287   2.904
73232ION    CL-38492  40.904  34.992   0.049
73233ION    CL-38493  12.952  44.589  12.894
73234ION    CL-38494  23.570  35.866   4.039
73235ION    CL-38495   7.058  24.472  10.950
73236ION    CL-38496  37.665   6.580  10.263
73237ION    CL-38497   0.464  22.299  12.932
73238ION    CL-38498  20.688  21.641   1.324
73239ION    CL-38499  15.410  19.227   1.791
73240ION    CL-38500  10.450  31.555   4.972
73241ION    CL-38501  11.994  31.303   0.434
73242ION    CL-38502   2.678  11.657  11.699
73243ION    CL-38503  28.309  43.962   1.477
73244ION    CL-38504  20.042  37.185   0.997
73245ION    CL-38505   3.133  32.930   1.826
73246ION    CL-38506  13.537  42.924   1.672
73247ION    CL-38507   0.547  15.343   5.316
73248ION    CL-38508   9.882  34.532  14.033
73249ION    CL-38509  43.018  27.761   5.086
73250ION    CL-38510   8.309  31.883  12.086
73251ION    CL-38511  17.586   9.779  14.753
73252ION    CL-38512  16.321  16.255   4.923
73253ION    CL-38513  26.059  11.428  12.986
73254ION    CL-38514  38.805  20.630  14.374
73255ION    CL-38515  19.419  32.636  13.221
73256ION    CL-38516  24.142   1.579  10.288
73257ION    CL-38517  44.535  30.328   2.978
73258ION    CL-38518  14.106  44.741  10.303
73259ION    CL-38519  13.344  25.693   2.489
73260ION    CL-38520  20.452   7.955   4.174
73261ION    CL-38521  42.064  35.828   2.468
73262ION    CL-38522  36.690   0.339   3.522
73263ION    CL-38523  33.885  31.863  11.620
73264ION    CL-38524  43.022  20.143   1.566
73265ION    CL-38525   3.786  31.304   0.337
73266ION    CL-38526  33.029  42.926  13.816
73267ION    CL-38527  19.723  39.252  14.396
73268ION    CL-38528  36.016   2.834   2.424
73269ION    CL-38529  37.172  20.084  14.580
73270ION    CL-38530  19.164   0.050  11.865
73271ION    CL-38531   6.666  38.436  11.612
73272ION    CL-38532  16.452   1.900   0.169
73273ION    CL-38533   4.835   3.223   2.021
73274ION    CL-38534  22.959   9.523  11.603
73275ION    CL-38535  33.171  43.461   1.764
73276ION    CL-38536  42.086  22.484   4.078
73277ION    CL-38537  12.436  22.356  12.856
73278ION    CL-38538  13.134  19.411  14.058
73279ION    CL-38539  21.851  12.068  13.987
73280ION    CL-38540  39.376  27.175   4.438
73281ION    CL-38541  40.814  36.966  12.018
73282ION    CL-38542  15.007  38.858  13.861
73283ION    CL-38543  43.448  22.784  13.895
73284ION    CL-38544  32.563  16.130   0.931
73285ION    CL-38545  41.543  28.369   4.593
73286ION    CL-38546  43.974   7.887  12.874
73287ION    CL-38547  35.523  35.413  11.412
73288ION    CL-38548  31.986  43.895   1.648
73289ION    CL-38549  16.071  26.816  10.501
73290ION    CL-38550  32.145  29.063  11.185
73291ION    CL-38551  18.303  33.404   3.109
73292ION    CL-38552  36.571  20.335  11.282
73293ION    CL-38553   0.321  23.832  11.549
73294ION    CL-38554  23.013   2.184   1.699
73295ION    CL-38555  23.972  25.687   4.771
73296ION    CL-38556  41.104  33.309  12.896
73297ION    CL-38557  40.577  41.019   1.127
73298ION    CL-38558   7.716  18.505   2.703
73299ION    CL-38559  42.646  41.219   9.937
73300ION    CL-38560  39.444  43.120  12.716
73301ION    CL-38561  13.727  15.309  14.063
73302ION    CL-38562  38.243  17.417  11.971
73303ION    CL-38563  35.988  42.909   3.717
73304ION    CL-38564  36.511  36.923  11.440
73305ION    CL-38565  17.805  37.200   1.383
73306ION    CL-38566   4.436  17.498   2.876
73307ION    CL-38567  36.244  20.461   1.626
73308ION    CL-38568   3.926  23.090   1.851
73309ION    CL-38569  39.311   8.090   4.230
73310ION    CL-38570  28.490  42.430  11.913
73311ION    CL-38571  28.494  31.583  11.274
73312ION    CL-38572  20.119  32.966  10.961
73313ION    CL-38573  26.227  11.222   4.999
73314ION    CL-38574  44.789  33.534   3.287
73315ION    CL-38575  29.029  44.101  11.048
73316ION    CL-38576  16.562  33.375   4.169
73317ION    CL-38577   8.750  25.591  10.820
73318ION    CL-38578  19.512  30.598   0.784
73319ION    CL-38579  27.773  15.749   1.146
73320ION    CL-38580  42.088   8.401   1.633
73321ION    CL-38581  33.044  26.014   2.802
73322ION    CL-38582  14.554  20.977   2.950
73323ION    CL-38583  20.195  28.037   4.296
73324ION    CL-38584  38.002   7.111   1.863
73325ION    CL-38585   2.282  22.230   4.501
73326ION    CL-38586  11.195  18.500  13.356
73327ION    CL-38587  37.348  26.217   4.628
73328ION    CL-38588   1.335  19.121  11.062
73329ION    CL-38589  29.596  19.699   3.378
73330ION    CL-38590  31.782   8.800   0.687
73331ION    CL-38591  30.025  22.672   4.280
73332ION    CL-38592  20.645  37.956   0.626
73333ION    CL-38593  26.781  36.434   1.428
73334ION    CL-38594  38.923  33.024   2.501
73335ION    CL-38595  26.703  20.773  12.742
73336ION    CL-38596  22.446  16.360  14.818
73337ION    CL-38597  41.581   3.897  13.049
73338ION    CL-38598  19.128   2.751   1.193
73339ION    CL-38599  11.059  34.590  14.776
73340ION    CL-38600  18.572  43.303   0.975
73341ION    CL-38601  34.823  29.438   1.761
73342ION    CL-38602  36.260   9.759  11.875
73343ION    CL-38603  15.753   6.276  13.132
73344ION    CL-38604   0.480  33.997  10.471
73345ION    CL-38605  39.879  10.338  11.889
73346ION    CL-38606  21.150  26.586   2.934
73347ION    CL-38607   6.280  39.433   3.719
73348ION    CL-38608  41.532  36.329   3.225
73349ION    CL-38609  21.466  12.980   3.334
73350ION    CL-38610  44.510   1.483  14.156
73351ION    CL-38611  28.619   8.156   1.368
73352ION    CL-38612  18.665  21.589   2.411
73353ION    CL-38613  28.297   1.889   1.213
73354ION    CL-38614  43.785   1.993  13.002
73355ION    CL-38615   9.402  34.140  11.981
73356ION    CL-38616  21.329   1.391  12.097
73357ION    CL-38617  21.493  34.881   4.497
73358ION    CL-38618  31.490  29.420   4.182
73359ION    CL-38619   5.714  17.292   0.933
73360ION    CL-38620  29.797   5.119  11.127
73361ION    CL-38621  14.248   4.480  12.700
73362ION    CL-38622   0.250   5.952   3.288
73363ION    CL-38623  24.271  35.379   2.623
73364ION    CL-38624  38.408  33.989   1.049
73365ION    CL-38625  18.046   3.377   4.567
73366ION    CL-38626  31.692  38.358  10.993
73367ION    CL-38627   9.243  37.018  12.111
73368ION    CL-38628  31.667  37.770   1.165
73369ION    CL-38629  37.984  27.725  11.595
73370ION    CL-38630  42.931  42.261   0.019
73371ION    CL-38631  21.309   5.057   1.943
73372ION    CL-38632  23.822  32.568   0.318
73373ION    CL-38633   2.619  41.196   1.499
73374ION    CL-38634  44.645  24.464   4.099
73375ION    CL-38635  14.649  40.774  14.107
73376ION    CL-38636  37.395   8.390  11.554
73377ION    CL-38637  41.806   8.538   5.086
73378ION    CL-38638  14.619   2.528   0.009
73379ION    CL-38639  25.078  18.905  12.119
73380ION    CL-38640  33.070  15.617   2.159
73381ION    CL-38641  12.248  21.602  14.297
73382ION    CL-38642  36.020  17.710   1.744
73383ION    CL-38643  18.128  12.044   0.508
73384ION    CL-38644   2.629  24.886  14.799
73385ION    CL-38645  24.623  37.197  12.996
73386ION    CL-38646  11.878  39.698  13.343
73387ION    CL-38647   2.578   6.941   3.209
73388ION    CL-38648  36.697  12.128   0.397
73389ION    CL-38649  23.095  36.028   1.201
73390ION    CL-38650  25.578  35.926   1.332
73391ION    CL-38651  29.907   2.590  11.257
73392ION    CL-38652  25.767  21.549  11.813
73393ION    CL-38653  17.824  35.146   1.440
73394ION    CL-38654  39.396  17.677   4.122
73395ION    CL-38655  23.631   3.048  13.393
73396ION    CL-38656  19.489  43.174   3.546
73397ION    CL-38657  38.584   0.894   2.180
73398ION    CL-38658  15.132  21.455  10.812
73399ION    CL-38659  23.427  41.979   0.409
73400ION    CL-38660  33.775  29.758  13.059
73401ION    CL-38661  31.394  35.642   2.251
73402ION    CL-38662  30.510  13.133  12.457
73403ION    CL-38663   1.168   3.980   0.898
73404ION    CL-38664  18.245  32.137   0.739
73405ION    CL-38665  35.325  37.123   1.655
73406ION    CL-38666  34.451  33.735   0.243
73407ION    CL-38667  41.547   7.105   4.449
73408ION    CL-38668  36.689  37.832  11.061
73409ION    CL-38669  17.166  27.939   5.232
73410ION    CL-38670  17.626   8.492   2.632
73411ION    CL-38671   2.698  42.041   5.134
73412ION    CL-38672  37.348  27.184  10.699
73413ION    CL-38673  23.260  42.832  10.970
73414ION    CL-38674   8.939  17.426   1.945
73415ION    CL-38675  14.840  14.535  14.248
73416ION    CL-38676  44.348  27.481  10.909
73417ION    CL-38677   9.182  30.677   4.646
73418ION    CL-38678   1.980  34.153  13.152
73419ION    CL-38679  36.642  35.240   4.887
73420ION    CL-38680  31.682  28.678   2.541
73421ION    CL-38681  41.340   5.702   2.185
73422ION    CL-38682  39.289  16.169   4.389
73423ION    CL-38683  11.603  16.899   1.166
73424ION    CL-38684  43.273  35.514   0.882
73425ION    CL-38685  32.443   9.085   1.248
73426ION    CL-38686   4.297  41.015  13.885
73427ION    CL-38687   5.372  34.754  13.428
73428ION    CL-38688  27.036  32.737   2.860
73429ION    CL-38689  43.754  28.307  13.954
73430ION    CL-38690  14.843   4.528   2.957
73431ION    CL-38691   4.382  14.746  11.168
73432ION    CL-38692   4.979  12.887   3.302
73433ION    CL-38693  35.373  15.955   0.979
73434ION    CL-38694  18.294   2.501  14.518
73435ION    CL-38695  19.049  24.425  12.149
73436ION    CL-38696  19.946  13.171   0.117
73437ION    CL-38697  17.921  21.239   3.578
73438ION    CL-38698  14.625  28.215   1.453
73439ION    CL-38699  43.052   6.942   0.983
73440ION    CL-38700  33.035  14.405   2.897
73441ION    CL-38701  37.431  26.595  14.682
73442ION    CL-38702  11.344  19.408   4.591
73443ION    CL-38703  12.838   0.336  13.391
73444ION    CL-38704  40.072   5.890   4.199
73445ION    CL-38705   8.589   3.667   0.484
73446ION    CL-38706  39.894  11.366  10.688
73447ION    CL-38707  11.357  28.836  12.073
73448ION    CL-38708   3.713  42.926  11.146
73449ION    CL-38709  21.153  16.668  12.443
73450ION    CL-38710  39.272  36.598  11.052
73451ION    CL-38711  10.424  14.435  12.571
73452ION    CL-38712  36.401  33.612   3.215
73453ION    CL-38713  32.778  41.066   3.123
73454ION    CL-38714   1.963  23.665   2.589
73455ION    CL-38715  40.625   8.000  11.702
73456ION    CL-38716  40.937  35.622  11.828
73457ION    CL-38717  22.145  21.123  13.428
73458ION    CL-38718   2.870  22.054   2.830
73459ION    CL-38719  26.067  35.931  11.854
73460ION    CL-38720  33.142  20.304  10.794
73461ION    CL-38721  30.230  39.335  14.514
73462ION    CL-38722   3.261  29.918   3.741
73463ION    CL-38723  23.983   5.506   1.915
73464ION    CL-38724  35.109  15.707   3.638
73465ION    CL-38725  12.817  11.829   4.259
73466ION    CL-38726  42.584  35.103  12.571
73467ION    CL-38727  40.090  44.231  13.791
73468ION    CL-38728  30.523  42.571  11.509
73469ION    CL-38729   6.914  12.022   4.964
73470ION    CL-38730  10.099  35.516   0.850
73471ION    CL-38731   5.188  33.457  14.889
73472ION    CL-38732   4.875  40.964   0.180
73473ION    CL-38733   3.992   5.340   1.822
73474ION    CL-38734  43.830  32.583   2.016
73475ION    CL-38735  33.423  20.259   0.722
73476ION    CL-38736  38.261  17.536   3.534
73477ION    CL-38737   5.821   8.837   2.270
73478ION    CL-38738  16.435  18.097   4.502
73479ION    CL-38739   4.952  14.379   1.398
73480ION    CL-38740  18.608   5.047   3.110
73481ION    CL-38741  42.263   7.985   5.008
73482ION    CL-38742   3.421  30.366  11.935
73483ION    CL-38743  31.985  38.445   5.024
73484ION    CL-38744  44.528  35.934   3.777
73485ION    CL-38745  20.975  12.271  14.425
73486ION    CL-38746  26.778  44.587  14.967
73487ION    CL-38747  15.676  15.804   2.201
73488ION    CL-38748  13.841  27.057   2.980
73489ION    CL-38749   4.471  29.079  11.546
73490ION    CL-38750  12.173   6.770   0.075
73491ION    CL-38751  31.345   3.562   3.788
73492ION    CL-38752  43.458   5.597  11.831
73493ION    CL-38753   6.141  33.352   9.714
73494ION    CL-38754  34.597   6.157  12.400
73495ION    CL-38755   5.147   0.014  13.945
73496ION    CL-38756  21.610   7.066   0.804
73497ION    CL-38757   0.301  15.684  14.704
73498ION    CL-38758   5.050   8.261   4.589
73499ION    CL-38759  33.529  17.543   4.357
73500ION    CL-38760  39.509   5.230  10.192
73501ION    CL-38761  34.100  41.934   0.259
73502ION    CL-38762  18.483   3.199   3.191
73503ION    CL-38763  32.401  28.039  13.574
73504ION    CL-38764   4.389  37.418  10.665
73505ION    CL-38765  26.395  28.860   2.889
73506ION    CL-38766  37.391  16.288  11.367
73507ION    CL-38767   9.871  36.674   0.166
73508ION    CL-38768  40.806  23.560   0.900
73509ION    CL-38769  18.883  22.671  10.687
73510ION    CL-38770  17.136  28.054  13.124
73511ION    CL-38771  41.204  38.655   4.566
73512ION    CL-38772  23.998  29.730   0.850
73513ION    CL-38773  28.279  12.753  13.633
73514ION    CL-38774  31.054  17.475  12.951
73515ION    CL-38775  38.864  25.212  13.782
73516ION    CL-38776  38.481  14.156   0.868
73517ION    CL-38777  44.453  41.709   2.901
73518ION    CL-38778  32.949  32.586   1.667
73519ION    CL-38779  12.714  41.632  11.402
73520ION    CL-38780   5.997  44.708  12.451
73521ION    CL-38781  18.323  28.294   0.597
73522ION    CL-38782   8.324  11.030  12.292
73523ION    CL-38783   7.901  19.836  10.718
73524ION    CL-38784  31.938  26.602   1.673
73525ION    CL-38785  44.712  43.729   0.744
73526ION    CL-38786   6.936  36.403  12.367
73527ION    CL-38787  19.267  37.457  14.782
73528ION    CL-38788  27.609   8.121   1.386
73529ION    CL-38789  38.259   3.827  12.922
73530ION    CL-38790  40.232  42.812   3.851
73531ION    CL-38791   7.797   7.549   5.081
73532ION    CL-38792  20.442   4.489  12.441
73533ION    CL-38793  24.428  32.620  14.524
73534ION    CL-38794  19.287   1.742   3.742
73535ION    CL-38795  19.317  25.728  12.575
73536ION    CL-38796  28.228   7.673  14.744
73537ION    CL-38797  27.471   0.839   0.295
73538ION    CL-38798  35.889  43.751   3.108
73539ION    CL-38799  36.983   7.149  12.850
73540ION    CL-38800  17.423  37.622   0.672
73541ION    CL-38801  35.870  17.644  10.734
73542ION    CL-38802  11.454  43.341  13.384
73543ION    CL-38803   3.567  28.058   3.472
73544ION    CL-38804   1.165  19.939  12.419
73545ION    CL-38805  24.189  41.564   3.164
73546ION    CL-38806  25.742   5.184   2.837
73547ION    CL-38807  26.225  42.699   1.291
73548ION    CL-38808  41.538  26.159   3.907
73549ION    CL-38809  44.481   7.889  10.761
73550ION    CL-38810  36.616   6.070  11.621
73551ION    CL-38811   8.106  35.110   3.192
73552ION    CL-38812  19.265  31.557   3.203
73553ION    CL-38813  19.782  21.611   0.901
73554ION    CL-38814   1.562  11.184  14.214
73555ION    CL-38815   4.688  24.520  12.114
73556ION    CL-38816   3.381  12.384  11.997
73557ION    CL-38817  37.582  23.728  12.889
73558ION    CL-38818  39.766  14.209   4.710
73559ION    CL-38819  35.384  10.528   4.514
73560ION    CL-38820  15.675  13.730   1.534
73561ION    CL-38821  16.767  22.618  13.364
73562ION    CL-38822  10.617  24.460  13.732
73563ION    CL-38823  25.736   1.652  12.410
73564ION    CL-38824  15.897  20.783  12.419
73565ION    CL-38825  17.045  12.420  13.382
73566ION    CL-38826  23.844  34.897   5.149
73567ION    CL-38827   5.794  31.598  11.631
73568ION    CL-38828   6.497  17.516   5.145
73569ION    CL-38829  34.540  31.149   3.768
73570ION    CL-38830   8.216  36.012   1.246
73571ION    CL-38831   9.573  32.837  14.861
73572ION    CL-38832  32.915  36.967   1.603
73573ION    CL-38833  16.006   6.565  14.301
73574ION    CL-38834   3.728  12.422  13.659
73575ION    CL-38835  35.131  39.045   1.401
73576ION    CL-38836  37.613  35.818  12.853
73577ION    CL-38837   9.129  11.952  12.423
73578ION    CL-38838  10.184  38.899   3.115
73579ION    CL-38839   7.121  21.502   2.850
73580ION    CL-38840  37.459  16.681  13.067
73581ION    CL-38841  44.573  35.860  11.567
73582ION    CL-38842  28.913  27.183  13.907
73583ION    CL-38843  23.887  11.838   1.088
73584ION    CL-38844  35.583  24.275  12.421
73585ION    CL-38845  37.914  16.328   0.530
73586ION    CL-38846  29.645  20.020   0.964
73587ION    CL-38847  11.946  22.921   2.514
73588ION    CL-38848  12.167   3.924  11.098
73589ION    CL-38849  23.786  20.068   1.350
73590ION    CL-38850  23.108   3.608  14.608
73591ION    CL-38851  20.514   9.289  12.900
73592ION    CL-38852  11.699  19.452   3.296
73593ION    CL-38853   3.657  10.346   0.932
73594ION    CL-38854   9.799  38.127   0.751
73595ION    CL-38855  20.537   4.239  13.182
73596ION    CL-38856  11.874  15.680  11.490
73597ION    CL-38857  12.178  37.370   0.545
73598ION    CL-38858  19.791   3.663   3.256
73599ION    CL-38859   8.612  14.262   3.632
73600ION    CL-38860   4.233  26.108  13.227
73601ION    CL-38861  14.232  10.464   4.996
73602ION    CL-38862  32.940  40.500  12.422
73603ION    CL-38863  28.110   2.837  12.389
73604ION    CL-38864  28.883  19.846  13.050
73605ION    CL-38865  14.120  21.799   1.716
73606ION    CL-38866  27.693  15.733   4.489
73607ION    CL-38867  10.601  23.153  10.657
73608ION    CL-38868  16.637   2.856   2.255
73609ION    CL-38869   6.825  22.002  11.505
73610ION    CL-38870  26.560  32.539  10.983
73611ION    CL-38871   1.767   8.618  14.276
73612ION    CL-38872  37.154  16.915   4.044
73613ION    CL-38873   0.141   1.165   3.317
73614ION    CL-38874  40.371  25.047   3.120
73615ION    CL-38875  42.763  30.491   2.413
73616ION    CL-38876  13.886  28.982  11.919
73617ION    CL-38877  41.266  11.390   0.260
73618ION    CL-38878  38.637  33.428   1.704
73619ION    CL-38879  22.940  11.239   1.599
73620ION    CL-38880  17.167  32.421   0.786
73621ION    CL-38881  24.352  22.016   4.842
73622ION    CL-38882  36.325  19.775  14.510
73623ION    CL-38883   8.472  16.386   3.343
73624ION    CL-38884  24.625   3.313  11.763
73625ION    CL-38885  43.618  22.065  11.184
73626ION    CL-38886  37.726   7.617  12.372
73627ION    CL-38887  39.957   3.304   0.491
73628ION    CL-38888  17.546  36.804  10.685
73629ION    CL-38889  38.630  35.748   4.660
73630ION    CL-38890  41.307  39.579   0.438
73631ION    CL-38891  31.501  18.375   2.428
73632ION    CL-38892  33.872  39.249  12.761
73633ION    CL-38893  28.662  34.577  11.535
73634ION    CL-38894  43.592  25.489   5.484
73635ION    CL-38895  41.441  28.627  12.882
73636ION    CL-38896  35.940  25.169   2.029
73637ION    CL-38897  25.981   2.926   4.822
73638ION    CL-38898  36.579  27.603  12.880
73639ION    CL-38899  41.028   8.872  12.075
73640ION    CL-38900  18.564   0.528  13.189
73641ION    CL-38901  33.647  15.694  11.470
73642ION    CL-38902   3.019   3.312   2.215
73643ION    CL-38903  21.666  15.139  12.613
73644ION    CL-38904  44.973  42.623   1.362
73645ION    CL-38905  39.447  43.813  14.433
73646ION    CL-38906  20.221   6.926   4.420
73647ION    CL-38907  26.093  20.406   2.063
73648ION    CL-38908  18.127  38.537  12.995
73649ION    CL-38909  37.640  28.654   2.666
73650ION    CL-38910   6.591  14.217   1.637
73651ION    CL-38911   1.439   1.847  11.863
73652ION    CL-38912  15.095  29.440  14.608
73653ION    CL-38913  20.998  15.457  14.548
73654ION    CL-38914   7.642  29.948   1.774
73655ION    CL-38915  44.814   9.853   1.684
73656ION    CL-38916   5.090  20.498   4.016
73657ION    CL-38917  27.196   8.964  12.007
73658ION    CL-38918  12.009  17.644  13.132
73659ION    CL-38919   8.544   2.444   4.184
73660ION    CL-38920  38.575  12.748   3.256
73661ION    CL-38921  43.883   3.319   0.778
73662ION    CL-38922   6.856  14.959   4.352
73663ION    CL-38923  42.959  38.798   0.838
73664ION    CL-38924  21.202  34.777  12.884
73665ION    CL-38925  20.341  32.624   2.707
73666ION    CL-38926   8.641  33.723   0.668
73667ION    CL-38927  24.807  19.334   3.782
73668ION    CL-38928  12.503  10.488  12.235
73669ION    CL-38929  35.056   4.884  14.793
73670ION    CL-38930   0.349   7.691  11.869
73671ION    CL-38931   7.271   8.260   3.605
73672ION    CL-38932  30.691   8.309   2.398
73673ION    CL-38933  16.196  24.323   1.510
73674ION    CL-38934  37.941   5.539   3.536
73675ION    CL-38935  25.504  34.026   4.662
73676ION    CL-38936   7.726  22.300   3.268
73677ION    CL-38937   4.245  26.525   0.835
73678ION    CL-38938  12.745   0.727  10.309
73679ION    CL-38939   1.862  14.321   0.409
73680ION    CL-38940  44.862  18.169   1.455
73681ION    CL-38941  43.149   3.462   5.119
73682ION    CL-38942  23.505  31.514   2.262
73683ION    CL-38943  34.483  26.716  12.475
73684ION    CL-38944  18.092  30.568   3.703
73685ION    CL-38945  17.213  40.117   5.095
73686ION    CL-38946  15.916  11.892  14.841
73687ION    CL-38947  31.842  18.597  14.831
73688ION    CL-38948   6.920  23.560   0.824
73689ION    CL-38949  19.949  26.436  14.743
73690ION    CL-38950  41.281  34.160   3.574
73691ION    CL-38951  28.103   8.509  11.407
73692ION    CL-38952  11.402  28.435  10.999
73693ION    CL-38953   6.299   1.351   3.864
73694ION    CL-38954  16.175   2.755  12.639
73695ION    CL-38955  16.542   9.988  11.312
73696ION    CL-38956  13.407   4.754  12.758
73697ION    CL-38957  26.152  42.491  12.090
73698ION    CL-38958  14.530  36.620  13.884
73699ION    CL-38959  41.280   9.968  13.582
73700ION    CL-38960   0.166  33.979  11.462
73701ION    CL-38961  37.143  28.842   1.770
73702ION    CL-38962  26.009  35.703  14.978
73703ION    CL-38963  36.397  43.656  13.801
73704ION    CL-38964   5.544  12.616   2.440
73705ION    CL-38965  34.222  14.130   0.897
73706ION    CL-38966  13.090  10.324  13.053
73707ION    CL-38967   2.036  14.126  13.765
73708ION    CL-38968   6.512  34.283   5.033
73709ION    CL-38969  18.631   0.854   4.703
73710ION    CL-38970  32.935   4.273  12.429
73711ION    CL-38971   1.083  42.903   2.813
73712ION    CL-38972  25.894   3.465   1.530
73713ION    CL-38973   2.671  10.315  13.341
73714ION    CL-38974  35.822  34.282  14.555
73715ION    CL-38975   9.655  16.035  12.850
73716ION    CL-38976  15.755  39.818   1.273
73717ION    CL-38977   9.281   3.740   2.878
73718ION    CL-38978  30.932   2.410   5.223
73719ION    CL-38979  35.402   4.813  11.121
73720ION    CL-38980  28.114  23.604  13.675
73721ION    CL-38981  15.077  27.501   3.256
73722ION    CL-38982  40.056   2.397  14.398
73723ION    CL-38983   4.518  30.887   2.630
73724ION    CL-38984   6.373   2.839  14.936
73725ION    CL-38985  17.689  37.618   3.003
73726ION    CL-38986  22.324  13.641  14.060
73727ION    CL-38987  27.006  33.874  12.005
73728ION    CL-38988   6.635  32.532   2.694
73729ION    CL-38989  23.442  19.377   4.801
73730ION    CL-38990   8.899   1.457   0.806
73731ION    CL-38991  27.138  26.710   2.202
73732ION    CL-38992  37.022  22.607  14.113
73733ION    CL-38993  23.448  21.467   1.336
73734ION    CL-38994   0.741   1.158  12.081
73735ION    CL-38995  34.284  12.844  13.049
73736ION    CL-38996  38.984  42.652  13.821
73737ION    CL-38997  34.452  18.022   3.390
73738ION    CL-38998  23.599  43.039   1.837
73739ION    CL-38999   7.382  38.371   0.397
73740ION    CL-39000   2.133  12.224  11.390
73741ION    CL-39001  24.117   8.881   3.788
73742ION    CL-39002   5.318  27.422   3.679
73743ION    CL-39003  13.480   1.261   3.745
73744ION    CL-39004  33.403  43.362   4.093
73745ION    CL-39005   6.150  25.468   0.562
73746ION    CL-39006  26.983   7.678   4.090
73747ION    CL-39007  28.706  17.157  12.665
73748ION    CL-39008  12.569   6.328  13.102
73749ION    CL-39009  33.268   0.133  10.328
73750ION    CL-39010  41.588  16.243  12.574
73751ION    CL-39011  41.121  36.777   1.602
73752ION    CL-39012  12.853   7.446  13.783
73753ION    CL-39013  32.971  33.957   4.518
73754ION    CL-39014  19.635  39.034   4.878
73755ION    CL-39015  39.869  23.499  11.163
73756ION    CL-39016  27.048  35.057   1.294
73757ION    CL-39017   3.688   8.386  11.059
73758ION    CL-39018  16.537  20.383  14.910
73759ION    CL-39019  14.370  27.550  14.408
73760ION    CL-39020  28.267  13.344   1.191
73761ION    CL-39021  34.520  24.578   2.440
73762ION    CL-39022  17.641  33.105  13.615
73763ION    CL-39023  34.606  29.905   3.822
73764ION    CL-39024  17.943  44.303  10.969
73765ION    CL-39025  42.934  18.140  14.505
73766ION    CL-39026  27.080   6.076  10.962
73767ION    CL-39027   5.187  38.607   3.913
73768ION    CL-39028  23.040  33.782   1.512
73769ION    CL-39029   1.944  13.862   3.211
73770ION    CL-39030  32.140  21.474  12.698
73771ION    CL-39031  38.236  13.045   1.632
73772ION    CL-39032   7.094  35.602  10.762
73773ION    CL-39033  24.454  29.864  11.522
73774ION    CL-39034  43.069  43.044   2.690
73775ION    CL-39035  36.921  33.258  12.948
73776ION    CL-39036  27.760  12.394   4.558
73777ION    CL-39037   9.669  37.315  13.512
73778ION    CL-39038  43.500  15.765   4.172
73779ION    CL-39039  21.939  40.465   3.208
73780ION    CL-39040  19.574  36.614   0.323
73781ION    CL-39041  18.592   3.115  13.737
73782ION    CL-39042  28.305  33.318   1.301
73783ION    CL-39043   5.449  41.934   3.265
73784ION    CL-39044  18.635  37.317   2.057
73785ION    CL-39045  44.059   4.639   4.145
73786ION    CL-39046  22.637  41.390  12.163
73787ION    CL-39047  13.921  35.453   4.148
73788ION    CL-39048  32.608   7.465   3.757
73789ION    CL-39049  10.821  23.786  12.129
73790ION    CL-39050  20.855  30.199  11.547
73791ION    CL-39051  37.054  39.773  13.299
73792ION    CL-39052  35.093  44.758  12.063
73793ION    CL-39053  16.602  25.428   4.734
73794ION    CL-39054  42.826  34.721   0.276
73795ION    CL-39055  23.892  33.364  11.133
73796ION    CL-39056  34.841  44.784  14.034
73797ION    CL-39057  40.956   3.271  12.541
73798ION    CL-39058  33.095   3.283   3.860
73799ION    CL-39059  39.802  43.540  11.803
73800ION    CL-39060  21.541  16.520   2.729
73801ION    CL-39061  36.864   8.802   2.767
73802ION    CL-39062  19.341  30.303   2.776
73803ION    CL-39063  38.146  23.160  14.452
73804ION    CL-39064  38.875  22.050   0.803
73805ION    CL-39065   5.638  38.769   0.335
73806ION    CL-39066  21.995  30.643  13.462
73807ION    CL-39067   0.496  25.466   2.329
73808ION    CL-39068   8.052   0.919  14.674
73809ION    CL-39069  29.534  37.491   2.306
73810ION    CL-39070  38.576   8.338  13.911
73811ION    CL-39071  27.078   2.608  13.639
73812ION    CL-39072  25.917  44.808  13.090
73813ION    CL-39073  13.328   1.931   3.232
73814ION    CL-39074  12.282   7.628   1.023
73815ION    CL-39075  30.395  21.092   1.135
73816ION    CL-39076  28.650  41.475  14.650
73817ION    CL-39077   4.415   4.247  10.313
73818ION    CL-39078  23.959  27.020   0.737
73819ION    CL-39079  27.872   8.662   3.912
73820ION    CL-39080  22.078  24.509   2.892
73821ION    CL-39081  19.276  29.685  14.079
73822ION    CL-39082  12.667   8.184  14.258
73823ION    CL-39083  40.429  26.141  10.753
73824ION    CL-39084   9.542   5.441   2.235
73825ION    CL-39085  29.725  28.022   4.029
73826ION    CL-39086   6.324  32.889  12.797
73827ION    CL-39087  21.080  29.772   4.618
73828ION    CL-39088  41.983  25.499  14.236
73829ION    CL-39089  27.755  36.265  10.599
73830ION    CL-39090  34.945  14.467   0.434
73831ION    CL-39091   1.751  44.476  11.538
73832ION    CL-39092  21.099   7.926   0.771
73833ION    CL-39093  33.427  16.536   4.758
73834ION    CL-39094  40.215  35.445   2.152
73835ION    CL-39095   4.390  41.700  12.191
73836ION    CL-39096  13.934   4.392   2.901
73837ION    CL-39097  13.133  14.572  12.043
73838ION    CL-39098   5.928  22.235   1.316
73839ION    CL-39099  33.690  21.416   4.016
73840ION    CL-39100  37.262  15.857  12.485
73841ION    CL-39101  13.118  38.558   4.274
73842ION    CL-39102  19.135  25.701   0.500
73843ION    CL-39103  32.770  18.940  14.976
73844ION    CL-39104   1.844  41.354   2.873
73845ION    CL-39105  35.939   1.676  14.586
73846ION    CL-39106  22.129  14.186  13.244
73847ION    CL-39107  40.284   5.252   3.145
73848ION    CL-39108  19.658  38.050  10.630
73849ION    CL-39109   9.050   8.214  11.577
73850ION    CL-39110   9.016  33.392   1.533
73851ION    CL-39111   1.786  14.844   3.103
73852ION    CL-39112  26.247   9.318  10.627
73853ION    CL-39113  39.547  26.172  14.016
73854ION    CL-39114  30.248  16.108   1.141
73855ION    CL-39115   3.033  14.182  13.818
73856ION    CL-39116  27.440   6.674   0.910
73857ION    CL-39117  33.525  17.108  10.633
73858ION    CL-39118   7.894  39.569  12.531
73859ION    CL-39119  24.177  19.093   5.829
73860ION    CL-39120  36.595  18.709  14.772
73861ION    CL-39121   3.167  39.153   1.598
73862ION    CL-39122  20.071  12.902   3.794
73863ION    CL-39123  44.840  40.900   4.037
73864ION    CL-39124   5.310  31.511   4.763
73865ION    CL-39125  12.334  22.809  12.188
73866ION    CL-39126  28.683  36.148  13.479
73867ION    CL-39127  13.383  15.191   2.507
73868ION    CL-39128  22.943  37.126  10.927
73869ION    CL-39129  18.670   7.516   4.829
73870ION    CL-39130  41.185  36.298   2.390
73871ION    CL-39131  36.550  29.435   3.395
73872ION    CL-39132  43.681  18.460   2.180
73873ION    CL-39133   8.104  33.208  11.929
73874ION    CL-39134  16.072  26.901  14.171
73875ION    CL-39135  31.880  34.004  12.677
73876ION    CL-39136  12.474  43.397   4.083
73877ION    CL-39137  23.106  11.254  11.458
73878ION    CL-39138  37.401   4.791  14.864
73879ION    CL-39139   4.711  15.212  13.650
73880ION    CL-39140  32.363  30.298   5.141
73881ION    CL-39141  31.601   1.959   0.730
73882ION    CL-39142   6.189  21.182   2.335
73883ION    CL-39143  16.179  32.247  13.275
73884ION    CL-39144  15.419  23.541  12.429
73885ION    CL-39145  41.613  38.675  11.376
73886ION    CL-39146  25.199  22.531  14.126
73887ION    CL-39147  12.644  34.434  13.673
73888ION    CL-39148   4.937   9.186  12.083
73889ION    CL-39149  24.291   3.909  13.387
73890ION    CL-39150  36.893  34.575   4.296
73891ION    CL-39151  25.212  27.113  12.009
73892ION    CL-39152  21.070  19.146  12.840
73893ION    CL-39153  43.801  22.550   0.276
73894ION    CL-39154  19.835   4.064  12.865
73895ION    CL-39155  43.826  38.379  13.948
73896ION    CL-39156   5.723   7.383   5.162
73897ION    CL-39157  39.568   7.617   3.297
73898ION    CL-39158  38.756   5.622   4.394
73899ION    CL-39159  32.762  12.759   4.625
73900ION    CL-39160   8.727  33.379   5.135
73901ION    CL-39161  18.178  37.871  13.147
73902ION    CL-39162  41.081   7.340  11.106
73903ION    CL-39163   9.129  29.532   1.287
73904ION    CL-39164  15.958   5.491  10.363
73905ION    CL-39165  19.799  13.907   0.140
73906ION    CL-39166  41.745  41.840   5.407
73907ION    CL-39167   3.199  27.458   1.684
73908ION    CL-39168   6.585  18.651  10.736
73909ION    CL-39169  22.093  23.641   2.582
73910ION    CL-39170  25.602  42.599   3.971
73911ION    CL-39171   8.433  33.281  12.715
73912ION    CL-39172  33.027   3.898   1.826
73913ION    CL-39173   4.676  11.638   2.780
73914ION    CL-39174  30.752   5.528  11.036
73915ION    CL-39175  44.443  25.880   2.113
73916ION    CL-39176   5.805  39.952  12.771
73917ION    CL-39177  34.951   1.690   2.826
73918ION    CL-39178  10.325  36.759   4.163
73919ION    CL-39179   3.629  22.018  12.475
73920ION    CL-39180   8.015  41.859   4.995
73921ION    CL-39181   9.571  44.664  13.637
73922ION    CL-39182   2.674  33.192  14.145
73923ION    CL-39183  29.541  26.256   5.019
73924ION    CL-39184   4.661  44.027   3.713
73925ION    CL-39185  29.907  36.901   3.296
73926ION    CL-39186   7.394   8.462  10.388
73927ION    CL-39187   3.028  17.314   4.264
73928ION    CL-39188  34.500  36.828   0.225
73929ION    CL-39189   5.038   5.693   1.913
73930ION    CL-39190  10.880  29.059   3.305
73931ION    CL-39191  28.946  11.715   1.890
73932ION    CL-39192   6.046  30.704  14.204
73933ION    CL-39193  43.450  23.094   3.116
73934ION    CL-39194  26.783  13.453  13.333
73935ION    CL-39195  11.583  29.031   0.405
73936ION    CL-39196  30.486  18.461  13.559
73937ION    CL-39197  44.734  11.391   2.133
73938ION    CL-39198  24.820  19.751  11.608
73939ION    CL-39199  27.010   9.367   0.040
73940ION    CL-39200   8.991   9.878   2.798
73941ION    CL-39201   3.387   2.411  13.075
73942ION    CL-39202  40.593  10.691   4.675
73943ION    CL-39203  41.408   3.707  11.179
73944ION    CL-39204  41.335  29.718  11.400
73945ION    CL-39205  24.689  23.241  14.611
73946ION    CL-39206  18.781  26.307   1.411
73947ION    CL-39207  18.387  44.467   4.082
73948ION    CL-39208  21.628  35.578   0.532
73949ION    CL-39209  12.694  25.066   2.409
73950ION    CL-39210  18.069  19.520  13.798
73951ION    CL-39211   9.149  43.754   5.093
73952ION    CL-39212  40.071  15.593  11.218
73953ION    CL-39213  30.806  10.996   4.720
73954ION    CL-39214  34.288  16.670   1.873
73955ION    CL-39215  26.663   7.671   0.974
73956ION    CL-39216  30.690   0.449  10.399
73957ION    CL-39217  26.264   3.954  13.458
73958ION    CL-39218  32.492  33.621  13.251
73959ION    CL-39219  27.921  17.809  12.577
73960ION    CL-39220  36.244   1.821  13.645
73961ION    CL-39221   3.216  41.275  14.748
73962ION    CL-39222  21.037   0.824  12.869
73963ION    CL-39223   0.638  16.697  12.362
73964ION    CL-39224  18.837   6.230  11.437
73965ION    CL-39225   6.392  28.193   2.307
73966ION    CL-39226  21.671   1.210  13.727
73967ION    CL-39227   0.181   1.838   1.356
73968ION    CL-39228  36.060  11.728   2.375
73969ION    CL-39229  44.014  25.063   4.185
73970ION    CL-39230   0.146  13.476  12.732
73971ION    CL-39231  37.508  25.619   2.708
73972ION    CL-39232  42.320   2.939  13.441
73973ION    CL-39233   2.544  26.155  11.642
73974ION    CL-39234  20.940  29.058   1.832
73975ION    CL-39235  37.292  18.260   3.883
73976ION    CL-39236  36.424  28.463   3.593
73977ION    CL-39237  25.950  29.149  14.404
73978ION    CL-39238  10.465  18.460   3.324
73979ION    CL-39239  29.193   2.886  14.643
73980ION    CL-39240  15.838  17.540   2.758
73981ION    CL-39241  20.765   7.133  13.560
73982ION    CL-39242  17.058  10.840   2.096
73983ION    CL-39243  15.039  19.786  10.726
73984ION    CL-39244  16.202  44.575   2.245
73985ION    CL-39245  13.242  15.650   9.949
73986ION    CL-39246  33.648  28.101   0.998
73987ION    CL-39247   6.685  28.668   0.249
73988ION    CL-39248  17.574  19.699   2.399
73989ION    CL-39249  40.315  18.719   2.404
73990ION    CL-39250  12.729  12.316  14.921
73991ION    CL-39251  16.428  13.567   1.097
73992ION    CL-39252  41.548  30.863   4.702
73993ION    CL-39253  41.520  28.500   1.511
73994ION    CL-39254  36.813  25.802  14.281
73995ION    CL-39255   7.841  38.027   1.217
73996ION    CL-39256  23.586  32.386  11.101
73997ION    CL-39257  37.157   3.347   2.695
73998ION    CL-39258  44.405  22.836  13.108
73999ION    CL-39259  35.158  27.622  10.595
74000ION    CL-39260  26.397  11.510  12.048
74001ION    CL-39261  44.389  38.031  11.898
74002ION    CL-39262   6.976  18.655   0.414
74003ION    CL-39263  30.682   6.251   5.244
74004ION    CL-39264  41.905  11.181  10.164
74005ION    CL-39265  17.239   2.823  12.995
74006ION    CL-39266   8.782  19.491   4.899
74007ION    CL-39267  28.633  28.157  14.568
74008ION    CL-39268  11.435  39.072  12.574
74009ION    CL-39269   9.845  44.019  11.383
74010ION    CL-39270  19.518  21.616   3.807
74011ION    CL-39271  40.497  19.680  13.479
74012ION    CL-39272  31.874  17.748  14.302
74013ION    CL-39273  39.578  17.901  14.277
74014ION    CL-39274  10.873  43.000   0.806
74015ION    CL-39275  19.584  41.989   0.820
74016ION    CL-39276   4.737   4.575  12.211
74017ION    CL-39277  20.730   3.830  11.129
74018ION    CL-39278  12.184  42.802   1.293
74019ION    CL-39279  10.315   1.699   3.636
74020ION    CL-39280  32.899  32.836  12.752
74021ION    CL-39281  12.747  40.883  13.294
74022ION    CL-39282   3.957  20.526  14.412
74023ION    CL-39283  16.265  34.565   0.331
74024ION    CL-39284  38.802  23.150  10.644
74025ION    CL-39285  38.373  31.862   2.643
74026ION    CL-39286  43.302  14.236   2.506
74027ION    CL-39287  43.509  41.389   3.585
74028ION    CL-39288  26.908   2.289  14.905
74029ION    CL-39289  17.196  24.558   2.628
74030ION    CL-39290  41.604   2.910  14.846
74031ION    CL-39291   7.761  43.055   1.517
74032ION    CL-39292  28.584  11.938  13.858
74033ION    CL-39293  19.975  24.794  12.071
74034ION    CL-39294  16.428  16.638  12.803
74035ION    CL-39295  28.155  43.789   3.273
74036ION    CL-39296  19.741  36.680   2.517
74037ION    CL-39297  12.518   1.526   3.678
74038ION    CL-39298  24.152  42.484  13.618
74039ION    CL-39299  19.690   6.210   4.309
74040ION    CL-39300  39.055   8.335  12.729
74041ION    CL-39301  35.353  25.228  12.143
74042ION    CL-39302   8.363  10.217  10.217
74043ION    CL-39303  31.132   3.184   2.316
74044ION    CL-39304   2.554  30.996   2.260
74045ION    CL-39305  27.706  24.953   4.344
74046ION    CL-39306  11.594  33.594  13.535
74047ION    CL-39307  34.615  25.113   0.169
74048ION    CL-39308  34.591  31.679   4.977
74049ION    CL-39309  10.728  18.823  11.186
74050ION    CL-39310  40.468  32.700   0.100
74051ION    CL-39311  41.479  39.264  12.061
74052ION    CL-39312  15.735  41.797  11.560
74053ION    CL-39313  21.185  33.926  14.033
74054ION    CL-39314  32.941  36.517  12.103
74055ION    CL-39315  37.908  41.489   3.425
74056ION    CL-39316   8.373  30.341   1.210
74057ION    CL-39317  38.070  15.754   3.316
74058ION    CL-39318   4.066  17.132   0.204
74059ION    CL-39319   8.427  23.226   1.509
74060ION    CL-39320  26.820   4.757  12.057
74061ION    CL-39321  41.751  20.163  13.968
74062ION    CL-39322  30.940  21.527  13.425
74063ION    CL-39323  41.383  27.444   4.941
74064ION    CL-39324   9.365  40.194  12.517
74065ION    CL-39325   8.120   9.629  11.932
74066ION    CL-39326   4.082  15.719   2.084
74067ION    CL-39327  27.016   9.151   4.318
74068ION    CL-39328  36.625   8.282  12.436
74069ION    CL-39329  17.038   5.435   1.260
74070ION    CL-39330  38.572  27.307   3.826
74071ION    CL-39331  24.731  42.796  12.059
74072ION    CL-39332  10.941  13.126  14.308
74073ION    CL-39333   2.702  23.565   0.767
74074ION    CL-39334   3.925  41.577  11.045
74075ION    CL-39335  32.707  35.631  11.701
74076ION    CL-39336   3.389  36.479  12.046
74077ION    CL-39337  16.246  14.003  13.798
74078ION    CL-39338  40.344  12.118   1.481
74079ION    CL-39339  27.596  37.131  10.680
74080ION    CL-39340   3.925  21.154   4.507
74081ION    CL-39341  43.475  37.006   3.677
74082ION    CL-39342  43.264   7.971  12.381
  45.00000  45.00000  15.00000
